/*--------------------------------*- C++ -*----------------------------------*\
  =========                 |
  \\      /  F ield         | OpenFOAM: The Open Source CFD Toolbox
   \\    /   O peration     | Website:  https://openfoam.org
    \\  /    A nd           | Version:  12
     \\/     M anipulation  |
\*---------------------------------------------------------------------------*/
FoamFile
{
    format      ascii;
    class       volScalarField;
    location    "350";
    object      omega;
}
// * * * * * * * * * * * * * * * * * * * * * * * * * * * * * * * * * * * * * //

dimensions      [0 0 -1 0 0 0 0];

internalField   nonuniform List<scalar> 
16200
(
700774.9221
276526.6346
156092.341
107858.0728
83764.22499
68250.67952
54100.39881
33764.83793
8344.827421
824.1697694
313.9232937
195.9049654
126.8446811
85.17086485
61.02119675
45.48971154
34.01380786
25.64961852
19.62853029
15.15167534
11.79059947
9.263018028
7.353968952
5.902705689
4.790875872
3.931366119
3.260979273
2.734043596
2.31780227
1.989303505
1.732113233
1.533001378
1.379811275
1.261974209
1.1720986
1.105502324
1.058649305
1.027832877
1.008956523
0.9981311663
0.9922866129
0.9893438325
0.9880572895
0.9876381738
0.9870630417
0.9860669121
0.9852582427
0.9849099839
0.9847681944
0.9847243387
0.9847372561
0.9847980892
0.9849154664
0.9851105627
0.9854169587
0.9858852018
0.9865898843
0.9876498866
0.9892604672
0.9918117143
733938.9332
290567.8406
164096.6492
113601.1838
88226.93542
71047.12773
54083.13428
27738.32137
4468.905422
607.3875094
317.08722
199.773309
129.3175663
86.58352367
61.70896874
45.92838506
34.24936535
25.73894532
19.64492796
15.13002739
11.74919417
9.213856047
7.30404373
5.855752667
4.748806125
3.894961138
3.230356868
2.708897434
2.297484882
1.973017677
1.719207131
1.523175371
1.372941961
1.257729311
1.169868061
1.104566764
1.058395728
1.027859709
1.00905671
0.9982210926
0.9923416819
0.9893594562
0.9880237843
0.9876037728
0.9870707298
0.9861433701
0.9853283183
0.9849806752
0.9848433066
0.9848056574
0.9848253097
0.9848925242
0.9850152036
0.9852137706
0.9855211386
0.9859871574
0.9866866431
0.9877401219
0.9893508137
0.991939489
765793.6648
304352.2219
172060.9148
119376.4409
92490.08772
73362.00961
52329.45727
20336.37885
2346.967457
545.3755774
321.9680859
203.1979664
131.4713058
87.81691269
62.26927574
46.26375242
34.40234829
25.76207032
19.60830469
15.06700798
11.67592375
9.140233953
7.235257253
5.794093382
4.695126116
3.849292503
3.192304027
2.677819804
2.272504793
1.953131579
1.703534187
1.511196314
1.36438626
1.252187616
1.166687745
1.102984562
1.057740321
1.027662495
1.009047958
0.9982686966
0.9923895695
0.9893863573
0.9880163173
0.9875812137
0.9870777575
0.9862103359
0.9853942432
0.9850486039
0.9849155844
0.9848836599
0.9849095839
0.9849829172
0.9851109184
0.9853133148
0.9856223711
0.9860872791
0.9867829105
0.9878312353
0.9894424207
0.9920655849
795616.3107
317458.2114
179878.5499
125128.752
96258.49356
75238.7168
48135.80948
13124.41253
1387.022937
530.7095522
325.812546
205.8584527
133.1377021
88.75562739
62.65833284
46.46624266
34.45309753
25.70641447
19.51030046
14.95679956
11.56664833
9.039066005
7.145177408
5.715712292
4.628107809
3.792862263
3.14553506
2.639738191
2.24201082
1.929018763
1.684676808
1.496812161
1.353999441
1.245259471
1.16248971
1.100694868
1.056626539
1.027190887
1.00888797
0.9982402103
0.9924039823
0.9894035853
0.9880189581
0.9875633852
0.9870797331
0.9862595191
0.9854511951
0.9851109401
0.9849833801
0.984957418
0.9849895973
0.9850690645
0.9852025727
0.9854092467
0.9857207423
0.9861856395
0.9868787782
0.9879233579
0.9895356756
0.9921908061
823299.9353
330008.3314
187513.6228
130803.3391
99811.399
75481.42044
39998.4734
7338.987181
1035.166612
529.8820928
328.5770266
207.7776176
134.3208909
89.39432778
62.87557549
46.5333914
34.39905374
25.56975143
19.35051546
14.79943391
11.42163968
8.910667611
7.034058821
5.620795238
4.547907374
3.725847182
3.090283315
2.594955114
2.206368982
1.90109312
1.663073294
1.480452169
1.342165824
1.237258546
1.157508564
1.097859763
1.055158641
1.026507837
1.008612831
0.9981555258
0.9923954326
0.9894154916
0.9880250792
0.9875521471
0.9870797649
0.9862963441
0.9855018984
0.9851692157
0.9850476828
0.9850276621
0.9850659438
0.9851514723
0.9852905996
0.9855019248
0.9858165367
0.9862824471
0.9869743915
0.9880166174
0.9896307769
0.9923153513
848632.5653
342056.3358
194924.495
136132.9001
102827.5909
73227.34255
30926.2934
4226.305955
927.1499332
531.5145255
330.1298214
208.8960262
134.9842392
89.70841439
62.90886484
46.45584191
34.2336996
25.34841053
19.12707244
14.59380913
11.24014493
8.754399892
6.90131871
5.508856282
4.454189253
3.648092526
3.02657183
2.543640436
2.165850723
1.869681236
1.639064998
1.462437094
1.329156928
1.228390821
1.151883707
1.094562983
1.053380593
1.025632512
1.008228228
0.9980140268
0.9923609541
0.9894186617
0.988031716
0.9875460593
0.9870781274
0.9863206528
0.9855461371
0.9852233376
0.9851085376
0.9850945469
0.985138854
0.9852304128
0.9853752856
0.9855916222
0.9859099936
0.9863778876
0.987069891
0.9881111321
0.9897279182
0.9924395149
871434.1968
353703.4347
202216.2432
140827.3309
105336.7135
67951.15808
22129.10347
2713.591804
892.0870737
531.6455316
330.4584843
209.2144059
135.1279942
89.69407102
62.75651932
46.23092592
33.95430422
25.04063666
18.83888131
14.33904688
11.02144615
8.569709269
6.746606004
5.379779385
4.347071339
3.559926577
2.954898054
2.486400666
2.121102008
1.835407261
1.613214044
1.443245336
1.315357509
1.218946371
1.145818528
1.090936628
1.051371615
1.024608567
1.007756062
0.9978254655
0.9923040696
0.9894136889
0.9880382621
0.9875442881
0.9870755623
0.9863346813
0.9855848717
0.985273807
0.9851663034
0.9851584021
0.9852086602
0.9853062217
0.9854569589
0.9856786427
0.9860013774
0.9864721701
0.9871654297
0.9882070164
0.9898272432
0.9925634926
891316.6568
365029.8183
209514.2663
145229.6872
106348.1835
58120.60984
14454.26005
2032.770131
876.8941963
530.1980421
329.6289539
208.7581351
134.760111
89.34919696
62.4139622
45.85259223
33.55509018
24.64264958
18.48379413
14.03402028
10.76508786
8.356550676
6.570146642
5.234004984
4.227175796
3.461766941
2.87582243
2.42388738
2.072784347
1.798874314
1.586127356
1.423352593
1.301127024
1.209185058
1.139490371
1.087093759
1.04919846
1.023472125
1.007213922
0.9975971908
0.9922269566
0.9894003836
0.9880436055
0.9875455481
0.9870722272
0.9863399479
0.9856186942
0.9853209171
0.9852212098
0.9852194709
0.9852756349
0.9853791934
0.9855359205
0.9857632746
0.9860909459
0.9865655038
0.9872611625
0.988304379
0.9899288696
0.9926874584
907799.9541
376306.9297
216758.7339
149245.0276
103840.2375
46044.75684
9154.382679
1725.44048
870.1900739
527.1309741
327.6563698
207.5247907
133.8738925
88.66603057
61.8726758
45.31331225
33.03074926
24.15253107
18.06201084
13.67992168
10.47254052
8.11631194
6.373189843
5.072738179
4.095220075
3.355152597
2.790902063
2.357539105
2.022122274
1.76104323
1.558342983
1.403230663
1.286807237
1.199349372
1.13306503
1.083141865
1.04692639
1.022259907
1.00662073
0.9973379143
0.9921329177
0.9893793924
0.9880472098
0.9875486558
0.987068136
0.9863382595
0.9856483503
0.985365035
0.9852735178
0.985278006
0.9853400495
0.9854496171
0.9856124656
0.9858458033
0.9861789571
0.9866581013
0.9873572466
0.9884033235
0.9900328868
0.9928115467
920879.8376
387806.8045
223502.8956
152974.9307
97252.46917
34909.01613
6029.852004
1571.292919
861.7643141
522.3113844
324.5161362
205.5045811
132.4674565
87.64484143
61.12896288
44.61085143
32.3810674
23.57269052
17.57679938
13.27992241
10.14646156
7.85113441
6.156770908
4.896917288
3.953370014
3.241930426
2.701853186
2.288828367
1.970283952
1.722785536
1.53055595
1.383294477
1.272685063
1.189638083
1.126677884
1.079169522
1.044610059
1.021003292
1.005993046
0.9970555036
0.9920250979
0.9893514665
0.9880487287
0.9875524992
0.98706311
0.9863312134
0.9856745092
0.9854064943
0.9853234663
0.9853342408
0.9854021575
0.9855177661
0.9856868767
0.9859265047
0.9862656639
0.986750174
0.9874538392
0.9885039498
0.9901393618
0.9929358641
930866.512
399572.6438
229583.2847
156270.281
85090.51408
24950.75494
4305.691313
1485.917935
851.2831734
515.9370624
320.3255426
202.7633144
130.57957
86.30813327
60.18941862
43.75007273
31.61061246
22.90844107
17.03275586
12.83762039
9.789602048
7.562300986
5.92354786
4.709507251
3.804088335
3.124411196
2.610674023
2.219345012
1.91844023
1.68490816
1.503296601
1.363885661
1.258986975
1.180205473
1.120434713
1.075247427
1.042294322
1.019728844
1.00534539
0.9967571798
0.9919066159
0.9893175561
0.9880480838
0.9875561388
0.9870568823
0.9863202767
0.9856978101
0.9854456231
0.9853712908
0.9853884021
0.9854622024
0.9855839023
0.9857594254
0.9860056461
0.9863513131
0.9868419303
0.9875510955
0.9886063524
0.9902483408
0.9930604899
937838.7875
411446.6539
235564.6892
154712.5082
70038.74488
16878.48961
3366.765838
1430.487761
837.5332488
508.0370651
315.1304813
199.3346826
128.2341329
84.67090834
59.05512473
42.73208384
30.72194908
22.16443315
16.43432936
12.35673813
9.403637312
7.253061026
5.676611642
4.513728419
3.650431014
3.005234303
2.519468143
2.150644451
1.867661213
1.648101384
1.476989581
1.34526073
1.245875241
1.171160325
1.114411146
1.0714277
1.040013444
1.018457582
1.004689669
0.9964491098
0.9917802937
0.9892786397
0.9880453629
0.9875588167
0.987049139
0.9863067031
0.9857188231
0.9854827278
0.9854172167
0.985440707
0.985520417
0.9856482759
0.9858303712
0.9860834845
0.9864361435
0.9869335733
0.9876491673
0.988710619
0.9903598505
0.9931854798
941732.9279
423059.8228
241500.4348
147343.8202
56167.23935
11802.67367
2857.714436
1387.742068
820.2827394
498.6843635
308.9702493
195.2368988
125.4377
82.73513278
57.71689286
41.55117217
29.71461491
21.34494454
15.78657018
11.84062688
8.993285232
6.92751168
5.420084042
4.313560787
3.495848657
2.887114494
2.430226123
2.084100878
1.818836716
1.612905054
1.45194534
1.327594023
1.233454096
1.162571601
1.108656654
1.067746251
1.037792308
1.0172055
1.004035341
0.996136419
0.9916486188
0.9892356786
0.9880407776
0.9875599594
0.9870395645
0.9862915408
0.9857380505
0.9855180934
0.9854614606
0.985491365
0.9855770241
0.9857111254
0.9858999624
0.986160266
0.9865203854
0.9870252998
0.9877482006
0.9888168274
0.9904738991
0.9933108682
942570.26
433364.9395
249191.9371
133424.7027
43547.91748
8633.640594
2569.452647
1349.346864
800.3570454
487.4647622
301.8710477
190.4817894
122.1962014
80.50651236
56.16825592
40.20521065
28.59211932
20.45701098
15.09575619
11.29524638
8.564048642
6.591075219
5.159097884
4.113405611
3.343764774
2.772512701
2.344615508
2.02079186
1.772625803
1.57969511
1.428363424
1.31098646
1.221778489
1.154475187
1.103198965
1.064225306
1.03564768
1.015984113
1.003389593
0.9958232048
0.9915136997
0.9891895627
0.9880346093
0.98755916
0.9870278682
0.9862756359
0.9857559242
0.9855519816
0.985504229
0.985540577
0.9856322368
0.9857726785
0.9859684352
0.9862362259
0.9866042591
0.9871172988
0.9878483345
0.9889250447
0.9905904793
0.9934366704
940789.492
442398.9717
252136.6174
114832.4839
32190.53962
6624.596645
2378.802501
1308.31399
778.1347142
474.1050213
293.7144374
185.1119295
118.5449629
78.01123031
54.41557647
38.7030514
27.3667667
19.51304038
14.36720531
10.7270834
8.122135452
6.250189599
4.899349455
3.917553759
3.19714875
2.663381362
2.263857555
1.961449188
1.729446751
1.548691919
1.406403871
1.29547898
1.210864858
1.146881589
1.098049058
1.060876366
1.033589809
1.01480123
1.002757672
0.9955126462
0.9913772792
0.9891410887
0.9880271728
0.987556154
0.987013803
0.9862596548
0.9857728105
0.9855846305
0.9855457177
0.9855885357
0.9856862588
0.9858331515
0.9860360142
0.9863115876
0.9866879743
0.9872097502
0.9879497006
0.9890353293
0.9907095694
0.9935628835
937142.3351
447933.3642
245002.9724
98521.70948
23997.94976
5375.05054
2243.561427
1267.131803
754.2927071
459.5328244
284.4076813
179.2022977
114.5300902
75.27568577
52.46402182
37.0544502
26.05329723
18.52740467
13.6122745
10.14401067
7.674904111
5.911826428
4.646291233
3.729653318
3.058258064
2.561058528
2.188704338
1.906471414
1.689498982
1.519978176
1.386026315
1.281066663
1.200701343
1.139782916
1.093205649
1.057702874
1.031623894
1.013661697
1.002143214
0.9952071287
0.9912407616
0.9890909492
0.9880187886
0.9875507925
0.9869971722
0.9862441087
0.9857890165
0.9856162559
0.9855861123
0.9856354251
0.985739284
0.98589275
0.9861029123
0.986386563
0.9867717301
0.9873028245
0.9880524214
0.9891477321
0.9908311337
0.9936894879
932574.9983
447357.5687
228416.66
82944.40969
18159.53138
4617.798161
2142.501057
1226.101662
729.2681698
443.9445962
274.3471848
172.5967739
110.1665393
72.31243743
50.31423147
35.27026496
24.6690081
17.50744886
12.84114158
9.555343815
7.231357092
5.582931693
4.404454098
3.552418656
2.928596113
2.466304642
2.119496957
1.855981078
1.652807112
1.493537844
1.367197649
1.26771241
1.191257018
1.133159023
1.088659129
1.054702616
1.029751445
1.01256811
1.001548589
0.994908386
0.9911052567
0.9890397338
0.9880097667
0.9875430171
0.9869778312
0.9862293807
0.9858047984
0.985647053
0.9856255874
0.9856814203
0.9857914967
0.9859516684
0.9861693302
0.9864613516
0.9868557134
0.987396681
0.9881566088
0.989262293
0.9909551228
0.9938164484
928304.6478
439520.6375
203798.7763
66151.11067
13870.2136
4105.168096
2049.729746
1182.958396
702.4588806
427.1233316
263.4652636
165.3904761
105.4094214
69.13687758
47.97082593
33.36744361
23.23534838
16.47483562
12.06446466
8.971617925
6.800833557
5.269510025
4.17714269
3.387574262
2.808970143
2.379397804
2.056253441
1.809893985
1.61926802
1.469307067
1.349844817
1.255357843
1.182488891
1.126982081
1.084394512
1.051869532
1.027971335
1.011521384
1.000975181
0.9946176227
0.990971622
0.9889879353
0.9880003962
0.987532837
0.9869556823
0.9862157506
0.9858203689
0.9856771979
0.9856643067
0.9857266872
0.9858430712
0.9860100901
0.9862354569
0.9865361409
0.9869400995
0.9874914675
0.9882623629
0.9893790386
0.9910814734
0.9939437153
925403.479
424882.8974
177568.617
52173
10861.5998
3745.059871
1959.52756
1137.644787
674.2744155
409.3368963
251.9261989
157.7327594
100.3300247
65.77678404
45.44798473
31.37069501
21.76417306
15.44638087
11.29452042
8.404730925
6.391519575
4.975907902
3.966443511
3.235984901
2.699619486
2.300258752
1.998768937
1.767990763
1.588706632
1.447117362
1.333870859
1.243932802
1.174347784
1.121220355
1.080393885
1.049195261
1.02628072
1.010521262
1.000423647
0.9943356357
0.9908405091
0.988935959
0.9879909436
0.9875203113
0.986930667
0.9862034179
0.9858359047
0.9857068497
0.9857024238
0.9857713828
0.9858941721
0.9860681876
0.9863014695
0.9866111059
0.9870250509
0.9875873197
0.9883697726
0.9894979925
0.991210107
0.9940712248
923573.3235
404731.7619
158681.1312
41293.38248
8807.420649
3485.382204
1874.060475
1089.929607
645.1319627
390.7943042
239.8375526
149.6871565
95.01260261
62.25490697
42.7663322
29.31306675
20.29208052
14.42872342
10.54519413
7.865973384
6.009237826
4.704637772
3.773281288
3.097810312
2.600343611
2.228553278
1.946693344
1.72996938
1.56087854
1.426808272
1.319165748
1.233361374
1.166781911
1.115840492
1.076637905
1.04667011
1.024675639
1.009566666
0.9998941083
0.9940629031
0.9907124005
0.9888841322
0.9879816531
0.9875055343
0.9869027545
0.9861925195
0.9858515533
0.9857361521
0.9857400818
0.9858156546
0.985944954
0.9861261224
0.9863675332
0.9866864091
0.9871107177
0.9876843604
0.9884789156
0.9896191713
0.9913409353
0.9941988999
920649.4544
381205.2052
143314.784
32680.23066
7413.789798
3284.107404
1791.239923
1041.204448
615.145511
371.5681958
227.2581759
141.3144015
89.54476694
58.60427477
39.96399147
27.23862367
18.84948085
13.43678395
9.831388303
7.363813634
5.65723185
4.456747737
3.597735496
2.97272267
2.510657078
2.163794621
1.899601424
1.695493881
1.535537476
1.408210448
1.305616236
1.223567396
1.159740134
1.110809584
1.073107175
1.044283963
1.023151582
1.008656027
0.9993863268
0.9937996745
0.9905876482
0.9888327147
0.9879727522
0.9874886264
0.9868719305
0.9861831465
0.985867438
0.9857652353
0.9857774142
0.985859641
0.9859955619
0.9861840452
0.9864338011
0.9867622004
0.9871972365
0.9877826993
0.9885898566
0.9897425619
0.991473861
0.9943266527
916680.9181
353589.6873
124107.1644
25452.04599
6417.990062
3104.077397
1708.885554
991.3082752
584.3995777
351.7770525
214.2974634
132.8632192
83.91921598
54.87290865
37.09891874
25.1861265
17.46396229
12.48819103
9.165703967
6.902799381
5.336623368
4.23216807
3.439269782
2.860044811
2.429892741
2.105408299
1.857033924
1.664215301
1.512435233
1.391155121
1.293110853
1.214477027
1.153173375
1.106096062
1.069782866
1.042026714
1.021703788
1.007787475
0.9988998163
0.9935460278
0.9904665008
0.9887819065
0.9879644582
0.9874697273
0.9868381839
0.9861753551
0.9858836627
0.985794217
0.9858145445
0.9859034709
0.9860461304
0.9862420957
0.9865004149
0.986838617
0.9872847308
0.9878824323
0.988702644
0.9898681316
0.9916087716
0.9944543838
910061.61
330885.0656
106684.2425
19759.38627
5718.595469
2941.405628
1625.994439
941.0866173
553.4081393
331.730773
201.4571396
124.2894347
78.2108455
51.095498
34.24444028
23.21736223
16.15810325
11.60002716
8.555684935
6.484324184
5.047110862
4.030076467
3.296938747
2.758877817
2.357287435
2.052787139
1.818529886
1.635796022
1.491333623
1.375481202
1.281543799
1.20602078
1.147035755
1.101670416
1.06664722
1.039888641
1.0203275
1.006959003
0.9984339381
0.9933019215
0.9903491282
0.9887318539
0.9879548894
0.9874489934
0.9868014929
0.9861691768
0.9859003155
0.9858232039
0.9858515872
0.9859472644
0.9860967847
0.9863004025
0.9865675037
0.9869157831
0.9873733099
0.9879836404
0.9888173109
0.9899958387
0.9917455386
0.9945819833
899600.5449
318983.1387
89701.97376
15496.07292
5246.752876
2794.799609
1543.427146
891.5813242
522.9235671
312.2458153
188.4902719
115.6356121
72.49673952
47.26570618
31.47949273
21.37655326
14.94847781
10.78503371
8.003739438
6.10775221
4.787438438
3.84913436
3.169531483
2.668204836
2.292043504
2.00532851
1.783647203
1.609918705
1.472010963
1.361039111
1.270817023
1.198134571
1.141285133
1.097505543
1.063683826
1.037860619
1.01901813
1.00616858
0.9979879707
0.9930672328
0.9902356422
0.9886827395
0.9879429456
0.9874265974
0.9867618115
0.9861646251
0.9859174711
0.9858522924
0.9858886475
0.9859911322
0.9861476398
0.9863590837
0.9866351851
0.9869938094
0.9874630689
0.9880863895
0.9889338743
0.9901256269
0.99188402
0.9947093313
884615.1948
314803.2597
72961.30265
12632.70816
4934.80089
2660.994094
1464.749668
844.9906194
493.4227465
292.6366067
175.4426251
107.0017045
66.86725192
43.48474276
28.87673674
19.68366835
13.84547141
10.04903729
7.508960108
5.771222537
4.555730101
3.687693982
3.055703929
2.586982085
2.233380326
1.962462111
1.751976779
1.58629388
1.454266376
1.347693432
1.260841778
1.190760536
1.135883564
1.093577042
1.060877842
1.035934301
1.017771392
1.005414241
0.9975611677
0.9928417913
0.9901261114
0.9886347539
0.987928779
0.9874027317
0.986719055
0.9861617007
0.9859351937
0.9858815696
0.9859258217
0.9860351755
0.9861988004
0.9864182457
0.9867035635
0.9870727932
0.9875540879
0.9881907294
0.9890523338
0.9902574222
0.9920240598
0.9948362977
865143.8554
300272.307
57043.72356
10829.7639
4696.794501
2528.793147
1391.938163
798.9451431
463.8625186
272.962704
162.4142489
98.5052024
61.42293767
39.86207294
26.48691059
18.15220423
12.85336041
9.391458659
7.068406077
5.471969109
4.349669388
3.543921229
2.954061859
2.514178785
2.180552608
1.92365629
1.723143456
1.564658902
1.43791846
1.335321852
1.251537799
1.183846395
1.130796829
1.08986292
1.05821584
1.034102059
1.016583298
1.004694104
0.9971527755
0.9926253918
0.9900205682
0.9885880536
0.987912537
0.9873776132
0.9866793074
0.9861603953
0.9859535376
0.9859111136
0.9859631974
0.9860794866
0.9862503616
0.9864779838
0.9867727314
0.9871528173
0.9876464314
0.9882966928
0.9891726712
0.9903911331
0.9921654879
0.9949627448
841409.6984
276224.4984
43140.81993
9710.372348
4485.910929
2403.825958
1319.866743
753.230491
434.3704043
253.3624178
149.5721968
90.29981621
56.27014356
36.49408628
24.33440533
16.78404307
11.96864913
8.808183599
6.678091958
5.20677053
4.16677576
3.415960947
2.863253345
2.448826397
2.132875338
1.888429928
1.696811375
1.544780291
1.42280643
1.323815891
1.242833789
1.177345713
1.125994574
1.086343682
1.055685892
1.032357066
1.015450224
1.004006419
0.9967620665
0.9924178147
0.9899190215
0.9885427722
0.9878943605
0.9873512478
0.9866434096
0.9861606942
0.9859725493
0.9859409941
0.9860008533
0.9861241484
0.9863024077
0.9865383816
0.9868427678
0.9872339505
0.9877401478
0.9884042952
0.9892948494
0.9905266499
0.9923081207
0.9950885277
813935.4559
244211.7376
32259.17594
9066.027765
4287.284562
2281.558644
1249.176818
708.2472988
405.2026401
234.0621594
137.143089
82.54935821
51.49938465
33.44193322
22.42159632
15.5730912
11.18652098
8.293422204
6.33346981
4.972212079
4.004555503
3.302020928
2.782009038
2.390034908
2.089728656
1.856352602
1.672682312
1.526451787
1.408788546
1.313079868
1.234666769
1.171217464
1.121450016
1.083002151
1.053277473
1.030693258
1.014368911
1.003349584
0.9963883517
0.9922188356
0.9898214632
0.9884990296
0.987874391
0.9873236142
0.9866111963
0.986162578
0.9859922678
0.9859712727
0.9860388597
0.9861692343
0.9863550128
0.9865995114
0.9869137387
0.9873162463
0.9878352688
0.9885135335
0.9894188115
0.9906638447
0.9924517606
0.9952134935
782866.1586
207061.4539
24990.87637
8611.119719
4092.173286
2163.125222
1180.346797
664.272532
376.5732463
215.3070862
125.3572798
75.38411512
47.16656435
30.72588943
20.73666465
14.50811123
10.49884058
7.840569711
6.029736269
4.764865354
3.860592851
3.200414954
2.709158503
2.336996555
2.050556084
1.82704115
1.650492215
1.509491417
1.395739963
1.303029451
1.22698115
1.165425428
1.117139542
1.079823208
1.050981317
1.029105265
1.013336436
1.00272213
0.9960309838
0.9920282295
0.9897278725
0.9884569412
0.987852772
0.9872946861
0.9865825083
0.9861660234
0.9860127254
0.9860020031
0.9860772784
0.9862148084
0.9864082405
0.9866614329
0.9869856963
0.9873997426
0.9879318088
0.9886243857
0.9895444804
0.9908025702
0.9925961964
0.9953374816
747849.0117
169081.0607
20675.83083
8198.869046
3895.766821
2049.804542
1114.026067
621.6721106
348.777386
197.4133936
114.4365453
68.89506663
43.29811507
28.33965405
19.26240068
13.57620572
9.896438467
7.44305902
5.762292643
4.581545879
3.732686697
3.109633452
2.643667285
2.289004349
2.014873721
1.800163973
1.6300133
1.493742523
1.383553322
1.293592114
1.219729103
1.159938441
1.113042864
1.076793901
1.048789486
1.027588464
1.012350256
1.002122762
0.9956893764
0.9918457823
0.989638222
0.9884166276
0.987829651
0.9872644208
0.9865571935
0.9861710045
0.9860339477
0.9860332312
0.986116162
0.986260925
0.986462143
0.9867241933
0.9870586784
0.987484461
0.9880297637
0.9887368094
0.9896717576
0.9909426593
0.9927412031
0.995460324
708543.1636
135197.016
17947.48322
7798.434424
3709.684037
1941.880271
1050.413991
580.6101644
322.0576578
180.6600322
104.5167439
63.11105416
39.8734781
26.25807494
17.97734931
12.76283066
9.369474701
7.094218317
5.526626977
4.419208988
3.618773143
3.028282135
2.584591132
2.245418107
1.982245948
1.775423631
1.611041847
1.479065267
1.372132903
1.284703189
1.212867942
1.154728691
1.109141918
1.07390273
1.046694938
1.026138731
1.011408073
1.001550288
0.9953629767
0.9916712798
0.9895524734
0.988378223
0.9878051825
0.9872327423
0.9865351062
0.9861774925
0.9860559543
0.9860649951
0.9861555548
0.9863076283
0.9865167615
0.9867878273
0.9871327081
0.9875704065
0.9881291105
0.9888507418
0.9898005227
0.991083925
0.9928865415
0.9955818488
665479.983
105874.7302
16281.09158
7438.805931
3534.788362
1839.965988
989.8214906
541.3356201
296.7468349
165.3024944
95.66695491
58.02467229
36.87885743
24.4505968
16.86012505
12.05393063
8.908659146
6.787883967
5.318641431
4.275120991
3.517024046
2.955135382
2.531105617
2.205680933
1.95229503
1.752562681
1.593401809
1.465338995
1.361396239
1.276307027
1.206360973
1.149772301
1.105421243
1.071139899
1.044691687
1.024752546
1.010507902
1.001003661
0.9950512884
0.9915045204
0.9894705824
0.9883418867
0.9877795355
0.9871995281
0.9865161077
0.9861854559
0.9860787586
0.986097325
0.9861954915
0.9863549521
0.9865721249
0.9868523551
0.9872077923
0.9876575653
0.9882298059
0.9889660973
0.989930632
0.9912261596
0.9930319559
0.995701884
618624.8405
81489.45003
15217.1343
7114.026603
3371.729185
1744.654548
932.5250408
504.0835717
273.178581
151.4950494
87.8835127
53.59500756
34.28078313
22.88495871
15.88990297
11.43616397
8.505362149
6.518433898
5.134650215
4.146849019
3.425831743
2.889122657
2.482494745
2.169310922
1.924695166
1.731359689
1.576942135
1.452460481
1.351272982
1.268356309
1.200177091
1.145049098
1.10186785
1.068497239
1.042774765
1.023426976
1.009648071
1.000481986
0.9947538781
0.9913453185
0.9893924974
0.9883078162
0.9877529028
0.9871645897
0.9865000655
0.98619486
0.9861023663
0.9861302414
0.9862359957
0.986402917
0.9866282471
0.9869177798
0.987283918
0.987745901
0.9883317808
0.9890827623
0.9900619127
0.9913691297
0.9931771701
0.995820255
567630.984
62502.55393
14530.40433
6831.971852
3220.595807
1656.391305
878.8009379
469.105196
251.6271145
139.2770663
81.10862752
49.761244
32.03546662
21.52994716
15.04721603
10.89727213
8.151772135
6.280840978
4.971389283
4.032256719
3.343792412
2.829313004
2.438137299
2.13589108
1.899164796
1.711623565
1.561532658
1.440340921
1.341702738
1.260810494
1.194289699
1.140541866
1.098470694
1.065967843
1.040939972
1.022159523
1.008827129
0.9999844679
0.9944703503
0.9911934934
0.9893181489
0.9882762569
0.987725515
0.987127649
0.9864868512
0.986205667
0.9861267769
0.9861637566
0.9862770814
0.9864515329
0.9866851295
0.9869840902
0.9873610559
0.9878353589
0.9884349458
0.9892006014
0.9901941706
0.9915125838
0.9933218992
0.9959367876
511037.0349
49542.17245
14208.127
6558.755765
3081.818056
1575.052763
828.668659
436.5594731
232.2130806
128.5749673
75.24153357
46.44929462
30.09464254
20.35511655
14.31346049
10.42570639
7.840617748
6.070470513
4.825872794
3.929404914
3.269635468
2.774865974
2.397473316
2.105046671
1.875451164
1.69318304
1.547056968
1.428901109
1.332631821
1.253633684
1.18867533
1.136235468
1.095220129
1.063545722
1.039183681
1.020948008
1.008043791
0.9995103892
0.9942003388
0.9910488658
0.9892474392
0.9882475177
0.9876976622
0.9870883072
0.9864763407
0.986217836
0.9861519836
0.986197875
0.986318753
0.9865007984
0.9867427604
0.9870512596
0.9874391588
0.9879258636
0.988539189
0.9893194546
0.9903271875
0.9916562501
0.9934658492
0.9960513033
447943.9025
41133.82848
14055.13263
6287.909931
2955.115289
1500.507899
782.104151
406.5844865
214.942108
119.2646148
70.17274055
43.58813896
28.4144234
19.33396557
13.6725966
10.01158535
7.565717934
5.88340351
4.6955877
3.836668222
3.2022981
2.725080231
2.360036846
2.076466398
1.853344849
1.675896645
1.533419259
1.418076162
1.324016499
1.246796832
1.183315127
1.132117821
1.09210852
1.061226188
1.037503059
1.019790709
1.007297011
0.9990591485
0.9939435279
0.9909112691
0.98918023
0.9882219889
0.9876697284
0.9870460073
0.9864684128
0.9862313219
0.9861779719
0.9862325912
0.9863610035
0.9865506988
0.9868011128
0.987119244
0.9875181595
0.9880173175
0.9886443741
0.9894391361
0.9904607202
0.9917998362
0.9936087163
0.9961636185
376848.9462
35840.69389
13971.24019
6046.765527
2841.266458
1432.975339
739.2244282
379.322428
199.7361492
111.1999595
65.79567413
41.11287084
26.95589051
18.44336321
13.11067295
9.646340141
7.321727623
5.716259521
4.578371092
3.752647108
3.140866199
2.679353832
2.325428958
2.04988278
1.832666333
1.659643365
1.520537865
1.407811063
1.315819956
1.240275705
1.178193511
1.128179026
1.089129697
1.059005513
1.035895869
1.018686241
1.006585924
0.9986302346
0.9936996419
0.9907805478
0.9891163171
0.9882001613
0.9876422456
0.9870026552
0.986462949
0.9862460756
0.9862047199
0.9862678899
0.9864038139
0.9866012052
0.9868601432
0.9871879802
0.9875979694
0.9881095988
0.9887503382
0.9895594318
0.9905944986
0.9919430287
0.9937501825
0.9962735441
294996.5038
32575.14172
13897.98522
5831.924607
2739.088853
1371.79648
699.7049031
354.6414968
186.3688715
104.1826678
61.99404801
38.95804799
25.68162945
17.6615303
12.61472904
9.322097674
7.103780545
5.565986135
4.472282418
3.676091046
3.084527286
2.637155182
2.293299195
2.02506162
1.813259556
1.644318897
1.508343085
1.398059407
1.308011575
1.234050491
1.173297986
1.124411312
1.086278949
1.056880945
1.03436049
1.01763359
1.005909873
0.9982232468
0.993468461
0.9906565737
0.9890553949
0.9881787439
0.9876157391
0.9869641025
0.9864598318
0.9862620407
0.9862321937
0.9863037407
0.9864471474
0.986652268
0.986919784
0.9872573774
0.9876784677
0.9882025498
0.9888568791
0.9896800857
0.9907282116
0.9920854784
0.9938899033
0.9963808854
195605.4209
30799.5645
13802.53034
5645.073791
2649.390861
1317.160343
663.5650003
332.4843577
174.5810029
98.07269583
58.68135561
37.07380825
24.56255544
16.97144082
12.1745767
9.032642115
6.908021835
5.430158379
4.37577471
3.606003435
3.032633264
2.598059443
2.263366102
2.001817244
1.795001051
1.62984127
1.496780595
1.388785437
1.30056813
1.228106468
1.168619468
1.120809144
1.08355302
1.054850654
1.032895851
1.016632044
1.005268358
0.9978378597
0.9932498
0.9905392482
0.9889973778
0.9881571532
0.9875903137
0.9869301033
0.9864589439
0.9862791562
0.986260352
0.9863401036
0.9864909555
0.9867038239
0.9869799518
0.9873273266
0.9877595135
0.9882959906
0.9889637709
0.989800818
0.9908615276
0.9922268218
0.9940275329
0.9964854635
62213.57051
30198.49204
13575.25741
5484.108022
2571.290644
1268.447601
629.1876894
312.0678474
164.1759991
92.70903774
55.7682274
35.41119504
23.57107985
16.357179
11.78079903
8.77228215
6.730947555
5.306582371
4.287453328
3.541495192
2.984608431
2.561689259
2.235379514
1.979988586
1.777784385
1.616140563
1.485804641
1.379959508
1.293470732
1.222431941
1.164150937
1.117368369
1.080949571
1.052913387
1.031501224
1.015681078
1.004660975
0.9974737992
0.9930434994
0.9904284877
0.9889422358
0.9881355188
0.9875660595
0.9869004211
0.9864601676
0.986297355
0.9862891443
0.9863769272
0.986535176
0.9867557936
0.9870405448
0.9873976978
0.9878409421
0.9883897153
0.9890707603
0.989921321