/*--------------------------------*- C++ -*----------------------------------*\
  =========                 |
  \\      /  F ield         | OpenFOAM: The Open Source CFD Toolbox
   \\    /   O peration     | Website:  https://openfoam.org
    \\  /    A nd           | Version:  12
     \\/     M anipulation  |
\*---------------------------------------------------------------------------*/
FoamFile
{
    format      ascii;
    class       volScalarField;
    location    "350";
    object      p;
}
// * * * * * * * * * * * * * * * * * * * * * * * * * * * * * * * * * * * * * //

dimensions      [1 -1 -2 0 0 0 0];

internalField   nonuniform List<scalar> 
16200
(
81266.27252
81273.11812
81282.09877
81293.7645
81309.06105
81329.2335
81356.16104
81391.8724
81436.72996
81490.59443
81554.76228
81631.14537
81721.60032
81829.27169
81956.63389
82107.88379
82286.6822
82498.31467
82748.02521
83042.4032
83388.43764
83794.1553
84268.05791
84819.08956
85455.92079
86186.13317
87014.80297
87942.60794
88963.41604
90061.8717
91212.12153
92379.091
93522.81599
94604.73556
95593.44159
96468.22209
97219.45175
97847.22615
98358.79163
98766.17316
99083.85625
99327.00765
99510.10832
99646.09264
99745.94409
99818.59452
99871.08176
99908.7935
99935.78226
99955.03654
99968.7411
99978.48233
99985.3943
99990.30423
99993.75222
99996.25324
99997.83252
99999.42404
99999.30171
100001.3494
80413.9787
80422.24433
80431.82666
80444.73318
80461.86793
80484.65642
80515.44909
80555.75082
80606.02278
80666.02006
80737.31925
80822.20185
80922.59849
81042.1138
81183.36898
81351.06145
81549.18659
81783.59602
82060.08663
82385.94838
82768.92398
83217.8326
83741.91826
84350.70256
85053.133
85856.54234
86764.88883
87776.36438
88880.51395
90055.86975
91269.7013
92481.22005
93647.91256
94732.69411
95708.99851
96562.49287
97289.61189
97894.9441
98388.21988
98782.25376
99091.11072
99329.02983
99509.40728
99644.27088
99743.90212
99816.77658
99869.65026
99907.76698
99935.10552
99954.63599
99968.54418
99978.42312
99985.42651
99990.37931
99993.86763
99996.34795
99997.95917
99999.48442
99999.35525
100001.3534
79710.83471
79719.98739
79730.73174
79745.2334
79764.56321
79790.4397
79825.59184
79870.76061
79926.44067
79992.64732
80071.23672
80164.90546
80275.62412
80407.52872
80563.43946
80748.63063
80967.53422
81226.65508
81532.43828
81892.90503
82316.53396
82812.84527
83391.71364
84063.12538
84836.16237
85717.57638
86709.46061
87806.21193
88991.37612
90235.89878
91499.64828
92737.01332
93904.98731
94970.38756
95913.44989
96727.30961
97414.82657
97984.92404
98449.55831
98821.97536
99115.56185
99343.31971
99517.31208
99648.38819
99745.90446
99817.68137
99870.03533
99907.94156
99935.21829
99954.75024
99968.67854
99978.5756
99985.59008
99990.53874
99994.02839
99996.47647
99998.09597
99999.56198
99999.42272
100001.4022
79148.2631
79158.15225
79170.52178
79186.97413
79208.96271
79238.59722
79278.61535
79329.2649
79390.98837
79464.36491
79551.36044
79655.19242
79777.87858
79924.14869
80097.05223
80302.46312
80545.26216
80832.57915
81171.47663
81570.66519
82039.37631
82587.92909
83226.99175
83967.09356
84817.19846
85782.67014
86862.29187
88044.7535
89305.6923
90607.34416
91902.57489
93142.94966
94287.83439
95310.59807
96199.94421
96957.06904
97591.06403
98114.69001
98541.60508
98885.08248
99157.54374
99370.52967
99534.58355
99659.18999
99752.61231
99821.85748
99872.6714
99909.6493
99936.36626
99955.55672
99969.2705
99979.02739
99985.94512
99990.82056
99994.26072
99996.653
99998.25215
99999.65693
99999.49099
100001.4387
78724.26691
78735.2099
78749.5289
78768.28606
78793.44971
78827.65087
78873.27366
78930.22799
78998.8662
79080.52502
79177.19463
79292.65343
79428.93249
79591.37711
79783.27702
80011.11685
80280.28324
80598.60646
80973.93063
81415.87663
81934.6978
82541.70672
83248.31865
84065.13356
84999.99159
86055.33032
87224.6802
88488.99622
89814.52329
91154.69305
92457.15766
93673.87014
94769.95969
95727.77733
96545.48856
97232.18103
97802.3675
98271.73506
98654.88061
98964.60424
99212.06018
99407.15831
99558.80822
99675.03453
99762.91724
99828.56008
99877.05778
99912.5541
99938.32305
99956.90279
99970.2177
99979.70958
99986.44648
99991.19457
99994.54677
99996.86427
99998.42355
99999.76577
99999.56627
100001.4893
78430.52698
78442.7878
78459.39755
78480.86013
78509.79096
78549.37212
78601.38984
78665.27945
78741.53389
78832.24232
78939.43973
79067.58356
79218.74988
79398.97943
79611.91873
79864.79633
80163.71409
80517.41752
80934.7736
81426.46639
82003.74631
82678.56454
83462.36314
84364.76812
85391.18768
86539.52637
87796.14422
89132.46323
90504.62083
91858.47502
93139.6141
94304.3247
95326.74868
96199.88853
96931.47776
97537.61904
98037.02183
98447.19614
98782.86639
99055.87752
99275.86508
99451.0056
99588.53162
99694.98259
99776.22485
99837.42001
99882.96856
99916.51957
99941.00724
99958.74047
99971.49222
99980.60614
99987.08538
99991.6555
99994.8847
99997.10844
99998.6106
99999.88731
99999.64655
100001.546
78256.84776
78270.72442
78290.01324
78314.75432
78348.32397
78394.14777
78453.45102
78524.78809
78609.60764
78710.80349
78830.30807
78973.37399
79142.21137
79343.66862
79581.88448
79864.92623
80199.71593
80595.92263
81063.36776
81613.55755
82258.35267
83009.80849
83878.69158
84872.72684
85993.62459
87233.03665
88568.12786
89959.32225
91353.06858
92690.46337
93919.30418
95004.26581
95930.99287
96703.72403
97338.94754
97858.34233
98283.35798
98632.18256
98918.90871
99154.01426
99345.4377
99499.58525
99622.03099
99717.86113
99791.74833
99847.91639
99890.06251
99921.32425
99944.27617
99960.9786
99973.03634
99981.68086
99987.83964
99992.18976
99995.26709
99997.38063
99998.81198
100000.0202
99999.73269
100001.6118
78213.51936
78229.61496
78251.90084
78280.54904
78319.85721
78372.85787
78439.90565
78519.74007
78615.24947
78729.34763
78863.94233
79025.17194
79215.4329
79442.42658
79710.84361
80029.55831
80406.26358
80851.3889
81375.48925
81990.62354
82709.03297
83542.66483
84501.19194
85589.42823
86803.52531
88126.48098
89524.23878
90945.79011
92330.03738
93617.67797
94763.49555
95743.94774
96557.43426
97218.84928
97751.8752
98182.0144
98531.97723
98819.58888
99057.68483
99255.07466
99417.90619
99550.83972
99657.8588
99742.6698
99808.80782
99859.59425
99898.03934
99926.77246
99948.00385
99963.53713
99974.79989
99982.90284
99988.69069
99992.78634
99995.68808
99997.67732
99999.02656
100000.1632
99999.82431
100001.6856
78320.91755
78339.77586
78365.56352
78398.94356
78445.34561
78506.62449
78582.87983
78673.1238
78780.08368
78908.14789
79059.13048
79240.11578
79453.71472
79708.47896
80009.71722
80367.11961
80789.20134
81287.1621
81872.322
82557.24135
83354.28331
84274.69531
85326.05071
86508.58681
87810.35344
89202.97763
90640.02407
92060.62226
93400.24626
94604.48823
95639.49123
96495.58482
97183.76093
97727.99781
98157.15666
98498.75237
98775.41856
99003.76871
99194.92539
99355.84969
99490.88559
99603.02264
99694.75791
99768.51936
99826.78503
99872.03061
99906.614
99932.67484
99952.06625
99966.33597
99976.73199
99984.24037
99989.61926
99993.43381
99996.14145
99997.99485
99999.25304
100000.3158
99999.92118
100001.7679
78566.80635
78588.89142
78618.73615
78657.75424
78712.08328
78781.31742
78866.26135
78967.84693
79088.2378
79232.38191
79401.99437
79605.13134
79844.61869
80129.81505
80466.73863
80865.98716
81337.11435
81892.34939
82544.05976
83305.27153
84187.76041
85200.52392
86346.8576
87620.07355
88997.78715
90438.48032
91883.92064
93267.20741
94525.95928
95615.83595
96517.43544
97235.42331
97791.94773
98217.85175
98545.02932
98801.35324
99008.29283
99180.63313
99327.50253
99453.94651
99562.55962
99654.77373
99731.72671
99794.68563
99845.16595
99884.86704
99915.54079
99938.86566
99956.35337
99969.30336
99978.78665
99985.66463
99990.60777
99994.12177
99996.62144
99998.32997
99999.49035
100000.4776
100000.0235
100001.8584
78921.44579
78947.31214
78981.82716
79027.60202
79091.05058
79171.05931
79267.86268
79382.57455
79518.23923
79680.85871
79871.86083
80100.34535
80369.544
80689.72349
81067.70183
81514.90235
82041.93419
82661.94571
83387.94353
84232.85374
85207.07919
86315.85071
87555.48936
88909.32118
90342.85438
91801.75522
93218.72325
94526.24351
95670.03857
96619.88631
97372.14051
97944.71344
98368.57805
98678.97199
98908.82049
99084.99507
99227.00772
99347.42861
99453.26629
99547.67656
99631.6095
99705.07675
99767.99613
99820.59814
99863.53597
99897.80811
99924.61315
99945.20312
99960.76959
99972.37601
99980.92282
99987.14958
99991.64015
99994.84066
99997.12274
99998.67973
99999.73753
100000.6485
100000.1327
100001.9572
79378.53097
79408.89756
79448.99493
79503.19412
79577.15251
79668.19685
79777.14894
79906.33866
80058.63885
80241.7785
80457.16822
80715.06586
81019.30414
81381.11427
81808.15372
82312.55525
82905.5004
83600.11896
84408.72376
85343.08505
86411.30348
87613.94115
88938.34897
90354.68743
91815.22465
93255.54544
94604.1709
95798.93068
96798.82932
97590.0501
98184.1511
98610.02078
98904.70055
99105.45097
99244.55594
99346.88215
99429.48037
99502.52088
99570.89158
99635.95336
99697.14979
99753.22203
99803.00989
99845.83117
99881.577
99910.62156
99933.66512
99951.57101
99965.23519
99975.50032
99983.10523
99988.67261
99992.70232
99995.582
99997.64052
99999.04143
99999.99357
100000.828
100000.2506
100002.0643
79939.79388
79975.61061
80022.49061
80086.24671
80170.26806
80272.24383
80395.84123
80543.59786
80717.09163
80925.65921
81170.73314
81463.64689
81808.75441
82218.10126
82700.22044
83267.95828
83933.01336
84708.35368
85605.47914
86633.18669
87794.23105
89082.13524
90474.23092
91926.61138
93378.34866
94759.23892
96000.18663
97049.96279
97884.29181
98506.05583
98939.94543
99222.89414
99395.26649
99494.31623
99550.42765
99585.81068
99614.80189
99645.1457
99679.69909
99718.1679
99758.6446
99798.75213
99836.39051
99870.08337
99899.05583
99923.13189
99942.568
99957.87719
99969.68566
99978.63212
99985.30434
99990.21447
99993.78209
99996.33838
99998.17053
99999.41273
100000.2575
100001.015
100000.3754
100002.18
80628.53325
80670.79905
80725.7797
80800.69382
80899.27803
81017.33685
81156.69292
81324.18489
81520.33973
81755.89644
82032.22359
82361.8352
82749.80022
83209.06786
83749.19371
84383.63201
85124.45877
85984.04485
86972.05463
88092.90166
89342.13337
90701.19138
92135.35832
93589.40252
94992.01617
96272.10016
97369.97689
98249.80481
98905.17313
99354.13494
99631.49124
99779.14948
99838.38171
99844.8701
99826.25937
99801.75706
99782.92948
99775.18346
99779.49355
99794.07493
99815.8296
99841.4098
99867.90564
99893.15665
99915.81122
99935.21284
99951.22613
99964.05122
99974.07047
99981.73608
99987.49605
99991.75916
99994.86917
99997.10345
99998.70902
99999.79155
100000.5284
100001.2078
100000.5047
100002.3044
81432.37757
81482.44616
81547.37347
81634.9132
81747.17299
81880.80728
82037.21047
82225.47088
82445.73639
82710.62664
83021.42625
83391.90165
83827.92861
84343.18064
84947.93825
85655.71357
86478.11351
87425.65126
88504.18088
89712.17114
91036.2569
92445.21089
93888.87125
95303.94215
96615.16881
97756.17265
98682.43531
99376.00125
99847.22172
100126.4941
100255.3832
100277.9662
100234.5116
100158.0509
100073.018
99995.5136
99934.41855
99892.96394
99870.42267
99863.69242
99868.64152
99881.08952
99897.43554
99914.93485
99931.74039
99946.77899
99959.57175
99970.04137
99978.3514
99984.78474
99989.66119
99993.29368
99995.95503
99997.87181
99999.25276
100000.1761
100000.8057
100001.4052
100000.6389
100002.4376
82320.89795
82380.49556
82456.15739
82555.208
82680.13435
82832.62208
83011.15897
83226.34573
83477.34507
83778.93006
84132.24933
84552.0296
85044.69676
85624.15381
86300.78645
87087.41822
87994.53407
89029.93091
90194.46506
91478.01987
92855.16259
94282.44574
95697.48397
97029.69204
98208.5713
99178.72023
99913.67478
100413.5125
100702.6348
100820.3414
100811.8015
100720.969
100585.7488
100435.8799
100292.4066
100168.392
100070.207
99999.10928
99952.86306
99927.21913
99917.15934
99917.79627
99924.94468
99935.3647
99946.78644
99957.77762
99967.55997
99975.81152
99982.5006
99987.75743
99991.78488
99994.80767
99997.03268
99998.63895
99999.79899
100000.5649
100001.0884
100001.6086
100000.7781
100002.5793
83313.00057
83384.24478
83472.27392
83590.43398
83735.93951
83909.86749
84112.95857
84358.26997
84643.27742
84984.8787
85384.21212
85856.85988
86409.83469
87057.19587
87809.2916
88677.67396
89670.08245
90789.29344
92029.03539
93368.93565
94770.24492
96176.76959
97520.22938
98726.57505
99737.66345
100514.1673
101047.6052
101354.2268
101469.0179
101436.73
101303.481
101111.4082
100895.2015
100681.0182
100486.5478
100321.9964
100191.4509
100094.4138
100027.332
99984.97002
99961.55735
99951.61185
99950.45808
99954.43942
99960.92727
99968.18149
99975.16404
99981.33817
99986.49885
99990.63915
99993.85592
99996.29305
99998.09651
99999.40113
100000.3453
100000.9564
100001.3755
100001.8189
100000.9221
100002.7301
84430.24084
84515.955
84618.65034
84756.54109
84920.50073
85117.37094
85345.70742
85622.37095
85943.03022
86326.67207
86774.63005
87303.30557
87920.23639
88639.24383
89469.93722
90421.31062
91496.52996
92691.02302
93988.1636
95356.23485
96744.52781
98087.57522
99314.81587
100358.2042
101175.18
101745.0507
102075.523
102195.8729
102148.1153
101979.408
101734.7965
101453.4845
101166.5148
100896.4336
100657.7496
100458.0568
100299.4041
100179.7559
100094.4219
100037.3273
100002.0689
99982.66838
99974.0422
99972.18527
99974.16636
99977.98249
99982.37119
99986.60779
99990.33378
99993.41956
99995.86614
99997.74366
99999.14204
100000.1553
100000.8897
100001.3493
100001.6664
100002.0313
100001.0708
100002.8907
85646.77581
85750.46324
85867.83851
86025.76522
86211.48356
86434.98326
86692.13104
87004.50657
87366.09209
87797.71083
88300.79975
88892.05732
89578.92788
90373.88201
91284.34157
92315.07601
93463.24475
94715.60726
96044.16677
97404.39831
98737.04618
99972.45778
101043.0263
101895.4917
102502.3621
102861.7594
102995.0052
102940.6668
102744.5557
102453.8134
102111.0263
101751.8369
101403.5225
101085.1639
100808.3435
100578.315
100395.3353
100256.0356
100154.7533
100084.705
100038.9596
100011.1282
99995.79021
99988.65093
99986.52517
99987.18652
99989.17914
99991.61444
99993.99844
99996.09203
99997.80983
99999.15492
100000.1658
100000.8989
100001.4305
100001.7426
100001.9608
100002.2403
100001.2226
100003.0612
86976.77618
87101.00922
87231.73811
87409.75451
87619.29815
87875.05235
88166.82583
88520.80691
88929.43701
89414.88361
89978.36687
90636.12467
91394.82454
92264.56073
93249.43859
94348.69536
95551.84613
96835.70934
98161.25516
99472.83182
100706.0243
101793.061
102675.5324
103318.0525
103708.5091
103861.3932
103808.4747
103593.9409
103264.7415
102866.2623
102437.7974
102011.1767
101610.0092
101250.1601
100940.5777
100684.4496
100480.4732
100324.1338
100208.9433
100127.5239
100072.5077
100037.169
100015.8107
100003.8992
99998.03723
99995.8092
99995.59319
99996.35792
99997.49001
99998.65281
99999.68325
100000.5235
100001.1651
100001.6299
100001.966
100002.1351
100002.2582
100002.4557
100001.3748
100003.2404
88435.26118
88583.86967
88735.88411
88944.1983
89179.20894
89468.96372
89797.51741
90194.90791
90652.03274
91191.97949
91815.6113
92538.02083
93364.53094
94301.91865
95349.75512
96500.26697
97733.90331
99016.76343
100299.2938
101519.8858
102612.7872
103517.8839
104190.8802
104613.7653
104789.9573
104746.3448
104521.7807
104162.9565
103715.9773
103223.3594
102720.7068
102236.0507
101789.5623
101394.1926
101056.5551
100778.032
100555.9738
100384.8864
100257.5843
100166.195
100102.9913
100060.9734
100034.2196
100018.0009
100008.7436
100003.8727
100001.6239
100000.8421
100000.8087
100001.1004
100001.4842
100001.8472
100002.1379
100002.3466
100002.4951
100002.5261
100002.5584
100002.6782
100001.5318
100003.4271
90041.83704
90219.05105
90391.64509
90627.48156
90888.44354
91212.3941
91577.90126
92018.60976
92523.87644
93117.17649
93798.95327
94582.32344
95470.45013
96465.53484
97561.04257
98740.68423
99974.91571
101219.6549
102417.8769
103506.6324
104424.3859
105123.1579
105575.0047
105777.9827
105748.7481
105522.7652
105142.8837
104655.9226
104105.8084
103531.5806
102965.0702
102430.6937
101945.485
101519.7979
101158.1986
100860.5022
100622.9017
100439.0691
100301.2325
100201.109
100130.6789
100082.7216
100051.1345
100031.0302
100018.6894
100011.4031
100007.2855
100005.0737
100003.957
100003.4348
100003.2116
100003.1245
100003.0827
100003.0477
100003.0165
100002.9148
100002.8611
100002.8999
100001.699
100003.621
91764.07947
91971.63449
92164.72419
92432.10552
92720.79126
93080.30076
93484.34924
93969.75061
94524.43594
95171.26582
95909.99928
96750.5819
97692.72924
98732.53754
99855.86855
101037.0971
102237.1385
103404.1584
104478.0965
105399.2033
106115.4298
106593.5866
106821.9968
106812.2434
106591.091
106199.1672
105680.8006
105081.2855
104441.581
103797.0199
103175.7842
102598.9562
102080.7594
101629.2596
101247.2396
100933.1606
100682.2232
100487.3909
100340.4002
100232.6301
100155.8244
100102.5865
100066.6705
100043.0617
100027.9215
100018.4287
100012.594
100009.0614
100006.9389
100005.6574
100004.8654
100004.3544
100003.9983
100003.732
100003.5291
100003.3003
100003.1657
100003.1215
100001.8762
100003.821
93600.22825
93833.41956
94040.3827
94339.80575
94660.41607
95059.15121
95505.32831
96038.19717
96644.54684
97345.08432
98138.2131
99029.34275
100013.3271
101078.9889
102203.8914
103353.5074
104481.2134
105531.1882
106445.1027
107170.8047
107669.1068
107922.0857
107932.6127
107722.6576
107325.8724
106785.272
106144.8195
105447.2462
104730.1712
104025.2496
103357.2618
102744.2789
102198.0394
101724.6079
101325.2199
100997.1691
100734.8059
100530.4926
100375.5544
100261.0931
100178.6635
100120.7311
100080.9377
100054.168
100036.4863
100024.9784
100017.5668
100012.8147
100009.7593
100007.7703
100006.4459
100005.5367
100004.8838
100004.3986
100004.0321
100003.6822
100003.4714
100003.3418
100002.0648
100004.0259
95528.56001
95795.88742
96029.39
96362.51581
96718.00967
97158.91016
97649.69381
98230.40422
98887.18857
99637.03219
100476.1073
101404.2907
102410.5858
103476.0699
104570.2985
105651.4598
106668.5001
107565.8648
108291.2212
108803.2194
109077.1269
109108.6541
108912.6577
108518.3221
107963.3813
107291.1355
106543.957
105761.4566
104977.834
104221.2576
103513.4143
102869.6958
102299.6608
101807.6304
101393.5004
101053.5571
100781.4224
100568.9481
100407.1163
100286.8028
100199.4131
100137.3066
100094.0396
100064.4184
100044.4291
100031.0809
100022.2213
100016.3442
100012.4238
100009.7762
100007.954
100006.6711
100005.7388
100005.0467
100004.5245
100004.0598
100003.7776
100003.5603
100002.2655
100004.2345
97587.84419
97893.63077
98155.10864
98522.65363
98912.2098
99393.31115
99926.19599
100549.4379
101248.928
102036.9998
102906.6882
103851.6098
104854.3531
105888.445
106916.6408
107892.4077
108763.9351
109479.9284
109997.2482
110287.0921
110338.5432
110158.6362
109771.2313
109209.9368
108514.3253
107726.5373
106886.6181
106030.8553
105190.1421
104389.439
103647.6672
102977.8565
102387.6626
101879.8905
101453.2747
101103.2313
100822.7564
100603.2685
100435.4633
100310.0341
100218.2702
100152.452
100106.0723
100073.8779
100051.7931
100036.764
100026.5751
100019.66
100014.9384
100011.678
100009.3911
100007.7578
100006.5628
100005.6755
100005.0056
100004.4327
100004.0835
100003.7765
100002.4791
100004.4457
99782.14845
100128.8272
100418.3959
100818.5083
101238.3158
101753.7095
102322.4104
102979.4332
103709.9864
104520.9602
105401.4674
106338.4461
107308.0937
108277.422
109204.518
110041.3309
110738.9314
111253.4327
111552.741
111620.7313
111458.1514
111081.0562
110519.3453
109808.8057
108989.2026
108100.6299
107180.4353
106261.6199
105371.9957
104533.6301
103762.9995
103071.0629
102463.8183
101942.7509
101505.5869
101146.9879
100859.4115
100633.9071
100460.9323
100331.034
100235.4135
100166.2942
100117.1244
100082.6071
100058.6188
100042.0543
100030.645
100022.7726
100017.3089
100013.4789
100010.7584
100008.7972
100007.3555
100006.2846
100005.4745
100004.8002
100004.3882
100003.9901
100002.7063
100004.6581
102098.0857
102482.4415
102794.225
103225.2396
103673.2375
104217.3604
104814.5154
105494.8634
106242.3758
107057.8652
107926.151
108827.7328
109733.2373
110605.0111
111399.218
112069.5716
112573.0193
112875.0325
112955.0416
112808.3347
112444.7342
111887.0684
111168.7546
110326.0657
109397.8594
108421.7169
107432.1875
106459.1608
105527.6503
104657.1472
103861.9818
103151.3026
102529.6621
101997.3943
101551.3464
101185.5236
100891.9181
100661.2645
100483.8227
100350.0235
100251.0034
100178.9481
100127.2768
100090.662
100064.9441
100046.9768
100034.447
100025.692
100019.5413
100015.1821
100012.0575
100009.7896
100008.1168
100006.8733
100005.9306
100005.162
100004.6905
100004.2007
100002.9477
100004.8695
104523.4993
104941.3138
105272.2903
105728.1114
106198.9342
106763.2918
107377.9864
108067.5397
108814.4384
109612.9927
110443.6156
111281.173
112092.2248
112836.8149
113472.0362
113956.1615
114253.9769
114341.0174
114207.5621
113858.2081
113309.3654
112588.6683
111731.0816
110772.161
109749.2226
108697.1544
107647.7907
106628.1567
105660.7664
104762.8368
103946.8209
103220.2844
102586.517
102044.8442
101591.3437
101219.4468
100920.7417
100685.6941
100504.4
100367.1994
100265.1842
100190.5176
100136.6029
100098.0937
100070.804
100051.5549
100037.9965
100028.4278
100021.6415
100016.7908
100013.2899
100010.7357
100008.8465
100007.441
100006.3731
100005.5175
100004.9895
100004.4082
100003.2038
100005.0776
107037.7944
107484.1644
107830.5274
108303.3967
108789.436
109363.9033
109983.4043
110665.6736
111391.8673
112150.0857
112916.7732
113662.5131
114351.8015
114944.8834
115402.242
115688.6319
115777.5219
115654.1706
115318.2256
114781.2107
114064.2611
113197.9242
112217.3535
111156.6307
110051.2415
108933.3857
107832.3709
106772.6365
105774.4867
104853.1415
104019.413
103279.4807
102635.5266
102085.9889
101626.2677
101249.29
100946.2916
100707.5078
100522.8995
100382.7375
100278.0851
100201.0964
100145.1698
100104.9492
100076.2306
100055.8103
100041.3077
100030.9891
100023.6149
100018.3084
100014.4573
100011.6359
100009.5446
100007.9875
100006.8016
100005.8665
100005.2837
100004.6125
100003.4744
100005.2798
109624.3233
110091.7002
110448.2008
110929.0472
111419.6964
111990.8928
112599.8141
113256.1121
113939.6164
114633.268
115310.6926
115939.8218
116485.0697
116909.0772
117177.4698
117262.4289
117145.9949
116822.0944
116297.8646
115589.6205
114721.8799
113726.4029
112637.7058
111488.0101
110310.8962
109136.004
107990.3444
106896.0576
105871.5046
104930.1563
104081.3879
103330.1609
102677.6807
102121.6004
101656.7196
101275.5196
100968.9278
100726.9816
100539.5306
100396.7946
100289.8221
100210.7691
100153.0381
100111.2712
100081.2539
100059.7633
100044.3941
100033.3846
100025.4669
100019.7377
100015.5612
100012.4909
100010.2111
100008.512
100007.2154
100006.2084
100005.5719
100004.8138
100003.7589
100005.473
112253.7363
112731.4065
113094.1192
113577.3965
114061.3653
114612.5917
115192.5676
115802.8902
116422.0905
117028.608
117594.6369
118087.2952
118472.6187
118717.2618
118792.9754
118679.4608
118366.5489
117855.4092
117158.785
116296.1604
115294.1771
114184.7274
113001.1785
111773.7725
110534.2164
109309.7996
108125.4774
107001.3633
105954.1144
104995.6693
104134.1412
103373.4163
102713.8339
102152.348
101683.2231
101298.544
100988.9669
100744.3587
100554.4787
100409.5102
100300.4988
100219.6116
100160.2627
100117.0989
100085.9009
100063.4326
100047.2682
100035.6224
100027.2027
100021.082
100016.6033
100013.3014
100010.8462
100009.0144
100007.6142
100006.5427
100005.8524
100005.013
100004.0547
100005.6537
114919.4431
115393.2477
115745.8159
116209.6028
116674.7041
117191.1618
117724.8114
118270.3926
118805.8129
119306.2559
119743.6267
120085.9847
120302.3441
120364.3085
120250.0197
119946.1654
119449.229
118766.1209
117913.5537
116912.9756
115792.0719
114582.3246
113315.642
112020.3372
110726.3378
109458.8328
108240.9568
107091.0455
106024.2629
105051.2034
104178.8667
103410.185
102744.7247
102178.8131
101706.235
101318.7211
101006.6875
100759.8546
100567.9083
100421.009
100310.2085
100227.6927
100166.8934
100122.4678
100090.1969
100066.8354
100049.9416
100037.7103
100028.827
100022.3441
100017.5851
100014.0681
100011.4498
100009.4942
100007.9976
100006.8689
100006.1241
100005.2105
100004.3565
100005.8263
117569.8562
118023.5725
118359.9647
118794.5602
119226.2136
119692.9204
120164.1528
120628.4483
121063.734
121443.6547
121740.7403
121925.2102
121969.9623
121851.865
121555.1524
121072.6137
120406.1453
119567.0267
118574.625
117451.4414
116225.5008
114927.584
113588.0017
112233.2648
110891.6819
109586.5901
108339.5177
107167.2463
106083.629
105098.0775
104216.6034
103441.2875
102771.0017
102201.5089
101726.1605
101336.3693
101022.3385
100773.6624
100579.968
100431.4036
100319.0358
100235.0749
100172.9759
100127.4109
100094.165
100069.988
100052.4256
100039.6556
100030.3448
100023.5269
100018.5083
100014.7918
100012.0223
100009.9511
100008.3654
100007.1863
100006.3856
100005.4066
100004.6614
100005.9969
120161.2206
120587.6873
120901.3455
121295.6887
121682.462
122086.327
122481.579
122851.5442
123174.9769
123425.0891
123576.0438
123600.9672
123476.996
123186.1149
122718.006
122070.5548
121249.9094
120270.572
119153.5534
117921.7609
116603.1742
115227.7516
113824.1534
112417.2581
111033.9784
109696.0094
108423.4671
107231.7779
106133.6389
105137.4176
104248.2432
103467.4322
102793.2288
102220.8836
101743.3555
101351.77
101036.1411
100785.9541
100590.7905
100440.7956
100327.0571
100241.8153
100178.5523
100131.9585
100097.8271
100072.9057
100054.7306
100041.4654
100031.7606
100024.6333
100019.3745
100015.4733
100012.5638
100010.3848
100008.7175
100007.4941
100006.6359
100005.6018
100004.9685
100006.1636
122678.2869
123062.1454
123342.4105
123684.1647
124014.3866
124344.392
124653.2377
124920.0398
125124.8581
125241.2819
125245.7522
125114.6314
124829.2314
124376.203
123749.8859
122952.3007
121992.8543
120888.3731
119660.7613
118332.9387
116932.6711
115489.0611
114029.1184
112576.3296
111156.4123
109789.6056
108494.7888
107286.2069
106175.5332
105170.2095
104274.5715
103489.2466
102811.9074
102237.3379
101758.1389
101365.1761
101048.2944
100796.8857
100600.4967
100449.2775
100334.3426
100247.9664
100183.6614
100136.1391
100101.2035
100075.6029
100056.8666
100043.1466
100033.079
100025.6663
100020.1855
100016.1135
100013.0746
100010.7953
100009.0539
100007.7916
100006.8739
100005.7968
100005.2754
100006.3237
125069.6517
125404.5235
125647.3219
125930.0837
126196.6953
126446.0598
126662.4214
126821.9303
126906.2664
126890.0638
126752.311
126472.5882
126036.0842
125433.5411
124663.174
123730.3066
122646.7978
121431.1281
120105.571
118692.9018
117220.5685
115716.8474
114207.1594
112713.9136
111261.7037
109869.5312
108555.1876
107331.8865
106210.3899
105197.3146
104296.2792
103507.2856
102827.4834
102251.2297
101770.797
101376.8155
101058.9788
100806.5986
100609.1964
100456.9339
100340.9568
100253.5766
100188.3391
100139.9791
100104.3134
100078.0933
100058.8433
100044.7057
100034.3043
100026.6286
100020.943
100016.7134
100013.555
100011.1826
100009.3748
100008.0778
100007.0989
100005.993
100005.5782
100006.4757
127323.309
127598.8825
127796.7244
128013.7814
128211.4363
128376.7644
128498.7104
128551.3486
128517.8539
128374.2934
128102.1176
127684.0191
127108.6111
126370.1697
125470.0917
124416.3033
123222.4983
121908.3226
120496.1233
119008.5011
117472.4971
115915.6489
114361.9294
112832.9528
111352.1873
109937.6433
108606.144
107370.0006
106239.1586
105219.4977
104313.9835
103522.0481
102840.3598
102262.8836
101781.5906
101386.8963
101068.3592
100815.2226
100616.991
100463.843
100346.9594
100258.6912
100192.6193
100143.5033
100107.1749
100080.3899
100060.6699
100046.1493
100035.4411
100027.5232
100021.6489
100017.2742
100014.0056
100011.5469
100009.6802
100008.3515
100007.3107
100006.1916
100005.8724
100006.6247
129396.5885
129611.5593
129764.7688
129916.1017
130045.0955
130128.2503
130158.4173
130108.6526
129963.5729
129700.9558
129304.5151
128759.906
128058.6919
127198.1503
126182.2896
125021.0727
123729.5798
122328.3043
120839.529
119285.6222
117693.2659
116089.372
114496.6289
112935.9586
111429.8732
109995.5522
108648.9518
107401.592
106262.6834
105237.4437
104328.2414
103533.9871
102850.9047
102272.5978
101790.7601
101395.6115
101076.5893
100822.8792
100623.9756
100470.0788
100352.4073
100263.3534
100196.5345
100146.736
100109.8058
100082.5057
100062.3558
100047.4839
100036.4938
100028.3532
100022.3052
100017.7971
100014.4268
100011.8884
100009.9705
100008.6115
100007.5095
100006.3922
100006.1528
100006.7783
131275.3318
131430.121
131541.9744
131631.112
131694.5006
131700.2852
131644.1856
131499.152
131251.0962
130879.5906
130370.461
129711.9718
128898.2388
127929.0421
126810.5609
125554.3488
124176.5833
122698.434
121142.0063
119529.3368
117887.0344
116241.4465
114614.0638
113025.1019
111496.5245
110044.6832
108684.7663
107427.5999
106281.7302
105251.7788
104339.5653
103543.5215
102859.4598
102280.6503
101798.5304
101403.1418
101083.8137
100829.6831
100630.2404
100475.7115
100357.3546
100267.6048
100200.1161
100149.7008
100112.2237
100084.4535
100063.9101
100048.7161
100037.4672
100029.1217
100022.914
100018.2834
100014.8193
100012.2077
100010.2458
100008.8569
100007.696
100006.5924
100006.4206
100006.9322
132955.823
133055.5742
133129.2871
133161.3242
133163.4201
133098.1578
132963.0631
132731.5648
132390.5386
131921.3262
131311.6504
130552.0024
129638.6815
128573.5839
127364.6826
126024.7884
124571.0243
123025.1298
121408.8651
119744.017
118057.4181
116374.8417
114716.5508
113102.2949
111553.7086
110086.3149
108714.6324
107448.8813
106297.0039
105263.0833
104348.4327
103551.0439
102866.3469
102287.3033
101805.1143
101409.6589
101090.1696
100835.7432
100635.8714
100480.8084
100361.8537
100271.4854
100203.3945
100152.4206
100114.4455
100086.2459
100065.3422
100049.8526
100038.3659
100029.8322
100023.4777
100018.7345
100015.184
100012.5056
100010.5063
100009.0866
100007.8705
100006.7892
100006.6828
100007.0726
134449.0186
134497.1199
134533.2836
134513.6725
134459.9