/*--------------------------------*- C++ -*----------------------------------*\
  =========                 |
  \\      /  F ield         | OpenFOAM: The Open Source CFD Toolbox
   \\    /   O peration     | Website:  https://openfoam.org
    \\  /    A nd           | Version:  12
     \\/     M anipulation  |
\*---------------------------------------------------------------------------*/
FoamFile
{
    format      ascii;
    class       volVectorField;
    location    "350";
    object      U;
}
// * * * * * * * * * * * * * * * * * * * * * * * * * * * * * * * * * * * * * //

dimensions      [0 1 -1 0 0 0 0];

internalField   nonuniform List<vector> 
16200
(
(181.0331291 -7.349830647e-17 -1.477768681)
(215.7452312 3.553959378e-17 -1.400101694)
(235.2289676 -2.470943178e-20 -1.570387872)
(250.5175429 0 -1.737335417)
(264.6331834 0 -1.919702181)
(279.2277185 -2.521360014e-17 -2.139267977)
(294.5444229 2.883040841e-17 -2.442180738)
(307.1632113 6.243359876e-17 -2.814037746)
(311.1694836 -1.21958781e-16 -2.959354303)
(311.2083587 1.094058979e-16 -2.946406155)
(310.8879562 -4.670733138e-17 -3.016928883)
(310.5897092 0 -3.007221409)
(310.2211329 0 -3.0893632)
(309.8150204 -5.444645041e-17 -3.109307222)
(309.3357036 4.54606268e-17 -3.193112737)
(308.7884463 0 -3.250728057)
(308.1517917 0 -3.347146046)
(307.4154257 8.340844801e-19 -3.443739292)
(306.5594765 4.513611498e-17 -3.567611884)
(305.5650978 -3.665745312e-17 -3.706360912)
(304.4089925 0 -3.86968007)
(303.0660423 -2.531599429e-17 -4.05431211)
(301.5088523 2.266076204e-17 -4.261923086)
(299.7085317 3.856268399e-17 -4.48879092)
(297.6365061 -3.240232779e-17 -4.729069316)
(295.2676 -2.770362573e-17 -4.971233369)
(292.5842405 2.329941007e-17 -5.197512298)
(289.582688 0 -5.382458816)
(286.2807339 0 -5.493687234)
(282.7253103 5.819136639e-17 -5.495409905)
(278.9966318 -3.668988704e-17 -5.356253807)
(275.2045432 -1.054684655e-17 -5.059754345)
(271.4756764 0 -4.613175515)
(267.9343025 -4.634967158e-17 -4.049513704)
(264.6841521 5.205710958e-17 -3.42053174)
(261.7965774 -8.942658919e-17 -2.783886447)
(259.3076394 7.5397726e-17 -2.189815817)
(257.2215461 0 -1.672405775)
(255.5176523 0 -1.247277582)
(254.1585152 0 -0.9144273858)
(253.0972476 7.770263516e-17 -0.6637439193)
(252.2841951 -1.312120946e-16 -0.4804061181)
(251.6714094 1.104031596e-16 -0.3490276214)
(251.2159856 0 -0.2559397659)
(250.8813327 1.568768475e-16 -0.1901838204)
(250.6376918 -1.319912069e-16 -0.1435205911)
(250.4615506 -3.903246485e-20 -0.1100451616)
(250.3349085 1.871775145e-16 -0.08565422613)
(250.2442002 -3.153729878e-16 -0.06755286749)
(250.1794175 2.656310967e-16 -0.05385214373)
(250.1332236 2.239216661e-16 -0.04327619606)
(250.1002807 3.777652755e-16 -0.03495714405)
(250.0767528 -3.188484229e-16 -0.02830038087)
(250.0598029 8.082432809e-16 -0.02289179431)
(250.0475231 -4.557967558e-16 -0.01844436937)
(250.03805 0 -0.0147619731)
(250.031058 1.638510263e-16 -0.01163448119)
(250.0244404 0 -0.009207434389)
(250.020148 -4.75340912e-16 -0.005770500878)
(250.0125655 -3.97113359e-19 -0.007258477524)
(184.5067962 -1.553433177e-16 -4.084256338)
(220.1532939 1.520767345e-16 -4.327444016)
(240.1387241 -5.497286624e-17 -4.809963558)
(255.8403661 -4.91751616e-17 -5.187946115)
(270.44744 5.054922436e-17 -5.567230562)
(285.6526656 0 -5.996332416)
(301.1246307 0 -6.536973957)
(311.6187176 6.738599167e-17 -6.978144445)
(313.8259621 -6.32387724e-17 -7.085960128)
(313.7018771 0 -7.05889475)
(313.3607846 0 -7.142982282)
(313.0410819 0 -7.122736013)
(312.6458194 -6.752211587e-17 -7.210267802)
(312.2089263 5.636398576e-17 -7.223781934)
(311.6910893 -1.447174552e-18 -7.306514788)
(311.0975606 -1.213020389e-18 -7.358182995)
(310.4048697 0 -7.448123566)
(309.6012077 -2.572239263e-18 -7.535101257)
(308.6646944 0 -7.645946242)
(307.5742958 1.202902917e-18 -7.767412318)
(306.3044183 4.084692964e-18 -7.90772609)
(304.8275133 -2.946632903e-17 -8.062347909)
(303.1140652 -1.777021009e-17 -8.23056096)
(301.1335914 3.938029788e-17 -8.405778362)
(298.8569531 0 -8.578157571)
(296.260244 7.101282823e-18 -8.731237196)
(293.3301033 -1.207834059e-17 -8.841192493)
(290.071341 0 -8.87581862)
(286.5157812 -3.528768349e-17 -8.796332201)
(282.7293975 1.474044579e-17 -8.563115404)
(278.813142 -3.838850801e-17 -8.146290451)
(274.8934436 1.091741839e-17 -7.537891733)
(271.1035573 -3.736508983e-17 -6.759868169)
(267.5620484 -1.590647615e-17 -5.862826074)
(264.3569305 0 -4.915160062)
(261.539319 4.63077238e-17 -3.987287393)
(259.1265153 -3.903656887e-17 -3.137344585)
(257.1089952 0 -2.402835882)
(255.4590502 1.12586232e-16 -1.799270224)
(254.1373764 -9.516512893e-17 -1.324038987)
(253.0990896 8.035396196e-17 -0.9628056181)
(252.2978583 2.711200933e-16 -0.6957349053)
(251.6894724 -1.140653392e-16 -0.5022964163)
(251.2339949 0 -0.3640512797)
(250.8970865 4.856640782e-16 -0.2659233961)
(250.6503758 -5.447237056e-16 -0.1963207475)
(250.4711766 -3.437121252e-16 -0.1467277868)
(250.3418537 3.855366737e-16 -0.1110782446)
(250.2489862 0 -0.08514217351)
(250.1825502 -2.728355903e-16 -0.0659999042)
(250.1351448 2.295628766e-16 -0.05164966905)
(250.1013601 5.796690602e-16 -0.04071309049)
(250.0772626 3.253861029e-16 -0.03224175916)
(250.0599806 -2.740773644e-16 -0.02556759273)
(250.0474678 9.239988628e-16 -0.02024657969)
(250.037973 -7.793104434e-16 -0.01593678253)
(250.0308318 -4.933763353e-16 -0.01239430902)
(250.0243415 5.558567052e-16 -0.009710511955)
(250.0199739 1.058111963e-15 -0.005956187421)
(250.0120499 9.803894401e-17 -0.007371133959)
(187.8818522 -1.606075604e-19 -6.76327967)
(224.4636293 1.632754271e-16 -7.497216597)
(244.9577772 -2.384377187e-16 -8.276337234)
(261.1018843 1.081013974e-16 -8.891210459)
(276.2488296 1.13049189e-16 -9.498986075)
(292.015405 -2.547883419e-16 -10.17482772)
(307.245111 2.830968469e-16 -10.96844148)
(315.0082836 3.685822754e-19 -11.39353869)
(315.947786 -2.671259606e-16 -11.48209025)
(315.7051498 1.166425882e-16 -11.43654097)
(315.3439649 0 -11.52929126)
(314.9983413 8.010912615e-17 -11.49342785)
(314.5686131 -6.681055638e-17 -11.58048404)
(314.0922659 -2.660937295e-18 -11.58283195)
(313.5264647 4.912551023e-17 -11.6579993)
(312.8762125 3.836836161e-18 -11.69844018)
(312.1160611 -3.34449044e-17 -11.7757977)
(311.2325376 1.765047815e-18 -11.84792252)
(310.2017207 -4.746183456e-17 -11.94047765)
(309.000286 3.730130944e-17 -12.0398245)
(307.6003209 -1.842015122e-20 -12.15199309)
(305.9718724 -2.140913533e-17 -12.27060573)
(304.0833712 1.7914803e-17 -12.39166255)
(301.9029234 0 -12.50481424)
(299.4012868 -4.329518851e-17 -12.59516573)
(296.5570031 7.152486684e-18 -12.640005)
(293.3633774 3.756184126e-17 -12.60791323)
(289.8378747 2.166319755e-17 -12.45865002)
(286.0316265 1.866928586e-17 -12.14715716)
(282.0344626 -1.514887699e-17 -11.63268805)
(277.9702373 1.68466661e-19 -10.89231766)
(273.9800436 -4.537733493e-17 -9.933395971)
(270.1982506 3.860990438e-17 -8.798245335)
(266.730729 -9.919288233e-17 -7.557567223)
(263.6435737 2.793039102e-17 -6.295124133)
(260.9636913 0 -5.090133189)
(258.6875071 -8.114385109e-17 -4.003710842)
(256.7912809 -6.884604359e-17 -3.072394555)
(255.2400888 -1.82335212e-20 -2.308568805)
(253.9932417 4.920335931e-17 -1.705521177)
(253.0082208 -8.280549336e-17 -1.244410106)
(252.2428394 -6.986955726e-17 -0.9008535262)
(251.6573851 2.354583413e-16 -0.6499457433)
(251.2158722 2.974421952e-16 -0.4692670456)
(250.8870868 -1.667075485e-16 -0.3402749958)
(250.6448795 2.804792694e-16 -0.2485059394)
(250.4680638 5.893535675e-16 -0.1831546112)
(250.3399369 -3.962442736e-16 -0.1363893459)
(250.2476475 6.658728157e-16 -0.1026591606)
(250.1814829 -2.797192023e-16 -0.07807617076)
(250.1342138 -4.699449787e-16 -0.05994062904)
(250.1005196 1.973491912e-16 -0.04637788629)
(250.0764993 -6.630870685e-16 -0.03608879643)
(250.0593171 0 -0.02815597224)
(250.046885 -1.871190504e-15 -0.02197012055)
(250.037545 7.858447552e-16 -0.01705040231)
(250.0304419 3.30043e-16 -0.01310394344)
(250.0241303 -1.386145734e-16 -0.01017127609)
(250.0198791 -9.315477992e-16 -0.006114780454)
(250.0120314 0 -0.007473859053)
(190.9908322 -3.475712357e-16 -9.553366072)
(228.4194531 -1.710590223e-19 -10.87694403)
(249.3941895 0 -11.94798695)
(266.0339487 1.16521398e-19 -12.82207092)
(281.8087541 -1.269637546e-16 -13.6852581)
(298.0086893 1.43135928e-16 -14.63389108)
(312.1837099 -3.030236309e-19 -15.61753921)
(317.2391911 -6.035262273e-19 -15.93397865)
(317.4501297 1.080640273e-18 -16.01630697)
(317.1713649 1.178319308e-16 -15.94931007)
(316.7861864 -9.941319311e-17 -16.05207138)
(316.4113665 1.301102182e-18 -16.00206373)
(315.9442493 -6.944980061e-17 -16.08875182)
(315.4246342 5.984129545e-17 -16.08175284)
(314.8062751 4.872881738e-17 -16.14978199)
(314.0935284 -4.333830898e-17 -16.18024442)
(313.2589634 -4.2802065e-18 -16.24514923)
(312.2872119 0 -16.30209444)
(311.1522758 0 -16.37449777)
(309.8284679 0 -16.44812538)
(308.285535 -3.897409796e-17 -16.52625968)
(306.4910647 1.448262372e-17 -16.6004322)
(304.4114466 3.715673035e-17 -16.66308013)
(302.0137733 -2.083760761e-17 -16.69956161)
(299.2700017 2.668533908e-17 -16.68892969)
(296.1638918 1.511217045e-17 -16.6007901)
(292.6999207 -2.591588925e-17 -16.3948566)
(288.9139845 2.181425021e-17 -16.02279904)
(284.8820509 -1.874073955e-17 -15.43562945)
(280.7206686 -2.704803647e-19 -14.59658437)
(276.574649 2.722993483e-17 -13.49642119)
(272.5928922 4.680343855e-17 -12.16372846)
(268.9015157 0 -10.66402071)
(265.5852172 6.814258385e-17 -9.087078348)
(262.6829576 0 -7.52815129)
(260.1957817 0 -6.070323545)
(258.100087 2.093179441e-16 -4.773199246)
(256.3598299 3.534585121e-17 -3.669101073)
(254.9347809 2.399704704e-16 -2.76544189)
(253.7844073 5.069871911e-17 -2.050733184)
(252.869618 5.55470433e-16 -1.501780985)
(252.1532125 -2.160191803e-16 -1.090259907)
(251.6006317 -1.212892087e-16 -0.7876591887)
(251.1804641 -9.180469119e-16 -0.5683183932)
(250.8651545 -1.420795417e-19 -0.4108505792)
(250.6312568 7.205492766e-16 -0.2983899669)
(250.4594826 6.053007452e-16 -0.2181738304)
(250.3343835 -1.117994825e-15 -0.1608286415)
(250.2439142 -5.118272e-16 -0.1196241133)
(250.1788565 2.862851564e-16 -0.08979261603)
(250.132282 -1.200442694e-15 -0.06798921692)
(250.0990446 0 -0.05187433937)
(250.0753432 1.349510708e-15 -0.03981562489)
(250.058409 1.130437079e-15 -0.03065819881)
(250.0461618 9.464377131e-16 -0.023630518)
(250.0370221 0 -0.01812076296)
(250.0300091 6.621735953e-16 -0.01377948566)
(250.0238663 6.915462534e-17 -0.0106109515)
(250.0197232 -2.078028559e-15 -0.006273987132)
(250.0118464 3.174844724e-15 -0.007569950606)
(193.850759 -7.36200285e-16 -12.50336842)
(232.1014108 3.764218906e-16 -14.43960414)
(253.5416526 -1.414810932e-16 -15.8234972)
(270.7045194 -5.767304785e-22 -16.98157956)
(287.1711288 0 -18.1303502)
(303.6807392 3.140603817e-19 -19.37730127)
(315.5193439 2.822194859e-21 -20.41884723)
(318.552449 0 -20.59895714)
(318.4232077 -2.241891143e-18 -20.6936391)
(318.122597 -1.206445965e-16 -20.60497017)
(317.7071039 1.014173628e-16 -20.71652592)
(317.297996 0 -20.65275233)
(316.7877034 -7.316911798e-17 -20.73698758)
(316.2180168 -1.984152943e-18 -20.7200691)
(315.5395856 4.660928968e-17 -20.77799061)
(314.755723 -8.371035962e-17 -20.79568761)
(313.8370762 7.451377006e-17 -20.84353393)
(312.7660789 3.691990453e-18 -20.87985671)
(311.5144343 0 -20.92523019)
(310.053677 4.211325323e-17 -20.96516355)
(308.3508009 -4.421062936e-17 -21.00010103)
(306.3706933 3.760991203e-17 -21.01917559)
(304.0780435 -3.798940659e-17 -21.01027056)
(301.440362 0 -20.9526946)
(298.4337388 -1.830238172e-17 -20.8173323)
(295.0517577 0 -20.56434148)
(291.3160527 2.678371122e-17 -20.14409417)
(287.2871891 -2.254902914e-17 -19.5019362)
(283.0703229 0 -18.58965398)
(278.8086064 0 -17.38164677)
(274.6619316 0 -15.88979776)
(270.77693 0 -14.16876272)
(267.2609456 0 -12.30780471)
(264.1699813 1.061858138e-16 -10.41249636)
(261.512759 -1.501376809e-16 -8.584285107)
(259.2649691 1.020430293e-16 -6.904766684)
(257.3854793 -1.724938531e-16 -5.4277979)
(255.8287636 -1.828482546e-16 -4.178736942)
(254.5516291 -9.236937475e-17 -3.158626867)
(253.5152461 -1.562200735e-16 -2.350822629)
(252.684882 -5.71003824e-16 -1.728075527)
(252.0288762 -2.960110327e-16 -1.258778694)
(251.5182089 4.361514592e-16 -0.9116128562)
(251.1263929 8.38069227e-16 -0.6584435052)
(250.8298641 -7.042895344e-16 -0.4756955788)
(250.6082118 -7.392877891e-16 -0.3446143169)
(250.4443395 -8.686886326e-16 -0.2508558223)
(250.3243158 1.04099899e-15 -0.1837681231)
(250.2371102 1.221907655e-15 -0.1356179021)
(250.174166 -1.462704468e-16 -0.1008724422)
(250.1289799 1.347314561e-15 -0.07561457983)
(250.0966719 -1.845056054e-15 -0.05708548436)
(250.0736097 -2.914445953e-15 -0.04334772766)
(250.0571326 -1.002711016e-15 -0.03302733611)
(250.0452141 0 -0.02519952967)
(250.0363536 1.59513573e-15 -0.01913108287)
(250.0295046 -4.980902848e-16 -0.01441288146)
(250.023545 -2.070577314e-16 -0.01102109675)
(250.0195538 1.832983244e-15 -0.006426924584)
(250.0116941 -3.034124889e-15 -0.007659416732)
(196.4397354 1.899459989e-19 -15.60096954)
(235.5124688 0 -18.18308269)
(257.4172471 1.508778834e-19 -19.89971118)
(275.1177303 -1.449127596e-19 -21.36724726)
(292.2560904 -3.132421115e-19 -22.83130247)
(308.7805707 0 -24.37560133)
(317.7173352 7.095831317e-19 -25.32944925)
(319.2173342 -1.320359686e-18 -25.383645)
(318.8875452 1.151271348e-18 -25.49093938)
(318.5679163 -9.698755987e-19 -25.37933289)
(318.1171021 0 -25.49607983)
(317.6692038 8.65622166e-17 -25.4169849)
(317.110808 -7.230485995e-17 -25.49381404)
(316.484851 6.262849797e-17 -25.46405941)
(315.7391443 -5.081236767e-17 -25.50687697)
(314.875271 5.343266117e-18 -25.50762073)
(313.8617367 0 -25.5333776)
(312.6781559 -6.445707398e-17 -25.54414907)
(311.2934688 5.088110087e-17 -25.55705801)
(309.676043 -1.078007461e-17 -25.55700686)
(307.7901889 9.097495701e-18 -25.54050913)
(305.5989526 0 -25.49268977)
(303.0672531 0 -25.39495997)
(300.1661549 0 -25.21867136)
(296.8801984 0 -24.92515685)
(293.21825 -6.476302534e-17 -24.46477203)
(289.2253205 -3.411028016e-19 -23.78004682)
(284.9920101 -2.357411411e-17 -22.81420356)
(280.6542538 2.271261485e-19 -21.52682101)
(276.3772769 1.706855684e-17 -19.91175079)
(272.3257973 -2.958831251e-17 -18.00849)
(268.6317056 1.25827518e-16 -15.89976969)
(265.3734081 -8.594172471e-17 -13.69581546)
(262.5730235 -7.271571205e-17 -11.51226168)
(260.2087939 1.235809477e-16 -9.45051207)
(258.2339479 -1.048348428e-16 -7.585606715)
(256.5938365 0 -5.962334392)
(255.2370796 -1.883918684e-16 -4.597339247)
(254.1201834 -2.859665902e-16 -3.484678885)
(253.2076146 1.07064677e-16 -2.602653078)
(252.4698244 9.085127225e-20 -1.920477287)
(251.8810409 2.658866438e-16 -1.403980109)
(251.4179332 -5.111650057e-16 -1.019805153)
(251.0590332 4.2982543e-16 -0.7380654938)
(250.7848737 1.443505168e-15 -0.5336161851)
(250.5782147 1.514659133e-16 -0.3863064007)
(250.4242959 -1.269764271e-16 -0.2805826286)
(250.3108468 0 -0.2047824694)
(250.2279797 -1.604804546e-15 -0.150355706)
(250.1679075 1.492172649e-16 -0.1111302212)
(250.1246367 2.246276506e-15 -0.08269973769)
(250.0936191 3.127749155e-15 -0.06194022527)
(250.0714404 4.176554642e-15 -0.04664405396)
(250.0555804 0 -0.03524092383)
(250.0440983 0 -0.02666623738)
(250.0355772 -1.605623783e-15 -0.02007664005)
(250.0289437 1.664872973e-16 -0.01500384466)
(250.0231763 -2.75607683e-16 -0.01140290913)
(250.0193542 -1.820454574e-15 -0.006574850985)
(250.0114997 -5.849456462e-18 -0.007743798642)
(198.7437489 -2.015475806e-19 -18.84033886)
(238.6599693 2.180632263e-16 -22.09908572)
(261.0476023 -3.392102954e-16 -24.17444994)
(279.3427218 1.64932784e-16 -25.98155458)
(297.0826091 3.519344303e-19 -27.79690409)
(312.8232575 1.929461538e-16 -29.55795391)
(318.8667683 -1.920152837e-16 -30.31401781)
(319.4197928 1.369066318e-18 -30.26357782)
(318.8644085 -1.493364244e-16 -30.37818533)
(318.5209043 1.261360003e-16 -30.24095734)
(318.0296705 -1.647859819e-18 -30.35958196)
(317.5363446 0 -30.2658656)
(316.9221678 -5.24802752e-23 -30.33260669)
(316.2301656 -3.873489248e-18 -30.28976882)
(315.4055652 3.250497537e-18 -30.3154704)
(314.4474888 3.285813832e-17 -30.29801916)
(313.3222123 -3.669793567e-17 -30.2994206)
(312.0062668 0 -30.28152057)
(310.4659888 6.549706876e-18 -30.25675542)
(308.6671191 -3.330500022e-17 -30.20817464)
(306.5723918 3.721994196e-17 -30.12671787)
(304.1447559 1.58920874e-17 -29.99184919)
(301.3518442 0 -29.7773886)
(298.1717068 -2.29724244e-17 -29.44613703)
(294.6019449 0 -28.9498227)
(290.6724943 -3.041456704e-19 -28.22978976)
(286.4577839 2.831446877e-17 -27.22369392)
(282.0820938 4.843821427e-17 -25.87897602)
(277.7098345 -4.145201813e-17 -24.17178422)
(273.5189024 0 -22.12348358)
(269.6653009 0 -19.80512456)
(266.2535648 7.873938464e-19 -17.32585756)
(263.3254962 -5.67396177e-19 -14.81100264)
(260.8676257 3.769172478e-17 -12.37904317)
(258.8304123 -1.595853712e-16 -10.12515457)
(257.1493066 -2.706043669e-17 -8.113690232)
(255.7608882 2.057964218e-16 -6.378213271)
(254.6116536 -2.710537396e-16 -4.925895741)
(253.6602793 2.605310912e-16 -3.743869928)
(252.8758627 2.754738028e-17 -2.805856022)
(252.2346087 -9.250693966e-17 -2.078199248)
(251.7167501 3.889425502e-17 -1.52489111)
(251.304583 6.548242299e-17 -1.111254958)
(250.9815608 -9.346183748e-16 -0.8063038121)
(250.7322561 -7.384217945e-16 -0.5838818428)
(250.5425952 0 -0.4228942831)
(250.4001922 1.03829961e-15 -0.3069265364)
(250.2945003 0 -0.2235637144)
(250.2168449 0 -0.1636230761)
(250.1602763 0 -0.1204212036)
(250.1193691 -4.190041317e-15 -0.0891500369)
(250.0899546 -1.588636046e-15 -0.06637873621)
(250.0688738 -2.823156065e-15 -0.04966831963)
(250.0537743 -2.494903952e-15 -0.03727794757)
(250.0428249 -1.827741945e-15 -0.02801939398)
(250.0346993 0 -0.02095170806)
(250.0283274 0 -0.0155507856)
(250.0227638 1.376023864e-16 -0.01175510391)
(250.0191318 1.80938124e-15 -0.006717147283)
(250.011289 -1.156404129e-17 -0.007823187563)
(200.6896588 2.13492666e-19 -22.24562025)
(241.4802171 0 -26.16989711)
(264.4031579 1.817781471e-19 -28.65140321)
(283.384349 -2.094309912e-22 -30.83394063)
(301.6381335 -2.000333614e-16 -33.04433993)
(315.3338935 2.099541043e-16 -34.83330295)
(319.1322003 0 -35.34274711)
(318.7884307 0 -35.21528104)
(318.3283262 1.524463031e-16 -35.34552932)
(317.9528905 2.014324555e-19 -35.18744864)
(317.4137382 -1.073072784e-16 -35.30648429)
(316.865614 0 -35.20051021)
(316.1852379 2.354007343e-18 -35.25554014)
(315.4146498 6.729155181e-17 -35.1996212)
(314.4969949 -5.636622529e-17 -35.2054287)
(313.4284957 5.581588283e-18 -35.16607829)
(312.1735089 -4.717058134e-18 -35.13666113)
(310.7057257 7.957985966e-18 -35.08066369)
(308.9895291 -5.375763641e-17 -35.00485089)
(306.9889194 -3.660466411e-19 -34.88964114)
(304.6661823 8.642071645e-17 -34.71975934)
(301.9856203 -4.863431534e-17 -34.46811221)
(298.9197764 0 -34.10003067)
(295.4574234 -2.463306894e-19 -33.56907443)
(291.6150592 1.995847916e-17 -32.81757596)
(287.4507201 3.420287083e-17 -31.77985517)
(283.0736359 0 -30.3937849)
(278.6418833 0 -28.61971925)
(274.3407119 -2.1675495e-17 -26.46005098)
(270.3467103 1.827861662e-17 -23.96976782)
(266.7922848 0 -21.25142952)
(263.7441764 -1.336932283e-16 -18.43509003)
(261.2038576 1.364211429e-16 -15.65308532)
(259.1242873 -1.92728084e-17 -13.01923089)
(257.4332549 -5.483802391e-19 -10.61724344)
(256.054161 -2.223134517e-16 -8.49803804)
(254.9196665 -4.455709152e-16 -6.683046378)
(253.9775673 4.147002811e-16 -5.170117166)
(253.1907663 -3.33386581e-17 -3.940067894)
(252.5339765 0 -2.962785199)
(251.9894522 -4.738168078e-17 -2.202489243)
(251.5433415 -5.975999461e-16 -1.62203242)
(251.1833365 0 -1.186055159)
(250.8975689 0 -0.8630339344)
(250.674466 -7.544748439e-16 -0.6262834271)
(250.5030069 0 -0.4541589782)
(250.3731287 -9.268415519e-16 -0.3296947119)
(250.2760001 1.662102207e-15 -0.2399577726)
(250.204177 -9.263261081e-17 -0.1753048745)
(250.1515758 -2.397826689e-15 -0.128663818)
(250.1133699 2.193357817e-15 -0.09491036791)
(250.0857994 -3.546188797e-15 -0.07036552184)
(250.0659844 0 -0.05239885442)
(250.0517594 2.373481602e-15 -0.03912594463)
(250.0414195 5.897850888e-15 -0.02925248255)
(250.0337355 0 -0.0217531046)
(250.027662 1.673184554e-16 -0.01605326125)
(250.0223122 -1.37431188e-16 -0.01207748848)
(250.0188854 1.799629976e-15 -0.006853805227)
(250.011053 5.871409904e-15 -0.007897955164)
(202.1622788 -9.272616419e-16 -25.77429384)
(243.8599845 2.543331915e-16 -30.38331134)
(267.4298359 -2.000713976e-19 -33.32036595)
(287.1482521 4.002796975e-19 -35.91920246)
(305.5961945 4.269443311e-19 -38.53603675)
(316.4901926 -2.218835987e-16 -40.11300465)
(317.9861716 2.075792159e-16 -40.4088441)
(317.7523852 0 -40.24002463)
(317.2310986 1.553586987e-16 -40.3974019)
(316.8150837 2.296981991e-19 -40.217493)
(316.222258 -1.076612277e-16 -40.3319175)
(315.6118704 0 -40.21275498)
(314.8573782 2.410326749e-18 -40.25074295)
(313.9987915 0 -40.17757783)
(312.9778154 -1.618455538e-20 -40.15625098)
(311.7874008 0 -40.08596383)
(310.3902045 -3.867167772e-17 -40.01336626)
(308.7571089 -1.626682017e-19 -39.90330433)
(306.8507632 2.052631097e-17 -39.75641143)
(304.6338873 4.673260658e-17 -39.55016982)
(302.069429 -4.906995115e-17 -39.26291858)
(299.1252507 -1.68500747e-17 -38.86007967)
(295.7824482 -2.869476329e-17 -38.29687531)
(292.0460563 2.413056666e-17 -37.51608163)
(287.9589521 2.091378016e-17 -36.45143524)
(283.6145828 1.816700827e-17 -35.03513895)
(279.1593563 0 -33.21391105)
(274.7792101 -5.241437349e-17 -30.97136338)
(270.6667579 8.963517975e-17 -28.34449786)
(266.9806802 5.740615535e-17 -25.42410807)
(263.8163778 1.46544103e-16 -22.33958926)
(261.1965729 1.10898413e-16 -19.23330667)
(259.0832066 0 -16.23575147)
(257.4008635 0 -13.44945566)
(256.0612491 1.006478853e-16 -10.94303448)
(254.9816345 2.556344169e-16 -8.752729748)
(254.0951527 1.919389114e-16 -6.888053606)
(253.3536913 3.239065423e-16 -5.338371975)
(252.7258771 5.468322779e-16 -4.079158351)
(252.1926205 4.603853002e-16 -3.077351257)
(251.7422538 -4.84183691e-17 -2.295796248)
(251.3665784 6.914123916e-16 -1.696839163)
(251.0583276 -1.093665929e-15 -1.24498023)
(250.8099708 -5.7369623e-17 -0.9086270191)
(250.6135219 8.175232262e-16 -0.6609632987)
(250.4608259 -8.05990929e-17 -0.4801246923)
(250.3440293 6.743876864e-17 -0.3488586542)
(250.2559577 -3.609648429e-15 -0.2539191612)
(250.1903751 0 -0.1853561495)
(250.1420625 2.515026201e-15 -0.1358208012)
(250.1068014 -2.095180616e-15 -0.09995287745)
(250.081254 6.970359572e-15 -0.07388134071)
(250.062833 -1.808419627e-16 -0.05482330092)
(250.0495716 -2.247309603e-15 -0.04077756408)
(250.0399021 -3.83851184e-15 -0.03036155917)
(250.0326972 -3.367841503e-15 -0.02247880035)
(250.026952 0 -0.01651109931)
(250.0218243 0 -0.01236983854)
(250.0186172 -3.582150386e-15 -0.006984622149)
(250.0107952 -5.806319545e-15 -0.007968075748)
(203.1510281 6.312630136e-20 -29.40451595)
(245.8417368 -2.763055894e-16 -34.7472663)
(270.1817057 0 -38.19468768)
(290.6183265 4.479369587e-19 -41.26085999)
(308.5023415 -9.357275858e-19 -44.19593)
(316.6204066 0 -45.37534801)
(316.5168804 -2.14129271e-16 -45.54219602)
(316.1411704 1.859603305e-16 -45.32014129)
(315.5875886 -1.252827383e-18 -45.48322275)
(315.124493 0 -45.28332751)
(314.4721482 3.496007873e-18 -45.38810339)
(313.792039 9.364023513e-17 -45.25460244)
(312.9558946 -2.191437591e-18 -45.26955424)
(312.0005602 2.542169038e-19 -45.17394694)
(310.8668439 -5.888932159e-17 -45.11785372)
(309.5439443 0 -45.00753068)
(307.9927094 4.914625983e-18 -44.88006611)
(306.1808809 -8.29983497e-18 -44.70102471)
(304.0693088 -2.830250978e-17 -44.46391884)
(301.6201254 1.17525364e-17 -44.14159873)
(298.7991771 2.038270282e-17 -43.70465799)
(295.5822633 2.208462941e-20 -43.11016241)
(291.9654772 0 -42.30297814)
(287.9776712 2.5258748e-17 -41.21523185)
(283.6952014 3.611908603e-19 -39.77481665)
(279.2510999 -1.827268124e-17 -37.92006188)
(274.825653 0 -35.61827017)
(270.6198997 1.07651819e-16 -32.88611642)
(266.8161739 -1.145878786e-16 -29.79944868)
(263.5392694 -5.860458216e-17 -26.48187411)
(260.8383312 -1.331302518e-16 -23.0809478)
(258.6910423 1.508567948e-17 -19.74123575)
(257.0246741 -3.614682371e-17 -16.58323996)
(255.7427134 -3.067913644e-16 -13.69336639)
(254.7477903 -2.93693604e-16 -11.12331239)
(253.9564593 -1.896401278e-16 -8.89479388)
(253.3058987 3.69016744e-16 -7.006469905)
(252.7541171 3.52371387e-16 -5.44050689)
(252.2763877 -1.133797632e-15 -4.16818356)
(251.8600278 -4.40172827e-16 -3.154403367)
(251.499251 -2.467608131e-17 -2.361335513)
(251.1911222 -4.150856206e-17 -1.751362894)
(250.9329817 1.114558041e-15 -1.289288006)
(250.721239 9.060286609e-16 -0.9438221695)
(250.5511766 4.897299499e-17 -0.6883356489)
(250.4172731 0 -0.5010108009)
(250.3137308 -2.196100842e-15 -0.3645262741)
(250.2349374 1.834875881e-15 -0.2654953536)
(250.1758137 -9.571547728e-17 -0.1937937457)
(250.1319811 -9.106156266e-21 -0.1418949537)
(250.0998205 1.99082134e-16 -0.1042749881)
(250.076417 -3.638850626e-15 -0.07692241382)
(250.0594799 0 -0.05693840333)
(250.0472469 2.570308421e-15 -0.04223057003)
(250.038293 -1.247067411e-16 -0.03134534932)
(250.0315961 3.28152851e-15 -0.02312806262)
(250.0262021 -2.689047011e-15 -0.01692455039)
(250.0213018 0 -0.01263216361)
(250.0183271 3.567234453e-15 -0.007109431494)
(250.0105153 5.759114002e-15 -0.008033457275)
(203.7434681 -5.226698064e-16 -33.1438338)
(247.5648605 -3.013756133e-16 -39.28020221)
(272.769299 2.510903848e-16 -43.29562513)
(293.8931952 -4.932209926e-19 -46.88561809)
(310.005391 -2.573337304e-16 -49.87228076)
(314.6587922 4.880073068e-16 -50.55724295)
(314.4394263 -2.191802923e-16 -50.69493215)
(314.0521843 1.483317542e-18 -50.45387079)
(313.4508599 -1.591343745e-16 -50.62239339)
(312.9331717 -2.985388225e-19 -50.3952967)
(312.2140682 1.098756064e-16 -50.47757923)
(311.4546871 -9.842769062e-17 -50.32109416)
(310.5263617 7.99084478e-17 -50.30037574)
(309.4614427 0 -50.17055552)
(308.2002653 -4.978098622e-17 -50.06668336)
(306.728054 9.561474261e-17 -49.90281441)
(305.0040626 -3.007677687e-17 -49.70589943)
(302.9934007 3.426621143e-17 -49.44100102)
(300.6565617 -2.876679325e-17 -49.09261961)
(297.9573683 -2.479840592e-17 -48.62559816)
(294.8679452 2.071043535e-17 -47.99980428)
(291.3772341 1.788550522e-17 -47.16282837)
(287.5040489 0 -46.05149896)
(283.3096173 0 -44.59208893)
(278.9084638 -4.397273692e-17 -42.71290097)
(274.4710329 -3.823651884e-17 -40.36815206)
(270.20137 0 -37.55768792)
(266.2980025 -1.11132253e-16 -34.33802673)
(262.9145436 -9.545834035e-17 -30.82226773)
(260.1297327 2.028488503e-17 -27.15884968)
(257.9429742 1.209827849e-16 -23.50252208)
(256.2908497 -1.016508016e-16 -19.99024945)
(255.0736762 -1.857548173e-16 -16.72627739)
(254.1819112 3.125852172e-16 -13.77820646)
(253.5156364 2.817247489e-16 -11.18070413)
(252.9951293 2.377750763e-16 -8.942173199)
(252.564212 -4.261050373e-16 -7.052025034)
(252.1882794 -3.167526165e-16 -5.486714232)
(251.8496559 5.689392898e-16 -4.214499757)
(251.5419643 -2.994107189e-17 -3.199105885)
(251.264935 8.304770477e-16 -2.402633019)
(251.0204239 4.22730368e-17 -1.787944492)
(250.8099031 2.072879822e-20 -1.320489642)
(250.6333003 -9.812360153e-16 -0.9695681757)
(250.4888269 -4.983471302e-17 -0.7089799673)
(250.3733419 -1.292059354e-20 -0.5171615839)
(250.2829262 4.497415067e-15 -0.3768964221)
(250.2134144 0 -0.2747978632)
(250.1608128 -9.711520544e-17 -0.2006782265)
(250.1215429 1.6172161e-16 -0.1469180137)
(250.0925642 2.083735274e-15 -0.1078926721)
(250.0713752 0 -0.07949642926)
(250.0559788 0 -0.05874769496)
(250.0448171 -1.524761684e-16 -0.0434865388)
(250.0366103 4.142576951e-15 -0.03220455172)
(250.0304424 1.030086315e-16 -0.02370111535)
(250.0254159 2.610445719e-15 -0.01729415316)
(250.0207459 -1.096770026e-15 -0.0128646154)
(250.018013 -1.777165853e-15 -0.007228022636)
(250.0102139 -5.739981253e-15 -0.008093811175)
(203.9857162 0 -37.00197603)
(249.0993081 6.402968869e-19 -43.99892235)
(275.1783481 0 -48.64194507)
(296.7521356 -2.769969741e-16 -52.78191195)
(310.2726634 7.815668707e-19 -55.55365261)
(312.5369122 5.058087858e-16 -55.81218285)
(311.9050057 -2.240068606e-16 -55.93217454)
(311.5000776 -1.931094517e-16 -55.63950115)
(310.8449313 -2.910114514e-18 -55.80685001)
(310.2644757 1.39820738e-16 -55.55188021)
(309.4700082 0 -55.60147005)
(308.6193092 1.002699854e-16 -55.41546355)
(307.5845476 -8.658170857e-17 -55.34901526)
(306.3925588 6.887270758e-17 -55.17356445)
(304.9838405 -5.046527093e-17 -55.00638469)
(303.3397171 0 -54.76950538)
(301.4189389 -1.027543004e-17 -54.47984989)
(299.1861853 -3.51205811e-17 -54.10049746)
(296.6048495 -3.040905127e-19 -53.60654963)
(293.6441509 6.287605615e-17 -52.95426007)
(290.2868632 -2.128815941e-17 -52.09114952)
(286.5400579 -1.814447563e-17 -50.95294344)
(282.451815 1.57219907e-17 -49.46987616)
(278.1230677 -1.32379942e-17 -47.57121601)
(273.7078787 6.916019992e-17 -45.19741553)
(269.4046481 -2.003556229e-17 -42.32845666)
(265.4247972 -8.438824984e-17 -39.00494881)
(261.9452854 8.551476078e-17 -35.32507855)
(259.0754333 7.274263597e-17 -31.43198046)
(256.8416063 -1.049338346e-17 -27.48745484)
(255.1958885 -1.05309332e-16 -23.64228256)
(254.0414324 -1.198937066e-16 -20.0178605)
(253.2606433 1.890912199e-16 -16.69837415)
(252.738667 1.711500993e-16 -13.73202505)
(252.3784741 0 -11.13767739)
(252.1073273 0 -8.912311909)
(251.8773308 -4.096754714e-16 -7.037940528)
(251.6618609 3.448049508e-16 -5.486807245)
(251.4502813 5.982096226e-16 -4.225244161)
(251.2421896 -5.028929536e-16 -3.216542557)
(251.0423583 -1.612667433e-15 -2.423232056)
(250.856921 6.664036529e-16 -1.808999182)
(250.690996 1.190098812e-15 -1.340195051)
(250.5476072 -3.021491707e-17 -0.9869148956)
(250.4275554 0 -0.7235665349)
(250.329821 4.234630324e-17 -0.5289963516)
(250.2521781 -2.299602822e-15 -0.3862262958)
(250.1917817 5.905465997e-17 -0.2819814322)
(250.1456418 -4.920584917e-17 -0.2061008918)
(250.1109289 0 -0.1509427599)
(250.0851515 0 -0.1108357711)
(250.0662049 1.127168493e-16 -0.08161985436)
(250.052377 2.982027718e-15 -0.060260011)
(250.0423111 -2.304978904e-16 -0.04455006526)