/*--------------------------------*- C++ -*----------------------------------*\
  =========                 |
  \\      /  F ield         | OpenFOAM: The Open Source CFD Toolbox
   \\    /   O peration     | Website:  https://openfoam.org
    \\  /    A nd           | Version:  12
     \\/     M anipulation  |
\*---------------------------------------------------------------------------*/
FoamFile
{
    format      ascii;
    class       volScalarField;
    location    "0.019";
    object      Ma;
}
// * * * * * * * * * * * * * * * * * * * * * * * * * * * * * * * * * * * * * //

dimensions      [];

internalField   nonuniform List<scalar> 
16000
(
0.62989509
0.75248708
0.70582112
0.73141364
0.71582455
0.7230351
0.71714585
0.71875069
0.71603808
0.71560408
0.7139493
0.71280115
0.71136491
0.70996473
0.70848128
0.7069514
0.70536394
0.70372063
0.70202034
0.70026269
0.69844732
0.69657414
0.69464329
0.69265526
0.69061082
0.68851117
0.68635789
0.68415299
0.6818989
0.67959854
0.67725526
0.67487289
0.67245571
0.67000845
0.66753631
0.66504491
0.66254028
0.66002883
0.65751733
0.65501284
0.65252269
0.65005442
0.64761576
0.64521464
0.64285913
0.64055755
0.63831844
0.63615054
0.63406281
0.6320647
0.63016644
0.62837934
0.62671571
0.62518832
0.62381005
0.62259409
0.62155395
0.62070176
0.6200454
0.61958706
0.61932213
0.61923413
0.61928369
0.61939587
0.6194579
0.61933387
0.61888298
0.61796266
0.61642276
0.61410735
0.61087932
0.60661404
0.60119789
0.59457815
0.58689868
0.57915011
0.57380938
0.56973644
0.5752306
0.57329227
0.63507885
0.75831092
0.71000558
0.73666986
0.72025548
0.72792037
0.72159366
0.72330565
0.7204192
0.71990728
0.7181673
0.71690107
0.71537315
0.71385699
0.7122633
0.71061473
0.7089057
0.7071362
0.70530573
0.70341395
0.70146074
0.69944629
0.69737105
0.69523588
0.69304201
0.69079113
0.68848539
0.68612742
0.68372036
0.68126786
0.67877409
0.67624373
0.67368195
0.6710944
0.6684872
0.66586693
0.66324054
0.66061536
0.65799901
0.65539939
0.65282457
0.65028277
0.64778229
0.64533152
0.64293887
0.64061285
0.63836206
0.63619522
0.63412116
0.63214894
0.63028805
0.62854865
0.62694154
0.6254777
0.62416775
0.6230218
0.6220494
0.62125797
0.6206501
0.62022152
0.61995981
0.61984006
0.61981529
0.61980528
0.61969553
0.61935358
0.61864925
0.61745625
0.61564405
0.61307074
0.60962065
0.60517449
0.59964745
0.5929825
0.58534273
0.57789748
0.57261762
0.56973663
0.57515647
0.57338133
0.63997045
0.76368646
0.71411428
0.74134917
0.72446324
0.73222933
0.72573963
0.72733719
0.72439733
0.72372568
0.7219181
0.72051211
0.71887932
0.71723492
0.7155152
0.71373377
0.71188759
0.70997638
0.70799986
0.70595803
0.70385108
0.70167963
0.69944458
0.69714733
0.69478968
0.69237399
0.68990308
0.6873804
0.68480991
0.6821962
0.67954438
0.67686015
0.67414974
0.67141988
0.66867778
0.66593107
0.66318773
0.66045607
0.65774462
0.65506208
0.65241723
0.64981886
0.64727575
0.64479656
0.64238986
0.64006413
0.63782777
0.63568915
0.63365663
0.63173858
0.62994355
0.62828026
0.62675761
0.62538424
0.62416805
0.62311568
0.62223217
0.62151966
0.62097511
0.62058808
0.62033859
0.62019296
0.62009579
0.61996187
0.61967741
0.61911576
0.61815746
0.61669521
0.61460895
0.61178159
0.6081044
0.60348979
0.59786237
0.59114737
0.58358618
0.57641556
0.57148488
0.56961187
0.57495279
0.57347065
0.6444913
0.76863742
0.71768419
0.74554951
0.72822815
0.73607965
0.72942871
0.73088574
0.72788786
0.72703523
0.72514689
0.72358493
0.72182928
0.72004029
0.71817666
0.71624499
0.71424427
0.71217421
0.71003492
0.70782678
0.70555045
0.70320704
0.70079802
0.69832543
0.69579178
0.69320019
0.69055438
0.68785872
0.68511821
0.68233851
0.67952589
0.67668724
0.67382998
0.67096204
0.66809181
0.66522803
0.66237973
0.65955614
0.6567666
0.65402046
0.65132703
0.64869543
0.64613461
0.64365322
0.64125964
0.63896198
0.63676805
0.63468551
0.63272177
0.63088411
0.62917965
0.62761538
0.62619796
0.62493338
0.62382636
0.62287967
0.6220935
0.62146446
0.62098378
0.62063502
0.62039129
0.62021116
0.620033
0.61977024
0.61931303
0.61854198
0.61735344
0.61564984
0.61332775
0.61028587
0.60642325
0.60168623
0.59599779
0.58927002
0.58182399
0.57492033
0.57053826
0.56942023
0.57473663
0.57349023
0.64864391
0.77311134
0.72107624
0.7490654
0.73145222
0.73937039
0.73261774
0.7338612
0.73082588
0.7297549
0.72777386
0.72603672
0.72413776
0.72218675
0.72016029
0.71806062
0.71588775
0.71364164
0.71132271
0.70893178
0.70647
0.70393908
0.7013412
0.69867918
0.69595647
0.6931772
0.69034622
0.68746909
0.68455212
0.68160231
0.6786273
0.67563538
0.67263533
0.66963643
0.66664829
0.66368078
0.66074391
0.65784772
0.65500218
0.65221707
0.64950189
0.64686577
0.64431743
0.6418651
0.63951655
0.63727905
0.63515943
0.63316414
0.63129924
0.62957041
0.62798298
0.62654182
0.6252511
0.62411392
0.62313163
0.62230299
0.62162339
0.621084
0.62067039
0.62036018
0.62012
0.619902
0.61964073
0.61925129
0.61862673
0.61766078
0.6162642
0.61434476
0.61181706
0.60858574
0.60458055
0.59975615
0.5940212
0.58731533
0.58001914
0.57341534
0.56946577
0.56920984
0.57452657
0.57344582
0.65238463
0.77701488
0.7239812
0.75206816
0.73412063
0.74201448
0.73520027
0.73617554
0.73311553
0.73180011
0.72971062
0.7277845
0.72572363
0.72359576
0.72138981
0.71910561
0.71674357
0.71430401
0.71178777
0.70919624
0.70653133
0.7037956
0.70099226
0.69812529
0.69519939
0.69222011
0.68919374
0.68612745
0.68302911
0.67990736
0.67677149
0.67363135
0.67049724
0.66737979
0.66428984
0.66123829
0.65823596
0.65529345
0.65242103
0.64962851
0.64692516
0.64431964
0.64181993
0.63943332
0.63716641
0.63502516
0.6330149
0.63114039
0.62940586
0.627815
0.62637091
0.625076
0.62393171
0.62293806
0.62209291
0.62139112
0.62082359
0.62037641
0.62002965
0.61975515
0.61951409
0.61925441
0.61890829
0.61839601
0.61761116
0.61647778
0.61489731
0.61279424
0.61008951
0.60670736
0.60260515
0.59772485
0.59196795
0.58532092
0.57821154
0.57192587
0.56845017
0.56899308
0.5743107
0.57334358
0.6556479
0.78029918
0.72642774
0.75453999
0.73641341
0.74395976
0.73705065
0.73774956
0.73468406
0.73312046
0.73090783
0.72878247
0.7265406
0.72421857
0.72181283
0.7193227
0.71674901
0.71409284
0.71135588
0.70854051
0.70564983
0.7026877
0.6996588
0.69656869
0.69342378
0.69023142
0.6869998
0.68373798
0.68045578
0.67716373
0.67387294
0.67059495
0.6673416
0.66412483
0.66095655
0.65784842
0.65481172
0.65185721
0.64899496
0.64623428
0.64358364
0.64105057
0.63864173
0.63636284
0.63421876
0.63221356
0.63035056
0.62863238
0.62706101
0.62563776
0.62436322
0.62323706
0.62225777
0.62142218
0.62072475
0.6201566
0.61970461
0.61935031
0.61906857
0.61882621
0.61858074
0.61827665
0.61784578
0.61721481
0.6162996
0.61501635
0.61328017
0.61102047
0.60817233
0.60468624
0.60051845
0.5956028
0.58985713
0.58330551
0.57642217
0.5704825
0.56746315
0.56874132
0.57407341
0.57321226
0.65844683
0.78298055
0.72842337
0.75647699
0.73822439
0.74525674
0.73854722
0.7389459
0.73560972
0.73372736
0.73136036
0.72901307
0.72655786
0.72401121
0.72137364
0.7186453
0.71582785
0.7129235
0.70993521
0.70686679
0.7037229
0.70050919
0.69723224
0.69389965
0.69052001
0.68710288
0.68365875
0.68019894
0.6767355
0.67328103
0.66984855
0.6664513
0.6631025
0.65981516
0.65660189
0.65347466
0.65044467
0.64752218
0.6447164
0.6420354
0.6394861
0.63707423
0.63480437
0.63268003
0.63070373
0.62887712
0.62720103
0.62567555
0.62430012
0.62307343
0.62199333
0.62105667
0.62025893
0.61959376
0.61905227
0.61862219
0.61828679
0.61802356
0.61780305
0.61758846
0.61733369
0.61698151
0.61647747
0.61575141
0.61471468
0.61330156
0.61143613
0.6090521
0.60610259
0.60254851
0.59834064
0.59341798
0.58771774
0.58130367
0.57468899
0.56912339
0.56653874
0.56845464
0.57380436
0.5730775
0.66086044
0.7851096
0.72999561
0.75792521
0.73942646
0.74629568
0.73919004
0.73885233
0.73574784
0.73358935
0.73101525
0.7284081
0.72569534
0.72288288
0.71997285
0.71696673
0.71386723
0.71067799
0.7074036
0.70404975
0.70062317
0.69713177
0.69358462
0.68999188
0.68636484
0.68271578
0.67905786
0.67540498
0.67177159
0.66817245
0.66462241
0.66113613
0.65772788
0.65441123
0.65119883
0.64810226
0.6451318
0.64229635
0.63960335
0.63705874
0.63466702
0.63243129
0.63035336
0.6284339
0.62667254
0.62506807
0.62361851
0.62232121
0.62117284
0.62016941
0.61930605
0.61857679
0.61797423
0.61748899
0.61710912
0.61681923
0.61659939
0.61642383
0.61626029
0.61606869
0.61579947
0.6154087
0.61486509
0.61402925
0.61288798
0.61136716
0.60939821
0.60692668
0.60391186
0.60031467
0.59609403
0.59119859
0.5855812
0.57935011
0.57304614
0.56788006
0.56572023
0.56815828
0.57349984
0.57296302
0.66289287
0.78664995
0.7309995
0.75880662
0.73983586
0.7456861
0.73902868
0.73836691
0.73510141
0.73257848
0.72974389
0.72683706
0.72382136
0.72069903
0.71747293
0.71414629
0.71072348
0.70721011
0.70361309
0.69994061
0.69620225
0.6924089
0.68857279
0.68470736
0.68082715
0.67694763
0.67308498
0.66925585
0.66547709
0.66176541
0.65813713
0.65460781
0.65119203
0.64790302
0.64475254
0.64175063
0.63890556
0.63622372
0.63370968
0.63136624
0.62919458
0.62719439
0.62536408
0.62370095
0.62220142
0.6208612
0.61967536
0.61863846
0.61774453
0.61698696
0.61635831
0.61585008
0.61545224
0.61515275
0.61493694
0.6147867
0.6146795
0.61458756
0.61447703
0.61430631
0.61403154
0.61363608
0.6130022
0.61208515
0.61085979
0.60925062
0.60720513
0.6046748
0.60161882
0.59800525
0.5938028
0.58896842
0.58347742
0.57747596
0.57152112
0.56677112
0.56501595
0.56787844
0.57315757
0.57288431
0.66446847
0.78750566
0.73133514
0.7582832
0.73942099
0.74482296
0.73819305
0.7368955
0.73346707
0.73056227
0.72740957
0.72415725
0.72078866
0.7173069
0.71371603
0.71002169
0.70623075
0.7023517
0.69839466
0.69437132
0.69029501
0.68618055
0.68204414
0.67790317
0.67377597
0.66968154
0.6656392
0.66166824
0.65778756
0.65401525
0.65036825
0.64686199
0.6435101
0.64032416
0.63731355
0.63448535
0.63184435
0.62939315
0.62713228
0.62506041
0.6231746
0.62147055
0.61994286
0.61858528
0.61739095
0.61635252
0.61546231
0.61471232
0.61409418
0.61359901
0.61321717
0.61293797
0.61274922
0.61263667
0.61258345
0.61256932
0.61257
0.61255684
0.61249617
0.61235211
0.6120913
0.61163525
0.61093225
0.60996547
0.60866683
0.60699093
0.60488914
0.60231715
0.59924136
0.59563769
0.59148204
0.58674484
0.58142711
0.57569994
0.57011861
0.56578416
0.56442678
0.56762585
0.57277585
0.57284081
0.66551065
0.78751279
0.73092855
0.75665029
0.7382727
0.74281839
0.73630631
0.73439182
0.73073406
0.72740407
0.7238662
0.7202105
0.71643008
0.71253116
0.70852007
0.70440571
0.70019863
0.69591139
0.69155855
0.68715654
0.68272354
0.67827927
0.67384471
0.66944175
0.66509283
0.66082048
0.65664684
0.65259324
0.64867966
0.64492432
0.64134324
0.63794997
0.63475534
0.63176734
0.62899111
0.62642903
0.62408093
0.62194429
0.62001464
0.61828579
0.61675024
0.61539951
0.61422439
0.61321525
0.61236222
0.61165533
0.61108456
0.61063983
0.61031085
0.61008696
0.60995682
0.60990807
0.60992683
0.60999725
0.61010086
0.61021596
0.61031734
0.61037658
0.61036204
0.61023666
0.60995331
0.60945837
0.60872667
0.60770292
0.60634798
0.60461875
0.6024727
0.59987366
0.59679567
0.59322131
0.58913867
0.58453799
0.57944048
0.57402393
0.56881554
0.56492235
0.56391247
0.56732504
0.57232129
0.57280812
0.66595647
0.78659126
0.72963296
0.75445392
0.73630521
0.73980062
0.73331875
0.73072698
0.72674268
0.7229337
0.71893473
0.71480584
0.71054498
0.70616288
0.70166984
0.69707952
0.69240781
0.68767297
0.68289555
0.67809806
0.67330469
0.66854092
0.66383306
0.65920772
0.65469121
0.65030894
0.64608483
0.64204063
0.6381955
0.63456547
0.63116323
0.62799789
0.62507499
0.62239665
0.61996177
0.61776638
0.61580408
0.6140664
0.61254333
0.61122368
0.6100955
0.60914644
0.60836397
0.60773568
0.60724936
0.60689306
0.60665513
0.60652405
0.60648827
0.60653593
0.60665455
0.60683065
0.60704928
0.60729354
0.60754397
0.60777816
0.60797075
0.60809371
0.60811528
0.60799726
0.60769928
0.60718688
0.60641294
0.60534203
0.60393687
0.60216094
0.59997932
0.59736283
0.59429328
0.59076475
0.58678253
0.58235727
0.57752237
0.57244099
0.56760178
0.56408454
0.56338718
0.56682559
0.57163111
0.57271923
0.66577039
0.78462231
0.72733937
0.7509852
0.73321567
0.73557203
0.7290511
0.72572841
0.72130463
0.71694267
0.71239455
0.7077088
0.70288805
0.69794918
0.69290889
0.68778775
0.68260905
0.67739862
0.67218457
0.66699678
0.66186639
0.65682512
0.6519046
0.64713548
0.64254672
0.63816469
0.6340125
0.63010943
0.62647045
0.62310607
0.62002225
0.61722066
0.61469892
0.61245113
0.61046837
0.60873932
0.60725078
0.60598827
0.60493651
0.60407987
0.60340271
0.60288966
0.60252584
0.60229698
0.60218945
0.60219024
0.60228684
0.60246705
0.60271872
0.60302945
0.6033862
0.60377495
0.60418022
0.60458458
0.60496823
0.60530877
0.60558133
0.60575835
0.60580849
0.60569729
0.6053892
0.60484817
0.60403764
0.60292221
0.60147034
0.5996516
0.59743779
0.59480864
0.59175717
0.58829301
0.58444045
0.58022722
0.57568857
0.57095393
0.56645662
0.56321611
0.56275666
0.56600701
0.570502
0.57244312
0.66488739
0.78141878
0.72397493
0.74634013
0.72888267
0.72996935
0.7232938
0.71917133
0.71417595
0.70916271
0.70396209
0.69862279
0.69315505
0.68758423
0.68193627
0.6762411
0.67053155
0.66484289
0.6592123
0.65367797
0.64827831
0.64305075
0.63803075
0.63325066
0.62873873
0.6245183
0.62060725
0.61701772
0.61375607
0.61082316
0.60821483
0.6059225
0.60393394
0.60223405
0.6008056
0.59962994
0.59868769
0.59795923
0.59742516
0.59706667
0.59686571
0.59680524
0.59686922
0.59704268
0.59731164
0.59766293
0.59808401
0.59856272
0.59908697
0.59964438
0.60022192
0.60080554
0.6013797
0.60192697
0.60242774
0.60286026
0.60320059
0.60342172
0.60349319
0.60338372
0.60306238
0.60249556
0.60164953
0.60049252
0.59899617
0.59713611
0.59489356
0.59225967
0.5892419
0.58586759
0.5821778
0.57820976
0.57398944
0.569596
0.56538541
0.56234982
0.56195179
0.56482746
0.56892508
0.57188081
0.66324145
0.77672892
0.71956543
0.74023217
0.72309713
0.72275499
0.71576849
0.71074846
0.70502818
0.69924157
0.69327314
0.68717855
0.6809797
0.67471318
0.66841706
0.66213337
0.65590684
0.64978397
0.64381191
0.63803695
0.63250307
0.62725039
0.62231382
0.61772191
0.61349612
0.60965044
0.60619144
0.60311866
0.60042529
0.59809906
0.59612326
0.59447781
0.59314024
0.59208663
0.59129242
0.59073313
0.59038481
0.59022453
0.59023057
0.59038266
0.59066201
0.59105135
0.59153483
0.59209793
0.59272726
0.59341037
0.5941354
0.59489087
0.59566525
0.59644671
0.59722268
0.59797948
0.59870193
0.59937303
0.5999739
0.60048386
0.60087984
0.60113547
0.6012223
0.60111237
0.60077717
0.60018601
0.59930768
0.59811279
0.59657655
0.59468226
0.59242266
0.58980366
0.58684957
0.58360382
0.58011663
0.57642256
0.57252791
0.56845506
0.56446501
0.56155301
0.56098822
0.56325988
0.56697093
0.57104884
0.66077738
0.7701668
0.71410484
0.73242046
0.71553855
0.71358069
0.70608167
0.70003688
0.69342602
0.68673269
0.67988207
0.67294051
0.66594641
0.65895143
0.65200968
0.64517853
0.63851666
0.63208212
0.62593025
0.62011147
0.61466937
0.60963918
0.60504674
0.60090809
0.59722956
0.59400846
0.59123405
0.58888886
0.58695009
0.58539099
0.58418228
0.58329328
0.58269298
0.58235085
0.58223746
0.58232498
0.58258742
0.58300081
0.58354325
0.58419489
0.58493781
0.5857559
0.58663467
0.58756101
0.58852296
0.58950938
0.59050969
0.59151351
0.59251031
0.59348915
0.59443826
0.59534469
0.59619396
0.5969699
0.59765472
0.59822889
0.59867014
0.59895324
0.59905228
0.59894183
0.59859518
0.59798437
0.5970809
0.59585766
0.59429505
0.59238588
0.59013786
0.58757444
0.58473589
0.58167492
0.57843843
0.57504283
0.57146592
0.56768649
0.56388296
0.5609012
0.56003357
0.56149896
0.5648245
0.57012263
0.65737157
0.76104142
0.70688153
0.72244143
0.70574362
0.70195512
0.69371119
0.68650154
0.67883598
0.67110567
0.66327408
0.6554236
0.6476161
0.63992429
0.63242231
0.62518422
0.6182808
0.61177634
0.60572601
0.60017364
0.59515046
0.59067453
0.58675119
0.58337401
0.58052639
0.57818344
0.57631388
0.57488208
0.57384976
0.5731776
0.57282645
0.57275839
0.57293736
0.57332974
0.57390459
0.57463377
0.57549193
0.57645642
0.57750712
0.57862624
0.57979807
0.58100877
0.58224603
0.58349885
0.58475721
0.58601175
0.58725344
0.58847333
0.58966217
0.59081013
0.59190649
0.59293929
0.59389506
0.59475875
0.59551378
0.59614165
0.59662109
0.5969287
0.59704095
0.59693396
0.59658308
0.59596321
0.59504849
0.59381602
0.59225397
0.59036835
0.58818454
0.58574348
0.58309611
0.58029286
0.57736174
0.57428683
0.57101371
0.56749792
0.56385707
0.56074477
0.55949478
0.55998457
0.56294883
0.5693867
0.65272466
0.74925083
0.69745485
0.70970722
0.6931104
0.6872935
0.67803181
0.66949964
0.66062132
0.65174235
0.64287444
0.6341251
0.62558692
0.61735686
0.60952695
0.60218066
0.59538878
0.58920645
0.58367148
0.57880379
0.57460629
0.57106649
0.56815899
0.56584812
0.56409087
0.56283945
0.56204376
0.56165328
0.56161864
0.56189281
0.56243183
0.56319531
0.56414666
0.56525309
0.56648552
0.56781838
0.5692293
0.57069885
0.57221017
0.57374868
0.57530179
0.57685854
0.57840932
0.57994559
0.5814595
0.58294366
0.58439079
0.58579349
0.5871439
0.58843351
0.58965279
0.59079097
0.59183578
0.59277344
0.59358858
0.59426368
0.59477882
0.59511285
0.59524417
0.59515023
0.59480858
0.59419694
0.5932934
0.59208256
0.59056485
0.58876297
0.58672035
0.58449124
0.58212727
0.57966164
0.57708878
0.574353
0.57137065
0.56809229
0.56462301
0.56143698
0.55949449
0.55911732
0.56200266
0.56917232
0.64644869
0.73600634
0.68527537
0.69359401
0.67689056
0.66885028
0.65825093
0.64822053
0.63800942
0.62794897
0.61811286
0.60863945
0.59964903
0.59125238
0.5835418
0.57658757
0.57043563
0.56510723
0.56060049
0.55689324
0.55394673
0.55170975
0.55012266
0.5491211
0.54863913
0.54861173
0.54897664
0.54967564
0.55065534
0.55186755
0.55326933
0.55482289
0.55649524
0.55825788
0.56008631
0.5619596
0.56385997
0.56577235
0.56768399
0.56958413
0.57146362
0.57331467
0.57513048
0.57690501
0.57863264
0.58030794
0.58192541
0.58347922
0.58496298
0.58636954
0.58769068
0.58891696
0.59003738
0.59103944
0.59190896
0.59262956
0.59318295
0.59355023
0.59371147
0.5936456
0.5933324
0.59275279
0.59189152
0.59074526
0.58933151
0.58769122
0.58588253
0.58396387
0.5819736
0.57991239
0.5777311
0.57533671
0.57263096
0.56957288
0.56625474
0.563025
0.56060151
0.56000655
0.56256158
0.56980999
0.63820623
0.71860386
0.66946412
0.67320353
0.65601217
0.64554254
0.63331478
0.62168189
0.61017367
0.59911773
0.58864614
0.57891424
0.57004351
0.56212534
0.55521588
0.54933662
0.54447715
0.54059985
0.53764583
0.53554104
0.53420227
0.5335422
0.53347364
0.53391262
0.53478057
0.53600557
0.53752307
0.53927597
0.5412144
0.54329529
0.54548182
0.54774273
0.55005169
0.55238666
0.55472934
0.55706454
0.55937974
0.56166465
0.56391087
0.56611145
0.56826072
0.57035389
0.57238686
0.57435593
0.57625759
0.57808826
0.57984412
0.5815209
0.58311366
0.58461662
0.58602294
0.58732448
0.58851156
0.58957294
0.59049566
0.59126464
0.59186328
0.59227459
0.59248036
0.59246124
0.59219921
0.59168035
0.59089927
0.58986976
0.58862921
0.58723481
0.58575139
0.5842277
0.58267326
0.58104472
0.57924865
0.57716714
0.57470867
0.57186191
0.56872834
0.56558655
0.56306763
0.56231204
0.56479673
0.57138814
0.62731888
0.69604409
0.64858515
0.64709654
0.62897423
0.61595753
0.60203837
0.58897973
0.57656557
0.56509956
0.55472877
0.54557811
0.53771628
0.53116341
0.5258944
0.52184717
0.518932
0.51704105
0.51605707
0.51586066
0.5163358
0.51737367
0.518875
0.5207512
0.52292463
0.52532822
0.52790476
0.53060597
0.53339146
0.53622773
0.53908721
0.54194742
0.54479008
0.54760053
0.55036704
0.55308029
0.55573299
0.55831944
0.56083525
0.56327703
0.56564219
0.56792867
0.57013473
0.57225877
0.57429913
0.57625394
0.57812095
0.57989733
0.58157954
0.58316316
0.58464264
0.58601109
0.58726011
0.58837976
0.58935838
0.59018214
0.59083595
0.59130442
0.59157078
0.59161727
0.59142798
0.59100209
0.59034213
0.58948468
0.58848515
0.58741118
0.58632121
0.58523811
0.58412915
0.58290363
0.58143427
0.57959976
0.57733991
0.57469586
0.57181179
0.56895916
0.56670489
0.56608156
0.56822629
0.5733575
0.61258586
0.66617329
0.62069139
0.61348062
0.59415694
0.57871611
0.56355075
0.54979557
0.53742037
0.52664588
0.51754795
0.51014505
0.50438687
0.50017241
0.49736396
0.49580249
0.49532074
0.49575364
0.49694555
0.49875481
0.50105593
0.50374013
0.50671475
0.50990199
0.51323728
0.5166676
0.52014982
0.52364914
0.52713775
0.53059364
0.53399956
0.53734215
0.54061122
0.54379915
0.54690032
0.54991077
0.55282779
0.55564969
0.55837555
0.56100498
0.56353802
0.56597487
0.56831581
0.57056102
0.57271046
0.57476375
0.57672002
0.57857783
0.58033492
0.5819881
0.58353304
0.58496402
0.58627374
0.58745352
0.58849308
0.5893799
0.59009977
0.59063822
0.59097935
0.59110825
0.59101809
0.59070927
0.59020845
0.58957211
0.5888672
0.58816115
0.58749056
0.58683789
0.58612159
0.58521124
0.5839665
0.58228953
0.58017577
0.57773834
0.57518446
0.57278877
0.57098063
0.57048406
0.5719981
0.5751981
0.59206775
0.62662426
0.5835943
0.57056933
0.55060299
0.53316663
0.5179462
0.50496163
0.49418577
0.48566238
0.47929332
0.47491612
0.47231552
0.47125243
0.47148365
0.4727773
0.47492227
0.47773306
0.48105103
0.48474339
0.48870088
0.49283485
0.49707422
0.50136257
0.50565561
0.50991889
0.51412594
0.51825669
0.5222962
0.52623359
0.53006123
0.53377401
0.53736879
0.54084396
0.54419905
0.54743448
0.55055132
0.5535511
0.55643569
0.55920713
0.56186754
0.56441899
0.56686337
0.56920236
0.57143726
0.573569
0.57559795
0.57752386
0.57934564
0.58106121
0.58266735
0.58415942
0.58553109
0.58677447
0.58788064
0.58883846
0.58963342
0.59025131
0.59067712
0.59089977
0.5909181
0.59075092
0.59044711
0.59006568
0.58968451
0.58935528
0.58907948
0.5887909
0.58836339
0.58764474
0.58650794
0.58490389
0.58290033
0.58068639
0.57852031
0.57664707
0.57529407
0.57476834
0.575336
0.57660394
0.56309083
0.5748854
0.53602359
0.51705516
0.495967
0.48014702
0.46688567
0.45679235
0.44960105
0.44506429
0.44282948
0.44252576
0.44378787
0.44628221
0.44971773
0.45384974
0.45847806
0.46344237
0.46861646
0.47390237
0.47922498
0.4845274
0.48976707
0.49491265
0.49994149
0.50483768
0.50959046
0.51419307
0.51864174
0.52293503
0.5270732
0.53105777
0.5348912
0.53857656
0.54211736
0.54551739
0.54878058
0.55191094
0.55491244
0.55778901
0.56054436
0.56318203
0.56570523
0.56811682
0.57041929
0.57261463
0.57470429
0.57668907
0.57856888
0.58034261
0.58200801
0.58356147
0.58499727
0.58630803
0.58748605
0.58852021
0.58939569
0.59009815
0.59061359
0.59093679
0.59107804
0.59107037
0.59097285
0.59086078
0.59080038
0.5908167
0.59086708
0.59083846
0.59057412
0.58992351
0.58879765
0.5872131
0.58531248
0.58334538
0.5815838
0.58018745
0.57913882
0.57836432
0.5778641
0.57746946
0.5215232
0.50857829
0.47063876
0.45234711
0.43458324
0.42213067
0.41366297
0.40895504
0.40734252
0.40822789
0.41103112
0.41525511
0.42048914
0.42640798
0.43276083
0.43935855
0.44606097
0.45276585
0.45939977
0.46591099
0.47226387
0.47843472
0.48440863
0.49017708
0.49573627
0.50108576
0.50622753
0.51116528
0.5159039
0.52044906
0.5248069
0.52898385
0.53298642
0.53682107
0.54049416
0.5440119
0.54738028
0.55060509
0.55369186
0.55664587
0.5594721
0.56217517
0.56475935
0.5672285
0.56958606
0.57183496
0.57397756
0.5760155
0.57794957
0.57977947
0.58150366
0.58311909
0.58462101
0.58600288
0.58725596
0.58836864
0.58932655
0.59011366
0.59071873
0.59114331
0.59140939
0.59156438
0.59167806
0.59182509
0.59205394
0.59235379
0.59263796
0.59275698
0.59254279
0.59186819
0.59069814
0.58911831
0.587334
0.58562533
0.58423291
0.58318893
0.58223714
0.58103184
0.57950728
0.57789611
0.45826689
0.42509253
0.39489818
0.37974708
0.36871782
0.36383676
0.36328272
0.36611888
0.37133639
0.37816086
0.38599543
0.39440689
0.40308856
0.41182891
0.42048524
0.42896367
0.43720448
0.44517163
0.45284537
0.460217
0.46728534
0.47405415
0.48053042
0.4867232
0.49264271
0.49829981
0.5037056
0.50887117
0.5138074
0.51852486
0.52303372
0.52734369
0.531464
0.53540339
0.53917014
0.54277206
0.54621654
0.54951059
0.55266083
0.55567351
0.55855449
0.56130925
0.56394289
0.56646007
0.56886501
0.57116142
0.57335238
0.57544023
0.5774264
0.57931123
0.58109383
0.58277178
0.58434077
0.58579423
0.58712287
0.58831409
0.5893521
0.59022154
0.59091348
0.59143618
0.59182297
0.59213317
0.59244258
0.59281814
0.5932834
0.59379084
0.59421746
0.59439269
0.59415452
0.59341166
0.59218591
0.59062176
0.58896589
0.58749836
0.58639607
0.58555295
0.58452168
0.58280406
0.58041173
0.57806627
0.36073864
0.32677558
0.30888811
0.3043217
0.30574127
0.31213661
0.32150169
0.33254733
0.34438439
0.35645092
0.36840454
0.38004506
0.3912623
0.4020018
0.41224321
0.4219866
0.43124398
0.44003399
0.44837867
0.45630137
0.46382558
0.47097422
0.4777692
0.48423127
0.49037989
0.49623324
0.50180828
0.50712077
0.5121854
0.51701579
0.5216246
0.52602358
0.53022366
0.53423496
0.53806695
0.54172843
0.54522767
0.54857246
0.55177011
0.55482751
0.55775113
0.56054707
0.563221
0.5657782
0.56822351
0.57056124
0.57279507
0.57492785
0.57696143
0.57889659
0.58073295
0.58246884
0.58410067
0.58562192
0.58702206
0.58828678
0.58939986
0.59034573
0.59111887
0.59173101
0.5922255
0.59267011
0.59314227
0.59369795
0.59433658
0.59498008
0.59548086
0.59566176
0.59537497
0.59456491
0.59330055
0.59176727
0.59023055
0.58895142
0.58803785
0.58726752
0.58606669
0.58388022
0.58084548
0.57808828
0.21954385
0.21825214
0.22373178
0.23734805
0.25495249
0.27366801
0.29227225
0.31010279
0.32692593
0.34267551
0.35737619
0.37108854
0.38388686
0.39584716
0.40704195
0.41753806
0.42739594
0.43666982
0.44540811
0.45365397
0.46144586
0.46881817
0.47580165
0.48242389
0.48870973
0.49468162
0.50035985
0.50576291
0.51090761
0.51580932
0.52048213
0.52493894
0.52919161
0.53325107
0.53712742
0.54083007
0.54436777
0.54774874
0.55098069
0.55407089
0.55702619
0.55985306
0.56255757
0.5651454
0.56762184
0.5699917
0.57225913
0.57442746
0.57649894
0.57847467
0.58035479
0.58213856
0.58382361
0.5854038
0.58686619
0.58819224
0.58937687
0.59038675
0.59123063
0.59191766
0.59249703
0.59304067
0.59362638
0.59430472
0.59505974
0.59579337
0.59634478
0.59653174
0.59621453
0.59537056
0.59409315
0.59259269
0.59113924
0.58997518
0.58915512
0.5883825
0.58701515
0.58447913
0.58102857
0.57806129
0.093197306
0.12353418
0.16151428
0.19567311
0.22629115
0.25326478
0.27722374
0.29863767
0.31792758
0.33542312
0.3513902
0.36604183
0.37955092
0.39205903
0.40368326
0.4145214
0.42465585
0.43415661
0.44308362
0.45148857
0.45941634
0.46690613
0.47399241
0.48070563
0.48707283
0.49311819
0.49886337
0.50432793
0.50952955
0.51448429
0.51920676
0.52371032
0.52800719
0.5321086
0.53602488
0.53976565
0.54333984
0.54675583
0.5500215
0.55314429
0.55613123
0.55898897
0.56172384
0.5643418
0.56684847
0.56924907
0.57154827
0.57374994
0.57585691
0.57787085
0.57979249
0.5816217
0.58335647
0.58499066
0.58651183
0.5879013
0.58914319
0.59020675
0.59110007
0.59184291
0.59247641
0.59307685
0.59372773
0.59448152
0.59531185
0.5961263
0.59677043
0.59696139
0.59670216
0.59585837
0.5945817
0.59308485
0.5916641
0.59056734
0.58978289
0.58898154
0.58752733
0.58479325
0.58111771
0.57804313
0.012194018
0.29780607
0.47323618
0.52066152
0.52997555
0.53036274
0.53008137
0.53121726
0.53273877
0.53423214
0.53573336
0.53719885
0.53864194
0.54007074
0.54149719
0.54293094
0.54437313
0.54582356
0.5472817
0.54874636
0.55021577
0.55168783
0.55316018
0.55463039
0.55609602
0.55755472
0.55900425
0.56044256
0.5618678
0.56327829
0.56467249
0.56604897
0.56740637
0.56874331
0.57005836
0.57135003
0.57261672
0.57385679
0.57506852
0.57625016
0.57739994
0.57851613
0.57959706
0.58064115
0.58164695
0.58261318
0.58353879
0.58442298
0.58526526
0.58606549
0.58682392
0.58754112
0.58821795
0.58885551
0.58945509
0.59001812
0.59054613
0.59104068
0.59150309
0.59193422
0.5923341
0.59270105
0.59303104
0.59331997
0.59356702
0.59378804
0.59402738
0.59438509
0.59503168
0.59616446
0.59796442
0.60040169
0.60326568
0.60579708
0.60727805
0.60590371
0.60125814
0.59156994
0.58129381
0.57439392
0.06241661
0.38579078
0.52339961
0.54799281
0.54845935
0.54661682
0.54583264
0.54599749
0.54620095
0.54651803
0.54693506
0.54751179
0.5482095
0.54900022
0.54985553
0.55077043
0.55173805
0.55275318
0.55381029
0.55490397
0.55602916
0.5571811
0.55835528
0.5595474
0.56075346
0.56196969
0.56319261
0.56441901
0.56564594
0.5668707
0.56809078
0.56930383
0.5705076
0.5716999
0.57287854
0.5740413
0.57518597
0.57631029
0.57741199
0.57848884
0.57953861
0.58055915
0.58154842
0.5825045
0.58342564
0.58431032
0.58515725
0.58596547
0.58673435
0.58746364
0.58815346
0.58880428
0.58941684
0.58999213
0.59053131
0.59103569
0.59150663
0.59194555
0.59235355
0.59273115
0.59307799
0.59339201
0.59366939
0.59390747
0.59410984
0.59430002
0.59453593
0.59493146
0.59566862
0.59693824
0.59888785
0.60142005
0.60425546
0.60661723
0.60769953
0.60585125
0.6006475
0.59068062
0.58054361
0.57412512
0.14791668
0.46741882
0.5430216
0.55530704
0.55354823
0.55262083
0.55268039
0.55323878
0.55366811
0.55421216
0.55475012
0.5553396
0.55595258
0.55660658
0.55729482
0.55802092
0.55878118
0.55957496
0.56040074
0.56125664
0.56214061
0.56305045
0.56398379
0.56493812
0.56591085
0.56689935
0.56790101
0.56891325
0.56993356
0.5709595
0.57198868
0.57301876
0.57404742
0.57507228
0.57609095
0.57710099
0.57809988
0.57908508
0.580054
0.58100408
0.58193276
0.58283759
0.58371618
0.58456631
0.58538594
0.58617329
0.58692684
0.58764542
0.58832821
0.58897481
0.58958515
0.59015954
0.59069854
0.59120297
0.59167381
0.59211217
0.59251921
0.59289614
0.59324378
0.59356231
0.59385103
0.59410772
0.59432928
0.5945153
0.59467491
0.59483997
0.5950826
0.59552881
0.59636665
0.59777433
0.5998599
0.6024548
0.60522033
0.60737091
0.60803672
0.60572562
0.59997526
0.58975536
0.57984423
0.57389274
0.22876108
0.51472081
0.55678085
0.56358742
0.56064333
0.56093204
0.56104396
0.56162352
0.56191518
0.56238081
0.56278623
0.56325633
0.56373723
0.56424778
0.56477719
0.56533216
0.56591029
0.56651262
0.56713913
0.56778957
0.56846341
0.56915988
0.56987798
0.57061646
0.5713739
0.57214873
0.57293925
0.57374371
0.57456027
0.57538707
0.57622217
0.57706359
0.57790928
0.57875707
0.57960469
0.58044975
0.58128976
0.58212212
0.58294418
0.58375324
0.58454659
0.58532158
0.58607564
0.58680634
0.58751143
0.58818891
0.58883709
0.58945463
0.59004054
0.59059423
0.59111549
0.59160442