/*--------------------------------*- C++ -*----------------------------------*\
  =========                 |
  \\      /  F ield         | OpenFOAM: The Open Source CFD Toolbox
   \\    /   O peration     | Website:  https://openfoam.org
    \\  /    A nd           | Version:  12
     \\/     M anipulation  |
\*---------------------------------------------------------------------------*/
FoamFile
{
    format      ascii;
    class       volScalarField;
    location    "0.019";
    object      p;
}
// * * * * * * * * * * * * * * * * * * * * * * * * * * * * * * * * * * * * * //

dimensions      [1 -1 -2 0 0 0 0];

internalField   nonuniform List<scalar> 
16000
(
88936.785
89064.008
89075.816
89212.438
89237.908
89367.635
89417.623
89536.402
89610.149
89722.795
89815.23
89927.357
90034.133
90150.29
90268.173
90391.507
90518.83
90650.757
90787.15
90928.087
91073.569
91223.591
91378.126
91537.123
91700.507
91868.174
92039.994
92215.803
92395.408
92578.582
92765.066
92954.567
93146.764
93341.304
93537.808
93735.872
93935.071
94134.96
94335.08
94534.96
94734.12
94932.076
95128.336
95322.41
95513.801
95702.007
95886.52
96066.815
96242.357
96412.592
96576.953
96734.867
96885.763
97029.103
97164.415
97291.353
97409.764
97519.798
97622.056
97717.752
97808.856
97898.164
97989.307
98086.672
98195.26
98320.421
98467.431
98640.923
98844.912
99081.681
99352.328
99655.812
99987.161
100335.86
100688.21
101001.46
101198.95
101534.38
100930.03
101826.5
88514.829
88659.145
88668.473
88817.33
88844.292
88985.407
89037.609
89168.046
89245.617
89368.658
89467.612
89588.906
89704.206
89829.451
89956.846
90089.929
90227.444
90369.883
90517.162
90669.33
90826.379
90988.285
91154.993
91326.425
91502.466
91682.974
91867.769
92056.636
92249.325
92445.547
92644.979
92847.259
93051.993
93258.754
93467.084
93676.501
93886.498
94096.553
94306.128
94514.679
94721.659
94926.519
95128.715
95327.709
95522.969
95713.972
95900.194
96081.117
96256.223
96425
96586.944
96741.575
96888.456
97027.22
97157.606
97279.522
97393.12
97498.903
97597.86
97691.599
97782.438
97873.44
97968.373
98071.616
98187.954
98322.272
98479.409
98663.289
98877.894
99125.119
99405.513
99717.247
100054.77
100407.81
100757.66
101054.09
101272.72
101516.11
100988.05
101807.25
88126.277
88286.534
88295.208
88457.932
88484.688
88639.857
88693.629
88836.698
88919.097
89052.897
89159.694
89290.752
89415.786
89551.078
89689.137
89833.136
89982.047
90136.24
90295.651
90460.294
90630.133
90805.109
90985.132
91170.078
91359.787
91554.063
91752.671
91955.335
92161.737
92371.518
92584.279
92799.579
93016.942
93235.854
93455.774
93676.133
93896.341
94115.795
94333.882
94549.99
94763.509
94973.839
95180.395
95382.609
95579.931
95771.831
95957.796
96137.331
96309.964
96475.246
96632.765
96782.166
96923.167
97055.598
97179.439
97294.881
97402.402
97502.873
97597.674
97688.786
97778.837
97871.08
97969.327
98077.842
98201.067
98343.479
98509.539
98702.87
98926.597
99182.331
99470.943
99789.667
100131.7
100486.51
100830.25
101115.89
101339.69
101510.28
101048.88
101795.09
87775.005
87946.374
87955.5
88134.055
88160.316
88331.857
88387.594
88545.21
88633.292
88779.325
88895.394
89037.522
89173.913
89320.731
89471.024
89627.489
89789.316
89956.749
90129.724
90308.215
90492.153
90681.442
90875.948
91075.499
91279.881
91488.839
91702.068
91919.219
92139.893
92363.646
92589.987
92818.381
93048.257
93279.006
93509.99
93740.552
93970.017
94197.705
94422.936
94645.04
94863.36
95077.265
95286.15
95489.441
95686.599
95877.114
96060.512
96236.353
96404.236
96563.806
96714.771
96856.921
96990.154
97114.516
97230.241
97337.811
97438.037
97532.152
97621.903
97709.606
97798.143
97890.918
97991.733
98104.644
98233.703
98383.425
98557.103
98758.957
98990.942
99254.581
99550.149
99874.426
100219.95
100574.18
100909.79
101184.74
101395.81
101512.48
101109.93
101790.49
87461.804
87648.234
87654.375
87852.024
87877.063
88067.713
88125.754
88299.9
88395
88554.773
88682.062
88836.657
88986.182
89146.027
89310.045
89480.396
89656.487
89838.462
90026.26
90219.822
90419.05
90623.802
90833.893
91049.09
91269.109
91493.611
91722.203
91954.438
92189.815
92427.78
92667.734
92909.03
93150.986
93392.889
93634.003
93873.58
94110.866
94345.115
94575.597
94801.605
95022.463
95237.537
95446.237
95648.017
95842.382
96028.885
96207.125
96376.751
96537.47
96689.051
96831.348
96964.321
97088.066
97202.855
97309.177
97407.807
97499.874
97586.942
97671.076
97754.861
97841.368
97934.058
98036.646
98152.949
98286.885
98442.328
98623.15
98831.677
99070.306
99340.644
99641.936
99970.29
100317.54
100668.58
100993.73
101255.19
101446.95
101519.04
101168.25
101796.16
87193.235
87397.593
87401.573
87620.827
87644.267
87856.218
87916.257
88108.973
88212.693
88387.532
88527.831
88695.811
88859.711
89033.625
89212.446
89397.826
89589.369
89787.145
89991.073
90201.051
90416.921
90638.471
90865.434
91097.482
91334.228
91575.219
91819.943
92067.826
92318.237
92570.491
92823.856
93077.561
93330.804
93582.76
93832.599
94079.491
94322.619
94561.194
94794.459
95021.706
95242.278
95455.577
95661.069
95858.284
96046.814
96226.315
96396.503
96557.157
96708.123
96849.329
96980.799
97102.685
97215.29
97319.116
97414.907
97503.711
97586.946
97666.46
97744.569
97824.046
97908.041
97999.995
98103.594
98222.444
98360.47
98520.593
98706.071
98919.978
99164.197
99439.792
99745.524
100076.66
100423.51
100768.46
101079.98
101325.25
101496.85
101525.93
101224.94
101811.18
86973.531
87199.243
87200.018
87444.437
87466.177
87702.453
87766.14
87979.532
88092.311
88281.615
88435.734
88617.459
88796.822
88986.075
89181.183
89383.283
89592.075
89807.525
90029.486
90257.765
90492.105
90732.187
90977.625
91227.961
91482.668
91741.15
92002.74
92266.711
92532.275
92798.595
93064.793
93329.96
93593.175
93853.509
94110.049
94361.905
94608.227
94848.216
95081.134
95306.314
95523.166
95731.181
95929.933
96119.075
96298.339
96467.53
96626.522
96775.261
96913.769
97042.156
97160.64
97269.574
97369.478
97461.081
97545.366
97623.631
97697.54
97769.163
97840.99
97915.869
97996.93
98087.741
98191.93
98312.803
98453.02
98616.169
98805.543
99023.399
99271.682
99550.912
99859.513
100191.6
100535.58
100871.12
101165.75
101392.25
101541.04
101532.76
101281.81
101834.19
86796.551
87047.52
87043.802
87319.185
87338.392
87604.069
87670.316
87903.06
88026.921
88231.978
88402.959
88600.849
88798.5
89005.934
89220.112
89441.715
89670.465
89906.217
90148.725
90397.681
90652.704
90913.332
91179.026
91449.165
91723.049
91999.898
92278.866
92559.039
92839.452
93119.1
93396.95
93671.963
93943.106
94209.368
94469.783
94723.442
94969.504
95207.214
95435.907
95655.019
95864.088
96062.753
96250.753
96427.922
96594.178
96749.519
96894.015
97027.81
97151.125
97264.274
97367.678
97461.897
97547.661
97625.915
97697.863
97765.013
97829.223
97892.724
97958.084
98028.14
98106.138
98195.629
98299.424
98420.921
98562.771
98728.533
98920.169
99140.488
99391.249
99672.62
99982.157
100312.79
100650.84
100973.07
101247.82
101454.22
101580.17
101539.68
101339.51
101863.43
86658.131
86938.02
86929.596
87243.791
87257.403
87551.899
87622.286
87877.669
88018.721
88242.983
88435.279
88652.81
88872.233
89101.27
89337.764
89582.042
89833.801
90092.773
90358.585
90630.781
90908.81
91192.03
91479.703
91770.998
92065
92360.71
92657.062
92952.937
93247.175
93538.601
93826.036
94108.326
94384.359
94653.086
94913.54
95164.848
95406.25
95637.105
95856.896
96065.234
96261.855
96446.613
96619.473
96780.496
96929.831
97067.701
97194.401
97310.289
97415.798
97511.448
97597.861
97675.796
97746.18
97810.15
97869.094
97924.689
97978.935
98034.149
98092.906
98158.127
98233.222
98320.307
98422.624
98544.921
98688.364
98855.146
99048.238
99269.749
99521.368
99803.171
100111.61
100437.75
100765.78
101070.39
101322.31
101507.19
101610.08
101543.24
101396.56
101896.94
86562.835
86876.554
86865.117
87216.73
87227.821
87554.942
87637.992
87919.539
88081.309
88326.705
88543.984
88784.353
89028.83
89282.928
89545.125
89815.435
90093.452
90378.737
90670.73
90968.769
91272.077
91579.767
91890.846
92204.218
92518.703
92833.046
93145.937
93456.035
93761.99
94062.47
94356.183
94641.905
94918.507
95184.968
95440.401
95684.064
95915.366
96133.874
96339.307
96531.537
96710.57
96876.536
97029.675
97170.315
97298.861
97415.779
97521.592
97616.874
97702.262
97778.468
97846.302
97906.698
97960.751
98009.757
98055.244
98099.012
98143.143
98189.986
98242.149
98302.473
98373.98
98458.216
98562.486
98683.167
98826.499
98994.181
99187.896
99409.665
99661.052
99941.449
100245.97
100564.01
100877.48
101159.91
101386.15
101548.86
101628.02
101538.77
101450.03
101933.06
86516.279
86870.478
86855.221
87248.181
87262.758
87627.96
87726.041
88035.302
88223.153
88492.331
88738.846
89006.106
89279.534
89562.714
89854.49
90154.583
90462.404
90777.278
91098.387
91424.785
91755.39
92088.997
92424.289
92759.851
93094.196
93425.784
93753.056
94074.459
94388.482
94693.684
94988.728
95272.408
95543.672
95801.647
96045.645
96275.17
96489.92
96689.776
96874.792
97045.173
97201.259
97343.502
97472.443
97588.69
97692.906
97785.79
97868.075
97940.53
98003.969
98059.271
98107.397
98149.426
98186.581
98220.273
98252.132
98284.029
98318.089
98356.685
98402.436
98457.541
98525.506
98610.4
98709.923
98831.647
98975.647
99143.608
99337.613
99559.312
99809.542
100086.66
100384.39
100690.39
100984.43
101240.33
101438.8
101580.55
101633.5
101526.39
101496.19
101970.76
86525.892
86928.171
86908.696
87351.037
87371.004
87776.819
87894.823
88233.937
88454.383
88751.082
89031.617
89330.652
89637.578
89954.419
90280.138
90614.135
90955.535
91303.331
91656.341
92013.233
92372.528
92732.623
93091.814
93448.323
93800.333
94146.024
94483.608
94811.375
95127.727
95431.223
95720.605
95994.829
96253.084
96494.797
96719.634
96927.491
97118.477
97292.89
97451.189
97593.972
97721.941
97835.878
97936.62
98025.035
98102.013
98168.45
98225.25
98273.333
98313.65
98347.202
98375.061
98398.408
98418.554
98436.985
98455.386
98475.672
98499.98
98530.637
98570.265
98621.649
98685.762
98767.15
98867.696
98989.251
99133.334
99301.99
99496.526
99718.101
99966.576
100238.79
100526.96
100816.81
101086.96
101313.18
101484.09
101603.74
101632.66
101513.78
101536.95
102009.01
86594.249
87053.959
87030.986
87529.571
87558.405
88008.942
88154.89
88526.557
88787.021
89116.265
89436.217
89772.788
90118.548
90474.283
90838.821
91211.135
91589.922
91973.699
92360.798
92749.388
93137.504
93523.078
93903.977
94278.047
94643.158
94997.258
95338.424
95664.914
95975.21
96268.059
96542.493
96797.845
97033.748
97250.121
97447.149
97625.248
97785.033
97927.281
98052.894
98162.86
98258.227
98340.073
98409.484
98467.534
98515.279
98553.753
98583.975
98606.96
98623.741
98635.392
98643.052
98647.959
98651.476
98655.122
98660.606
98669.849
98684.974
98708.216
98741.858
98788.527
98851.119
98930.822
99030.957
99152.648
99297.985
99468.002
99663.796
99885.673
100132.01
100397.92
100673.69
100943.7
101186.85
101382.78
101527.84
101624.44
101635.29
101516.62
101589.22
102052.48
86726.874
87254.792
87228.83
87791.324
87835.478
88335.179
88519.049
88926.85
89235.561
89604.038
89969.778
90350.703
90741.553
91142.029
91550.541
91965.462
92384.887
92806.715
93228.664
93648.312
94063.136
94470.562
94868.029
95253.053
95623.295
95976.632
96311.219
96625.538
96918.434
97189.131
97437.232
97662.699
97865.824
98047.187
98207.608
98348.095
98469.802
98573.975
98661.921
98734.964
98794.429
98841.608
98877.754
98904.065
98921.688
98931.721
98935.228
98933.26
98926.877
98917.177
98905.324
98892.572
98880.3
98870.032
98863.468
98862.498
98869.192
98885.76
98914.471
98957.585
99017.512
99096.687
99196.766
99319.801
99467
99639.441
99837.538
100060.28
100304.24
100562.29
100822.89
101070.17
101285.19
101452.97
101575.58
101655.65
101653.48
101551.15
101674.9
102115.61
86931.87
87541.358
87514.465
88149.968
88216.859
88769.727
89003.123
89452.339
89818.561
90235.106
90654.422
91087.578
91530.403
91981.521
92438.657
92899.411
93361.116
93820.915
94275.799
94722.668
95158.409
95579.979
95984.504
96369.373
96732.322
97071.505
97385.543
97673.54
97935.082
98170.212
98379.381
98563.395
98723.349
98860.559
98976.5
99072.748
99150.924
99212.661
99259.562
99293.18
99314.997
99326.416
99328.751
99323.231
99311.007
99293.169
99270.762
99244.814
99216.366
99186.494
99156.348
99127.168
99100.316
99077.294
99059.771
99049.584
99048.723
99059.3
99083.554
99123.773
99182.132
99260.792
99361.736
99486.539
99636.498
99812.228
100013.22
100236.9
100477.55
100725.61
100968.27
101190.79
101378.38
101522.58
101630.04
101702.85
101696.38
101625.22
101799.81
102204.72
87215.797
87922.738
87898.092
88616.181
88717.67
89329.439
89627.587
90127.101
90561.776
91037.223
91518.894
92012.32
92513.533
93020.038
93528.655
94036.014
94538.493
95032.318
95513.656
95978.734
96423.973
96846.124
97242.389
97610.511
97948.842
98256.363
98532.678
98777.966
98992.921
99178.668
99336.676
99468.666
99576.534
99662.27
99727.894
99775.409
99806.76
99823.801
99828.284
99821.841
99805.985
99782.105
99751.475
99715.265
99674.556
99630.361
99583.653
99535.393
99486.56
99438.179
99391.351
99347.276
99307.273
99272.801
99245.476
99227.081
99219.545
99224.913
99245.321
99282.972
99340.034
99418.58
99520.492
99647.352
99800.187
99979.05
100182.24
100405.21
100639.76
100874.34
101095.84
101292.09
101454.09
101580.63
101681.71
101753.24
101760.45
101736.34
101951.12
102304.81
87585.577
88409.291
88392.601
89208.425
89362.367
90043.443
90424.211
90985.565
91499.909
92045.318
92597.628
93158.122
93722.291
94286.302
94845.715
95395.881
95932.004
96449.332
96943.344
97409.945
97845.636
98247.647
98614.014
98943.606
99236.102
99491.914
99712.098
99898.234
100052.3
100176.57
100273.47
100345.52
100395.24
100425.09
100437.42
100434.44
100418.21
100390.62
100353.4
100308.12
100256.2
100198.9
100137.38
100072.66
100005.71
99937.409
99868.622
99800.209
99733.06
99668.124
99606.431
99549.119
99497.445
99452.807
99416.763
99391.031
99377.475
99378.063
99394.859
99430.005
99485.617
99563.733
99666.15
99794.308
99948.822
100128.83
100330.98
100548.51
100771.19
100986.48
101182.5
101351.13
101489.88
101603.92
101703.95
101784.4
101825.26
101854.86
102095.28
102370.57
88060.431
89027.938
89031.489
89965.532
90190.677
90952.271
91433.828
92069.021
92673.243
93298.899
93928.854
94560.843
95188.907
95807.325
96409.962
96990.722
97543.79
98063.93
98546.72
98988.739
99387.662
99742.28
100052.45
100318.95
100543.41
100728.03
100875.5
100988.82
101071.13
101125.61
101155.4
101163.51
101152.76
101125.79
101085.02
101032.61
100970.54
100900.57
100824.24
100742.95
100657.9
100570.19
100480.76
100390.48
100300.13
100210.44
100122.15
100036.01
99952.779
99873.325
99798.593
99729.638
99667.645
99613.939
99570.004
99537.489
99518.186
99513.986
99526.89
99558.97
99612.287
99688.805
99790.188
99917.488
100070.53
100246.96
100441.37
100644.96
100846.35
101033.82
101198.75
101338.49
101456.55
101562
101666.81
101767.23
101837.25
101928.06
102161.76
102333.85
88676.349
89826.718
89860.924
90931.967
91247.702
92098.801
92700.822
93424.171
94128.419
94843.404
95554.941
96257.07
96941.486
97600.267
98225.784
98811.228
99350.95
99840.699
100277.75
100660.89
100990.31
101267.43
101494.66
101675.14
101812.53
101910.79
101973.99
102006.14
102011.16
101992.7
101954.17
101898.67
101829.01
101747.69
101656.91
101558.63
101454.55
101346.15
101234.72
101121.36
101007.06
100892.65
100778.87
100666.36
100555.74
100447.59
100342.49
100241.05
100143.93
100051.89
99965.766
99886.537
99815.3
99753.297
99701.923
99662.744
99637.465
99627.898
99635.994
99663.736
99713.097
99785.89
99883.443
100006.05
100152.11
100317.22
100493.76
100671.53
100839.49
100988.87
101116.48
101226.11
101326.15
101426.03
101533.42
101647.3
101760.93
101910.01
102068.56
102115.5
89463.589
90833.865
90912.663
92144.954
92584.751
93537.486
94282.489
95111.442
95923.618
96730.341
97516.693
98272.947
98988.711
99655.015
100264.53
100811.97
101294.16
101710.05
102060.45
102347.74
102575.54
102748.32
102871.07
102949.05
102987.51
102991.55
102965.99
102915.29
102843.5
102754.28
102650.84
102536.02
102412.29
102281.78
102146.33
102007.5
101866.64
101724.87
101583.16
101442.34
101303.09
101166
101031.59
100900.3
100772.56
100648.8
100529.44
100414.97
100305.93
100202.96
100106.79
100018.32
99938.537
99868.593
99809.777
99763.564
99731.564
99715.496
99717.25
99738.723
99781.752
99847.84
99937.601
100050.02
100181.46
100325.14
100471.58
100610.32
100732.64
100834.79
100920.26
100998.94
101082.19
101177.42
101287.42
101411.78
101547.36
101684.48
101746.66
101660.19
90452.932
92097.812
92260.735
93669.71
94282.52
95353.673
96259.598
97205.184
98119.368
98999.84
99829.971
100598.18
101294.73
101913
102449.4
102903.29
103276.54
103573.09
103798.32
103958.59
104060.77
104111.82
104118.55
104087.4
104024.33
103934.7
103823.34
103694.45
103551.73
103398.34
103237
103070
102899.3
102726.51
102553
102379.9
102208.15
102038.53
101871.67
101708.1
101548.23
101392.43
101240.98
101094.16
100952.23
100815.44
100684.1
100558.55
100439.23
100326.63
100221.4
100124.32
100036.28
99958.322
99891.621
99837.561
99797.662
99773.551
99767.03
99779.911
99813.831
99869.705
99946.899
100042.54
100150.51
100261.92
100366.42
100455.04
100523.41
100574.32
100617.9
100668.21
100736.49
100825.69
100932.05
101049.64
101163.38
101232.5
101179.68
100981.15
91730.564
93722.992
94017.142
95624.032
96459.17
97657.735
98719.049
99764.956
100742.29
101641.86
102449.27
103156.32
103759.06
104257.73
104656.02
104960.25
105178.49
105319.82
105393.68
105409.35
105375.66
105300.7
105191.8
105055.4
104897.14
104721.86
104533.69
104336.12
104132.08
103923.99
103713.87
103503.37
103293.83
103086.36
102881.82
102680.93
102484.24
102292.18
102105.1
101923.24
101746.8
101575.91
101410.69
101251.23
101097.64
100950.04
100808.6
100673.54
100545.17
100423.88
100310.19
100204.76
100108.38
100021.98
99946.64
99883.641
99834.437
99800.611
99783.88
99785.937
99808.1
99850.027
99909.666
99981.807
100057.94
100127.85
100182.02
100215.09
100228.78
100232.69
100241.97
100271.61
100329.13
100410.23
100502.18
100589.67
100646.31
100620.67
100467.41
100238.21
93433.829
95855.346
96338.276
98140.784
99233.86
100543.96
101705.39
102781.86
103734.2
104555.73
105241.89
105794.73
106220.9
106530.5
106735.67
106849.46
106884.9
106854.42
106769.44
106640.15
106475.47
106283.08
106069.49
105840.18
105599.68
105351.76
105099.48
104845.36
104591.4
104339.23
104090.12
103845.09
103604.91
103370.18
103141.35
102918.74
102702.58
102493.02
102290.14
102093.96
101904.47
101721.64
101545.41
101375.74
101212.59
101055.96
100905.9
100762.5
100625.96
100496.55
100374.69
100260.89
100155.84
100060.39
99975.55
99902.496
99842.666
99797.663
99769.177
99758.66
99766.487
99791.317
99829.192
99872.24
99910.381
99933.543
99935.039
99915.058
99882.18
99851.689
99840.719
99861.415
99914.254
99985.375
100051.82
100090.63
100076.48
99970.962
99762.48
99570.512
95758.859
98659.212
99394.712
101341.04
102651.7
104010.84
105151.01
106125.38
106920.23
107541.21
107999.52
108311.33
108495.05
108569.64
108553.32
108462.79
108312.85
108116.27
107883.85
107624.61
107345.97
107053.95
106753.46
106448.41
106141.93
105836.49
105534.01
105236.01
104943.63
104657.74
104378.96
104107.74
103844.39
103589.09
103341.92
103102.93
102872.05
102649.22
102434.3
102227.13
102027.54
101835.35
101650.38
101472.44
101301.4
101137.13
100979.56
100828.68
100684.56
100547.37
100417.42
100295.11
100181.04
100075.95
99980.836
99896.885
99825.481
99768.346
99727.073
99702.8
99695.151
99701.158
99714.048
99724.402
99721.912
99698.313
99651.689
99588.834
99524.53
99477.213
99462.396
99485.903
99538.913
99597.637
99631.063
99614.718
99537.445
99394.372
99201.975
99075.804
98964.524
102250.68
103298.82
105315.52
106666.96
107873.21
108820.77
109534.52
110032.63
110342.43
110492.65
110511.61
110425.19
110256.05
110023.42
109743.2
109428.35
109089.24
108734.11
108369.46
108000.33
107630.66
107263.45
106900.99
106545.02
106196.8
105857.27
105527.06
105206.6
104896.13
104595.78
104305.55
104025.37
103755.11
103494.6
103243.62
103001.93
102769.27
102545.36
102329.89
102122.57
101923.09
101731.16
101546.5
101368.86
101198.02
101033.79
100876.06
100724.8
100580.08
100442.1
100311.21
100187.92
100072.82
99966.892
99871.727
99788.448
99719.019
99665.067
99627.096
99603.414
99589.122
99575.848
99553.209
99511.608
99446.543
99362.011
99271.203
99193.196
99146.443
99141.583
99175.928
99230.998
99275.034
99273.986
99210.167
99094.993
98959.258
98838.028
98797.125
103304.98
106811.51
108067.56
109811.56
110974.37
111832.17
112384.27
112686.68
112785.33
112724.56
112541.93
112268.63
111929.65
111544.65
111128.84
110693.87
110248.57
109799.56
109351.8
108908.94
108473.64
108047.82
107632.83
107229.57
106838.62
106460.32
106094.8
105742.04
105401.94
105074.29
104758.82
104455.23
104163.18
103882.33
103612.29
103352.7
103103.16
102863.28
102632.66
102410.89
102197.58
101992.33
101794.76
101604.5
101421.2
101244.56
101074.3
100910.21
100752.16
100600.13
100454.25
100314.78
100182.2
100057.2
99940.773
99834.276
99739.498
99658.409
99592.396
99541.224
99501.888
99467.833
99429.373
99376.015
99300.471
99202.925
99093.36
98990.033
98913.775
98880.224
98893.147
98940.981
98997.211
99025.898
98995.755
98902.16
98780.965
98689.43
98662.325
98702.513
108707.2
112174.72
113331.52
114493.91
115125.92
115419.74
115441.9
115267.83
114953.23
114541.77
114065.95
113549.72
113010.45
112460.66
111909.26
111362.54
110824.89
110299.3
109787.77
109291.59
108811.5
108347.87
107900.81
107470.21
107055.83
106657.35
106274.35
105906.37
105552.93
105213.53
104887.65
104574.78
104274.39
103986
103709.09
103443.18
103187.78
102942.41
102706.57
102479.8
102261.61
102051.54
101849.13
101653.96
101465.59
101283.65
101107.77
100937.67
100773.16
100614.13
100460.65
100312.94
100171.45
100036.92
99910.4
99793.443
99688.052
99596.27
99519.266
99456.035
99402.313
99350.198
99289.336
99210.121
99108.237
98988.572
98866.141
98762.391
98697.647
98683.04
98715.129
98774.767
98830.187
98845.28
98795.833
98692.234
98590.318
98561.937
98630.04
98736.295
115123.34
117706.27
118338.71
118629.57
118533.72
118195.67
117697.2
117100.62
116447.75
115766.92
115076.94
114390.22
113714.78
113055.72
112416.17
111797.92
111201.86
110628.29
110077.1
109547.9
109040.17
108553.24
108086.42
107638.95
107210.07
106799.05
106405.12
106027.56
105665.66
105318.72
104986.08
104667.09
104361.14
104067.63
103785.98
103515.63
103256.02
103006.62
102766.87
102536.26
102314.26
102100.34
101894.01
101694.79
101502.18
101315.75
101135.08
100959.82
100789.73
100624.66
100464.62
100309.77
100160.54
100017.71
99882.496
99756.594
99642.006
99540.882
99454.382
99380.854
99315.076
99248.244
99169.937
99071.811
98952.282
98819.98
98693.415
98595.47
98544.851
98548.261
98596.252
98664.266
98718.096
98724.007
98666.042
98567.616
98497.671
98532.722
98679.823
98833.415
121945.56
122399.09
122176.39
121612.49
120860.55
120012.9
119127.27
118236.31
117359.13
116506.26
115683.31
114892.9
114135.91
113412.14
112720.81
112060.79
111430.76
110829.36
110255.19
109706.91
109183.19
108682.8
108204.54
107747.3
107310.01
106891.69
106491.38
106108.21
105741.33
105389.94
105053.29
104730.66
104421.36
104124.76
103840.22
103567.14
103304.94
103053.02
102810.83
102577.8
102353.37
102137.01
101928.16
101726.31
101530.95
101341.57
101157.73
100979.03
100805.17
100635.96
100471.33
100311.37
100156.41
100007.24
99865.397
99732.801
99610.749
99501.989
99407.997
99326.637
99252.499
99176.317
99087.449
98978.118
98848.572
98709.903
98582.349
98489.451
98448.838
98463.961
98522.251
98596.017
98649.917
98652.384
98593.971
98506.628
98466.436
98550.598
98752.726
98936.8
125928.28
125286.17
124346.36
123264.99
122149.86
121046.13
119977.18
118952.58
117975.92
117047.48
116165.96
115329.28
114535.05
113780.76
113063.99
112382.4
111733.81
111116.18
110527.64
109966.45
109431.01
108919.85
108431.63
107965.07
107519.03
107092.42
106684.24
106293.55
105919.45
105561.13
105217.8
104888.71
104573.18
104270.52
103980.12
103701.34
103433.59
103176.27
102928.81
102690.61
102461.12
102239.76
102025.97
101819.2
101618.91
101424.55
101235.64
101051.72
100872.46
100697.6
100527.04
100360.78
100199.1
100042.79
99893.317
99752.711
99622.799
99506.657
99406.113
99318.08
99238.145
99156.844
99062.068
98945.422
98808.59
98663.27
98529.258
98435.995
98398.334
98415.336
98479.058
98558.607
98615.387
98617.809
98561.88
98482.694
98458.315
98568.953
98800.904
99001.291
104004.51
103977.33
104028.29
104078.5
104115.29
104125.51
104108.33
104079.03
104043.83
103999.55
103941.82
103870.76
103790.11
103704.77
103615.73
103523.06
103427.09
103328.31
103227.17
103124.08
103019.41
102913.53
102806.78
102699.48
102591.93
102484.39
102377.13
102270.39
102164.38
102059.34
101955.46
101852.94
101751.97
101652.74
101555.43
101460.2
101367.25
101276.73
101188.82
101103.66
101021.42
100942.25
100866.28
100793.63
100724.43
100658.76
100596.71
100538.32
100483.62
100432.59
100385.18
100341.31
100300.87
100263.72
100229.72
100198.73
100170.6
100145.22
100122.51
100102.42
100084.93
100070
100057.49
100047.08
100038.17
100029.71
100020.28
100008.64
99993.893
99980.016
99968.886
99982.921
100010.39
100122.47
100207.68
100515.26
100539.58
101194.06
100590.62
101956.32
103363.31
103356.94
103371.35
103387.95
103386.85
103379.61
103368.66
103351.02
103321.63
103286.47
103244.33
103197.02
103143.85
103085.92
103023.3
102956.67
102886.28
102812.49
102735.62
102656
102573.95
102489.77
102403.75
102316.2
102227.4
102137.62
102047.15
101956.26
101865.19
101774.22
101683.59
101593.54
101504.32
101416.16
101329.28
101243.91
101160.27
101078.58
100999.02
100921.8
100847.11
100775.12
100706
100639.88
100576.91
100517.19
100460.8
100407.81
100358.24
100312.08
100269.28
100229.77
100193.45
100160.2
100129.89
100102.41
100077.62
100055.45
100035.83
100018.74
100004.14
99991.965
99982.044
99973.986
99967.093
99960.24
99951.994
99941.276
99927.689
99915.774
99908.662
99928.491
99965.553
100086.46
100182.76
100499.62
100539.82
101189.24
100601.92
101957.34
102946.1
102930.17
102900.29
102868.84
102838.47
102810.29
102777.33
102745.24
102709.5
102673.35
102633.3
102591.92
102547.08
102500.16
102450.3
102397.97
102343.02
102285.61
102225.79
102163.67
102099.39
102033.08
101964.9
101895.02
101823.63
101750.91
101677.08
101602.33
101526.89
101450.99
101374.86
101298.73
101222.83
101147.41
101072.71
100998.96
100926.41
100855.27
100785.78
100718.15
100652.59
100589.3
100528.45
100470.22
100414.75
100362.16
100312.54
100265.98
100222.49
100182.08
100144.7
100110.31
100078.8
100050.09
100024.08
100000.65
99979.739
99961.271
99945.214
99931.55
99920.245
99911.204
99904.21
99898.799
99894.184
99889.171
99882.345
99872.825
99860.733
99851.251
99848.62
99874.981
99921.963
100052.61
100163.78
100487.05
100540.2
101187.35
100613.18
101957.81
102336.73
102313.61
102284.51
102252.08
102220
102191.75
102158.92
102129.22
102095.34
102063.54
102028.3
101993.82
101956.7
101919.18
101879.68
101838.9
101796.41
101752.33
101706.57
101659.12
101609.98
101559.18
101506.76
101452.79
101397.35
101340.54
101282.48
101223.33
101163.23
101102.36
101040.91
100979.07
100917.05
100855.07
100793.36
100732.13
100671.63
100612.07
100553.69
100496.72
100441.35
100387.8
100336.26
100286.91
100239.89
100195.35
100153.39
100114.07
100077.44
100043.5
100012.23
99983.591
99957.508
99933.91
99912.719
99893.865
99877.297
99862.984
99850.917
99841.09
99833.464
99827.916
99824.171
99821.689
99819.596
99816.644
99811.478
99803.469
99793.29
99786.805
99789.273
99822.909
99880.249
100021.85
100148.36
100476.59
100541.2
101188.02
100624.04
101957.85
101592.57
101576.27
101561.25
101542.85
101522.48
101506.68
101484.73
101467.33
101444.44
101424.87
101400.88
101378.62
101353.32
101328.38
101301.52
101273.8
101244.54
101213.99
101182.01
101148.57
101113.67
101077.28
101039.43
101000.15
100959.47
100917.45
100874.18
100829.75
100784.27
100737.86
100690.68
100642.88
100594.63
100546.12
100497.55
100449.11
100401.02
100353.5
100306.75
100260.99
100216.43
100173.27
100131.7
100091.9
100054.02
100018.2
99984.53
99953.097
99923.94
99897.072
99872.483
99850.141
99830.001
99812.012
99796.123
99782.296
99770.515
99760.782
99753.114
99747.517
99743.947
99742.243
99742.067
99742.792
99743.459
99742.788
99739.528
99733.351
99725.527
99722.612
99730.81
99772.347
99840.495
99993.744
100134.19
100468.4
100543.21
101190.81
100634.85
101957.59
100864.81
100858.16
100854.83
100849.98
100840.97
100837.39
100826.26
100821.17
100809.17
100801.71
100788.69
100778.29
100764.18
100750.94
100735.66
100719.84
100702.51
100684.06
100664.35
100643.38
100621.14
100597.61
100572.8
100546.7
100519.35
100490.77
100461.01
100430.13
100398.19
100365.31
100331.57
100297.11
100262.06
100226.57
100190.81
100154.95
100119.18
100083.68
100048.64
100014.27
99980.761
99948.292
99917.045
99887.186
99858.86
99832.191
99807.276
99784.185
99762.959
99743.617
99726.157
99710.561
99696.8
99684.845
99674.674
99666.283
99659.691
99654.935
99652.057
99651.072
99651.923
99654.406
99658.109
99662.308
99665.961
99667.779
99666.662
99662.642
99657.644
99658.919
99673.516
99723.554
99802.676
99966.201
100120.77
100462.7
100546.77
101195.44
100645.8
101957.04
100208.83
100208.25
100210.06
100213.45
100211.5
100216.45
100212.51
100216.28
100211.76
100213.33
100208.74
100208.3
100203.43
100199.34
100193.02
100186.74
100179.21
100170.91
100161.63
100151.35
100140.04
100127.68
100114.25
100099.73
100084.14
100067.47
100049.76
100031.04
100011.36
99990.781
99969.381
99947.256
99924.51
99901.266
99877.655
99853.823
99829.924
99806.118
99782.573
99759.458
99736.942
99715.192
99694.363
99674.6
99656.029
99638.756
99622.863
99608.409
99595.431
99583.947
99573.958
99565.455
99558.427
99552.864
99548.774
99546.187
99545.157
99545.755
99548.044
99552.042
99557.671
99564.676
99572.556
99580.482
99587.332
99591.831
99593.081
99591.541
99589.853
99595.966
99617.668
99676.857
99766.794
99938.892
100107.42
100459.52
100552.11
101201.82
100657.07
101955.68
99618.638
99623.165
99627.923
99636.129
99637.523
99647.899
99647.904
99657.566