/*--------------------------------*- C++ -*----------------------------------*\
  =========                 |
  \\      /  F ield         | OpenFOAM: The Open Source CFD Toolbox
   \\    /   O peration     | Website:  https://openfoam.org
    \\  /    A nd           | Version:  12
     \\/     M anipulation  |
\*---------------------------------------------------------------------------*/
FoamFile
{
    format      ascii;
    class       surfaceScalarField;
    location    "0.019";
    object      phi;
}
// * * * * * * * * * * * * * * * * * * * * * * * * * * * * * * * * * * * * * //

dimensions      [1 0 -1 0 0 0 0];

internalField   nonuniform List<scalar> 
31760
(
-0.00060651004
-0.050797989
0.051401833
-0.0015634096
-0.06463048
0.065579832
-0.0025368425
-0.063138172
0.064104864
-0.0035465012
-0.06890932
0.069909717
-0.0046083138
-0.070545738
0.071597989
-0.0057009274
-0.074857242
0.075938947
-0.006859567
-0.077784407
0.078931559
-0.0080593489
-0.081819453
0.083006791
-0.0093163208
-0.085455651
0.086699145
-0.010632418
-0.089596041
0.09089764
-0.012002249
-0.093748382
0.095102741
-0.01343857
-0.098182136
0.099601899
-0.014935398
-0.10277975
0.10425893
-0.016501168
-0.10760549
0.10915245
-0.018135246
-0.11264743
0.11426148
-0.019842345
-0.11792259
0.11960838
-0.021625003
-0.12343908
0.12519909
-0.023486315
-0.12920844
0.13104569
-0.025429382
-0.13524182
0.13715933
-0.027457453
-0.14155056
0.1435515
-0.029573793
-0.14814721
0.15023476
-0.031781975
-0.15504383
0.15722146
-0.034085389
-0.16225417
0.16452516
-0.036487722
-0.16979205
0.17215996
-0.038991705
-0.17767219
0.18013963
-0.041601675
-0.18590885
0.18848001
-0.044321262
-0.19451855
0.19719689
-0.047153613
-0.20351811
0.2063066
-0.050101934
-0.2129248
0.21582643
-0.053169967
-0.22275702
0.22577529
-0.056360698
-0.23303417
0.23617178
-0.059677111
-0.24377652
0.24703614
-0.063121653
-0.25500619
0.25838988
-0.066696974
-0.26674496
0.27025494
-0.070404641
-0.27901778
0.28265509
-0.074245861
-0.29184988
0.29561512
-0.078221486
-0.30526818
0.30916148
-0.082331485
-0.31930178
0.32332225
-0.086575146
-0.33398034
0.33812622
-0.09095061
-0.34933731
0.3536055
-0.095455324
-0.36540682
0.36979323
-0.10008531
-0.38222543
0.38672425
-0.10483544
-0.39983251
0.40443638
-0.10969942
-0.41826986
0.42296978
-0.11466912
-0.43758252
0.44236712
-0.11973514
-0.45781771
0.46267369
-0.12488578
-0.47902706
0.48393811
-0.13010817
-0.50126484
0.50621252
-0.13538704
-0.52459046
0.52955285
-0.14070461
-0.54906682
0.55401829
-0.14604067
-0.57476209
0.57967356
-0.15137272
-0.60175164
0.60659112
-0.15667417
-0.6301172
0.63484842
-0.16191417
-0.65994764
0.66453028
-0.16705745
-0.69133847
0.69572837
-0.17206239
-0.72439416
0.7285423
-0.17688189
-0.75922862
0.76308367
-0.18146099
-0.7959657
0.79947418
-0.18573449
-0.83473618
0.83784271
-0.18962846
-0.87567513
0.87832678
-0.19305914
-0.91892063
0.92106907
-0.19593481
-0.96460407
0.96621078
-0.19815604
-1.0128289
1.0138682
-0.19961717
-1.0636385
1.0641003
-0.20020605
-1.1169918
1.1168791
-0.19980184
-1.1727705
1.1720924
-0.19826716
-1.230799
1.2295486
-0.19545575
-1.2908431
1.2889859
-0.19118743
-1.3526054
1.350041
-0.18524413
-1.4156709
1.41228
-0.17736351
-1.4795512
1.475132
-0.16733661
-1.5436461
1.5379845
-0.15494564
-1.6073157
1.6000264
-0.14005778
-1.6699461
1.6605957
-0.12267839
-1.7314606
1.7196636
-0.10218041
-1.7946562
1.7791398
-0.079358697
-1.8666607
1.847546
-0.051497889
-1.9505854
1.9245925
-0.018599669
-2.0584161
2.0265327
-2.1691471
2.1334199
-0.00060642059
-0.050195488
-0.0014701818
-0.063775666
-0.0023511946
-0.062269405
-0.0033009592
-0.067970468
-0.0042595505
-0.069598742
-0.005297162
-0.073832791
-0.0063478829
-0.076747483
-0.0074792881
-0.080703011
-0.0086348476
-0.084316289
-0.0098645995
-0.088383726
-0.011135967
-0.092495663
-0.01247405
-0.096864023
-0.013868331
-0.10140679
-0.015328039
-0.10616853
-0.016853172
-0.11114653
-0.018447815
-0.11635374
-0.020114033
-0.1218003
-0.021855468
-0.12749617
-0.023675193
-0.13345308
-0.025576629
-0.13968204
-0.027563254
-0.14619554
-0.029638132
-0.15300607
-0.031805159
-0.16012655
-0.034067807
-0.16757125
-0.036430644
-0.17535381
-0.038896235
-0.18349051
-0.041469019
-0.19199601
-0.044152466
-0.20088812
-0.046950574
-0.21018363
-0.04986662
-0.21990168
-0.052904361
-0.23006123
-0.056066788
-0.24068337
-0.059356835
-0.25179034
-0.062777098
-0.26340433
-0.066329575
-0.27555096
-0.070016152
-0.2882557
-0.073837523
-0.30154678
-0.07779471
-0.31545313
-0.081886553
-0.33000678
-0.086112134
-0.34524117
-0.090469345
-0.36119189
-0.094954585
-0.37789734
-0.099563019
-0.39539852
-0.10428916
-0.41373834
-0.10912562
-0.43296432
-0.11406363
-0.45312566
-0.11909296
-0.4742762
-0.12420113
-0.49647329
-0.12937419
-0.51977879
-0.13459615
-0.54425872
-0.13984844
-0.56998474
-0.14510997
-0.59703515
-0.15035627
-0.6254948
-0.15555906
-0.65545547
-0.16068532
-0.68701614
-0.165697
-0.72028434
-0.17055073
-0.75537532
-0.17519579
-0.79241357
-0.17957245
-0.83152976
-0.18361244
-0.87285591
-0.18723867
-0.9165243
-0.19036741
-0.96265548
-0.19290905
-1.0113397
-0.19476903
-1.0626059
-0.19584385
-1.1164055
-0.1960234
-1.1726178
-0.1951795
-1.2310896
-0.19317431
-1.2916201
-0.18984388
-1.3539546
-0.18497561
-1.4177168
-0.17833713
-1.4824817
-0.16970097
-1.5477247
-0.15888426
-1.6128901
-0.14580221
-1.6773809
-0.13040697
-1.7412248
-0.11249765
-1.8076356
-0.092032034
-1.8836354
-0.067393338
-1.9735353
-0.038690949
-2.0863916
-2.2016643
-0.00054629336
-0.049654581
-0.0013526583
-0.062979559
-0.0021553317
-0.061477125
-0.0030469779
-0.067091487
-0.0039262697
-0.068733025
-0.0048949791
-0.072879274
-0.0058629427
-0.075795359
-0.006915621
-0.079667503
-0.0079855818
-0.0832648
-0.0091284381
-0.087260721
-0.010309715
-0.091335595
-0.011554307
-0.095642121
-0.012852625
-0.10013269
-0.014213052
-0.10483393
-0.01563605
-0.10975107
-0.017125094
-0.11489402
-0.018683387
-0.12027322
-0.02031372
-0.12589905
-0.022020214
-0.13178192
-0.02380552
-0.13793431
-0.025673958
-0.14436707
-0.027628861
-0.15109368
-0.029673915
-0.15812673
-0.031813695
-0.16547961
-0.034051246
-0.1731675
-0.036391544
-0.18120479
-0.038837783
-0.18960792
-0.041394766
-0.19839315
-0.04406576
-0.20757882
-0.046855612
-0.21718254
-0.049767107
-0.22722538
-0.052804221
-0.23772729
-0.055970394
-0.24871111
-0.059267908
-0.26020027
-0.06269994
-0.2722196
-0.066268209
-0.28479614
-0.069974495
-0.2979582
-0.073818826
-0.31173662
-0.077801732
-0.32616313
-0.081922201
-0.34127295
-0.086177955
-0.35710321
-0.090566406
-0.37369294
-0.095083745
-0.39108476
-0.09972413
-0.40932407
-0.10448128
-0.42845935
-0.10934707
-0.44854225
-0.11431232
-0.46962834
-0.11936532
-0.4917782
-0.12449395
-0.51505491
-0.12968317
-0.53952827
-0.13491556
-0.56527296
-0.14017254
-0.59236867
-0.14543139
-0.62090385
-0.15066615
-0.65097218
-0.15584661
-0.68267488
-0.16093785
-0.71612138
-0.16590017
-0.75142694
-0.17068638
-0.78871617
-0.17524338
-0.82811613
-0.17950834
-0.86975681
-0.18341219
-0.91376204
-0.18687977
-0.96024173
-0.18983306
-1.0092717
-0.19218675
-1.060871
-0.19384619
-1.1149857
-0.19470856
-1.1715053
-0.19465951
-1.2302949
-0.19356944
-1.2912038
-0.19127211
-1.3539836
-0.18757486
-1.4183182
-0.18226627
-1.4838374
-0.17512344
-1.550118
-0.1659848
-1.6166496
-0.15482419
-1.6827967
-0.14160191
-1.7487992
-0.12627164
-1.8181556
-0.10835024
-1.8982997
-0.087020912
-1.9933852
-0.062074517
-2.110882
-2.230551
-0.00049313285
-0.049167973
-0.0012411267
-0.062242883
-0.0019693962
-0.06076049
-0.0028113797
-0.066263363
-0.0036221574
-0.067937211
-0.0045258443
-0.071992102
-0.0054168824
-0.074921581
-0.0063972453
-0.078705897
-0.0073878178
-0.082294303
-0.0084508893
-0.08621921
-0.0095492572
-0.090260265
-0.010707976
-0.094508047
-0.011918449
-0.098948535
-0.013187988
-0.10359249
-0.014518093
-0.10845094
-0.015912419
-0.11353165
-0.017374162
-0.11884556
-0.01890658
-0.12440295
-0.02051304
-0.13021417
-0.022197758
-0.13629085
-0.02396377
-0.14264504
-0.025815977
-0.14928835
-0.027758123
-0.15623458
-0.029793993
-0.16349706
-0.031928547
-0.17108986
-0.034165506
-0.1790286
-0.036509677
-0.18732869
-0.038965141
-0.19600714
-0.041537092
-0.20508121
-0.044228585
-0.21457069
-0.047044455
-0.22449494
-0.049988734
-0.23487478
-0.053064767
-0.2457338
-0.056276061
-0.25709536
-0.05962563
-0.26898489
-0.063115506
-0.28143054
-0.066747463
-0.29446099
-0.070522961
-0.30810761
-0.074441878
-0.32240387
-0.078503789
-0.33738554
-0.082707626
-0.35309065
-0.087050259
-0.36956062
-0.091528468
-0.3868385
-0.09613753
-0.40497162
-0.10087125
-0.42401041
-0.10572297
-0.44400751
-0.11068304
-0.46502207
-0.11574273
-0.48711432
-0.12088964
-0.51035164
-0.12611067
-0.53480501
-0.13139084
-0.56055139
-0.13671214
-0.5876734
-0.14205471
-0.61626056
-0.14739544
-0.64640814
-0.15270604
-0.67821999
-0.15795584
-0.7118042
-0.16310782
-0.74727693
-0.1681201
-0.78476001
-0.17294458
-0.82437713
-0.17752601
-0.86625356
-0.18180331
-0.91050466
-0.18571143
-0.95722872
-0.18918295
-1.006489
-0.1921419
-1.0582989
-0.19450193
-1.1126008
-0.1961681
-1.1693037
-0.19703061
-1.228314
-0.19696682
-1.2894703
-0.19581819
-1.3525857
-0.19340668
-1.4173811
-0.18953039
-1.4835443
-0.18397814
-1.5507511
-0.17664398
-1.6184853
-0.16751368
-1.6861182
-0.15659617
-1.7540972
-0.14392201
-1.8261549
-0.12900586
-1.9101355
-0.11105955
-2.0101055
-0.089952579
-2.1318989
-2.2555511
-0.00043764431
-0.048737654
-0.0011378462
-0.061554622
-0.0017876264
-0.060124303
-0.0025779499
-0.065487673
-0.0033223225
-0.067208667
-0.0041682104
-0.071163519
-0.0049899554
-0.074118029
-0.0059059695
-0.077809762
-0.0068254475
-0.081395984
-0.0078157979
-0.085251593
-0.0088398451
-0.089260527
-0.0099213679
-0.093452548
-0.011054118
-0.097843606
-0.012244362
-0.10243198
-0.013494432
-0.10723263
-0.01480737
-0.11225264
-0.016186877
-0.11750228
-0.017636631
-0.12299188
-0.019160226
-0.12873189
-0.020761554
-0.13473364
-0.022445196
-0.14100853
-0.024214323
-0.14756959
-0.02607429
-0.15442845
-0.028029489
-0.16159945
-0.03008425
-0.16909672
-0.03224364
-0.1769352
-0.034512661
-0.18513038
-0.03689602
-0.19369962
-0.039398413
-0.20266024
-0.042024796
-0.21203182
-0.044779791
-0.2218341
-0.047667596
-0.2320884
-0.050692287
-0.24281853
-0.053857912
-0.25404796
-0.05716731
-0.26580344
-0.060623222
-0.27811333
-0.064227793
-0.29100708
-0.067982549
-0.30451681
-0.071887854
-0.31867739
-0.075943706
-0.33352513
-0.080148661
-0.34909977
-0.084501161
-0.36544312
-0.08899755
-0.38260065
-0.093633822
-0.4006204
-0.098405268
-0.41955391
-0.10330475
-0.43945668
-0.10832504
-0.46038843
-0.11345714
-0.48241156
-0.11869063
-0.50559527
-0.12401437
-0.53001148
-0.12941434
-0.55574004
-0.13487548
-0.58286413
-0.14037986
-0.61147511
-0.14590666
-0.64166914
-0.15143211
-0.67354995
-0.15692778
-0.70722595
-0.16236054
-0.74281209
-0.16769394
-0.78042579
-0.17288492
-0.82018753
-0.17788611
-0.86221499
-0.18264463
-0.90661538
-0.18710567
-0.95347494
-0.19121141
-1.0028478
-0.1948946
-1.0547488
-0.19807578
-1.1091171
-0.20066202
-1.1658984
-0.20255903
-1.2250054
-0.20364006
-1.2863079
-0.20377222
-1.3496405
-0.20277229
-1.4147904
-0.20043723
-1.4815131
-0.19660361
-1.5495192
-0.19121555
-1.6182715
-0.18427244
-1.6872257
-0.17582359
-1.7570017
-0.16591569
-1.8315566
-0.15427901
-1.9189631
-0.1398784
-2.0235297
-0.12277901
-2.1492511
-2.2764345
-0.0003860645
-0.04835956
-0.0010434824
-0.060909537
-0.0016289759
-0.059552001
-0.0023626468
-0.064769192
-0.0030333206
-0.066554207
-0.0038285009
-0.070386175
-0.0045912336
-0.073374114
-0.0054472043
-0.07697446
-0.0063037921
-0.080561289
-0.0072300951
-0.084348825
-0.0081918383
-0.088323973
-0.0092093381
-0.092462035
-0.010278743
-0.096803083
-0.011404696
-0.10133692
-0.012589925
-0.10608046
-0.013838146
-0.11103978
-0.015152728
-0.11622552
-0.016537386
-0.12164768
-0.017996476
-0.12731609
-0.019533821
-0.13324262
-0.021154372
-0.13943757
-0.022862769
-0.14591431
-0.024663998
-0.15268414
-0.026562986
-0.15976149
-0.028565178
-0.16716002
-0.030676199
-0.1748945
-0.032900597
-0.18298157
-0.035244476
-0.19143704
-0.037712938
-0.20027931
-0.040311141
-0.20952795
-0.043044463
-0.21920256
-0.045917235
-0.22932558
-0.048934616
-0.23992007
-0.05209963
-0.25101174
-0.055416514
-0.26262622
-0.058888307
-0.27479323
-0.0625169
-0.28754349
-0.066303959
-0.30090951
-0.07025071
-0.31492677
-0.074356885
-0.32963329
-0.078622049
-0.3450692
-0.083043876
-0.36127844
-0.087620335
-0.37830645
-0.092347921
-0.39620306
-0.097221364
-0.41502186
-0.10223548
-0.43481861
-0.10738452
-0.45565389
-0.11265978
-0.47759337
-0.11805356
-0.50070531
-0.12355481
-0.525065
-0.12915327
-0.55075106
-0.13483524
-0.57784937
-0.14058565
-0.60645113
-0.14638687
-0.63665275
-0.15221811
-0.66855767
-0.15805506
-0.70227314
-0.16387019
-0.73791115
-0.1696305
-0.77558667
-0.17529963
-0.81541329
-0.1808363
-0.85750139
-0.18619741
-0.90194757
-0.19133717
-0.94883068
-0.19620605
-0.9982008
-0.2007444
-1.0500773
-0.20487241
-1.1044002
-0.20851586
-1.1611608
-0.21157138
-1.2202532
-0.21393529
-1.2815853
-0.21547092
-1.3450362
-0.2160154
-1.4104359
-0.21536823
-1.4776176
-0.21341254
-1.5462755
-0.21013481
-1.615873
-0.20556082
-1.6859737
-0.19977044
-1.7573671
-0.19285992
-1.8341992
-0.18466918
-1.9246694
-0.17409796
-2.0333811
-0.16125986
-2.1626642
-2.2930267
-0.0003448011
-0.048023251
-0.00097153676
-0.060295424
-0.0015007555
-0.059036511
-0.0021894966
-0.064096382
-0.0027943136
-0.065965834
-0.0035440193
-0.06965466
-0.004245273
-0.072692115
-0.0050410232
-0.076199817
-0.0058524292
-0.079772239
-0.006732207
-0.083493102
-0.0076483863
-0.08743356
-0.0086170271
-0.091521017
-0.0096373658
-0.095812338
-0.010713207
-0.10029278
-0.011848444
-0.10497918
-0.013046385
-0.10987821
-0.014311773
-0.11499911
-0.015648562
-0.12035265
-0.01706145
-0.12594797
-0.018555706
-0.13179637
-0.020135825
-0.13790896
-0.021807885
-0.14429754
-0.023576984
-0.15097445
-0.025448673
-0.15795365
-0.027429186
-0.16524819
-0.029524015
-0.17287362
-0.03173992
-0.18084534
-0.034082307
-0.18918058
-0.036556764
-0.1978976
-0.039169748
-0.20701518
-0.041926105
-0.21655459
-0.044831255
-0.22653777
-0.047889699
-0.2369888
-0.05110637
-0.24793306
-0.05448411
-0.25939838
-0.058026367
-0.27141399
-0.061736024
-0.28401133
-0.065614508
-0.2972245
-0.069662677
-0.31108974
-0.073880904
-0.32564572
-0.078268864
-0.34093347
-0.082825019
-0.35699832
-0.087547547
-0.37388623
-0.092433052
-0.39164881
-0.097478447
-0.41033958
-0.1026791
-0.43001604
-0.10802955
-0.45073977
-0.11352443
-0.47257641
-0.11915596
-0.49559653
-0.12491701
-0.51987446
-0.13079779
-0.54549077
-0.1367881
-0.57253056
-0.14287612
-0.60108475
-0.14904711
-0.63125002
-0.15528461
-0.66312778
-0.16156848
-0.69682411
-0.16787602
-0.73244721
-0.17418014
-0.77010809
-0.18044988
-0.80991341
-0.18665147
-0.85196386
-0.19274859
-0.89634876
-0.19870467
-0.94314433
-0.20447613
-0.99240642
-0.21000265
-1.0441404
-0.215231
-1.0983297
-0.22006647
-1.1549418
-0.22442739
-1.2139149
-0.22821703
-1.2751746
-0.23130229
-1.3386413
-0.23351694
-1.4042046
-0.23472474
-1.471707
-0.2348466
-1.5408493
-0.23387676
-1.6111287
-0.23188922
-1.6821902
-0.22898017
-1.7550271
-0.22528723
-1.8339381
-0.22075581
-1.9270483
-0.21435057
-2.0393704
-0.20603166
-2.1718368
-2.3051127
-0.00030493682
-0.047727183
-0.000908033
-0.059705074
-0.001387687
-0.058570697
-0.0020329523
-0.063466958
-0.0025944172
-0.065421031
-0.003292912
-0.068974573
-0.0039595028
-0.072045229
-0.0047392701
-0.075441267
-0.0055155449
-0.079018612
-0.0063528823
-0.082680115
-0.0072292632
-0.086583279
-0.0081564157
-0.090621867
-0.0091368827
-0.094861905
-0.01017405
-0.099287824
-0.011272368
-0.10391542
-0.012436359
-0.10875129
-0.013669933
-0.11380533
-0.014978994
-0.11908632
-0.016368297
-0.12460456
-0.017843423
-0.13037056
-0.019410131
-0.13639529
-0.021074323
-0.1426904
-0.022842223
-0.14926797
-0.02472098
-0.15614107
-0.026715977
-0.16332454
-0.028834609
-0.17083197
-0.031082931
-0.17868014
-0.033467683
-0.18688567
-0.03599529
-0.19546717
-0.038671709
-0.20444396
-0.041502577
-0.21383771
-0.044493519
-0.22367045
-0.047649546
-0.23396697
-0.050974564
-0.24475383
-0.054472665
-0.25605883
-0.058147186
-0.26791203
-0.062000126
-0.28034636
-0.066033551
-0.293396
-0.0702486
-0.30709826
-0.074645637
-0.32149273
-0.079224292
-0.33662133
-0.083984366
-0.3525294
-0.088923587
-0.36926509
-0.094040254
-0.3868796
-0.099331801
-0.40542745
-0.1047949
-0.42496697
-0.11042606
-0.44555992
-0.11622117
-0.46727243
-0.1221753
-0.49017557
-0.12828294
-0.51434365
-0.13453796
-0.53985683
-0.14093231
-0.56680059
-0.14745744
-0.59526415
-0.15410267
-0.6253433
-0.16085577
-0.65713706
-0.16770203
-0.69074892
-0.17462325
-0.72628406
-0.18159845
-0.76384761
-0.18860289
-0.80353898
-0.19560842
-0.84545102
-0.20258619
-0.88966818
-0.20950595
-0.9362697
-0.21632958
-0.98533304
-0.22301482
-1.0368154
-0.22948107
-1.090736
-0.23566996
-1.1470953
-0.24149948
-1.2058462
-0.24686967
-1.2669332
-0.25165867
-1.330317
-0.25573738
-1.3959202
-0.25899737
-1.4636035
-0.26140313
-1.5330624
-0.26298018
-1.6038444
-0.26382299
-1.6756886
-0.26405238
-1.7497886
-0.26383304
-1.830554
-0.26315568
-1.9258706
-0.26127414
-2.0411934
-0.25781103
-2.176416
-2.3124236
-0.00026227223
-0.047474069
-0.00084433295
-0.059135797
-0.0012783911
-0.058150531
-0.0018923412
-0.062868703
-0.0024318494
-0.064898632
-0.0031299142
-0.068295084
-0.0037763981
-0.071418729
-0.0045261182
-0.074712712
-0.0052706808
-0.078296805
-0.0060728247
-0.081902445
-0.0069201702
-0.085762204
-0.0078193629
-0.089750893
-0.0087752798
-0.093936302
-0.0097911744
-0.098304492
-0.010872036
-0.10286956
-0.012022571
-0.10763837
-0.013248355
-0.11261998
-0.014554692
-0.11782347
-0.015947516
-0.12325853
-0.017433521
-0.12893494
-0.019018681
-0.1348644
-0.020710467
-0.14105711
-0.022515204
-0.14752633
-0.024440238
-0.15428414
-0.026493122
-0.16134522
-0.028680598
-0.168724
-0.031010174
-0.17643658
-0.033488681
-0.18450027
-0.036122522
-0.1929342
-0.038918462
-0.20175738
-0.041882517
-0.21099232
-0.045019676
-0.22066213
-0.048334745
-0.23079188
-0.051832445
-0.24140834
-0.055516351
-0.25254052
-0.059389106
-0.26421955
-0.063453482
-0.27647835
-0.067711218
-0.28935225
-0.072163221
-0.30287952
-0.076810434
-0.31709985
-0.081652722
-0.33205633
-0.086689632
-0.34779473
-0.091920798
-0.36436322
-0.097345521
-0.38181339
-0.10296214
-0.40020075
-0.10876934
-0.41958324
-0.11476528
-0.44002301
-0.12094806
-0.46158592
-0.12731558
-0.48434276
-0.13386467
-0.50836796
-0.14059233
-0.53374024
-0.14749441
-0.56054437
-0.15456553
-0.58886834
-0.16179969
-0.61880522
-0.16918873
-0.65045207
-0.17672305
-0.68390851
-0.18438986
-0.71927625
-0.19217466
-0.75665375
-0.20005787
-0.79613603
-0.20801815
-0.83781059
-0.21603181
-0.88175856
-0.22407755
-0.92807973
-0.2321397
-0.9768394
-0.24012161
-1.0279055
-0.24800784
-1.0814665
-0.25572608
-1.1374653
-0.26319764
-1.1958825
-0.27032532
-1.2566972
-0.27700983
-1.3198879
-0.28315763
-1.3853955
-0.28870615
-1.4530948
-0.29364339
-1.522706
-0.29803643
-1.5937995
-0.30199279
-1.6662399
-0.30564619
-1.7414085
-0.30916801
-1.8237706
-0.31258158
-1.9208649
-0.31560782
-2.0385271
-0.31737951
-2.1760136
-2.3146202
-0.00022572783
-0.047257741
-0.00079656717
-0.058577747
-0.0012026572
-0.05775831
-0.0018259582
-0.062260876
-0.0023491855
-0.064392052
-0.0030367239
-0.067625674
-0.0036565098
-0.070818353
-0.004366286
-0.074023793
-0.0050969562
-0.077588921
-0.0058837109
-0.081140237
-0.0067216659
-0.084950637
-0.0076132994
-0.088887642
-0.0085657374
-0.093014391
-0.009582738
-0.097320326
-0.010669977
-0.10181765
-0.011833128
-0.10651324
-0.013078373
-0.11141568
-0.014412344
-0.1165336
-0.015841802
-0.1218766
-0.017373428
-0.12745456
-0.019015851
-0.13327727
-0.02077551
-0.13935715
-0.022661297
-0.14570503
-0.024680504
-0.15233464
-0.026840987
-0.15926014
-0.029150867
-0.16649575
-0.031617574
-0.17405828
-0.034248093
-0.18196558
-0.037049853
-0.19023637
-0.040028832
-0.19889119
-0.043190616
-0.207953
-0.046540846
-0.21744495
-0.050083914
-0.22739344
-0.053823973
-0.23782556
-0.05776424
-0.24877136
-0.061907449
-0.26026256
-0.066255743
-0.27233276
-0.07081072
-0.28501796
-0.075574021
-0.29835647
-0.080546205
-0.31238915
-0.085728077
-0.32715893
-0.09112032
-0.34271175
-0.096723355
-0.35909607
-0.10253719
-0.37636389
-0.10856276
-0.3945697
-0.11480078
-0.41377153
-0.12125151
-0.43403168
-0.12791583
-0.45541493
-0.13479439
-0.47799151
-0.14188789
-0.50183474
-0.14919594
-0.52702282
-0.15671894
-0.55363762
-0.16445532
-0.58176636
-0.17240312
-0.61149901
-0.18055937
-0.64292926
-0.18891912
-0.67615324
-0.19747586
-0.71126769
-0.20621981
-0.74836743
-0.21513861
-0.78754419
-0.22422032
-0.82888222
-0.23344365
-0.87247601
-0.24282222
-0.91842224
-0.25224311
-0.96663883
-0.26173468
-1.0172698
-0.27122839
-1.0703492
-0.28066538
-1.1258725
-0.28997128
-1.1838483
-0.29906676
-1.2442712
-0.30787609
-1.3071349
-0.31634087
-1.3723976
-0.32443921
-1.4399491
-0.33219306
-1.5095292
-0.33969308
-1.5807442
-0.34706585
-1.6535798
-0.35445048
-1.7295883
-0.36200639
-1.8132729
-0.36981956
-1.9116921
-0.3781342
-2.0309937
-0.38558266
-2.1701618
-2.3112778
-0.00019389251
-0.047073497
-0.00076574711
-0.058018709
-0.001151342
-0.057386583
-0.0018007249
-0.061626836
-0.00230619
-0.063903169
-0.0029667449
-0.066983
-0.003577645
-0.07022699
-0.004284068
-0.073338758
-0.0050191196
-0.076876701
-0.0058070155
-0.080376946
-0.006653224
-0.084130897
-0.0075575658
-0.088011789
-0.0085286167
-0.092074009
-0.0095711197
-0.096310845
-0.010691723
-0.10073262
-0.011897113
-0.10534618
-0.013194461
-0.11015966
-0.014591096
-0.11518154
-0.016095478
-0.12042033
-0.017715558
-0.12588643
-0.019459658
-0.1315893
-0.02133676
-0.13754073
-0.02335508
-0.14375235
-0.025523416
-0.15023735
-0.027850587
-0.15700991
-0.030344085
-0.16408562
-0.033011852
-0.1714809
-0.03586128
-0.17921419
-0.038899219
-0.18730483
-0.042130975
-0.19577496
-0.04556305
-0.2046464
-0.04919933
-0.21394501
-0.053044617
-0.22369633
-0.057101667
-0.2339296
-0.061373265
-0.24467491
-0.065862297
-0.25596397
-0.070570612
-0.26783151
-0.075499661
-0.280314
-0.080651101
-0.29344961
-0.086026674
-0.30727918
-0.091627841
-0.32184595
-0.097456392
-0.33719552
-0.10351404
-0.35337641
-0.10980353
-0.37043947
-0.11632745
-0.3884392
-0.12308856
-0.4074332
-0.13009103
-0.42748191
-0.13733795
-0.44865055
-0.14483402
-0.47100681
-0.1525832
-0.49462342
-0.16058987
-0.5195764
-0.16885716
-0.54594647
-0.17738885
-0.57381728
-0.18618775
-0.60327612
-0.19525526
-0.63441358
-0.20459178
-0.66732136
-0.21419626
-0.70209175
-0.22406586
-0.73881704
-0.2341952
-0.77758785
-0.24457884
-0.81849383
-0.25522417
-0.86161626
-0.26603993
-0.90696513
-0.27708034
-0.95463611
-0.28827204
-1.0046982
-0.29958165
-1.0571826
-0.31095346
-1.1121197
-0.32232423
-1.1695286
-0.33363042
-1.229423
-0.34482447
-1.2918101
-0.35588634
-1.3566646
-0.36683167
-1.4238875
-0.37772732
-1.4932323
-0.38866233
-1.5643771
-0.39976946
-1.6373973
-0.41120989
-1.7139776
-0.42315271
-1.7986779
-0.43580037
-1.8979533
-0.44975031
-2.0181294
-0.46331009
-2.158362
-2.3018447
-0.00017206541
-0.046911288
-0.00076106965
-0.057442536
-0.001140385
-0.057021143
-0.0017878353
-0.060994734
-0.0022824914
-0.063425111
-0.0029532696
-0.066330605
-0.0035825522
-0.069617471
-0.0042965361
-0.072645969
-0.0050525097
-0.076143526
-0.0058611305
-0.079592902
-0.0067364283
-0.083282064
-0.0076772498
-0.087099481
-0.0086932153
-0.091088772
-0.0097903399
-0.095246848
-0.010976335
-0.099582353
-0.012259096
-0.10410197
-0.013647105
-0.10881327
-0.015149252
-0.11372435
-0.016774248
-0.11884392
-0.018532149
-0.12418105
-0.020431883
-0.12974639
-0.022483257
-0.13555085
-0.024695251
-0.14160695
-0.027077131
-0.14792761
-0.02963759
-0.15452765
-0.032384865
-0.16142313
-0.03532613
-0.16863162
-0.038468679
-0.17617146
-0.041818096
-0.18406376
-0.045380496
-0.1923302
-0.049159753
-0.2009949
-0.05316006
-0.21008346
-0.057384744
-0.21962237
-0.061836365
-0.22964169
-0.066517357
-0.24017171
-0.071429907
-0.25124447
-0.076575645
-0.26289532
-0.081956991
-0.27515998
-0.087575852
-0.28807718
-0.093434964
-0.30168695
-0.099537271
-0.31603228
-0.10588627
-0.3311582
-0.11248633
-0.34711221
-0.11934203
-0.36394483
-0.1264587
-0.38170953
-0.13384289
-0.40046228
-0.1415012
-0.42026298
-0.14944113
-0.4411751
-0.15767033
-0.46326511
-0.16619717
-0.4866035
-0.17502985
-0.51126448
-0.18417725
-0.53732561
-0.19364701
-0.56486866
-0.20344684
-0.59397711
-0.2135831
-0.62473845
-0.2240622
-0.65723924
-0.23488784
-0.69156956
-0.24606436
-0.72781781
-0.25759596
-0.76607152
-0.26947337
-0.80641142
-0.28167606
-0.84890105
-0.29422419
-0.8936175
-0.30706716
-0.94062335
-0.32018821
-0.98998673
-0.33354747
-1.0417542
-0.34709935
-1.0959711
-0.36079458
-1.1526728
-0.37458684
-1.2118889
-0.38846083
-1.2736332
-0.40243542
-1.3378938
-0.41657631
-1.4045777
-0.43095892
-1.4734898
-0.4456761
-1.5443597
-0.46085488
-1.6173377
-0.47671568
-1.6941905
-0.49346243
-1.7794502
-0.51144781
-1.8791032
-0.53134419
-1.9993082
-0.55155726
-2.1400552
-2.2857066
-0.00015434526
-0.046766894
-0.00077184469
-0.056837814
-0.0011592523
-0.056647575
-0.0018210355
-0.060349121
-0.0023288087
-0.062934026
-0.0030123195
-0.065665217
-0.0036716942
-0.068977537
-0.0044090016
-0.071929742
-0.0052053969
-0.075369819
-0.0060581146
-0.078764665
-0.0069873102
-0.082379267
-0.0079926721
-0.086122596
-0.0090845899
-0.090027586
-0.010270796
-0.094093817
-0.011560392
-0.098328586
-0.012962785
-0.10273829
-0.014487841
-0.10733007
-0.016145811
-0.11211164
-0.017947147
-0.11709155
-0.019901984
-0.12227922
-0.022020974
-0.12768479
-0.024313972
-0.13332003
-0.026790446
-0.13919786
-0.029459871
-0.14533124
-0.032330305
-0.15173644
-0.035409309
-0.15843007
-0.038704349
-0.16542983
-0.042220493
-0.17275651
-0.045963146
-0.18043093
-0.049936358
-0.18847619
-0.054143631
-0.19691699
-0.058588057
-0.20577943
-0.063270998
-0.21509175
-0.068195704
-0.2248822
-0.073363593
-0.23518298
-0.078776614
-0.24602562
-0.084437694
-0.25744454
-0.090349165
-0.26947608
-0.096515337
-0.28215699
-0.10294016
-0.29552764
-0.10962853
-0.30963002
-0.11658633
-0.32450803
-0.12382074
-0.34020773
-0.13133927
-0.35677905
-0.13915075
-0.37427381
-0.14726506
-0.39274645
-0.15569259
-0.41225565
-0.16444466
-0.43286304
-0.17353363
-0.4546328
-0.1829718
-0.47763385
-0.19277242
-0.50193734
-0.20294781
-0.52761917
-0.21351181
-0.55475642
-0.22447632
-0.5834307
-0.23585386
-0.61372465
-0.24765497
-0.6457224
-0.25989055
-0.67950937
-0.27256845
-0.71517158
-0.28569433
-0.75279214
-0.29927406
-0.7924484
-0.31330071
-0.83421413
-0.32776687
-0.87816487
-0.34265892
-0.92437325
-0.35795297
-0.97290088
-0.37362069
-1.0238128
-0.38962832
-1.0771647
-0.40593791
-1.133004
-0.42252985
-1.1913702
-0.43941875
-1.2522853
-0.45666855
-1.3157411
-0.47437576
-1.3816712
-0.49263722
-1.4499283
-0.51152014
-1.5203122
-0.53113061
-1.5930224
-0.55173928
-1.6698079
-0.57372303
-1.755052
-0.59746682
-1.8545212
-0.62379756
-1.9738126
-0.65137329
-2.114302
-2.2621168
-0.0001401706
-0.046636707
-0.00079950111
-0.056191224
-0.0012022393
-0.056258544
-0.0018941397
-0.059672421
-0.0024348578
-0.062409827
-0.0031469367
-0.064971101
-0.0038571292
-0.068286659
-0.0046390483
-0.071168736
-0.0054986411
-0.074532776
-0.0064227313
-0.077864932
-0.007435404
-0.081392895
-0.0085386316
-0.085047779
-0.0097438844
-0.088853033
-0.011061039
-0.09280985
-0.012500806
-0.096924709
-0.01407444
-0.10120349
-0.015793296
-0.10565323
-0.017668863
-0.11028157
-0.019712559
-0.11509714
-0.021935513
-0.12010967
-0.024348181
-0.12533
-0.026960868
-0.13077009
-0.029783135
-0.13644364
-0.032822874
-0.1423653
-0.036087956
-0.14855141
-0.039584657
-0.15502021
-0.043318104
-0.16179059
-0.047292847
-0.16888396
-0.051512176
-0.17632246
-0.055978545
-0.18413003
-0.060693774
-0.1923321
-0.065659997
-0.20095446
-0.070878683
-0.21002611
-0.076351614
-0.21957499
-0.08208132
-0.2296326
-0.08807055
-0.24023029
-0.094322897
-0.25140164
-0.10084366
-0.26318131
-0.10763746
-0.27560665
-0.11471173
-0.28871518
-0.1220738
-0.30254884
-0.12973361
-0.31714881
-0.13770028
-0.3325617
-0.14598549
-0.34883455
-0.15460226
-0.36601742
-0.16356342
-0.38416436
-0.17288398
-0.40333109
-0.18257979
-0.42357735
-0.1926669
-0.44496572
-0.20316291
-0.46756189
-0.214085
-0.49143524
-0.22545192
-0.51665749
-0.23728075
-0.54330417
-0.24958929
-0.57145245
-0.26239507
-0.60118123
-0.27571457
-0.63257208
-0.28956344
-0.66570752
-0.30395648
-0.70066908
-0.31890376
-0.73753713
-0.33441201
-0.77638959
-0.35048818
-0.81730606
-0.36712747
-0.86036237
-0.38432302
-0.90563198
-0.40206018
-0.95318529
-0.42032319
-1.0030919
-0.43908846
-1.0554172
-0.45833887
-1.1102196
-0.47808095
-1.1675456
-0.49836178
-1.2274232
-0.51928174
-1.2898514
-0.5409668
-1.3547976
-0.56351891
-1.4221725
-0.58698077
-1.4918432
-0.61142996
-1.5640231
-0.63716583
-1.6403739
-0.66476799
-1.7250629
-0.6946721
-1.8236027
-0.72801836
-1.9409801
-0.76369178
-2.0802443
-2.230076
-0.00013263043
-0.04651406
-0.0008537156
-0.055482818
-0.0012783888
-0.055847467
-0.0020112999
-0.058954712
-0.0026030278
-0.061834364
-0.0033622282
-0.064229665
-0.0041472886
-0.067520724
-0.004999467
-0.070337292
-0.0059485961
-0.073606039
-0.0069760482
-0.076861696
-0.0081079646
-0.080287164
-0.0093500468
-0.083834021
-0.010715354
-0.087518375
-0.012215923
-0.091342459
-0.013864391
-0.095312166
-0.01567341
-0.099433385
-0.017655644
-0.10371317
-0.019823374
-0.10815955
-0.022188553
-0.11278152
-0.02476239
-0.11758957
-0.027555409
-0.12259527
-0.030576757
-0.12781197
-0.033834498
-0.13325448
-0.037335841
-0.13893836
-0.041085834
-0.14488211
-0.045089117
-0.15110444
-0.049348099
-0.15762649
-0.053865105
-0.16446981
-0.05864165
-0.17165737
-0.063678489
-0.17921392
-0.068976912
-0.18716438
-0.074537781
-0.19553502
-0.080363289
-0.20435353
-0.086455684
-0.21364784
-0.09281893
-0.22344774
-0.09945713
-0.23378446
-0.10637678
-0.24468918
-0.1135844
-0.25619648
-0.12108943
-0.26834073
-0.12890087
-0.28115976
-0.1370311
-0.29469201
-0.14549148
-0.30897939
-0.1542967
-0.32406495
-0.16346228
-0.33999448
-0.17300428
-0.35681699
-0.18294067
-0.37458394
-0.19329049
-0.39334907
-0.20407376
-0.41317003