/*--------------------------------*- C++ -*----------------------------------*\
  =========                 |
  \\      /  F ield         | OpenFOAM: The Open Source CFD Toolbox
   \\    /   O peration     | Website:  https://openfoam.org
    \\  /    A nd           | Version:  12
     \\/     M anipulation  |
\*---------------------------------------------------------------------------*/
FoamFile
{
    format      ascii;
    class       volVectorField;
    location    "0.019";
    object      U;
}
// * * * * * * * * * * * * * * * * * * * * * * * * * * * * * * * * * * * * * //

dimensions      [0 1 -1 0 0 0 0];

internalField   nonuniform List<vector> 
16000
(
(216.9822 -3.1376443e-17 -8.5442756)
(255.34381 0 5.4871378)
(240.86872 0 -7.7514525)
(248.88173 4.9517415e-17 3.8787441)
(244.01751 -4.8891932e-17 -6.1352777)
(246.31135 0 1.8048461)
(244.45163 0 -4.4868094)
(244.98617 8.3672023e-17 -0.033390196)
(244.12064 -7.949574e-17 -3.295514)
(244.00208 0 -1.3276742)
(243.47563 7.1830926e-17 -2.6884064)
(243.12319 -2.0464448e-16 -2.0867692)
(242.67104 1.2952659e-16 -2.5513771)
(242.23496 -1.2321262e-16 -2.4921803)
(241.77035 1.1690317e-16 -2.6672311)
(241.29199 -3.4668402e-18 -2.7500215)
(240.79502 -3.2933906e-18 -2.8661034)
(240.28041 -9.7213152e-17 -2.9717711)
(239.74761 1.9045917e-16 -3.0799357)
(239.1965 -9.036535e-17 -3.1865804)
(238.62692 1.7189106e-16 -3.2921414)
(238.03882 -1.6293671e-16 -3.3959627)
(237.43221 0 -3.4975926)
(236.80718 1.516706e-16 -3.5964981)
(236.16396 -4.1021319e-18 -3.6921414)
(235.50288 -2.6471451e-16 -3.7839543)
(234.8244 1.2546502e-16 -3.8713646)
(234.12911 0 -3.9537889)
(233.41774 0 -4.0306486)
(232.69114 2.1789087e-16 -4.1013777)
(231.95035 -2.030147e-16 -4.165434)
(231.1965 0 -4.2223131)
(230.4309 0 -4.2715576)
(229.65498 0 -4.3127758)
(228.87032 5.1205865e-18 -4.3456517)
(228.07864 1.5542394e-16 -4.3699579)
(227.28176 -1.4227448e-16 -4.3855688)
(226.48164 -1.3934036e-16 -4.3924688)
(225.68034 1.2337372e-16 -4.3907618)
(224.88001 0 -4.3806796)
(224.08287 -1.1806358e-16 -4.3625819)
(223.29122 1.1143099e-16 -4.3369602)
(222.50739 -2.1116255e-16 -4.3044335)
(221.73378 1.9920669e-16 -4.2657427)
(220.9728 -1.9452924e-16 -4.2217413)
(220.22693 3.561039e-16 -4.1733797)
(219.49868 5.5762773e-18 -4.1216907)
(218.79062 2.9424115e-19 -4.0677724)
(218.10544 -1.4980208e-16 -4.012775)
(217.44591 1.4163986e-16 -3.9578939)
(216.81495 -1.2507903e-16 -3.904377)
(216.21564 0 -3.8535552)
(215.65125 7.426453e-18 -3.8068957)
(215.12532 0 -3.766064)
(214.64164 6.6014917e-18 -3.732967)
(214.20413 2.0546014e-16 -3.7097518)
(213.81665 -3.752812e-16 -3.6988404)
(213.48252 1.0856635e-17 -3.7030296)
(213.20394 1.6648251e-16 -3.7255031)
(212.98167 -1.4718013e-16 -3.769693)
(212.81475 1.3850254e-16 -3.8389083)
(212.69916 -8.7011076e-18 -3.9354462)
(212.62447 0 -4.0590991)
(212.57007 0 -4.2056189)
(212.50488 -1.0929499e-16 -4.3661546)
(212.39264 1.0980217e-16 -4.5286229)
(212.19732 -9.7303766e-17 -4.6802824)
(211.88222 1.8980095e-16 -4.8089569)
(211.4061 -1.852903e-16 -4.9047962)
(210.72378 8.2137275e-17 -4.9624785)
(209.79844 5.2019472e-18 -4.9830221)
(208.59686 0 -4.9820815)
(207.08297 4.7067507e-18 -4.9378862)
(205.22267 -4.4910487e-18 -4.8751465)
(203.0342 0 -4.7888253)
(200.79676 -3.393792e-17 -4.6443749)
(199.25422 6.2997883e-17 -4.4746769)
(197.97489 -3.2013164e-17 -5.614113)
(199.70827 0 -2.8689685)
(198.74354 0 -9.7230066)
(218.48569 0 -11.398237)
(257.12097 -3.70833e-18 3.425945)
(242.02132 -1.1932897e-16 -10.71622)
(250.48274 1.0994997e-16 1.7776172)
(245.26065 0 -9.035945)
(247.78468 1.0117182e-16 -0.37195059)
(245.72037 -1.868431e-16 -7.2659996)
(246.34177 -1.0398269e-19 -2.3380156)
(245.38518 8.4197499e-17 -5.9156695)
(245.26616 0 -3.7527598)
(244.69856 -1.5209129e-16 -5.1916673)
(244.31634 1.4876805e-16 -4.5579849)
(243.83158 1.4149698e-16 -5.0077632)
(243.36028 -2.6047625e-16 -4.9500301)
(242.86034 1.1974262e-16 -5.1041626)
(242.34466 1.1007544e-17 -5.1796566)
(241.80931 1.1511879e-16 -5.2797835)
(241.25492 -1.0252637e-16 -5.3714886)
(240.6811 0 -5.4633284)
(240.08774 0 -5.5526304)
(239.47477 5.6560391e-18 -5.6393234)
(238.84219 -1.7748385e-16 -5.7227527)
(238.19013 3.3654072e-16 -5.8023382)
(237.5188 -3.1447758e-16 -5.8774529)
(236.82856 1.4214283e-16 -5.9474562)
(236.1199 0 -6.0116956)
(235.39346 1.2397664e-16 -6.069511)
(234.65002 -1.3293359e-16 -6.1202518)
(233.89053 0 -6.1632836)
(233.11608 3.5108244e-18 -6.1980025)
(232.32795 -1.3322413e-17 -6.2238459)
(231.52754 0 -6.2403119)
(230.71644 0 -6.2469664)
(229.89637 -1.7002951e-16 -6.2434653)
(229.06919 3.3760542e-16 -6.2295639)
(228.23689 -1.6211017e-16 -6.2051309)
(227.40161 -1.5852403e-16 -6.1701622)
(226.56556 1.4508214e-16 -6.124788)
(225.73107 -1.1174205e-16 -6.0692825)
(224.90053 -2.8545235e-19 -6.0040679)
(224.07638 -2.6680517e-19 -5.9297159)
(223.26111 2.3187767e-16 -5.8469451)
(222.45722 -1.093913e-16 -5.7566147)
(221.66722 0 -5.6597131)
(220.89363 2.0150666e-16 -5.5573441)
(220.13897 1.188027e-17 -5.4507061)
(219.40574 -5.0976345e-18 -5.3410718)
(218.6965 -1.6373519e-16 -5.2297704)
(218.01383 0 -5.1181738)
(217.36037 -1.4575271e-16 -5.0076826)
(216.73886 -8.8007952e-18 -4.8997238)
(216.15211 2.5849657e-16 -4.795772)
(215.60304 -1.2922689e-16 -4.6973987)
(215.09467 0 -4.6063446)
(214.63006 -2.0221664e-17 -4.5245614)
(214.21227 -2.093909e-16 -4.4541679)
(213.84405 3.579136e-16 -4.397418)
(213.52752 -2.1309474e-16 -4.3567911)
(213.26348 0 -4.3350392)
(213.05102 -1.6870146e-16 -4.3350546)
(212.88713 1.7709849e-16 -4.3594779)
(212.76557 2.6296749e-17 -4.4097134)
(212.67397 0 -4.4844043)
(212.59046 -1.395159e-16 -4.5783018)
(212.48365 7.1377027e-18 -4.6824)
(212.31824 1.0959734e-16 -4.7853272)
(212.06089 -1.936127e-17 -4.8759331)
(211.67856 9.1302371e-17 -4.9442025)
(211.1344 -1.0311531e-16 -4.9827368)
(210.38904 5.4128319e-18 -4.9874296)
(209.41114 -5.1172719e-18 -4.9628653)
(208.16619 0 -4.9202764)
(206.62309 -4.595627e-18 -4.8527577)
(204.74734 4.3662418e-18 -4.7671622)
(202.56664 8.3158951e-18 -4.6523323)
(200.41839 9.8950803e-19 -4.456523)
(198.87906 0 -4.3678416)
(197.98768 3.0440523e-17 -5.178972)
(199.67746 -5.8112817e-17 -2.8658338)
(198.77291 2.5889222e-17 -9.1868699)
(219.84819 0 -14.33473)
(258.73961 -1.219325e-16 1.160889)
(243.10063 2.4887296e-16 -13.770734)
(251.88417 -2.2212435e-16 -0.49456768)
(246.39381 1.0973854e-16 -12.013963)
(249.05495 -3.2497166e-18 -2.7451524)
(246.85917 9.889291e-17 -10.09776)
(247.50669 -9.3651217e-17 -4.8429855)
(246.49146 -5.55794e-18 -8.606121)
(246.34862 -5.2771858e-18 -6.3477103)
(245.74474 -1.0024771e-17 -7.7990765)
(245.32574 1.3835056e-16 -7.171144)
(244.80478 -1.4023668e-16 -7.5887405)
(244.29413 1.3763449e-16 -7.5386398)
(243.75421 -1.1823375e-16 -7.6709001)
(243.19681 -1.5496366e-17 -7.7384388)
(242.61836 0 -7.822861)
(242.01947 -1.593571e-20 -7.8997247)
(241.39983 -2.2539386e-16 -7.9745259)
(240.75942 -3.7170403e-19 -8.0452755)
(240.09827 1.7275889e-16 -8.1115835)
(239.41653 1.6968587e-17 -8.1727037)
(238.71444 -2.1464848e-17 -8.2279292)
(237.99241 0 -8.276522)
(237.25098 1.1667829e-20 -8.3177392)
(236.49082 -1.6477482e-16 -8.3508387)
(235.71281 1.4720888e-16 -8.375089)
(234.91797 8.2178696e-18 -8.3897786)
(234.10751 0 -8.394236)
(233.28282 -7.3723512e-18 -8.387837)
(232.44547 4.0316862e-21 -8.3700253)
(231.59718 -1.9841297e-16 -8.3403274)
(230.73986 1.9981418e-16 -8.2983675)
(229.87556 1.1834096e-17 -8.2438877)
(229.00647 -1.7923925e-16 -8.1767587)
(228.13492 1.4792007e-16 -8.0969965)
(227.26335 -1.8022941e-16 -8.0047729)
(226.39426 1.5105506e-16 -7.9004248)
(225.53026 -1.4302381e-16 -7.7844573)
(224.67396 1.347753e-16 -7.6575477)
(223.82801 1.5932378e-17 -7.5205425)
(222.99506 0 -7.3744474)
(222.17773 1.9872385e-16 -7.2204191)
(221.37862 -2.4049015e-16 -7.0597466)
(220.60025 0 -6.8938304)
(219.84513 1.7842082e-16 -6.7241585)
(219.11569 -1.5653952e-16 -6.5522765)
(218.41437 1.6884354e-16 -6.3797666)
(217.74357 -1.7853938e-16 -6.2082301)
(217.1057 0 -6.0392757)
(216.50321 1.7590542e-16 -5.8745171)
(215.93856 -1.3215362e-16 -5.7155863)
(215.41421 0 -5.5641638)
(214.93257 0 -5.4220368)
(214.4959 1.2358737e-16 -5.2911473)
(214.10621 -2.0625304e-16 -5.173564)
(213.76502 1.2098983e-16 -5.0714116)
(213.47304 1.8188692e-16 -4.986883)
(213.22965 1.6259399e-19 -4.9222469)
(213.03232 1.4847092e-19 -4.8797122)
(212.87609 -3.1916666e-16 -4.8610293)
(212.75236 8.798797e-17 -4.8664712)
(212.64648 0 -4.8933413)
(212.53535 1.3956935e-16 -4.9352999)
(212.388 -1.5991179e-16 -4.9832949)
(212.17068 1.0930872e-16 -5.0269558)
(211.85231 1.3006917e-17 -5.0571002)
(211.40388 -8.4258068e-17 -5.0661119)
(210.7924 1.1331406e-17 -5.0487538)
(209.98535 2.1349603e-17 -5.0026882)
(208.95205 -1.007119e-16 -4.9382518)
(207.66572 9.4804226e-17 -4.8532418)
(206.09484 -7.1885342e-17 -4.7637685)
(204.20061 1.358061e-16 -4.6488222)
(202.03842 -5.6174002e-17 -4.4923028)
(199.96679 -6.1050543e-17 -4.2599403)
(198.52108 5.0480869e-17 -4.2214679)
(197.95584 0 -4.7807881)
(199.59934 3.2235166e-18 -2.8389989)
(198.79061 -1.210565e-17 -8.7670888)
(221.04605 0 -17.34576)
(260.2046 0 -1.2402466)
(243.97814 0 -16.962626)
(253.1132 1.0607561e-16 -2.8806866)
(247.3439 -1.232061e-16 -15.123841)
(250.15579 -2.1939467e-16 -5.2403682)
(247.81591 2.0867674e-16 -13.050777)
(248.49067 -1.2355658e-17 -7.4801178)
(247.41036 5.8866549e-18 -11.409821)
(247.23927 -1.7305706e-16 -9.0789637)
(246.59483 1.6942393e-16 -10.52091)
(246.13346 1.007133e-17 -9.9140528)
(245.57144 -1.5290023e-16 -10.290948)
(245.01603 1.3581814e-16 -10.250533)
(244.43088 -1.8142191e-20 -10.359894)
(243.8264 -8.1391966e-18 -10.417858)
(243.19961 0 -10.485358)
(242.55107 -7.3550658e-18 -10.545314)
(241.88061 -2.0931577e-16 -10.600801)
(241.18833 2.1134754e-16 -10.650274)
(240.4744 1.2548668e-17 -10.693099)
(239.73913 -1.1897242e-17 -10.728433)
(238.98296 2.14342e-16 -10.755463)
(238.20648 -1.7072988e-16 -10.773352)
(237.41045 1.0127229e-17 -10.781265)
(236.59581 1.9199017e-16 -10.778387)
(235.76369 -1.2699915e-16 -10.763919)
(234.91542 0 -10.737111)
(234.05252 1.4674483e-16 -10.697265)
(233.17673 -1.2317035e-16 -10.643766)
(232.28996 2.4824518e-16 -10.576086)
(231.39431 -1.3251331e-17 -10.493818)
(230.49205 -2.0850013e-16 -10.396686)
(229.5856 1.729325e-16 -10.284565)
(228.67752 -1.8628055e-16 -10.157498)
(227.77047 -2.3338819e-20 -10.015705)
(226.86718 2.082312e-16 -9.8595982)
(225.97044 -3.1422802e-16 -9.6897828)
(225.08309 9.2475126e-17 -9.50706)
(224.20793 3.500366e-17 -9.312422)
(223.34775 -4.9494862e-17 -9.1070461)
(222.50528 0 -8.8922777)
(221.68317 -8.8044383e-17 -8.6696143)
(220.88398 1.3787727e-16 -8.4406794)
(220.11018 -2.0813275e-16 -8.2071961)
(219.36412 1.9551713e-16 -7.9709568)
(218.64807 -2.0731661e-16 -7.7337874)
(217.96421 3.8969636e-16 -7.4975216)
(217.31467 -3.0528746e-16 -7.2639814)
(216.70151 3.0601371e-16 -7.0349602)
(216.12676 -1.4358642e-16 -6.8122214)
(215.59239 1.3506308e-16 -6.5975088)
(215.10031 -9.4913707e-17 -6.3925637)
(214.65221 2.9732231e-17 -6.1991689)
(214.24948 0 -6.0191871)
(213.89299 0 -5.8545548)
(213.58294 0 -5.7072163)
(213.31856 2.2949427e-17 -5.5790633)
(213.09773 0 -5.4718562)
(212.91636 -1.6115403e-16 -5.3870297)
(212.76767 1.8846936e-16 -5.3252921)
(212.64097 -1.0597514e-16 -5.2856644)
(212.51988 -1.4392351e-19 -5.2641712)
(212.3811 2.4750336e-16 -5.2536739)
(212.1951 2.9126886e-17 -5.245573)
(211.92983 -1.355809e-16 -5.231454)
(211.55702 5.0929035e-17 -5.2039848)
(211.05054 -1.4292008e-16 -5.1575136)
(210.38276 -4.4736802e-17 -5.088505)
(209.52476 -6.2990355e-17 -4.9978083)
(208.44629 -5.9319591e-17 -4.8963159)
(207.1293 5.5562899e-17 -4.7809503)
(205.54095 0 -4.6659485)
(203.63912 0 -4.5212418)
(201.50607 -1.5540431e-17 -4.3205153)
(199.50726 0 -4.0685805)
(198.22116 6.9117459e-18 -4.0321205)
(197.90054 5.1970761e-17 -4.340336)
(199.51588 -7.3480162e-17 -2.7852883)
(198.79342 1.1127934e-19 -8.273392)
(222.06531 0 -20.562891)
(261.49799 -8.7590048e-18 -3.7190107)
(244.73412 2.6524975e-16 -20.292271)
(254.10432 -2.4755828e-16 -5.4004899)
(248.07753 2.5270133e-16 -18.353178)
(251.05306 -2.3114227e-16 -7.8910155)
(248.57513 -2.2036471e-16 -16.111378)
(249.26183 2.0859282e-16 -10.278767)
(248.11977 0 -14.31864)
(247.90905 0 -11.964222)
(247.22152 1.787702e-16 -13.360093)
(246.71047 -1.6934682e-16 -12.794294)
(246.10209 -1.0063209e-17 -13.120966)
(245.49612 2.861356e-17 -13.090124)
(244.86022 -9.0580845e-18 -13.175108)
(244.20327 3.4346961e-17 -13.220145)
(243.52289 0 -13.268142)
(242.8196 0 -13.307681)
(242.09336 -2.3457699e-16 -13.340197)
(241.34442 2.0803e-16 -13.36437)
(240.57309 0 -13.379387)
(239.77988 0 -13.384304)
(238.96545 -1.8930183e-16 -13.37818)
(238.13064 3.5822191e-16 -13.360075)
(237.27651 -1.6942213e-16 -13.329055)
(236.40432 -2.0075985e-17 -13.284215)
(235.51556 -3.8016509e-17 -13.224704)
(234.61192 -1.4405243e-16 -13.149735)
(233.69534 1.1892515e-16 -13.058616)
(232.76797 0 -12.950763)
(231.83214 -3.0455223e-17 -12.825731)
(230.8904 0 -12.683235)
(229.94541 0 -12.523159)
(229.00002 2.0561175e-16 -12.345589)
(228.05713 -2.179067e-16 -12.150815)
(227.11974 2.2861208e-17 -11.939347)
(226.19089 -2.156923e-17 -11.711917)
(225.27358 -4.0763804e-17 -11.469484)
(224.37081 -7.5574695e-20 -11.213219)
(223.48551 7.2017466e-20 -10.944501)
(222.62049 -6.8072946e-20 -10.664899)
(221.77846 0 -10.376147)
(220.96197 -1.2093971e-16 -10.080121)
(220.17343 1.1354359e-16 -9.7788037)
(219.4151 0 -9.4742504)
(218.68906 -5.0293397e-17 -9.1685558)
(217.99727 1.8898815e-16 -8.8638111)
(217.34154 -2.2148659e-16 -8.5620768)
(216.72357 -2.0827014e-16 -8.2653592)
(216.14498 1.5609667e-16 -7.9755938)
(215.60724 1.1001603e-16 -7.6946413)
(215.11176 -1.372795e-16 -7.4242952)
(214.65975 -3.2168987e-17 -7.1662938)
(214.25215 -2.1113058e-16 -6.9223507)
(213.88941 1.1285776e-16 -6.6941809)
(213.57132 -1.0574094e-16 -6.4835075)
(213.29676 9.8840839e-17 -6.2920121)
(213.06349 2.3132257e-16 -6.1212267)
(212.8679 -1.7288105e-16 -5.9723735)
(212.70432 0 -5.8461043)
(212.56424 -3.7763137e-17 -5.7420744)
(212.4352 -7.0633215e-17 -5.6580204)
(212.29977 1.3182226e-16 -5.5888603)
(212.13499 1.2330747e-16 -5.527147)
(211.91302 -2.3029098e-16 -5.4652211)
(211.60413 8.0592276e-17 -5.3967759)
(211.18278 5.0286207e-17 -5.316761)
(210.62595 9.4101738e-17 -5.2199829)
(209.9099 1.3218767e-16 -5.1045469)
(209.0065 1.1773562e-19 -4.9745002)
(207.8941 0 -4.8366155)
(206.55495 0 -4.7027947)
(204.95171 -3.4032077e-17 -4.5578216)
(203.05234 9.5973885e-17 -4.3793582)
(200.95837 -9.0009207e-17 -4.1332686)
(199.04204 -8.4720605e-17 -3.8624434)
(197.87511 5.2902985e-17 -3.8013606)
(197.83606 0 -3.9167564)
(199.43288 4.6472858e-17 -2.6981974)
(198.77632 -2.1194254e-19 -7.784588)
(222.88747 0 -23.956462)
(262.59124 2.3659601e-20 -6.2837241)
(245.29089 9.0222629e-18 -23.726328)
(254.9041 2.8653262e-16 -8.0625203)
(248.58563 3.3959281e-19 -21.692966)
(251.71621 -5.026211e-16 -10.704002)
(249.1016 -3.2900689e-19 -19.273904)
(249.78834 4.5334065e-16 -13.246217)
(248.58753 -2.0857446e-16 -17.332584)
(248.3275 -1.236934e-17 -15.0061)
(247.59438 1.1753477e-17 -16.318825)
(247.02757 -1.784322e-16 -15.808337)
(246.36833 1.9008558e-16 -16.076872)
(245.70699 -1.8063126e-16 -16.05158)
(245.01553 3.0426469e-16 -16.10985)
(244.30125 -3.065638e-16 -16.137202)
(243.56233 1.366277e-16 -16.16201)
(242.79924 0 -16.176827)
(242.01214 0 -16.181961)
(241.20144 1.455744e-17 -16.176117)
(240.36771 -2.7592367e-17 -16.158271)
(239.51174 0 -16.12732)
(238.6345 1.9817506e-16 -16.082163)
(237.73722 4.8196207e-19 -16.021727)
(236.82135 -3.5467314e-16 -15.944971)
(235.88859 1.6757802e-16 -15.850917)
(234.94088 1.9831624e-17 -15.738679)
(233.98044 0 -15.607477)
(233.00967 -1.77621e-16 -15.456676)
(232.03123 1.339287e-16 -15.285801)
(231.04796 -2.2209787e-16 -15.094565)
(230.06287 2.0903228e-16 -14.882891)
(229.07909 -2.262337e-16 -14.65093)
(228.09985 2.1292326e-16 -14.399077)
(227.12844 7.5475707e-17 -14.127979)
(226.16814 0 -13.838538)
(225.22218 0 -13.531912)
(224.29375 4.2060999e-17 -13.209499)
(223.38588 3.9611115e-17 -12.872927)
(222.50149 -3.7287803e-17 -12.524029)
(221.64328 3.5085299e-17 -12.164818)
(220.81377 6.6167253e-17 -11.797452)
(220.01529 -6.2147152e-17 -11.424204)
(219.2499 3.5026748e-16 -11.047415)
(218.51949 -2.739123e-16 -10.669457)
(217.82573 5.1402351e-17 -10.292693)
(217.1701 -4.833773e-17 -9.9194335)
(216.55392 0 -9.5519091)
(215.97835 2.1230573e-16 -9.1922428)
(215.44439 -1.5895469e-16 -8.8424389)
(214.95293 0 -8.5043759)
(214.50464 0 -8.1798142)
(214.1 1.3054113e-16 -7.8704035)
(213.7391 -6.0979008e-17 -7.577704)
(213.42148 0 -7.3031999)
(213.14586 -1.5994435e-16 -7.0483023)
(212.90992 9.9500687e-17 -6.8143075)
(212.71011 1.3949969e-16 -6.6022767)
(212.54132 -1.7341295e-16 -6.412862)
(212.39633 1.6193511e-16 -6.2459915)
(212.26515 -1.5092339e-16 -6.1003183)
(212.13412 5.5157128e-20 -5.9723945)
(211.98505 0 -5.8565557)
(211.79604 6.1276525e-17 -5.7460764)
(211.54108 -2.8548902e-16 -5.6342129)
(211.19481 1.5962863e-16 -5.5167834)
(210.73262 0 -5.3896061)
(210.1341 -1.3915551e-16 -5.2487825)
(209.37671 8.6444966e-17 -5.0944244)
(208.43777 1.2145907e-16 -4.9307071)
(207.30314 2.4094506e-19 -4.7663413)
(205.94957 -7.0543686e-17 -4.6111385)
(204.33756 9.9278061e-17 -4.4377448)
(202.45116 -1.5474205e-16 -4.2194026)
(200.40712 8.6820377e-17 -3.926169)
(198.57825 2.7012839e-17 -3.6304839)
(197.54559 5.0660798e-17 -3.5376078)
(197.76606 0 -3.4999971)
(199.34726 -4.4101344e-17 -2.5804498)
(198.74226 2.0332069e-17 -7.2804666)
(223.48508 0 -27.522845)
(263.46724 9.73865e-18 -8.9581585)
(245.64184 -3.0389703e-16 -27.287554)
(255.5122 2.4793003e-16 -10.868685)
(248.92238 2.5474808e-16 -25.132064)
(252.12489 -4.9675003e-16 -13.678219)
(249.35464 2.2850963e-16 -22.523762)
(250.03994 2.3134453e-16 -16.387754)
(248.78892 -2.1923566e-16 -20.442222)
(248.47457 3.9022024e-17 -18.197262)
(247.6952 0 -19.388847)
(247.06739 0 -18.942208)
(246.35271 -2.2199372e-17 -19.147722)
(245.63056 -1.6851281e-16 -19.122628)
(244.87758 1.394522e-16 -19.152814)
(244.09965 1.8914391e-17 -19.158356)
(243.29555 -3.5854533e-17 -19.156611)
(242.4659 3.0596509e-16 -19.14255)
(241.61115 -2.2483626e-16 -19.11566)
(240.73205 2.4405168e-16 -19.074511)
(239.82955 -2.0165593e-16 -19.017851)
(238.90484 2.733924e-17 -18.944399)
(237.95939 1.5535182e-16 -18.852905)
(236.99491 -1.9537527e-16 -18.742189)
(236.0134 0 -18.611142)
(235.01712 0 -18.458773)
(234.00862 0 -18.28423)
(232.99067 -1.9568255e-16 -18.086833)
(231.9663 1.843259e-16 -17.866099)
(230.93873 -3.4922403e-17 -17.621769)
(229.91135 0 -17.353841)
(228.88766 -2.7995606e-16 -17.062576)
(227.87126 2.3396119e-16 -16.748524)
(226.86574 -5.5331599e-17 -16.412522)
(225.87468 1.5648138e-16 -16.055708)
(224.90155 -4.8603811e-17 -15.679495)
(223.9497 -1.8440087e-16 -15.285578)
(223.0223 2.1751576e-16 -14.875891)
(222.1223 -1.6326943e-16 -14.45259)
(221.2524 7.6996394e-17 -14.018018)
(220.41502 -7.2249947e-17 -13.574666)
(219.61232 1.3575558e-16 -13.125123)
(218.84615 -6.3610453e-17 -12.672047)
(218.1181 -2.3931671e-16 -12.218106)
(217.4295 5.0448656e-16 -11.765935)
(216.78143 -2.1004255e-16 -11.318094)
(216.17475 -1.4794234e-16 -10.877032)
(215.61015 9.1969978e-17 -10.445056)
(215.08812 8.6442161e-17 -10.024306)
(214.60901 -1.6163788e-16 -9.616752)
(214.17296 1.5095893e-16 -9.2241895)
(213.77992 0 -8.8482445)
(213.42951 1.3193841e-16 -8.4903817)
(213.12099 -1.8469281e-16 -8.1519131)
(212.85298 5.7502136e-17 -7.834001)
(212.62322 5.3564636e-17 -7.5376457)
(212.42834 0 -7.2636358)
(212.26358 0 -7.0124633)
(212.1225 0 -6.7841901)
(211.9966 0 -6.5780228)
(211.87482 0 -6.3917514)
(211.74222 -7.0044556e-17 -6.2214951)
(211.58009 0 -6.0614907)
(211.36933 -6.1215748e-20 -5.9063452)
(211.08701 2.261047e-16 -5.7496077)
(210.70996 -2.1038045e-16 -5.5888606)
(210.21463 -9.8182971e-17 -5.4211389)
(209.58097 -1.8275507e-16 -5.2435123)
(208.79065 2.5465631e-16 -5.0571444)
(207.82874 2.1241841e-20 -4.8685558)
(206.67907 7.3672114e-17 -4.6886572)
(205.31537 0 -4.505362)
(203.70368 0 -4.3009072)
(201.8408 0 -4.0367685)
(199.85845 -1.1187928e-16 -3.6940657)
(198.12519 0 -3.3718133)
(197.22381 -9.7118529e-17 -3.2437142)
(197.68083 1.3536596e-16 -3.0880149)
(199.25459 8.3797462e-17 -2.436824)
(198.69972 -1.9128795e-17 -6.7754266)
(223.85345 0 -31.271715)
(264.1288 0 -11.741643)
(245.78557 3.1951014e-16 -30.98079)
(255.92529 1.9174301e-17 -13.834842)
(249.05616 -2.6720551e-16 -28.676432)
(252.28822 0 -16.83551)
(249.4466 1.6012387e-17 -25.860895)
(250.12065 -3.0342066e-17 -19.695457)
(248.74701 0 -23.622669)
(248.35035 1.9128752e-16 -21.513726)
(247.51945 -4.1412885e-16 -22.558701)
(246.82113 1.9608896e-16 -22.183284)
(246.0419 2.3271364e-17 -22.327838)
(245.24946 0 -22.298347)
(244.42525 2.0888387e-17 -22.29995)
(243.57402 -3.3690612e-16 -22.279578)
(242.69525 7.4247869e-17 -22.246992)
(241.78982 2.482614e-16 -22.198544)
(240.85863 2.3579443e-16 -22.133203)
(239.90288 -2.5431976e-16 -22.0494)
(238.92403 0 -21.945705)
(237.92384 -2.8538441e-16 -21.82071)
(236.90438 2.422933e-16 -21.673076)
(235.86802 -2.0423769e-16 -21.501581)
(234.81742 1.924782e-16 -21.305139)
(233.75556 -1.8242593e-16 -21.082834)
(232.68565 3.4411616e-16 -20.833972)
(231.61119 -1.6236973e-16 -20.558089)
(230.53585 1.5357875e-16 -20.255005)
(229.46349 -2.8951263e-16 -19.924834)
(228.39803 1.3625219e-16 -19.568016)
(227.34348 1.2868059e-16 -19.185324)
(226.3038 -2.4277712e-16 -18.777866)
(225.28286 5.6343252e-17 -18.347084)
(224.2844 -5.8509969e-19 -17.894746)
(223.31192 2.5249327e-16 -17.422908)
(222.36871 0 -16.933898)
(221.4577 1.8536e-19 -16.430269)
(220.58153 0 -15.914758)
(219.74246 -7.877102e-17 -15.390238)
(218.94241 -1.4800467e-16 -14.859671)
(218.18292 6.9459478e-17 -14.326052)
(217.4652 0 -13.792363)
(216.79013 -6.1173444e-17 -13.261517)
(216.15831 2.8624232e-16 -12.736317)
(215.57009 -3.2124575e-16 -12.219411)
(215.02559 -3.0086269e-16 -11.713261)
(214.52476 2.8082433e-16 -11.220122)
(214.06734 -1.7515216e-16 -10.742025)
(213.65294 0 -10.280779)
(213.28095 0 -9.8379727)
(212.95052 7.1348514e-17 -9.4149873)
(212.66049 6.6539988e-17 -9.0129998)
(212.40923 1.2393833e-16 -8.6329826)
(212.19448 -5.7754612e-17 -8.2756932)
(212.0131 -1.0750373e-16 -7.9416415)
(211.86078 -2.0028215e-16 -7.6310455)
(211.73172 -9.3341343e-17 -7.3437974)
(211.61844 1.732286e-16 -7.0792812)
(211.51162 0 -6.8359282)
(211.39908 -7.4937709e-17 -6.6114161)
(211.26433 -1.3926615e-16 -6.402408)
(211.0917 1.2926578e-16 -6.2022778)
(210.8642 5.9884668e-17 -6.0059366)
(210.55957 5.5763174e-17 -5.8105366)
(210.15703 0 -5.6135094)
(209.63493 1.9273005e-16 -5.4115238)
(208.97439 1.7910346e-16 -5.2043274)
(208.16241 -2.4988747e-16 -4.9948206)
(207.18629 7.7309639e-17 -4.7904558)
(206.02723 -7.2157295e-17 -4.591099)
(204.66036 -4.4614225e-19 -4.3829705)
(203.05837 2.4918426e-16 -4.1417345)
(201.23157 -2.3189364e-16 -3.8266146)
(199.324 5.3674111e-17 -3.4327835)
(197.69557 1.5037172e-16 -3.0829936)
(196.92465 -4.6530389e-17 -2.9214624)
(197.57996 -4.3070437e-17 -2.6863345)
(199.15207 0 -2.2758465)
(198.65713 3.6113831e-17 -6.2710577)
(224.00676 3.8916874e-16 -35.214859)
(264.58799 5.5043011e-19 -14.64636)
(245.72062 -3.5586847e-16 -34.834303)
(256.14369 0 -16.987068)
(248.94749 0 -32.325987)
(252.31943 -2.6531094e-16 -20.181384)
(249.23138 2.6842923e-16 -29.242383)
(249.75995 6.3667755e-17 -23.158851)
(248.4123 -2.4164607e-16 -26.893016)
(247.93828 2.2854615e-16 -24.970854)
(247.04424 -2.442779e-16 -25.850517)
(246.26171 2.0530593e-16 -25.544043)
(245.40505 -4.8708605e-17 -25.628927)
(244.52996 -4.6183926e-17 -25.586097)
(243.62246 -1.7503711e-16 -25.554661)
(242.68637 1.6531352e-16 -25.500861)
(241.72186 -3.5307212e-16 -25.429567)
(240.73024 5.9346588e-16 -25.337847)
(239.71294 -2.8039372e-16 -25.224288)
(238.67177 -2.6607544e-16 -25.087181)
(237.60884 2.5088826e-16 -24.924955)
(236.52666 -2.9872536e-17 -24.736119)
(235.42806 -2.2492711e-16 -24.519317)
(234.31622 2.1185951e-16 -24.273381)
(233.19463 2.509905e-16 -23.997359)
(232.06709 -1.4151012e-16 -23.690558)
(230.93764 0 -23.352596)
(229.81053 2.5308599e-16 -22.983416)
(228.69014 -3.1785776e-16 -22.583335)
(227.58093 1.1183176e-16 -22.153045)
(226.48733 -2.8274853e-16 -21.693635)
(225.41372 1.9916845e-16 -21.206586)
(224.3643 -6.2756006e-17 -20.693755)
(223.34305 2.3582419e-16 -20.157352)
(222.35361 -2.2116416e-16 -19.599915)
(221.39932 -2.0843047e-16 -19.024252)
(220.48306 1.9531422e-16 -18.433402)
(219.6073 -4.5805532e-17 -17.830577)
(218.77407 0 -17.219098)
(217.98491 8.1014986e-17 -16.602343)
(217.24096 -7.5605608e-17 -15.983681)
(216.54293 0 -15.366418)
(215.89115 1.3304158e-16 -14.753747)
(215.28563 -6.2211016e-17 -14.148693)
(214.7261 -1.7438998e-16 -13.554076)
(214.21204 5.4372701e-16 -12.972476)
(213.74277 -2.0347036e-16 -12.406214)
(213.31742 9.4859893e-17 -11.857337)
(212.93498 -2.6583696e-16 -11.327615)
(212.5943 -1.5447592e-19 -10.818558)
(212.29403 1.5397692e-16 -10.331423)
(212.03257 -1.4353926e-16 -9.8672305)
(211.80797 -6.676474e-17 -9.426773)
(211.61781 -6.2146956e-17 -9.0106062)
(211.45902 -1.159042e-16 -8.6190232)
(211.32762 2.1517658e-16 -8.2520182)
(211.2185 0 -7.9092695)
(211.12505 9.2856612e-17 -7.5900599)
(211.03916 -3.4528706e-16 -7.2930133)
(210.9507 2.4016063e-16 -7.016185)
(210.84619 7.4298307e-17 -6.7580044)
(210.7113 1.3802777e-16 -6.514002)
(210.53424 1.2835683e-16 -6.2772981)
(210.29158 -1.1845136e-16 -6.0456918)
(209.96821 -1.0981904e-16 -5.8185742)
(209.54511 -3.0635173e-16 -5.5909518)
(209.00262 -1.9440727e-19 -5.3619039)
(208.32506 -8.7752935e-17 -5.1335471)
(207.50052 0 -4.9096603)
(206.51554 -2.2689324e-16 -4.6920352)
(205.35356 6.994843e-17 -4.4722271)
(203.99253 0 -4.2373632)
(202.41083 1.20878e-16 -3.9543465)
(200.63389 0 -3.5841702)
(198.8143 1.041404e-16 -3.1397367)
(197.30031 -1.4454396e-16 -2.764324)
(196.66062 1.3376891e-16 -2.5737823)
(197.46961 -8.2235498e-17 -2.2940128)
(199.03863 7.5779316e-17 -2.106894)
(198.62209 0 -5.7657655)
(223.93519 -4.0854969e-16 -39.353761)
(264.82954 3.5982185e-16 -17.687419)
(245.3906 -3.2994157e-16 -38.873432)
(256.13926 3.2790204e-16 -20.332055)
(248.53266 3.1407424e-16 -36.02233)
(251.78347 -1.7829228e-17 -23.700062)
(248.71397 -2.8114992e-16 -32.705587)
(249.20017 -2.6690439e-16 -26.824228)
(247.77676 2.8404157e-16 -30.291691)
(247.1902 0 -28.584401)
(246.22185 2.8346491e-17 -29.281178)
(245.34193 0 -29.029645)
(244.39465 -1.2749111e-16 -29.053802)
(243.42423 2.4069873e-16 -28.985066)
(242.42082 0 -28.912302)
(241.38778 0 -28.814398)
(240.32606 0 -28.693145)
(239.23758 3.8765309e-17 -28.545853)
(238.12453 0 -28.370795)
(236.98953 -2.4248319e-16 -28.166137)
(235.8356 3.2666957e-16 -27.930216)
(234.66619 1.2361582e-16 -27.661562)
(233.48511 1.7529141e-16 -27.358916)
(232.29654 -2.7529702e-16 -27.021323)
(231.10497 -5.1882166e-17 -26.648155)
(229.91513 -2.4552898e-16 -26.239161)
(228.73197 1.847654e-16 -25.794505)
(227.56049 -2.1824353e-16 -25.314801)
(226.40575 8.1635136e-17 -24.801112)
(225.27271 7.7189243e-17 -24.254967)
(224.16617 0 -23.678346)
(223.09066 2.745673e-16 -23.073649)
(222.05036 -2.5782531e-16 -22.443672)
(221.04904 0 -21.791544)
(220.08996 -2.2789055e-16 -21.12068)
(219.17588 2.1340549e-16 -20.434708)
(218.30897 -1.0055529e-16 -19.737394)
(217.49085 1.8822646e-16 -19.032582)
(216.72261 -2.6440724e-16 -18.324109)
(216.00478 1.2468811e-19 -17.615743)
(215.33744 -1.5440778e-16 -16.911122)
(214.72024 -7.2241735e-17 -16.213697)
(214.15248 -1.3553219e-16 -15.526683)
(213.63317 2.5258679e-16 -14.853026)
(213.16106 -1.1783101e-16 -14.19537)
(212.73476 0 -13.556037)
(212.35274 -3.5493068e-19 -12.937023)
(212.01335 9.5725376e-17 -12.339999)
(211.71486 0 -11.766326)
(211.45541 8.3155256e-17 -11.217077)
(211.23298 7.767183e-17 -10.693059)
(211.04529 -7.2111487e-17 -10.194836)
(210.88972 2.682571e-16 -9.7227348)
(210.76314 -2.4923911e-16 -9.2768387)
(210.66177 -1.158279e-16 -8.8569525)
(210.58094 -1.0753318e-16 -8.4625884)
(210.51486 9.9786886e-17 -8.0929499)
(210.45641 1.8500983e-16 -7.7467382)
(210.39705 -3.4301322e-16 -7.4221448)
(210.3259 3.9737192e-16 -7.1173254)
(210.23061 -1.4719871e-16 -6.829609)
(210.10078 1.3638964e-16 -6.5530647)
(209.91582 -1.2628314e-16 -6.2867292)
(209.66171 2.3405569e-16 -6.0282342)
(209.32389 -3.2516438e-16 -5.7732358)
(208.8848 2.0046378e-16 -5.5219948)
(208.32867 -1.3537231e-19 -5.2741302)
(207.6411 8.6051679e-17 -5.032248)
(206.8094 0 -4.7972069)
(205.82191 0 -4.565361)
(204.66468 0 -4.3274034)
(203.31856 -1.2660984e-16 -4.0609074)
(201.76997 -1.217076e-19 -3.7319005)
(200.05721 0 -3.3054024)
(198.33788 0 -2.8143118)
(196.94561 9.2750657e-17 -2.4183471)
(196.43333 -1.7097871e-16 -2.2016061)
(197.35906 0 -1.9010585)
(198.91332 0 -1.9453492)
(198.59938 -1.3131207e-16 -5.2526352)
(223.60056 2.7579519e-17 -43.699123)
(264.81817 -7.7858837e-16 -20.890919)
(244.76182 3.4493503e-16 -43.05034)
(255.63565 -2.1536432e-17 -23.840119)
(247.78322 3.6992401e-16 -39.824945)
(251.09182 -3.4874287e-16 -27.457566)
(247.9034 0 -36.297382)
(248.24963 -3.1418507e-16 -30.687151)
(246.77197 2.3094544e-16 -33.807597)
(246.05821 2.1937679e-16 -32.339336)
(245.00222 -2.3677406e-16 -32.848273)
(244.01079 0 -32.631998)
(242.95819 1.8186549e-19 -32.593785)
(241.87845 0 -32.485206)
(240.76544 3.8144232e-16 -32.35974)
(239.62252 -7.2054685e-16 -32.203995)
(238.45166 3.4015791e-16 -32.017904)
(237.25566 -4.018678e-17 -31.798848)
(236.03777 -3.8185795e-17 -31.544893)
(234.80172 3.6293037e-17 -31.254172)
(233.55171 -6.77746e-17 -30.925094)
(232.29238 -3.2107325e-16 -30.556365)
(231.02878 3.0215117e-16 -30.147069)
(229.76625 5.6961702e-17 -29.696724)
(228.5104 -2.6995607e-16 -29.205315)
(227.26697 -7.1635523e-19 -28.673357)
(226.04176 2.8667314e-16 -28.101896)
(224.84048 -1.7991187e-16 -27.492525)
(223.66867 -6.1401228e-19 -26.847378)
(222.53157 0 -26.1691)
(221.43403 0 -25.46081)
(220.38036 -7.0779465e-17 -24.726041)
(219.37433 1.3248602e-16 -23.968676)
(218.41903 0 -23.192862)
(217.51688 -1.1706605e-16 -22.402928)
(216.66958 2.1900057e-16 -21.603294)
(215.87819 -1.0257274e-16 -20.798374)
(215.14307 -1.9218985e-16 -19.992505)
(214.46402 8.9289849e-17 -19.189859)
(213.84029 1.6752795e-16 -18.394383)
(213.27069 0 -17.609745)