/*--------------------------------*- C++ -*----------------------------------*\
  =========                 |
  \\      /  F ield         | OpenFOAM: The Open Source CFD Toolbox
   \\    /   O peration     | Website:  https://openfoam.org
    \\  /    A nd           | Version:  12
     \\/     M anipulation  |
\*---------------------------------------------------------------------------*/
FoamFile
{
    format      ascii;
    class       volScalarField;
    location    "1100";
    object      alphat;
}
// * * * * * * * * * * * * * * * * * * * * * * * * * * * * * * * * * * * * * //

dimensions      [1 -1 -1 0 0 0 0];

internalField   nonuniform List<scalar> 
16200
(
0.0004813914908
0.001645735913
0.002738278016
0.003589853442
0.003849861223
0.00339129256
0.002498176681
0.00136890325
0.0007064941488
0.0001840877156
5.764869945e-06
2.628596679e-06
2.382483662e-06
2.344297521e-06
1.862137849e-06
1.604987031e-06
1.401719042e-06
1.25841711e-06
1.165540059e-06
1.105786882e-06
1.07154839e-06
1.060014937e-06
1.068408048e-06
1.095043197e-06
1.139568018e-06
1.203219696e-06
1.28924575e-06
1.403537921e-06
1.555951851e-06
1.763053272e-06
2.053287088e-06
2.476584152e-06
3.122577308e-06
4.158145756e-06
5.911893294e-06
9.065857615e-06
1.509125068e-05
2.72337284e-05
5.275290807e-05
0.0001080748445
0.0002307817376
0.0005077097172
0.001141136486
0.001165280582
0.001165831405
0.001165494247
0.001164494624
0.001164189373
0.001164200711
0.001164312071
0.001164439091
0.001164553851
0.001164651449
0.001164735953
0.001164814639
0.00116489703
0.001164993505
0.001165121573
0.001165294103
0.001165566345
0.0004699623755
0.001592711062
0.002620694057
0.003369426437
0.003465650257
0.002893664847
0.002021731498
0.001001083169
0.0005531883335
4.05597674e-05
2.662985644e-06
2.189646624e-06
1.995028886e-06
1.957854989e-06
1.656788694e-06
1.424711084e-06
1.240923326e-06
1.111467501e-06
1.029198266e-06
9.774982671e-07
9.49083762e-07
9.410802453e-07
9.507390602e-07
9.76314379e-07
1.017364904e-06
1.074927861e-06
1.151901601e-06
1.25365479e-06
1.389323852e-06
1.574365185e-06
1.835096901e-06
2.217035348e-06
2.80099404e-06
3.736564834e-06
5.317550188e-06
8.153158885e-06
1.355754718e-05
2.443067103e-05
4.725894818e-05
9.671664946e-05
0.0002063765333
0.000453827422
0.00101988402
0.001165113502
0.001165704358
0.001165488453
0.001164496225
0.001164186145
0.001164197858
0.001164311742
0.001164441784
0.001164559303
0.001164659114
0.001164745168
0.001164824835
0.001164907408
0.001165003705
0.001165131063
0.001165303425
0.00116557947
0.000460291918
0.001542809749
0.002507728711
0.003150757162
0.003091926449
0.002435844067
0.001545959859
0.000728042635
0.0003651374053
1.385802313e-05
2.067088325e-06
1.832112136e-06
1.674726419e-06
1.639871962e-06
1.465967187e-06
1.257832505e-06
1.093006506e-06
9.768965054e-07
9.044693737e-07
8.599057267e-07
8.362598598e-07
8.305707252e-07
8.401148905e-07
8.631213264e-07
8.991200087e-07
9.490605731e-07
1.01570079e-06
1.104268861e-06
1.22374967e-06
1.389117332e-06
1.625092721e-06
1.973258231e-06
2.506455382e-06
3.359064015e-06
4.794863868e-06
7.360416984e-06
1.223354791e-05
2.200944593e-05
4.247979352e-05
8.67118521e-05
0.00018452116
0.0004046502757
0.0009069820848
0.001165042886
0.001165627946
0.001165490751
0.001164512755
0.001164196229
0.001164205083
0.001164318425
0.001164449084
0.001164567632
0.001164668473
0.001164755335
0.001164835508
0.001164918098
0.001165014109
0.001165140835
0.001165313077
0.00116559296
0.0004533166239
0.001496640882
0.002397155003
0.002904659767
0.002718108031
0.002025842895
0.001096194099
0.0005376680427
0.0001770200351
4.866249874e-06
1.723462826e-06
1.550024596e-06
1.42149197e-06
1.388751847e-06
1.299066901e-06
1.111315945e-06
9.62814825e-07
8.582977991e-07
7.942746686e-07
7.556518659e-07
7.357855235e-07
7.316442681e-07
7.405665327e-07
7.608695498e-07
7.92201795e-07
8.356473369e-07
8.941529446e-07
9.732343143e-07
1.082137948e-06
1.235658176e-06
1.457261425e-06
1.785460493e-06
2.287277713e-06
3.086636508e-06
4.427437807e-06
6.815482294e-06
1.134063871e-05
2.040266643e-05
3.934988423e-05
8.022736213e-05
0.0001704660541
0.0003732014924
0.000835062273
0.00116508305
0.001165618021
0.001165499709
0.001164546747
0.001164223297
0.001164225903
0.001164335035
0.001164463225
0.00116458047
0.001164680681
0.001164767234
0.001164847181
0.001164929408
0.001165024888
0.001165150942
0.001165322937
0.001165606092
0.000447540472
0.001453862758
0.002290819613
0.00266508874
0.002358826808
0.001670290612
0.0007887347761
0.0004075012043
4.217503897e-05
1.979095911e-06
1.452457058e-06
1.314947439e-06
1.210078439e-06
1.180139278e-06
1.145109261e-06
9.76712995e-07
8.438066718e-07
7.504174306e-07
6.94261034e-07
6.610415398e-07
6.445042427e-07
6.416427062e-07
6.499564494e-07
6.679830514e-07
6.956354941e-07
7.34325142e-07
7.874081466e-07
8.608397255e-07
9.641111007e-07
1.11171262e-06
1.325886012e-06
1.642565227e-06
2.124178952e-06
2.886656941e-06
4.158975017e-06
6.416413944e-06
1.06824008e-05
1.920705256e-05
3.699422941e-05
7.528363845e-05
0.0001596031721
0.0003485606582
0.0007779672192
0.001165204549
0.001165659523
0.001165517465
0.001164593759
0.001164262965
0.001164256779
0.001164358946
0.001164482354
0.001164596547
0.001164694894
0.001164780316
0.00116485952
0.001164941124
0.001165035954
0.001165161354
0.001165333107
0.001165619302
0.0004424180754
0.001414037127
0.002186932722
0.002426555011
0.002012663845
0.001302288876
0.0005836404667
0.0002798994505
1.654231504e-05
1.502356879e-06
1.230422082e-06
1.121634874e-06
1.035495446e-06
1.00780998e-06
1.005289647e-06
8.544084513e-07
7.358225042e-07
6.528654956e-07
6.040453704e-07
5.75900324e-07
5.625966344e-07
5.612085817e-07
5.694631764e-07
5.862195183e-07
6.117733547e-07
6.479901759e-07
6.987101935e-07
7.702833267e-07
8.723160447e-07
1.018961211e-06
1.231523752e-06
1.544134886e-06
2.016072896e-06
2.757905168e-06
3.988912863e-06
6.164881631e-06
1.026660766e-05
1.844680212e-05
3.548117138e-05
7.206663568e-05
0.0001524276662
0.0003320257362
0.0007390569472
0.001165391839
0.001165745968
0.001165560073
0.001164650422
0.001164313047
0.001164296387
0.001164389402
0.00116450606
0.001164615662
0.001164711024
0.001164794553
0.001164872531
0.001164953258
0.001165047323
0.001165172077
0.001165343578
0.001165632508
0.0004372611569
0.00137591621
0.002083241297
0.00217802514
0.001686486766
0.0009533433656
0.0004385892595
0.0001654466382
5.203965133e-06
1.298003871e-06
1.035869895e-06
9.570797611e-07
8.86065867e-07
8.608749044e-07
8.758965773e-07
7.419264019e-07
6.373120985e-07
5.648077122e-07
5.233521795e-07
5.003803887e-07
4.905250931e-07
4.910239567e-07
4.999266158e-07
5.165135331e-07
5.415397938e-07
5.771144677e-07
6.279778715e-07
7.005071951e-07
8.043110533e-07
9.532537579e-07
1.168617952e-06
1.482465583e-06
1.952415731e-06
2.685540642e-06
3.895125466e-06
6.025302399e-06
1.003112427e-05
1.800459568e-05
3.457411024e-05
7.007457451e-05
0.0001478365156
0.0003211115362
0.0007126368831
0.001165624647
0.001165864499
0.001165619816
0.001164713674
0.001164370788
0.00116434265
0.001164424963
0.001164533401
0.001164637219
0.001164728716
0.001164809741
0.001164886107
0.001164965753
0.001165058979
0.001165183109
0.001165354372
0.00116564578
0.0004313782828
0.001337564894
0.001975903337
0.001926601821
0.001394667034
0.0006900055774
0.0003398775336
6.43027363e-05
2.374324343e-06
1.049190814e-06
8.963950999e-07
8.167014658e-07
7.584374495e-07
7.360951859e-07
7.588395634e-07
6.410076562e-07
5.49773404e-07
4.874332168e-07
4.531087815e-07
4.351812714e-07
4.288041144e-07
4.31462732e-07
4.415981425e-07
4.589517125e-07
4.845210347e-07
5.215543779e-07
5.744141531e-07
6.498936689e-07
7.576366429e-07
9.114141578e-07
1.131651631e-06
1.45156495e-06
1.926007887e-06
2.6606265e-06
3.865859895e-06
5.980962814e-06
9.94997032e-06
1.783635696e-05
3.419238548e-05
6.915075399e-05
0.0001455114473
0.0003151506264
0.0006972757878
0.001165886339
0.00116600445
0.001165690177
0.001164780764
0.001164433782
0.001164393779
0.001164464409
0.001164563587
0.001164660734
0.001164747686
0.001164825727
0.001164900175
0.001164978577
0.001165070915
0.00116519445
0.001165365494
0.001165659124
0.0004248485453
0.001296917699
0.001841450093
0.001673219324
0.001115849899
0.0005150362337
0.0002584790958
3.0850115e-05
1.433708023e-06
8.898593926e-07
7.646980729e-07
7.003102486e-07
6.52128866e-07
6.323135114e-07
6.561591435e-07
5.528255862e-07
4.737495538e-07
4.20850889e-07
3.931705984e-07
3.800142632e-07
3.770488067e-07
3.820389168e-07
3.935900893e-07
4.124307991e-07
4.399534345e-07
4.793041797e-07
5.35368485e-07
6.151043448e-07
7.282435301e-07
8.886340712e-07
1.116761167e-06
1.44559081e-06
1.929766218e-06
2.674127681e-06
3.888777153e-06
6.013550126e-06
9.993367163e-06
1.788914224e-05
3.423431102e-05
6.908774722e-05
0.0001450104099
0.000313171657
0.0006907937326
0.001166162399
0.001166156239
0.00116576507
0.001164849575
0.001164499926
0.001164448113
0.001164506554
0.001164595828
0.001164685708
0.001164767637
0.001164842346
0.001164914651
0.001164991694
0.001165083122
0.001165206101
0.001165376953
0.001165672562
0.0004174988497
0.001253861691
0.001691855922
0.001424416285
0.0008262736335
0.0003898356039
0.0001840578471
1.762562486e-05
1.121113177e-06
7.578381364e-07
6.573554078e-07
6.02523833e-07
5.624565133e-07
5.450759212e-07
5.662009877e-07
4.760528988e-07
4.081621055e-07
3.641314965e-07
3.427026202e-07
3.340717524e-07
3.343981145e-07
3.414902574e-07
3.552336744e-07
3.76006767e-07
4.058410777e-07
4.482488669e-07
5.083514377e-07
5.932659166e-07
7.128873377e-07
8.812957517e-07
1.11927628e-06
1.459927658e-06
1.958227728e-06
2.719259914e-06
3.954910387e-06
6.110251179e-06
1.014128254e-05
1.812861292e-05
3.463594612e-05
6.975829787e-05
0.0001460672417
0.0003145978323
0.0006919094237
0.001166441392
0.001166312166
0.001165839443
0.001164918446
0.001164567488
0.001164504243
0.001164550377
0.001164629434
0.001164711701
0.001164788301
0.001164859447
0.001164929459
0.00116500507
0.00116509559
0.001165218061
0.001165388752
0.001165686108
0.0004090748658
0.001207883757
0.00153208558
0.001187462487
0.0006013364737
0.0002997060711
0.0001218758418
1.205982038e-05
9.220222494e-07
6.48159966e-07
5.666164895e-07
5.200408359e-07
4.865841722e-07
4.715279388e-07
4.879680127e-07
4.098276559e-07
3.522341785e-07
3.164788244e-07
3.008307868e-07
2.9635375e-07
2.994003839e-07
3.090776497e-07
3.248570126e-07
3.478095334e-07
3.803923013e-07
4.264010108e-07
4.911487206e-07
5.819292789e-07
7.088796693e-07
8.864422244e-07
1.135892176e-06
1.490775565e-06
2.006845112e-06
2.790317394e-06
4.056669539e-06
6.260197588e-06
1.037672981e-05
1.852565637e-05
3.534300813e-05
7.1054049e-05
0.0001484543655
0.0003189335275
0.0006995157792
0.001166714593
0.001166466221
0.001165909209
0.001164986175
0.001164635094
0.001164561006
0.001164595011
0.001164663805
0.001164738321
0.001164809442
0.001164876896
0.001164944532
0.001165018677
0.001165108312
0.00116523033
0.001165400892
0.001165699774
0.0003991309566
0.001157604498
0.001367517737
0.0009513649878
0.0004562236755
0.0002366449562
5.879293032e-05
6.700754608e-06
7.470687694e-07
5.56621383e-07
4.899973693e-07
4.503243661e-07
4.223655372e-07
4.0959723e-07
4.205922809e-07
3.532787864e-07
3.050464994e-07
2.768610171e-07
2.663960661e-07
2.652842361e-07
2.713122922e-07
2.831708896e-07
3.009999253e-07
3.263700283e-07
3.620664698e-07
4.120982824e-07
4.819503283e-07
5.791265886e-07
7.140803068e-07
9.017228466e-07
1.163971933e-06
1.53508356e-06
2.07195885e-06
2.882725387e-06
4.188040966e-06
6.454942455e-06
1.068680819e-05
1.905865603e-05
3.631595017e-05
7.28971827e-05
0.0001520099452
0.0003258284229
0.0007128327332
0.001166975739
0.001166613986
0.001165971254
0.001165051905
0.001164701699
0.001164617484
0.00116463975
0.001164698443
0.00116476524
0.001164830854
0.001164894577
0.00116495981
0.00116503249
0.001165121283
0.001165242907
0.001165413374
0.001165713569
0.0003873696827
0.001100573029
0.001196732804
0.0007226744638
0.0003589649833
0.000185636872
3.040746572e-05
3.480510196e-06
6.091887892e-07
4.800414051e-07
4.25479608e-07
3.915708707e-07
3.681428652e-07
3.574313271e-07
3.627900181e-07
3.051080384e-07
2.653244323e-07
2.43994e-07
2.381002648e-07
2.40144017e-07
2.486482973e-07
2.62519003e-07
2.824899439e-07
3.105210813e-07
3.496376276e-07
4.040164134e-07
4.793170111e-07
5.832939062e-07
7.267808905e-07
9.252440094e-07
1.201367096e-06
1.590337831e-06
2.150532473e-06
2.992681901e-06
4.344053143e-06
6.687583991e-06
1.106113741e-05
1.971048461e-05
3.75238411e-05
7.522741677e-05
0.0001566094182
0.0003350138857
0.0007312630621
0.001167220599
0.001166752382
0.001166023318
0.00116511506
0.001164766535
0.001164672975
0.001164684042
0.001164732948
0.001164792188
0.001164852367
0.00116491239
0.001164975242
0.001165046487
0.001165134498
0.001165255789
0.001165426197
0.0011657275
0.00037421822
0.001035622327
0.001023104988
0.0005466226568
0.0002795653836
0.0001389475887
1.845600469e-05
1.909573587e-06
5.031109535e-07
4.142850947e-07
3.709386193e-07
3.416732168e-07
3.218039742e-07
3.128365688e-07
3.128103426e-07
2.638378911e-07
2.318106424e-07
2.167191298e-07
2.144703761e-07
2.19733829e-07
2.303661523e-07
2.46202894e-07
2.684561966e-07
2.993699058e-07
3.421431167e-07
4.011011621e-07
4.820959036e-07
5.931712336e-07
7.455933972e-07
9.554518264e-07
1.24638416e-06
1.654446711e-06
2.24003841e-06
3.117038294e-06
4.520637808e-06
6.952580028e-06
1.149157515e-05
2.046802749e-05
3.894349831e-05
7.800033212e-05
0.0001621621243
0.0003462959642
0.0007543775649
0.001167446563
0.001166879422
0.001166063872
0.001165175275
0.001164829065
0.001164726964
0.001164727466
0.001164767009
0.00116481895
0.001164873844
0.001164930255
0.001164990786
0.001165060652
0.001165147951
0.001165268974
0.001165439355
0.001165741572
0.0003607130009
0.0009648436965
0.0008340141117
0.0004241134799
0.0002285598985
0.0001018523448
1.297067273e-05
1.105301859e-06
4.197972722e-07
3.573231076e-07
3.222983552e-07
2.980526618e-07
2.812577099e-07
2.740021769e-07
2.693411421e-07
2.284725292e-07
2.036648578e-07
1.942079893e-07
1.954713092e-07
2.031830188e-07
2.157371294e-07
2.335696657e-07
2.582494351e-07
2.922170034e-07
3.388067558e-07
4.024927805e-07
4.89341487e-07
6.077184862e-07
7.693629319e-07
9.910440172e-07
1.29733679e-06
1.725648483e-06
2.338354063e-06
3.253168515e-06
4.714443395e-06
7.245449215e-06
1.197169166e-05
2.132118797e-05
4.055749016e-05
8.118317713e-05
0.0001686021978
0.000359535157
0.0007818694151
0.001167652257
0.001166993963
0.001166091975
0.001165232346
0.001164888939
0.001164779093
0.001164769716
0.00116480039
0.001164845359
0.001164895174
0.001164948106
0.001165006409
0.00116507497
0.001165161641
0.001165282459
0.001165452846
0.001165755787
0.0003474232027
0.0008863825552
0.0006812157904
0.0003522665875
0.0001949436005
5.773123733e-05
8.753455337e-06
6.965829902e-07
3.540000807e-07
3.080674382e-07
2.797052363e-07
2.594911598e-07
2.459506378e-07
2.403258013e-07
2.318691664e-07
1.984880641e-07
1.803189443e-07
1.754568746e-07
1.801012959e-07
1.898657078e-07
2.042396663e-07
2.241285727e-07
2.513481729e-07
2.884774698e-07
3.389714718e-07
4.074626805e-07
5.002518444e-07
6.260511458e-07
7.971048303e-07
1.030910074e-06
1.353063765e-06
1.802454971e-06
2.443701206e-06
3.398896287e-06
4.922735242e-06
7.562615876e-06
1.249650317e-05
2.226239218e-05
4.23531576e-05
8.47528357e-05
0.0001758841869
0.0003746367166
0.0008135323073
0.001167837218
0.001167095501
0.001166113749
0.001165286187
0.00116494595
0.001164829127
0.001164810581
0.001164832923
0.00116487129
0.001164916275
0.001164965891
0.001165022082
0.00116508943
0.001165175563
0.00116529624
0.001165466671
0.001165770146
0.0003368612626
0.0007990985275
0.0005596774304
0.0002960071709
0.0001640563179
3.222668749e-05
4.209733238e-06
4.757636709e-07
3.01372422e-07
2.661893054e-07
2.4305923e-07
2.261284499e-07
2.150690016e-07
2.111941644e-07
1.997917144e-07
1.733343713e-07
1.612190525e-07
1.606720797e-07
1.677672887e-07
1.793222497e-07
1.954763812e-07
2.17475558e-07
2.473011187e-07
2.876397081e-07
3.420657756e-07
4.153810023e-07
5.141355672e-07
6.474075859e-07
8.279737334e-07
1.074110317e-06
1.412486913e-06
1.883619494e-06
2.554606202e-06
3.552440522e-06
5.143313488e-06
7.90127568e-06
1.306223532e-05
2.328614466e-05
4.432173024e-05
8.869398323e-05
0.000183979062
0.0003915417597
0.0008492402607
0.001168001623
0.001167183651
0.001166133803
0.001165336796
0.001165000001
0.001164876931
0.001164849925
0.001164864491
0.001164896655
0.001164937082
0.001164983572
0.001165037785
0.001165104023
0.001165189715
0.001165310314
0.001165480854
0.00116578465
0.0003323279392
0.0007058898198
0.0004678783343
0.0002504774577
0.0001345903117
1.941904722e-05
2.035960314e-06
3.487471149e-07
2.579984425e-07
2.301856653e-07
2.111897213e-07
1.970344312e-07
1.880483794e-07
1.857043242e-07
1.725063326e-07
1.525477747e-07
1.455638347e-07
1.489511975e-07
1.580144314e-07
1.711858836e-07
1.89102338e-07
2.132395161e-07
2.45691301e-07
2.892385218e-07
3.475780314e-07
4.256895218e-07
5.303844133e-07
6.71123208e-07
8.612408887e-07
1.119818494e-06
1.474701124e-06
1.968110625e-06
2.669866983e-06
3.712370413e-06
5.374447277e-06
8.259291135e-06
1.366614363e-05
2.43886969e-05
4.645767342e-05
9.299773078e-05
0.0001928712847
0.0004102207458
0.0008889328122
0.001168146105
0.00116725817
0.001166152257
0.001165384236
0.00116505108
0.001164922446
0.001164887671
0.001164895019
0.001164921392
0.001164957552
0.001165001118
0.0011650535
0.001165118742
0.001165204095
0.001165324683
0.001165495407
0.001165799296
0.0003369100976
0.0006114820295
0.000385797148
0.0002168101011
0.0001076737561
1.289733838e-05
1.005190376e-06
2.719879803e-07
2.213584497e-07
1.989347141e-07
1.833573878e-07
1.716762069e-07
1.64578078e-07
1.636572515e-07
1.497223432e-07
1.358193382e-07
1.336397943e-07
1.397900534e-07
1.504559747e-07
1.651307826e-07
1.847974224e-07
2.110743832e-07
2.461372518e-07
2.928564924e-07
3.550551172e-07
4.378983481e-07
5.484694246e-07
6.966264758e-07
8.962846405e-07
1.167371436e-06
1.538962302e-06
2.055093217e-06
2.788524478e-06
3.877563686e-06
5.614813347e-06
8.635097478e-06
1.430635991e-05
2.556777818e-05
4.875818271e-05
9.766061595e-05
0.0002025566891
0.0004306688564
0.0009326046743
0.001168271588
0.00116731911
0.001166169218
0.001165428611
0.001165099231
0.001164965666
0.001164923788
0.001164924469
0.001164945463
0.001164977654
0.001165018511
0.001165069216
0.001165133581
0.001165218699
0.001165339346
0.001165510344
0.001165814082
0.0003519544232
0.0005242609575
0.0003324580526
0.0001957896013
6.374359506e-05
9.196487055e-06
5.258977434e-07
2.212785885e-07
1.904297984e-07
1.721585188e-07
1.594472628e-07
1.499523515e-07
1.445459213e-07
1.449600916e-07
1.311498208e-07
1.227445622e-07
1.245264258e-07
1.327039596e-07
1.447319094e-07
1.608498186e-07
1.822553376e-07
2.106524434e-07
2.482845126e-07
2.981119039e-07
3.640884847e-07
4.515722529e-07
5.679285673e-07
7.234279111e-07
9.325876225e-07
1.216215761e-06
1.604673595e-06
2.143910838e-06
2.909839295e-06
4.047174607e-06
5.863450082e-06
9.027631868e-06
1.498177374e-05
2.68223794e-05
5.122275874e-05
0.0001026837135
0.0002130405479
0.0004529017019
0.0009802963331
0.00116837917
0.001167366725
0.001166184782
0.001165470054
0.00116514454
0.001165006627
0.001164958277
0.001164952824
0.001164968848
0.001164997369
0.001165035734
0.001165084924
0.001165148535
0.001165233524
0.001165354307
0.001165525614
0.001165828999
0.0003754200621
0.0004938642548
0.0002938606062
0.0001782786263
3.450252459e-05
3.842781538e-06
3.061452289e-07
1.855748886e-07
1.647017029e-07
1.496430948e-07
1.392440482e-07
1.315933023e-07
1.27685882e-07
1.292295744e-07
1.163350814e-07
1.126069665e-07
1.175931979e-07
1.272777588e-07
1.405386797e-07
1.580739949e-07
1.811996519e-07
2.116772315e-07
2.518147982e-07
3.046655416e-07
3.74319773e-07
4.663355281e-07
5.883704172e-07
7.511213441e-07
9.697289738e-07
1.265913296e-06
1.671373312e-06
2.234067033e-06
3.033265071e-06
4.220597545e-06
6.11970773e-06
9.436262635e-06
1.569192474e-05
2.815257492e-05
5.385288637e-05
0.0001080720156
0.0002243362963
0.0004769526104
0.001032088462
0.00116847003
0.001167401394
0.001166199039
0.001165508713
0.001165187119
0.001165045393
0.001164991166
0.001164980089
0.00116499154
0.001165016688
0.001165052779
0.001165100615
0.001165163598
0.001165248567
0.001165369558
0.001165541182
0.001165844035
0.0004038306028
0.0004378529247
0.0002680243791
0.0001603900751
1.89413177e-05
1.483119605e-06
2.069536837e-07
1.58606986e-07
1.431769009e-07
1.306548323e-07
1.220998219e-07
1.160458095e-07
1.135264853e-07
1.147686846e-07
1.047654088e-07
1.051721444e-07
1.123150298e-07
1.23199303e-07
1.376365918e-07
1.565703114e-07
1.813814728e-07
2.13880741e-07
2.564426535e-07
3.122173317e-07
3.854372247e-07
4.818675833e-07
6.094679858e-07
7.793752769e-07
1.007372922e-06
1.316122618e-06
1.738710068e-06
2.325192735e-06
3.1584063e-06
4.397412369e-06
6.38317594e-06
9.860688516e-06
1.6436852e-05
2.955927841e-05
5.665160624e-05
0.0001138336256
0.0002364639318
0.0005028692739
0.001088094422
0.001168545372
0.001167423566
0.001166212076
0.001165544747
0.001165227097
0.001165082045
0.001165022497
0.001165006281
0.001165013542
0.001165035606
0.00116506964
0.001165116285
0.001165178767
0.001165263823
0.001165385093
0.001165557041
0.001165859175
0.0004382890883
0.0004091886931
0.0002572786689
0.0001399734584
1.116669371e-05
5.414563718e-07
1.607154019e-07
1.368977951e-07
1.248172901e-07
1.143908281e-07
1.074512163e-07
1.028736151e-07
1.014230979e-07
1.012232176e-07
9.598266037e-08
9.969037587e-08
1.083229212e-07
1.202484223e-07
1.358305551e-07
1.561312063e-07
1.825751291e-07
2.170216898e-07
2.619149623e-07
3.20506256e-07
3.971755279e-07
4.979021827e-07
6.309569453e-07
8.079292951e-07
1.045263882e-06
1.366592412e-06
1.806434354e-06
2.417035866e-06
3.285005541e-06
4.577368333e-06
6.65366258e-06
1.030090837e-05
1.721704587e-05
3.104415612e-05
5.962334127e-05
0.0001199793825
0.0002494491622
0.0005307116714
0.001148452788
0.001168606381
0.001167433708
0.001166223977
0.001165578315
0.001165264612
0.001165116677
0.001165052323
0.001165031427
0.001165034864
0.001165054125
0.001165086314
0.001165131928
0.001165194037
0.001165279286
0.001165400902
0.001165573146
0.001165874407
0.0004758928526
0.0004017470496
0.0002558115844
9.609054013e-05
5.686874236e-06
2.223958245e-07
1.345781713e-07
1.187043654e-07
1.089779616e-07
1.005696279e-07
9.491813615e-08
9.156010639e-08
9.117918441e-08
9.05910753e-08
8.95445709e-08
9.559719736e-08
1.05368551e-07
1.182529709e-07
1.34944947e-07
1.565645194e-07
1.845742855e-07
2.208839776e-07
2.680102718e-07
3.293096826e-07
4.093147129e-07
5.142254357e-07
6.52632301e-07
8.365893487e-07
1.083219945e-06
1.417153176e-06
1.874388284e-06
2.50944872e-06
3.41292772e-06
4.760363968e-06
6.931166917e-06
1.075718263e-05
1.803338698e-05
3.260951894e-05
6.277368475e-05
0.0001265224164
0.0002633224284
0.0005605498633
0.001169778439
0.001168654207
0.00116743226
0.001166234822
0.001165609577
0.001165299802
0.001165149386
0.001165080706
0.001165055559
0.001165055521
0.001165072249
0.001165102801
0.001165147542
0.001165209401
0.00116529495
0.001165416967
0.00116558941
0.001165889731
0.0005328239817
0.000410811785
0.0002599188174
4.74504545e-05
1.56424675e-06
1.385821716e-07
1.159708792e-07
1.036142636e-07
9.569180194e-08
8.871537735e-08
8.420860828e-08
8.203351825e-08
8.271373714e-08
8.2615539e-08
8.497020502e-08
9.261030533e-08
1.032743749e-07
1.170632547e-07
1.348191924e-07
1.576973342e-07
1.8719746e-07
2.252815924e-07
2.74541913e-07
3.384438882e-07
4.216772577e-07
5.306687675e-07
6.743365845e-07
8.65210608e-07
1.121109858e-06
1.467687686e-06
1.942468613e-06
2.602342339e-06
3.542103959e-06
4.946377428e-06
7.215790603e-06
1.122991371e-05
1.888697387e-05
3.425805408e-05
6.610895381e-05
0.0001334773593
0.0002781174368
0.0005924611851
0.00116985912
0.001168689958
0.001167419609
0.001166244689
0.001165638685
0.001165332805
0.001165180271
0.001165107709
0.001165078714
0.001165075532
0.001165089986
0.0011651191
0.00116516312
0.001165224856
0.001165310808
0.001165433255
0.00116560573
0.001165905145
0.0005888859625
0.0004111560295
0.0002578512722
2.254965535e-05
3.82500315e-07
1.131893245e-07
1.013644901e-07
9.113306014e-08
8.44325343e-08
7.867814125e-08
7.523625249e-08
7.419833577e-08
7.59060859e-08
7.691563134e-08
8.176393895e-08
9.046159187e-08
1.01890765e-07
1.165367593e-07
1.353026748e-07
1.593727259e-07
1.90284769e-07
2.300551243e-07
2.813542458e-07
3.477600245e-07
4.341237152e-07
5.471042356e-07
6.959549405e-07
8.936924497e-07
1.158848055e-06
1.518126101e-06
2.010621878e-06
2.695681414e-06
3.672525759e-06
5.13545883e-06
7.507726255e-06
1.171962709e-05
1.977908737e-05
3.599275204e-05
6.96360274e-05
0.0001408599713
0.0002938702863
0.0006265282894
0.001169924888
0.001168714695
0.001167396048
0.001166253651
0.001165665783
0.001165363753
0.001165209431
0.001165133396
0.001165100931
0.001165094916
0.001165107344
0.001165135212
0.00116517866
0.001165240393
0.001165326847
0.001165449717
0.001165622183
0.001165920622
0.0006448163464
0.0004070199052
0.0002461505944
1.13757524e-05
1.501478486e-07
9.839962165e-08
8.91837827e-08
8.067895206e-08
7.495275547e-08
7.024588403e-08
6.78215142e-08
6.788876526e-08
7.057253067e-08
7.299573852e-08
7.950844808e-08
8.896137182e-08
1.010866942e-07
1.165412774e-07
1.362593259e-07
1.614531566e-07
1.937001604e-07
2.350730698e-07
2.883232295e-07
3.571441544e-07
4.465525104e-07
5.634445075e-07
7.174158065e-07
9.219804146e-07
1.196398498e-06
1.568452273e-06
2.078853759e-06
2.789497152e-06
3.804261898e-06
5.327751715e-06
7.807284242e-06
1.222700417e-05
2.071123021e-05
3.781694762e-05
7.336236706e-05
0.0001486870711
0.0003106191113
0.0006628379765
0.001169977009
0.001168729451
0.001167361752
0.001166261776
0.001165691008
0.001165392774
0.001165236961
0.00116515783
0.001165122248
0.001165113695
0.001165124332
0.001165151138
0.001165194156
0.001165256008
0.001165343052
0.001165466315
0.001165638878
0.001165936104
0.0006791964281
0.0004018225972
0.0002217233494
6.775107036e-06
1.136946264e-07
8.645048736e-08
7.897587495e-08
7.185919703e-08
6.694473178e-08
6.318931086e-08
6.178201423e-08
6.292159219e-08
6.650146903e-08
7.034694953e-08
7.791678725e-08
8.797487843e-08
1.007474499e-07
1.169606815e-07
1.375720119e-07
1.638227215e-07
1.973313441e-07
2.402291081e-07
2.953506433e-07
3.665079761e-07
4.588867471e-07
5.796252823e-07
7.386684537e-07
9.500382199e-07
1.233740314e-06
1.618661939e-06
2.147178325e-06
2.883825718e-06
3.937383202e-06
5.523399431e-06
8.114771672e-06
1.275271621e-05
2.168488112e-05
3.973392759e-05
7.729534764e-05
0.0001569753353
0.0003284018307
0.0007014767973
0.001170016633
0.001168735242
0.001167325087
0.001166269129
0.001165714488
0.001165419985
0.001165262952
0.001165181074
0.001165142702
0.001165131888
0.001165140958
0.001165166877
0.001165209603
0.001165271691
0.001165359403
0.001165483023
0.001165655812
0.001165951547
0.0006773851268
0.0004028729879
0.0001862940154
2.666668099e-06
9.430475335e-08
7.654133095e-08
7.036838034e-08
6.437700398e-08
6.017293107e-08
5.733460541e-08
5.695950849e-08
5.91035669e-08
6.343642651e-08
6.854447822e-08
7.680658426e-08
8.739422864e-08
1.007704183e-07
1.176926284e-07
1.391404837e-07
1.663854574e-07
2.010887883e-07
2.454420986e-07
3.023654191e-07
3.757918427e-07
4.71079281e-07
5.95612748e-07
7.59693119e-07
9.778608474e-07
1.270884097e-06
1.668782495e-06
2.215641656e-06
2.978736107e-06
4.071995048e-06
5.722582765e-06
8.430536006e-06
1.329747524e-05
2.270155282e-05
4.174698917e-05
8.144228775e-05
0.0001657412066
0.0003472556819
0.0007425295093
0.001170044797
0.001168732745
0.001167290605
0.00116627577
0.00116573634
0.0011654455
0.001165287489
0.001165203187
0.001165162331
0.001165149518
0.001165157232
0.001165182431
0.001165224996
0.001165287434
0.001165375877
0.001165499819
0.001165672984
0.001165966919
0.0006707745961
0.0004072093166
0.0001016470623
9.18759695e-07
8.136374562e-08
6.833707961e-08
6.313362784e-08
5.805087281e-08
5.449145452e-08
5.256705285e-08
5.320896154e-08
5.623836306e-08
6.100056542e-08
6.729866569e-08
7.606322454e-08
8.713269176e-08
1.010700083e-07
1.18652796e-07
1.408834319e-07
1.690647787e-07
2.049022143e-07
2.506493905e-07
3.093136011e-07
3.849512977e-07
4.830957607e-07
6.113830726e-07
7.804768276e-07
1.005446501e-06
1.307839651e-06
1.718835988e-06
2.284279209e-06
3.074280526e-06
4.208178723e-06
5.925448216e-06
8.754871785e-06
1.386190217e-05
2.376258823e-05
4.385909665e-05
8.580983257e-05
0.0001749997267
0.000367214931
0.0007860744313
0.00117006245
0.001168722407
0.001167258158
0.001166281754
0.001165756674
0.001165469421
0.001165310654
0.001165224224
0.001165181171
0.001165166603
0.001165173161
0.001165197798
0.001165240327
0.001165303225
0.001165392449
0.001165516688
0.001165690377
0.001165982158
0.0006583112866
0.000408044208
5.646997318e-05
3.515198382e-07
7.180337118e-08
6.152698714e-08
5.703878988e-08
5.269940214e-08
4.976499545e-08
4.876837825e-08
5.036020226e-08
5.412301398e-08
5.938826494e-08
6.642952268e-08
7.560240383e-08
8.711514373e-08
1.015728536e-07
1.197709009e-07
1.427352105e-07
1.718011032e-07
2.087193617e-07
2.558070354e-07
3.161603414e-07
3.939612027e-07
4.949212025e-07
6.269317666e-07
8.010258861e-07
1.03281265e-06
1.344636084e-06
1.768863923e-06
2.353146104e-06
3.170531128e-06
4.34603562e-06
6.132160793e-06
9.088083963e-06
1.444660358e-05
2.486925233e-05
4.607298239e-05
9.040402457e-05
0.0001847644458
0.0003883102197
0.0008321811926
0.001170070472
0.0011687046
0.001167227609
0.001166287132
0.001165775591
0.001165491846
0.001165332522
0.00116524424
0.001165199256
0.001165183162
0.001165188753
0.001165212976
0.001165255589
0.001165319052
0.00116540909
0.001165533612
0.001165707968
0.001165997223
0.0006396610498
0.0003989829791
2.784496625e-05
1.5877402e-07
6.422077614e-08
5.590065465e-08
5.193532056e-08
4.819924693e-08
4.589443569e-08
4.581835753e-08
4.823631376e-08
5.257461345e-08
5.830526487e-08
6.582930523e-08
7.535877729e-08
8.728008512e-08
1.022202964e-07
1.209924534e-07
1.446467958e-07
1.745520527e-07
2.125054964e-07
2.608887593e-07
3.228884973e-07