/*--------------------------------*- C++ -*----------------------------------*\
  =========                 |
  \\      /  F ield         | OpenFOAM: The Open Source CFD Toolbox
   \\    /   O peration     | Website:  https://openfoam.org
    \\  /    A nd           | Version:  12
     \\/     M anipulation  |
\*---------------------------------------------------------------------------*/
FoamFile
{
    format      ascii;
    class       volScalarField;
    location    "1100";
    object      Ma;
}
// * * * * * * * * * * * * * * * * * * * * * * * * * * * * * * * * * * * * * //

dimensions      [];

internalField   nonuniform List<scalar> 
16200
(
0.5344057014
0.6373301229
0.6954389153
0.7415353396
0.7848688133
0.8310171302
0.8819499165
0.9283643988
0.9450790464
0.9455127414
0.9444047788
0.9433591533
0.9420694422
0.9406474154
0.9389761668
0.9370614847
0.9348299878
0.9322415655
0.9292274515
0.9257210857
0.9216425503
0.9169055437
0.9114156298
0.9050734856
0.8977792279
0.8894401656
0.879983523
0.8693751239
0.8576446807
0.844915155
0.8314280073
0.8175482472
0.8037333363
0.7904661851
0.7781753344
0.7671737727
0.7576342733
0.7495983768
0.7430043572
0.7377205851
0.733576326
0.7303870337
0.7279729583
0.7261712361
0.7248421227
0.7238708563
0.7231662833
0.7226580066
0.7222928012
0.7220311162
0.7218439248
0.7217100966
0.721614336
0.7215454873
0.7214955282
0.7214582796
0.7214302338
0.7214076525
0.7213889529
0.7213673856
0.5475438974
0.6539790911
0.7139897608
0.761643593
0.8068220093
0.8554362793
0.9080974149
0.9479824311
0.9574250873
0.9571141024
0.9559405341
0.9548078708
0.9534197758
0.9518798592
0.9500658177
0.9479782929
0.9455392091
0.9427007217
0.9393872529
0.9355228675
0.931018328
0.9257765784
0.9196924252
0.9126560819
0.9045594238
0.895306571
0.8848311791
0.8731210676
0.8602499931
0.8464107716
0.8319346971
0.8172757853
0.8029498797
0.7894462219
0.7771483069
0.7662931114
0.756972961
0.7491644764
0.7427652668
0.737626248
0.7335761414
0.7304391167
0.728047271
0.7262488253
0.7249126849
0.7239299674
0.7232130924
0.722693527
0.7223188309
0.722049604
0.7218566594
0.7217185888
0.7216197877
0.7215488576
0.7214974646
0.7214593832
0.7214306081
0.7214077584
0.7213888302
0.7213657567
0.5604206071
0.670357386
0.732269111
0.7815721068
0.8287586395
0.8796727339
0.9329942278
0.9635220525
0.9677485025
0.9669111367
0.9656644054
0.964430479
0.962914756
0.9612227789
0.959228479
0.9569255512
0.9542314774
0.9510895881
0.9474168383
0.9431268396
0.9381198348
0.9322867999
0.9255107874
0.9176715706
0.9086549306
0.8983676274
0.8867608002
0.8738619364
0.8598131114
0.844903332
0.8295714776
0.8143586187
0.7998154049
0.786401972
0.7744231666
0.7640169479
0.7551839758
0.7478331358
0.7418227599
0.7369892037
0.7331638909
0.7301831749
0.7278946419
0.7261613633
0.7248645527
0.72390455
0.7232002104
0.7226872206
0.7223157709
0.7220480231
0.7218556779
0.7217178101
0.7216190648
0.7215481712
0.7214968296
0.7214588722
0.7214301409
0.7214074576
0.7213888774
0.7213658596
0.5723808435
0.6854470392
0.749096458
0.8001824742
0.8496909796
0.902655722
0.9536565634
0.9742912151
0.9754913586
0.9744966285
0.9731627327
0.9718113784
0.9701546713
0.9682924372
0.966096022
0.9635501532
0.9605675156
0.9570813686
0.9530002952
0.9482265445
0.9426490871
0.9361467697
0.9285918252
0.9198567259
0.9098276918
0.8984254046
0.8856357949
0.8715498435
0.8564049535
0.8406062166
0.8246991632
0.8092843083
0.7949021151
0.7819394224
0.7705932208
0.7608917137
0.752746805
0.7460089867
0.7405075328
0.736072643
0.7325445116
0.729775956
0.7276332496
0.7259969307
0.7247627613
0.7238422423
0.7231622878
0.7226641171
0.7223015705
0.7220391377
0.7218499653
0.721714009
0.7216164421
0.7215463099
0.721495489
0.7214579295
0.7214294287
0.7214069632
0.7213887026
0.7213654369
0.5832350575
0.6991753985
0.764441872
0.8172990956
0.8693076792
0.92431256
0.9686174008
0.9809393479
0.9807754047
0.9796903491
0.9782412476
0.9767501431
0.9749282985
0.9728669009
0.9704360739
0.9676099715
0.9642962613
0.9604171
0.9558717453
0.9505502237
0.9443297333
0.9370776666
0.9286580068
0.9189415655
0.90782488
0.8952581256
0.8812844293
0.8660858683
0.8500195438
0.8336132307
0.8174973996
0.8022865536
0.7884598975
0.7762928776
0.7658576824
0.7570740499
0.7497765401
0.7437711882
0.7388701434
0.7349058477
0.7317324669
0.7292223294
0.7272623013
0.725751821
0.7246024749
0.7237381343
0.7230948909
0.7226204863
0.7222732415
0.7220206422
0.7218377971
0.7217059312
0.721611031
0.7215426623
0.7214930335
0.7214563018
0.7214283377
0.7214062457
0.7213884433
0.7213651428
0.5926169468
0.7112123268
0.7780103503
0.8326777848
0.8871744158
0.94362992
0.9784792585
0.9846034589
0.983496758
0.9823611495
0.980769421
0.9791221466
0.9771177919
0.9748348928
0.9721430944
0.9690041358
0.9653198479
0.9610002375
0.9559344963
0.9500005384
0.9430648725
0.9349863224
0.9256259176
0.9148618002
0.9026150017
0.8888860521
0.8738022839
0.8576636575
0.8409596978
0.8243256132
0.8084326988
0.7938525562
0.7809554065
0.769880221
0.7605722455
0.7528554739
0.7465052732
0.7413001692
0.7370478945
0.7335912083
0.7308026429
0.7285760754
0.7268197911
0.7254524996
0.7244019151
0.723604656
0.7230064381
0.7225619968
0.7222345813
0.7219950663
0.7218208471
0.7216946741
0.7216035417
0.7215376819
0.7214897418
0.7214541578
0.7214269479
0.7214053375
0.7213880533
0.7213647208
0.6004165532
0.7215797356
0.7899284471
0.8466486683
0.9036709529
0.9590516397
0.9838888149
0.9865268493
0.983894016
0.9826793425
0.9808791348
0.9790510401
0.9768367638
0.9742987973
0.9713068892
0.9678092856
0.9637016994
0.958882048
0.9532297923
0.9466120091
0.9388867224
0.9299084492
0.9195427614
0.9076876656
0.8943077404
0.8794794967
0.8634422182
0.8466317715
0.829662998
0.8132398308
0.7980156685
0.7844635206
0.7728104958
0.7630511737
0.7550153462
0.7484516002
0.7430968216
0.7387185886
0.7351313784
0.7321946402
0.7298021949
0.7278703092
0.726328529
0.7251143773
0.7241713013
0.7234484644
0.7229011925
0.7224913332
0.722187252
0.7219634197
0.7217997156
0.7216805849
0.7215941682
0.7215314718
0.7214856641
0.7214515213
0.7214252673
0.721404248
0.721387558
0.7213642553
0.6065611262
0.7302793089
0.8003525609
0.8594559064
0.9190316918
0.9691335853
0.9843538376
0.9834446281
0.9820101107
0.9805698855
0.9787031036
0.97666382
0.9742065926
0.9713753807
0.968040583
0.9641363974
0.9595520895
0.9541736094
0.9478708963
0.940501664
0.9319186904
0.9219788907
0.910563908
0.8976092253
0.8831468389
0.8673566416
0.8506117092
0.8334850084
0.8166861111
0.8009306842
0.786792367
0.7746016883
0.7644269227
0.7561265882
0.7494363486
0.7440533278
0.7396962523
0.7361362067
0.7332032159
0.7307778359
0.7287766642
0.7271381784
0.7258122679
0.7247542047
0.7239222631
0.723277516
0.7227845233
0.7224120716
0.7221336044
0.7219272276
0.7217753771
0.7216642754
0.7215832861
0.7215242566
0.7214809292
0.7214484635
0.7214233286
0.721402992
0.7213869566
0.7213637147
0.6109924269
0.7372547067
0.8093892379
0.8711008721
0.9326548545
0.974555882
0.9811405969
0.9798576057
0.9780364523
0.9764495513
0.9743713273
0.9720974269
0.9693704082
0.9662138185
0.9624984466
0.9581438463
0.9530321449
0.9470377082
0.9400220489
0.9318369661
0.9223364026
0.9113904189
0.8989125478
0.8848971092
0.8694691983
0.8529359636
0.8358130379
0.8187898739
0.8026192855
0.7879636992
0.7752637961
0.7646824104
0.7561319958
0.7493558168
0.7440218864
0.7397997165
0.7364075637
0.7336312853
0.7313225265
0.7293853934
0.7277594568
0.7264044117
0.7252890423
0.7243849194
0.7236639269
0.7230981426
0.7226607531
0.7223271169
0.7220755604
0.7218877397
0.7217486295
0.7216462438
0.7215711986
0.7215162145
0.7214756373
0.7214450379
0.7214211559
0.7214015817
0.7213862573
0.721363109
0.6139792805
0.7429432907
0.8174372844
0.8818126979
0.9432201819
0.9746991557
0.9755177664
0.9740543003
0.9721766633
0.970395825
0.9681113462
0.9655732495
0.962542848
0.95902166
0.9548803391
0.9500238885
0.9443273436
0.9376553403
0.9298640834
0.9208053571
0.9103433072
0.8983744072
0.88486234
0.8698835671
0.8536809153
0.8367037866
0.8196002293
0.8031331992
0.788034124
0.774851078
0.7638558897
0.7550390279
0.7481754907
0.7429214328
0.7389045272
0.7357878208
0.7333030294
0.7312586339
0.729531423
0.7280498215
0.7267755707
0.7256880294
0.72477311
0.724017027
0.7234038962
0.7229157502
0.7225336595
0.7222390647
0.7220148729
0.7218461197
0.72172023
0.7216269721
0.7215582042
0.721507524
0.7214698907
0.7214412999
0.721418775
0.721400029
0.7213854644
0.7213624336
0.615678361
0.7476327322
0.8248041386
0.8920852971
0.9497117317
0.968947854
0.9682574669
0.9666652251
0.9646292521
0.962632872
0.9601084452
0.9572731327
0.9539014619
0.949972348
0.9453560287
0.9399441802
0.9336058989
0.9261992464
0.9175795619
0.9076058761
0.8961633048
0.8831903996
0.8687222359
0.8529422217
0.8362307315
0.819179035
0.8025348184
0.787073709
0.7734391662
0.7620181279
0.7528990886
0.745913741
0.7407280614
0.7369415525
0.7341664274
0.7320762312
0.7304259999
0.7290515286
0.7278561365
0.726792048
0.7258416789
0.7250021666
0.7242746437
0.7236582512
0.7231479153
0.7227345251
0.722406234
0.722150012
0.7219529848
0.7218033409
0.7216908219
0.7216068753
0.7215445632
0.7214983429
0.7214637805
0.7214372993
0.7214162094
0.7213983455
0.7213845826
0.7213616888
0.616157627
0.7515595904
0.8315484647
0.901409229
0.9520191456
0.9614146846
0.9594673426
0.9577673298
0.9555606479
0.9533196624
0.9505263982
0.9473583236
0.943605427
0.9392245754
0.9340854486
0.9280681163
0.921037078
0.9128472761
0.9033585259
0.8924462659
0.8800305798
0.8661119265
0.8508213191
0.8344720033
0.8175896149
0.8008851551
0.7851517423
0.771108787
0.7592551449
0.7497908357
0.7426273565
0.7374644294
0.7338918474
0.7314812021
0.7298497245
0.728693762
0.7277977623
0.7270269082
0.7263108212
0.725624121
0.7249679884
0.7243553145
0.7238005364
0.7233140417
0.7229001819
0.7225576215
0.7222807925
0.7220616228
0.7218910667
0.7217602099
0.7216609486
0.7215863105
0.7215305037
0.7214888115
0.7214573896
0.7214330818
0.7214134809
0.7213965418
0.7213836161
0.7213608734
0.6155196914
0.7550287103
0.8380277546
0.9086503963
0.9467507345
0.9518547173
0.9493515112
0.9475383986
0.9451247666
0.9426106958
0.9395178216
0.9359829261
0.931810694
0.9269367017
0.9212292419
0.9145583335
0.9067857363
0.8977683687
0.8873788702
0.8755222834
0.8621722957
0.8474149798
0.8315016044
0.814888828
0.7982352542
0.782326096
0.7679321927
0.7556524641
0.7458037093
0.7383959056
0.7331864322
0.7297769573
0.7277134641
0.7265640244
0.7259661729
0.7256469506
0.7254231647
0.7251894796
0.7249004806
0.724551243
0.7241596173
0.7237522243
0.7233549738
0.7229879217
0.7226635483
0.7223872716
0.7221590311
0.7219751523
0.721830025
0.721717366
0.7216310505
0.7215655733
0.7215162182
0.7214790508
0.7214507904
0.7214286884
0.7214106098
0.7213946284
0.7213825695
0.7213599867
0.6139721523
0.7582784048
0.8445298338
0.9130396483
0.9399955534
0.9408049253
0.9380760382
0.9361133774
0.9334707368
0.9306589742
0.927236994
0.923300755
0.9186677135
0.9132534961
0.9069249909
0.8995456859
0.8909793734
0.881093467
0.8697855254
0.8570071796
0.8428077634
0.8273832526
0.8111226478
0.7946221853
0.7786374699
0.7639646486
0.7512835897
0.7410244351
0.7333078349
0.7279702861
0.7246482383
0.7228806252
0.7221980899
0.7221839775
0.7225063303
0.7229270351
0.7232958104
0.723535532
0.7236237333
0.7235737497
0.7234179859
0.7231948657
0.7229400796
0.7226819135
0.722439794
0.7222249563
0.7220421301
0.7218915084
0.7217705378
0.7216753017
0.7216014759
0.7215449036
0.7215018667
0.7214691639
0.7214440465
0.7214241558
0.7214076147
0.7213926155
0.7213814475
0.7213590282
0.6119486197
0.761540355
0.8505383495
0.9139674898
0.9294454045
0.928684911
0.9258318731
0.9236634178
0.9207567393
0.9176071767
0.9138090831
0.9094196415
0.9042677326
0.8982524554
0.8912412815
0.8830966205
0.8736909006
0.862912367
0.8506981989
0.8370667846
0.8221667988
0.80632391
0.7900677617
0.7741078078
0.7592402899
0.7462026742
0.7355268567
0.7274485993
0.7219004905
0.7185758658
0.7170273225
0.7167634321
0.7173221961
0.7183152932
0.7194470673
0.7205155112
0.721402136
0.7220559161
0.7224749799
0.7226886732
0.7227419309
0.7226832085
0.7225564542
0.7223969003
0.7222298649
0.7220715585
0.7219308496
0.7218113106
0.7217130888
0.7216343823
0.7215724919
0.7215244908
0.7214875795
0.7214592368
0.7214372124
0.7214195165
0.7214045126
0.721390513
0.7213802537
0.7213579976
0.6098674719
0.765236451
0.8550163804
0.9087429285
0.9173712975
0.9156084798
0.9126206789
0.910191517
0.9069800475
0.9034468474
0.8992221011
0.8943269282
0.8886010316
0.8819306965
0.8741862021
0.8652347399
0.8549656713
0.8433017512
0.8302390834
0.815886088
0.8005118307
0.7845793567
0.7687410863
0.7537717823
0.7404412581
0.7293654199
0.7208916979
0.715059515
0.7116385646
0.7102162272
0.7102969237
0.711385647
0.7130441714
0.7149204397
0.7167574114
0.7183883949
0.7197245258
0.7207383296
0.7214460835
0.7218909745
0.7221286027
0.7222158673
0.7222036296
0.7221329415
0.7220340861
0.7219275045
0.7218256219
0.7217349479
0.7216580039
0.721594867
0.7215442968
0.7215044811
0.7214734606
0.7214493407
0.7214303345
0.7214147989
0.7214013192
0.7213883304
0.7213789871
0.7213568947
0.6081539645
0.7688716134
0.8570315782
0.8995973492
0.9037288178
0.9015119891
0.8983686319
0.8956336028
0.892084863
0.8881320302
0.8834401617
0.8779967671
0.8716514594
0.8642817177
0.8557644934
0.8459810625
0.8348512873
0.8223514187
0.8085587157
0.7936921681
0.7781514486
0.7625260379
0.7475521679
0.7340081658
0.7225721163
0.7136925667
0.7075196923
0.7039145075
0.7025191568
0.7028530109
0.7044030538
0.7066908487
0.709312512
0.7119560317
0.7144027783
0.7165192674
0.7182435295
0.7195689527
0.720527586
0.7211744501
0.7215741372
0.7217905937
0.721880425
0.7218895256
0.7218523384
0.721792884
0.7217266305
0.7216626305
0.7216054835
0.7215569294
0.7215170321
0.7214849843
0.7214595916
0.721439534
0.7214234527
0.7214100286
0.7213980491
0.7213860754
0.7213776391
0.7213557187
0.6076305902
0.7718653366
0.8559982185
0.8887605941
0.8888950558
0.8864147704
0.8830769646
0.8799971159
0.8760754498
0.8716624415
0.8664573702
0.860417437
0.853403318
0.845290926
0.8359723695
0.8253568852
0.8134120667
0.8001871915
0.7858590147
0.7707680788
0.7554392917
0.7405585844
0.7268917836
0.7151561948
0.7058855011
0.6993374571
0.6954739693
0.6940090365
0.6944960047
0.696420437
0.6992759495
0.7026143429
0.7060717745
0.7093769819
0.7123478807
0.71488135
0.7169393759
0.7185335754
0.7197095598
0.7205323788
0.721074146
0.721404645
0.7215852192
0.7216657671
0.7216841979
0.7216675473
0.7216338772
0.7215944341
0.7215556314
0.7215206759
0.7214907932
0.7214660802
0.7214460354
0.7214298636
0.7214166003
0.7214052279
0.7213947155
0.7213837542
0.7213761845
0.7213544692
0.6091014829
0.7734895076
0.8519791045
0.8746022589
0.8729721864
0.8703097136
0.8667215654
0.8632483664
0.8589069821
0.8539829932
0.8482119107
0.8415264836
0.8338025313
0.824924741
0.8148112678
0.8034138198
0.7907635639
0.7769986231
0.7624068145
0.7474498522
0.732756664
0.7190640652
0.7071064011
0.6974830447
0.6905501923
0.686373912
0.6847532389
0.6852929599
0.6874943952
0.6908372079
0.6948387668
0.6990891805
0.7032666349
0.7071392343
0.710558603
0.713448829
0.715792943
0.7176183304
0.7189821736
0.7199579628
0.7206240597
0.7210550476
0.7213161504
0.7214605555
0.7215290448
0.7215511829
0.7215472353
0.7215303363
0.7215084787
0.7214861605
0.72146564
0.7214478245
0.7214328395
0.7214203675
0.7214098059
0.7214004167
0.721391331
0.7213813699
0.7213746154
0.7213531465
0.6127292913
0.7732151601
0.8427048698
0.8590891237
0.8559264499
0.8530593804
0.8491732228
0.845262204
0.8404603068
0.8349859214
0.8286137133
0.8212596989
0.8128194643
0.8031969739
0.7923468221
0.7802766567
0.7670956879
0.753043682
0.7385238727
0.7241057592
0.7104854075
0.6983946268
0.6884777342
0.681175204
0.6766547209
0.6748084806
0.6753075984
0.6776857431
0.6814235555
0.6860155574
0.6910137272
0.6960501551
0.700844447
0.7052014168
0.7090031044
0.7121976301
0.7147863313
0.7168101375
0.7183360467
0.7194446134
0.7202193573
0.72073878
0.7210712587
0.7212726641
0.7213861444
0.7214433764
0.7214664921
0.7214702461
0.721464004
0.7214533985
0.7214416042
0.721430254
0.721420039
0.7214110758
0.7214030938
0.7213956129
0.7213879072
0.7213789252
0.7213730028
0.721351753
0.6175921728
0.7711098186
0.8296037386
0.8416812783
0.8376468845
0.8345538188
0.8303345619
0.8259601192
0.8206779475
0.8146389411
0.8076584471
0.7996442622
0.7905161666
0.7802081175
0.7687227883
0.7561386132
0.7426573452
0.7286283515
0.7145630409
0.7011092804
0.6889802452
0.6788448013
0.6712105168
0.6663385797
0.6642173224
0.6645953796
0.6670538502
0.67108933
0.6761861359
0.6818676146
0.6877261184
0.6934362174
0.6987566787
0.7035257114
0.7076523746
0.7111058039
0.7139031563
0.7160969409
0.7177624492
0.7189861221
0.7198557116
0.720452893
0.7208485842
0.7211008268
0.721254706
0.7213436548
0.7213913805
0.7214140263
0.7214221488
0.7214223768
0.7214186969
0.7214133908
0.7214076592
0.7214020125
0.7213964847
0.7213908324
0.7213844553
0.7213764304
0.7213712975
0.7213502945
0.6214384397
0.7669972569
0.8155966078
0.8228026367
0.8181926075
0.8148324816
0.8102602361
0.8054051831
0.7996307782
0.7930230082
0.7854376424
0.7767847899
0.7670149872
0.7561055875
0.744122508
0.7312302859
0.7177331404
0.7040864538
0.6908862256
0.678814524
0.6685461658
0.6606370889
0.6554297675
0.6530063808
0.6532001054
0.6556520899
0.6598891266
0.665398371
0.6716850722
0.6783096229
0.6849067119
0.6911917881
0.6969596019
0.7020782183
0.7064804421
0.7101536654
0.7131286618
0.7154678138
0.7172534024
0.7185767547
0.7195290747
0.7201945855
0.7206462309
0.7209437911
0.7211339251
0.7212515182
0.7213216035
0.7213615112
0.7213828302
0.7213930623
0.7213969138
0.7213972455
0.7213957173
0.7213931968
0.7213899964
0.72138609
0.7213809859
0.7213738898
0.721369528
0.7213487766
0.6244811635
0.7604237219
0.7986133087
0.8026628009
0.7976927975
0.7940008511
0.7890540648
0.7836963011
0.7774101847
0.7702255188
0.7620388479
0.7527769765
0.7424317536
0.7310401253
0.7187459028
0.7058093895
0.6926355147
0.6797664324
0.6678444248
0.6575343817
0.6494220532
0.643916185
0.6411860424
0.6411518928
0.6435244565
0.6478734858
0.6537017833
0.6605075876
0.6678280463
0.6752643761
0.6824929518
0.6892672551
0.6954144464
0.7008289652
0.7054643401
0.7093237639
0.7124497094
0.714912969
0.7168017059
0.7182112898
0.7192357216
0.7199612477
0.7204624065
0.7208003517
0.7210230112
0.7211664629
0.7212568514
0.7213125193
0.7213459494
0.7213654085
0.7213762394
0.7213818207
0.721384225
0.7213846436
0.7213836444
0.7213813991
0.7213775086
0.7213713105
0.7213677099
0.7213472014
0.6257589768
0.7512642322
0.7798937663
0.7814336624
0.7761856199
0.7720845273
0.7667322679
0.760843275
0.7540217137
0.7462577709
0.7374910922
0.7276813947
0.7168742598
0.7051790304
0.6928257672
0.6801693994
0.6677002327
0.6560148454
0.6457558496
0.6375218255
0.6317715359
0.6287511275
0.6284662632
0.6307032615
0.6350854768
0.641143395
0.6483793754
0.6563166092
0.6645300556
0.6726623643
0.6804293111
0.6876189467
0.6940872264
0.699751707
0.7045839334
0.7086007543
0.7118546946
0.7144237131
0.7164009203
0.7178850209
0.7189722639
0.7197504806
0.720295443
0.7206693721
0.7209212066
0.7210879965
0.7211968138
0.7212668631
0.7213113996
0.7213393603
0.7213566512
0.7213671129
0.7213731893
0.721376365
0.7213774425
0.7213767718
0.7213740322
0.721368706
0.7213659048
0.7213455631
0.6246657146
0.7355778194
0.7594447814
0.759017599
0.7535460622
0.7489586661
0.7431769259
0.7367490807
0.7293967892
0.7210909476
0.7118176484
0.7015829455
0.6904956754
0.6787445698
0.6666460326
0.6546380706
0.6432701988
0.6331535796
0.6248852941
0.6189581164
0.6156825672
0.6151444463
0.6172080523
0.6215584531
0.6277645148
0.6353435334
0.6438141958
0.6527329406
0.6617147125
0.670442125
0.678667176
0.6862088361
0.6929484123
0.698823634
0.7038216862
0.7079712268
0.711333431
0.7139923734
0.716045327
0.7175937383
0.7187356463
0.7195601016
0.7201438068
0.7205497953
0.7208277974
0.7210156476
0.7211411882
0.721224355
0.7212790704
0.7213148578
0.7213381215
0.721353114
0.7213626135
0.7213683706
0.7213714027
0.7213722194
0.7213705662
0.7213661013
0.7213641551
0.7213438563
0.6208799566
0.7187606596
0.737144582
0.7352103886
0.7295684826
0.7244750738
0.718276253
0.7113512616
0.703526232
0.6947728574
0.685127676
0.6746534204
0.6635288042
0.6520235537
0.640532739
0.6295566786
0.619670257
0.6114573863
0.6054301852
0.6019500629
0.6011747862
0.6030457374
0.607314926
0.6135985956
0.6214390163
0.6303597647
0.6399066729
0.6496734345
0.6593145929
0.6685500297
0.6771644109
0.6850040669
0.6919725042
0.698025023
0.7031623947
0.7074235116
0.7108770134
0.7136122073
0.7157298706
0.7173336962
0.7185231308
0.7193881389
0.7200061009
0.7204406486
0.7207421192
0.720948972
0.721089685
0.7211848123
0.7212488517
0.7212918391
0.7213206196
0.7213398133
0.7213524986
0.7213606681
0.721365536
0.7213677521
0.7213671214
0.7213635261
0.7213623258
0.7213421028
0.6142011978
0.7000357689
0.7130932778
0.7100145965
0.7042274079
0.6986606757
0.6920837078
0.6847353068
0.6765327673
0.6674659107
0.6576269415
0.6471432666
0.636266015
0.6253404905
0.6148239087
0.6052499918
0.597181382
0.5911365189
0.5875142302
0.5865342113
0.5882109807
0.5923659602
0.5986696424
0.6066982529
0.6159892356
0.626085786
0.6365669341
0.6470645813
0.6572708786
0.666939671
0.6758847082
0.6839763682
0.6911375477
0.6973388581
0.7025929011
0.7069474696
0.71047767
0.7132773011
0.7154500934
0.7171015723
0.7183322729
0.7192328197
0.7198810591
0.7203410429
0.7206635587
0.7208875552
0.7210420306
0.7211480598
0.7212206356
0.7212702419
0.7213041133
0.7213271979
0.7213428438
0.7213532635
0.7213598517
0.721363379
0.721363709
0.7213609948
0.7213604334
0.7213403366
0.6046912795
0.6799452997
0.6875421151
0.6835734679
0.6776355203
0.6716464287
0.6647440323
0.6570632431
0.6486040781
0.639389215
0.6295702805
0.6193426245
0.6090258355
0.5990270598
0.5898411876
0.5820018972
0.5760235932
0.5723296131
0.5711905246
0.5726876882
0.5767115988
0.5829917206
0.5911457427
0.600733352
0.6113028651
0.6224253127
0.633715445
0.6448423115
0.6555327909
0.6655711987
0.6747969618
0.6831015197
0.6904247039
0.6967504977
0.7021018431
0.7065343095
0.7101286319
0.7129824789
0.7152020733
0.7168944267
0.7181608968
0.7190925554
0.7197675391
0.7202501697
0.7205915532
0.7208310133
0.7209979686
0.7211139309
0.721194318
0.7212500047
0.7212885697
0.7213152533
0.7213336463
0.7213461618
0.7213543586
0.7213591087
0.7213603421
0.7213585209
0.7213584583
0.7213385587
0.5925665313
0.6571220055
0.6606536083
0.6559747862
0.6498972578
0.6435552913
0.6364063248
0.6285137971
0.6199532257
0.6107917317
0.6012414674
0.5915630789
0.5821337512
0.5734018088
0.5658708119
0.5600413545
0.5563501
0.5551070687
0.5564525272
0.5603432687
0.5665701218
0.5747981925
0.5846168134
0.5955868683
0.6072779238
0.6192931079
0.6312829751
0.6429514525
0.6540568759
0.6644106114
0.6738746434
0.6823588391
0.6898178448
0.6962473647
0.7016794221
0.7061764171
0.7098240093
0.7127232155
0.7149823642
0.7167096628
0.7180070694
0.7189659264
0.7196645131
0.7201672962
0.7205255891
0.7207789924
0.7209572606
0.7210822692
0.7211697996
0.7212310677
0.7212739558
0.7213039644
0.7213249028
0.7213393668
0.7213490639
0.7213549492
0.7213570342
0.7213561126
0.7213563901
0.7213368004
0.5780946212
0.63211354
0.6325472313
0.627302513
0.6211272235
0.6145289529
0.6072430985
0.5992925701
0.5908213897
0.581947679
0.5729413522
0.5641195505
0.5559001002
0.5487475724
0.5431447695
0.5395309069
0.5382448299
0.5394767265
0.5432450006
0.5494019833
0.5576643706
0.5676575008
0.5789616444
0.5911512988
0.6038233827
0.616614543
0.629209668
0.6413446656
0.6528059978
0.6634288874
0.6730950939
0.6817306223
0.6893031221
0.6958186194
0.7013171586
0.7058671753
0.7095586615
0.7124955437
0.7147879306
0.7165449822
0.7178690711
0.7188516624
0.719571056
0.7200917586
0.7204651974
0.7207311672
0.7209196852
0.7210529275
0.721146986
0.7212133731
0.721260239
0.7212933155
0.7213166085
0.7213328812
0.7213439739
0.7213509081
0.7213537994
0.7213537741
0.7213542344
0.721335074
0.5613621483
0.6052242167
0.6033486843
0.5976900099
0.5914679053
0.5847396648
0.5774579872
0.569634091
0.561473715
0.5531463974
0.5449721216
0.5373105302
0.5305993658
0.525293702
0.5218294341
0.520563587
0.5217272425
0.5253942629
0.5314766998
0.539745096
0.5498658803
0.5614448839
0.5740675173
0.5873298489
0.6008590609
0.614324838
0.6274440458
0.6399814522
0.6517484574
0.6626012539
0.6724389391
0.6812016901
0.6888686204
0.6954548988
0.7010076981
0.7056008204
0.7093280917
0.712295978
0.7146160937
0.7163983473
0.7177453696
0.7187486259
0.7194863346
0.7200229553
0.7204099502
0.7206872381
0.7208850368
0.7210257682
0.7211257876
0.7211968652
0.7212473869
0.7212832902
0.7213087581
0.7213267071
0.7213390937
0.7213469926
0.7213506527
0.7213515071
0.7213519994
0.7213333964
0.5424955481
0.5766715871
0.5731746167
0.567283303
0.561099569
0.5543980738
0.547294422
0.5398078528
0.5321993648
0.5246859149
0.5176263199
0.5114057948
0.5064602331
0.5032114937
0.5020279848
0.5031721224
0.5067664242
0.5127792899
0.5210356287
0.5312465357
0.5430487146
0.5560440972
0.5698329519
0.584037403
0.5983155643
0.6123685014
0.6259422768
0.638827425
0.650857348
0.6619066521
0.6718896638
0.6807590554
0.688504103
0.6951481232
0.7007446659
0.7053723349
0.7091283683
0.7121214578
0.7144644914
0.716267953
0.7176346012
0.7186557991
0.7194095993
0.7199603417
0.7203594577
0.7206469308
0.7208531257
0.7210006627
0.7211061199
0.7211814907
0.721235368
0.7212738721
0.7213013457
0.7213208453
0.7213344273
0.7213432101
0.7213476093
0.7213493119
0.7213496955
0.7213317874
0.5216264172
0.5467231444
0.5420788938
0.5363241204
0.5302866742
0.5237810214
0.5170442445
0.5101143464
0.5032999224
0.4968581698
0.4911727984
0.4866360179
0.4836608324
0.4826160099
0.4837885363
0.4873418351
0.4932963071
0.5015302694
0.5118016155
0.5237821226
0.5370953082
0.5513504777
0.5661688255
0.5812004641
0.5961336269
0.6106984471
0.6246672801
0.6378535024
0.650109876
0.6613271852
0.6714331742
0.6803915833
0.688200749
0.6948912962
0.7005225153
0.7051773327
0.7089560392
0.7119692843
0.7143310314
0.7161521933
0.7175355468
0.7185722678
0.7193401732
0.7199034232
0.7203133636
0.7206099923
0.7208237753
0.7209774904
0.7210879027
0.7211671983
0.7212241515
0.7212650444
0.7212943647
0.721315296
0.7213299773
0.7213395683
0.7213446843
0.7213471855
0.7213473327
0.7213302776
0.4989384331
0.5157728252
0.5107306622
0.5050696701
0.4993088606
0.4931709022
0.4869917624
0.4808347986
0.4750460753
0.4699126304
0.4658272641
0.463170554
0.4623141216
0.4635589221
0.4671033669
0.473014269
0.4812212898
0.4915299848
0.5036502622
0.5172315096
0.531896605
0.5472698222
0.5629965736
0.5787551413
0.5942621798
0.6092742965
0.6235873124
0.6370347732
0.6494864694
0.6608474309
0.6710572716
0.6800895895
0.6879508502
0.6946782748
0.7003363546
0.7050119294
0.7088080347
0.711837048
0.7142138381
0.7160496227
0.7174471041
0.7184972009
0.7192774377
0.7198517451
0.7202713379
0.7205761868
0.7207968198
0.7209561369
0.7210710589
0.7211539376
0.7212137061
0.7212567899
0.7212878076
0.7213100576
0.7213257452
0.7213360753
0.7213418906
0.72134512
0.7213449292
0.7213289079
0.4744359818
0.4842002666
0.4792029019
0.473781946
0.4684320373
0.4628367917
0.4574050024
0.4522281763
0.4476781036
0.4440594683
0.4417583893
0.4411271092
0.4424813541
0.4460451514
0.451927255
0.4601052888
0.4704322904
0.4826583497
0.4964621242
0.5114840502
0.5273553332
0.5437198777
0.5602485958
0.5766469815
0.5926579395
0.6080619088
0.6226755309
0.6363501281
0.648970484
0.6604542122
0.6707514775
0.6798447088
0.6877477098
0.6945036928
0.7001818878
0.7048726966
0.7086816326
0.7117226022
0.714111233
0.7159589408
0.7173682766
0.7184298434
0.7192208273
0.7198048891
0.7202330753
0.7205452941
0.7207721029
0.7209364931
0.721055514
0.7211416595
0.7212040008
0.7212490903
0.7212816658
0.7213051273
0.7213217317
0.72133274
0.7213392382
0.7213431056
0.7213425282
0.7213277098
0.4486985596
0.4523969172
0.4477685447
0.4427141837
0.4379192249
0.4330405147
0.4285375047
0.424529832
0.4214033806
0.4194682271
0.4190894469
0.4205771822
0.4241811111
0.430044385
0.4381898448
0.4485166107
0.460816149
0.4747990513
0.490126624
0.5064404674
0.5233860964
0.5406294872
0.5578669459
0.5748295334
0.5912840338
0.6070321604
0.6219089586
0.6357814082
0.6485475173
0.6601360548
0.6705066101
0.6796495672
0.6875853927
0.6943627716
0.7000552738
0.7047565574
0.7085743815
0.7116240073
0.714021694
0.7158789647
0.717298154
0.7183695025
0.7191698206
0.7197624673
0.7201982906
0.7205171075
0.7207494765
0.7209184548
0.7210411963
0.7211303157
0.7211950044
0.7212419272
0.7212759299
0.7213005009
0.7213179366
0.7213295711
0.7213367323
0.7213411352
0.7213401968
0.7213265905
0.4219187454
0.4207542923
0.4166926451
0.4121349613
0.40802867
0.4040234249
0.4006093909
0.3979316669
0.396378681
0.3962540745
0.3978893388
0.4015417931
0.4073889146
0.4154932641
0.4257989278
0.4381388715
0.4522576305
0.4678401764
0.4845414429
0.5020114
0.5199135065
0.5379366588
0.5558015629
0.57326285
0.5901088018
0.6061600205
0.6212677908
0.6353128946
0.6482050362
0.659882916
0.6703145856
0.6794976355
0.6874586163
0.6942512377
0.699953063
0.7046607386
0.7084840646
0.7115395037
0.7139438359
0.7158086137
0.7172359017
0.7183155407
0.7191239354
0.7197241192
0.7201667172
0.7204914322
0.7207288004
0.7209019224
0.7210280362
0.7211198589
0.7211866857
0.7212352814
0.7212705895
0.7212961728
0.7213143596
0.7213265764
0.7213343743
0.7213392085
0.7213379468
0.7213255972
0.3944096489
0.3896262521
0.3862403787
0.382301414
0.3789998609
0.3760012558
0.3738080716
0.3725870946
0.3727189578
0.3744900905
0.3781876992
0.3840082783
0.392054369
0.4023115284
0.4146544556
0.4288627785
0.4446474884
0.4616794401
0.4796154672
0.4981187168
0.5168724535
0.5355882477
0.5540096795
0.5719128153
0.5891051389
0.6054239648
0.6207348946
0.634930893
0.6479320399
0.6596859143
0.6701682032
0.6793830596
0.687362617
0.6941652189
0.6998721167
0.7045827077
0.7084086506
0.7114674738
0.7138763813
0.7157468881
0.7171807446
0.7182673626
0.7190827196
0.7196895049
0.7201381026
0.7204680824
0.7207099395
0.720886799
0.7210159653
0.7211102416
0.721179013
0.7212291332
0.721265633
0.7212921362
0.7213110002
0.7213237622
0.7213321617
0.7213373333