/*--------------------------------*- C++ -*----------------------------------*\
  =========                 |
  \\      /  F ield         | OpenFOAM: The Open Source CFD Toolbox
   \\    /   O peration     | Website:  https://openfoam.org
    \\  /    A nd           | Version:  12
     \\/     M anipulation  |
\*---------------------------------------------------------------------------*/
FoamFile
{
    format      ascii;
    class       volScalarField;
    location    "1100";
    object      rho;
}
// * * * * * * * * * * * * * * * * * * * * * * * * * * * * * * * * * * * * * //

dimensions      [1 -3 0 0 0 0 0];

internalField   nonuniform List<scalar> 
16200
(
0.9395481482
0.939587637
0.9401352438
0.9413965472
0.9438980202
0.9489859522
0.9597852572
0.979998728
0.9924153769
0.9940615566
0.9945016695
0.9951273422
0.9958483547
0.9967415115
0.9978012302
0.9990806921
1.000602355
1.002418293
1.004571664
1.007122304
1.010131168
1.01366989
1.017814206
1.022645321
1.028244495
1.034687732
1.042035199
1.050316243
1.05950867
1.069514246
1.080136992
1.091078574
1.101965382
1.11240642
1.122060319
1.130683883
1.13814841
1.144428696
1.149578413
1.153703373
1.156938037
1.159426764
1.161309898
1.162714627
1.163750189
1.164506337
1.165054371
1.165449319
1.165732746
1.165935512
1.166080232
1.166183331
1.166256612
1.166308547
1.166345055
1.166370641
1.16638784
1.166401088
1.166403727
1.16641068
0.9295762919
0.9297540816
0.9304920496
0.9320640508
0.9351499636
0.9415455973
0.9550790572
0.9756465592
0.9837157562
0.9847509864
0.9852730622
0.9859764505
0.9867948032
0.987803917
0.9889983654
0.9904361291
0.9921427468
0.9941753079
0.9965823447
0.9994303007
1.002787871
1.006735348
1.011357957
1.016746383
1.022990255
1.030170265
1.038343757
1.047524444
1.057655635
1.068581335
1.080028342
1.091619599
1.102928409
1.113556217
1.123199269
1.131679031
1.138935347
1.144998479
1.149957313
1.153933522
1.157063219
1.1594844
1.161328077
1.162712392
1.163739271
1.164493285
1.165042382
1.165439629
1.165725549
1.165930524
1.166077011
1.166181427
1.166255648
1.166308208
1.166345168
1.166370922
1.166388269
1.1664014
1.166403768
1.166410156
0.9213317977
0.9216849711
0.9226707877
0.9246173217
0.928396295
0.936362568
0.9533307222
0.9714672885
0.9763967273
0.977068331
0.9776582445
0.978444733
0.9793568457
0.9804790334
0.9818077327
0.983406368
0.9853053195
0.987567968
0.990249915
0.9934253476
0.9971716356
1.001578077
1.006739264
1.012754294
1.019718286
1.027710703
1.036776051
1.046897425
1.057963697
1.069740176
1.081864403
1.093887592
1.105356343
1.115899141
1.125278971
1.13339834
1.140269978
1.145976501
1.150636109
1.154380373
1.157342073
1.159648788
1.161418846
1.162758464
1.163759828
1.164500319
1.165042948
1.165437621
1.165722945
1.165928212
1.166075298
1.166180339
1.166255094
1.166308063
1.166345337
1.16637124
1.166388713
1.166401796
1.166404074
1.166410743
0.9147751524
0.9153233355
0.9166045014
0.919026997
0.9237111476
0.9335611649
0.953740173
0.9677021147
0.9703802572
0.9710124737
0.9716895903
0.9725740825
0.9736016079
0.9748624576
0.9763558911
0.9781506993
0.9802825306
0.9828209237
0.9858287453
0.9893881635
0.9935859279
0.9985211599
1.004298112
1.01102282
1.018791371
1.027673457
1.03768718
1.048765484
1.06071922
1.073216143
1.085803288
1.097982305
1.109310396
1.119479472
1.128342816
1.135892382
1.14221146
1.147427983
1.15168202
1.155109143
1.157834664
1.159972846
1.161627082
1.162889682
1.163841265
1.164550351
1.165073552
1.165456387
1.165734571
1.165935553
1.166080063
1.166183543
1.166257338
1.166309708
1.166346605
1.166372234
1.166389503
1.16640237
1.166404371
1.166410943
0.9101884889
0.9109467023
0.9125533604
0.9155365556
0.9214071541
0.933845146
0.955436624
0.9646600706
0.9661779769
0.9668785713
0.9676522974
0.9686514771
0.969812676
0.9712316373
0.9729112572
0.9749256999
0.9773170031
0.9801619259
0.983532376
0.9875201358
0.9922225285
0.9977482693
1.004208909
1.011712321
1.020347239
1.03016106
1.041127187
1.053104686
1.065804294
1.078789601
1.091536287
1.103536865
1.11440362
1.123923697
1.132053404
1.138871295
1.144520327
1.149161321
1.152945895
1.15600651
1.158456709
1.160395026
1.161908504
1.163074559
1.163961385
1.164627829
1.165123346
1.16548839
1.165755212
1.165948954
1.166088848
1.166189373
1.166261268
1.166312411
1.166348513
1.166373612
1.166390505
1.166403074
1.166404769
1.166411335
0.9076815198
0.9086547848
0.9106034974
0.9142052324
0.9215036057
0.9374376386
0.9573065405
0.9630650499
0.9639330195
0.9647633423
0.9656311531
0.9667486808
0.9680506511
0.9696382357
0.9715198347
0.973775882
0.976456363
0.9796460303
0.9834262567
0.987897764
0.9931667451
0.999348587
1.006557785
1.014897452
1.024438504
1.035189654
1.047056675
1.059800414
1.07301885
1.086184067
1.098739101
1.110216574
1.120323615
1.128961833
1.136190377
1.142162597
1.147065748
1.151079811
1.154357962
1.157023378
1.159174583
1.16089296
1.162248695
1.163304107
1.16411479
1.164729646
1.165190635
1.165532771
1.165784481
1.165968284
1.166101648
1.16619788
1.166266949
1.166316234
1.166351116
1.166375411
1.166391741
1.16640391
1.166405229
1.166411736
0.9070415619
0.9082518465
0.9105868291
0.9149469961
0.9240242258
0.9436224375
0.9597998533
0.9632321801
0.9635766021
0.9644774832
0.9654460623
0.9667068803
0.9681795552
0.9699700472
0.9720930361
0.9746348156
0.977653324
0.9812406483
0.9854870119
0.9905011893
0.9963970787
1.003294491
1.011306074
1.020520955
1.030976819
1.04262161
1.055268265
1.068562062
1.081993656
1.094978038
1.106977461
1.117612212
1.126711415
1.134295322
1.140514378
1.145578929
1.149703366
1.153073565
1.155835561
1.158098395
1.15994344
1.161434406
1.162624856
1.163562467
1.164290606
1.164848446
1.165270498
1.165586272
1.165820244
1.16599216
1.166117576
1.1662085
1.166274031
1.166320965
1.16635429
1.16637756
1.166393182
1.166404867
1.166405764
1.166412216
0.9081615253
0.9096399296
0.9124231338
0.9177922698
0.9293619745
0.9512147888
0.9626190808
0.9641807749
0.9649222779
0.9659340336
0.9670740304
0.9685006555
0.9701694654
0.9721907164
0.9745862542
0.9774482563
0.9808433463
0.9848713823
0.9896319161
0.9952414818
1.001819707
1.009485749
1.018340851
1.02844522
1.039782652
1.05221584
1.065444523
1.078996517
1.092282465
1.104711186
1.115817819
1.125346075
1.133257392
1.139680991
1.144839385
1.148979862
1.152327691
1.155063489
1.157319564
1.159187654
1.160731027
1.161996007
1.163020351
1.163837988
1.164480816
1.164978801
1.165359318
1.165646522
1.165860968
1.166019604
1.166136021
1.166220862
1.166282295
1.166326478
1.166357968
1.166380023
1.166394813
1.166405937
1.166406365
1.166412756
0.9109352046
0.9126869415
0.9159943836
0.9226354184
0.9376550643
0.9591436424
0.9666928487
0.9671895729
0.96797347
0.9691159535
0.9704001346
0.9720057557
0.9738882881
0.9761622348
0.9788579005
0.982073757
0.9858858807
0.9904019415
0.995729952
1.001991429
1.00930612
1.017783335
1.027499584
1.038468252
1.050597065
1.063641836
1.077180491
1.090641782
1.103402883
1.114923753
1.12485687
1.133087641
1.139703869
1.144924135
1.149020361
1.152257465
1.154857873
1.156988517
1.158763622
1.16025601
1.161510886
1.162558083
1.163420761
1.164120283
1.164678061
1.165115585
1.165453582
1.165711146
1.165905076
1.166049587
1.166156321
1.16623455
1.166291485
1.166332623
1.166362065
1.166382756
1.166396615
1.166407114
1.166407034
1.166413365
0.9151729237
0.9172302266
0.9211844811
0.9293671009
0.9482970701
0.9667144699
0.970556505
0.9715183285
0.9724620671
0.9737537569
0.9752162248
0.9770288449
0.9791571689
0.981719693
0.9847561772
0.9883715396
0.9926512798
0.9977095902
1.003660122
1.010624484
1.018715068
1.028020708
1.038578331
1.050334767
1.063099694
1.076507911
1.090024382
1.103017998
1.114890339
1.125204677
1.133758347
1.14057831
1.14586024
1.149887353
1.152958559
1.155339897
1.157240541
1.158808147
1.160136534
1.16127929
1.162264356
1.163106388
1.163815376
1.164401444
1.164876612
1.165254721
1.165550442
1.165778191
1.165951248
1.166081234
1.166177909
1.166249203
1.166301379
1.166339267
1.166366508
1.166385719
1.16639857
1.16640839
1.166407768
1.166414045
0.9207277892
0.9231405601
0.9279705838
0.9383435084
0.9603400696
0.9747813644
0.9763423975
0.9772411804
0.9783280834
0.9797814777
0.9814378179
0.9834789635
0.9858803697
0.9887644648
0.9921806901
0.9962392578
1.001033295
1.006680663
1.013296684
1.020997471
1.0298797
1.039999232
1.051335469
1.063746602
1.076925851
1.0903871
1.103512584
1.115666561
1.126332985
1.135215765
1.142264789
1.147633103
1.15159842
1.154483155
1.156593591
1.158184162
1.15944377
1.160497703
1.161418684
1.162241718
1.162978782
1.163630892
1.164196396
1.164675528
1.165072035
1.165392973
1.165647579
1.165846028
1.165998365
1.166113789
1.166200286
1.166264499
1.166311774
1.166346288
1.166371225
1.166388874
1.166400661
1.166409758
1.166408565
1.166414799
0.9274523238
0.9302672286
0.9361888006
0.9496978156
0.972572849
0.9817721846
0.983065974
0.9841326509
0.985389594
0.9870320758
0.9889149142
0.9912197856
0.993932509
0.9971780814
1.001014939
1.005557524
1.010905667
1.017179301
1.024491896
1.032947255
1.042614817
1.053500572
1.065504773
1.078376151
1.09168433
1.104843087
1.117201919
1.128181467
1.137394612
1.144703019
1.150198781
1.154135524
1.156844986
1.158665849
1.15989631
1.160770416
1.161452774
1.162045215
1.162599882
1.163134476
1.163646597
1.164125243
1.164558624
1.164938405
1.165261139
1.165527935
1.165743226
1.165913387
1.16604553
1.166146634
1.166223034
1.166280164
1.166322496
1.16635358
1.166376156
1.166392189
1.166402872
1.166411211
1.166409425
1.16641563
0.9352152545
0.9385499889
0.9458369398
0.9631126882
0.9838651971
0.9900001006
0.9909091995
0.9921677028
0.9936072848
0.9954564748
0.9975845266
1.000172852
1.003218702
1.006850123
1.011135728
1.016194606
1.022132029
1.029066007
1.037100412
1.046315005
1.056735715
1.068298052
1.080801587
1.093873633
1.106972245
1.119453662
1.130695654
1.140229387
1.147823843
1.153495239
1.1574545
1.160026099
1.161569591
1.162421355
1.162860532
1.163095537
1.163265068
1.163447866
1.16367679
1.163953884
1.164264061
1.1645859
1.164898909
1.165187403
1.165441749
1.1656579
1.165836081
1.165979303
1.166092046
1.166179277
1.166245814
1.16629597
1.166333397
1.16636105
1.166381244
1.166395632
1.166405189
1.166412743
1.166410344
1.16641654
0.9439007628
0.9479662618
0.9571791666
0.9779647576
0.9958429791
0.9988449203
0.999727273
1.001179075
1.002806422
1.004874732
1.007265329
1.01016088
1.01357138
1.017627818
1.022407691
1.028031342
1.034603766
1.042233217
1.051003713
1.060957427
1.072058638
1.084151331
1.096918954
1.10987195
1.122391197
1.133833226
1.143663133
1.151559537
1.157452971
1.161494921
1.16398498
1.165289356
1.165773522
1.165757968
1.165495934
1.165167828
1.164886574
1.16470915
1.164650878
1.164699941
1.164830244
1.165011451
1.165215677
1.165421002
1.165612515
1.16578174
1.165925242
1.166043079
1.166137393
1.166211339
1.166268359
1.166311734
1.166344354
1.166368619
1.166386441
1.166399177
1.166407598
1.166414345
1.166411322
1.166417533
0.9532452396
0.9582827392
0.9701449743
0.9929753079
1.005958541
1.008307089
1.009298546
1.01096055
1.012810861
1.015140609
1.017841439
1.021096614
1.024927136
1.029464403
1.034791395
1.041025698
1.04826702
1.056607036
1.066098883
1.076730531
1.088383667
1.10079301
1.113524238
1.125996861
1.137567137
1.147652823
1.155851414
1.162003922
1.16618911
1.168664746
1.169787838
1.169941107
1.169479396
1.168698453
1.167822168
1.167002683
1.166328449
1.165836557
1.165526739
1.16537511
1.165346152
1.165401987
1.165508508
1.165638545
1.165772724
1.165898781
1.166010128
1.166104241
1.1661812
1.166242541
1.166290464
1.166327308
1.166355266
1.16637622
1.166391706
1.166402799
1.166410087
1.166416012
1.166412358
1.166418611
0.9633334517
0.9697446165
0.9847167103
1.007109693
1.016656364
1.018493428
1.019704983
1.02160335
1.023708905
1.026334572
1.029381943
1.033033536
1.037320143
1.042372657
1.048277879
1.055147892
1.063070992
1.072110968
1.082272454
1.093467754
1.105477098
1.117920756
1.130265535
1.141885422
1.152171771
1.160654682
1.167088221
1.171469962
1.174000892
1.175012771
1.1748918
1.174017494
1.172722817
1.171273909
1.169864416
1.168619372
1.167604742
1.166839858
1.166310824
1.165983388
1.165814053
1.16575862
1.165777789
1.165840003
1.165922134
1.166008701
1.166090408
1.166162491
1.166223215
1.166272682
1.166311974
1.166342581
1.166366054
1.166383799
1.166397003
1.166406478
1.166412644
1.166417736
1.166413458
1.166419777
0.9742201284
0.9824264095
1.000526855
1.021805236
1.02788943
1.029546525
1.030996801
1.033139546
1.035518905
1.038460595
1.04187749
1.04595158
1.050723358
1.056322288
1.062835159
1.070360717
1.078962514
1.088658673
1.099385335
1.110962182
1.123061518
1.13520222
1.146790198
1.157209528
1.165940749
1.172658866
1.177277082
1.179928234
1.180903652
1.180578489
1.17934525
1.177566297
1.17554607
1.173519285
1.171650197
1.17003875
1.168730729
1.167729871
1.167010522
1.166529617
1.166236963
1.166083104
1.166024443
1.166025778
1.16606084
1.166111431
1.16616594
1.166217665
1.166263283
1.166301627
1.166332782
1.166357468
1.166376654
1.166391311
1.166402303
1.166410194
1.16641526
1.166419513
1.166414644
1.166421033
0.986093005
0.9963872573
1.017008956
1.036124933
1.039736037
1.041400734
1.043097756
1.045501694
1.048181913
1.051471524
1.055295551
1.059834108
1.065134398
1.071318591
1.078464014
1.086643293
1.095879683
1.10612981
1.117247576
1.128953424
1.140819816
1.152293952
1.162770166
1.171697244
1.178683853
1.183561142
1.186386414
1.187397825
1.186945057
1.185420841
1.183207162
1.180640467
1.177993638
1.175470294
1.173207225
1.17128173
1.169721792
1.168517627
1.167633528
1.167019001
1.166618278
1.166377563
1.166249724
1.166196553
1.166189169
1.166207087
1.166236724
1.166269705
1.166301326
1.166329295
1.166352812
1.166371907
1.166387019
1.166398721
1.166407581
1.166413932
1.166417924
1.166421342
1.166415932
1.166422384
0.999258225
1.011560206
1.03371068
1.048776124
1.052204076
1.054041137
1.056013959
1.058715985
1.061742632
1.065427452
1.069706163
1.074752186
1.080613531
1.087396777
1.095159649
1.103937651
1.113702151
1.124337309
1.135607136
1.147135667
1.158417027
1.168868873
1.177926384
1.185146793
1.190286226
1.193324137
1.194435592
1.193931839
1.192192718
1.189608823
1.186540483
1.183293666
1.180109246
1.177161431
1.174562049
1.17236832
1.170592716
1.169213829
1.168187423
1.167456779
1.166961515
1.166644283
1.166455062
1.166353181
1.166307596
1.166295906
1.166302854
1.166318627
1.166337316
1.166355644
1.166372019
1.166385854
1.166397111
1.166405999
1.166412813
1.166417676
1.166420629
1.166423223
1.166417334
1.16642383
1.013982104
1.027998315
1.05017922
1.063061555
1.065517946
1.067633207
1.069912564
1.072940608
1.0763435
1.080448744
1.085200603
1.09076045
1.097171995
1.104519481
1.112832886
1.122101443
1.132233674
1.14303153
1.154167089
1.165182364
1.175528174
1.184641644
1.192045047
1.197430455
1.200701368
1.201964021
1.201480179
1.199604386
1.19672424
1.19321454
1.189407579
1.18557737
1.181934034
1.178624812
1.175739278
1.173317075
1.171357271
1.169828529
1.168679411
1.167848008
1.167270145
1.166885582
1.16664196
1.1664966
1.166416682
1.166378204
1.166364492
1.166364499
1.166371269
1.166380659
1.166390378
1.166399282
1.166406903
1.166413122
1.166417982
1.166421414
1.166423366
1.166425158
1.166418818
1.166425372
1.030152021
1.045756786
1.067215674
1.077731723
1.079842761
1.08227147
1.084855968
1.088214499
1.091997048
1.096519405
1.101733248
1.107783132
1.114704004
1.122550949
1.131316668
1.140932352
1.151231472
1.161928459
1.17261287
1.182774112
1.191864644
1.19938793
1.204985273
1.208490734
1.209939613
1.209536273
1.207598778
1.204500319
1.200620063
1.196308607
1.191867443
1.187539237
1.183505608
1.179889604
1.17676122
1.174144842
1.172028021
1.170370968
1.169116181
1.168197445
1.167547482
1.167103718
1.166811918
1.166627779
1.16651703
1.16645434
1.166421839
1.166407424
1.166403229
1.166404351
1.166407879
1.166412173
1.166416376
1.166420072
1.166423073
1.166425134
1.166426127
1.166427142
1.166420366
1.166427008
1.047434999
1.064582137
1.08532978
1.093133616
1.095081151
1.097825355
1.100718803
1.104409881
1.108571814
1.113503646
1.11916443
1.125676282
1.133058432
1.1413264
1.150422122
1.160206052
1.170430148
1.180728409
1.190632886
1.199621137
1.207192956
1.212953523
1.216676839
1.21832951
1.218053583
1.216121647
1.212881801
1.208707337
1.203958431
1.198957193
1.193974063
1.189222254
1.184857616
1.180981806
1.177647757
1.174866677
1.172616247
1.170849497
1.169503832
1.168509473
1.16779662
1.167300833
1.166966383
1.166747674
1.166609254
1.166524696
1.166475123
1.166447528
1.166433258
1.166426744
1.166424525
1.166424517
1.166425516
1.166426834
1.166428072
1.166428826
1.166428907
1.166429172
1.166421987
1.166428734
1.065717818
1.083989475
1.102497281
1.109137444
1.11110822
1.114157102
1.117363473
1.121392933
1.125942314
1.131284876
1.137383674
1.144328304
1.152110041
1.160691993
1.169953379
1.179679031
1.189545626
1.19912837
1.207937874
1.215482656
1.221346515
1.225255017
1.227111462
1.226994344
1.22512412
1.221814538
1.217423176
1.212310726
1.206812401
1.201220497
1.195775761
1.190664523
1.186019727
1.181924311
1.178416413
1.175495889
1.173131969
1.171271583
1.16984786
1.168788078
1.168020403
1.167478918
1.167106724
1.166857204
1.166693957
1.166589655
1.166524577
1.166484947
1.16646143
1.166447873
1.166440326
1.166436314
1.166434314
1.166433397
1.166432968
1.166432479
1.166431698
1.166431244
1.166423653
1.16643055
1.084800269
1.103826562
1.119911899
1.125655349
1.12780375
1.131178778
1.134732153
1.139126521
1.14408416
1.149839294
1.156351916
1.163668774
1.171742265
1.18047582
1.189682753
1.199078272
1.208281686
1.216840207
1.224281584
1.230181268
1.234229102
1.236273063
1.236329935
1.234564294
1.231248022
1.226713996
1.221314577
1.215390107
1.20924825
1.203152137
1.197315088
1.191899382
1.187017833
1.182737095
1.17908251
1.176044158
1.173584024
1.17164385
1.170153172
1.169036849
1.168221416
1.167639804
1.167234212
1.166957236
1.166771715
1.166649591
1.166570438
1.166519825
1.166487826
1.166467778
1.166455301
1.166447565
1.166442765
1.166439751
1.166437749
1.166436086
1.166434496
1.16643335
1.166425309
1.166432466
1.104350539
1.122999896
1.137975309
1.142913671
1.145346566
1.149048769
1.152964184
1.157717522
1.163060886
1.169178944
1.176021566
1.183587149
1.191782494
1.200449407
1.209338901
1.218110436
1.226351146
1.233614014
1.239477921
1.243609141
1.245810186
1.246040517
1.24440789
1.241136987
1.236528252
1.2309173
1.224641752
1.218017638
1.211324826
1.204799104
1.198629051
1.192955714
1.18787434
1.183437464
1.179659359
1.17652167
1.173980157
1.171972135
1.170424123
1.169258994
1.168401988
1.167785154
1.167350016
1.167048574
1.166843073
1.166704863
1.166612936
1.166552302
1.16651253
1.166486506
1.16646947
1.166458276
1.166450867
1.166445889
1.166442408
1.166439638
1.166437295
1.166435468
1.166426891
1.16643449
1.124943388
1.143340869
1.156728007
1.161131108
1.163874515
1.167859842
1.172102111
1.177158123
1.182811208
1.189192039
1.196231784
1.203876301
1.211982501
1.220332857
1.228626291
1.236487427
1.243500533
1.249255865
1.253407979
1.255724162
1.256113351
1.254627771
1.251441986
1.246817841
1.241066688
1.234515734
1.227482454
1.220257292
1.213093549
1.206202094
1.199749545
1.193858366
1.188608537
1.184040345
1.180158477
1.176937276
1.174327128
1.172261563
1.17066456
1.169457365
1.168564205
1.167916472
1.167455202
1.167131961
1.166908535
1.166755809
1.16665229
1.166582519
1.166535624
1.166504103
1.166482855
1.166468455
1.166458617
1.166451806
1.166446935
1.16644313
1.166440086
1.166437568
1.166428491
1.166436607
1.146404591
1.165029162
1.176164867
1.180230668
1.183264115
1.187477267
1.191992028
1.197279935
1.203147153
1.209667574
1.216745943
1.224273473
1.232057943
1.239831697
1.24725916
1.253955834
1.25953181
1.263638873
1.266019939
1.266541228
1.265203342
1.262129639
1.257539202
1.251712666
1.244959776
1.237592511
1.229905807
1.222165021
1.214598926
1.207396121
1.200703937
1.194628653
1.189236988
1.184558594
1.18058982
1.177298657
1.174630835
1.172516628
1.170877873
1.16963449
1.168709927
1.168035108
1.167550735
1.167208072
1.16696857
1.166802744
1.166688709
1.166610607
1.166557192
1.166520615
1.166495481
1.166478112
1.166466018
1.166457497
1.166451325
1.166446554
1.166442863
1.166439632
1.166430206
1.166438783
1.168449808
1.187368488
1.196103589
1.200015572
1.203321138
1.207720244
1.2124472
1.217884515
1.223852571
1.230366939
1.237302261
1.244498052
1.251719976
1.258665689
1.264987143
1.27031646
1.274312616
1.276703028
1.2773203
1.276118728
1.273171866
1.268653299
1.262808125
1.255922239
1.248295673
1.240221633
1.231972172
1.223789104
1.215879088
1.208411078
1.201515568
1.195284768
1.189773869
1.185003248
1.180961969
1.177612465
1.174896406
1.172741257
1.171067041
1.169792606
1.168840813
1.168142271
1.167637484
1.167277525
1.167023605
1.166845961
1.166722387
1.166636694
1.166577311
1.166536091
1.166507374
1.166487258
1.166473071
1.166462958
1.166455571
1.166449906
1.166445613
1.166441653
1.166432036
1.166440996
1.191070083
1.209483075
1.216553257
1.220399832
1.223923429
1.228440033
1.233288693
1.238762993
1.244691063
1.251029952
1.257623102
1.26426547
1.270692685
1.276586854
1.281609846
1.285431684
1.287774671
1.28844568
1.287359668
1.284543426
1.28012444
1.274308524
1.267352678
1.259538887
1.251152815
1.24246766
1.233733535
1.225170793
1.216966479
1.209272357
1.202204275
1.195842209
1.19023129
1.185383774
1.181282314
1.177884456
1.175128303
1.172938882
1.171234683
1.169933687
1.168958331
1.168239043
1.167716232
1.167340876
1.167074031
1.166885728
1.166753505
1.166660898
1.166596057
1.166550574
1.166518557
1.166495905
1.166479779
1.166468187
1.166459667
1.166453181
1.166448327
1.166443626
1.166433999
1.166443236
1.214160395
1.231668858
1.2373916
1.241199568
1.244872154
1.249426193
1.254293699
1.259676579
1.265406862
1.271387327
1.277434319
1.283310371
1.288736928
1.293400133
1.296990572
1.299230179
1.299909969
1.298911911
1.296220869
1.291919362
1.286171845
1.279202141
1.271269206
1.262645458
1.25360005
1.244386431
1.235234436
1.226345244
1.217888683
1.210001548
1.202786956
1.196314212
1.190619634
1.185708319
1.181557248
1.178119628
1.175330417
1.173112512
1.171383103
1.17005948
1.169063792
1.16832639
1.167787683
1.167398631
1.167120205
1.166922293
1.166782233
1.166683331
1.166613501
1.166564109
1.166529056
1.166504064
1.166486146
1.16647318
1.16646361
1.166456375
1.166450993
1.166445553
1.166436101
1.166445466
1.237541379
1.253840676
1.258493228
1.262266388
1.26599379
1.270477946
1.275235958
1.28037793
1.285737752
1.291172464
1.296479234
1.301402181
1.305664202
1.308971835
1.311057165
1.311700307
1.310758974
1.308180725
1.304006055
1.298357673
1.291423201
1.283434073
1.274644734
1.265315024
1.255697123
1.246025891
1.236512876
1.227342355
1.218669141
1.21061702
1.20327802
1.196712106
1.190947823
1.185983917
1.181792308
1.178322334
1.17550615
1.17326479
1.171514335
1.170171534
1.169158359
1.168405178
1.167852473
1.167451248
1.167162454
1.166955883
1.166808725
1.166704098
1.166629712
1.166576738
1.166538895
1.166511748
1.166492175
1.166477938
1.166467397
1.166459482
1.166453597
1.166447439
1.166438339
1.166447669
1.261006591
1.275861366
1.279664701
1.283373188
1.287055874
1.291346462
1.295851002
1.300596076
1.305416796
1.310134166
1.314535429
1.318359947
1.321345429
1.323230556
1.323795433
1.322878188
1.320396323
1.316351245
1.310825307
1.303968379
1.295980821
1.287094624
1.277555936
1.267610841
1.257495146
1.247426756
1.237601001
1.228187388
1.219327676
1.211134343
1.203689725
1.197045565
1.191223512
1.18621663
1.181992295
1.17849636
1.175658477
1.173398035
1.171630172
1.170271221
1.16924307
1.168476181
1.16791117
1.167499142
1.167201072
1.166986709
1.166833128
1.166723296
1.166644755
1.166588502
1.166548099
1.16651897
1.166497872
1.16648246
1.166471025
1.166462498
1.166456126
1.166449287
1.16644071
1.166449823
1.284412529
1.297607712
1.300666745
1.304236314
1.307760555
1.311739171
1.315854544
1.320060681
1.324195944
1.32805576
1.331427155
1.334057096
1.335708134
1.336157788
1.335235212
1.332831852
1.328915639
1.323530005
1.316787243
1.308854257
1.299936784
1.290262981
1.280068841
1.269586727
1.259037283
1.248623272
1.238525816
1.228901583
1.219881004
1.211566699
1.2040325
1.197322867
1.191453285
1.186411702
1.182161378
1.178645015
1.175790008
1.173514291
1.171732202
1.170359759
1.169318851
1.168540094
1.16796429
1.167542688
1.167236332
1.167014961
1.166855574
1.166741017
1.166658689
1.16659944
1.166556691
1.166525742
1.166503241
1.166486744
1.166474493
1.166465418
1.166458567
1.166451107
1.166443207
1.166451891
1.30743297
1.318717811
1.321256336
1.324570646
1.327832379
1.331392379
1.335000657
1.338548459
1.341881565
1.344781279
1.347043216
1.348431543
1.34873952
1.347785459
1.345444545
1.34165437
1.336423465
1.329826742
1.321996907
1.313110522
1.30337388
1.29300886
1.28224075
1.271288946
1.260360431
1.249644648
1.239310357
1.229503099
1.220343461
1.211925445
1.204315373
1.197551214
1.191642901
1.186573739
1.18230324
1.17877123
1.175903066
1.173615385
1.171821848
1.170438249
1.169386542
1.168597551
1.168012304
1.167582234
1.167268485
1.16704082
1.16687619
1.166757349
1.166671573
1.166609589
1.166564694
1.166532079
1.166508289
1.166490794
1.166477801
1.166468236
1.166460908
1.166452911
1.166445819
1.166453827
1.329608489
1.338976655
1.341156171
1.344132611
1.347041267
1.35008718
1.35308755
1.355883257
1.358331434
1.36020926
1.361327014
1.361471877
1.36046966
1.358177826
1.354512226
1.349448677
1.343027275
1.335345759
1.326550111
1.316821508
1.306363901
1.295391819
1.284120116
1.272756371
1.261495494
1.250515326
1.239973927
1.230007198
1.220727155
1.212220224
1.204546061
1.197736803
1.191797346
1.186706756
1.182421106
1.178877589
1.175999707
1.173702942
1.171900383
1.170507676
1.1694469
1.168649124
1.168055642
1.167618096
1.167297763
1.167064453
1.166895095
1.166772373
1.166683465
1.166618988
1.166572133
1.166537993
1.166513022
1.16649461
1.166480951
1.166470943
1.166463141
1.166454715
1.166448509
1.166455602
1.350857119
1.358320304
1.360177653
1.362713912
1.365178285
1.367631116
1.369948946
1.371932446
1.373451773
1.374287668
1.374268297
1.373206327
1.370959016
1.367419187
1.362537142
1.356319418
1.348830084
1.340183044
1.330532513
1.320061082
1.308968851
1.297462822
1.285748189
1.274022041
1.262468761
1.251256167
1.240533079
1.230427048
1.221042596
1.212459465
1.204731349
1.197885111
1.191921052
1.186814336
1.182517867
1.178966414
1.176081785
1.173778432
1.171968962
1.17056894
1.169500615
1.168695341
1.1680947
1.167650571
1.167324383
1.167086017
1.166912402
1.16678617
1.166694419
1.166627674
1.166579032
1.166543501
1.166517447
1.166498198
1.166483944
1.166473533
1.166465261
1.166456531
1.166451215
1.166457275
1.370712184
1.376458019
1.378040888
1.380095615
1.382066341
1.383881996
1.385476751
1.386623975
1.38720798
1.387018789
1.385903236
1.383699482
1.380293444
1.375608693
1.369623956
1.362370034
1.353928976
1.344425999
1.334020177
1.322893658
1.311242105
1.299265374
1.287160015
1.275113972
1.263302537
1.251884914
1.241001955
1.23077396
1.221298878
1.21265051
1.204877189
1.198000979
1.192017956
1.18689968
1.182596116
1.179039797
1.176150976
1.173843188
1.172028635
1.170622861
1.169548322
1.168736685
1.168129845
1.167679932
1.167348548
1.167105661
1.166928217
1.166798814
1.166704488
1.166635681
1.166585414
1.166548615
1.166521572
1.166501562
1.16648678
1.166475997
1.166467271
1.166458365
1.166453884
1.166458874
1.389149024
1.393356285
1.394629048
1.396151121
1.397587284
1.398745822
1.399608417
1.399930033
1.399606425
1.398439847
1.396294969
1.393034117
1.388568476
1.382847758
1.375873836
1.367696554
1.358411463
1.348151719
1.337079166
1.325374587
1.313229228
1.300836499
1.288385409
1.276056047
1.264015917
1.252416849
1.241392823
1.231057824
1.221504009
1.212799875
1.204988901
1.198088758
1.192091618
1.186965695
1.18265822
1.17909965
1.17620882
1.173898437
1.172080373
1.170670198
1.16959061
1.16877361
1.168161421
1.167706437
1.167370449
1.167123525
1.166942643
1.166810381
1.166713723
1.166643047
1.166591304
1.166553352
1.166525406
1.166504709
1.166489461
1.16647833
1.166469175
1.16646021
1.166456453
1.166460424
1.405808946
1.408764172
1.409741848
1.410742362
1.411651665
1.412175811
1.412332908
1.411870036
1.41069275
1.408618028
1.40552716
1.401304726
1.395883745
1.389235871
1.381381748
1.372386232
1.362355149
1.351427371
1.339766312
1.327551086
1.314968912
1.302207592
1.289449691
1.276868616
1.264625268
1.252865166
1.24171636
1.231287325
1.22166509
1.21291339
1.205071286
1.198152404
1.192145295
1.187015053
1.182706362
1.179147749
1.176256745
1.173945323
1.172125084
1.170711666
1.169628036
1.168806544
1.168189756
1.167730336
1.167390273
1.167139748
1.166955781
1.166820943
1.166722178
1.166649809
1.166596728
1.166557728
1.16652896
1.166507645
1.166491989
1.166480527
1.16647098
1.166462051
1.166458889
1.166461943
1.420635027
1.422634933
1.423332911
1.423847404
1.424255774
1.424188189
1.423686527
1.422498867
1.420538413
1.41763787
1.413693297
1.408609139
1.402336997
1.394866841
1.386234608
1.376517154
1.365828353
1.354311401
1.342130695
1.329463772
1.316494414
1.303405691
1.290374747
1.277569385
1.265144938
1.253241532
1.241982097
1.231470287
1.221788572
1.212996391
1.205128763
1.198195579
1.192182015
1.187050249
1.182742585
1.179185758
1.176296099
1.173984926
1.172163627
1.170747944
1.169661131
1.168835901
1.168215165
1.167751867
1.1674082
1.167154464
1.166967731
1.166830573
1.166729905
1.166656003
1.16660171
1.16656176
1.166532245
1.16651038
1.166494365
1.166482586
1.166472688
1.166463866
1.166461185
1.166463483
1.433662378
1.434999115
1.435429939
1.43550452
1.435446143
1.434839107
1.433737174
1.431895305
1.429231397
1.425593553
1.420890426
1.415043756
1.40802083
1.399826899
1.390510491
1.380158269
1.368890659
1.356854367
1.344214582
1.331147589
1.3178344
1.304454193
1.291179641
1.278173909
1.26558765
1.253556396
1.242198659
1.23161386
1.221880404
1.213053838
1.205165473
1.19822173
1.192204639
1.187073648
1.182768831
1.17921526
1.176328164
1.174018277
1.172196824
1.170779679
1.169690402
1.168862073
1.168237953
1.167771263
1.167424406