/*--------------------------------*- C++ -*----------------------------------*\
  =========                 |
  \\      /  F ield         | OpenFOAM: The Open Source CFD Toolbox
   \\    /   O peration     | Website:  https://openfoam.org
    \\  /    A nd           | Version:  12
     \\/     M anipulation  |
\*---------------------------------------------------------------------------*/
FoamFile
{
    format      ascii;
    class       volVectorField;
    location    "1100";
    object      U;
}
// * * * * * * * * * * * * * * * * * * * * * * * * * * * * * * * * * * * * * //

dimensions      [0 1 -1 0 0 0 0];

internalField   nonuniform List<vector> 
16200
(
(184.1010025 -7.284565671e-17 -1.499801974)
(219.5666249 3.515303465e-17 -1.426856699)
(239.5298999 -2.440606479e-20 -1.602032859)
(255.2543012 0 -1.775204095)
(269.8372263 0 -1.965133313)
(284.9687511 -2.523222945e-17 -2.194767949)
(300.7712154 2.885795809e-17 -2.515141012)
(313.377506 6.222878459e-17 -2.895921981)
(317.1093066 -1.210731223e-16 -3.023822919)
(317.1014561 1.083671326e-16 -2.999325735)
(316.7874074 -4.612086099e-17 -3.054161425)
(316.4895298 0 -3.031204295)
(316.121604 0 -3.092076801)
(315.7163719 -5.359710167e-17 -3.092688362)
(315.2391821 4.473230962e-17 -3.149498614)
(314.6923596 0 -3.179329129)
(314.0541304 0 -3.241575215)
(313.3130786 8.187773425e-19 -3.300825522)
(312.4488484 4.437357654e-17 -3.381803702)
(311.4419073 -3.603155251e-17 -3.473460527)
(310.2684384 0 -3.585167883)
(308.9026034 -2.488414923e-17 -3.714914237)
(307.3157654 2.226718185e-17 -3.865706153)
(305.4774218 3.79000414e-17 -4.03638042)
(303.3563079 -3.183815994e-17 -4.224771474)
(300.9225924 -2.723173681e-17 -4.424520564)
(298.1515599 2.289598161e-17 -4.624271771)
(295.0291896 0 -4.805793862)
(291.559895 0 -4.94328215)
(287.7757755 5.729360943e-17 -5.004410377)
(283.7449688 -3.610774858e-17 -4.954955053)
(279.5741702 -1.039486457e-17 -4.767768677)
(275.4002039 0 -4.433786245)
(271.3702967 -4.587166442e-17 -3.96934819)
(267.6177622 5.149750605e-17 -3.41469362)
(264.2426692 -8.874514717e-17 -2.823599152)
(261.3032444 7.482121645e-17 -2.249275258)
(258.8175242 0 -1.732782715)
(256.7710847 0 -1.29759652)
(255.1268347 0 -0.9503247604)
(253.8344112 7.74981509e-17 -0.6852412411)
(252.8381465 -1.309740614e-16 -0.4898406079)
(252.0830934 1.102103039e-16 -0.3494818285)
(251.5190398 0 -0.2503735217)
(251.1026576 1.56760095e-16 -0.18100624)
(250.7982295 -1.318985041e-16 -0.1325186934)
(250.5773128 -4.961637201e-20 -0.09843844181)
(250.4179031 1.871087969e-16 -0.07422065078)
(250.3033434 -3.153097507e-16 -0.05675268035)
(250.2212458 2.655766551e-16 -0.04393266234)
(250.1625133 2.238925928e-16 -0.03434831728)
(250.120521 3.77740424e-16 -0.02704817594)
(250.0904716 -3.188294324e-16 -0.02138389686)
(250.0688657 8.082206849e-16 -0.01691222729)
(250.0531863 -4.557863653e-16 -0.01332794396)
(250.0414927 0 -0.01042340206)
(250.0326792 1.638506958e-16 -0.007996477582)
(250.0255683 0 -0.005961834848)
(250.0196957 -4.753436713e-16 -0.003628188907)
(250.013108 -3.971171593e-19 -0.003751296166)
(188.3180963 -1.537792929e-16 -4.162949736)
(224.9271582 1.503963719e-16 -4.424241908)
(245.4830934 -5.441302353e-17 -4.921383233)
(261.6663077 -4.884860954e-17 -5.313039365)
(276.7566982 5.047300188e-17 -5.707250617)
(292.4697451 0 -6.153562801)
(308.3133138 0 -6.718192086)
(318.5167236 6.695858023e-17 -7.150679701)
(320.4739416 -6.2522897e-17 -7.236126348)
(320.325758 0 -7.19944506)
(319.9921634 0 -7.266943603)
(319.67249 0 -7.234184942)
(319.2777593 -6.633760503e-17 -7.299908614)
(318.841349 5.534998449e-17 -7.294357276)
(318.325382 -1.418669638e-18 -7.350135669)
(317.7319813 -1.188809992e-18 -7.374360756)
(317.0372233 0 -7.430646776)
(316.2280035 -2.522374859e-18 -7.481055975)
(315.281704 0 -7.550265311)
(314.1762399 1.174816759e-18 -7.626488603)
(312.8849611 4.00060714e-18 -7.717951499)
(311.3788652 -2.890241062e-17 -7.821682266)
(309.6260195 -1.744290443e-17 -7.938916587)
(307.592663 3.861474032e-17 -8.066404029)
(305.2448195 0 -8.198811041)
(302.5513466 6.959548969e-18 -8.325478882)
(299.4889852 -1.184222713e-17 -8.429238505)
(296.0497713 0 -8.484685149)
(292.2508306 -3.468291427e-17 -8.458048879)
(288.1449286 1.447462627e-17 -8.309852892)
(283.8272357 -3.778717968e-17 -8.002446125)
(279.4316162 1.076323048e-17 -7.512300892)
(275.1130256 -3.689265365e-17 -6.842440612)
(271.020992 -1.572910978e-17 -6.027655608)
(267.2752705 0 -5.128306425)
(263.9526943 4.596998291e-17 -4.215353501)
(261.0867914 -3.874977942e-17 -3.35372516)
(258.6756796 0 -2.590474294)
(256.6925465 1.121247978e-16 -1.950383955)
(255.0951269 -9.485787114e-17 -1.438048811)
(253.8331263 8.015818633e-17 -1.043627767)
(252.8537929 2.706194518e-16 -0.7493947349)
(252.106025 -1.138705599e-16 -0.5351746167)
(251.5431759 0 -0.3819110319)
(251.1246865 4.852788559e-16 -0.2734591174)
(250.8167185 -5.443734175e-16 -0.1971154402)
(250.5919702 -3.435529687e-16 -0.1433719682)
(250.4290332 3.854132837e-16 -0.1053700411)
(250.3115033 0 -0.07828537822)
(250.2270431 -2.727920014e-16 -0.05877678846)
(250.1665074 2.295333801e-16 -0.04454938835)
(250.1231849 5.796244793e-16 -0.03402980303)
(250.0921819 3.253722075e-16 -0.02613504339)
(250.0699232 -2.740686494e-16 -0.02011757331)
(250.0537939 9.239806732e-16 -0.01546444417)
(250.0418396 -7.793026321e-16 -0.01181915773)
(250.0327984 -4.933753859e-16 -0.008890160977)
(250.025604 5.558574428e-16 -0.006539248625)
(250.0196581 1.058119134e-15 -0.003918888562)
(250.012603 9.80395631e-17 -0.003886341379)
(192.4262305 -1.58859657e-19 -6.926223074)
(230.1645598 1.615180473e-16 -7.689950611)
(251.3010538 -2.362872888e-16 -8.496709649)
(267.9598102 1.075753399e-16 -9.13399267)
(283.5880402 1.130527991e-16 -9.764469866)
(299.7663987 -2.556682597e-16 -10.4633602)
(315.1452173 2.833119257e-16 -11.27756831)
(322.4933951 3.680830728e-19 -11.67467407)
(323.2094902 -2.635494861e-16 -11.74100623)
(322.9588187 1.146614185e-16 -11.68721485)
(322.6054193 0 -11.7628985)
(322.2593549 7.858392836e-17 -11.71548262)
(321.829394 -6.550455696e-17 -11.78090014)
(321.3523251 -2.607350502e-18 -11.76507436)
(320.7870004 4.813992691e-17 -11.81417095)
(320.1350566 3.761160067e-18 -11.82849099)
(319.3703782 -3.275572901e-17 -11.87398408)
(318.4778745 1.730750559e-18 -11.91188701)
(317.4324579 -4.647804816e-17 -11.96602173)
(316.2091477 3.651580709e-17 -12.02442021)
(314.7781 -2.688529e-20 -12.09364483)
(313.1067581 -2.097242152e-17 -12.16944561)
(311.1595762 1.753102005e-17 -12.25046459)
(308.8995014 0 -12.33025654)
(306.2904464 -4.241603385e-17 -12.39873295)
(303.3016606 6.997890624e-18 -12.43892668)
(299.914641 3.684578341e-17 -12.42560442)
(296.1328384 2.129146085e-17 -12.32404685)
(291.9935527 1.838684743e-17 -12.09126501)
(287.5784261 -1.484009281e-17 -11.68171035)
(283.0153272 1.949579774e-19 -11.05912774)
(278.4648803 -4.476494415e-17 -10.21182803)
(274.0929751 3.813200147e-17 -9.163706475)
(270.0404447 -9.821288694e-17 -7.973721138)
(266.4030068 2.765531653e-17 -6.723096503)
(263.2270918 0 -5.496426317)
(260.5180588 -8.068117941e-17 -4.364709985)
(258.2532555 -6.854169941e-17 -3.375419509)
(256.3939196 -1.59939999e-20 -2.550455885)
(254.8934979 4.906603727e-17 -1.889982533)
(253.7027509 -8.258017768e-17 -1.379166774)
(252.7728989 -6.972436941e-17 -0.9952233653)
(252.0578048 2.351190813e-16 -0.7131284374)
(251.5155508 2.971513177e-16 -0.5093859681)
(251.109485 -1.66559901e-16 -0.3639636658)
(250.80869 2.803177388e-16 -0.2608942028)
(250.5878998 5.890913699e-16 -0.1880390151)
(250.4270394 -3.961191215e-16 -0.1364873462)
(250.3105351 6.657212628e-16 -0.0998605183)
(250.2265428 -2.796782288e-16 -0.07366658674)
(250.1661971 -4.698993611e-16 -0.05477420646)
(250.1229393 1.973304567e-16 -0.04101011214)
(250.0919545 -6.630523183e-16 -0.03086540217)
(250.0697075 0 -0.02329152247)
(250.0535946 -1.871152642e-15 -0.01756508355)
(250.0416795 7.858368718e-16 -0.01318131481)
(250.0326531 3.300421697e-16 -0.009753805667)
(250.025512 -1.386141653e-16 -0.007085743259)
(250.0196727 -9.315526429e-16 -0.004141874997)
(250.0126299 0 -0.004018492193)
(196.2141811 -3.435377558e-16 -9.817446411)
(234.945619 -1.69382932e-19 -11.19103829)
(256.5987159 0 -12.30041951)
(273.7599025 1.162041672e-19 -13.204987)
(289.9924286 -1.271562801e-16 -14.0968463)
(306.4834094 1.434269761e-16 -15.0713452)
(320.4152857 -3.01463927e-19 -16.05346487)
(325.0893352 -5.976975358e-19 -16.33093569)
(325.1706359 1.062779707e-18 -16.39504004)
(324.8917886 1.156265319e-16 -16.32197998)
(324.5129341 -9.741378278e-17 -16.40818552)
(324.1362285 1.275786255e-18 -16.34871535)
(323.6668945 -6.800771579e-17 -16.41547977)
(323.1438365 5.858015031e-17 -16.39293894)
(322.5226454 4.769425273e-17 -16.43788936)
(321.8040228 -4.240885711e-17 -16.44586829)
(320.9595191 -4.185747737e-18 -16.48339042)
(319.9716832 0 -16.51147508)
(318.8127107 0 -16.55213891)
(317.4544224 0 -16.5930733)
(315.8635547 -3.813929372e-17 -16.63860104)
(314.0039056 1.416067909e-17 -16.68269753)
(311.8365606 3.63668571e-17 -16.72064556)
(309.3220678 -2.039087369e-17 -16.74167316)
(306.4241565 2.613650648e-17 -16.72943912)
(303.1158554 1.48122913e-17 -16.65896355)
(299.3886948 -2.542551329e-17 -16.49537491)
(295.2649035 2.138958461e-17 -16.19377499)
(290.8104191 -1.841071776e-17 -15.70304926)
(286.1421385 -3.04492303e-19 -14.97613167)
(281.4205841 2.680098008e-17 -13.9862356)
(276.8247141 4.618396313e-17 -12.74249159)
(272.5173508 0 -11.29569211)
(268.6167635 6.74745918e-17 -9.729766138)
(265.1854269 0 -8.142987506)
(262.235975 0 -6.627526691)
(259.7465058 2.082271847e-16 -5.254498136)
(257.6765245 3.517371709e-17 -4.06727459)
(255.9785114 2.391911985e-16 -3.082133444)
(254.6042421 5.057187644e-17 -2.293602175)
(253.5074145 5.543365272e-16 -1.681741065)
(252.6445466 -2.156564337e-16 -1.219231321)
(251.975457 -1.211473288e-16 -0.8770062339)
(251.4637714 -9.171706829e-16 -0.6279705908)
(251.0774434 -1.743323533e-19 -0.4489431862)
(250.7890837 7.201385261e-16 -0.3212767316)
(250.5759704 6.05063591e-16 -0.2306293212)
(250.4197738 -1.117656695e-15 -0.1663339056)
(250.3060706 -5.117184395e-16 -0.1206528092)
(250.22375 2.862437947e-16 -0.08806805396)
(250.1644021 -1.200301146e-15 -0.06468912368)
(250.1217452 0 -0.04778978626)
(250.0911308 1.349437757e-15 -0.03546328665)
(250.0691231 1.130397266e-15 -0.02637682157)
(250.0531738 9.464180936e-16 -0.01960566239)
(250.0413839 0 -0.01450284888)
(250.0324308 6.621705328e-16 -0.01058791297)
(250.025359 6.915505271e-17 -0.007620816556)
(250.0196183 -2.078036826e-15 -0.004375183488)
(250.0124949 3.174850933e-15 -0.004157168955)
(199.6167129 -7.275815753e-16 -12.88372013)
(239.2499198 3.731135197e-16 -14.88850572)
(261.3727796 -1.407235805e-16 -16.31951497)
(279.0159491 -6.461343216e-22 -17.513325)
(295.8611313 0 -18.69187533)
(312.5282218 3.140982969e-19 -19.96293551)
(323.8605307 3.144163621e-21 -20.97309952)
(326.5414113 0 -21.11697705)
(326.3727419 -2.202750151e-18 -21.19805511)
(326.0735404 -1.182647622e-16 -21.107383)
(325.6609565 9.934529604e-17 -21.20448624)
(325.2471791 0 -21.13464439)
(324.7311768 -7.164365059e-17 -21.2021102)
(324.1536027 -1.948857705e-18 -21.17377371)
(323.4669727 4.561536549e-17 -21.21333586)
(322.6706151 -8.192875268e-17 -21.21403815)
(321.7336988 7.291153474e-17 -21.24119904)
(320.6360325 3.613352052e-18 -21.25663103)
(319.3468331 0 -21.27995911)
(317.8344004 4.121976705e-17 -21.29863971)
(316.0618932 -4.326445433e-17 -21.31421461)
(313.989626 3.682702798e-17 -21.31805615)
(311.5760743 -3.719178221e-17 -21.30075243)
(308.7810761 0 -21.24547149)
(305.5711817 -1.793659829e-17 -21.12773403)
(301.9279859 0 -20.91275355)
(297.8600166 2.630882724e-17 -20.55478164)
(293.4169543 -2.213470986e-17 -19.99912868)
(288.7011386 0 -19.19029257)
(283.8669807 0 -18.08759611)
(279.1009978 0 -16.68383049)
(274.5862476 0 -15.01704256)
(270.466394 0 -13.16760893)
(266.8251369 1.054115992e-16 -11.24143873)
(263.6864123 -1.491840568e-16 -9.347505451)
(261.0295327 1.015325891e-16 -7.578665356)
(258.80898 -1.716626116e-16 -6.000547377)
(256.9708165 -1.822324352e-16 -4.648726288)
(255.4625001 -9.202752466e-17 -3.531901085)
(254.2367402 -1.558236101e-16 -2.638311181)
(253.2517693 -5.698411127e-16 -1.943107045)
(252.470329 -2.955662123e-16 -1.415109468)
(251.8587692 4.356841838e-16 -1.022078626)
(251.3866939 8.373106404e-16 -0.7341968088)
(251.0270547 -7.038192562e-16 -0.5259080198)
(250.7563642 -7.388986777e-16 -0.3765104678)
(250.5547935 -8.683461376e-16 -0.2699308739)
(250.4060673 1.040696686e-15 -0.1940848656)
(250.2971727 1.221657777e-15 -0.1401092043)
(250.2179416 -1.46249953e-16 -0.101615738)
(250.1605812 1.347164015e-15 -0.07405628584)
(250.119209 -1.844909492e-15 -0.05421661462)
(250.0894321 -2.91429122e-15 -0.03983325974)
(250.0679781 -1.002677183e-15 -0.02931504497)
(250.0524031 0 -0.02155183328)
(250.0408733 1.595116956e-15 -0.01576465983)
(250.0320894 -4.980878034e-16 -0.01138297194)
(250.0251358 -2.070572645e-16 -0.008130874879)
(250.0195373 1.83299123e-15 -0.004605489595)
(250.0123996 -3.034129885e-15 -0.004293749832)
(202.5121826 1.879430334e-19 -16.09847926)
(242.9705448 0 -18.76291565)
(265.5315246 1.504820293e-19 -20.53220132)
(283.6585933 -1.450440678e-19 -22.03857433)
(301.0668783 -3.145118565e-19 -23.52977993)
(317.5467781 0 -25.08624136)
(325.9325412 7.040855246e-19 -25.98869619)
(327.1413517 -1.302672761e-18 -26.01957974)
(326.7843604 1.130993837e-18 -26.11576999)
(326.4682293 -9.513205861e-19 -26.00568233)
(326.0136427 0 -26.110536)
(325.5580709 8.487527345e-17 -26.02913668)
(324.9901455 -7.087564838e-17 -26.09268147)
(324.351343 6.13863099e-17 -26.05624842)
(323.5912756 -4.979407448e-17 -26.08665927)
(322.7072491 5.239707719e-18 -26.077556)
(321.6658997 0 -26.09134997)
(320.4438733 -6.317023032e-17 -26.09125656)
(319.0072468 4.985200971e-17 -26.09351403)
(317.3207833 -1.057356341e-17 -26.08463292)
(315.3444115 8.915097569e-18 -26.06215326)
(313.035817 0 -26.01344074)
(310.3524778 0 -25.92285185)
(307.2562729 0 -25.76584702)
(303.7209621 0 -25.50821754)
(299.7432306 -6.368878869e-17 -25.10410643)
(295.3571286 -3.925443025e-19 -24.49690383)
(290.6483176 -2.324635851e-17 -23.62515617)
(285.7596773 2.767210427e-19 -22.43641506)
(280.8784069 1.683415631e-17 -20.90708142)
(276.2030816 -2.929506469e-17 -19.05928332)
(271.9028298 1.247291633e-16 -16.96440513)
(268.0870765 -8.534356959e-17 -14.73014587)
(264.7971303 -7.219385205e-17 -12.47757891)
(262.0178642 1.228462939e-16 -10.31841032)
(259.6994058 -1.043212657e-16 -8.339559024)
(257.7783986 0 -6.596806086)
(256.192796 -1.87959718e-16 -5.115636573)
(254.8889969 -2.853370851e-16 -3.896352273)
(253.8231375 1.068434476e-16 -2.920987921)
(252.9593239 1.067156022e-19 -2.160362746)
(252.2671279 2.655229877e-16 -1.580248843)
(251.7196671 -5.106142938e-16 -1.14610986)
(251.2926253 4.295299859e-16 -0.8262385157)
(250.9640378 1.442601457e-15 -0.5934301053)
(250.7144327 1.513997514e-16 -0.4255203811)
(250.5270113 -1.269231978e-16 -0.3051609684)
(250.3876989 0 -0.2191870608)
(250.2850331 -1.604476874e-15 -0.1578493753)
(250.2099114 1.491914421e-16 -0.1140550532)
(250.1552597 2.246042066e-15 -0.08270994847)
(250.1156751 3.12751473e-15 -0.06018598571)
(250.0870811 4.176336245e-15 -0.04391167111)
(250.0664149 0 -0.03206920317)
(250.05137 0 -0.02338352314)
(250.0402005 -1.605605029e-15 -0.01695687732)
(250.031654 1.664866568e-16 -0.01213564215)
(250.0248526 -2.756070209e-16 -0.008614073887)
(250.0194154 -1.820461366e-15 -0.004827740909)
(250.0122643 -5.849502831e-18 -0.004427965679)
(204.8598116 -1.99446367e-19 -19.44347781)
(246.1099338 2.169948413e-16 -22.79283419)
(269.1084937 -3.389134735e-16 -24.92475787)
(287.7773405 1.653295986e-16 -26.77259202)
(305.6950944 3.526699617e-19 -28.61474954)
(321.1073153 1.924072892e-16 -30.36197622)
(326.7514789 -1.902043963e-16 -31.05779583)
(327.2101877 1.348713715e-18 -30.99323451)
(326.4502531 -1.468254582e-16 -31.09241804)
(326.1251633 1.23886331e-16 -30.95684236)
(325.6094452 -1.620307231e-18 -31.06620262)
(325.1044696 0 -30.97676235)
(324.4760469 -3.958729625e-21 -31.03706262)
(323.765503 -3.808476803e-18 -30.99536161)
(322.9198892 3.190296048e-18 -31.01730868)
(321.9339655 3.227257374e-17 -30.99903147)
(320.7719277 -3.60366066e-17 -30.99806375)
(319.4071478 0 -30.97909751)
(317.8027355 6.440779753e-18 -30.95398058)
(315.9202395 -3.273590569e-17 -30.90760696)
(313.7170334 3.65575268e-17 -30.83267495)
(311.1494546 1.563775947e-17 -30.71147105)
(308.1763059 0 -30.52079352)
(304.7654277 -2.262593643e-17 -30.22679837)
(300.9038019 0 -29.78413721)
(296.6113403 -3.816658202e-19 -29.13549737)
(291.9564639 2.78869114e-17 -28.21567748)
(287.0665755 4.776187136e-17 -26.96307095)
(282.1228088 -4.092827017e-17 -25.33897046)
(277.3327339 0 -23.34798022)
(272.8881963 0 -21.04804166)
(268.9267067 9.830194663e-19 -18.54302034)
(265.5128106 -7.1025549e-19 -15.96114658)
(262.6432102 3.752100901e-17 -13.42965948)
(260.2676105 -1.589715631e-16 -11.05509252)
(258.313525 -2.697537055e-17 -8.91312269)
(256.7063284 2.052584603e-16 -7.04693723)
(255.3810524 -2.7064599e-16 -5.471003688)
(254.2864927 2.599698073e-16 -4.177340156)
(253.3841592 2.751476595e-17 -3.142388885)
(252.6449019 -9.237834744e-17 -2.333446461)
(252.0453515 3.884592049e-17 -1.714091665)
(251.5653187 6.542976016e-17 -1.248317226)
(251.1864074 -9.339135301e-16 -0.9032765369)
(250.891603 -7.379893913e-16 -0.6507632633)
(250.6653801 0 -0.4676827188)
(250.4939624 1.037970121e-15 -0.3358288649)
(250.3655116 0 -0.2412719599)
(250.2701737 0 -0.1736069776)
(250.1999764 0 -0.1251999049)
(250.1486262 -4.189616605e-15 -0.09052419806)
(250.1112525 -1.588519773e-15 -0.06561547593)
(250.0841389 -2.823011045e-15 -0.04764649729)
(250.0644657 -2.494820408e-15 -0.03460784382)
(250.0500902 -1.827703432e-15 -0.02508278989)
(250.0393732 0 -0.01807002284)
(250.0311273 0 -0.01284206217)
(250.0245124 1.376021713e-16 -0.009068627247)
(250.0192606 1.809388015e-15 -0.005040711654)
(250.0121154 -1.156412964e-17 -0.004559658082)
(206.6290383 2.12067909e-19 -22.93695944)
(248.6678688 0 -26.9516713)
(272.1514115 1.822890559e-19 -29.49385475)
(291.4318389 -1.039943609e-21 -31.71463288)
(309.7393383 -2.004219242e-16 -33.94660363)
(322.9324859 2.089794533e-16 -35.68435456)
(326.2086859 0 -36.12951816)
(325.8179705 0 -35.99499104)
(325.4053277 1.50176949e-16 -36.12269408)
(325.0166555 2.087899313e-19 -35.9749212)
(324.4787675 -1.056679381e-16 -36.08754126)
(323.9151952 0 -35.99001151)
(323.216397 2.315788927e-18 -36.0424489)
(322.4225343 6.626707592e-17 -35.99203453)
(321.4785653 -5.550621371e-17 -35.99934663)
(320.3762295 5.490935225e-18 -35.96499022)
(319.0773829 -4.651801063e-18 -35.94018371)
(317.5519999 7.848450683e-18 -35.89124044)
(315.760353 -5.294346891e-17 -35.82498001)
(313.6611827 -3.858765451e-19 -35.72393435)
(311.2103467 8.516291952e-17 -35.57484373)
(308.3649553 -4.790054192e-17 -35.35325406)
(305.0888095 0 -35.02657625)
(301.3613247 -2.865507311e-19 -34.55003449)
(297.1903294 1.968694925e-17 -33.86656997)
(292.6277171 3.374564804e-17 -32.90913939)
(287.7832056 0 -31.6096622)
(282.826147 0 -29.91656659)
(277.9658586 -2.150497323e-17 -27.81685978)
(273.4117911 1.812037263e-17 -25.35186589)
(269.3292525 0 -22.61638915)
(265.8104073 -1.328986296e-16 -19.74057298)
(262.8703899 1.357423244e-16 -16.86337487)
(260.4643972 -1.919062004e-17 -14.1088621)
(258.5140107 -6.828637632e-19 -11.57184247)
(256.9318019 -2.218370652e-16 -9.313317781)
(255.63827 -4.446218273e-16 -7.362787963)
(254.5700084 4.136927089e-16 -5.723944612)
(253.6809029 -3.328059504e-17 -4.381335482)
(252.9391608 0 -3.306766459)
(252.3227946 -4.733330068e-17 -2.464929444)
(251.8154034 -5.971096707e-16 -1.818038525)
(251.4031796 0 -1.329349628)
(251.0732982 0 -0.9655178793)
(250.813401 -7.541303555e-16 -0.6978823059)
(250.611704 0 -0.5028705083)
(250.4573322 -9.265480313e-16 -0.3617798334)
(250.3406279 1.661743402e-15 -0.2601943132)
(250.2533324 -9.261801446e-17 -0.1872614795)
(250.1886154 -2.397527537e-15 -0.1349577259)
(250.1409865 2.193144493e-15 -0.09743194102)
(250.1061332 -3.545947886e-15 -0.07045881359)
(250.0807233 0 -0.05100732189)
(250.0622012 2.373402606e-15 -0.03691199074)
(250.0486042 5.89772705e-15 -0.02663853389)
(250.0384136 0 -0.01909813498)
(250.0305194 1.673177526e-16 -0.01349995715)
(250.0241198 -1.37430672e-16 -0.009493894722)
(250.0190725 1.79963588e-15 -0.005244806192)
(250.0119428 5.871413508e-15 -0.004689108411)
(207.7971061 -9.215909053e-16 -26.53535171)
(250.6241032 2.545164057e-16 -31.2282605)
(274.6939315 -2.008805495e-19 -34.22718934)
(294.6172649 4.024995432e-19 -36.85859568)
(312.952289 4.278267265e-19 -39.48137085)
(323.4388136 -2.210635193e-16 -40.98304282)
(324.4997817 2.057933096e-16 -41.22965293)
(324.2096094 0 -41.05828628)
(323.679527 1.533782681e-16 -41.21015231)
(323.2533157 2.384072299e-19 -41.04175157)
(322.6522244 -1.062868357e-16 -41.15084405)
(322.0230126 0 -41.04152207)
(321.2459184 2.383480959e-18 -41.07899073)
(320.3589105 0 -41.01425605)
(319.3052621 -2.533629744e-20 -40.9991012)
(318.0731414 0 -40.94013274)
(316.622106 -3.821374092e-17 -40.88096698)
(314.9187233 -1.506139045e-19 -40.78912219)
(312.9208809 2.028046388e-17 -40.66537191)
(310.5856018 4.619295483e-17 -40.48843568)
(307.8693227 -4.847275861e-17 -40.23746311)
(304.7333826 -1.668930177e-17 -39.87943963)
(301.1516623 -2.839980485e-17 -39.3710418)
(297.12201 2.386601039e-17 -38.65610181)
(292.6813284 2.0726625e-17 -37.66726136)
(287.9210427 1.807953971e-17 -36.3325154)
(282.9946633 0 -34.59018187)
(278.1063496 -5.211878156e-17 -32.41094579)
(273.4765461 8.920543856e-17 -29.81783815)
(269.2955276 5.718580765e-17 -26.89224282)
(265.6853093 1.460323889e-16 -23.76090353)
(262.6853123 1.1059991e-16 -20.57012177)
(260.2629349 0 -17.45888563)
(258.3389834 0 -14.5400552)
(256.8155258 1.003720332e-16 -11.89227952)
(255.5977431 2.550962392e-16 -9.560404739)
(254.6067531 1.915919379e-16 -7.560543463)
(253.7841535 3.234031877e-16 -5.886684762)
(253.0907398 5.462916405e-16 -4.517134156)
(252.5021174 4.59980194e-16 -3.42016623)
(252.0034766 -4.837912192e-17 -2.558781732)
(251.5850408 6.908502923e-16 -1.894574953)
(251.2389089 -1.09306015e-15 -1.390683296)
(250.957358 -5.734228395e-17 -1.013786158)
(250.7322961 8.171571223e-16 -0.7352102179)
(250.5553916 -8.057428479e-17 -0.5312744157)
(250.4184775 6.741873888e-17 -0.3830788182)
(250.3139596 -3.608908726e-15 -0.2759572286)
(250.2351124 0 -0.1987902098)
(250.1762206 2.514715969e-15 -0.1432989512)
(250.1325909 -2.095000334e-15 -0.1034055878)
(250.1004736 6.969907908e-15 -0.07469375384)
(250.0769295 -1.80834558e-16 -0.05397781411)
(250.0596771 -2.247241035e-15 -0.03897054106)
(250.0469433 -3.838432265e-15 -0.02804376454)
(250.0373386 -3.36780226e-15 -0.02003717966)
(250.029838 0 -0.0141077057)
(250.0236786 0 -0.009889235909)
(250.0188536 -3.582161917e-15 -0.005439996587)
(250.0117496 -5.806322384e-15 -0.00481613908)
(208.4422888 6.797954562e-20 -30.22535589)
(252.1067078 -2.77084103e-16 -35.63523104)
(276.8417129 0 -39.1374625)
(297.375813 4.520388805e-19 -42.22908868)
(314.9503229 -9.398498179e-19 -45.13067625)
(322.4984814 0 -46.22474656)
(322.2881781 -2.124902129e-16 -46.36330456)
(321.8830418 1.841918654e-16 -46.15192454)
(321.330095 -1.246174739e-18 -46.30874622)
(320.8516222 0 -46.12317286)
(320.1882559 3.467849675e-18 -46.22364782)
(319.483966 9.274362997e-17 -46.10259845)
(318.6184299 -2.152961811e-18 -46.12024885)
(317.6261221 2.662140263e-19 -46.03675996)
(316.4490786 -5.834433565e-17 -45.99192099)
(315.0715361 0 -45.89916069)
(313.4510502 4.862635001e-18 -45.79329755)
(311.5512733 -8.213325871e-18 -45.64212086)
(309.3288179 -2.806320531e-17 -45.43920027)
(306.740904 1.162323256e-17 -45.15787924)
(303.7475109 2.022358718e-17 -44.76838922)
(300.3185177 3.461869636e-21 -44.22800866)
(296.4438021 0 -43.48234362)
(292.1471548 2.509669188e-17 -42.46484079)
(287.5023538 4.317795929e-19 -41.10161785)
(282.6447658 -1.812513465e-17 -39.32375645)
(277.7676712 0 -37.08787385)
(273.0953388 1.07174308e-16 -34.39859618)
(268.8380392 -1.140649444e-16 -31.32075557)
(265.1474218 -5.835737513e-17 -27.97278133)
(262.0915116 -1.326802306e-16 -24.50354599)
(259.6565119 1.523186918e-17 -21.06370532)
(257.7687367 -3.60897308e-17 -17.78264368)
(256.3239472 -3.065408046e-16 -14.75629579)
(255.2134231 -2.934596602e-16 -12.0450159)
(254.3415377 -1.895137791e-16 -9.677694445)
(253.6342725 3.687642111e-16 -7.658355605)
(253.040571 3.521264151e-16 -5.972845581)
(252.5291512 -1.132872503e-15 -4.59462657)
(252.083194 -4.397890412e-16 -3.489547887)
(251.6947737 -2.465848586e-17 -2.619751368)
(251.3602236 -4.148608293e-17 -1.946840808)
(251.0769767 1.113952909e-15 -1.434329941)
(250.841882 9.056738301e-16 -1.049329049)
(250.6506738 4.89539153e-17 -0.7634948232)
(250.4981393 0 -0.553326181)
(250.3785838 -2.195623905e-15 -0.3999644666)
(250.2863211 1.834524406e-15 -0.2886855551)
(250.2160638 -9.570304055e-17 -0.2082535765)
(250.1631571 -1.105003387e-20 -0.1502492164)
(250.1236772 1.990541334e-16 -0.1084532011)
(250.0944249 -3.63862382e-15 -0.0783203563)
(250.0728511 0 -0.0565550805)
(250.0569496 2.570230651e-15 -0.04078011147)
(250.0451398 -1.247037158e-16 -0.02929564409)
(250.0361655 3.281491251e-15 -0.02088515761)
(250.0290912 -2.689031571e-15 -0.01466445665)
(250.0231927 0 -0.01025429353)
(250.0186054 3.567245429e-15 -0.005626234508)
(250.0115344 5.759114279e-15 -0.004940554775)
(208.6080329 -5.213603435e-16 -34.00180867)
(253.2004647 -3.027281224e-16 -40.17535327)
(278.6683383 2.531959128e-16 -44.23272817)
(299.7792244 -4.960312993e-19 -47.84393957)
(315.5387221 -2.577054802e-16 -50.76265055)
(319.7109167 4.863932195e-16 -51.38050782)
(319.4114182 -2.178364807e-16 -51.49633249)
(319.0055686 1.469790725e-18 -51.27071389)
(318.399147 -1.580184034e-16 -51.43657263)
(317.8625566 -3.110212013e-19 -51.22963918)
(317.1275444 1.092079042e-16 -51.31219394)
(316.3383295 -9.785562302e-17 -51.17370187)
(315.3735087 7.943187068e-17 -51.16229617)
(314.2630532 0 -51.05083793)
(312.9483589 -4.951626621e-17 -50.9644332)
(311.4097625 9.507768051e-17 -50.82334359)
(309.6034917 -2.988420469e-17 -50.65241915)
(307.4912624 3.409032918e-17 -50.41841956)
(305.0299758 -2.86080576e-17 -50.1066798)
(302.1794641 -2.472321823e-17 -49.68382817)
(298.9068247 2.060224064e-17 -49.11027965)
(295.1956277 1.783430063e-17 -48.33301687)
(291.0586493 0 -47.28712971)
(286.5535086 0 -45.89848475)
(281.7967711 -4.375019542e-17 -44.09348103)
(276.9666696 -3.817411989e-17 -41.81745936)
(272.2844723 0 -39.05784982)
(267.9740389 -1.108987944e-16 -35.86131771)
(264.2139713 -9.540316753e-17 -32.33385782)
(261.10313 2.026884749e-17 -28.6221114)
(258.6522404 1.209852815e-16 -24.88459006)
(256.7998062 -1.015015615e-16 -21.26509438)
(255.4407895 -1.857471696e-16 -17.87617422)
(254.4557665 3.122974959e-16 -14.79377211)
(253.733006 2.814996686e-16 -12.05984245)
(253.1812317 2.375993067e-16 -9.688742919)
(252.7342101 -4.258111955e-16 -7.674290352)
(252.3495675 -3.165347328e-16 -5.995934613)
(252.0042898 5.68570181e-16 -4.623679026)
(251.6889144 -2.99266227e-17 -3.521954551)
(251.4018951 8.301428127e-16 -2.652750487)
(251.1450621 4.225552626e-17 -1.978181868)
(250.9205699 2.239762961e-20 -1.462514698)
(250.7292915 -9.808625323e-16 -1.073591495)
(250.5703358 -4.982097349e-17 -0.7836523507)
(250.4412605 -1.456821529e-20 -0.5695929388)
(250.3385896 4.496515599e-15 -0.4127791723)
(250.2583707 0 -0.2985804867)
(250.1966394 -9.710389845e-17 -0.2157661905)
(250.1497306 1.617053897e-16 -0.1558713657)
(250.1144473 2.083574185e-15 -0.1126075383)
(250.0881174 0 -0.08135448429)
(250.0685698 0 -0.05874592582)
(250.0540681 -1.524723905e-16 -0.04234296666)
(250.0432222 4.142500685e-15 -0.03039439831)
(250.03491 1.03007748e-16 -0.02164156905)
(250.0282863 2.610431309e-15 -0.01516988324)
(250.0226656 -1.096767703e-15 -0.01058884165)
(250.0183293 -1.777171262e-15 -0.005803376053)
(250.0112973 -5.739981222e-15 -0.00506199453)
(208.3069308 0 -37.86169679)
(253.9744752 6.441037525e-19 -44.86051424)
(280.1808835 0 -49.53450152)
(301.5982304 -2.791959865e-16 -53.67302902)
(314.8634563 7.735711114e-19 -56.33509346)
(316.6866503 5.051517668e-16 -56.56133848)
(316.0193059 -2.232092054e-16 -56.67287158)
(315.5908155 -1.922085226e-16 -56.39403069)
(314.9272489 -2.919309777e-18 -56.56137821)
(314.323005 1.394096151e-16 -56.33608117)
(313.5079053 0 -56.39449431)
(312.6227499 1.000518618e-16 -56.23456295)
(311.5470705 -8.640359835e-17 -56.18556615)
(310.3055682 6.874350762e-17 -56.03578)
(308.8397132 -5.034649889e-17 -55.89340967)
(307.1261698 0 -55.68517345)
(305.1205336 -1.023893859e-17 -55.42541658)
(302.7836922 -3.506217027e-17 -55.07881409)
(300.0747021 -3.199164519e-19 -54.62178556)
(296.9591021 6.27423089e-17 -54.01307502)
(293.4157743 -2.124391915e-17 -53.20263105)
(289.4484782 -1.808813292e-17 -52.12720164)
(285.1007224 1.570782987e-17 -50.71346934)
(280.4708509 -1.321487145e-17 -48.88540424)
(275.7196194 6.917259005e-17 -46.57995065)
(271.0594456 -2.01113446e-17 -43.76952975)
(266.7207246 -8.444394039e-17 -40.48241626)
(262.9042557 8.544310671e-17 -36.80925206)
(259.7395357 7.26623356e-17 -32.88996366)
(257.2659611 -1.050735541e-17 -28.88676372)
(255.4406033 -1.052566993e-16 -24.95518496)
(254.1638758 -1.199951899e-16 -21.22327803)
(253.3102232 1.890681481e-16 -17.78249229)
(252.754086 1.712518805e-16 -14.68813938)
(252.3869468 0 -11.96518465)
(252.1255001 0 -9.61560489)
(251.913014 -4.097101056e-16 -7.625114919)
(251.7163185 3.44788707e-16 -5.968481734)
(251.520516 5.981194707e-16 -4.613501522)
(251.3230136 -5.027838947e-16 -3.524040862)
(251.1280191 -1.612150501e-15 -2.662500613)
(250.942208 6.662315984e-16 -1.991884659)
(250.771845 1.189804876e-15 -1.477480774)
(250.6212934 -3.020621421e-17 -1.088074707)
(250.4925978 0 -0.7966680103)
(250.3857443 4.233813163e-17 -0.5807088106)
(250.2992215 -2.299181764e-15 -0.421923161)
(250.2306303 5.90469919e-17 -0.3058895056)
(250.1772065 -4.919975334e-17 -0.2214776865)
(250.1361939 0 -0.1602535423)
(250.1050716 0 -0.1159188739)
(250.0816632 1.127116261e-16 -0.08382362563)
(250.0641573 2.981920544e-15 -0.06056451787)