/*--------------------------------*- C++ -*----------------------------------*\
  =========                 |
  \\      /  F ield         | OpenFOAM: The Open Source CFD Toolbox
   \\    /   O peration     | Website:  https://openfoam.org
    \\  /    A nd           | Version:  12
     \\/     M anipulation  |
\*---------------------------------------------------------------------------*/
FoamFile
{
    format      ascii;
    class       volScalarField;
    location    "0.015";
    object      alphat;
}
// * * * * * * * * * * * * * * * * * * * * * * * * * * * * * * * * * * * * * //

dimensions      [1 -1 -1 0 0 0 0];

internalField   nonuniform List<scalar> 
16000
(
4.3933598e-07
1.1115918e-05
2.2336874e-05
2.6105682e-05
1.9970866e-05
2.8735195e-05
1.903767e-05
2.7435137e-05
1.9542408e-05
2.9111377e-05
2.2477927e-05
2.893897e-05
2.4983464e-05
2.654783e-05
2.5190398e-05
2.5140976e-05
2.4746151e-05
2.461414e-05
2.4544509e-05
2.4583193e-05
2.4716929e-05
2.4946418e-05
2.5268255e-05
2.568147e-05
2.6187179e-05
2.6790723e-05
2.7498241e-05
2.8320727e-05
2.9272387e-05
3.0368948e-05
3.1626192e-05
3.3064823e-05
3.4712398e-05
3.660311e-05
3.8779858e-05
4.1293857e-05
4.4206423e-05
4.7589903e-05
5.1533267e-05
5.6148744e-05
6.1569941e-05
6.795183e-05
7.5491405e-05
8.4434749e-05
9.5080357e-05
0.0001077885
0.00012301563
0.00014133129
0.0001634461
0.00019024613
0.0002228343
0.00026257413
0.00031111901
0.00037044341
0.0004428579
0.00053099557
0.00063772147
0.00076601482
0.00091913218
0.0011013827
0.0012333745
0.0012318702
0.0012299707
0.0012278058
0.0012255683
0.0012235144
0.0012218279
0.0012206821
0.0012200259
0.001219384
0.0012182686
0.0012174038
0.0012159969
0.0012127079
0.0012080372
0.0012034849
0.0012015248
0.0011961674
0.0011889805
0.0011799272
4.0279798e-07
1.0536728e-05
2.0933909e-05
2.3661101e-05
1.7962105e-05
2.5617198e-05
1.6931696e-05
2.3912423e-05
1.7396046e-05
2.5647923e-05
2.0459692e-05
2.6125135e-05
2.3003097e-05
2.4126979e-05
2.3078269e-05
2.2930771e-05
2.2615571e-05
2.2485269e-05
2.2435334e-05
2.2480601e-05
2.261648e-05
2.284279e-05
2.3156901e-05
2.355805e-05
2.4047174e-05
2.4629533e-05
2.531078e-05
2.6101057e-05
2.7014015e-05
2.8065692e-05
2.9271701e-05
3.0651629e-05
3.2231776e-05
3.404457e-05
3.6131235e-05
3.8541137e-05
4.1333942e-05
4.4579753e-05
4.8363474e-05
5.2793179e-05
5.800037e-05
6.4134254e-05
7.1383228e-05
7.998436e-05
9.0228152e-05
0.00010245944
0.00011711379
0.00013473319
0.00015599076
0.00018171912
0.00021294438
0.00025092556
0.00029717316
0.00035347143
0.00042188764
0.00050478296
0.00060480488
0.00072489304
0.00086849918
0.0010402574
0.0012335818
0.0012321799
0.001230316
0.0012281456
0.0012258126
0.0012236043
0.0012217723
0.0012205184
0.0012198446
0.0012192538
0.0012181397
0.001217428
0.0012157286
0.001212168
0.0012075211
0.0012034906
0.0012010249
0.0011953256
0.0011883164
0.0011797236
3.6305213e-07
1.0108787e-05
1.9798394e-05
2.1685283e-05
1.6102685e-05
2.2627126e-05
1.5074568e-05
2.0787584e-05
1.5598543e-05
2.2449018e-05
1.8664479e-05
2.3260913e-05
2.0945149e-05
2.1635212e-05
2.0839551e-05
2.0643745e-05
2.0389855e-05
2.0276408e-05
2.0246018e-05
2.0301629e-05
2.0440683e-05
2.0663545e-05
2.0967938e-05
2.1353555e-05
2.182123e-05
2.2376317e-05
2.3024287e-05
2.3774733e-05
2.4640621e-05
2.5638089e-05
2.6782813e-05
2.8093698e-05
2.9596132e-05
3.1321124e-05
3.3308452e-05
3.5605783e-05
3.8271254e-05
4.1373424e-05
4.4994197e-05
4.9237523e-05
5.4233311e-05
6.0127014e-05
6.7100429e-05
7.5382371e-05
8.5257581e-05
9.7059509e-05
0.00011120748
0.00012822199
0.00014874727
0.00017357611
0.00020367655
0.00024022944
0.00028463942
0.0003385534
0.00040386729
0.00048275293
0.00057770653
0.00069164672
0.00082819085
0.00099225419
0.0011906817
0.0012324837
0.0012306675
0.0012285205
0.0012261248
0.0012237721
0.001221791
0.0012204282
0.0012197275
0.0012191453
0.001218028
0.0012173539
0.001215222
0.0012114001
0.0012067229
0.0012035267
0.001200508
0.0011944911
0.0011877966
0.0011795288
3.2536663e-07
9.7743983e-06
1.8797032e-05
2.1738946e-05
1.4841162e-05
2.0024456e-05
1.3440532e-05
1.8139775e-05
1.4031226e-05
1.9749054e-05
1.7116143e-05
2.0714597e-05
1.9063644e-05
1.9393512e-05
1.880301e-05
1.8588702e-05
1.8387821e-05
1.8295947e-05
1.8285071e-05
1.8351739e-05
1.8494357e-05
1.871418e-05
1.9009401e-05
1.9380435e-05
1.9828044e-05
2.0357854e-05
2.0975327e-05
2.1689726e-05
2.2513383e-05
2.346252e-05
2.4553053e-05
2.580337e-05
2.7238333e-05
2.8887853e-05
3.0790703e-05
3.2993344e-05
3.5552888e-05
3.853719e-05
4.2026597e-05
4.6121885e-05
5.0952961e-05
5.6664004e-05
6.3433634e-05
7.1485237e-05
8.1102375e-05
9.2613303e-05
0.00010642864
0.00012305666
0.00014312394
0.00016739832
0.00019680617
0.00023246843
0.00027570129
0.00032802842
0.00039118017
0.00046712782
0.00055817218
0.00066711353
0.00079757156
0.00095452491
0.0011448233
0.001232797
0.0012310407
0.0012289387
0.0012265077
0.0012240249
0.0012218889
0.0012204324
0.0012197087
0.0012190882
0.001218063
0.0012172078
0.0012146423
0.0012105824
0.0012057326
0.0012034222
0.0011998828
0.0011936683
0.001187272
0.0011791918
2.9121193e-07
9.5494174e-06
1.7976405e-05
2.2230807e-05
1.5184465e-05
1.7711412e-05
1.2004509e-05
1.5889779e-05
1.2666545e-05
1.7959261e-05
1.5829318e-05
1.8445622e-05
1.7326446e-05
1.7377176e-05
1.6936243e-05
1.6722514e-05
1.6559067e-05
1.6484958e-05
1.6486738e-05
1.6559343e-05
1.670115e-05
1.6914386e-05
1.7197638e-05
1.7552075e-05
1.7978426e-05
1.8482539e-05
1.9069841e-05
1.9749371e-05
2.0532819e-05
2.1436332e-05
2.2476103e-05
2.3670161e-05
2.5043062e-05
2.662388e-05
2.8450654e-05
3.0568991e-05
3.3035267e-05
3.5917142e-05
3.929461e-05
4.326589e-05
4.7961742e-05
5.3526802e-05
6.0139231e-05
6.801874e-05
7.7450705e-05
8.8762783e-05
0.00010236249
0.0001187527
0.00013855044
0.00016250957
0.00019152703
0.00022667788
0.00026920421
0.00032052052
0.00038220427
0.00045603246
0.00054410042
0.00064904857
0.00077441626
0.00092512072
0.0011078459
0.0012330462
0.0012313489
0.0012293011
0.001226857
0.0012242662
0.0012220003
0.0012204945
0.0012198083
0.0012191577
0.0012181801
0.0012169746
0.0012140228
0.00120975
0.0012053426
0.0012031982
0.0011991154
0.0011928452
0.0011868352
0.0011786358
2.6567629e-07
9.4248965e-06
1.7328175e-05
2.183183e-05
1.4839191e-05
1.5693253e-05
1.2036471e-05
1.4122054e-05
1.2963763e-05
1.6183869e-05
1.4635742e-05
1.6474826e-05
1.5728363e-05
1.5580117e-05
1.523226e-05
1.5025849e-05
1.4885902e-05
1.4824172e-05
1.4833385e-05
1.4908586e-05
1.5047756e-05
1.52536e-05
1.552485e-05
1.58633e-05
1.6269831e-05
1.6750277e-05
1.7310044e-05
1.7958044e-05
1.8705344e-05
1.9567934e-05
2.0562335e-05
2.1706345e-05
2.3024398e-05
2.4544999e-05
2.6305716e-05
2.8351636e-05
3.0738738e-05
3.3534875e-05
3.6820798e-05
4.069315e-05
4.5283903e-05
5.0739784e-05
5.7241437e-05
6.5006806e-05
7.4326206e-05
8.5531753e-05
9.9034262e-05
0.00011533975
0.00013506573
0.00015896645
0.00018792621
0.00022299433
0.00026536092
0.0003163542
0.00037742132
0.00045016332
0.00053647994
0.00063884666
0.00076069697
0.00090684063
0.0010837349
0.0012331869
0.0012315358
0.0012295346
0.0012270835
0.0012244033
0.0012220411
0.0012205463
0.0012199742
0.0012194917
0.0012183388
0.001216625
0.0012133265
0.0012090454
0.0012053782
0.0012029967
0.0011985349
0.001192139
0.0011866293
0.0011782975
2.4501009e-07
9.361025e-06
1.6806221e-05
2.0239566e-05
1.4537941e-05
1.3797009e-05
1.1444916e-05
1.2857977e-05
1.1614907e-05
1.38756e-05
1.3614602e-05
1.4702341e-05
1.4181404e-05
1.3922252e-05
1.3634442e-05
1.3445117e-05
1.3325889e-05
1.327768e-05
1.3295222e-05
1.3374338e-05
1.3512819e-05
1.3713545e-05
1.3975219e-05
1.4212287e-05
1.4591628e-05
1.5042662e-05
1.557032e-05
1.6183074e-05
1.6891174e-05
1.7710039e-05
1.8656342e-05
1.974754e-05
2.1007916e-05
2.2465367e-05
2.4156983e-05
2.6127365e-05
2.8432089e-05
3.1139038e-05
3.4330199e-05
3.8391282e-05
4.2903838e-05
4.828257e-05
5.4713085e-05
6.241336e-05
7.1680346e-05
8.2854774e-05
9.6356181e-05
0.00011270089
0.00013251534
0.000156567
0.0001857429
0.00022108617
0.00026375773
0.00031502535
0.00037623458
0.0004488419
0.00053458547
0.00063580932
0.00075586657
0.00089946983
0.0010728519
0.001233173
0.0012315434
0.001229565
0.001227095
0.0012243366
0.0012219193
0.0012204954
0.0012200611
0.0012197605
0.0012184443
0.0012162345
0.0012126597
0.0012085052
0.0012054977
0.0012029499
0.0011980989
0.0011917211
0.0011867917
0.0011782563
2.2230117e-07
9.3128218e-06
1.6331751e-05
1.7706084e-05
1.244668e-05
1.2028196e-05
9.4429369e-06
1.0961911e-05
1.0011439e-05
1.2565721e-05
1.2558524e-05
1.3053659e-05
1.2668792e-05
1.2373535e-05
1.2132631e-05
1.1969022e-05
1.1872366e-05
1.1840447e-05
1.1793364e-05
1.186017e-05
1.1987301e-05
1.2175257e-05
1.2423082e-05
1.2729419e-05
1.3099705e-05
1.3537543e-05
1.4048099e-05
1.4640068e-05
1.5323448e-05
1.6113418e-05
1.7027179e-05
1.8082182e-05
1.9302959e-05
2.0717257e-05
2.2362217e-05
2.4282453e-05
2.6533788e-05
2.9184701e-05
3.2319002e-05
3.6038493e-05
4.0466881e-05
4.5761762e-05
5.2115158e-05
6.0251861e-05
6.9524205e-05
8.0738527e-05
9.4327958e-05
0.00011082515
0.00013087282
0.00015526348
0.00018490146
0.00022084301
0.0002642442
0.00031634182
0.00037841627
0.00045182693
0.00053820983
0.00063984931
0.00076008897
0.00090360462
0.0010764697
0.0012329673
0.0012313248
0.0012293327
0.0012268161
0.0012239785
0.0012215416
0.0012202427
0.0012199737
0.0012195843
0.0012183332
0.0012157982
0.0012121315
0.0012081515
0.0012054767
0.0012028934
0.0011978463
0.0011917105
0.0011873583
0.0011784777
2.0454421e-07
9.2655429e-06
1.5783334e-05
1.5238276e-05
1.0276791e-05
1.0757866e-05
8.036136e-06
9.8878525e-06
9.2906864e-06
1.1257003e-05
1.1494649e-05
1.1539425e-05
1.1233192e-05
1.0947106e-05
1.0744416e-05
1.0530627e-05
1.0426977e-05
1.0393484e-05
1.042099e-05
1.0505565e-05
1.0645664e-05
1.0839377e-05
1.1088221e-05
1.1391642e-05
1.1754644e-05
1.2181821e-05
1.2678563e-05
1.3253802e-05
1.3917431e-05
1.4684351e-05
1.5572309e-05
1.6598896e-05
1.7789085e-05
1.9170675e-05
2.0781068e-05
2.2665215e-05
2.4879482e-05
2.7493255e-05
3.0591722e-05
3.4278363e-05
3.868088e-05
4.3958611e-05
5.0312197e-05
5.7972076e-05
6.7235117e-05
7.8473911e-05
9.2952885e-05
0.00010970144
0.00013010456
0.00015498796
0.00018528469
0.00022208041
0.00026654931
0.00031992958
0.00038348413
0.00045854516
0.00054674389
0.00065042112
0.00077302778
0.00091931443
0.0010953361
0.0012325454
0.0012308489
0.0012288014
0.001226202
0.0012232695
0.0012208332
0.0012197031
0.0012196416
0.0012192876
0.0012177859
0.0012151442
0.0012115254
0.0012079245
0.0012052992
0.0012026463
0.0011977292
0.0011920623
0.0011881128
0.0011786803
1.8927154e-07
9.2170604e-06
1.3652724e-05
1.3147362e-05
8.3401789e-06
9.6166326e-06
7.2608509e-06
8.8417037e-06
8.7209679e-06
1.0102419e-05
1.0401783e-05
1.0168357e-05
9.9042909e-06
9.5498249e-06
9.3415433e-06
9.2098474e-06
9.1463365e-06
9.142378e-06
9.1937149e-06
9.295428e-06
9.4447416e-06
9.6439622e-06
9.8943235e-06
1.019577e-05
1.0553692e-05
1.0973187e-05
1.1459878e-05
1.2023032e-05
1.267253e-05
1.3423029e-05
1.4292837e-05
1.5299942e-05
1.6469892e-05
1.7830731e-05
1.9420346e-05
2.128429e-05
2.3479745e-05
2.6077296e-05
2.9164173e-05
3.2846552e-05
3.7255055e-05
4.2552125e-05
4.8946639e-05
5.6675296e-05
6.6045751e-05
7.7442439e-05
9.1344008e-05
0.00010830666
0.00013020462
0.00015570241
0.00018680424
0.00022463552
0.00027040765
0.00032539325
0.00039089805
0.00046832532
0.00055944232
0.0006668126
0.00079416434
0.00094651051
0.001130166
0.0012319035
0.0012301105
0.0012279699
0.0012252543
0.0012222009
0.0012197613
0.0012188334
0.0012189696
0.0012185277
0.0012167668
0.0012140488
0.0012105537
0.0012072337
0.0012049499
0.0012022336
0.0011975213
0.0011924585
0.0011885029
0.0011783801
1.7552726e-07
9.1696407e-06
1.0887689e-05
1.0532763e-05
7.0463681e-06
8.5251791e-06
6.6368623e-06
7.9408717e-06
8.216354e-06
9.0441226e-06
9.29155e-06
8.830635e-06
8.5315779e-06
8.2817223e-06
8.1285009e-06
8.0408206e-06
8.0111101e-06
8.0338764e-06
8.1032618e-06
8.2188713e-06
8.378171e-06
8.583091e-06
8.8361535e-06
9.1377901e-06
9.493522e-06
9.9089796e-06
1.0390165e-05
1.09467e-05
1.1588631e-05
1.2330466e-05
1.3120972e-05
1.4107217e-05
1.5255931e-05
1.6595262e-05
1.8163432e-05
2.0006443e-05
2.2182145e-05
2.47621e-05
2.7835315e-05
3.1510443e-05
3.5921522e-05
4.1560411e-05
4.8039775e-05
5.5888543e-05
6.5423243e-05
7.703924e-05
9.1237306e-05
0.00010859896
0.00012984489
0.00015584856
0.00018934289
0.00022829832
0.00027547796
0.00033222025
0.00039994393
0.00048025225
0.0005752316
0.00068788421
0.0008224527
0.00098452278
0.0011811867
0.0012310665
0.0012291395
0.0012268795
0.0012240278
0.0012208235
0.0012183487
0.001217624
0.001217927
0.0012173047
0.0012152725
0.0012123858
0.0012088738
0.0012060057
0.0012041655
0.0012014026
0.0011968557
0.0011923681
0.0011878966
0.0011774829
1.6345883e-07
9.1214219e-06
8.6899264e-06
9.3041824e-06
6.2772835e-06
7.5287848e-06
6.0977642e-06
7.1616017e-06
7.7362217e-06
8.064213e-06
8.028031e-06
7.591755e-06
7.3532727e-06
7.1674971e-06
7.0603311e-06
7.0094374e-06
7.0084367e-06
7.0535691e-06
7.1406266e-06
7.2696182e-06
7.4389423e-06
7.6508464e-06
7.9085913e-06
8.2132492e-06
8.5704995e-06
8.945487e-06
9.4181448e-06
9.9659998e-06
1.0599105e-05
1.1331669e-05
1.2180671e-05
1.3168508e-05
1.4320553e-05
1.5665503e-05
1.7242443e-05
1.9098431e-05
2.1292753e-05
2.3898712e-05
2.7008033e-05
3.0732902e-05
3.5211923e-05
4.0619267e-05
4.716966e-05
5.5120624e-05
6.4797105e-05
7.7271312e-05
9.1828439e-05
0.00010964763
0.00013146487
0.00015818059
0.00019083941
0.00023280315
0.00028134503
0.00033979839
0.00040977119
0.00049321124
0.00059273021
0.00071201852
0.00085614889
0.0010317726
0.0012321183
0.0012300926
0.0012280068
0.0012256171
0.0012226263
0.001219242
0.0012166541
0.0012160836
0.0012165019
0.0012156663
0.0012133078
0.0012101248
0.0012066749
0.0012042925
0.001202694
0.0011996756
0.0011952599
0.0011912113
0.0011855652
0.0011751258
1.5270984e-07
9.0661544e-06
6.9936603e-06
8.1537888e-06
5.6118399e-06
6.6520697e-06
5.638279e-06
6.4792262e-06
7.1378136e-06
6.9277482e-06
6.8603994e-06
6.5079455e-06
6.3220228e-06
6.1896595e-06
6.1219696e-06
6.1031741e-06
6.1279247e-06
6.1938982e-06
6.2977931e-06
6.4404225e-06
6.6210024e-06
6.8419144e-06
7.0746057e-06
7.378581e-06
7.7351447e-06
8.1492616e-06
8.6295976e-06
9.1854723e-06
9.8273255e-06
1.0569767e-05
1.1430159e-05
1.2430737e-05
1.3598543e-05
1.4963071e-05
1.6564458e-05
1.8451078e-05
2.0684069e-05
2.3338795e-05
2.6510104e-05
3.0314333e-05
3.4894147e-05
4.0427978e-05
4.7141712e-05
5.5299368e-05
6.5235259e-05
7.7365473e-05
9.2207731e-05
0.00011038301
0.00013380768
0.00016121812
0.00019468562
0.00023542516
0.00028752084
0.00034744668
0.000419459
0.00050598372
0.00061034261
0.00073715421
0.00089269966
0.0010853968
0.0012312918
0.0012290739
0.0012268258
0.0012243162
0.0012211943
0.0012175985
0.0012148286
0.0012143422
0.00121474
0.001213657
0.0012108797
0.0012073026
0.0012040063
0.0012020447
0.0012003237
0.0011967504
0.0011923047
0.0011883338
0.0011816674
0.0011703802
1.4317346e-07
8.9841446e-06
5.6599291e-06
7.1342454e-06
5.0073976e-06
5.8687242e-06
5.2527341e-06
5.7862623e-06
6.3362161e-06
5.9366826e-06
5.8242778e-06
5.5607963e-06
5.4222125e-06
5.3352429e-06
5.3025164e-06
5.3127257e-06
5.3614512e-06
5.4474614e-06
5.5683981e-06
5.7022137e-06
5.8883624e-06
6.1150841e-06
6.3852754e-06
6.7025892e-06
7.0723856e-06
7.5001861e-06
7.9945792e-06
8.5656911e-06
9.2243339e-06
9.9854413e-06
1.0866658e-05
1.1890635e-05
1.3023861e-05
1.440739e-05
1.6032071e-05
1.7947372e-05
2.0216274e-05
2.2915941e-05
2.6143891e-05
3.0020474e-05
3.4692495e-05
4.0650758e-05
4.7565939e-05
5.5971055e-05
6.6206464e-05
7.8690627e-05
9.3950283e-05
0.0001126108
0.00013541789
0.00016475846
0.00019889169
0.00024034911
0.00029053954
0.00035452361
0.00042819253
0.0005174959
0.00062657221
0.00076112721
0.00092900402
0.0011411839
0.0012305294
0.0012281293
0.0012257425
0.001223153
0.0012199352
0.0012161052
0.0012133738
0.0012128971
0.001212791
0.001211311
0.0012080357
0.0012041383
0.0012011261
0.0011993303
0.0011969812
0.0011926278
0.0011878979
0.0011833334
0.0011757127
0.0011639589
1.3471057e-07
8.7738465e-06
4.6363883e-06
6.2260957e-06
4.4695066e-06
5.1800035e-06
4.9237706e-06
5.0313846e-06
5.4917628e-06
5.0498083e-06
4.9222517e-06
4.7370384e-06
4.6422682e-06
4.5949214e-06
4.5938703e-06
4.6308829e-06
4.7024908e-06
4.7873675e-06
4.9188925e-06
5.0867555e-06
5.2921435e-06
5.5369365e-06
5.8248756e-06
6.1598479e-06
6.5479208e-06
6.9949943e-06
7.5097861e-06
8.076998e-06
8.7527328e-06
9.5324741e-06
1.0434016e-05
1.1480133e-05
1.2698591e-05
1.4124348e-05
1.5798929e-05
1.7773401e-05
2.0113478e-05
2.2898956e-05
2.6230545e-05
3.0233624e-05
3.5059759e-05
4.0900048e-05
4.7984372e-05
5.6593456e-05
6.7070733e-05
8.0504496e-05
9.618101e-05
0.00011529482
0.00013857808
0.00016689657
0.00020315028
0.00024504155
0.00029569722
0.00035697128
0.00043549366
0.00052714047
0.00064046716
0.00078227049
0.00096211828
0.0011940976
0.0012299363
0.0012273899
0.0012249117
0.0012223205
0.0012191316
0.0012152879
0.0012130084
0.0012121449
0.0012111853
0.001209
0.0012054111
0.001201316
0.0011984091
0.0011962104
0.0011928229
0.0011876847
0.0011825663
0.0011772575
0.0011689476
0.0011579184
1.2729022e-07
8.3591515e-06
3.9498765e-06
5.4250528e-06
3.9908919e-06
4.576059e-06
4.3957189e-06
4.3474616e-06
4.6487556e-06
4.2658953e-06
4.1488697e-06
4.0277874e-06
3.97327e-06
3.9610079e-06
3.9889063e-06
4.0347169e-06
4.1205506e-06
4.2415352e-06
4.3969157e-06
4.5870663e-06
4.8138878e-06
5.0798837e-06
5.3892923e-06
5.7463647e-06
6.1423724e-06
6.6091896e-06
7.1446672e-06
7.7589026e-06
8.4646355e-06
9.2770178e-06
1.0214351e-05
1.1300357e-05
1.256395e-05
1.4041295e-05
1.577669e-05
1.7822833e-05
2.0248457e-05
2.3136354e-05
2.6589973e-05
3.0740059e-05
3.574085e-05
4.1787516e-05
4.9117154e-05
5.8010817e-05
6.8813082e-05
8.193791e-05
9.8750327e-05
0.00011825421
0.00014190178
0.00017053934
0.00020513712
0.00024924741
0.00030007514
0.00036173111
0.00043704652
0.00053501573
0.00065197771
0.00079998792
0.00099013571
0.0012323997
0.0012296191
0.001226981
0.0012244683
0.0012219625
0.0012189905
0.0012156278
0.0012134989
0.001212098
0.0012103325
0.0012075716
0.0012037122
0.0011993814
0.0011959821
0.0011926943
0.0011882671
0.0011825646
0.001177074
0.0011712194
0.0011629248
0.0011535595
1.210327e-07
8.0284314e-06
3.490908e-06
4.7136882e-06
3.569662e-06
3.8738427e-06
3.9388821e-06
3.7188648e-06
3.8690243e-06
3.5858926e-06
3.4943327e-06
3.424647e-06
3.4064758e-06
3.4259044e-06
3.4615166e-06
3.542113e-06
3.6566632e-06
3.8038686e-06
3.9839666e-06
4.1981691e-06
4.4490146e-06
4.7393369e-06
5.0629545e-06
5.4424598e-06
5.8764479e-06
6.3720429e-06
6.9377926e-06
7.5841863e-06
8.3242037e-06
9.1739799e-06
1.0152393e-05
1.1284117e-05
1.2599258e-05
1.4135557e-05
1.5869251e-05
1.7978889e-05
2.0479654e-05
2.3457285e-05
2.7182385e-05
3.1493975e-05
3.6684512e-05
4.295029e-05
5.0532552e-05
5.971056e-05
7.0821807e-05
8.4271885e-05
0.00010054051
0.00012019272
0.00014518123
0.00017397799
0.00020864536
0.00025041712
0.00030377687
0.00036575127
0.00044194294
0.00054190179
0.00066194569
0.00081486216
0.0010126243
0.0012324845
0.0012296661
0.0012270029
0.0012245073
0.0012221414
0.0012195775
0.0012167526
0.0012145728
0.0012125942
0.0012100792
0.0012068039
0.0012026256
0.0011979658
0.0011935042
0.0011890159
0.0011839074
0.001178019
0.0011723599
0.001166412
0.0011589878
0.0011517209
1.1617398e-07
6.5219049e-06
3.1009296e-06
4.0698444e-06
3.2094013e-06
3.2293816e-06
3.4840283e-06
3.1472365e-06
3.1901468e-06
3.0047515e-06
2.9455683e-06
2.9184368e-06
2.9238965e-06
2.9634147e-06
3.0411223e-06
3.1524155e-06
3.2950416e-06
3.4688222e-06
3.6748465e-06
3.914826e-06
4.1848029e-06
4.4993532e-06
4.8582621e-06
5.2665994e-06
5.7304272e-06
6.2571072e-06
6.8555896e-06
7.5367697e-06
8.3140029e-06
9.1824369e-06
1.0198357e-05
1.137106e-05
1.273164e-05
1.4318781e-05
1.618046e-05
1.8376073e-05
2.0978079e-05
2.4076035e-05
2.7779356e-05
3.2220685e-05
3.7561291e-05
4.4313327e-05
5.2140756e-05
6.1585872e-05
7.2974286e-05
8.669615e-05
0.00010321208
0.00012306747
0.00014826025
0.00017710648
0.00021176716
0.0002535464
0.00030717621
0.00036966887
0.00044696089
0.00054353686
0.00067168237
0.00082816143
0.0010302714
0.0012329147
0.0012301305
0.001227509
0.0012250676
0.0012228195
0.0012206176
0.0012181779
0.0012157849
0.0012131992
0.0012099818
0.001206067
0.0012015194
0.0011963834
0.0011909577
0.0011858026
0.0011803958
0.0011747102
0.001169267
0.0011637028
0.0011577158
0.0011526166
1.1209006e-07
4.7819196e-06
2.7410434e-06
3.4814323e-06
2.7428708e-06
2.6904748e-06
2.9961287e-06
2.6355796e-06
2.6207519e-06
2.5149686e-06
2.4917089e-06
2.4932013e-06
2.5319506e-06
2.6087199e-06
2.7187806e-06
2.8593733e-06
3.0296309e-06
3.2301278e-06
3.4587542e-06
3.7235668e-06
4.0256052e-06
4.3683792e-06
4.7561814e-06
5.1942665e-06
5.6889911e-06
6.2480187e-06
6.8806363e-06
7.5856313e-06
8.3971275e-06
9.3234905e-06
1.0385854e-05
1.161022e-05
1.3029076e-05
1.4682816e-05
1.6621508e-05
1.8906697e-05
2.1613609e-05
2.483406e-05
2.8679817e-05
3.328596e-05
3.8814852e-05
4.5459459e-05
5.3848423e-05
6.3528139e-05
7.5148088e-05
8.9082408e-05
0.00010577419
0.0001257547
0.00014967172
0.00017993755
0.00021464701
0.00025661119
0.00030777119
0.00037422009
0.00045301975
0.00055165022
0.00068237667
0.00084108379
0.0010440964
0.0012337122
0.0012310233
0.0012284948
0.0012261299
0.0012239219
0.0012217585
0.0012194234
0.0012166466
0.0012133307
0.0012094897
0.0012051201
0.0012001386
0.0011946445
0.001188952
0.0011837
0.0011783043
0.0011731572
0.0011682617
0.0011634874
0.0011592395
0.0011559648
1.0791857e-07
3.9748635e-06
2.3742349e-06
2.9402394e-06
2.3595591e-06
2.2401641e-06
2.4799819e-06
2.1852583e-06
2.1569219e-06
2.1133736e-06
2.1210196e-06
2.1592377e-06
2.2371331e-06
2.3474326e-06
2.4872109e-06
2.6553321e-06
2.8519766e-06
3.0756359e-06
3.3327237e-06
3.6243847e-06
3.9536919e-06
4.3244099e-06
4.7410704e-06
5.2091125e-06
5.7350851e-06
6.3268967e-06
6.9854728e-06
7.7361679e-06
8.5874161e-06
9.5568556e-06
1.06665e-05
1.194352e-05
1.3421674e-05
1.5142827e-05
1.7158896e-05
1.9533779e-05
2.2345107e-05
2.5686614e-05
2.9671533e-05
3.4434783e-05
4.0137232e-05
4.7311292e-05
5.556356e-05
6.543645e-05
7.7237618e-05
9.1328587e-05
0.00010814241
0.00012820845
0.00015360186
0.00018258376
0.00021752139
0.00025998206
0.00031205679
0.00038000704
0.00046077046
0.00056167302
0.00069462337
0.00085418561
0.0010548017
0.0012348699
0.0012323184
0.001229907
0.0012276135
0.0012253887
0.0012230776
0.001220454
0.0012173048
0.001213518
0.001209127
0.0012042489
0.0011990204
0.0011935016
0.0011878201
0.0011829454
0.0011781546
0.0011736745
0.0011694046
0.0011656717
0.0011631902
0.0011613248
1.0521594e-07
3.2234889e-06
2.0510698e-06
2.3767727e-06
2.0513443e-06
1.8588542e-06
1.9917845e-06
1.8034536e-06
1.7931224e-06
1.8001719e-06
1.8396613e-06
1.9188596e-06
2.0303608e-06
2.1698648e-06
2.3360816e-06
2.5291355e-06
2.7485668e-06
2.9984856e-06
3.2806569e-06
3.5978669e-06
3.9534856e-06
4.3514834e-06
4.7965336e-06
5.2941875e-06
5.8511142e-06
6.4703684e-06
7.1693704e-06
7.9568506e-06
8.8474762e-06
9.8594885e-06
1.1015826e-05
1.2344741e-05
1.3881258e-05
1.5668584e-05
1.7760017e-05
2.022118e-05
2.3132053e-05
2.6587403e-05
3.0701426e-05
3.5608272e-05
4.1741441e-05
4.8792166e-05
5.7202085e-05
6.722608e-05
7.9162933e-05
9.3370228e-05
0.00011028295
0.00013044754
0.00015596487
0.00018519857
0.00022063176
0.00026396904
0.00031742153
0.00038730755
0.00047038147
0.00057360855
0.00070824418
0.00086723144
0.0010626134
0.0012363578
0.0012339648
0.0012316669
0.0012294054
0.0012270918
0.0012245532
0.0012215715
0.0012179687
0.0012136992
0.0012088765
0.0012037019
0.0011983713
0.0011930643
0.0011879915
0.0011836353
0.0011799057
0.0011761699
0.0011725404
0.0011698952
0.0011689937
0.0011680735
1.0438481e-07
2.5585155e-06
1.7707056e-06
1.833686e-06
1.7722538e-06
1.5339108e-06
1.5899259e-06
1.4995484e-06
1.5228001e-06
1.5660897e-06
1.6474625e-06
1.7597046e-06
1.8987658e-06
2.0627825e-06
2.251853e-06
2.4670649e-06
2.7091369e-06
2.9819669e-06
3.2875992e-06
3.6290908e-06
4.0099692e-06
4.4343187e-06
4.9068948e-06
5.4333112e-06
6.0202893e-06
6.6759993e-06
7.410486e-06
8.2361636e-06
9.1568041e-06
1.0209875e-05
1.1411046e-05
1.2789587e-05
1.4381713e-05
1.6231937e-05
1.8394634e-05
2.1023961e-05
2.4048658e-05
2.7633158e-05
3.1892116e-05
3.6959594e-05
4.2991272e-05
5.0167399e-05
5.8699397e-05
6.8836205e-05
8.0875201e-05
9.5178861e-05
0.00011219857
0.00013367287
0.00015823009
0.00018791673
0.00022413367
0.00026870494
0.00032697171
0.00039599354
0.00048149284
0.00058683058
0.00072237376
0.0008793697
0.0010673899
0.0012381294
0.0012358948
0.0012336853
0.001231398
0.0012289066
0.0012260378
0.0012226205
0.001218561
0.0012139093
0.0012088605
0.0012036754
0.001198591
0.0011938189
0.0011896141
0.0011861712
0.0011831437
0.0011802301
0.0011773035
0.001175664
0.0011760326
0.0011756535
1.0651167e-07
1.9832468e-06
1.5379177e-06
1.4197594e-06
1.4876135e-06
1.260607e-06
1.295221e-06
1.2773318e-06
1.3359022e-06
1.4157217e-06
1.5281102e-06
1.6657045e-06
1.8267658e-06
2.0112149e-06
2.2201651e-06
2.4553299e-06
2.718364e-06
3.0125161e-06
3.3402941e-06
3.7048714e-06
4.1098461e-06
4.5593496e-06
5.0581805e-06
5.6119976e-06
6.2275803e-06
6.9131766e-06
7.6789548e-06
8.5375473e-06
9.5046982e-06
1.060006e-05
1.1848072e-05
1.3279129e-05
1.4930715e-05
1.6848837e-05
1.9089492e-05
2.1720266e-05
2.4822027e-05
2.8490956e-05
3.2839867e-05
3.800064e-05
4.4126854e-05
5.1396938e-05
6.0017908e-05
7.0239315e-05
8.2362397e-05
9.7564065e-05
0.00011484638
0.0001355291
0.00016046505
0.00019080366
0.00022805504
0.00027669501
0.00033426602
0.00040556454
0.00049332227
0.00060610647
0.00073574272
0.0008894332
0.0010687285
0.001240127
0.0012380321
0.0012358706
0.0012334937
0.0012307484
0.0012274839
0.0012236103
0.0012191537
0.0012142789
0.0012092503
0.0012043424
0.0011997715
0.0011957131
0.0011923608
0.0011899229
0.0011877065
0.0011854133
0.0011831823
0.001182427
0.0011837061
0.0011837022
1.128038e-07
1.5149075e-06
1.3506311e-06
1.1191201e-06
1.325068e-06
1.0316753e-06
1.0950984e-06
1.1308595e-06
1.2185014e-06
1.3281385e-06
1.4632407e-06
1.6202478e-06
1.7992945e-06
2.0014109e-06
2.2282673e-06
2.4818667e-06
2.7645053e-06
3.0785093e-06
3.4270941e-06
3.8133351e-06
4.2408617e-06
4.7138336e-06
5.237082e-06
5.8163085e-06
6.4583508e-06
7.1715351e-06
7.9661364e-06
8.8549956e-06
9.8541357e-06
1.0983607e-05
1.2268297e-05
1.3739162e-05
1.5434299e-05
1.7400339e-05
1.9693824e-05
2.2382701e-05
2.554771e-05
2.9283839e-05
3.3701927e-05
3.8930858e-05
4.5431895e-05
5.2820647e-05
6.1564665e-05
7.1919343e-05
8.4198815e-05
9.8800527e-05
0.00011624238
0.00013721572
0.00016264813
0.00019559256
0.00023430198
0.00028229372
0.00034179206
0.0004151597
0.00050964233
0.00061824263
0.00074674823
0.00089592119
0.0010657451
0.0012422829
0.0012402969
0.0012381379
0.0012356183
0.0012325756
0.0012289046
0.0012246201
0.0012198824
0.0012149664
0.0012101798
0.0012057731
0.001201908
0.0011987024
0.0011962385
0.0011944537
0.0011929378
0.0011912301
0.001189701
0.0011897128
0.0011915507
0.001191669
1.2401078e-07
1.2261395e-06
1.1904245e-06
9.6172949e-07
9.7843663e-07
9.0261724e-07
9.6301595e-07
1.0433508e-06
1.1535455e-06
1.2843346e-06
1.4363274e-06
1.6090874e-06
1.8037117e-06
2.0216837e-06
2.2648472e-06
2.5352747e-06
2.8352855e-06
3.1674617e-06
3.5346916e-06
3.9402214e-06
4.3877324e-06
4.8814468e-06
5.4262744e-06
6.0280209e-06
6.6936679e-06
7.4286421e-06
8.2479612e-06
9.1626279e-06
1.0199048e-05
1.1361469e-05
1.2682269e-05
1.4192995e-05
1.593233e-05
1.7947401e-05
2.029508e-05
2.3043273e-05
2.6272209e-05
3.0075814e-05
3.456343e-05
3.9862477e-05
4.6122534e-05
5.3521455e-05
6.227375e-05
7.2640502e-05
8.4951623e-05
9.9630417e-05
0.00011828031
0.00013972378
0.00016587104
0.00019803968
0.00023787043
0.00028728895
0.0003483927
0.00042730522
0.00051852021
0.00062689983
0.00075304497
0.00089661949
0.0010568229
0.0012328818
0.0012426081
0.0012404134
0.0012377204
0.0012343756
0.0012303372
0.0012257331
0.0012208516
0.0012160597
0.0012116837
0.0012079234
0.0012048489
0.0012024666
0.0012007484
0.0011995293
0.0011984285
0.0011971907
0.0011963419
0.0011970195
0.0011991427
0.0011992355
1.4677911e-07
1.2757668e-06
1.0293379e-06
7.4099366e-07
7.9967376e-07
8.0602168e-07
8.9029188e-07
9.951321e-07
1.1230965e-06
1.2696698e-06
1.4357821e-06
1.6223055e-06
1.8307009e-06
2.0625841e-06
2.3198264e-06
2.604514e-06
2.9189765e-06
3.2658141e-06
3.6479372e-06
4.068616e-06
4.5315501e-06
5.0409692e-06
5.6017758e-06
6.2197495e-06
6.901829e-06
7.6564863e-06
8.494203e-06
9.428049e-06
1.0474387e-05
1.1653651e-05
1.2991238e-05
1.4518571e-05
1.6274166e-05
1.8304827e-05
2.0666828e-05
2.3427072e-05
2.6664281e-05
3.0470338e-05
3.4952239e-05
4.0235149e-05
4.6467274e-05
5.4215262e-05
6.2989552e-05
7.3389626e-05
8.5763706e-05
0.00010056405
0.00011839233
0.00014005355
0.00016660969
0.00019941122
0.00024009411
0.00029318749
0.0003557016
0.00043177368
0.00052289942
0.00062990862
0.00075267698
0.00089029276
0.0010418551
0.0012061726
0.0012448813
0.0012426282
0.0012397567
0.0012361362
0.0012317955
0.0012269696
0.0012220572
0.0012174964
0.0012136193
0.0012105681
0.0012083091
0.0012067121
0.0012056072
0.0012047593
0.0012038727
0.0012029209
0.0012026207
0.0012038137
0.0012060514
0.0012061772
1.4090034e-07
8.5540913e-07
8.4836911e-07
6.3261905e-07
6.8808664e-07
7.4930933e-07
8.5400396e-07
9.7674749e-07
1.1185714e-06
1.2783019e-06
1.4571002e-06
1.6561376e-06
1.8769245e-06
2.1211478e-06
2.3907125e-06
2.6877485e-06
3.0146345e-06
3.3739649e-06
3.7687819e-06
4.2023637e-06
4.6784435e-06
5.2012734e-06
5.7757664e-06
6.4076978e-06
7.1039883e-06
7.8730761e-06
8.7253906e-06
9.6739346e-06
1.0744801e-05
1.1942845e-05
1.3300244e-05
1.4848468e-05
1.6625942e-05
1.8679201e-05
2.1063957e-05
2.3846181e-05
2.7103229e-05
3.0925309e-05
3.5417738e-05
4.0704496e-05
4.6933574e-05
5.428449e-05
6.2978701e-05
7.3296833e-05
8.559967e-05
0.00010036285
0.00011822171
0.00014125213
0.00016829059
0.00020177859
0.00024333809
0.00029473921
0.00035776405
0.0004340244
0.00052470855
0.00063024223
0.00075008019
0.0008831278
0.0010284772
0.0011836783
0.001247003
0.0012446892
0.0012416607
0.0012378154
0.001233247
0.0012282778
0.0012233913
0.0012190796
0.0012156819
0.0012132985