/*--------------------------------*- C++ -*----------------------------------*\
  =========                 |
  \\      /  F ield         | OpenFOAM: The Open Source CFD Toolbox
   \\    /   O peration     | Website:  https://openfoam.org
    \\  /    A nd           | Version:  12
     \\/     M anipulation  |
\*---------------------------------------------------------------------------*/
FoamFile
{
    format      ascii;
    class       volScalarField;
    location    "0.015";
    object      k;
}
// * * * * * * * * * * * * * * * * * * * * * * * * * * * * * * * * * * * * * //

dimensions      [0 2 -2 0 0 0 0];

internalField   nonuniform List<scalar> 
16000
(
0.045539053
0.022194441
0.023087351
0.017010361
0.014409802
0.013029632
0.012212369
0.011714251
0.011377391
0.011146557
0.01098315
0.010857849
0.010762881
0.010687027
0.010626588
0.010577666
0.010538071
0.010506218
0.010480649
0.010460037
0.010444
0.010431662
0.010422836
0.010416876
0.010413389
0.010412263
0.01041325
0.010416179
0.010420905
0.010427282
0.010435155
0.010444375
0.010454804
0.010466308
0.010478763
0.010492042
0.01050602
0.010520574
0.010535583
0.010550934
0.010566511
0.010582194
0.010597867
0.010613408
0.010628684
0.010643558
0.010657907
0.010671614
0.010684555
0.010696577
0.010707507
0.010717147
0.010725273
0.01073166
0.010736127
0.010738546
0.010738867
0.010737161
0.01073369
0.010728815
0.010722519
0.010713844
0.010701354
0.010685004
0.010667279
0.010651738
0.010641144
0.010637438
0.010639473
0.010637601
0.010619997
0.010593268
0.010541329
0.010449162
0.010339748
0.010261231
0.010246907
0.010253366
0.010258173
0.010172209
0.043304406
0.021019499
0.021602794
0.016441714
0.014048091
0.01281326
0.012041681
0.011587956
0.011273268
0.011061298
0.010908296
0.010792702
0.010704223
0.010634238
0.010578497
0.010533664
0.010497531
0.010468683
0.01044587
0.01042767
0.010413767
0.010403423
0.010396373
0.010391991
0.010390048
0.01039033
0.010392624
0.010396769
0.010402626
0.010410064
0.010418938
0.010429106
0.010440434
0.010452793
0.010466061
0.010480112
0.010494826
0.010510077
0.010525743
0.010541705
0.010557846
0.010574041
0.010590172
0.010606121
0.010621764
0.01063697
0.010651619
0.0106656
0.010678796
0.010691067
0.010702241
0.010712116
0.010720474
0.010727093
0.010731773
0.010734376
0.010734837
0.010733206
0.01072972
0.010724815
0.010718759
0.010710914
0.01069967
0.010684094
0.010665912
0.010648944
0.010636715
0.010631576
0.010632533
0.010629037
0.01060765
0.010578561
0.010518032
0.010420672
0.010314544
0.010248581
0.010235282
0.010246312
0.010253259
0.010170071
0.040177246
0.02022817
0.020241146
0.015855766
0.013679353
0.01257742
0.011865563
0.011458126
0.011166653
0.010974727
0.010833109
0.010727671
0.010646285
0.01058245
0.010531757
0.01049128
0.010458898
0.01043328
0.010413411
0.010397875
0.010386222
0.010378031
0.010372913
0.010370281
0.01037
0.01037181
0.010375525
0.010380988
0.010388069
0.010396644
0.01040658
0.010417742
0.010429999
0.010443225
0.010457301
0.010472104
0.010487513
0.010503405
0.010519656
0.010536142
0.010552746
0.010569338
0.010585797
0.010602006
0.010617848
0.010633202
0.010647955
0.010662003
0.010675238
0.010687531
0.010698719
0.010708605
0.010716973
0.010723601
0.010728291
0.010730901
0.01073137
0.010729748
0.01072626
0.010721355
0.010715451
0.010708209
0.01069806
0.010683383
0.010664943
0.01064649
0.010632415
0.010625692
0.01062509
0.010618825
0.010593186
0.010559362
0.010488357
0.010386703
0.010283564
0.010235607
0.010225553
0.010240866
0.010250708
0.010167829
0.036962018
0.0197301
0.019081745
0.015331367
0.013345598
0.012363899
0.011704416
0.011338753
0.011069241
0.010895531
0.01076481
0.010668754
0.010594173
0.010536151
0.010490292
0.010453991
0.010425246
0.010402762
0.010385679
0.01037283
0.010363312
0.010357229
0.010353998
0.010353142
0.010354487
0.010357804
0.010362918
0.010369677
0.010377953
0.010387633
0.010398591
0.010410696
0.010423822
0.010437845
0.010452647
0.010468109
0.010484109
0.010500527
0.010517235
0.01053411
0.01055103
0.010567865
0.01058449
0.010600785
0.010616643
0.010631949
0.010646599
0.010660499
0.01067355
0.010685635
0.010696602
0.010706266
0.010714415
0.010720828
0.010725313
0.010727734
0.010728046
0.010726317
0.010722781
0.010717893
0.010712159
0.010705462
0.010696312
0.010682525
0.010663831
0.010643666
0.010627363
0.010618824
0.010616254
0.010606296
0.010577652
0.01053633
0.010455928
0.010351129
0.010250279
0.010221527
0.010216928
0.010235658
0.010247675
0.010162624
0.0339983
0.019510352
0.018152887
0.01484615
0.013035476
0.012162562
0.011553854
0.011226898
0.010978784
0.010822103
0.010702129
0.010614952
0.01054706
0.010494653
0.010453525
0.010421304
0.010396166
0.01037683
0.010362335
0.010352241
0.010344881
0.010340958
0.010339595
0.01034054
0.010343528
0.010348371
0.010354898
0.010362962
0.010372437
0.010383214
0.010395173
0.010408189
0.010422138
0.010436897
0.010452351
0.010468382
0.010484872
0.010501699
0.010518738
0.010535863
0.010552951
0.010569871
0.010586496
0.010602706
0.010618396
0.010633462
0.010647809
0.010661351
0.010674002
0.010685657
0.010696175
0.010705382
0.010713071
0.010719028
0.010723067
0.01072507
0.010725016
0.01072301
0.010719316
0.010714396
0.010708789
0.010702507
0.010694136
0.010681047
0.010661969
0.01063987
0.010621064
0.010610641
0.010606257
0.010592371
0.010559516
0.010508503
0.010420378
0.010314242
0.010229048
0.010207783
0.010209653
0.010230656
0.010244549
0.010153141
0.031865133
0.019531677
0.017465572
0.014401954
0.012750763
0.011975839
0.011415164
0.011123695
0.010896151
0.01075516
0.010645574
0.010566694
0.010505295
0.010458282
0.010421751
0.010393499
0.010371911
0.010355821
0.0103437
0.010336303
0.010331231
0.010329579
0.010330022
0.010332768
0.010337421
0.010343804
0.010351751
0.01036112
0.010371783
0.010383633
0.010396556
0.010410429
0.01042513
0.01044054
0.010456544
0.010473028
0.010489875
0.010506967
0.010524182
0.010541393
0.010558476
0.010575303
0.010591745
0.010607682
0.010623013
0.010637643
0.010651484
0.010664462
0.010676501
0.010687508
0.010697352
0.010705865
0.010712848
0.010718093
0.010721428
0.01072275
0.010722079
0.010719575
0.010715554
0.010710496
0.010704934
0.010698916
0.010691032
0.010678271
0.010658481
0.010634169
0.010612641
0.010600284
0.010594545
0.010579112
0.01053832
0.010475688
0.010381658
0.010279447
0.010214557
0.010195423
0.010203877
0.010225971
0.010241551
0.010145478
0.029973812
0.019689107
0.016945533
0.013994578
0.012488769
0.011802865
0.011288119
0.011028725
0.010820946
0.010694293
0.010594846
0.010523807
0.010468755
0.010426999
0.010394991
0.010370657
0.010352552
0.01033988
0.010330161
0.010325254
0.010322615
0.010323458
0.010325576
0.01033014
0.010336482
0.010344419
0.01035379
0.010364452
0.010376278
0.01038916
0.010402987
0.010417638
0.010432996
0.010448941
0.010465364
0.010482152
0.010499194
0.010516377
0.010533582
0.010550688
0.010567569
0.010584103
0.010600162
0.010615629
0.010630405
0.010644403
0.010657545
0.010669763
0.010680991
0.010691144
0.010700097
0.010707687
0.010713716
0.010717982
0.010720336
0.01072068
0.010719105
0.010715836
0.01071126
0.010705884
0.010700213
0.010694244
0.010686473
0.010673526
0.010652523
0.010625671
0.010601332
0.010587098
0.010579684
0.010561453
0.010513605
0.010440263
0.010342802
0.010247434
0.010198585
0.010185002
0.010198308
0.010222127
0.0102391
0.010138686
0.027734939
0.019882741
0.016459969
0.013621034
0.012247764
0.011643245
0.011171541
0.010941029
0.01075273
0.010639488
0.010550003
0.010486447
0.010437633
0.010401054
0.010373536
0.010353116
0.010338397
0.010329097
0.010322198
0.010319541
0.010319449
0.010321991
0.010326664
0.010333069
0.010341112
0.0103506
0.010361375
0.010373294
0.010386228
0.010400067
0.0104147
0.010430011
0.010445885
0.010462207
0.010478871
0.010495771
0.010512803
0.010529862
0.010546835
0.010563608
0.010580063
0.010596079
0.010611538
0.010626323
0.010640341
0.010653512
0.010665765
0.010677038
0.010687268
0.010696372
0.010704227
0.010710665
0.010715487
0.010718498
0.010719561
0.010718618
0.010715829
0.010711504
0.010706108
0.010700175
0.010694159
0.010687942
0.010679849
0.010666126
0.010643308
0.010613546
0.010586424
0.010570628
0.010561084
0.010535932
0.010484619
0.010403828
0.010306386
0.010219441
0.010180136
0.010175695
0.010192897
0.010219472
0.010237254
0.010133149
0.026044121
0.020063415
0.015797888
0.013278091
0.012026473
0.011495722
0.011065236
0.010861869
0.010692125
0.010591263
0.010511421
0.010455061
0.010412374
0.010380912
0.010357861
0.010341383
0.010329995
0.010323434
0.010320172
0.010318114
0.010322607
0.010327167
0.01033375
0.010342021
0.010351753
0.01036276
0.010374886
0.010387985
0.010401926
0.010416595
0.010431884
0.010447682
0.010463878
0.010480362
0.010497037
0.010513805
0.010530574
0.010547247
0.010563726
0.010579905
0.010595677
0.010610931
0.010625554
0.010639439
0.010652495
0.010664648
0.010675832
0.010685984
0.01069504
0.01070291
0.010709462
0.010714518
0.010717873
0.010719351
0.010718799
0.010716262
0.010711958
0.010706294
0.010699805
0.010693035
0.010686357
0.01067951
0.010670617
0.010655549
0.010630337
0.01059728
0.01056748
0.01055063
0.010539363
0.010509724
0.010450081
0.010365888
0.010271351
0.01019617
0.01016279
0.010166844
0.010187602
0.010217629
0.010235375
0.010128213
0.024526728
0.02021536
0.01513053
0.012963394
0.011825378
0.01136165
0.01097063
0.010791881
0.010639626
0.010550044
0.010479567
0.010430179
0.01039351
0.010367124
0.010348522
0.010336013
0.010328125
0.010322579
0.010324589
0.010327413
0.010331816
0.01033875
0.010347382
0.010357485
0.010368854
0.010381302
0.010394671
0.010408814
0.010423598
0.010438906
0.010454632
0.010470673
0.010486927
0.010503293
0.010519685
0.01053602
0.010552219
0.010568202
0.010583886
0.010599182
0.010613995
0.010628225
0.010641772
0.010654534
0.010666428
0.010677379
0.010687323
0.010696191
0.010703905
0.010710358
0.010715402
0.010718842
0.01072046
0.010720098
0.010717675
0.010713273
0.010707206
0.010699971
0.010692149
0.010684249
0.010676531
0.010668601
0.010658432
0.010641578
0.010613557
0.010576861
0.010544391
0.010526974
0.010513945
0.010478327
0.010411302
0.01032544
0.010236065
0.01017002
0.010147912
0.010158399
0.01018162
0.010214911
0.010231127
0.010122991
0.023123977
0.020345598
0.01456415
0.012676241
0.011644856
0.01124155
0.010887807
0.010730563
0.010595419
0.010516316
0.010454897
0.010412331
0.010381595
0.010360271
0.010346123
0.010337577
0.010333606
0.01033356
0.010335794
0.010340961
0.01034837
0.010357462
0.010368072
0.01037993
0.010392826
0.010406569
0.010420999
0.01043597
0.010451347
0.010467015
0.010482875
0.010498834
0.010514803
0.010530698
0.010546449
0.010561993
0.01057727
0.010592221
0.010606784
0.010620889
0.010634456
0.010647402
0.010659636
0.010671066
0.010681609
0.010691189
0.010699734
0.010707161
0.010713369
0.010718227
0.010721559
0.010723155
0.010722807
0.010720368
0.010715827
0.010709368
0.010701391
0.010692452
0.01068312
0.010673814
0.01066466
0.010655175
0.010643308
0.010624408
0.010593409
0.010552741
0.010517171
0.010499327
0.010484656
0.010442474
0.010369379
0.010282171
0.010196782
0.01014332
0.01013404
0.010148778
0.010173346
0.010208541
0.010220918
0.010118602
0.021868552
0.020453422
0.01407883
0.012417453
0.011484471
0.011134263
0.010816425
0.010678559
0.010559809
0.010490523
0.010437892
0.010402079
0.010377235
0.010360995
0.010351346
0.010346825
0.010346389
0.010349271
0.010354983
0.010362869
0.010372581
0.010383825
0.010396303
0.01040976
0.010423982
0.010438777
0.010453984
0.01046946
0.010485075
0.010500721
0.01051631
0.010531768
0.010547027
0.010562027
0.010576722
0.010591073
0.010605048
0.01061861
0.010631721
0.010644331
0.01065638
0.010667798
0.010678505
0.010688414
0.01069744
0.010705499
0.010712501
0.010718341
0.010722887
0.010725974
0.010727401
0.01072695
0.010724431
0.010719749
0.010712981
0.010704412
0.010694516
0.010683857
0.010672925
0.01066199
0.010651042
0.010639591
0.010625717
0.010604682
0.010570703
0.010525664
0.01048591
0.010467291
0.010450924
0.010402984
0.010324635
0.010235988
0.010157677
0.010118477
0.010119535
0.010135277
0.01016058
0.010195513
0.010201681
0.01011321
0.020733319
0.02050054
0.013631173
0.012185274
0.011343469
0.011040089
0.010756549
0.010636127
0.010533101
0.010473213
0.010429153
0.0104001
0.010381158
0.010370053
0.010364958
0.010364517
0.010367765
0.010373987
0.010382574
0.010393083
0.01040511
0.010418324
0.01043245
0.010447232
0.010462456
0.010477927
0.010493492
0.010509017
0.010524386
0.01053951
0.010554321
0.010568771
0.010582825
0.010596455
0.010609645
0.010622387
0.010634677
0.010646506
0.010657858
0.010668704
0.010679
0.010688687
0.010697691
0.010705928
0.010713302
0.010719713
0.010725047
0.010729167
0.010731907
0.010733068
0.010732433
0.010729791
0.010724991
0.01071802
0.010709055
0.010698477
0.010686796
0.01067452
0.010661986
0.010649281
0.010636289
0.010622613
0.010606605
0.010583504
0.010546545
0.010496494
0.010451627
0.010431508
0.010412211
0.010359392
0.010276323
0.010187201
0.010119525
0.010095253
0.010102528
0.010115999
0.01014129
0.010173024
0.010175287
0.010097552
0.019708979
0.020410566
0.013227254
0.011977375
0.011221079
0.010959041
0.010708415
0.010603748
0.010515812
0.010465113
0.010429488
0.010407248
0.010394258
0.010388359
0.010387877
0.010391549
0.010398458
0.010407917
0.010419357
0.010432312
0.010446395
0.010461276
0.010476675
0.010492343
0.01050807
0.010523674
0.010539015
0.010553982
0.010568488
0.010582477
0.010595913
0.010608788
0.010621105
0.010632876
0.010644122
0.010654866
0.010665131
0.010674935
0.010684279
0.010693153
0.010701522
0.010709334
0.010716515
0.010722974
0.0107286
0.010733268
0.010736833
0.010739124
0.010739942
0.010739068
0.010736279
0.010731394
0.010724331
0.01071517
0.010704194
0.01069185
0.010678635
0.010664932
0.010650878
0.010636373
0.010621245
0.010605284
0.01058724
0.010562411
0.010522688
0.010466901
0.010420677
0.010397901
0.010369026
0.010310637
0.010224135
0.010138582
0.010085507
0.010073927
0.010081579
0.010090934
0.010114872
0.010140812
0.010139532
0.010074685
0.018781767
0.019909635
0.012863336
0.011793378
0.011117212
0.010891377
0.010672312
0.010582125
0.010508705
0.010467199
0.010439936
0.010424599
0.010417628
0.01041699
0.010421135
0.01042888
0.010439347
0.010451869
0.010465889
0.010480944
0.010496651
0.010512681
0.010528761
0.010544657
0.01056018
0.010575177
0.010589541
0.010603203
0.010616122
0.010628289
0.010639717
0.010650442
0.010660512
0.010669982
0.010678905
0.010687335
0.010695319
0.010702891
0.010710068
0.010716845
0.010723193
0.010729057
0.010734358
0.010738986
0.010742811
0.010745679
0.010747409
0.010747801
0.010746634
0.010743684
0.010738746
0.010731692
0.010722522
0.010711417
0.010698742
0.010684972
0.010670535
0.010655642
0.010640218
0.010624006
0.010606828
0.010588696
0.010568851
0.01054296
0.010501882
0.010443802
0.010401627
0.010370418
0.010328088
0.010261816
0.010177335
0.010099217
0.010059783
0.010053437
0.010056206
0.010062029
0.010082988
0.010102436
0.010098732
0.010050302
0.017942042
0.018720641
0.012538324
0.01163219
0.011031629
0.010837568
0.010648858
0.010572317
0.010512923
0.01048073
0.010461812
0.010453452
0.010452527
0.010457125
0.010465799
0.010477432
0.010491173
0.010506365
0.010522462
0.010539007
0.010555625
0.010572003
0.010587898
0.010603113
0.010617506
0.01063098
0.010643485
0.010655011
0.010665583
0.010675248
0.010684074
0.010692143
0.010699548
0.010706376
0.010712712
0.01071863
0.010724191
0.010729438
0.010734391
0.010739044
0.010743363
0.010747283
0.010750708
0.010753509
0.010755529
0.010756581
0.010756458
0.010754939
0.010751797
0.010746823
0.010739857
0.010730835
0.010719843
0.010707146
0.010693159
0.010678334
0.010662987
0.010647147
0.010630551
0.010612834
0.010593835
0.010573732
0.010552243
0.010525881
0.010485629
0.010432375
0.010389338
0.010348206
0.010294757
0.01022482
0.010145074
0.010075587
0.010041994
0.010031386
0.010027653
0.010031965
0.010048648
0.010062723
0.010058921
0.010028434
0.017183532
0.01753783
0.012257852
0.011493714
0.010963716
0.01079863
0.010639157
0.010575812
0.010529977
0.010507247
0.010496641
0.010495251
0.010500281
0.010509932
0.010522832
0.010537916
0.010554348
0.010571483
0.010588795
0.010605849
0.010622308
0.010637912
0.010652477
0.010665883
0.010678064
0.010689007
0.01069874
0.010707327
0.01071486
0.010721447
0.010727204
0.010732258
0.010736728
0.01074073
0.010744364
0.010747713
0.01075084
0.010753787
0.010756567
0.010759163
0.010761528
0.010763577
0.010765195
0.010766225
0.010766482
0.010765756
0.01076382
0.010760447
0.010755426
0.010748584
0.010739818
0.010729134
0.010716692
0.010702807
0.0106879
0.010672359
0.010656371
0.010639797
0.010622236
0.010603262
0.010582728
0.010560848
0.010537612
0.010510845
0.010473988
0.010425667
0.01037916
0.010328684
0.010266887
0.010196264
0.010122208
0.010060503
0.010024317
0.010007111
0.0099990929
0.010003154
0.010015772
0.010026481
0.010025516
0.010011694
0.016500427
0.016612808
0.012020006
0.011378228
0.010914402
0.010775973
0.010644736
0.010594352
0.010561646
0.010548475
0.010546073
0.010551487
0.010562161
0.010576383
0.010592837
0.010610503
0.010628574
0.010646441
0.010663635
0.010679796
0.010694672
0.010708104
0.010720013
0.010730386
0.010739264
0.010746726
0.010752888
0.010757887
0.010761873
0.010765003
0.010767432
0.010769306
0.010770765
0.01077193
0.010772904
0.010773768
0.010774576
0.010775356
0.010776106
0.010776792
0.010777344
0.010777656
0.010777584
0.010776948
0.010775538
0.010773127
0.010769482
0.010764389
0.010757668
0.010749199
0.01073894
0.010726963
0.010713473
0.010698797
0.010683317
0.01066733
0.010650893
0.010633739
0.010615375
0.010595341
0.010573471
0.010549887
0.010524531
0.010496247
0.010461706
0.010416132
0.010364782
0.010306171
0.010238669
0.010167328
0.01009947
0.010042053
0.010002756
0.0099830186
0.0099739218
0.0099774674
0.0099880056
0.0099972755
0.010000927
0.010000866
0.015886232
0.015701084
0.011819588
0.011286183
0.010884528
0.010771363
0.010667337
0.010629991
0.010610006
0.010606349
0.010611829
0.010623529
0.010639072
0.010656824
0.01067554
0.010694275
0.010712309
0.010729142
0.010744431
0.010757957
0.010769615
0.010779389
0.010787337
0.010793567
0.010798229
0.010801493
0.010803545
0.010804575
0.010804774
0.010804325
0.010803396
0.010802141
0.010800697
0.010799178
0.010797677
0.010796258
0.010794958
0.010793786
0.010792718
0.010791697
0.010790627
0.010789377
0.010787777
0.010785622
0.010782687
0.010778735
0.010773546
0.010766931
0.010758754
0.010748952
0.010737545
0.010724653
0.010710496
0.010695375
0.010679595
0.010663343
0.010646563
0.010628896
0.010609796
0.010588761
0.010565552
0.010540123
0.01051218
0.010480607
0.010443237
0.010397222
0.010340272
0.010274251
0.010204018
0.010134595
0.010071194
0.010018524
0.0099815816
0.0099624702
0.0099543295
0.009957103
0.0099673379
0.0099769123
0.0099856723
0.0099952412
0.015335981
0.015008594
0.011656559
0.011218663
0.010875273
0.01078725
0.010709389
0.010685322
0.010677499
0.010682862
0.010695315
0.010712037
0.010730835
0.010750202
0.010769045
0.010786597
0.010802332
0.010815946
0.010827306
0.010836391
0.010843276
0.010848104
0.010851064
0.010852375
0.010852269
0.010850977
0.010848725
0.01084573
0.010842192
0.010838294
0.010834199
0.010830049
0.010825964
0.010822038
0.010818343
0.010814922
0.010811789
0.010808929
0.010806292
0.010803797
0.010801322
0.010798711
0.01079577
0.010792278
0.010787998
0.0107827
0.010776179
0.010768283
0.010758927
0.010748104
0.010735886
0.010722424
0.010707926
0.010692632
0.010676742
0.010660326
0.010643224
0.01062502
0.010605132
0.010583
0.010558243
0.010530591
0.010499522
0.010463791
0.01042136
0.010370181
0.010309652
0.010241762
0.010171279
0.010104269
0.01004571
0.0099984506
0.0099646019
0.0099472302
0.0099415745
0.0099443483
0.0099539818
0.0099651405
0.0099785686
0.0099935588
0.01484535
0.014312568
0.011529119
0.011178395
0.010888854
0.010827268
0.010774174
0.010763246
0.010766326
0.010779171
0.010796529
0.010815808
0.010835103
0.010853184
0.010869258
0.010882867
0.010893784
0.01090198
0.010907563
0.010910721
0.010911696
0.010910762
0.010908201
0.010904295
0.010899315
0.010893512
0.010887117
0.010880339
0.010873362
0.01086635
0.010859444
0.010852759
0.010846389
0.010840404
0.010834848
0.01082974
0.01082507
0.010820797
0.010816849
0.010813119
0.010809463
0.010805702
0.010801625
0.010796999
0.010791587
0.010785167
0.010777559
0.010768647
0.010758395
0.010746846
0.010734117
0.01072037
0.010705785
0.010690515
0.010674639
0.010658098
0.010640638
0.010621802
0.010600987
0.010577559
0.010550952
0.010520622
0.01048584
0.010445458
0.010397988
0.01034227
0.01027863
0.010209834
0.010140852
0.010077218
0.010023158
0.0099809597
0.0099520116
0.0099378976
0.0099342141
0.0099387155
0.0099475833
0.009960404
0.0099774631
0.0099944402
0.014415686
0.013746819
0.011441258
0.011170184
0.01093207
0.010895749
0.010864936
0.010865606
0.010876808
0.010893904
0.010912543
0.010930584
0.010946621
0.010959895
0.01097005
0.010977024
0.010980931
0.010982014
0.010980588
0.010976999
0.010971593
0.010964708
0.01095666
0.010947736
0.010938198
0.010928277
0.010918178
0.010908077
0.010898128
0.01088846
0.010879182
0.010870379
0.010862117
0.010854437
0.010847356
0.01084087
0.010834944
0.010829518
0.010824498
0.010819757
0.010815133
0.010810432
0.010805429
0.010799888
0.010793574
0.010786279
0.010777845
0.010768189
0.010757314
0.010745308
0.010732317
0.010718509
0.01070402
0.010688909
0.010673122
0.010656467
0.010638601
0.010619026
0.01059712
0.010572175
0.010543435
0.010510092
0.010471249
0.010425945
0.010373401
0.010313579
0.010247921
0.010179771
0.010113896
0.010055027
0.010006339
0.0099692449
0.0099447886
0.0099342214
0.0099319449
0.0099379422
0.009947011
0.0099607506
0.0099800722
0.0099967918
0.014053742
0.013275889
0.011396033
0.011198826
0.011027027
0.010995834
0.010982604
0.010990855
0.011005269
0.011021575
0.011036566
0.011048813
0.011057609
0.011062766
0.011064404
0.011062826
0.011058423
0.011051621
0.011042845
0.011032501
0.011020955
0.011008533
0.010995521
0.010982169
0.010968691
0.010955273
0.010942071
0.010929221
0.010916836
0.010905008
0.010893812
0.010883306
0.010873524
0.010864484
0.010856182
0.010848588
0.010841652
0.010835294
0.010829406
0.010823849
0.010818448
0.010813
0.010807278
0.010801044
0.010794071
0.01078616
0.010777173
0.010767048
0.010755818
0.010743598
0.010730557
0.010716858
0.010702593
0.010687729
0.010672085
0.010655337
0.010637045
0.010616665
0.01059355
0.010566927
0.01053588
0.010499388
0.01045646
0.010406408
0.01034924
0.010286093
0.010219497
0.010153213
0.010091489
0.010037903
0.009994511
0.009962089
0.0099413001
0.0099337282
0.0099343112
0.0099408803
0.0099502117
0.0099643647
0.0099843834
0.010000277
0.013768971
0.012927939
0.011397569
0.011265524
0.011142746
0.011126294
0.011122871
0.011132015
0.011142972
0.011152502
0.011158711
0.011161036
0.011159477
0.011154358
0.011146149
0.011135372
0.011122537
0.011108118
0.01109253
0.01107614
0.011059254
0.011042133
0.011024995
0.011008021
0.010991365
0.010975153
0.010959495
0.010944479
0.010930181
0.01091666
0.01090396
0.010892113
0.010881131
0.010871011
0.010861731
0.010853246
0.010845491
0.010838376
0.010831782
0.010825565
0.010819547
0.010813526
0.010807277
0.010800568
0.010793179
0.01078492
0.010775661
0.010765353
0.010754039
0.010741849
0.010728954
0.010715507
0.01070156
0.010687002
0.010671542
0.010654735
0.010636041
0.010614857
0.010590504
0.010562156
0.010528791
0.010489261
0.010442571
0.010388353
0.010327377
0.01026184
0.010195194
0.010131462
0.010074281
0.010026062
0.0099877874
0.0099597024
0.0099422213
0.0099355066
0.0099378433
0.0099452938
0.009955487
0.0099700322
0.00998926
0.010002917
0.013579654
0.012674959
0.011448
0.011375861
0.011290012
0.011277589
0.011274547
0.011276713
0.011277421
0.011274897
0.011268508
0.011258445
0.011245198
0.011229361
0.011211519
0.011192207
0.011171886
0.011150943
0.011129696
0.011108405
0.011087279
0.011066485
0.011046161
0.011026417
0.011007343
0.010989015
0.010971494
0.010954834
0.010939076
0.010924254
0.010910388
0.01089749
0.010885556
0.010874569
0.010864494
0.010855275
0.01084684
0.010839091
0.01083191
0.010825151
0.010818642
0.01081219
0.010805581
0.010798595
0.010791019
0.010782672
0.010773426
0.01076323
0.010752121
0.010740217
0.010727674
0.010714619
0.010701064
0.01068684
0.010671575
0.010654731
0.01063568
0.010613758
0.010588249
0.010558289
0.010522801
0.010480587
0.010430712
0.010373124
0.010309236
0.010242093
0.010175866
0.01011479
0.010062026
0.010019021
0.0099856842
0.0099613754
0.00994597
0.009939652
0.0099414575
0.0099490366
0.0099606501
0.0099760872
0.0099937818
0.010004523
0.013477125
0.012525533
0.01156354
0.011517951
0.011452347
0.011435197
0.011422157
0.011410236
0.011395744
0.011378255
0.011357962
0.011335407
0.011311185
0.011285849
0.011259865
0.011233614
0.011207397
0.011181446
0.011155943
0.011131023
0.011106793
0.011083331
0.011060702
0.011038954
0.011018128
0.010998256
0.010979366
0.010961482
0.010944621
0.010928797
0.010914017
0.010900279
0.010887569
0.010875861
0.010865113
0.010855266
0.010846242
0.010837944
0.010830254
0.010823032
0.01081612
0.010809338
0.010802492
0.010795379
0.010787802
0.010779586
0.010770603
0.010760791
0.010750164
0.010738803
0.01072682
0.01071429
0.010701179
0.010687273
0.010672157
0.010655251
0.010635882
0.010613346
0.010586891
0.010555623
0.010518424
0.010474078
0.010421714
0.010361523
0.010295389
0.010226994
0.010161105
0.010102254
0.01005343
0.010015436
0.0099871806
0.0099668075
0.0099530988
0.0099459359
0.0099453866
0.0099512631
0.0099635909
0.0099801907
0.0099968213
0.010005345
0.013439376
0.012466068
0.011742825
0.011674414
0.011611925
0.011579041
0.011548738
0.011519022
0.01148815
0.011456219
0.011423553
0.011390575
0.011357655
0.011325093
0.011293116
0.011261888
0.011231527
0.011202112
0.011173695
0.01114631
0.011119977
0.011094707
0.011070509
0.011047385
0.011025338
0.011004373
0.010984492
0.010965699
0.010947999
0.010931391
0.010915874
0.010901439
0.010888069
0.010875736
0.010864396
0.01085399
0.01084444
0.01083565
0.010827504
0.010819871
0.010812603
0.01080554
0.010798512
0.010791341
0.010783851
0.010775882
0.010767307
0.010758049
0.010748089
0.01073745
0.010726172
0.010714253
0.010701594
0.010687948
0.010672898
0.010655883
0.010636251
0.010613296
0.010586237
0.010554128
0.010515794
0.010469981
0.010415846
0.010353711
0.010285745
0.010216058
0.010149919
0.010092297
0.010046369
0.010012738
0.0099896049
0.0099738368
0.0099626482
0.0099550013
0.0099515628
0.0099537535
0.0099632188
0.009979395
0.009996313
0.01000456
0.013484363
0.012435633
0.011908705
0.011819447
0.011743395
0.011690405
0.011641505
0.011595506
0.011551052
0.011508009
0.011466346
0.01142611
0.011387335
0.011350037
0.011314212
0.01127984
0.01124689
0.011215326
0.011185109
0.011156201
0.011128563
0.011102163
0.011076969
0.011052956
0.011030104
0.011008395
0.010987819
0.010968366
0.010950032
0.010932811
0.010916697
0.010901682
0.010887749
0.010874874
0.010863018
0.010852124
0.010842118
0.010832902
0.01082436
0.010816363
0.010808771
0.010801438
0.010794218
0.01078696
0.010779517
0.010771749
0.010763539
0.010754799
0.010745475
0.010735535
0.010724938
0.010713597
0.010701348
0.010687918
0.010672918
0.010655853
0.010636132
0.010613074
0.010585861
0.010553466
0.010514629
0.01046804
0.010412852
0.010349432
0.010280046
0.010208977
0.010141784
0.010083836
0.010038759
0.010007499
0.0099883147
0.0099775445
0.0099709955
0.0099657846
0.0099614017
0.0099592802
0.0099617944
0.0099733426
0.0099872089
0.0099973891
0.013602687
0.012470499
0.012035728
0.011924124
0.011831244
0.011760927
0.011698054
0.011640892
0.011587711
0.011537857
0.011490872
0.011446457
0.011404378
0.011364447
0.011326505
0.011290414
0.011256055
0.011223321
0.011192122
0.011162375
0.011134012
0.011106972
0.011081203
0.011056664
0.011033318
0.011011139
0.010990105
0.010970201
0.010951418
0.010933747
0.010917184
0.010901721
0.01088735
0.010874053
0.010861798
0.010850537
0.010840195
0.010830673
0.010821848
0.010813581
0.010805726
0.010798141
0.010790691
0.010783248
0.01077569
0.010767902
0.010759781
0.010751241
0.010742214
0.010732633
0.010722416
0.010711433
0.01069949
0.010686315
0.010671553
0.010654756
0.010635374
0.010612716
0.010585905
0.010553826
0.010515136
0.010468477
0.010412976
0.010348978
0.010278713
0.010206422
0.010137663
0.010077909
0.010031072
0.0099986307
0.0099796325
0.0099712951
0.0099698076
0.0099706538
0.0099711579
0.0099694997
0.0099696527
0.0099755075
0.0099844455
0.0099930404
0.013739673
0.012533697
0.012104452
0.011976578
0.011873025
0.011793589
0.011724117
0.011662066
0.011605265
0.011552693
0.011503643
0.011457636
0.011414313
0.011373395
0.011334657
0.011297913
0.011263006
0.011229805
0.011198198
0.011168087
0.011139391
0.01111204
0.011085974
0.011061147
0.011037517
0.011015053
0.010993733
0.010973539
0.010954459
0.010936488
0.010919624
0.010903863
0.010889205
0.010875639
0.010863143
0.010851672
0.010841155
0.010831485
0.010822527
0.010814124
0.01080611
0.010798329
0.01079064
0.010782917
0.010775051
0.010766941
0.010758501
0.01074966
0.010740362
0.010730556
0.01072018
0.01070914
0.010697286
0.010684385
0.010670102
0.010653986
0.010635442
0.010613713
0.010587837
0.010556623
0.010518676
0.010472596
0.010417467
0.010353583
0.010283107
0.010210207
0.010140334
0.010078792
0.010029296
0.0099933737
0.0099708879
0.0099607734
0.0099580165
0.0099584405
0.0099663693
0.0099741297
0.0099771033
0.0099792975
0.0099852362
0.0099920729
57.498258
334.39073
108.31161
11.757718
0.31871887
0.022163842
0.020883751
0.020512259
0.020195797
0.018945092
0.017487087
0.016245493
0.015326868
0.014744711
0.014322441
0.013934166
0.013570649
0.013248377
0.012971524
0.012736494
0.012536557
0.012364624
0.012215172
0.012084238
0.011968762
0.01186626
0.011774767
0.011692716
0.011618864
0.011552209
0.011491907
0.011437205
0.011387446
0.011342065
0.011300603
0.011262677
0.011227952
0.011196129
0.011166942
0.011140165
0.011115613
0.01109312
0.011072533
0.011053724
0.011036578
0.011020976
0.011006793
0.010993902
0.010982178
0.01097149
0.0109617
0.010952662
0.01094422
0.010936206
0.010928457
0.010920822