/*--------------------------------*- C++ -*----------------------------------*\
  =========                 |
  \\      /  F ield         | OpenFOAM: The Open Source CFD Toolbox
   \\    /   O peration     | Website:  https://openfoam.org
    \\  /    A nd           | Version:  12
     \\/     M anipulation  |
\*---------------------------------------------------------------------------*/
FoamFile
{
    format      ascii;
    class       volScalarField;
    location    "0.015";
    object      Ma;
}
// * * * * * * * * * * * * * * * * * * * * * * * * * * * * * * * * * * * * * //

dimensions      [];

internalField   nonuniform List<scalar> 
16000
(
0.64871469
0.77180115
0.72281765
0.75009205
0.73330095
0.741391
0.73482684
0.73681342
0.73383096
0.73352194
0.73173005
0.73057404
0.72907447
0.7276205
0.7260718
0.72446785
0.72279667
0.72105833
0.71925096
0.71737304
0.71542335
0.71340092
0.71130516
0.7091358
0.70689298
0.7045772
0.70218936
0.69973077
0.69720308
0.69460834
0.69194895
0.68922772
0.68644777
0.68361266
0.68072632
0.67779313
0.67481791
0.67180596
0.66876307
0.66569552
0.66261012
0.65951417
0.65641553
0.65332255
0.65024415
0.64718977
0.64416946
0.64119393
0.63827455
0.63542335
0.6326528
0.62997569
0.62740472
0.62495216
0.62262916
0.62044499
0.61840597
0.61651434
0.61476682
0.61315342
0.61165678
0.61025239
0.60891013
0.60759675
0.60628011
0.60493826
0.60357545
0.60224532
0.60107664
0.60028491
0.60013102
0.60082087
0.60230617
0.60415022
0.60549028
0.60512109
0.60115371
0.59272765
0.5813129
0.57419082
0.65303802
0.77724848
0.72645502
0.75483622
0.73726661
0.74574902
0.73880876
0.74083937
0.73771837
0.73730271
0.73543952
0.73415167
0.73256264
0.73098685
0.72932567
0.72759983
0.72580442
0.72393759
0.72199819
0.71998485
0.71789664
0.71573293
0.71349348
0.71117843
0.70878839
0.70632439
0.70378792
0.70118092
0.69850577
0.69576528
0.69296269
0.6901016
0.68718604
0.68422038
0.6812094
0.67815825
0.67507247
0.67195799
0.66882112
0.66566857
0.66250742
0.65934513
0.65618953
0.65304886
0.64993174
0.64684726
0.64380498
0.64081505
0.63788823
0.63503593
0.63227005
0.62960283
0.62704653
0.62461296
0.6223129
0.62015531
0.61814628
0.6162878
0.61457632
0.61300155
0.61154577
0.61018375
0.60888397
0.60761104
0.60633075
0.60502066
0.603688
0.60239502
0.60128905
0.60061223
0.60061047
0.60148194
0.60309504
0.60494786
0.60613785
0.60525556
0.60077363
0.5917311
0.58020165
0.57390601
0.65704995
0.7821473
0.73002185
0.75890238
0.74087755
0.74946871
0.74236972
0.74426642
0.74109994
0.74050313
0.7385831
0.73714283
0.73544766
0.7337373
0.73194551
0.7300825
0.72814607
0.7261345
0.72404685
0.72188218
0.71963997
0.71731998
0.71492245
0.71244802
0.70989787
0.70727365
0.70457755
0.70181228
0.69898107
0.69608764
0.69313621
0.69013139
0.68707822
0.68398209
0.68084874
0.67768424
0.67449494
0.67128747
0.66806872
0.66484577
0.66162592
0.65841666
0.65522564
0.65206072
0.64892999
0.6458418
0.64280486
0.63982835
0.63692197
0.63409605
0.63136148
0.62872955
0.62621166
0.62381892
0.62156149
0.6194479
0.61748395
0.61567143
0.61400668
0.61247922
0.6110711
0.60975678
0.60850417
0.6072774
0.60604296
0.60478199
0.60350962
0.60230134
0.6013262
0.60085544
0.60110239
0.60222001
0.60398509
0.60580235
0.6067613
0.60525494
0.60011186
0.59052358
0.57912316
0.57363065
0.66065024
0.7865026
0.73306259
0.76224005
0.74391116
0.75260651
0.74537518
0.74709263
0.74388843
0.74307308
0.74109239
0.73948127
0.73766117
0.73580018
0.73386032
0.73184385
0.72975047
0.72757863
0.72532767
0.72299704
0.72058658
0.71809654
0.71552766
0.71288118
0.71015897
0.70736344
0.70449768
0.70156537
0.69857081
0.69551887
0.69241495
0.68926489
0.68607498
0.6828518
0.67960225
0.67633341
0.67305256
0.6697671
0.66648449
0.66321219
0.65995765
0.65672829
0.65353146
0.65037448
0.64726469
0.64420951
0.64121652
0.63829364
0.63544922
0.63269214
0.63003184
0.62747816
0.6250411
0.62273034
0.6205547
0.61852137
0.61663491
0.61489598
0.61329984
0.61183514
0.61048332
0.60921866
0.60800959
0.60682197
0.60562648
0.60441234
0.60320748
0.60210467
0.60129408
0.60107541
0.60159881
0.60297199
0.60486966
0.60659272
0.60722325
0.60514265
0.59929896
0.58931223
0.57815903
0.57329766
0.6638076
0.79024901
0.73570098
0.76503922
0.74627995
0.75505848
0.74774886
0.74922791
0.74600317
0.74491027
0.74288757
0.74109217
0.73913017
0.73710655
0.73500398
0.7328203
0.7305557
0.72820902
0.72577983
0.72326801
0.72067393
0.71799843
0.71524301
0.71240975
0.70950149
0.70652171
0.7034747
0.70036539
0.69719946
0.6939832
0.69072346
0.68742757
0.68410322
0.68075836
0.67740115
0.67403977
0.67068245
0.66733727
0.6640122
0.66071493
0.6574529
0.65423321
0.65106268
0.64794784
0.644895
0.64191033
0.63900003
0.63617047
0.63342836
0.63078089
0.62823577
0.6258011
0.62348509
0.62129563
0.61923972
0.61732267
0.61554719
0.61391203
0.61241059
0.61102982
0.60974984
0.60854446
0.60738293
0.60623422
0.60507568
0.60390822
0.60277789
0.60180211
0.60119259
0.6012559
0.60207679
0.60370375
0.60569908
0.60727761
0.60748154
0.60478805
0.59831447
0.58806051
0.57723864
0.57294853
0.66650506
0.79332407
0.7378327
0.76728437
0.74830228
0.75678216
0.74936247
0.75062646
0.74736279
0.74609461
0.74393148
0.74194628
0.73982693
0.73762893
0.73534804
0.73298062
0.73052697
0.72798657
0.72535958
0.72264659
0.71984884
0.71696817
0.71400716
0.71096913
0.70785824
0.70467942
0.70143851
0.69814205
0.69479742
0.69141257
0.6879961
0.68455696
0.68110444
0.6776479
0.67419679
0.67076034
0.66734758
0.66396717
0.66062729
0.65733563
0.65409927
0.65092472
0.6478179
0.64478419
0.64182856
0.63895565
0.63616999
0.63347615
0.63087902
0.62838391
0.62599662
0.6237233
0.62157014
0.61954292
0.61764639
0.61588358
0.61425473
0.61275599
0.61137812
0.61010562
0.60891676
0.60778457
0.60667946
0.6055747
0.6044565
0.60334033
0.60229431
0.60146407
0.60110661
0.60141182
0.60254596
0.60438456
0.6064084
0.60775552
0.60746623
0.60419165
0.59718497
0.58676002
0.57627568
0.5724807
0.66876145
0.79575696
0.73950285
0.76898754
0.74982423
0.75782887
0.7506283
0.75152654
0.7481804
0.74651643
0.74424983
0.74205895
0.73975503
0.73735891
0.73487316
0.73229483
0.72962449
0.7268626
0.72401025
0.72106913
0.71804171
0.71493117
0.7117416
0.70847792
0.70514601
0.70175265
0.69830555
0.69481323
0.69128503
0.68773087
0.68416121
0.68058678
0.67701845
0.673467
0.66994298
0.66645648
0.66301704
0.6596335
0.65631391
0.65306545
0.64989443
0.64680626
0.64380554
0.64089608
0.63808112
0.63536348
0.63274574
0.63023056
0.62782087
0.62552004
0.62333195
0.62126072
0.61931043
0.61748461
0.6157856
0.61421382
0.61276667
0.61143719
0.61021292
0.60907538
0.60800059
0.60696081
0.60592809
0.60488122
0.60381738
0.60276943
0.60182882
0.60116713
0.60106478
0.60159224
0.60304726
0.60502673
0.60696789
0.60803407
0.60717624
0.60338304
0.59589561
0.58535489
0.57515659
0.57177723
0.67065045
0.79761517
0.74075196
0.77019441
0.75081882
0.75861853
0.75112711
0.751337
0.7481361
0.74626014
0.74383156
0.74140557
0.7388768
0.73624658
0.73351953
0.73069436
0.72777217
0.72475457
0.72164388
0.71844323
0.71515667
0.71178916
0.70834667
0.70483619
0.70126575
0.69764435
0.69398203
0.69028958
0.68657858
0.68286108
0.6791495
0.67545631
0.67179386
0.66817407
0.66460826
0.66110692
0.65767962
0.65433478
0.6510797
0.64792046
0.64486194
0.64190788
0.63906097
0.63632305
0.63369524
0.63117823
0.62877254
0.62647882
0.62429806
0.62223178
0.62028199
0.61845089
0.61674051
0.61515213
0.61368565
0.61233877
0.61110582
0.60997643
0.60893462
0.60795873
0.60702263
0.60609817
0.60515999
0.60419399
0.60321046
0.60226162
0.60146077
0.60099686
0.6011205
0.60201034
0.6036331
0.60567698
0.60741853
0.60816142
0.60666738
0.60233352
0.59444969
0.5838111
0.57387138
0.57088789
0.67221836
0.79890817
0.74149833
0.77088593
0.75110098
0.75793997
0.75084584
0.75076294
0.74747195
0.74522407
0.74258552
0.73989064
0.73709411
0.7341895
0.73118114
0.72806965
0.72485717
0.72154677
0.71814246
0.71464928
0.71107337
0.70742196
0.70370354
0.69992764
0.69610501
0.69224737
0.68836744
0.6844786
0.68059486
0.67673044
0.67289964
0.66911641
0.66539421
0.66174557
0.65818198
0.65471362
0.65134925
0.6480961
0.64495986
0.64194467
0.63905325
0.63628698
0.63364611
0.63113002
0.62873743
0.62646675
0.6243164
0.62228508
0.62037203
0.61857713
0.61690073
0.61534335
0.61390513
0.61258526
0.61138134
0.61028837
0.60929756
0.60839505
0.60756133
0.60677184
0.60599883
0.60521484
0.60439858
0.60354499
0.60267925
0.60187267
0.60125576
0.60104279
0.60143783
0.60258256
0.60438533
0.60639476
0.60786605
0.60811261
0.60602178
0.60109718
0.59292193
0.58218865
0.57258782
0.56999743
0.67342528
0.79957936
0.741684
0.77048368
0.75061904
0.7570087
0.74998288
0.749282
0.74591531
0.74329926
0.74039333
0.73739213
0.73428322
0.73106051
0.72772765
0.72428739
0.72074353
0.71710121
0.71336673
0.70954773
0.70565318
0.70169334
0.69767987
0.6936256
0.68954455
0.68545162
0.68136256
0.6772935
0.67326087
0.66928086
0.66536924
0.66154092
0.65780967
0.6541878
0.65068595
0.64731292
0.64407558
0.64097884
0.63802578
0.63521766
0.63255421
0.63003381
0.62765382
0.62541084
0.62330106
0.62132064
0.61946604
0.6177343
0.61612325
0.61463144
0.61325795
0.61200188
0.61086179
0.6098351
0.60891725
0.60810072
0.60737366
0.60671884
0.60611359
0.60553113
0.60494332
0.60432506
0.60366129
0.60295801
0.60225607
0.60164458
0.60127626
0.60133246
0.60203128
0.60343184
0.60533758
0.60723435
0.60836272
0.60798877
0.60534824
0.59991144
0.59150579
0.58071347
0.57148576
0.56924523
0.67417737
0.7994691
0.74121385
0.76856436
0.74937667
0.75506783
0.74821967
0.74688974
0.74338143
0.74036558
0.73713162
0.73377851
0.73030778
0.72671761
0.72301198
0.7191961
0.71527634
0.7112607
0.70715879
0.70298176
0.69874239
0.6944549
0.69013497
0.68579939
0.68146599
0.67715319
0.67287986
0.66866478
0.66452639
0.66048224
0.65654875
0.65274067
0.64907089
0.64555008
0.64218663
0.63898648
0.63595325
0.63308826
0.63039084
0.62785852
0.62548734
0.62327225
0.62120743
0.6192867
0.61750386
0.61585311
0.61432935
0.61292843
0.61164721
0.61048341
0.60943522
0.60850072
0.60767725
0.60696073
0.60634475
0.60581938
0.60536989
0.60497603
0.60461268
0.60425203
0.60386731
0.60343798
0.60295764
0.60244493
0.60195606
0.60159229
0.60151443
0.60190545
0.60291047
0.60453253
0.60648728
0.60820513
0.60894978
0.60800886
0.60483689
0.59903759
0.59051205
0.57975724
0.57088655
0.56893244
0.67438497
0.79847754
0.73995011
0.76648152
0.74749982
0.75219015
0.74547123
0.7434743
0.73974233
0.73629527
0.73266575
0.72890354
0.72501301
0.72099795
0.71686426
0.71262052
0.70827683
0.70384537
0.69934025
0.69477743
0.6901746
0.68555094
0.6809269
0.67632378
0.6717635
0.66726798
0.66285889
0.65855697
0.65438171
0.65035075
0.64647955
0.64278097
0.63926513
0.63593916
0.63280732
0.62987103
0.62712914
0.62457821
0.62221289
0.62002633
0.6180106
0.61615712
0.61445706
0.61290178
0.61148318
0.61019406
0.60902841
0.60798149
0.60704979
0.60623068
0.60552191
0.60492091
0.60442417
0.60402638
0.60371944
0.60349118
0.60332424
0.60319593
0.60307974
0.60294847
0.60277881
0.60255725
0.6022881
0.60200334
0.60177302
0.6017108
0.60196895
0.6027057
0.60401763
0.60582619
0.60777653
0.60928049
0.60965559
0.60826458
0.60468869
0.5987221
0.59030383
0.57981102
0.57109255
0.56993799
0.67402578
0.79656813
0.73780913
0.76325027
0.74466322
0.74827179
0.7416272
0.73892451
0.73486416
0.73093405
0.72683201
0.72258936
0.71820994
0.71370333
0.70907943
0.70435163
0.69953547
0.6946489
0.68971207
0.68474705
0.67977758
0.67482856
0.66992579
0.66509522
0.6603626
0.65575269
0.65128882
0.64699211
0.64288114
0.63897132
0.63527469
0.6317997
0.62855119
0.62553053
0.62273586
0.62016249
0.61780331
0.61564931
0.61369007
0.6119143
0.6103103
0.60886639
0.60757138
0.6064149
0.60538774
0.60448215
0.60369196
0.60301257
0.60244069
0.6019738
0.60160959
0.60134518
0.60117644
0.60109702
0.6010972
0.60116266
0.60127377
0.60140626
0.60153366
0.60163132
0.60168164
0.60168016
0.60164293
0.60161459
0.60167628
0.60194143
0.60255387
0.60364016
0.60523687
0.60719297
0.60910495
0.61040447
0.61048818
0.60881281
0.60505886
0.59916813
0.59114409
0.58141669
0.57325235
0.57215989
0.6730798
0.79362771
0.7347231
0.75899661
0.74078709
0.74318803
0.73652634
0.73307299
0.72856383
0.72407741
0.71941477
0.71460687
0.70965881
0.70458699
0.69940778
0.69414155
0.68881123
0.68344235
0.67806263
0.67270149
0.66738957
0.662158
0.65703779
0.65205892
0.64724967
0.64263567
0.63823936
0.63407929
0.63016978
0.62652062
0.62313715
0.62002037
0.61716727
0.61457135
0.61222314
0.61011082
0.6082209
0.60653878
0.60504935
0.6037375
0.60258862
0.60158894
0.60072592
0.59998853
0.59936749
0.59885545
0.59844691
0.59813809
0.59792638
0.59780978
0.59778615
0.59785251
0.59800419
0.59823378
0.59852988
0.59887612
0.59925118
0.59963034
0.59998889
0.60030682
0.60057413
0.60079649
0.60100122
0.60124293
0.60160728
0.60220677
0.60316297
0.60457072
0.60641437
0.60848372
0.61035716
0.61151233
0.61142825
0.60966667
0.60600834
0.60045875
0.59307483
0.58423565
0.57693327
0.57531512
0.67147198
0.78947471
0.73064077
0.75350869
0.73568958
0.73676308
0.72996104
0.72569539
0.72060061
0.71545841
0.7101328
0.70466302
0.69906007
0.69334897
0.68755533
0.68170879
0.6758418
0.66998927
0.66418793
0.65847548
0.65288975
0.6474675
0.64224352
0.63724936
0.6325125
0.62805545
0.62389533
0.62004345
0.61650547
0.61328154
0.61036688
0.60775231
0.60542512
0.60336977
0.60156873
0.60000325
0.59865404
0.59750188
0.59652819
0.59571539
0.59504733
0.59450954
0.59408944
0.59377658
0.5935627
0.59344177
0.59340971
0.59346404
0.59360319
0.59382582
0.59413008
0.59451287
0.59496885
0.59548932
0.59606106
0.5966659
0.59728161
0.59788451
0.59845353
0.59897506
0.59944785
0.59988753
0.60033062
0.60083779
0.60149445
0.6024041
0.60366953
0.60535097
0.60739473
0.60955788
0.61143462
0.61254423
0.61244487
0.61080839
0.60747356
0.60246838
0.59589369
0.5880929
0.58148845
0.57855898
0.66915102
0.78386406
0.72562757
0.74662058
0.72915822
0.72876097
0.72165201
0.71648073
0.71064666
0.70472673
0.69862565
0.69239428
0.68605445
0.6796423
0.67319551
0.66675574
0.66036732
0.65407632
0.64792939
0.64197224
0.63624821
0.63079665
0.62565167
0.62084094
0.61638505
0.61229708
0.60858278
0.60524085
0.60226378
0.59963864
0.59734819
0.59537188
0.59368692
0.59226922
0.59109424
0.59013773
0.58937637
0.58878816
0.5883529
0.58805237
0.58787056
0.58779381
0.58781089
0.58791311
0.58809421
0.5883502
0.58867895
0.58907951
0.58955144
0.59009404
0.59070564
0.59138272
0.59211892
0.5929039
0.59372256
0.59455538
0.59538038
0.59617652
0.5969281
0.59762909
0.5982871
0.59892617
0.59958904
0.60033847
0.60125598
0.60243395
0.60395673
0.60586039
0.60806475
0.61033027
0.6122809
0.6134481
0.6134747
0.61214918
0.60925035
0.6048601
0.59909253
0.59222741
0.58593527
0.58123219
0.66604617
0.77636706
0.71946237
0.73804048
0.72087064
0.71882231
0.71120507
0.70500834
0.69827394
0.69144496
0.68445722
0.67737473
0.67023558
0.66309101
0.65599476
0.64900379
0.64217638
0.63557005
0.62923956
0.62323462
0.61759805
0.61236419
0.607558
0.60319453
0.59927923
0.59580848
0.59277075
0.59014779
0.58791617
0.58604861
0.58451541
0.58328564
0.58232815
0.58161252
0.58110969
0.58079248
0.58063601
0.58061792
0.58071848
0.58092075
0.58121052
0.58157636
0.5820096
0.58250421
0.58305666
0.58366543
0.58433047
0.58505239
0.5858317
0.5866681
0.58755968
0.58850207
0.58948733
0.59050314
0.59153266
0.59255585
0.59355234
0.59450538
0.59540582
0.59625554
0.59706995
0.59787934
0.59872979
0.59968372
0.60081804
0.60221628
0.60394912
0.60603396
0.60838413
0.61079178
0.61289006
0.61419223
0.61442319
0.61350088
0.61101606
0.60716443
0.60207411
0.59589362
0.58947448
0.58294052
0.6619948
0.76634291
0.71157369
0.72731773
0.71037446
0.70647462
0.69811675
0.69075895
0.68296294
0.67509445
0.667122
0.65912682
0.65117066
0.6433258
0.63566598
0.62826479
0.62119245
0.61451253
0.60827948
0.60253624
0.59731315
0.59262731
0.58848313
0.58487323
0.58178017
0.57917821
0.5770354
0.57531547
0.57397964
0.5729882
0.57230177
0.57188233
0.57169396
0.57170341
0.57188044
0.57219803
0.57263245
0.57316331
0.57377339
0.57444863
0.575178
0.57595338
0.57676946
0.57762348
0.57851489
0.57944474
0.5804149
0.58142725
0.58248288
0.58358139
0.58472008
0.58589302
0.58709022
0.58829721
0.5894959
0.59066688
0.59179289
0.59286268
0.59387415
0.59483652
0.59577137
0.59671314
0.59770986
0.59882389
0.60013035
0.60170899
0.60362243
0.60587315
0.60837608
0.61096412
0.61327307
0.61475259
0.61519172
0.61467088
0.61240967
0.60892537
0.60430552
0.59851009
0.59166668
0.58361182
0.65670392
0.75408662
0.70154181
0.71391092
0.69710057
0.691154
0.68177547
0.67309675
0.66408093
0.65505968
0.64604695
0.6371494
0.62845941
0.62007335
0.61208265
0.60457001
0.59760545
0.59124319
0.58552011
0.58045519
0.5760504
0.57229234
0.56915473
0.56660112
0.56458777
0.56306625
0.56198591
0.56129577
0.56094611
0.56088967
0.56108241
0.56148405
0.56205832
0.56277311
0.56360041
0.56451621
0.56550031
0.56653613
0.56761047
0.56871331
0.56983762
0.57097923
0.57213654
0.57331022
0.5745026
0.57571697
0.57695673
0.57822451
0.57952144
0.58084636
0.58219505
0.58355942
0.584927
0.58628144
0.5876043
0.58887808
0.59008991
0.59123472
0.59231726
0.59335292
0.59436794
0.59540002
0.59649987
0.59773287
0.59917748
0.60091492
0.60300373
0.60544051
0.60813547
0.61089722
0.61338608
0.61508097
0.61558969
0.61538615
0.61312111
0.60981857
0.60545671
0.59978976
0.5924371
0.58343362
0.64986208
0.74012586
0.68881264
0.69718549
0.68029659
0.67210607
0.66138077
0.65120382
0.64085004
0.63064407
0.62066046
0.6110365
0.60189197
0.59333671
0.58546211
0.57833744
0.57200765
0.56649295
0.56179058
0.55787741
0.55471391
0.5522481
0.55041969
0.54916369
0.54841365
0.54810408
0.54817231
0.54855983
0.54921303
0.55008362
0.55112874
0.55231084
0.55359753
0.55496124
0.5563789
0.55783161
0.55930429
0.56078532
0.56226631
0.56374184
0.56520921
0.56666829
0.56812113
0.56957152
0.57102425
0.57248431
0.57395596
0.57544197
0.57694282
0.5784559
0.57997477
0.58148864
0.58298261
0.58443908
0.58584039
0.58717228
0.58842706
0.58960592
0.5907197
0.59178889
0.59284388
0.59392653
0.59509317
0.59641685
0.59798414
0.5998807
0.6021613
0.60480859
0.60770055
0.61060721
0.61320329
0.61506079
0.61574371
0.61507968
0.61296438
0.60969405
0.60545691
0.59975561
0.5919793
0.58269819
0.64113511
0.7221342
0.67250569
0.67620397
0.658861
0.64823494
0.63587321
0.62409504
0.61244271
0.6012402
0.5906199
0.58073582
0.57170851
0.56362814
0.55654979
0.55049381
0.54544884
0.54137635
0.53821667
0.53589507
0.53432774
0.53342682
0.53310467
0.53327687
0.53386449
0.5347953
0.53600446
0.53743466
0.53903594
0.54076524
0.54258593
0.5444672
0.54638352
0.54831411
0.55024245
0.55215582
0.55404491
0.55590347
0.55772808
0.55951787
0.56127432
0.56300104
0.56470328
0.56638734
0.56805977
0.56972649
0.57139199
0.57305844
0.57472498
0.57638685
0.57803488
0.57965545
0.58123167
0.58274567
0.58418183
0.58553003
0.58678809
0.587963
0.58907093
0.59013711
0.591197
0.59229945
0.59351067
0.59491557
0.59661024
0.5986807
0.60116745
0.60402534
0.6070967
0.61011001
0.61269867
0.61445068
0.61498055
0.61410711
0.61183125
0.60857976
0.6044375
0.59864354
0.59059932
0.58172263
0.62980926
0.69899307
0.65114119
0.64955021
0.63129512
0.61813049
0.60407339
0.59087112
0.57831332
0.56670055
0.55617963
0.54687394
0.53885102
0.53212977
0.52668409
0.522451
0.51934006
0.51724279
0.51604144
0.51561614
0.5158505
0.51663531
0.51787098
0.51946859
0.52135022
0.52344857
0.52570623
0.52807479
0.53051383
0.53298999
0.53547605
0.53795013
0.54039505
0.54279767
0.54514844
0.54744095
0.54967156
0.55183914
0.55394484
0.55599192
0.55798555
0.55993243
0.56184028
0.56371712
0.56557043
0.56740633
0.56922876
0.57103865
0.57283316
0.57460489
0.5763417
0.5780275
0.5796442
0.58117484
0.58260684
0.58393473
0.58516164
0.58629973
0.58737008
0.58840345
0.5894429
0.59054822
0.5917996
0.59329527
0.59513696
0.59740028
0.60009488
0.60312879
0.60629503
0.60928713
0.61173294
0.61323135
0.6134487
0.61225481
0.60987161
0.60670016
0.60265774
0.59680872
0.58874911
0.58066864
0.61471831
0.66857971
0.62277925
0.61544578
0.59599572
0.58041451
0.56511279
0.55121598
0.53869738
0.52777455
0.51852262
0.51095865
0.50503145
0.50063916
0.49764347
0.49588482
0.49519558
0.49541028
0.49637299
0.4979417
0.49999062
0.50241065
0.50510885
0.50800712
0.51104066
0.51415625
0.51731061
0.52046889
0.52360336
0.52669224
0.5297188
0.53267053
0.53553859
0.53831721
0.54100333
0.54359623
0.54609732
0.54850989
0.55083903
0.55309144
0.55527519
0.55739931
0.55947313
0.56150553
0.56350414
0.5654745
0.56741938
0.56933786
0.57122463
0.57306944
0.57485741
0.57657063
0.57819093
0.57970329
0.5810988
0.58237664
0.58354471
0.58461984
0.5856284
0.58660857
0.58761457
0.58872112
0.59002427
0.59163249
0.5936431
0.5961053
0.59898072
0.60211961
0.60526681
0.60809416
0.61024097
0.61135935
0.61120086
0.6097593
0.60734879
0.60432108
0.6004042
0.59459638
0.58679236
0.57970997
0.59383228
0.62852844
0.58525729
0.57209576
0.5520328
0.53443798
0.51908542
0.50596019
0.49503808
0.4863607
0.47982957
0.47528151
0.472501
0.47124865
0.47128107
0.47236613
0.47429252
0.47687442
0.4799529
0.48339482
0.48709059
0.49095122
0.49490532
0.49889621
0.50287937
0.50682018
0.51069209
0.51447506
0.51815432
0.5217194
0.52516336
0.52848219
0.53167436
0.53474045
0.53768287
0.54050564
0.54321428
0.54581566
0.548318
0.55073063
0.55306373
0.55532783
0.55753303
0.55968831
0.56180072
0.56387464
0.56591108
0.56790683
0.56985386
0.57173913
0.57354561
0.57525452
0.57684862
0.57831554
0.5796502
0.58085598
0.58194495
0.58293854
0.58386963
0.58478659
0.5857583
0.58687675
0.58825214
0.58999499
0.59218373
0.59482442
0.59781898
0.60096037
0.60396066
0.60649672
0.60825067
0.60895038
0.60845055
0.60685395
0.60451477
0.60168353
0.59793517
0.59231251
0.58499154
0.57893632
0.56453147
0.57632979
0.53734174
0.51818651
0.49699379
0.48104543
0.46764917
0.45740995
0.45006393
0.445363
0.44295499
0.44246911
0.4435403
0.4458349
0.44906179
0.45297603
0.45737712
0.46210436
0.46703115
0.47205911
0.47711273
0.48213475
0.48708231
0.49192383
0.49663645
0.50120414
0.50561615
0.5098658
0.51394965
0.5178668
0.5216184
0.52520735
0.52863795
0.53191578
0.53504751
0.5380408
0.54090432
0.54364768
0.54628139
0.54881667
0.55126507
0.55363785
0.55594523
0.55819568
0.56039514
0.56254639
0.56464829
0.56669507
0.56867594
0.57057543
0.57237505
0.57405609
0.57560297
0.57700627
0.5782644
0.5793842
0.58038151
0.58128288
0.58212953
0.58298282
0.58392867
0.58507584
0.58654295
0.58843108
0.59078509
0.59355643
0.59658633
0.59962353
0.60237127
0.60453779
0.60586942
0.60618145
0.60542725
0.60378381
0.60159211
0.59898809
0.5954632
0.59017323
0.58349389
0.57838336
0.52265529
0.50961328
0.4715761
0.45316069
0.43528436
0.42269442
0.41408233
0.40921822
0.4074401
0.40815088
0.41077134
0.41480464
0.41984017
0.42555251
0.43169054
0.43806469
0.44453432
0.45099669
0.45737792
0.46362583
0.4697044
0.47558959
0.4812662
0.48672554
0.49196364
0.49698002
0.50177672
0.50635765
0.51072812
0.51489451
0.51886406
0.52264476
0.52624522
0.52967465
0.53294278
0.53605994
0.53903705
0.54188568
0.54461795
0.5472463
0.54978301
0.55223955
0.5546258
0.55694933
0.55921472
0.56142289
0.56357037
0.56564878
0.56764474
0.56954083
0.57131776
0.57295751
0.57444655
0.5757782
0.5769537
0.57798273
0.57888467
0.57969203
0.58045621
0.58125344
0.58218677
0.58337816
0.58494648
0.58697203
0.58945636
0.59229419
0.59527575
0.59812557
0.60056084
0.60233874
0.60327794
0.60327801
0.60237136
0.60077074
0.59876956
0.59640492
0.59315168
0.58830854
0.58236156
0.5780483
0.45914002
0.42581272
0.39554116
0.38026102
0.36910838
0.36408371
0.36337592
0.36604805
0.37109363
0.37773892
0.38538741
0.39360574
0.40208685
0.4106187
0.41905804
0.42731043
0.43531564
0.44303714
0.45045473
0.45755935
0.46434948
0.47082862
0.47700358
0.48288325
0.4884778
0.49379812
0.49885545
0.5036612
0.50822678
0.51256362
0.51668315
0.52059683
0.52431618
0.52785286
0.53121868
0.53442575
0.53748649
0.54041377
0.5432207
0.54592042
0.54852549
0.55104722
0.55349492
0.55587516
0.55819109
0.56044179
0.56262162
0.56471981
0.5667208
0.56860572
0.57035498
0.57195154
0.57338381
0.57464738
0.57574571
0.57669073
0.57750524
0.57822812
0.57892145
0.57967603
0.58060954
0.58185161
0.58351377
0.58564891
0.58821401
0.5910547
0.59392636
0.59654815
0.59866526
0.60008846
0.60070418
0.60048305
0.59951213
0.59800916
0.59620705
0.59407377
0.59111902
0.58679009
0.58159712
0.57789834
0.3612481
0.32721506
0.30923833
0.30454521
0.30583011
0.31207699
0.32128638
0.33216974
0.34383854
0.35573044
0.36750249
0.37895382
0.38997363
0.40050683
0.41053253
0.42005029
0.42907171
0.43761505
0.445702
0.45335565
0.46059928
0.46745564
0.47394656
0.48009272
0.48591363
0.4914276
0.49665182
0.50160248
0.50629492
0.51074376
0.51496306
0.51896645
0.52276727
0.52637866
0.52981373
0.5330856
0.53620761
0.5391933
0.54205631
0.54481001
0.54746693
0.55003808
0.55253214
0.55495482
0.55730814
0.55958977
0.56179241
0.5639036
0.56590631
0.56778081
0.56950748
0.57107014
0.57245864
0.57367017
0.57470967
0.5755907
0.57633879
0.57699802
0.57763905
0.57836376
0.57929983
0.58057982
0.58230498
0.58450255
0.58709333
0.58988847
0.59262466
0.59502715
0.59687097
0.59801308
0.59839432
0.59803809
0.5970634
0.59567448
0.59404838
0.59211768
0.58945853
0.58564869
0.58115097
0.57787901
0.21979293
0.21842951
0.22379823
0.23728624
0.25475465
0.27333061
0.29179039
0.30947096
0.32613735
0.34172254
0.35625044
0.36978097
0.38238792
0.39414683
0.40512984
0.4154034
0.42502767
0.4340566
0.44253838
0.45051598
0.45802775
0.46510798
0.4717874
0.47809365
0.48405167
0.48968409
0.49501155
0.500053
0.50482601
0.50934701
0.51363156
0.5176945
0.52155014
0.52521244
0.52869512
0.53201185
0.53517636
0.5382025
0.54110408
0.54389455
0.54658642
0.54919055
0.55171543
0.55416645
0.55654524
0.55884896
0.56106969
0.56319423
0.56520489
0.56708138
0.56880378
0.57035585
0.57172756
0.57291622
0.5739269
0.57477345
0.57548235
0.57609998
0.57670129
0.57739432
0.57831295
0.57959247
0.58132923
0.58353622
0.58611369
0.58885369
0.59148392
0.59373524
0.59540208
0.59637105
0.59661891
0.59620281
0.5952567
0.5939663
0.59246953
0.590691
0.58827733
0.58489996
0.58094292
0.5779256
0.093222848
0.12347113
0.16133233
0.1953857
0.225886
0.25273847
0.27656829
0.29784543
0.31698996
0.33433116
0.3501345
0.3646126
0.37793803
0.39025203
0.40167139
0.41229362
0.42220085
0.43146283
0.44013929
0.44828174
0.45593492
0.46313794
0.4699252
0.47632716
0.48237093
0.48808084
0.49347881
0.49858481
0.5034172
0.50799301
0.51232826
0.51643816
0.5203373
0.52403987
0.52755978
0.53091089
0.53410715
0.53716267
0.5400916
0.54290785
0.54562448
0.54825301
0.55080267
0.55327965
0.5556863
0.55802033
0.56027405
0.56243406
0.56448189
0.5663959
0.56815432
0.56973874
0.5711368
0.57234355
0.57336182
0.5742035
0.57489368
0.57547866
0.57603558
0.57667758
0.5775463
0.57878546
0.5804978
0.58269779
0.58528093
0.58802953
0.59066064
0.59289807
0.59453608
0.59546952
0.5956904
0.59527274
0.59435856
0.59312547
0.59169544
0.58999553
0.58771454
0.58457169
0.58089627
0.57797797
0.0080106539
0.32052849
0.48489818
0.52739806
0.53551551
0.53586685
0.5356714
0.53695042
0.53863463
0.54030166
0.54191157
0.54348895
0.5450298
0.54652949
0.54803302
0.54953893
0.55104429
0.55255054
0.5540588
0.55556869
0.55707936
0.55858978
0.56009872
0.56160481
0.56310655
0.56460238
0.56609064
0.56756963
0.56903755
0.5704925
0.57193246
0.57335526
0.57475855
0.57613981
0.57749632
0.57882518
0.58012328
0.58138741
0.58261418
0.58380014
0.58494174
0.58603538
0.58707745
0.58806427
0.58899214
0.58985735
0.59065621
0.5913851
0.59204061
0.59261965
0.59311973
0.59353914
0.59387727
0.59413482
0.59431408
0.59441915
0.59445628
0.59443375
0.59436068
0.59424627
0.59409988
0.59393139
0.59375003
0.59356331
0.59337491
0.5931908
0.59300304
0.59282426
0.59261338
0.59245132
0.59216916
0.59204448
0.59158325
0.59151334
0.5909302
0.59138704
0.59158486
0.59257468
0.59268002
0.58618401
0.082257599
0.40657026
0.53232659
0.55499997
0.55528426
0.55325324
0.5525247
0.55285341
0.5531611
0.55358028
0.55410365
0.55478289
0.55556419
0.55642385
0.55733804
0.55830265
0.55931177
0.56036217
0.56144955
0.56256926
0.56371736
0.56489022
0.56608443
0.56729675
0.56852405
0.56976328
0.57101147
0.57226567
0.5735229
0.57478017
0.57603442
0.57728246
0.57852101
0.57974666
0.58095583
0.58214481
0.58330976
0.5844467
0.58555158
0.58662029
0.58764864
0.58863246
0.58956756
0.59044977
0.59127494
0.59203897
0.59273787
0.59336778
0.59392513
0.59440681
0.59481033
0.59513411
0.59537776
0.59554231
0.59563046
0.59564682
0.59559818
0.59549343
0.59534245
0.59515518
0.59494151
0.5947116
0.59447459
0.59423763
0.59400386
0.59377785
0.59355108
0.59333495
0.59308969
0.59289069
0.59257359
0.59240945
0.59191111
0.59182338
0.59125116
0.59176986
0.59197585
0.59311193
0.59294389
0.58590154
0.16802373
0.48161649
0.55054626
0.56322684
0.56146945
0.56082398
0.56095735
0.56157965
0.56205435
0.56264863
0.5632131
0.56383271
0.56447308
0.56514708
0.56585271
0.5665895
0.56735549
0.56815144
0.56897691
0.56983057
0.57071135
0.57161802
0.57254911
0.57350295
0.57447766
0.57547118
0.57648124
0.57750539
0.57854097
0.57958514
0.58063484
0.58168682
0.58273759
0.58378347
0.58482055
0.58584473
0.58685174
0.58783715
0.58879641
0.58972489
0.59061791
0.59147077
0.59227881
0.59303737
0.59374191
0.59438795
0.59497119
0.59548757
0.59593338
0.59630544
0.59660131
0.59681953
0.59695991
0.59702378
0.59701419
0.59693619
0.59679697
0.59660582
0.59637319
0.59610958
0.59582527
0.59553053
0.59523427
0.59494321
0.59465992
0.59438782
0.59411773
0.59386083
0.59357722
0.59333891
0.59298274
0.59277591
0.59223773
0.59213499
0.59158081
0.59215553
0.59239402
0.59365059
0.59319314
0.58559152
0.24451806
0.52460434
0.56562371
0.57274961
0.57013281
0.57050221
0.57056195
0.57117392
0.57146788
0.57193472
0.57233388
0.57280452
0.57328284
0.57378257
0.57430204
0.57484129
0.57540151
0.5759837
0.57658902
0.57721763
0.57786977
0.57854558
0.57924478
0.57996688
0.58071105
0.5814762
0.58226091
0.58306348
0.58388188
0.58471379
0.58555658
0.5864073
0.58726268
0.58811915
0.58897286
0.58981965
0.59065513
0.5914747
0.59227357
0.59304682
0.59378945
0.59449643
0.59516271
0.59578332
0.59635334
0.59686803
0.59732282
0.59771348
0.59803617
0.59828768
0.59846563
0.59856868
0.59859687