/*--------------------------------*- C++ -*----------------------------------*\
  =========                 |
  \\      /  F ield         | OpenFOAM: The Open Source CFD Toolbox
   \\    /   O peration     | Website:  https://openfoam.org
    \\  /    A nd           | Version:  12
     \\/     M anipulation  |
\*---------------------------------------------------------------------------*/
FoamFile
{
    format      ascii;
    class       volScalarField;
    location    "850";
    object      nut;
}
// * * * * * * * * * * * * * * * * * * * * * * * * * * * * * * * * * * * * * //

dimensions      [0 2 -1 0 0 0 0];

internalField   nonuniform List<scalar> 
16200
(
0.0005119474926
0.001746531439
0.002904702455
0.003804309988
0.004074720642
0.003574970719
0.002607209156
0.001402327783
0.0007125325807
0.0001925429122
5.999916202e-06
2.664453817e-06
2.413434112e-06
2.374177222e-06
1.878811358e-06
1.617144462e-06
1.409767276e-06
1.263062311e-06
1.167145938e-06
1.104422413e-06
1.067046549e-06
1.051944601e-06
1.056020646e-06
1.077246055e-06
1.114870325e-06
1.169645156e-06
1.244187262e-06
1.343544949e-06
1.476394968e-06
1.657497995e-06
1.912250674e-06
2.285107305e-06
2.855584521e-06
3.771326825e-06
5.322522234e-06
8.110469675e-06
1.342986452e-05
2.413162502e-05
4.658229822e-05
9.51692061e-05
0.0002027814064
0.0004453588824
0.0009997066953
0.001002224151
0.001001784627
0.001000814179
0.0009994956575
0.0009989120648
0.0009986853092
0.0009986091481
0.0009985944619
0.0009986043361
0.0009986248906
0.0009986525204
0.0009986884185
0.0009987369436
0.0009988046993
0.0009989031626
0.0009990485488
0.0009992762401
0.0005051283875
0.001708428028
0.002809355208
0.00360807028
0.003705261589
0.003077960571
0.002123610152
0.001030998359
0.000564728043
4.276184692e-05
2.737161863e-06
2.242427411e-06
2.041371577e-06
2.002428581e-06
1.685972461e-06
1.447576794e-06
1.258316735e-06
1.124521364e-06
1.03866525e-06
9.836757621e-07
9.519784148e-07
9.404080434e-07
9.458856567e-07
9.663189541e-07
1.000884424e-06
1.050181953e-06
1.116581302e-06
1.204769309e-06
1.322898128e-06
1.484813513e-06
1.714013504e-06
2.050972448e-06
2.567362317e-06
3.395633247e-06
4.795552122e-06
7.304885938e-06
1.208151876e-05
2.167565792e-05
4.178180424e-05
8.526543489e-05
0.000181531644
0.0003984825938
0.0008942563429
0.001002086111
0.001001690259
0.001000826877
0.0009995083047
0.0009989183383
0.0009986895973
0.0009986135762
0.0009985998648
0.0009986108925
0.0009986324758
0.0009986608436
0.0009986971661
0.0009987456584
0.0009988131375
0.0009989110386
0.0009990565298
0.0009992879363
0.0004989874267
0.001670015265
0.002712362708
0.003405655638
0.00333274112
0.00260802638
0.001633734291
0.0007544759858
0.0003788182612
1.441158085e-05
2.133090028e-06
1.889627909e-06
1.725603843e-06
1.68858858e-06
1.500187009e-06
1.285105342e-06
1.114419779e-06
9.937416129e-07
9.177039877e-07
8.699364874e-07
8.431817202e-07
8.341752029e-07
8.398661301e-07
8.581567468e-07
8.882447758e-07
9.307271085e-07
9.879420175e-07
1.064536636e-06
1.168570676e-06
1.313441624e-06
1.521165182e-06
1.828662857e-06
2.300527217e-06
3.055818027e-06
4.327980183e-06
6.599977407e-06
1.091068445e-05
1.954483876e-05
3.759280125e-05
7.652443562e-05
0.0001624839264
0.0003557004117
0.0007961586533
0.001001986528
0.001001610055
0.001000829556
0.0009995225648
0.0009989289984
0.0009986982194
0.0009986214431
0.0009986077207
0.0009986190743
0.0009986410647
0.000998669757
0.0009987062331
0.0009987545895
0.000998821719
0.0009989190871
0.0009990645597
0.0009992990014
0.0004946623151
0.001632102873
0.002611434081
0.003160671163
0.002946864322
0.002176922668
0.001160835058
0.0005590647896
0.0001870365064
5.188838871e-06
1.786967963e-06
1.606226253e-06
1.471506849e-06
1.43635829e-06
1.334245126e-06
1.139453463e-06
9.851435858e-07
8.76154516e-07
8.087102675e-07
7.671204551e-07
7.444136063e-07
7.372496873e-07
7.426584461e-07
7.586706074e-07
7.846589597e-07
8.214073468e-07
8.714662719e-07
9.397479393e-07
1.034521731e-06
1.168984565e-06
1.363995878e-06
1.653715066e-06
2.097536413e-06
2.805216622e-06
3.99257314e-06
6.10653757e-06
1.01084892e-05
1.811152916e-05
3.481771615e-05
7.080348388e-05
0.0001501318204
0.000328143542
0.0007332774702
0.001001907368
0.001001533087
0.001000802548
0.0009995264053
0.0009989364774
0.0009987062666
0.0009986294914
0.0009986158407
0.0009986274059
0.0009986496711
0.0009986786038
0.0009987152029
0.0009987634688
0.0009988303201
0.0009989272707
0.0009990727747
0.0009993100917
0.0004905640656
0.001593916848
0.002508279131
0.002912715163
0.002565761129
0.001796399475
0.0008326174342
0.0004262123037
4.467240114e-05
2.075510468e-06
1.5117254e-06
1.36651152e-06
1.256119683e-06
1.223671787e-06
1.178715777e-06
1.003542461e-06
8.651496997e-07
7.675790897e-07
7.082896917e-07
6.723762273e-07
6.532547476e-07
6.476251273e-07
6.527134921e-07
6.668084506e-07
6.895687262e-07
7.220972745e-07
7.67316438e-07
8.305258277e-07
9.202034952e-07
1.049261628e-06
1.237446054e-06
1.516580371e-06
1.941905736e-06
2.61597351e-06
3.741203637e-06
5.737259526e-06
9.506446756e-06
1.702945504e-05
3.270484467e-05
6.640177084e-05
0.0001405162155
0.0003064305644
0.0006831416678
0.001001850637
0.001001465276
0.001000757212
0.0009995250624
0.0009989433535
0.000998715109
0.0009986385123
0.0009986247169
0.00099863621
0.0009986585139
0.0009986875326
0.0009987241773
0.0009987723586
0.0009988389779
0.0009989356044
0.0009990811653
0.0009993210869
0.000486165961
0.001555022204
0.002401137168
0.002657307673
0.002190480413
0.001399926705
0.0006151886247
0.0002945778206
1.727259129e-05
1.568678698e-06
1.285813477e-06
1.166969959e-06
1.076134016e-06
1.046087064e-06
1.036059378e-06
8.788920748e-07
7.552618634e-07
6.68465539e-07
6.167819116e-07
5.861625661e-07
5.704595699e-07
5.664737263e-07
5.716789546e-07
5.84690041e-07
6.05534004e-07
6.357416463e-07
6.786911565e-07
7.400528951e-07
8.284084929e-07
9.563469882e-07
1.142735577e-06
1.417724826e-06
1.833647883e-06
2.488121395e-06
3.574676861e-06
5.495209935e-06
9.11345599e-06
1.632264181e-05
3.131783314e-05
6.348662473e-05
0.0001340733544
0.0002916891918
0.000648641625
0.001001811271
0.001001406222
0.001000705998
0.0009995172118
0.0009989485768
0.0009987240046
0.0009986480098
0.0009986340299
0.0009986452872
0.0009986674738
0.0009986964744
0.0009987331213
0.0009987812392
0.0009988476892
0.0009989440913
0.0009990897599
0.0009993320712
0.0004807684871
0.001514585416
0.002288649507
0.002384525063
0.001831182336
0.001018990156
0.0004609255887
0.0001748553875
5.615070218e-06
1.300034852e-06
1.094975397e-06
9.966540465e-07
9.215509163e-07
8.940102435e-07
9.0337361e-07
7.635419206e-07
6.542754748e-07
5.782444874e-07
5.341573107e-07
5.088877503e-07
4.967550553e-07
4.947226867e-07
5.005870648e-07
5.133820054e-07
5.335913152e-07
5.63003793e-07
6.058565147e-07
6.678432944e-07
7.575248475e-07
8.871857879e-07
1.075613232e-06
1.351035513e-06
1.764194661e-06
2.40940016e-06
3.474499762e-06
5.350401681e-06
8.876858881e-06
1.589130704e-05
3.045502714e-05
6.162987611e-05
0.000129861391
0.000281796425
0.000624910654
0.001001785851
0.001001355107
0.001000654498
0.0009995043614
0.0009989525585
0.0009987330047
0.000998657945
0.0009986437378
0.0009986546146
0.0009986765463
0.0009987054364
0.0009987420481
0.0009987901231
0.0009988564657
0.0009989527385
0.0009990985663
0.0009993430444
0.0004736460365
0.001470818975
0.002167553579
0.002103224864
0.001505738454
0.0007332437127
0.0003558266426
5.909233366e-05
2.412312327e-06
1.094202358e-06
9.310718373e-07
8.49618251e-07
7.878471097e-07
7.632856695e-07
7.817895755e-07
6.58769047e-07
5.634585741e-07
4.980338299e-07
4.613629667e-07
4.413051051e-07
4.327033259e-07
4.327760711e-07
4.397279114e-07
4.530745515e-07
4.735734549e-07
5.041043663e-07
5.485479441e-07
6.129591968e-07
7.058853225e-07
8.394718685e-07
1.031681538e-06
1.311695656e-06
1.727682999e-06
2.372465444e-06
3.430947421e-06
5.288927051e-06
8.774932801e-06
1.569845326e-05
3.004851284e-05
6.069924466e-05
0.0001276109914
0.0002761859727
0.0006107308499
0.001001770366
0.001001309864
0.001000601879
0.0009994872159
0.0009989552785
0.0009987419102
0.0009986681241
0.0009986536998
0.0009986641045
0.0009986856844
0.0009987143988
0.0009987509544
0.0009987990137
0.0009988653144
0.000998961552
0.0009991075956
0.0009993540292
0.0004650414884
0.001421876615
0.002013224241
0.001817363847
0.001196515523
0.0005400190671
0.0002691870799
3.316915948e-05
1.484613491e-06
9.239455719e-07
7.940415484e-07
7.257811552e-07
6.748142365e-07
6.530423395e-07
6.737262735e-07
5.661004978e-07
4.836572379e-07
4.281649785e-07
3.983961294e-07
3.832039174e-07
3.77974188e-07
3.8023679e-07
3.884054516e-07
4.029836842e-07
4.251181665e-07
4.575925727e-07
5.047505911e-07
5.727545673e-07
6.70181966e-07
8.091979233e-07
1.007767666e-06
1.294781661e-06
1.71811344e-06
2.3696392e-06
3.433510058e-06
5.295161404e-06
8.782238245e-06
1.569881775e-05
3.001133859e-05
6.051738455e-05
0.0001269443292
0.0002740278649
0.00060424002
0.001001761461
0.00100126874
0.001000547406
0.0009994669024
0.0009989569555
0.0009987506541
0.0009986784266
0.0009986638161
0.0009986736931
0.0009986948556
0.0009987233509
0.0009987598426
0.0009988079182
0.0009988742442
0.0009989705382
0.0009991168543
0.0009993650355
0.000454908919
0.001368135961
0.001839579566
0.001535900553
0.0008763210184
0.0004044549318
0.0001903744645
1.808343521e-05
1.149533223e-06
7.830470673e-07
6.785969673e-07
6.210814169e-07
5.787886664e-07
5.596448437e-07
5.782761908e-07
4.846970712e-07
4.141016533e-07
3.679096434e-07
3.445791591e-07
3.339440094e-07
3.319262025e-07
3.36150407e-07
3.463037798e-07
3.625701753e-07
3.867071887e-07
4.218203597e-07
4.724343817e-07
5.448129105e-07
6.476378062e-07
7.932418498e-07
9.998145364e-07
1.29630239e-06
1.730768075e-06
2.395069806e-06
3.474460955e-06
5.358070508e-06
8.88153053e-06
1.586285109e-05
3.028851001e-05
6.097491217e-05
0.0001276327661
0.0002748268791
0.0006043385366
0.001001756236
0.001001230159
0.001000490321
0.0009994443868
0.0009989577702
0.0009987591651
0.0009986887339
0.0009986739883
0.0009986833162
0.0009987040261
0.0009987322807
0.0009987687138
0.0009988168434
0.0009988832637
0.0009989797035
0.0009991263475
0.0009993760741
0.0004431450424
0.001309625875
0.001653647181
0.001268482016
0.0006285472665
0.0003085615235
0.0001251968018
1.223344465e-05
9.389901175e-07
6.649303788e-07
5.807979316e-07
5.320702317e-07
4.968442132e-07
4.801954305e-07
4.945352189e-07
4.138283785e-07
3.541844629e-07
3.166800616e-07
2.992957236e-07
2.928343404e-07
2.934711328e-07
3.001326712e-07
3.121329881e-07
3.303304299e-07
3.568685831e-07
3.950875361e-07
4.496527571e-07
5.269512974e-07
6.358473861e-07
7.889641696e-07
1.004889027e-06
1.312907165e-06
1.761660413e-06
2.443776746e-06
3.547194883e-06
5.468216357e-06
9.058082507e-06
1.616534983e-05
3.083310206e-05
6.197829287e-05
0.0001294801207
0.0002781562754
0.0006100741967
0.001001752381
0.001001192843
0.001000429962
0.0009994205786
0.0009989579297
0.0009987674096
0.0009986989568
0.0009986841371
0.0009986929212
0.0009987131684
0.0009987411794
0.0009987775709
0.0009988257973
0.0009988923817
0.0009989890535
0.0009991360785
0.0009993871521
0.0004294367209
0.001245567379
0.001462938113
0.001004330691
0.0004703737512
0.0002416256729
5.985157326e-05
6.747794089e-06
7.57198787e-07
5.660716401e-07
4.977778624e-07
4.56474237e-07
4.271052548e-07
4.128974933e-07
4.220528583e-07
3.530133484e-07
3.033472207e-07
2.737747446e-07
2.616976422e-07
2.586049933e-07
2.621229328e-07
2.708110078e-07
2.846511602e-07
3.049733849e-07
3.342070017e-07
3.758594008e-07
4.34721704e-07
5.173409035e-07
6.328360595e-07
7.942191849e-07
1.020612479e-06
1.341873535e-06
1.807553131e-06
2.511736995e-06
3.646443297e-06
5.618216591e-06
9.300639362e-06
1.658748593e-05
3.161072622e-05
6.34599703e-05
0.0001323461144
0.0002837128157
0.0006207726142
0.001001748102
0.001001155786
0.001000365772
0.0009993962302
0.0009989576189
0.0009987753689
0.0009987090253
0.0009986941977
0.0009987024645
0.0009987222601
0.0009987500406
0.0009987864177
0.000998834788
0.0009989016068
0.0009989985933
0.0009991460487
0.0009993982749
0.0004135536726
0.001173775917
0.00126701817
0.0007521803068
0.0003649944186
0.0001875621662
3.060723908e-05
3.46069888e-06
6.124190414e-07
4.833639651e-07
4.277219943e-07
3.926626104e-07
3.681473682e-07
3.56171001e-07
3.599389658e-07
3.012772273e-07
2.605658393e-07
2.380992299e-07
2.306374914e-07
2.306441958e-07
2.365035937e-07
2.470192546e-07
2.627470974e-07
2.853729927e-07
3.17527817e-07
3.628460239e-07
4.262504386e-07
5.144894065e-07
6.369989525e-07
8.072576097e-07
1.045031565e-06
1.380946404e-06
1.865749438e-06
2.595595652e-06
3.767835788e-06
5.802017382e-06
9.600110801e-06
1.711428432e-05
3.259438534e-05
6.53674246e-05
0.0001361224111
0.0002912632264
0.0006359159094
0.001001742071
0.00100111823
0.001000297321
0.0009993719463
0.0009989570013
0.0009987830393
0.0009987188896
0.0009987041213
0.0009987119126
0.0009987312845
0.0009987588612
0.0009987952591
0.0009988438242
0.0009989109478
0.0009990083272
0.0009991562584
0.000999409446
0.0003960573458
0.001093507121
0.001070245011
0.0005596074687
0.0002809931189
0.0001390967298
1.84311596e-05
1.885925688e-06
5.012924924e-07
4.127730191e-07
3.687352126e-07
3.387159054e-07
3.180260826e-07
3.079379606e-07
3.065778629e-07
2.572093144e-07
2.246050301e-07
2.084959376e-07
2.046589083e-07
2.077489247e-07
2.155649179e-07
2.278224138e-07
2.455258189e-07
2.706111193e-07
3.058494693e-07
3.549881066e-07
4.231019713e-07
5.171795851e-07
6.470232488e-07
8.266391779e-07
1.07659886e-06
1.42824725e-06
1.934001738e-06
2.692569639e-06
3.907787452e-06
6.014741961e-06
9.949338411e-06
1.773422738e-05
3.376374915e-05
6.766176758e-05
0.0001407297747
0.0003006382648
0.0006551301109
0.001001733343
0.001001079631
0.001000224296
0.0009993481817
0.0009989562108
0.000998790426
0.0009987285156
0.0009987138723
0.0009987212413
0.0009987402303
0.0009987676401
0.0009988041011
0.0009988529147
0.0009989204131
0.0009990182589
0.0009991667065
0.000999420667
0.000378210955
0.00100776067
0.0008606224915
0.0004273570083
0.0002272761232
0.0001008802664
1.283778212e-05
1.08241935e-06
4.141533519e-07
3.520842788e-07
3.167955377e-07
2.91967052e-07
2.745329163e-07
2.662555449e-07
2.605502141e-07
2.197128143e-07
1.945307274e-07
1.840558938e-07
1.836245798e-07
1.889948332e-07
1.985260656e-07
2.125125502e-07
2.322841798e-07
2.599424089e-07
2.983632572e-07
3.5141115e-07
4.243386858e-07
5.244062155e-07
6.618190879e-07
8.511603653e-07
1.113793153e-06
1.482195994e-06
2.010423069e-06
2.80033622e-06
4.063340187e-06
6.252436988e-06
1.034265024e-05
1.84384119e-05
3.510346234e-05
7.031419192e-05
0.0001461103673
0.0003117156293
0.0006781466284
0.001001721283
0.001001039613
0.00100014669
0.0009993252619
0.0009989553533
0.00099879754
0.000998737883
0.0009987234272
0.0009987304345
0.000998749091
0.0009987763792
0.0009988129508
0.0009988620687
0.0009989300106
0.0009990283915
0.000999177391
0.0009994319381
0.0003606339576
0.0009148071077
0.0006924947634
0.0003495206561
0.0001916502242
5.647294726e-05
8.492188302e-06
6.760978778e-07
3.45359405e-07
2.999408331e-07
2.715579551e-07
2.510414076e-07
2.369319337e-07
2.30375414e-07
2.212216576e-07
1.881531745e-07
1.696673678e-07
1.637044342e-07
1.66461245e-07
1.736857427e-07
1.847998238e-07
2.00537302e-07
2.224457575e-07
2.527376475e-07
2.943830975e-07
3.513768841e-07
4.291712747e-07
5.353220258e-07
6.804649787e-07
8.798013463e-07
1.155557859e-06
1.541460231e-06
2.093432739e-06
2.91696825e-06
4.232074912e-06
6.511937388e-06
1.077562982e-05
1.922012169e-05
3.660230183e-05
7.33042236e-05
0.0001522239884
0.0003244116456
0.0007047835467
0.001001705493
0.001000997923
0.001000073262
0.0009993034038
0.0009989545093
0.0009988043961
0.0009987469819
0.0009987327723
0.0009987394828
0.0009987578641
0.0009987850819
0.0009988218156
0.000998871295
0.0009989397476
0.0009990387277
0.0009991883108
0.0009994432578
0.0003459223082
0.0008140214835
0.0005596829167
0.0002898218794
0.0001596198544
3.122077133e-05
4.047807978e-06
4.579557737e-07
2.905523103e-07
2.559607981e-07
2.329809446e-07
2.15911764e-07
2.044274793e-07
1.996179985e-07
1.878856602e-07
1.61858356e-07
1.493397432e-07
1.474976275e-07
1.524998545e-07
1.612966828e-07
1.739288822e-07
1.914385986e-07
2.155136326e-07
2.4845094e-07
2.933191406e-07
3.542564525e-07
4.369295478e-07
5.492070932e-07
7.021777531e-07
9.117040968e-07
1.200920392e-06
1.604924521e-06
2.181719351e-06
3.040884781e-06
4.412038852e-06
6.790749053e-06
1.124491141e-05
2.007444474e-05
3.825241741e-05
7.661814184e-05
0.0001590446606
0.0003386736804
0.0007349284233
0.001001685755
0.001000953952
0.001000004225
0.0009992827389
0.0009989537378
0.0009988110109
0.0009987558108
0.0009987419016
0.0009987483829
0.0009987665506
0.0009987937536
0.0009988307036
0.0009988806023
0.0009989496308
0.0009990492695
0.0009991994649
0.0009994546233
0.0003372938956
0.0007089520421
0.0004602626195
0.0002418408877
0.0001294570703
1.860947624e-05
1.937743064e-06
3.322923333e-07
2.456798794e-07
2.185214765e-07
1.997750276e-07
1.855838759e-07
1.762356137e-07
1.729862966e-07
1.597817782e-07
1.402196416e-07
1.326584211e-07
1.344751316e-07
1.412306867e-07
1.514129413e-07
1.655227925e-07
1.848044299e-07
2.110384312e-07
2.465977513e-07
2.946563102e-07
3.595053167e-07
4.470353941e-07
5.654422691e-07
7.262885472e-07
9.46119856e-07
1.24906537e-06
1.67166478e-06
2.274209792e-06
3.170810156e-06
4.601686802e-06
7.086956781e-06
1.174802306e-05
2.099798474e-05
4.004876553e-05
8.024780578e-05
0.0001665580995
0.0003544745228
0.0007685255571
0.001001662005
0.001000907229
0.0009999396211
0.0009992633337
0.0009989530803
0.0009988174022
0.0009987643743
0.0009987508156
0.0009987571357
0.0009987751542
0.0009988024007
0.000998839623
0.0009988899989
0.0009989596661
0.0009990600188
0.0009992108507
0.0009994660306
0.0003375610885
0.0006049052565
0.000373366281
0.0002068156552
0.0001023158158
1.221772875e-05
9.457093826e-07
2.56110095e-07
2.080340635e-07
1.863097869e-07
1.710357441e-07
1.593806289e-07
1.519535102e-07
1.501263808e-07
1.364870536e-07
1.228144993e-07
1.197719099e-07
1.240917714e-07
1.322328042e-07
1.436739251e-07
1.592276689e-07
1.80260586e-07
2.086203102e-07
2.467561772e-07
2.979509974e-07
3.666561871e-07
4.589944123e-07
5.835009532e-07
7.522304759e-07
9.824467625e-07
1.299321343e-06
1.740929702e-06
2.370042931e-06
3.305736708e-06
4.79982714e-06
7.399142279e-06
1.228325344e-05
2.198862846e-05
4.198867301e-05
8.418978515e-05
0.0001747598907
0.0003718084161
0.0008055671181
0.001001634285
0.001000857399
0.0009998793716
0.000999245208
0.0009989525652
0.0009988235881
0.0009987726815
0.0009987595192
0.0009987657457
0.0009987836805
0.0009988110305
0.0009988485819
0.0009988994922
0.0009989698589
0.0009990709773
0.0009992224596
0.0009994774743
0.0003476020224
0.0005103325124
0.0003167095307
0.0001842605473
5.973383706e-05
8.574540903e-06
4.890212637e-07
2.056583354e-07
1.764870406e-07
1.589405597e-07
1.465576888e-07
1.371214154e-07
1.313970651e-07
1.308748067e-07
1.176105696e-07
1.091529443e-07
1.097396201e-07
1.158393238e-07
1.251215942e-07
1.377464628e-07
1.547149425e-07
1.774653188e-07
2.079020627e-07
2.485535006e-07
3.028142638e-07
3.753022804e-07
4.723805515e-07
6.029355515e-07
7.795325327e-07
1.02018228e-06
1.351146798e-06
1.812124005e-06
2.468548302e-06
3.444896231e-06
5.00558138e-06
7.726322252e-06
1.284954859e-05
2.304535775e-05
4.407146793e-05
8.844458918e-05
0.0001836538159
0.0003906873432
0.0008460850251
0.001001602712
0.001000804201
0.0009998233221
0.0009992283486
0.0009989522107
0.0009988295865
0.0009987807448
0.0009987680209
0.0009987742197
0.0009987921367
0.0009988196507
0.0009988575883
0.0009989090894
0.0009989802136
0.0009990821451
0.0009992342776
0.0009994889475
0.000364986356
0.0004727368539
0.0002754835352
0.0001655064467
3.191172246e-05
3.537380254e-06
2.81162881e-07
1.700795804e-07
1.504402169e-07
1.361156888e-07
1.260527912e-07
1.184708251e-07
1.142376062e-07
1.147827981e-07
1.02601613e-07
9.846930217e-08
1.019065566e-07
1.092837282e-07
1.195729857e-07
1.333430219e-07
1.516964325e-07
1.761197923e-07
2.085733111e-07
2.516666669e-07
3.089112225e-07
3.850968601e-07
4.868352969e-07
6.233752565e-07
8.078104894e-07
1.058925634e-06
1.404118385e-06
1.884791433e-06
2.569222669e-06
3.587728366e-06
5.21834122e-06
8.067887492e-06
1.344641922e-05
2.416809632e-05
4.629820372e-05
9.301613367e-05
0.0001932507556
0.0004111386918
0.0008901461262
0.001001567449
0.001000747447
0.0009997712712
0.0009992127205
0.0009989520277
0.0009988354149
0.0009987885784
0.0009987763313
0.0009987825666
0.0009988005307
0.0009988282692
0.0009988666496
0.0009989187965
0.0009989907336
0.00099909352
0.0009992462914
0.000999500442
0.0003861015567
0.0004115277239
0.0002470998129
0.0001468151352
1.728068417e-05
1.346845562e-06
1.874929649e-07
1.432553584e-07
1.288344499e-07
1.170400702e-07
1.088176591e-07
1.028218845e-07
9.992729546e-08
1.003365234e-07
9.085981215e-08
9.043941501e-08
9.573669162e-08
1.040986109e-07
1.15332444e-07
1.30220712e-07
1.499210908e-07
1.75962254e-07
2.103623939e-07
2.558152137e-07
3.159542382e-07
3.95746318e-07
5.020598141e-07
6.445165934e-07
8.367555982e-07
1.098361023e-06
1.457909077e-06
1.958586598e-06
2.671693881e-06
3.733833923e-06
5.437706583e-06
8.423516592e-06
1.407381159e-05
2.535749999e-05
4.867129071e-05
9.791104752e-05
0.0002035673117
0.0004332023637
0.0009378456671
0.001001528689
0.001000686992
0.0009997229931
0.0009991982755
0.0009989520218
0.0009988410898
0.0009987961978
0.0009987844625
0.000998790796
0.0009988088713
0.000998836894
0.0009988757727
0.0009989286189
0.0009990014211
0.0009991050975
0.0009992584876
0.0009995119488
0.0004118238431
0.0003777842617
0.0002335322665
0.0001262856596
1.004321486e-05
4.84702995e-07
1.434930231e-07
1.217954481e-07
1.105961586e-07
1.008726809e-07
9.424076632e-08
8.967319339e-08
8.780542071e-08
8.701893805e-08
8.185660734e-08
8.431646874e-08
9.085714178e-08
1.000538712e-07
1.121969068e-07
1.281700731e-07
1.491683238e-07
1.767628993e-07
2.130326299e-07
2.60758415e-07
3.23700266e-07
4.070071651e-07
5.178115089e-07
6.661188623e-07
8.661292946e-07
1.138251164e-06
1.512280439e-06
2.033265764e-06
2.775709749e-06
3.882960997e-06
5.663467401e-06
8.793149906e-06
1.473206598e-05
2.661488197e-05
5.119434669e-05
0.0001031383489
0.000214625074
0.000456928993
0.0009893007121
0.001001486647
0.001000622718
0.0009996782531
0.0009991849573
0.000998952195
0.0009988466273
0.0009988036188
0.0009987924275
0.0009987989184
0.0009988171669
0.0009988455324
0.0009988849636
0.0009989385606
0.0009990122768
0.0009991168713
0.0009992708474
0.0009995234589
0.0004392948717
0.0003643291982
0.0002286113641
8.534332613e-05
5.037876345e-06
1.961813705e-07
1.183426537e-07
1.039795234e-07
9.504157516e-08
8.726412125e-08
8.18905842e-08
7.849238196e-08
7.762264751e-08
7.657720676e-08
7.510659002e-08
7.955532969e-08
8.701862883e-08
9.697246702e-08
1.099897494e-07
1.270036397e-07
1.492419159e-07
1.783200777e-07
2.163799027e-07
2.66292469e-07
3.319479784e-07
4.186826327e-07
5.338998912e-07
6.879991626e-07
8.957569659e-07
1.178429752e-06
1.567073567e-06
2.108675898e-06
2.88112454e-06
4.034987723e-06
5.895580631e-06
9.176956437e-06
1.542186427e-05
2.794212003e-05
5.387201445e-05
0.0001087090629
0.0002264497791
0.0004823780681
0.001002164896
0.001001441551
0.001000554503
0.0009996368177
0.0009991727065
0.0009989525466
0.000998852042
0.0009988108571
0.0009988002395
0.0009988069443
0.0009988254261
0.0009988541915
0.0009988942277
0.0009989486249
0.0009990233003
0.0009991288327
0.0009992833461
0.0009995349635
0.0004831176237
0.0003661620209
0.000228580561
4.152481258e-05
1.365855695e-06
1.203751945e-07
1.003812949e-07
8.931523284e-08
8.210113217e-08
7.571195001e-08
7.144252745e-08
6.914934738e-08
6.924077511e-08
6.867982516e-08
7.012051789e-08
7.587566968e-08
8.404373166e-08
9.470418358e-08
1.085540767e-07
1.265566656e-07
1.49972336e-07
1.804622489e-07
2.20233208e-07
2.722491282e-07
3.405339259e-07
4.306158163e-07
5.501760654e-07
7.100176771e-07
9.255084727e-07
1.218776584e-06
1.622177984e-06
2.184716228e-06
2.987851556e-06
4.189863314e-06
6.134094697e-06
9.575232137e-06
1.614408304e-05
2.934142753e-05
5.670958068e-05
0.0001146355475
0.0002390700578
0.000509615527
0.001002134397
0.001001393648
0.001000482207
0.0009995984617
0.0009991614629
0.0009989530742
0.0009988573477
0.000998817928
0.0009988079114
0.0009988148838
0.0009988336571
0.0009988628775
0.0009989035692
0.0009989588137
0.0009990344893
0.0009991409692
0.0009992959633
0.0009995464517
0.0005241370655
0.000359895473
0.0002230613015
1.942817914e-05
3.290179885e-07
9.67399275e-08
8.631759343e-08
7.726867128e-08
7.123925277e-08
6.602279806e-08
6.275905581e-08
6.149898368e-08
6.249314107e-08
6.290827249e-08
6.642532421e-08
7.302421456e-08
8.178580411e-08
9.311069442e-08
1.077468704e-07
1.266828089e-07
1.512123609e-07
1.830434955e-07
2.244500185e-07
2.784912159e-07
3.493280344e-07
4.426852034e-07
5.665282214e-07
7.320731747e-07
9.552937538e-07
1.259213263e-06
1.677527372e-06
2.261333801e-06
3.09585806e-06
4.347601408e-06
6.379139576e-06
9.988383411e-06
1.689976267e-05
3.081529016e-05
5.971283565e-05
0.0001209311703
0.0002525166822
0.0005387120757
0.001002100318
0.001001343205
0.001000405642
0.0009995629712
0.0009991511673
0.0009989537742
0.0009988625569
0.0009988248462
0.0009988154555
0.0009988227467
0.0009988418673
0.0009988715957
0.0009989129911
0.0009989691276
0.0009990458395
0.0009991532668
0.0009993087005
0.0009995579073
0.0005629953208
0.0003495578811
0.000209383958
9.638211035e-06
1.266938199e-07
8.272286089e-08
7.468895285e-08
6.726440568e-08
6.21793388e-08
5.79559342e-08
5.562775548e-08
5.534101672e-08
5.716623197e-08
5.877299065e-08
6.363768711e-08
7.082291492e-08
8.011878493e-08
9.206679722e-08
1.074413448e-07
1.272554064e-07
1.528373204e-07
1.85943168e-07
2.289155955e-07
2.849117669e-07
3.582327457e-07
4.548041217e-07
5.828817576e-07
7.541042322e-07
9.850656579e-07
1.299708121e-06
1.733107112e-06
2.338533993e-06
3.205179265e-06
4.508297952e-06
6.630949227e-06
1.041695479e-05
1.769014062e-05
3.236650019e-05
6.288808979e-05
0.0001276102471
0.0002668222534
0.0005697421532
0.001002062905
0.001001290515
0.00100032455
0.000999530146
0.0009991417626
0.000998954642
0.0009988676808
0.0009988316251
0.0009988228838
0.0009988305423
0.0009988500633
0.0009988803505
0.0009989224954
0.0009989795659
0.0009990573451
0.0009991657114
0.0009993215597
0.0009995693114
0.0005816434739
0.0003385982417
0.0001854425009
5.642528695e-06
9.43346138e-08
7.146936148e-08
6.503320594e-08
5.890509594e-08
5.460290651e-08
5.126321567e-08
4.98399546e-08
5.046774156e-08
5.303304386e-08
5.580191863e-08
6.149850792e-08
6.914484002e-08
7.893396353e-08
9.14639708e-08
1.075292772e-07
1.281680266e-07
1.54743964e-07
1.890628198e-07
2.335377404e-07
2.914261629e-07
3.671721198e-07
4.669062851e-07
5.991808338e-07
7.760661786e-07
1.014791512e-06
1.340241459e-06
1.788911854e-06
2.41632882e-06
3.315854875e-06
4.672051951e-06
6.889758815e-06
1.086148743e-05
1.85164416e-05
3.399782128e-05
6.624160134e-05
0.0001346870142
0.0002820192757
0.0006027801707
0.001002022385
0.001001235918
0.001000246796
0.0009994998002
0.0009991331944
0.0009989556724
0.0009988727296
0.0009988382773
0.000998830207
0.0009988382787
0.0009988582511
0.0009988891453
0.0009989320828
0.0009989901265
0.0009990689981
0.0009991782893
0.0009993345261
0.0009995806463
0.0005690491475
0.0003332792698
0.0001531711277
2.183355619e-06
7.694115497e-08
6.221839136e-08
5.697282244e-08
5.188820714e-08
4.826320113e-08
4.575108261e-08
4.52146857e-08
4.667306022e-08
4.984741884e-08
5.36166382e-08
5.9843565e-08
6.78890123e-08
7.813572924e-08
9.120770905e-08
1.079185022e-07
1.293322654e-07
1.568490134e-07
1.923257146e-07
2.382475199e-07
2.979742769e-07
3.760957227e-07
4.78951644e-07
6.153964522e-07
7.979416667e-07
1.044466397e-06
1.380821773e-06
1.844965048e-06
2.494760128e-06
3.427956277e-06
4.838997069e-06
7.155841444e-06
1.132256211e-05
1.937992644e-05
3.571203741e-05
6.977960035e-05
0.0001421755456
0.0002981397478
0.0006378991735
0.001001978966
0.001001179465
0.001000174774
0.0009994717615
0.0009991254112
0.0009989568598
0.0009988777121
0.0009988448143
0.0009988374349
0.0009988459634
0.0009988664354
0.0009988979821
0.0009989417526
0.0009990008055
0.0009990807883
0.0009991909854
0.0009993475828
0.0009995918926
0.000552758413
0.0003307872507
8.210411049e-05
7.3929871e-07
6.527616752e-08
5.462401555e-08
5.026430798e-08
4.601663813e-08
4.29949422e-08
4.128043589e-08
4.158941812e-08
4.375915705e-08
4.726957212e-08
5.196417402e-08
5.856804758e-08
6.697411959e-08
7.764438376e-08
9.121986168e-08
1.085335969e-07
1.306765122e-07
1.5908582e-07
1.956711102e-07
2.429909361e-07
3.045094293e-07
3.849647629e-07
4.909096215e-07
6.315066004e-07
8.197175375e-07
1.074086373e-06
1.421454862e-06
1.901283139e-06
2.573857699e-06
3.541536805e-06
5.009240574e-06
7.429428524e-06
1.180068639e-05
2.028171749e-05
3.751165843e-05
7.350775919e-05
0.0001500887516
0.0003152131961
0.0006751668509
0.001001932851
0.0010011211
0.001000108063
0.0009994458717
0.0009991183647
0.000998958198
0.0009988826361
0.0009988512463
0.0009988445766
0.0009988536027
0.0009988746199
0.0009989068618
0.0009989515028
0.0009990115976
0.0009990927037
0.0009992037839
0.0009993607117
0.0009996030293
0.0005322216223
0.0003255938991
4.485277717e-05
2.780311869e-07
5.664887013e-08
4.837160627e-08
4.467001227e-08
4.110180752e-08
3.864806759e-08
3.771547729e-08
3.879069122e-08
4.15341855e-08
4.542948375e-08
5.068799569e-08
5.759409483e-08
6.633014111e-08
7.739171331e-08
9.143492093e-08
1.09312806e-07
1.321437153e-07
1.61403119e-07
1.990541989e-07
2.477302717e-07
3.110014898e-07
3.937571568e-07
5.027664893e-07
6.475062081e-07
8.413977423e-07
1.103664822e-06
1.46216417e-06
1.95790061e-06
2.653669844e-06
3.656668761e-06
5.182907752e-06
7.710763217e-06
1.229635947e-05
2.122287615e-05
3.939900463e-05
7.743124927e-05
0.0001584382924
0.0003332660967
0.0007146435655
0.001001884245
0.001001060742
0.001000046282
0.0009994219846
0.0009991120092
0.000998959681
0.0009988875083
0.0009988575823
0.0009988516395
0.0009988612019
0.0009988828072