/*--------------------------------*- C++ -*----------------------------------*\
  =========                 |
  \\      /  F ield         | OpenFOAM: The Open Source CFD Toolbox
   \\    /   O peration     | Website:  https://openfoam.org
    \\  /    A nd           | Version:  12
     \\/     M anipulation  |
\*---------------------------------------------------------------------------*/
FoamFile
{
    format      ascii;
    class       volScalarField;
    location    "850";
    object      omega;
}
// * * * * * * * * * * * * * * * * * * * * * * * * * * * * * * * * * * * * * //

dimensions      [0 0 -1 0 0 0 0];

internalField   nonuniform List<scalar> 
16200
(
712891.7592
282170.4843
159732.2998
110631.7927
86013.25166
69972.11022
55155.99167
33635.64746
7805.40327
785.8134676
318.6256469
199.8820427
129.5715482
86.94462381
62.14821763
46.59384968
35.08632442
26.66213237
20.53455754
15.94655904
12.47371859
9.8402975
7.835479255
6.300301852
5.116470496
4.195846963
3.473960872
2.903948916
2.452008949
2.09423079
1.813183199
1.594621235
1.4255341
1.294807537
1.19474689
1.12039214
1.067894228
1.033203745
1.011849868
0.999556043
0.9929034819
0.9895462184
0.9880528892
0.987635559
0.987265511
0.9864847263
0.9854368789
0.9849620902
0.984771979
0.9847125354
0.984722751
0.9847853711
0.9849056649
0.9851035264
0.985412259
0.9858821844
0.9865883753
0.9876488963
0.9892606576
0.9918111499
748523.3262
297347.7179
168242.6186
116574.0629
90450.41712
72590.11039
54725.7401
26945.86182
4091.496898
599.610045
322.4999064
203.75878
132.0836726
88.41955683
62.83544233
47.03455619
35.32634461
26.75903016
20.55605976
15.92754747
12.43265083
9.789869266
7.783526108
6.251216892
5.072557259
4.158019276
3.442297313
2.878015994
2.431017062
2.077293913
1.799642549
1.584222349
1.418193372
1.29019873
1.192251068
1.119276193
1.067527606
1.033164709
1.011912827
0.9996239077
0.9929441133
0.9895527472
0.9880234601
0.9875691825
0.9872378348
0.9865452337
0.9855030482
0.9850295184
0.9848443857
0.9847916805
0.9848091096
0.9848785218
0.985004448
0.9852060441
0.9855159385
0.9859838038
0.9866849
0.9877390159
0.9893509328
0.9919389394
782731.9253
312189.2892
176617.9289
122441.2641
94521.96007
74656.80518
52432.4538
19262.3292
2146.98106
547.6874983
327.4203343
207.2115193
134.2875806
89.69697675
63.41130276
47.38491271
35.49353023
26.797086
20.52967673
15.87061613
12.36195737
9.716422448
7.713628563
6.187965706
5.017271556
4.110907938
3.402963566
2.845732065
2.404809614
2.056127855
1.782697488
1.571091662
1.408696183
1.28394988
1.188579284
1.11738005
1.066691373
1.032876327
1.011865981
0.999660461
0.992992392
0.9895837336
0.988024116
0.9875295881
0.9872178458
0.9865944442
0.9855666366
0.985096235
0.9849157977
0.9848689602
0.9848927627
0.9849683946
0.9850997354
0.9853052574
0.9856169063
0.9860837372
0.9867810188
0.9878300463
0.9894424881
0.9920649996
814713.8752
326134.255
184670.5328
128139.798
98019.42777
76187.56058
47423.61542
11983.92082
1308.417533
536.7766987
331.2955787
209.9145015
136.0130201
90.68702643
63.8314356
47.61497718
35.56776576
26.76202114
20.44621724
15.76903179
12.25655192
9.615932767
7.622441107
6.107653246
4.948046792
4.052222302
3.35393216
2.805345388
2.371939613
2.029616008
1.761554977
1.554705778
1.396707806
1.275838995
1.18356985
1.114574501
1.065277668
1.032248917
1.011636746
0.9996087057
0.9930046055
0.9896061845
0.9880307422
0.9875031002
0.9871973883
0.9866174446
0.985618667
0.9851567413
0.9849827904
0.9849422355
0.9849723953
0.98505421
0.985191095
0.9854009422
0.985715065
0.9861819398
0.9868767548
0.9879220912
0.9895356906
0.9921901858
844158.0156
339193.197
192271.6831
133545.9602
101219.0015
75828.54417
38617.8562
6643.124597
1015.653434
537.178677
334.1347049
211.8990564
137.2673051
91.38450376
64.09465326
47.72118145
35.54507453
26.65050191
20.30318551
15.6207266
12.1147516
9.48699535
7.508755485
6.009240106
4.864015165
3.9812845
3.294736562
2.756618744
2.332405219
1.997972429
1.736590685
1.535518944
1.382676699
1.266250025
1.17751739
1.111066338
1.063420838
1.03136399
1.011271792
0.9994942013
0.9929942909
0.9896270003
0.9880467057
0.9874915395
0.9871813352
0.9866233261
0.9856635188
0.9852133784
0.9850467847
0.9850124878
0.9850487571
0.985136575
0.9852790284
0.9854935056
0.9858107328
0.9862786393
0.986972266
0.9880152848
0.9896307448
0.9923146892
870513.0509
351335.677
199450.3972
138467.7266
103869.0914
72967.313
29500.49438
3873.873135
928.6514986
539.1080495
335.7889094
213.0954193
138.0065032
91.75951624
64.18503426
47.69055275
35.41544443
26.45540825
20.09550977
15.4218325
11.93355606
9.327219229
7.370634773
5.891172492
4.763974475
3.897235793
3.224860784
2.699364763
2.286303001
1.961500056
1.708218408
1.513962079
1.366979619
1.255469017
1.170613115
1.106968105
1.061177847
1.030244253
1.010775484
0.9993130833
0.9929548702
0.9896393862
0.9880659642
0.9874912259
0.9871696396
0.9866220084
0.9857004659
0.9852656541
0.9851075436
0.9850796824
0.9851219536
0.9852156819
0.9853637707
0.9855831885
0.9859041294
0.9863740112
0.9870676874
0.9881097439
0.9897278444
0.9924388112
893452.3706
362748.5543
206379.1517
142657.4084
106228.3074
67085.0179
20903.77538
2567.441376
900.8061779
539.3609221
336.2193711
213.488904
138.2216998
91.80231088
64.09588783
47.51592493
35.17216682
26.17148162
19.81921406
15.16928039
11.71067763
9.134927467
7.206876534
5.752649599
4.647494082
3.800009517
3.144589279
2.634165887
2.234412213
1.92105164
1.67725717
1.490748424
1.350188027
1.243919648
1.163148371
1.10246579
1.058658598
1.02894931
1.010176978
0.9990776739
0.9928901661
0.989643206
0.9880865936
0.987499733
0.9871619097
0.9866180826
0.9857309556
0.9853141865
0.9851654245
0.9851441197
0.9851922896
0.9852918471
0.9854456384
0.9856702889
0.9859955161
0.9864682634
0.9871631714
0.9882055827
0.9898271332
0.9925627458
912730.5849
373619.8788
213212.5097
146644.088
106546.1197
56408.93213
13523.9891
1981.949511
885.5068078
538.0850779
335.5106485
213.1097681
137.9198489
91.50823601
63.81893511
47.18794654
34.80666801
25.79250211
19.47016428
14.86044892
11.44458525
8.909292218
7.017117158
5.593679436
4.514934195
3.689910161
3.054563068
2.561915186
2.177730276
1.877585209
1.644647209
1.466617159
1.332852256
1.231990147
1.155381305
1.097720224
1.055956187
1.027528513
1.009499572
0.9987970637
0.9928022272
0.9896373435
0.9881061033
0.9875141556
0.9871567662
0.9866111435
0.9857557929
0.9853592397
0.9852205704
0.9852059612
0.9852599761
0.9853653234
0.9855249058
0.9857550793
0.9860851418
0.9865616008
0.9872588706
0.988302909
0.9899287284
0.9926866684
928206.319
384280.0555
219787.0357
150224.6385
103368.0012
44461.14283
8675.827579
1714.970285
880.7252446
535.2004456
333.6561723
211.9463466
137.0907164
90.86766852
63.34328107
46.69712816
34.31163875
25.31426185
19.04635338
14.49469557
11.13542174
8.650864321
6.8021667
5.415326433
4.367030389
3.568774933
2.956793536
2.484581874
2.118003864
1.832512109
1.611248038
1.442286598
1.315484053
1.220034885
1.147548145
1.092881274
1.053160109
1.026031542
1.008768468
0.9984825363
0.9926950306
0.9896222122
0.9881231627
0.987532079
0.9871530543
0.9866008433
0.9857760915
0.9854012432
0.9852732077
0.9852654066
0.985325239
0.9854363673
0.9856018469
0.9858378324
0.986173257
0.9866542322
0.9873549406
0.9884018263
0.9900327185
0.9928107132
940084.6314
394767.3756
225588.5288
153866.5924
96180.49029
33715.01739
5851.82529
1581.79347
872.7998525
530.5508581
330.6231627
209.9847448
135.7297763
89.87805
62.66110837
46.03696783
33.68248979
24.73505382
18.54787097
14.07315086
10.78480317
8.361447726
6.563073233
5.218767477
4.206458739
3.43902361
2.853618814
2.404237132
2.056912134
1.787098806
1.578051082
1.418361399
1.298495205
1.208332972
1.139834591
1.088068014
1.050342743
1.024499493
1.008005115
0.9981440897
0.9925723884
0.9895985065
0.9881368925
0.987551427
0.9871497406
0.9865867987
0.9857928224
0.9854405788
0.9853235409
0.9853226392
0.9853882881
0.9855052203
0.985676723
0.9859188111
0.9862601068
0.9867463653
0.9874515368
0.9885024328
0.99013917
0.9929349875
948501.6452
405195.9902
230895.2391
156376.9735
83318.94586
24124.30984
4267.383596
1502.574787
862.541266
524.2576262
326.4771025
207.258296
133.8543899
88.54819131
61.76828556
45.20346433
32.9168933
24.05559078
17.97708271
13.59900305
10.39606504
8.043092424
6.303379017
5.00778824
4.036427253
3.303708213
2.747729534
2.323054553
1.996067174
1.742456424
1.545783686
1.39530663
1.28218972
1.197087876
1.132377635
1.083370639
1.047560769
1.022965768
1.007227723
0.9977907304
0.9924381265
0.9895673156
0.9881469514
0.9875705637
0.9871460075
0.9865686856
0.9858068972
0.985477632
0.9853717861
0.9853778477
0.9854493317
0.9855721175
0.9857497871
0.985998271
0.9863459311
0.9868382047
0.9875488126
0.9886048207
0.9902481281
0.9930595709
953476.5082
415536.986
236183.3971
153818.6634
69139.75058
16633.46908
3391.667376
1448.274166
848.4951971
516.3237255
321.238404
203.7832449
131.4765182
86.88676826
60.65999856
44.19345196
32.01474544
23.27962129
17.33914057
13.07770184
9.972714812
7.700802354
6.027358035
4.786501162
3.86082295
3.166262403
2.641905342
2.243092294
1.936870933
1.699474209
1.51498258
1.373440636
1.26676542
1.186430369
1.125267319
1.078850888
1.044854764
1.02145536
1.006450542
0.9974298845
0.9922956505
0.9895298197
0.9881533298
0.9875882421
0.9871412326
0.9865462473
0.9858190903
0.9855127548
0.9854181547
0.985431219
0.9855085732
0.9856372858
0.9858212826
0.9860764586
0.9864309623
0.9869299503
0.9876469174
0.9887090756
0.9903596196
0.9931845199
955102.5751
425540.7566
241919.751
145634.1445
56268.6704
11845.87014
2905.451831
1405.488591
830.8538151
506.8620464
314.9694997
199.5970574
128.6195527
84.91005834
59.33501368
43.00769927
30.9803811
22.41510402
16.64218538
12.51493832
9.521612635
7.340123776
5.740145275
4.559756775
3.683968412
3.030200121
2.538747104
2.166115794
1.880428947
1.658794893
1.486000143
1.352951909
1.252330792
1.176431394
1.11855514
1.074546904
1.042251729
1.019986003
1.00568429
0.9970674844
0.9921479027
0.9894872069
0.9881562597
0.9876035635
0.9871349763
0.9865193102
0.9858300474
0.9855462678
0.9854628543
0.9854829398
0.9855662123
0.9857009452
0.9858914441
0.986153611
0.9865154248
0.9870217958
0.9877459957
0.9888152753
0.9904736541
0.993309869
953699.2559
434332.1088
249293.0444
131929.0054
42906.72522
8689.799575
2607.009012
1364.496705
810.6044057
494.8384982
307.7149437
194.7376904
125.3129552
82.6402267
57.79542469
41.65057297
29.82205086
21.47331573
15.8962495
11.91953655
9.049799543
6.967277172
5.447639142
4.332904781
3.510234785
2.898733391
2.440411825
2.093464043
1.827509036
1.620820844
1.459027196
1.333923159
1.238924437
1.167115693
1.112262579
1.070478081
1.039767566
1.018569286
1.004936557
0.9967080462
0.9919973077
0.9894405809
0.9881561125
0.9876159163
0.9871269503
0.9864877799
0.9858402856
0.9855784549
0.9855060846
0.9855331943
0.9856224446
0.9857633084
0.9859604967
0.9862299557
0.986599534
0.9871139271
0.9878461853
0.9889234901
0.9905902259
0.9934356333
949872.1282
441903.7432
250898.4632
113851.8065
32033.15411
6707.294183
2409.77384
1321.977768
787.8590387
481.1629379
299.1296121
189.2772865
121.6010683
80.1047181
56.04515617
40.12841163
28.55087155
20.46794139
15.10894359
11.30060627
8.564751324
6.589282538
5.156383825
4.111345047
3.343524494
2.774405532
2.348429859
2.025993284
1.778549041
1.585744797
1.434192888
1.316358362
1.226534984
1.158475326
1.106389645
1.06665006
1.037409792
1.017212005
1.004212399
0.9963548788
0.9918458082
0.9893909262
0.9881533313
0.9876249184
0.9871169881
0.9864517891
0.9858502093
0.9856095654
0.9855480363
0.9855821632
0.9856774606
0.9858245803
0.986028656
0.9863057096
0.9866834953
0.9872065218
0.987947616
0.9890337811
0.9907093144
0.9935618098
944194.5902
445918.5661
242634.0422
98544.51536
24138.20823
5479.383543
2271.934705
1279.991861
763.5972528
466.2804373
289.5915424
183.0569909
117.5132087
77.3226783
54.08480313
38.44809687
27.18082415
19.41481107
14.29398662
10.66735012
8.07467677
6.214019535
4.873047883
3.899814339
3.186781897
2.658878402
2.263660342
1.964103209
1.733701712
1.553587771
1.411388636
1.300207162
1.215117988
1.150480914
1.100921964
1.063058944
1.03517987
1.015917349
1.003514885
0.9960102962
0.9916949153
0.9893390915
0.9881483814
0.9876303637
0.9871050081
0.986418252
0.9858601278
0.9856398168
0.9855888905
0.985630022
0.9857314446
0.9858849575
0.9860961274
0.9863810792
0.9867675037
0.9872997477
0.988050409
0.9891462
0.9908308865
0.9936883791
937574.8931
444265.4145
226222.1638
82099.2009
18284.07596
4691.808781
2163.61475
1237.214182
737.7441936
450.203063
279.2234426
176.2108535
112.9662776
74.31430284
51.91801816
36.62178251
25.7310173
18.32375636
13.463619
10.02951726
7.588938838
5.849785738
4.603499261
3.701767189
3.041797576
2.552959342
2.186384948
1.907828012
1.692903605
1.5242561
1.39051871
1.285385511
1.204609588
1.143090579
1.095836481
1.059694758
1.033075188
1.014685958
1.002845609
0.9956758334
0.991545779
0.9892857918
0.9881417188
0.9876321774
0.9870906442
0.9863874528
0.9858702738
0.985669399
0.9856288177
0.9856769402
0.9857845742
0.9859446279
0.9861631062
0.9864562595
0.9868517432
0.9873937619
0.9881546749
0.9892607879
0.9909548961
0.9938153061
931380.285
435769.2068
201727.4295
65826.28201
14008.73896
4157.336188
2065.798023
1192.733907
710.2583068
432.9872697
268.0921173
168.846368
108.0433277
71.07062003
49.55206606
34.66699635
24.22476003
17.21988386
12.62986275
9.397892125
7.117731096
5.504021019
4.351911148
3.519169324
2.909318537
2.456777407
2.116461089
1.856945765
1.655944244
1.497611388
1.371448872
1.271790719
1.194936064
1.136256162
1.091105462
1.056543932
1.031090514
1.013516715
1.00220509
0.9953524267
0.991399251
0.9892316184
0.9881337723
0.9876303967
0.9870736282
0.9863595334
0.9858808202
0.9856984779
0.9856679782
0.9857230802
0.9858370194
0.9860037704
0.9862297771
0.9865314344
0.9869363861
0.9874887106
0.9882605139
0.9893775751
0.9910812833
0.9939425413
926582.312
420966.9021
176847.857
52232.59612
11022.31719
3787.410972
1973.2839
1146.873469
681.589992
414.8955091
256.3468034
161.0519797
102.8294575
67.63205151
46.99896991
32.60885757
22.67666869
16.12335406
11.80543952
8.784732438
6.670756173
5.182068288
4.120568751
3.352747566
2.789334002
2.370009181
2.053482063
1.81108349
1.622543359
1.473397679
1.354026418
1.259313117
1.186021002
1.129927827
1.086699508
1.053591221
1.02921916
1.012407405
1.001593117
0.995040575
0.991255949
0.9891770531
0.9881249347
0.9876251357
0.9870537754
0.986334536
0.9858918949
0.9857271996
0.985706522
0.9857685968
0.9858889423
0.9860625543
0.9862963138
0.9866067761
0.9870215927
0.9875847277
0.9883680141
0.9894965801
0.9912099706
0.9940700217
922750.2263
401386.3553
159109.8881
41534.61677
8954.050711
3517.134653
1885.557749
1098.332262
651.8877454
396.0195112
244.0459181
152.8719423
97.36123976
64.05469616
44.27857507
30.48192349
21.12818877
15.04335832
11.00416712
8.20240883
6.25515689
4.886711354
3.910186832
3.202336693
2.681327802
2.292052814
1.996893661
1.769790831
1.592347369
1.45138493
1.338092748
1.247842834
1.177789262
1.124056613
1.082589263
1.050820842
1.027453702
1.011355149
1.001008984
0.994740456
0.9911163053
0.9891224825
0.9881155605
0.9876165586
0.9870309673
0.9863124348
0.9859035917
0.9857556934
0.9857445895
0.9858136367
0.9859404961
0.986121139
0.9863628792
0.9866824446
0.9871075109
0.9876819348
0.9884772514
0.9896178079
0.991340864
0.9941976713
918053.8402
379102.6737
142282.7186
32810.65398
7506.088243
3303.437146
1799.98128
1048.587503
621.294839
376.471147
231.281649
144.3820592
91.73734806
60.38514904
41.42899021
28.33206652
19.61229468
13.99404557
10.24105462
7.661003453
5.87473008
4.61874113
3.720447691
3.067218611
2.584495405
2.222169323
1.946085172
1.73260171
1.565021445
1.431344081
1.323493657
1.237275309
1.170170167
1.118596473
1.078746813
1.048217426
1.025786596
1.010356768
1.000451699
0.9944520335
0.9909806148
0.9890682131
0.9881059711
0.987604861
0.9870051343
0.9862931613
0.9859159804
0.9857840743
0.9857823112
0.9858583382
0.9859918251
0.9861796739
0.9864296249
0.9867585882
0.9871942757
0.98778044
0.9885882877
0.9897412485
0.9914738577
0.9943254025
912669.7606
350787.3742
123325.5895
25568.24341
6474.09092
3115.573107
1715.65686
997.9693179
590.1224138
356.4715061
218.208803
135.7338042
86.08884818
56.64182338
38.50430313
26.19666162
18.15744642
12.99143104
9.529781756
7.166153889
5.530405135
4.377600543
3.550352709
2.946327787
2.497873835
2.159563848
1.90043885
1.699055086
1.54024286
1.41305659
1.310083869
1.227513357
1.163098549
1.113504946
1.075146191
1.045766413
1.024210473
1.009408988
0.9999201031
0.9941751235
0.9908490676
0.9890144827
0.9880964608
0.987590257
0.986976237
0.9862766213
0.9859291127
0.9858124457
0.9858198084
0.9859028307
0.9860430646
0.9862382983
0.9864966911
0.9868353423
0.987282009
0.9878803379
0.9887011707
0.9898668767
0.9916088329
0.9944531165
904971.4022
328720.5227
106187.5406
19896.37091
5758.298009
2949.911513
1632.337011
947.3519253
558.8878472
336.3235336
205.1416079
127.1596503
80.36323972
52.83392764
35.57212029
24.14024735
16.78624712
12.05190161
8.879429237
6.71931131
5.221303801
4.161907406
3.398495101
2.838417993
2.420443828
2.103445486
1.859363161
1.668723205
1.517712454
1.39632074
1.297730113
1.218468551
1.156515422
1.108743588
1.071763735
1.043454353
1.022718365
1.008508596
0.9994129702
0.99390945
0.9907217771
0.9889614696
0.9880873059
0.9875729717
0.9869442484
0.9862627076
0.9859430278
0.9858409002
0.9858571935
0.9859472351
0.9860943402
0.9862971408
0.9865642064
0.98691283
0.987370819
0.9879817084
0.9888159329
0.9899946512
0.9917456542
0.9945807053
893654.8306
317354.4633
89416.71996
15610.33748
5272.14883
2801.287072
1548.965131
897.5722836
528.0267417
316.7519964
192.2139378
118.5112686
74.62264536
48.94910101
32.70970299
22.21219399
15.51554046
11.18940764
8.293148108
6.319229053
4.945496494
3.969785721
3.263252466
2.742179396
2.351196657
2.05306264
1.822311422
1.641216514
1.497159548
1.380954255
1.28631225
1.21006156
1.150368055
1.104278024
1.068578177
1.041269022
1.021303823
1.007652531
0.9989290722
0.9936546849
0.9905988023
0.9889093002
0.9880787756
0.9875532377
0.9869091365
0.9862513083
0.985957756
0.9858695215
0.98589457
0.9859916631
0.9861457679
0.9863563195
0.9866322876
0.9869911613
0.9874607997
0.9880846164
0.9889325907
0.9901245136
0.9918841691
0.9947080523
878009.7966
313242.3554
72850.88161
12714.6197
4950.518721
2666.347478
1469.663396
850.2110762
498.5896504
297.2331041
179.2188773
109.8715966
68.94547093
45.08201306
29.99563783
20.43439266
14.35653024
10.41155039
7.769703861
5.96325505
4.700480918
3.799122014
3.142942697
2.656328482
2.289182061
2.007726574
1.788791912
1.616188524
1.47834441
1.366795681
1.275723915
1.202222333
1.144609994
1.100077972
1.065570715
1.03919952
1.019961014
1.006837963
0.9984672311
0.9934104804
0.9904801668
0.9888580545
0.9880681433
0.9875312965
0.9868708477
0.9862423124
0.9859733206
0.9858983848
0.9859320328
0.9860362173
0.986197454
0.9864159414
0.9867010394
0.9870704325
0.9875520303
0.9881891106
0.9890511431
0.990256387
0.9920242149
0.9948350304
858116.445
298012.0871
56956.92417
10873.4046
4705.364099
2531.61569
1396.702187
804.2248928
469.154906
277.6849096
166.2424394
101.343643
63.42634553
41.34506094
27.49203385
18.82472041
13.31493878
9.718402008
7.305333475
5.647893196
4.483404102
3.64769551
3.035895919
2.579641708
2.233520035
1.966812368
1.758364634
1.593331773
1.461054938
1.353702013
1.265870801
1.194888845
1.139200182
1.096116679
1.062724689
1.037236119
1.018684661
1.006062281
0.9980263261
0.9931764792
0.9903658685
0.9888078863
0.988054731
0.9875074006
0.986829288
0.9862356122
0.9859897398
0.9859275578
0.9859696682
0.9860809913
0.9862494946
0.9864761026
0.9867705538
0.987150726
0.9876445745
0.988295223
0.989171571
0.9903901761
0.9921656333
0.9949615008
834196.7857
273810.6903
43033.63518
9717.065524
4486.547493
2406.494331
1324.637719
758.6824265
439.8717762
258.2438215
153.4337994
93.06970581
58.1727967
37.84700203
25.23364306
17.38770738
12.38606155
9.105376025
6.895212487
5.36930599
4.291341097
3.513338783
2.940540868
2.510998287
2.183419951
1.929766173
1.730643216
1.572377753
1.445106214
1.341548406
1.256670456
1.188006889
1.134102784
1.092370809
1.060025543
1.035370264
1.017470073
1.005323129
0.9976053197
0.9929523323
0.9902558871
0.9887589531
0.9880387665
0.9874818218
0.9867843058
0.9862311056
0.9860070278
0.9859571009
0.986007554
0.9861260693
0.9863019755
0.9865368875
0.9868409102
0.9872321101
0.9877384801
0.9884029683
0.9892938364
0.9905257691
0.9923082538
0.995087316
806730.9133
242159.2997
32160.57439
9050.928876
4287.37007
2284.402456
1254.175571
714.0097205
410.9928542
239.1107459
140.9927042
85.2086059
53.28242205
34.66408247
23.22805273
16.11792694
11.56616733
8.565788868
6.534067914
5.123570736
4.121436308
3.394008754
2.855434967
2.44938901
2.138179743
1.896100959
1.705290117
1.553092813
1.430337521
1.330226222
1.248051033
1.181529236
1.129286621
1.088820083
1.057460613
1.033594477
1.016313108
1.004618392
0.997203262
0.9927377062
0.9901501907
0.9887113906
0.9880204612
0.9874548612
0.9867420385
0.9862286966
0.9860251952
0.9859870674
0.98604576
0.9861715263
0.9863549725
0.9865983691
0.9869121749
0.9873146381
0.9878337784
0.9885123428
0.989417882
0.9906630365
0.9924518796
0.9952123226
775800.948
205409.2631
24890.61457
8597.833587
4092.155861
2166.372256
1185.736772
670.4540365
382.6990062
220.4862384
129.1277154
77.89622142
48.8207889
31.82729142
21.46414241
15.00335268
10.84671966
8.092167722
6.216490549
4.90683859
3.970982299
3.287818583
2.77927189
2.393912996
2.097179054
1.865389393
1.682010572
1.535273495
1.416609031
1.319640837
1.239949865
1.175414695
1.124724538
1.085446873
1.05501889
1.031902223
1.015210111
1.003946179
0.9968192859
0.9925322841
0.9900487391
0.9886653224
0.9880000082
0.9874265948
0.9867043814
0.9862282951
0.9860442492
0.9860175038
0.9860843471
0.9862174278
0.9864085505
0.9866606083
0.9869844004
0.9873983476
0.9879304834
0.9886233238
0.9895436295
0.9908018303
0.9925963
0.9953363606
741030.6363
167729.569
20613.9562
8188.17914
3896.293004
2053.572524
1119.908186
628.3459923
355.2427358
202.6423046
118.0586843
71.23670504
44.8210218
29.33501943
19.92334907
14.02979188
10.21765232
7.677208853
5.93738203
4.715577354
3.837546891
3.193101066
2.710911534
2.343790934
2.059884527
1.837265586
1.660552877
1.518746351
1.403801615
1.309711591
1.232313501
1.169628139
1.120393415
1.082236203
1.052691023
1.030287929
1.014157931
1.003304838
0.9964526206
0.9923357757
0.9899514912
0.9886208718
0.9879775934
0.9873970101
0.9866710445
0.9862298166
0.9860641935
0.9860484496
0.986123368
0.9862638294
0.9864627632
0.9867236535
0.9870576249
0.9874832604
0.9880285908
0.9887358685
0.9896709799
0.9909419831
0.9927412909
0.9954592637
702062.9384
134104.9097
17908.34256
7790.349717
3710.887182
1946.234167
1056.834272
587.80692
328.813859
185.8307477
107.9377428
65.2731349
41.26401615
27.16257552
18.58231395
13.18136356
9.668219084
7.313620163
5.691812015
4.546456107
3.718880846
3.108336802
2.649325891
2.298325389
2.025821317
1.811404937
1.640694279
1.503358143
1.391810103
1.300367248
1.225094699
1.164138536
1.116272876
1.079174918
1.050468803
1.028746681
1.013153767
1.002692878
0.9961025575
0.9921479032
0.9898584008
0.9885781699
0.9879534002
0.9873660733
0.9866417622
0.9862331812
0.9860850286
0.9860799379
0.9861628668
0.986310777
0.9865176535
0.9867875402
0.9871318721
0.9875693813
0.9881280778
0.9888499134
0.9897998121
0.9910833084
0.9928866139
0.9955808623
659321.1434
105047.4109
16254.73527
7430.083975
3536.568911
1844.970757
996.8212232
549.0507402
303.6921247
170.3095489
98.8576616
60.01095359
38.14827928
25.27803226
17.41788901
12.44285498
9.188367507
6.994734271
5.475347094
4.396520072
3.61301002
3.032202652
2.593624724
2.256914701
1.994580835
1.787528625
1.622243706
1.488977597
1.380544509
1.291546914
1.218253112
1.158919415
1.112345591
1.076251876
1.048345292
1.027274308
1.012195211
1.002109004
0.995768469
0.9919684127
0.9897694219
0.9885373679
0.9879276151
0.9873337147
0.9866162915
0.9862383131
0.9861067511
0.9861119941
0.9862028785
0.9863583059
0.9865732519
0.98685229
0.9872071496
0.9876566969
0.988228901
0.9889653725
0.989929982
0.9912255995
0.9930320161
0.9957009819
612886.3611
80895.17341
15167.45698
7109.056267
3373.836786
1750.322694
940.1573963
512.2945423
280.1782665
156.2600408
90.83619197
55.41777153
35.4436848
23.64719912
16.40773874
11.79995842
8.768843928
6.714523318
5.284037491
4.263167469
3.51821174
2.963551786
2.543040252
2.219041893
1.965813004
1.765398349
1.605038235
1.475493061
1.369928505
1.283199076
1.211754708
1.153948526
1.108597073
1.073457824
1.046314749
1.025867345
1.011280247
1.001552111
0.9954498122
0.9917970773
0.9896845099
0.9884986504
0.9879004363
0.9872998124
0.98659441
0.986245139
0.9861293525
0.9861446349
0.9862434268
0.9864064384
0.9866295739
0.9869179071
0.9872834449
0.9877451711
0.9883309915
0.9890821315
0.9900613162
0.9913686234
0.9931772251
0.9958194376
562389.6834
62047.65757
14482.98255
6826.935998
3223.305107
1662.714955
887.0958159
477.7572371
258.5451039
143.756896
83.83143621
51.43723735
33.10664117
22.23696267
15.53113343
11.23962073
8.401330385
6.467635408
5.114410933
4.144128445
3.432991433
2.901393112
2.49691073
2.184262209
1.939217053
1.744809605
1.588938232
1.462808994
1.359896893
1.275279819
1.205570526
1.14920697
1.10501506
1.070784968
1.04437234
1.024522852
1.010407131
1.001021229
0.995146099
0.9916336821
0.9896036116
0.9884622458
0.9878720826
0.9872641687
0.9865759108
0.9862535877
0.98615282
0.9861778698
0.9862845267
0.9864551861
0.9866866226
0.9869843819
0.9873607297
0.9878347495
0.9884342605
0.9892000546
0.9901936201
0.9915121294
0.9933219581
0.9959360423
506348.9785
49179.59079
14161.92306
6554.192784
3085.256125
1582.129827
837.6617551
445.56249
238.936926
132.7557994
77.75212141
47.99629204
31.08740384
21.01513963
14.76838871
10.74962294
8.078134305
6.24916967
4.963312261
4.037352372
3.356004456
2.844837567
2.454643766
2.152178118
1.914524514
1.725580132
1.573819492
1.450840631
1.350392026
1.267750458
1.199675146
1.144678219
1.101588897
1.068226585
1.042513907
1.02323828
1.009574331
1.000515489
0.9948568839
0.9914780204
0.9895266574
0.9884284418
0.9878428111
0.9872264845
0.9865606016
0.9862635891
0.9861771361
0.9862117008
0.9863261833
0.9865045493
0.9867443881
0.9870516889
0.9874389574
0.9879253577
0.9885385964
0.9893189812
0.9903266751
0.9916558471
0.9934659189
0.9960506098
443871.3993
40832.75939
14011.19443
6284.365264
2959.292998
1508.368689
791.8063765
415.8138921
221.3929303
123.1525267
72.4930903
45.02305998
29.34018465
19.9537918
14.10259382
10.31954909
7.79274176
6.054998731
4.828095799
3.94112553
3.286130089
2.793145826
2.415747764
2.122460415
1.891513615
1.70755982
1.559580094
1.439518729
1.341367061
1.260579751
1.19404817
1.140349092
1.098310155
1.065777403
1.04073619
1.022011602
1.008780599
1.000034166
0.9945817847
0.9913299031
0.9894535538
0.9883976052
0.9878129429
0.9871863258
0.986548302
0.9862750733
0.9862022778
0.9862461208
0.9863683907
0.986554515
0.9868028452
0.9871197856
0.987518062
0.9880168989
0.9886438634
0.9894387247
0.9904602384
0.991799486
0.993608798
0.9961629607
373461.2079
35579.47878
13930.51749
6044.187175
2846.212701
1441.657202
749.6393378
388.6453004
205.8710524
114.8137792
67.94848086
42.45087701
27.82420354
19.028595
13.519082
9.940394856
7.539537312
5.881572237
4.7064892
3.853977438
3.2224073
2.745684225
2.379801607
2.094827326
1.869994816
1.69062067
1.546133431
1.428784743
1.332782667
1.253741696
1.188672776
1.136208807
1.09517202
1.06343322
1.039036603
1.020841187
1.0080249
0.9995766435
0.9943204693
0.9911891543
0.9893841626
0.9883702031
0.9877829055
0.9871430776
0.9865388422
0.9862879697
0.9862282157
0.9862811135
0.9864111313
0.9866050567
0.9868619523
0.9871886104
0.9875979556
0.9881092522
0.9887498989
0.9895590704
0.9905940411
0.991942733
0.9937502718
0.9962729163
292381.1006
32339.26011
13862.21679
5830.256067
2744.830935
1381.339487
710.8326213
363.9362277
192.1715284
107.5418329
63.99894382
40.21171708
26.50031636
18.2167319
13.00427844
9.603916565
7.313425423
5.725691909
4.596457867
3.774598457
3.163984383
2.7018939
2.346435796
2.069033087
1.849803924
1.674652696
1.533405807
1.418589434
1.32460622
1.247215077
1.183535488
1.1322489
1.092169281
1.061190913
1.037413252
1.01972582
1.007306442
0.9991424349
0.9940726716
0.9910556238
0.9893182735
0.9883468289
0.9877532972
0.9870969763
0.9865320609
0.9863022037
0.9862549102
0.9863166481
0.9864543699
0.9866561267
0.986921644
0.987258074
0.9876785188
0.9882022612
0.9888565009
0.989679762
0.9907277742
0.992085237
0.993889988
0.9963802854
193901.9314
30575.92029
13773.69506
5644.262509
2655.958795
1327.611653
675.4071656
341.6566002
180.0306073
101.2027422
60.5571585
38.25417501
25.33808592
17.50038071
12.54752245
9.303612714
7.110373987
5.584820313
4.496384447
3.701946251
3.110183091
2.661329919
2.315356539
2.044882834
1.830811268
1.659569552
1.521339836
1.408894884
1.316812971
1.240984104
1.178626481
1.128463313
1.089298301
1.059048364
1.035864849
1.018664627
1.006624609
0.9987311437
0.9938381674
0.9909291822
0.989255547
0.988323541
0.9877248791
0.9870560974
0.9865278029
0.9863176992
0.9862823153
0.9863526846
0.9864980597
0.9867076639
0.9869818388
0.987328069
0.987759612
0.9882957474
0.9889634438
0.9898005203
0.9908611083
0.9922266291
0.9940275925
0.9964848848
62074.32555
29978.51736
13557.04646
5484.112318
2578.72041
1279.867437
641.6400754
320.9435574
169.2830048
95.63539435
57.53099706
36.52736877
24.30872144
16.86293151
12.1389897
9.033546985
6.926729609
5.456673383
4.404821628
3.63509324
3.060403148
2.623600773
2.28630703
2.022207513
1.812905346
1.645297769
1.50988731
1.399669734
1.309382837
1.235036261
1.173938165
1.124847494
1.08655645
1.057004104
1.034390495
1.017656958
1.005978908
0.9983424369
0.9936167658
0.9908097374
0.9891959514
0.9883002659
0.9876977798
0.9870201332
0.9865259181
0.9863343763
0.9863103772
0.9863891723
0.9865421408
0.9867595913
0.987042437
0.9873984669
0.9878410718
0.9883895062
0.9890704742
0.9899210384
0.9909936884
0.9923665209