/*--------------------------------*- C++ -*----------------------------------*\
  =========                 |
  \\      /  F ield         | OpenFOAM: The Open Source CFD Toolbox
   \\    /   O peration     | Website:  https://openfoam.org
    \\  /    A nd           | Version:  12
     \\/     M anipulation  |
\*---------------------------------------------------------------------------*/
FoamFile
{
    format      ascii;
    class       volScalarField;
    location    "850";
    object      rho;
}
// * * * * * * * * * * * * * * * * * * * * * * * * * * * * * * * * * * * * * //

dimensions      [1 -3 0 0 0 0 0];

internalField   nonuniform List<scalar> 
16200
(
0.9420279658
0.9420932432
0.9426584449
0.9439265806
0.9464149867
0.9514471338
0.9621131247
0.9821615573
0.9946542565
0.9963350342
0.9967722747
0.997394094
0.9981109152
0.9989996745
1.000054712
1.001329399
1.002846232
1.00465751
1.006806574
1.00935354
1.012359569
1.015896399
1.020039619
1.02486974
1.030466391
1.036902735
1.044234771
1.052486374
1.061628571
1.071555462
1.082064419
1.09285487
1.103558066
1.113794574
1.123237826
1.131658437
1.138937644
1.145055718
1.150068044
1.154079753
1.157223204
1.159640006
1.16146751
1.162829963
1.163833906
1.164566735
1.165097779
1.165480462
1.165755098
1.165951583
1.166091827
1.166191732
1.166262737
1.166313054
1.166348397
1.166373175
1.166389636
1.166402842
1.166404245
1.166412557
0.9326018115
0.9328004385
0.9335473113
0.9351140129
0.9381689917
0.9444784522
0.9578304343
0.9783208961
0.9865026476
0.9875573078
0.9880764916
0.9887764673
0.9895908968
0.9905958982
0.9917859081
0.9932190482
0.9949208039
0.9969483386
0.9993501378
1.002192577
1.005544034
1.009484097
1.014096697
1.019470397
1.025691717
1.032837309
1.040959537
1.050066036
1.060093042
1.070877994
1.082144937
1.09352116
1.104591784
1.114974284
1.12438044
1.132643293
1.139709125
1.145610223
1.150434477
1.154301053
1.157342899
1.159694802
1.161484678
1.162827844
1.1638237
1.164554638
1.165086773
1.165471675
1.165748677
1.165947239
1.166089128
1.166190246
1.166262106
1.166312968
1.16634873
1.166373581
1.166390231
1.166403176
1.166404371
1.166412022
0.9248791807
0.9252412568
0.9262218276
0.9281456854
0.9318729709
0.9397329185
0.9564941588
0.9746538339
0.9797077552
0.9803872103
0.9809737487
0.9817565186
0.982664159
0.9837813319
0.9851041871
0.986696084
0.9885870778
0.9908402725
0.9935107607
0.9966720509
1.000400413
1.004783504
1.009913671
1.015887157
1.02279558
1.030714167
1.039682134
1.049676179
1.060578809
1.072151999
1.084036553
1.095794836
1.106989933
1.117267282
1.126403081
1.134307514
1.140995865
1.146549691
1.151084175
1.154727193
1.15760786
1.159850447
1.161570356
1.162871262
1.163843128
1.164561432
1.165087567
1.165470105
1.165746571
1.165945411
1.166087847
1.166189528
1.166261858
1.166313065
1.166349101
1.16637403
1.166390823
1.166403599
1.166404754
1.166412605
0.9186888659
0.9192298423
0.9204896153
0.9228714977
0.9274818785
0.9372051158
0.9572206352
0.9713232067
0.9740624661
0.9746928491
0.9753656155
0.9762446245
0.9772653934
0.9785182734
0.9800020717
0.9817853173
0.983903074
0.9864242467
0.9894107152
0.9929433692
0.997107236
1.001999279
1.007721209
1.014376038
1.022056018
1.030825892
1.040697777
1.051598648
1.06333587
1.075579469
1.087886411
1.099774344
1.110818091
1.120724177
1.129354963
1.136705835
1.142859287
1.14793999
1.152083802
1.155422088
1.158076444
1.160158022
1.161767633
1.162995433
1.163920196
1.164608867
1.16511671
1.165488115
1.165757865
1.165952662
1.166092654
1.16619284
1.166264234
1.166314845
1.166350498
1.166375123
1.166391726
1.166404204
1.166405117
1.166412811
0.9142114552
0.9149471139
0.9165189911
0.9194490174
0.9252301291
0.9375148185
0.9590465857
0.9684434863
0.9699790318
0.9706683709
0.9714370937
0.9724286802
0.9735807335
0.9749890089
0.9766558126
0.9786548411
0.9810272431
0.983848771
0.9871899548
0.9911409696
0.995797222
1.001265116
1.007653308
1.01506585
1.023586489
1.033256827
1.044044776
1.055806201
1.068253501
1.080958655
1.093411901
1.105122953
1.115719408
1.124998742
1.132921889
1.139567336
1.145075014
1.149601354
1.153293394
1.156279468
1.158669718
1.160559983
1.162035185
1.163171021
1.164034251
1.164682489
1.165164127
1.165518707
1.165777711
1.165965653
1.166101263
1.166198632
1.166268198
1.16631762
1.166352491
1.16637658
1.16639282
1.16640494
1.166405574
1.166413211
0.9115724919
0.9125098968
0.9144129315
0.9179531612
0.9251582448
0.9409332219
0.9608439425
0.9667312868
0.9676342524
0.9684271668
0.9692951544
0.9704057159
0.9716987246
0.9732751661
0.9751426257
0.9773809
0.9800389706
0.983200558
0.9869457224
0.9913736351
0.9965884141
1.00270251
1.009826396
1.018058188
1.027463424
1.038046142
1.049709488
1.062215488
1.075168813
1.088053835
1.100329166
1.111542421
1.121411789
1.129844658
1.136901183
1.142732378
1.147521395
1.151443581
1.154647765
1.157253452
1.159356293
1.161035498
1.162359621
1.163389713
1.164180322
1.164779453
1.165228274
1.165561103
1.165805765
1.165984272
1.166113672
1.16620695
1.166273811
1.166321447
1.166355132
1.166378432
1.166394126
1.166405806
1.166406084
1.166413624
0.9106729258
0.9118350672
0.914114651
0.9184040238
0.9273827374
0.9468730245
0.9631354167
0.9666058665
0.9670034573
0.9678789905
0.9688633552
0.9701131935
0.9715723811
0.9733469062
0.975450701
0.9779695087
0.9809603357
0.9845142112
0.9887198043
0.9936837749
0.9995170888
1.00633569
1.014247717
1.023337825
1.033640148
1.045100897
1.057533924
1.07058924
1.083766927
1.096494946
1.108249065
1.118660518
1.12756501
1.134984895
1.141069287
1.146025115
1.150062481
1.153362971
1.156068845
1.158286113
1.160093876
1.161554216
1.162719536
1.163636655
1.164348253
1.164892903
1.165304574
1.16561228
1.165840049
1.166007233
1.16612906
1.166217274
1.166280749
1.16632613
1.166358309
1.166380613
1.16639562
1.166406789
1.166406663
1.166414119
0.9114095029
0.9128297191
0.9155508018
0.9208444405
0.9323128073
0.9541361723
0.9658006887
0.9672699391
0.9679860371
0.9689939429
0.9701180408
0.9715327538
0.9731869155
0.9751908365
0.9775655193
0.980402412
0.9837668884
0.9877572668
0.9924709475
0.9980217762
1.004526299
1.012100444
1.020842522
1.030810566
1.041987299
1.054236064
1.067259803
1.080592797
1.093655438
1.105867807
1.116775017
1.126127527
1.133889764
1.140190664
1.14525026
1.149312205
1.15259783
1.155284086
1.157500206
1.159335562
1.160851738
1.162093927
1.163099147
1.163900826
1.16453048
1.165017734
1.165389636
1.165670018
1.165879129
1.166033629
1.166146858
1.166229257
1.166288808
1.16633155
1.166361958
1.166383089
1.166397288
1.16640788
1.166407304
1.166414675
0.9137074344
0.9153950648
0.9186367866
0.925206843
0.9401336964
0.9616619381
0.9692095453
0.9698070951
0.9705892611
0.9717223239
0.9729967123
0.9745893127
0.9764556655
0.9787101522
0.9813820387
0.9845688252
0.9883450654
0.9928167221
0.9980897463
1.004283463
1.011515546
1.019893568
1.029492961
1.040326806
1.052303178
1.065179557
1.078538089
1.09181443
1.104394272
1.115745989
1.125528438
1.133630425
1.140140402
1.145275442
1.149304669
1.152489641
1.155049425
1.157147979
1.158897128
1.160367936
1.161604436
1.162635755
1.163484665
1.164172324
1.164720012
1.165149091
1.165480142
1.165732082
1.165921525
1.166062492
1.166166448
1.166242511
1.166297748
1.166337567
1.166366001
1.166385817
1.166399112
1.166409074
1.166408007
1.166415303
0.9174183135
0.9194087256
0.9232972569
0.9314154608
0.9503004251
0.9688662549
0.9727004152
0.9736399674
0.9745734403
0.9758554813
0.9773050644
0.9791029224
0.9812128865
0.9837531752
0.9867623846
0.9903444663
0.9945836135
0.9995928634
1.005484718
1.012379623
1.020388879
1.029600383
1.040050696
1.05168713
1.064320542
1.077587995
1.090958923
1.103808588
1.115545075
1.125737097
1.134185513
1.140918517
1.146131185
1.15010481
1.153135647
1.15548684
1.157364816
1.158914879
1.160229031
1.161359604
1.162333785
1.163165865
1.163865731
1.16444353
1.164911351
1.165283078
1.165573378
1.165796618
1.165965989
1.166092999
1.166187294
1.166256698
1.166307362
1.166344058
1.166370369
1.16638876
1.166401078
1.166410364
1.166408771
1.166416003
0.9223939086
0.9247437785
0.9295146866
0.9398261904
0.9618190621
0.9762379241
0.9779141443
0.9788164134
0.97989608
0.9813405318
0.9829847302
0.9850110226
0.9873935576
0.9902546433
0.9936428987
0.9976680102
1.002422362
1.008023216
1.014585269
1.022223994
1.031035597
1.041075535
1.052322996
1.064636751
1.077711915
1.091065273
1.104083009
1.116134312
1.1267075
1.13550953
1.142491967
1.147807938
1.151734075
1.154590888
1.156682328
1.15826041
1.159511815
1.160559986
1.16147629
1.162294866
1.163027261
1.16367439
1.164234707
1.164708654
1.165100199
1.165416571
1.16566712
1.165862068
1.166011454
1.166124432
1.166208926
1.166271513
1.16631746
1.166350908
1.166374996
1.166391883
1.16640317
1.166411742
1.166409595
1.166416777
0.9285650453
0.9313252667
0.9372020062
0.9506685943
0.9735877405
0.9830204612
0.984132421
0.9851908257
0.9864372684
0.9880685167
0.98993744
0.9922266811
0.9949210649
0.998145806
1.001958672
1.006473434
1.01178922
1.018025201
1.02529409
1.033699437
1.04331098
1.054135177
1.066072421
1.078871823
1.092105084
1.105189106
1.117476185
1.128390002
1.137546129
1.144807776
1.15026773
1.154179249
1.156872908
1.158685675
1.159913748
1.16078915
1.161474672
1.162070684
1.16262831
1.163164677
1.163677192
1.164154947
1.164586421
1.164963617
1.165283423
1.165547223
1.165759651
1.165927206
1.166057059
1.1661562
1.166230946
1.166286698
1.166327877
1.166358018
1.166379825
1.166395154
1.166405374
1.166413202
1.166410479
1.166417629
0.9358141725
0.9391027681
0.9463577451
0.9636233992
0.9844412494
0.9905411316
0.9914799014
0.9927368567
0.9941695666
0.9960121049
0.9981316244
1.000710287
1.003744202
1.007361468
1.011629976
1.016668429
1.022581627
1.029487402
1.037489332
1.046667404
1.057047829
1.068566955
1.081025227
1.094050535
1.107102234
1.119538923
1.130740013
1.140238156
1.147804039
1.15345473
1.157401431
1.159968155
1.161513378
1.162371972
1.162821346
1.163068177
1.163249634
1.163443264
1.163681147
1.16396496
1.164279595
1.164603865
1.164917658
1.165205727
1.165458855
1.165673347
1.165849694
1.165991091
1.16610213
1.16618783
1.166253029
1.166302036
1.166338473
1.166365299
1.166384803
1.166398546
1.166407676
1.166414735
1.166411422
1.166418561
0.944082729
0.9481128459
0.9573026686
0.9781011643
0.99598897
0.9990442323
0.9999203387
1.001370206
1.002993015
1.005056408
1.007440019
1.010327209
1.013727049
1.017770929
1.02253622
1.028143498
1.034697879
1.042307757
1.051057203
1.060988216
1.07206501
1.084132212
1.09687467
1.109804019
1.122300966
1.133722853
1.143535883
1.151419395
1.157305168
1.161345338
1.163839647
1.165153892
1.165652572
1.165654826
1.165412337
1.165103962
1.164841281
1.164680256
1.164635595
1.164695253
1.164833234
1.165019534
1.165226729
1.165433401
1.165625119
1.165793807
1.165936352
1.166053037
1.166146156
1.166218954
1.166274918
1.166317351
1.166349132
1.166372678
1.166389886
1.166402033
1.166410065
1.166416336
1.166412425
1.166419575
0.9531000153
0.9581157708
0.9699737507
0.9928488505
1.005999312
1.008198901
1.009188614
1.010847419
1.01269182
1.015015756
1.017709503
1.02095717
1.024779262
1.029307747
1.034625596
1.040850514
1.048082082
1.056411916
1.065893151
1.076514167
1.088157584
1.100558151
1.113282255
1.125750433
1.137317744
1.147401476
1.155600275
1.161755783
1.165947797
1.168434758
1.169573807
1.169747314
1.169309219
1.168554001
1.167704094
1.166910187
1.166259503
1.165788225
1.165495581
1.16535755
1.165338794
1.165401832
1.165513073
1.165645899
1.165781451
1.165907907
1.166019033
1.166112567
1.166188771
1.166249296
1.166296413
1.166332501
1.166359756
1.166380092
1.166395034
1.166405593
1.166412529
1.166417997
1.166413492
1.166420675
0.9629069642
0.9693088574
0.9842967202
1.006776033
1.016258784
1.018121449
1.019332613
1.021230067
1.023333733
1.025958212
1.029003824
1.032653747
1.036938225
1.041988399
1.047890869
1.054757731
1.062677494
1.071714625
1.081874673
1.093070719
1.105083438
1.117533338
1.129886207
1.141515667
1.151812273
1.160305362
1.16675023
1.171145311
1.173692529
1.174724396
1.174627252
1.173780284
1.172515572
1.171098007
1.169719813
1.168504619
1.16751722
1.166776105
1.166266941
1.165955403
1.165798227
1.165751653
1.165776935
1.165843096
1.165927551
1.166015287
1.166097389
1.166169376
1.16622972
1.166278658
1.166317363
1.166347377
1.16637027
1.166387489
1.166400215
1.166409207
1.166415057
1.166419714
1.166414635
1.166421861
0.9735844588
0.981792683
0.9999186136
1.021226649
1.027334798
1.028989098
1.030439649
1.032583913
1.034963874
1.037906814
1.04132454
1.045399487
1.05017178
1.055771234
1.062284762
1.069811533
1.078415913
1.088116999
1.098852023
1.110441108
1.122555942
1.13471446
1.146321531
1.156759108
1.165508324
1.172243813
1.176879872
1.179550518
1.180547997
1.180248264
1.179043958
1.177297081
1.175311165
1.173319652
1.171485363
1.169906847
1.168628745
1.167653989
1.166956526
1.166493259
1.166214263
1.166070549
1.166019095
1.1660253
1.166063453
1.166115844
1.166171255
1.166223288
1.166268844
1.166306904
1.16633766
1.166361897
1.166380613
1.166394826
1.166405399
1.166412855
1.16641764
1.166421484
1.166415867
1.166423138
0.9853141581
0.9956225202
1.016282128
1.03543884
1.039039433
1.040707438
1.042405425
1.044811002
1.047492234
1.050783557
1.054609239
1.059149955
1.064452941
1.070641074
1.077792253
1.085979785
1.095227454
1.105492223
1.116628356
1.128356162
1.140246924
1.151746367
1.162247565
1.171197296
1.178205525
1.183103662
1.185949971
1.186984068
1.186556565
1.185060993
1.182879427
1.180347889
1.177738293
1.175252925
1.173027112
1.171136742
1.169608661
1.168432295
1.167571569
1.166975977
1.166590044
1.166360459
1.166240678
1.166193104
1.166189424
1.166209651
1.166240607
1.166274232
1.166306054
1.166333949
1.16635723
1.166375999
1.166390736
1.166402068
1.166410563
1.166416525
1.166420269
1.166423307
1.166417196
1.166424507
0.9983733576
1.01069194
1.032888333
1.047976128
1.051401988
1.053240649
1.055214846
1.057919531
1.060948797
1.064637479
1.068920879
1.073973019
1.079842146
1.086635508
1.094411301
1.103205432
1.112989565
1.123647855
1.134943533
1.146499975
1.157810335
1.168290642
1.17737474
1.184619183
1.189780971
1.192840554
1.193973995
1.193494153
1.191781807
1.189228287
1.186193947
1.182984232
1.179838972
1.176930967
1.174370539
1.172213472
1.170471095
1.169121222
1.168119261
1.167408502
1.166928869
1.166623509
1.166442998
1.166347279
1.166305883
1.166296909
1.166305514
1.166322206
1.166341318
1.166359746
1.166376023
1.16638964
1.166400605
1.166409188
1.166415687
1.166420201
1.166422937
1.166425185
1.166418608
1.166425969
1.01302227
1.027067819
1.04930613
1.062188205
1.064644141
1.066763521
1.069046385
1.072079584
1.075488262
1.079600999
1.084361795
1.089932487
1.096357014
1.103720108
1.112052057
1.121342271
1.131499259
1.142324701
1.153489865
1.164535237
1.174910982
1.184052671
1.191481433
1.196889934
1.200181978
1.201465417
1.201003121
1.199151252
1.196298334
1.192819797
1.189047881
1.18525596
1.181653027
1.178384838
1.175539411
1.173154922
1.171229291
1.169730407
1.168606488
1.167795647
1.167234023
1.166861879
1.166627456
1.166488691
1.166413338
1.166377899
1.166366114
1.166367264
1.166374639
1.166384276
1.166394012
1.166402789
1.166410191
1.166416163
1.166420751
1.166423871
1.166425637
1.166427117
1.16642008
1.166427524
1.029168452
1.044805292
1.066303383
1.076833535
1.078947001
1.081381221
1.083971087
1.087336713
1.091127266
1.095659408
1.100884696
1.106948023
1.11388457
1.121749795
1.130536634
1.140176319
1.15050215
1.161228017
1.171942366
1.182133187
1.191251971
1.198800938
1.20442081
1.207946669
1.209414328
1.209029948
1.207112793
1.204037592
1.200184406
1.195904336
1.191498733
1.187209509
1.183217067
1.179642891
1.176555375
1.173977409
1.171895389
1.170268757
1.169039675
1.168141962
1.167508662
1.167077708
1.166795464
1.166618244
1.166512348
1.166452948
1.166422589
1.166409496
1.166406054
1.166407544
1.166411186
1.16641543
1.166419476
1.166422975
1.166425742
1.166427524
1.166428363
1.166429097
1.166421613
1.166429171
1.046468556
1.06365213
1.084434438
1.092248731
1.094198739
1.096948697
1.099847966
1.103546629
1.107717279
1.112659673
1.118332828
1.124859093
1.132257911
1.140545125
1.149662837
1.159471399
1.169722348
1.180048809
1.189981509
1.198996921
1.206593505
1.212375802
1.216117827
1.217787467
1.21752747
1.215612266
1.212391211
1.208239012
1.203516702
1.198546761
1.193599396
1.188886953
1.18456398
1.180730501
1.177437802
1.174695573
1.172480334
1.170744352
1.169424707
1.168451663
1.16775575
1.167273037
1.166948394
1.166736838
1.166603485
1.166522408
1.166475143
1.166449013
1.166435616
1.166429568
1.166427543
1.166427551
1.166428446
1.166429609
1.166430647
1.166431151
1.166431109
1.166431117
1.166423195
1.166430909
1.064781698
1.083090408
1.101625884
1.108277022
1.110251115
1.113306325
1.116519229
1.120556949
1.12511582
1.130469661
1.136581582
1.143541333
1.151340417
1.159942199
1.169225918
1.178976053
1.188868561
1.198477534
1.207312271
1.214880387
1.220764463
1.224690099
1.226561121
1.226457356
1.224600122
1.221304974
1.216930772
1.211839499
1.20636717
1.200806325
1.19539739
1.190325715
1.185722868
1.181670085
1.178203821
1.175322396
1.172993879
1.171164443
1.169766906
1.168728599
1.167978023
1.167449774
1.167087551
1.166845344
1.166687317
1.166586638
1.166523995
1.166485941
1.166463391
1.166450379
1.166443093
1.166439149
1.16643709
1.166436055
1.166435453
1.166434743
1.16643387
1.166433169
1.166424795
1.166432743
1.083900732
1.102962039
1.119076156
1.124826539
1.126979018
1.130360813
1.133921344
1.138324549
1.143292393
1.149059549
1.15558612
1.162918922
1.17101047
1.17976427
1.188993401
1.19841244
1.207639775
1.216221456
1.223684092
1.229602511
1.233665658
1.235722095
1.235789516
1.234033768
1.2307277
1.22620593
1.22082212
1.214917772
1.208801306
1.20273597
1.196934678
1.191558629
1.186719188
1.18248125
1.178868445
1.175869302
1.173444649
1.171535481
1.170071039
1.168976245
1.168177977
1.167609681
1.167214152
1.166944589
1.166764391
1.166645989
1.166569365
1.16652041
1.166489452
1.166470012
1.166457849
1.166450225
1.166445403
1.166442303
1.166440151
1.166438292
1.166436638
1.166435237
1.166426377
1.166434676
1.103492764
1.122175286
1.137176057
1.142121203
1.144558931
1.148268391
1.152191697
1.156954606
1.162309045
1.16844
1.175297401
1.182879586
1.191093281
1.19978016
1.208690783
1.217483811
1.225745417
1.233027523
1.238908118
1.24305319
1.245264824
1.245503262
1.243877494
1.240613334
1.236012294
1.230411638
1.224150311
1.217545376
1.210877411
1.2043822
1.19824784
1.192614203
1.187575025
1.183181027
1.179444748
1.176346276
1.173840219
1.171863163
1.170341346
1.169197716
1.168357867
1.167754362
1.167329321
1.167035343
1.166835224
1.166700802
1.166611467
1.166552554
1.166513877
1.166488509
1.166471828
1.166460782
1.166453381
1.166448344
1.166444732
1.166441791
1.166439407
1.1664373
1.166427948
1.1664367
1.124134409
1.142563729
1.15597222
1.160381634
1.163130379
1.167123284
1.171373959
1.176440009
1.18210465
1.188498752
1.195553468
1.203214436
1.211338324
1.219707307
1.228019731
1.235899374
1.242929611
1.248699788
1.25286385
1.255189168
1.255584646
1.254103256
1.250921058
1.246300886
1.240555243
1.234012892
1.226992645
1.21978587
1.212646523
1.205785367
1.199368462
1.193517009
1.18830942
1.183784127
1.179944063
1.176762009
1.174187217
1.172152502
1.170581581
1.169395789
1.168519715
1.167885272
1.167434086
1.167118317
1.1669003
1.166751396
1.166650511
1.166582501
1.166536741
1.166505912
1.166485052
1.166470827
1.166461023
1.166454175
1.166449188
1.166445233
1.16644217
1.166439339
1.166429618
1.166438791
1.145648615
1.164310014
1.175457136
1.179528806
1.182567906
1.186788723
1.191312042
1.196610022
1.202488755
1.209022178
1.216114932
1.223657903
1.231458494
1.239248653
1.246692192
1.253403811
1.258992819
1.263110257
1.265498742
1.266024934
1.264689468
1.261616541
1.257026865
1.251201924
1.24445269
1.237092607
1.229417958
1.221694924
1.214152886
1.206980238
1.200323681
1.194288154
1.188938755
1.184303243
1.180376199
1.17712406
1.174491432
1.1724079
1.170795057
1.169572929
1.168665334
1.16800372
1.167529378
1.167194164
1.166960066
1.166798074
1.166686692
1.166610377
1.166558123
1.166522264
1.166497541
1.166480369
1.166468329
1.166459788
1.166453512
1.166448613
1.166444916
1.166441347
1.166431404
1.166440926
1.167746994
1.186710852
1.195444713
1.199362494
1.202673887
1.207080649
1.211816093
1.217263139
1.223242184
1.229768727
1.236717231
1.243926822
1.251162704
1.258122084
1.264456324
1.269796837
1.273801941
1.27619848
1.276819103
1.275618747
1.272670888
1.268150179
1.262303379
1.255417082
1.247792628
1.239724609
1.231486429
1.223320635
1.215434451
1.207996531
1.201136675
1.194945678
1.189477062
1.184749283
1.180749626
1.177438979
1.174757908
1.172633211
1.170984692
1.16973132
1.168796337
1.16811088
1.167616041
1.167263477
1.167014934
1.166841114
1.166720197
1.166636302
1.166578094
1.166537609
1.166509319
1.166489416
1.166475299
1.16646518
1.166457698
1.166451926
1.166447636
1.166443318
1.166433311
1.166443092
1.190420861
1.208861876
1.215943325
1.21979512
1.223324056
1.227847781
1.232704499
1.23818785
1.244126022
1.25047593
1.257080732
1.263734945
1.270173692
1.276078607
1.281111031
1.284940408
1.2872885
1.287961799
1.286875631
1.284057434
1.279634475
1.273813967
1.266854516
1.259038643
1.250653424
1.241973363
1.233249931
1.224704134
1.216523536
1.208859514
1.201827159
1.195504963
1.189936346
1.185131616
1.181071645
1.177712443
1.174991036
1.172831809
1.171153054
1.169872895
1.168914159
1.168207806
1.167694832
1.167326795
1.16706528
1.166880775
1.166751198
1.166660388
1.166596727
1.166551988
1.166520409
1.16649798
1.166481936
1.166470348
1.16646174
1.166455167
1.166450318
1.16644525
1.166435352
1.166445262
1.213560058
1.231096901
1.236826472
1.240639492
1.244316956
1.248877368
1.253752429
1.259143669
1.264883085
1.270873321
1.27693035
1.282816199
1.288251801
1.292922843
1.296519485
1.298763222
1.299444641
1.298445525
1.295751367
1.291445166
1.285691158
1.27871484
1.270776678
1.26214947
1.253103907
1.243894662
1.234752942
1.225880501
1.217447641
1.209590689
1.202411942
1.195979159
1.190326907
1.185458313
1.181348576
1.177949388
1.175194651
1.173006651
1.171302404
1.169999363
1.169020078
1.168295438
1.167766437
1.167384609
1.167111449
1.166917294
1.166779857
1.166682741
1.166614089
1.166565442
1.166530832
1.166506069
1.166488242
1.166475289
1.166465634
1.166458331
1.16645295
1.166447142
1.166437528
1.166447414
1.236980149
1.253304371
1.257965147
1.261745679
1.26547905
1.269968918
1.274733608
1.279883067
1.285250961
1.290694127
1.296009265
1.300939927
1.305208522
1.308521203
1.310609731
1.311253925
1.310311158
1.307728999
1.303548724
1.297893277
1.290950257
1.282952863
1.274156975
1.26482268
1.255203832
1.245536438
1.236033429
1.226879587
1.218230151
1.210208363
1.202905368
1.196379527
1.190657601
1.185736344
1.181585902
1.178154113
1.175372109
1.173160339
1.171434741
1.170112244
1.169115234
1.168374622
1.167831473
1.167437362
1.167153755
1.16695089
1.166806322
1.166703461
1.166630243
1.166578011
1.166540612
1.166513697
1.166494221
1.166480001
1.166469377
1.166461414
1.16645552
1.166448999
1.166439838
1.166449533
1.260495074
1.275371903
1.279168413
1.282886307
1.28657529
1.290872345
1.295383417
1.300135431
1.304963053
1.309687355
1.314095203
1.31792535
1.320915022
1.322802592
1.323367947
1.322449038
1.319963098
1.315911713
1.310378081
1.303512073
1.295514294
1.286618487
1.277072173
1.26712159
1.257004342
1.246939413
1.237123526
1.227726626
1.218890852
1.210728061
1.203319647
1.196715694
1.190936034
1.185971724
1.181788375
1.178330362
1.175526344
1.173295158
1.171551827
1.170212882
1.169200643
1.168446113
1.167890494
1.167485457
1.167192485
1.166981765
1.166830732
1.16672264
1.166645252
1.166589733
1.16654977
1.166520873
1.166499877
1.166484482
1.166472967
1.166464409
1.166458016
1.166450829
1.166442274
1.166451595
1.283936651
1.297150361
1.300214669
1.303786849
1.307314798
1.311298279
1.315418852
1.319630509
1.323771415
1.327636473
1.331012609
1.333646178
1.335299185
1.335748915
1.334824408
1.332417029
1.328494492
1.323100554
1.316348361
1.308404622
1.299475537
1.289791038
1.279588404
1.269100086
1.258548636
1.248137849
1.238050238
1.228442847
1.219446435
1.211162933
1.203665169
1.196995896
1.191168747
1.186169656
1.181960126
1.178481407
1.175659934
1.173413122
1.171655223
1.170302477
1.169277211
1.168510591
1.167944004
1.167529259
1.167227903
1.167010105
1.166853217
1.166740368
1.166659172
1.166600645
1.166558329
1.16652761
1.166505213
1.166488732
1.166476402
1.166467313
1.166460425
1.166452638
1.166444824
1.166453571
1.306991343
1.318291047
1.32083141
1.324149848
1.327415499
1.33097973
1.334592441
1.338144715
1.34148217
1.344385682
1.346650614
1.34804071
1.348348644
1.347392553
1.34504761
1.341251397
1.336012273
1.329405599
1.321564895
1.312666356
1.302916951
1.29254037
1.281763069
1.270804495
1.259873653
1.249160977
1.238836604
1.2290464
1.21991122
1.211524313
1.203950938
1.197227305
1.191361469
1.186334713
1.182104806
1.17861015
1.175775174
1.173516034
1.171746332
1.170382106
1.169345761
1.168568675
1.16799246
1.167569105
1.167260251
1.167036082
1.166873898
1.166756727
1.16667206
1.166610782
1.166566311
1.16653392
1.166510235
1.166492751
1.166479682
1.166470117
1.166462734
1.166454438
1.166447465
1.166455426
1.329197313
1.338577178
1.340758747
1.343738327
1.346650219
1.349699572
1.352703407
1.355502439
1.357953624
1.359833902
1.360953027
1.361097955
1.360093912
1.357798209
1.354126771
1.349055467
1.342624265
1.334931457
1.32612375
1.316381802
1.305910482
1.294926164
1.283644709
1.272273746
1.261010338
1.250033263
1.239501941
1.229552547
1.220297305
1.211821828
1.204184645
1.197416091
1.191519157
1.186470882
1.182225612
1.178719146
1.175874095
1.173605496
1.171826407
1.170452739
1.169407036
1.168620926
1.168036284
1.167605305
1.167289755
1.167059859
1.166892889
1.166771796
1.166683969
1.166620181
1.166573737
1.166539816
1.166514948
1.166496542
1.166482808
1.166472815
1.166464936
1.16645624
1.166450162
1.166457157
1.350472805
1.357944747
1.359803648
1.362342538
1.364809568
1.367265062
1.369585467
1.371571227
1.373092352
1.373929443
1.373909968
1.372846552
1.370595862
1.367050584
1.362161156
1.355934232
1.34843379
1.339774372
1.330110785
1.319624989
1.308518265
1.29699948
1.285274637
1.273540933
1.261985018
1.25077559
1.240062811
1.229974457
1.220615196
1.212063894
1.204373058
1.197567711
1.191646219
1.186581721
1.18232541
1.178810695
1.17595853
1.173682957
1.171896583
1.170515261
1.169461714
1.16866786
1.168075863
1.167638147
1.167316626
1.167081589
1.166910299
1.166785653
1.166694953
1.166628875
1.166580631
1.166545311
1.166519358
1.166500107
1.166485782
1.166475397
1.166467027
1.166458057
1.166452868
1.166458801
1.370351226
1.376103287
1.377687419
1.379744144
1.381716907
1.383534456
1.38513092
1.386279408
1.386864114
1.386674968
1.385558018
1.383351482
1.379940736
1.375249191
1.369255763
1.36199143
1.35353819
1.344021949
1.333602224
1.322460472
1.310793788
1.298803896
1.286687947
1.274634127
1.262820033
1.251405727
1.240533371
1.230323445
1.220873978
1.212257839
1.204522114
1.197686985
1.19174657
1.186670408
1.182406772
1.178886867
1.176030135
1.173749733
1.171957897
1.170570476
1.169510416
1.168709951
1.168111554
1.167667897
1.167341061
1.167101414
1.166926231
1.166798369
1.166705061
1.1666369
1.166587015
1.16655042
1.166523473
1.166503452
1.166488605
1.166477856
1.166469007
1.166459897
1.166455529
1.166460378
1.388808312
1.393019607
1.394293279
1.395816736
1.397254327
1.39841404
1.399277546
1.399599528
1.399275649
1.398108073
1.395960685
1.392695889
1.388224401
1.382495757
1.375512041
1.367323343
1.358025182
1.347751446
1.336664264
1.324943719
1.312782701
1.30037649
1.287914516
1.275577258
1.26353451
1.251938974
1.240925896
1.230609401
1.221081656
1.212410172
1.204637118
1.197778246
1.191823751
1.186739828
1.182472041
1.178949555
1.176090429
1.173807034
1.172011304
1.170619134
1.169553723
1.168747642
1.168143694
1.167694808
1.167363247
1.167119473
1.166940786
1.166810017
1.166714344
1.16664429
1.166592913
1.166555156
1.1665273
1.166506581
1.166491278
1.166480182
1.166470884
1.166461752
1.166458074
1.166461915
1.405485342
1.408442915
1.409421207
1.410422551
1.41133273
1.411857397
1.412014678
1.411551365
1.410372962
1.408296342
1.405201976
1.400974595
1.395546787
1.388890033
1.381025198
1.372017429
1.361972542
1.351030172
1.339353873
1.327122042
1.314523773
1.301748737
1.288979743
1.27639071
1.264144841
1.252388542
1.241251075
1.230841014
1.221245328
1.212526711
1.204722854
1.197845432
1.191880998
1.186792636
1.182523383
1.179000516
1.176140827
1.17385599
1.172057699
1.170661936
1.169592181
1.168781356
1.168172606
1.167719124
1.167383366
1.1671359
1.16695406
1.166820667
1.166722852
1.16665108
1.166598348
1.166559535
1.166530849
1.166509502
1.166493803
1.166482373
1.166472663
1.166463596
1.166460466
1.16646345
1.420325761
1.422326767
1.423025086
1.423539949
1.423948711
1.423881079
1.423378946
1.422190127
1.420227825
1.417324595
1.413375662
1.408285692
1.402005889
1.394526058
1.385882351
1.376151944
1.365448734
1.353916718
1.341720255
1.329036132
1.316050333
1.302947761
1.289905588
1.277092208
1.264665397
1.252766114
1.241518445
1.231026107
1.221371437
1.21261278
1.204783729
1.197892189
1.191921321
1.186831305
1.182562821
1.179041395
1.176182658
1.173897666
1.172097928
1.17069955
1.169626311
1.168811497
1.168198597
1.167741078
1.167401595
1.167150825
1.166966152
1.166830389
1.166730636
1.166657307
1.166603346
1.166563574
1.166534131
1.166512224
1.166496179
1.166484424
1.166474345
1.166465406
1.166462747
1.166465023
1.433364946
1.434701987
1.43513289
1.435207448
1.43514904
1.434541477
1.433438527
1.431594883
1.428928499
1.425287243
1.420579041
1.414725807
1.407694514
1.399490248
1.390161743
1.379795976
1.368513476
1.356461764
1.343805756
1.330720994
1.317391118
1.303997019
1.290711122
1.277697331
1.265108922
1.253082152
1.241736637
1.23117183
1.221465925
1.21267333
1.204823867
1.197921946
1.191947563
1.186858181
1.18259228
1.179073758
1.176217188
1.173933079
1.172132802
1.170732616
1.169656613
1.168838451
1.168221966