/*--------------------------------*- C++ -*----------------------------------*\
  =========                 |
  \\      /  F ield         | OpenFOAM: The Open Source CFD Toolbox
   \\    /   O peration     | Website:  https://openfoam.org
    \\  /    A nd           | Version:  12
     \\/     M anipulation  |
\*---------------------------------------------------------------------------*/
FoamFile
{
    format      ascii;
    class       volScalarField;
    location    "850";
    object      T;
}
// * * * * * * * * * * * * * * * * * * * * * * * * * * * * * * * * * * * * * //

dimensions      [0 0 0 1 0 0 0];

internalField   nonuniform List<scalar> 
16200
(
294.5492591
294.5578954
294.4168254
294.064614
293.3440352
291.854304
288.6890141
282.8874104
279.4987882
279.2216166
279.3241144
279.4174754
279.533387
279.6612253
279.8112836
279.983029
280.1829391
280.4144951
280.6836923
280.9962723
281.359089
281.7794595
282.2652781
282.8246737
283.4655619
284.1948961
285.0175047
285.9344543
286.9409227
288.0238901
289.1604526
290.3181058
291.4580716
292.5412375
293.5345544
294.4154121
295.1728781
295.8063524
296.3229679
296.7347998
297.0564483
297.3031315
297.4893481
297.6280372
297.7301871
297.804751
297.8588016
297.897777
297.9257768
297.9458396
297.9601924
297.970454
297.9777957
297.9830723
297.9868975
297.98975
297.9918693
297.9935694
297.9949675
297.9971122
293.7499232
293.7211698
293.5228978
293.0774265
292.1797267
290.29375
286.3216591
280.4452612
278.3110753
278.2292463
278.3351738
278.43802
278.563327
278.702274
278.8657647
279.0536974
279.2729806
279.5277733
279.8246618
280.1701867
280.571971
281.0381919
281.5775578
282.1989353
282.9107336
283.7199168
284.6304507
285.6411665
286.7431446
287.9172526
289.1331682
290.3515178
291.5295487
292.6285143
293.6196906
294.4869301
295.2257784
295.8406544
296.3416907
296.7421342
297.0564725
297.2991495
297.4836906
297.6221566
297.7248609
297.8003067
297.8552954
297.8951265
297.9238422
297.9444719
297.9592558
297.9698344
297.9774029
297.9828329
297.9867652
297.9896754
297.9918559
297.9935684
297.9949846
297.9972533
293.0497537
292.9708531
292.6997783
292.1428028
291.0357171
288.6743151
283.6987995
278.5672709
277.3454343
277.3906181
277.504507
277.6164191
277.7535746
277.9065768
278.0866835
278.294389
278.5369887
278.8193976
279.1488257
279.5326805
279.9794303
280.4981935
281.098566
281.7901511
282.5816729
283.4795944
284.4860349
285.5960587
286.7946616
288.0546031
289.3369927
290.5960637
291.7872087
292.8749524
293.8375126
294.6669039
295.3659067
295.9440781
296.4143757
296.7909452
297.0878795
297.3185518
297.4952138
297.6287409
297.7284812
297.8022236
297.8562761
297.8956175
297.9240914
297.9446104
297.9593484
297.9699105
297.9774731
297.9828985
297.9868254
297.9897231
297.9919037
297.9935993
297.9949848
297.9972328
292.4814945
292.3458336
291.9885998
291.2890715
289.9082197
286.9822728
281.0866166
277.199211
276.6507143
276.7353211
276.8563514
276.9790644
277.1291229
277.2976375
277.4961182
277.7258357
277.9944963
278.3078791
278.6738905
279.1008783
279.5982167
280.1759766
280.8445537
281.613989
282.4926929
283.4855653
284.5913342
285.7993156
287.0863441
288.4157348
289.7404526
291.0108511
292.1842021
293.2317777
294.1408951
294.9123962
295.5559237
296.0853547
296.5156338
296.8611393
297.1350954
297.3494719
297.5149978
297.6411576
297.7361587
297.8069245
297.8591434
297.8973723
297.9251779
297.9452973
297.959796
297.9702131
297.9776855
297.983052
297.9869379
297.9898032
297.9919687
297.9936451
297.9950031
297.9972608
292.0452977
291.8488526
291.3966686
290.5287782
288.7891293
285.0970069
278.8380174
276.358597
276.1734884
276.2721273
276.403131
276.5385134
276.7035857
276.8901632
277.1098732
277.3649105
277.6634041
278.0120847
278.419633
278.8954087
279.4497278
280.0935322
280.8377399
281.6922502
282.664207
283.755556
284.9597696
286.2582512
287.6179073
288.9923882
290.3285966
291.5768878
292.700544
293.6804928
294.5142884
295.2113062
295.7870256
296.25849
296.6416815
296.9505599
297.1970848
297.3915921
297.5431416
297.6597149
297.7482778
297.8147925
297.8642398
297.900677
297.9273297
297.946708
297.9607292
297.9708371
297.9781072
297.9833395
297.9871338
297.9899348
297.9920612
297.993708
297.9950276
297.9972774
291.7557296
291.4977133
290.9467687
289.8944158
287.7252221
283.0094632
277.3309269
275.8913923
275.9172486
276.0178197
276.1603872
276.3099527
276.4916022
276.6982362
276.9415144
277.2247194
277.5564685
277.9445356
278.3984378
278.9285256
279.5459312
280.2621562
281.0881021
282.0326838
283.1005505
284.2889814
285.584046
286.9571884
288.3645987
289.7518365
291.0636167
292.2550124
293.2990546
294.1880903
294.9298195
295.5409502
296.0412652
296.4496101
296.7820157
297.0514129
297.2681736
297.4408546
297.5767895
297.6824305
297.7634776
297.8249011
297.8709385
297.9051099
297.9302644
297.9486542
297.9620235
297.9717007
297.9786852
297.9837271
297.9873923
297.9901052
297.9921753
297.9937852
297.995062
297.9973045
291.6132
291.2879547
290.6262828
289.3494519
286.6518748
280.8884932
276.3684762
275.643302
275.8480148
275.9685528
276.124127
276.289821
276.4902186
276.7196082
276.9896199
277.3047233
277.6740435
278.1063793
278.6120263
279.2021662
279.888494
280.682646
281.5948365
282.6319436
283.7945558
285.0731924
286.4443017
287.8680723
289.2908956
290.6537871
291.9042931
293.0066878
293.9462478
294.7270441
295.3657341
295.8845849
296.3059848
296.6492782
296.9296945
297.1586671
297.3447768
297.4947521
297.6142215
297.7081466
297.7809931
297.8367538
297.8789225
297.9104719
297.9338589
297.9510613
297.9636344
297.9727783
297.9794052
297.9842071
297.9877097
297.9903124
297.9923106
297.9938759
297.9951043
297.997335
291.6207134
291.2206244
290.4301851
288.8545236
285.4242296
279.0726025
275.9712821
275.8433197
275.9850066
276.1139011
276.2846081
276.469047
276.6910191
276.9464371
277.2468376
277.597909
278.0092832
278.4907341
279.0532722
279.7087404
280.4690916
281.3455185
282.3465786
283.4756246
284.7271571
286.0826493
287.5072547
288.9501642
290.3509708
291.6512002
292.8063568
293.7932386
294.6102401
295.2721225
295.8025635
296.2273859
296.5699644
296.8490327
297.0783678
297.2675958
297.4234167
297.5507621
297.6536362
297.7355975
297.7999482
297.849753
297.8877897
297.9164957
297.9379378
297.9538157
297.9654895
297.9740243
297.9802393
297.9847627
297.9880764
297.9905511
297.9924647
297.993979
297.9951547
297.9973713
291.7751176
291.3004573
290.3598334
288.4093173
283.9783385
277.8419256
275.9558051
276.13139
276.2998736
276.4442538
276.6317459
276.837109
277.0830691
277.3673522
277.7013998
278.0921493
278.5497777
279.0849806
279.7093789
280.4351724
281.2740099
282.2356858
283.3256838
284.5419351
285.8706504
287.2823769
288.7306124
290.1558281
291.4955912
292.6974779
293.7291014
294.5813814
295.2651197
295.8037721
296.2257689
296.5585649
296.825155
297.0428262
297.2234744
297.3747649
297.5015275
297.6069908
297.693657
297.7637987
297.819651
297.86342
297.8972142
297.9229628
297.942357
297.9568237
297.9675292
297.9754015
297.9811648
297.9853808
297.988485
297.9908174
297.992636
297.9940935
297.9952123
297.9974124
292.053434
291.4961274
290.3705181
287.9720796
282.4321227
277.2913053
276.5070456
276.608584
276.7819745
276.9428117
277.1490045
277.3777162
277.6504181
277.9667811
278.3381888
278.7728123
279.2813644
279.8752901
280.5665282
281.3670791
282.2874289
283.3347235
284.509696
285.8028248
287.1900796
288.6302154
290.0665312
291.4349701
292.676746
293.7503765
294.6380294
295.3445535
295.8912414
296.307764
296.6250726
296.8706126
297.0659648
297.2264156
297.361754
297.4776596
297.5771787
297.661973
297.733189
297.7919462
297.8395213
297.8773438
297.9069096
297.9296772
297.9469843
297.959998
297.9696965
297.9768739
297.9821594
297.986048
297.9889278
297.9911072
297.9928226
297.9942186
297.9952771
297.9974587
292.4461552
291.7927905
290.4154097
287.3865085
281.038029
277.1742374
277.0681542
277.2296262
277.4151206
277.5950572
277.82225
278.0771116
278.3797515
278.7318362
279.1447096
279.6276515
280.1917827
280.8489696
281.6110065
282.4889659
283.4911369
284.6205872
285.8714677
287.2248297
288.6451076
290.0799287
291.4658192
292.7396821
293.8518369
294.77509
295.5066726
296.0637021
296.4753607
296.7750055
296.9941671
297.1590224
297.2890452
297.3972193
297.4911655
297.57465
297.6490732
297.7146892
297.7714448
297.8194442
297.8591177
297.8912039
297.9166478
297.9364794
297.9517103
297.9632648
297.9719431
297.9784103
297.9832037
297.9867525
297.9893981
297.9914166
297.9930229
297.9943534
297.9953486
297.9975101
292.9484209
292.1878059
290.4984329
286.5722505
280.0928554
277.7857723
277.8188106
277.988475
278.1879557
278.3892885
278.6399938
278.9239477
279.2598199
279.6512032
280.1093872
280.644561
281.2680752
281.9918369
282.8269433
283.7826565
284.8637956
286.0676519
287.3798488
288.7704346
290.1922538
291.5843816
292.8816438
294.0276825
294.986129
295.745442
296.3167059
296.726716
297.0097607
297.2006227
297.3298909
297.4216117
297.4927608
297.5539193
297.6105987
297.6647885
297.7164084
297.7644735
297.807886
297.8458687
297.878115
297.9047569
297.9262508
297.943242
297.9564459
297.966563
297.9742277
297.9799838
297.9842805
297.9874838
297.9898898
297.9917424
297.9932352
297.9944972
297.9954264
297.9975665
293.5523846
292.6525467
290.5770914
285.597525
279.8794484
278.5098356
278.6966263
278.8716428
279.0883161
279.3134613
279.5901415
279.9058998
280.2779708
280.7117643
281.2185474
281.8092277
282.4951694
283.287814
284.1967746
285.2283069
286.3821495
287.6479026
289.0009259
290.3997093
291.7872721
293.0985659
294.2725604
295.2645701
296.0538198
296.6438539
297.057195
297.3273601
297.4911675
297.5830084
297.6314603
297.6579326
297.6767529
297.6961456
297.7196517
297.7476559
297.7787738
297.8109471
297.842181
297.8709425
297.8962901
297.917829
297.9355872
297.9498682
297.9611213
297.9698437
297.976517
297.9815719
297.9853752
297.9882328
297.9903972
297.9920814
297.9934581
297.994649
297.9955104
297.9976279
294.2548496
293.1562721
290.5390977
284.6296488
279.8674015
279.4386595
279.683254
279.866553
280.1025683
280.3533835
280.6582234
281.0082779
281.4195009
281.8989622
282.457876
283.1075084
283.8587609
284.7217979
285.7036423
286.8060766
288.0219828
289.3314935
290.6987529
292.0717526
293.3874175
294.5821806
295.6045838
296.4248094
297.0378889
297.4603986
297.7232898
297.8639449
297.9195792
297.9228743
297.8997385
297.8687236
297.8415347
297.8241816
297.8184177
297.8232101
297.8360446
297.8539456
297.8741566
297.894503
297.9135014
297.9303036
297.9445646
297.9562875
297.9656843
297.973069
297.9787841
297.9831564
297.9864758
297.9889917
297.9909158
297.9924309
297.9936903
297.9948082
297.9956002
297.9976944
295.0420848
293.6790073
290.321234
283.9453582
280.6518497
280.4836759
280.7577178
280.9558434
281.2140011
281.4934962
281.8300199
282.2182025
282.6728136
283.2022273
283.8173738
284.52932
285.3478506
286.2808977
287.331627
288.4957301
289.7574912
291.0864036
292.4358484
293.7462621
294.9536683
296.0016415
296.852253
297.4916399
297.9291194
298.1913856
298.3147555
298.3380285
298.2972184
298.2224496
298.1366403
298.0554737
297.9881741
297.9387331
297.9073189
297.8916667
297.8882974
297.8934599
297.9037576
297.9164756
297.9296715
297.9421097
297.9531228
297.9624511
297.9700971
297.9762106
297.9810086
297.9847228
297.9875723
297.9897541
297.9914413
297.9927885
297.9939304
297.994974
297.9956955
297.9977659
295.8993536
294.1606029
289.951954
283.8435259
281.6194684
281.635382
281.9175434
282.1352942
282.4189226
282.730657
283.1027194
283.5328756
284.034725
284.6175455
285.2917271
286.0675653
286.9529772
287.9525006
289.0638927
290.2750081
291.5601865
292.8783083
294.174274
295.385522
296.452785
297.3313431
297.9987236
298.4561768
298.7246554
298.837804
298.8345735
298.7532824
298.6276693
298.4848463
298.3446714
298.2200892
298.118051
298.0407514
297.9869756
297.9534038
297.935741
297.9295873
297.9310123
297.9368497
297.944771
297.9532114
297.9612264
297.9683279
297.9743338
297.9792482
297.9831751
297.9862599
297.9886568
297.9905146
297.9919704
297.9931521
297.9941774
297.9951457
297.9957954
297.9978425
296.8132772
294.5878281
289.5596999
283.9279493
282.740625
282.8759836
283.1661995
283.4081462
283.7195283
284.0658926
284.4761002
284.9507687
285.5023783
286.140708
286.8752391
287.7146657
288.6638766
289.7224577
290.881055
292.1183391
293.3984784
294.6714364
295.8775558
296.9565935
297.8588524
298.5540385
299.0350519
299.3160265
299.4264168
299.403861
299.2877494
299.1145903
298.9152239
298.7135935
298.5265981
298.3646561
298.2326852
298.1313057
298.0581127
298.0088916
297.9786644
297.9624929
297.9560047
297.9556594
297.9588053
297.9635991
297.9688595
297.9739005
297.9783784
297.9821681
297.9852724
297.987759
297.989723
297.9912687
297.9925
297.9935198
297.9944302
297.9953227
297.995899
297.9979241
297.7231184
294.9458045
289.3089029
284.4289819
283.993264
284.1988301
284.5006113
284.7700256
285.1114603
285.4949653
285.9461291
286.4680624
287.0720033
287.7675492
288.5625095
289.4627683
290.4687643
291.5736451
292.7597578
293.9962713
295.2384251
296.4304894
297.5130454
298.4331501
299.153976
299.6603625
299.9589221
300.0737091
300.0395935
299.8957389
299.6803752
299.4273778
299.1644159
298.9123154
298.6852217
298.4912799
298.3336184
298.2114958
298.121493
298.0586425
298.0173993
297.9923816
297.9788544
297.9729685
297.9718034
297.9732817
297.9760202
297.9791619
297.982222
297.9849616
297.9872931
297.9892141
297.9907661
297.9920128
297.9930275
297.9938898
297.9946876
297.9955041
297.9960125
297.9980108
298.5304511
295.2534341
289.3104335
285.6724129
285.357104
285.6010658
285.9191345
286.2198518
286.594489
287.0184048
287.5137457
288.0855228
288.743346
289.4956892
290.3477464
291.3014114
292.3515081
293.4837759
294.6718763
295.8762647
297.0457646
298.1231374
299.0540031
299.7964856
300.3280697
300.6477127
300.7731101
300.7351247
300.571355
300.3206197
300.018942
299.6971469
299.3797104
299.0845232
298.8232357
298.6019835
298.4223395
298.2823953
298.177873
298.1031765
298.0522927
298.0194776
297.9997002
297.9888587
297.9838103
297.9822811
297.9827166
297.9841127
297.9858617
297.9876241
297.9892322
297.9906206
297.9917823
297.992744
297.9935508
297.9942608
297.994949
297.99569
297.9961347
297.9981024
299.2103492
295.5460896
289.7331434
286.806561
286.8288408
287.0929337
287.4300449
287.7651185
288.1752862
288.6415374
289.182323
289.8038102
290.5135709
291.3180545
292.2190262
293.2134291
294.2895922
295.4253139
296.5859271
297.7250354
298.7885706
299.7222899
300.4808677
301.0355807
301.3779299
301.5187908
301.4839428
301.3082213
301.0298359
300.6859772
300.3098734
299.9291778
299.5653144
299.2334919
298.9431432
298.6986486
298.5002408
298.3450168
298.2279755
298.1429987
298.0836895
298.0440098
298.0186896
298.0034215
297.9948801
297.9906274
297.9889638
297.988759
297.9892983
297.990154
297.991087
297.9919756
297.992769
297.99346
297.9940681
297.9946313
297.9952135
297.9958803
297.9962639
297.9981989
299.825602
295.8396327
290.3779906
288.2105585
288.3997594
288.6775597
289.037492
289.4079109
289.8537586
290.3616991
290.9463692
291.6143121
292.3707103
293.2191471
294.1571386
295.1757412
296.2560661
297.3679761
298.4698082
299.5112912
300.439604
301.2075904
301.7815977
302.1464095
302.3059002
302.2800827
302.0999343
301.8019401
301.4234023
300.9991044
300.5592358
300.1283575
299.7250752
299.3621991
299.0472162
298.782987
298.5685952
298.4002933
298.2724737
298.1785859
298.1119204
298.0662026
298.0359709
298.0167522
298.0050717
297.9983554
297.9947812
297.9931105
297.9925359
297.992552
297.9928565
297.9932773
297.993724
297.9941589
297.9945777
297.9950001
297.9954804
297.9960746
297.9963983
297.9983
300.4672376
296.1975859
291.0792418
289.7457388
290.0538181
290.3471867
290.7310285
291.1367364
291.6175034
292.1653659
292.7912078
293.5010365
294.2971619
295.1793187
296.1397857
297.1629117
298.2223976
299.2811841
300.2931382
301.2078802
301.9778593
302.5659646
302.951182
303.1307124
303.1183619
302.9404446
302.6306681
302.2254323
301.7601526
301.2668183
300.772576
300.2990934
299.8624369
299.4733016
299.1374826
298.856531
298.6285478
298.4490705
298.3119832
298.2103791
298.1372957
298.0862698
298.051688
298.0289452
298.0144454
298.0055024
298.0001906
297.9971792
297.9955802
297.9948202
297.9945408
297.9945247
297.994646
297.9948393
297.9950783
297.9953661
297.9957488
297.996272
297.996537
297.9984054
301.117429
296.6961672
292.3161324
291.3941578
291.7738133
292.0870661
292.495888
292.9369866
293.4523213
294.0384473
294.7025247
295.4488537
296.2761307
297.1791616
298.1442013
299.1486925
300.1597662
301.1356271
302.0290391
302.7933172
303.3892983
303.7913538
303.9905742
303.99454
303.8242998
303.5099354
303.0859676
302.5875344
302.0476176
301.4953063
300.9548514
300.4452896
299.980436
299.5691395
299.2157312
298.9206366
298.6811178
298.4921058
298.3470598
298.2387802
298.160101
298.1044109
298.0659775
298.040092
298.0230611
298.0121061
298.0052151
298.0009785
297.9984385
297.9969619
297.9961407
297.9957175
297.9955341
297.9954999
297.9955686
297.9957283
297.996018
297.9964718
297.9966781
297.9985153
301.8347056
297.3534098
293.7130536
293.1296914
293.5515837
293.8898652
294.3249601
294.8017484
295.3513247
295.9732711
296.6709337
297.4456877
298.2918492
299.1986514
300.1462033
301.1058006
302.0398631
302.9047915
303.6557171
304.2527371
304.666837
304.8838334
304.905324
304.7468198
304.4340901
303.9989383
303.4753376
302.8964531
302.292608
301.6900689
301.1104231
300.5703601
300.081722
299.6517549
299.2835266
298.9764948
298.7272042
298.5300716
298.3782007
298.2641517
298.1805968
298.1208097
298.0789668
298.0502791
298.0309759
298.0182035
298.009878
298.0045223
298.0011185
297.998981
297.997658
297.9968558
297.9963875
297.9961397
297.9960477
297.9960859
297.9962873
297.9966726
297.9968189
297.9986303
302.6537554
298.4437038
295.2208777
294.9477864
295.3908648
295.7600809
296.2216264
296.7322889
297.3130754
297.964878
298.6871282
299.4774196
300.3252921
301.2143643
302.119215
303.0065241
303.8364592
304.5666818
305.1576208
305.578096
305.8096243
305.8483153
305.7041272
305.3980802
304.9585467
304.4175396
303.8076107
303.1595968
302.5011554
301.855919
301.2430801
300.6772615
300.1685878
299.7229177
299.3422285
299.0251449
298.7675959
298.5635616
298.4058475
298.2868182
298.1990181
298.1356335
298.090773
298.0595868
298.038244
298.0238304
298.0142019
298.0078246
298.0036284
298.0008819
297.9990944
297.9979401
297.997206
297.9967581
297.9965145
297.9964379
297.996556
297.9968728
297.996967
297.9987508
303.5489436
299.5814046
296.8895433
296.850914
297.3017784
297.702534
298.187285
298.7257596
299.3302524
300.0013903
300.7346207
301.5232703
302.3520514
303.1994242
304.0356271
304.8247637
305.5274038
306.1051807
306.5258294
306.7676049
306.8218281
306.6931034
306.3974988
305.9594269
305.4082392
304.7751367
304.0907599
303.3835139
302.6785202
301.9970197
301.3560854
300.7685362
300.2430065
299.7841545
299.393014
299.0674901
298.8029821
298.593097
298.4303907
298.3070685
298.2155757
298.1490339
298.1015033
298.0680897
298.0449161
298.0290203
298.0182086
298.0108991
298.0059764
298.0026692
298.0004523
297.9989711
297.9979895
297.9973543
297.9969683
297.9967837
297.996823
297.9970712
297.9971123
297.9988753
304.5464215
300.6954834
298.6926044
298.8268004
299.2786717
299.706494
300.2089267
300.7666239
301.3845361
302.0617946
302.789787
303.557387
304.3448196
305.1263692
305.8696352
306.5384601
307.0962852
307.5107149
307.7577384
307.8247012
307.7112901
307.4285913
306.9967312
306.441832
305.7930792
305.080243
304.3318434
303.573914
302.8292449
302.1169465
301.4522354
300.8463628
300.3066718
299.8367793
299.4369002
299.1043147
298.8339638
298.6191351
298.4521747
298.325159
298.2304577
298.1611471
298.1112546
298.0758555
298.0510389
298.0338047
298.021919
298.0137589
298.0081705
298.0043474
298.0017339
297.9999497
297.9987378
297.9979278
297.9974081
297.9971224
297.9970875
297.9972663
297.9972659
297.9990006
305.6740092
301.9093188
300.6003497
300.8527856
301.3040287
301.7525547
302.2661287
302.833367
303.4529003
304.1214706
304.8265325
305.5527604
306.2767207
306.9699955
307.5995427
308.1311664
308.5330938
308.7799915
308.8560733
308.7566952
308.4881634
308.0661296
307.5130896
306.8556421
306.1220708
305.3403998
304.537009
303.7357163
302.9572178
302.2187503
301.5339144
300.9126014
300.3610333
299.8819207
299.4747641
299.1362978
298.8610643
298.6420759
298.4715025
298.3413167
298.243832
298.1720953
298.1201147
298.0829463
298.0566554
298.0382129
298.0253524
298.0164167
298.0102186
298.0059212
298.0029417
298.000877
297.9994512
297.9984782
297.9978335
297.9974534
297.9973484
297.9974575
297.9974271
297.9991237
306.9055708
303.4157808
302.5851121
302.9127053
303.3605966
303.8219982
304.3384076
304.9037729
305.511363
306.1549992
306.8185847
307.4832882
308.1232418
308.7090464
309.208959
309.5925189
309.8338801
309.9149767
309.8274908
309.5733298
309.163679
308.6171188
307.9572341
307.2102684
306.4031871
305.5621643
304.7115384
303.8731162
303.0657426
302.3050204
301.6031477
300.9688354
300.407329
299.9205465
299.507361
299.1640272
298.8847385
298.6622691
298.4886403
298.3557418
298.2558475
298.1819878
298.1281626
298.0894182
298.0618047
298.0422719
298.0285269
298.0188842
298.0121281
298.0073949
298.004078
298.001754
298.0001299
297.9990052
297.9982437
297.9977761
297.9976047
297.997644
297.997596
297.9992426
308.2076478
305.0670936
304.6172482
304.9903482
305.4301537
305.8949302
306.404109
306.9546407
307.535384
308.1371602
308.7409808
309.3255516
309.8640069
310.3276477
310.6876085
310.9182846
311.000115
310.9218179
310.6813716
310.2857004
309.7493331
309.0924935
308.3389572
307.5141051
306.6433969
305.7511909
304.8599474
303.9896835
303.1576253
302.3779566
301.6616591
301.0164164
300.4466198
299.9534895
299.535344
299.1880134
298.9053834
298.6800212
298.5038226
298.3686119
298.266637
298.1909224
298.1354694
298.0953221
298.0665229
298.0460064
298.0314593
298.0211726
298.0139061
298.0087729
298.0051453
298.0025817
298.0007741
297.9995084
297.9986383
297.99809
297.9978553
297.9978255
297.9977711
297.9993599
309.5779339
306.8302584
306.6704559
307.0654724
307.4927845
307.9499381
308.4404488
308.9622838
309.5008208
310.0442499
310.5716105
311.0603609
311.4840351
311.8160126
312.031343
312.1097257
312.0376178
311.809616
311.4286879
310.9053716
310.2562973
309.5023969
308.6670565
307.7745277
306.8487313
305.9123248
304.9860826
304.0884506
303.235248
302.4394288
301.7109178
301.0565007
300.4798168
299.981468
299.5592787
299.2087005
298.923346
298.6956014
298.5172562
298.3800843
298.2763185
298.1989869
298.1420991
298.1007043
298.0708426
298.0494393
298.0341653
298.0232923
298.0155594
298.0100594
298.006146
298.0033615
298.0013842
297.9999878
297.9990169
297.9983943
297.9980991
297.9980018
297.9979521
297.9994738
311.0093728
308.6710587
308.7241692
309.1185053
309.5266305
309.964146
310.4236145
310.9028263
311.3845586
311.8549817
312.2921546
312.6734445
312.9739331
313.1700191
313.2411489
313.1722266
312.9550565
312.5890374
312.0808839
311.4435802
310.6949237
309.8559234
308.9492401
307.997896
307.0243355
306.0496724
305.0931934
304.171977
303.3006236
302.4910211
301.7521727
301.0900753
300.5077016
300.0051012
299.5796551
299.226475
298.9389297
298.7092459
298.5291237
298.3902984
298.2849974
298.2062596
298.1481095
298.1056066
298.0747939
298.0525916
298.0366594
298.0252531
298.0170944
298.0112583
298.0070823
298.0040945
298.0019606
298.000443
297.9993791
297.9986885
297.9983348
297.9981731
297.9981378
297.999583
312.4815689
310.554961
310.7552384
311.1245359
311.5059271
311.912335
312.3290872
312.7532403
313.1658375
313.5517303
313.8889415
314.1557311
314.3295494
314.3903091
314.3218717
314.1138749
313.7626087
313.2712088
312.6490715
311.9107237
311.0744742
310.161019
309.1921317
308.1896144
307.1745518
306.1666874
305.1840104
304.2424158
303.3554504
302.5340755
301.7864872
301.1179851
300.5309466
300.0249245
299.596899
299.2416746
298.9524004
298.721163
298.5395865
298.3993781
298.2927676
298.2128111
298.1535528
298.110067
298.078404
298.0554828
298.038955
298.0270642
298.0185171
298.0123735
298.0079567
298.004782
298.0025038
298.0008742
297.9997247
297.9989719
297.9985614
297.9983394
297.998327
297.9996856
313.9497701
312.4424715
312.716089
313.0594821
313.4064123
313.7717637
314.1359447
314.4950243
314.8291832
315.1226885
315.3543466
315.5040423
315.5520575
315.4819211
315.2815965
314.9447896
314.4713905
313.8673314
313.1438439
312.3163422
311.403219
310.4246431
309.4014556
308.3543125
307.3030816
306.2663075
305.2608566
304.3016031
303.4011814
302.5697452
301.8147797
301.1409633
300.5501384
300.0414074
299.6113857
299.2545978
298.9639949
298.7315387
298.5487894
298.4074352
298.2997144
298.2187053
298.1584764
298.1141205
298.0816982
298.0581308
298.0410649
298.0287343
298.0198333
298.0134089
298.0087714
298.0054251
298.0030142
298.0012814
298.0000536
297.999244
297.998778
297.9985013
297.9985178
297.9997789
315.4144436
314.2995836
314.5917177
314.9019323
315.2077676
315.5238094
315.8276621
316.114396
316.3641216
316.561166
316.6857094
316.7196833
316.6463287
316.4525986
316.1300574
315.6757644
315.0924047
314.387941
313.5748077
312.6688615
311.6883238
310.6527443
309.5820602
308.4958902
307.4130345
306.3509998
305.3256864
304.3510883
303.4390485
302.599013
301.8378372
301.1596424
300.5657862
300.0549599
299.6234444
299.2655083
298.9739227
298.7405384
298.556862
298.4145698
298.3059145
298.2240007
298.1629242
298.1177992
298.0847
298.0605526
298.043001
298.0302716
298.0210488
298.014368
298.0095287
298.0060253
298.0034925
298.0016647
298.0003657
297.9995039
297.9989836
297.9986593
297.9987071
297.9998609
316.8584728
316.0865569
316.3623548
316.6343007
316.8933455
317.1537679
317.3919846
317.602148
317.7648886
317.8650469
317.8845039
317.8073792
317.6197522
317.3116375
316.8776365
316.3174936
315.6360155
314.8426079
313.9504628
312.975597
311.9359289
310.8503764
309.7380449
308.6176404
307.5070388
306.4228564
305.3801649
304.3921994
303.4701144
302.622733
301.8563483
301.1745791
300.5783405
300.0659463
299.6333693
299.2746423
298.9823725
298.7483117
298.5639218
298.4208734
298.3114384
298.2287506
298.1669361
298.1211332
298.0874314
298.0627639
298.0447745
298.0316843
298.0221691
298.0152546
298.0102311
298.0065839
298.0039393
298.0020245
298.0006611
297.999751
297.999178
297.998814
297.9988901
297.9999337
318.2658687
317.7716967
318.0116576
318.2414675
318.4502144
318.6514649
318.8216871
318.9542619
319.0307482
319.0367769
318.9560431
318.7748005
318.4817066
318.0694131
317.5350195
316.880384
316.1119075
315.2400112
314.2783487
313.2429341
312.1513332
311.0218685
309.8729075
308.7223682
307.5873351
306.4836655
305.4257212
304.4260824
303.4953017
302.6416508
301.8709183
301.1862657
300.5882021
300.0746925
299.6414243
299.2822127
298.9895148
298.7549943
298.5700755
298.4264294
298.3163503
298.2330042
298.1705495
298.1241501
298.0899129
298.0647799
298.0463964
298.0329798
298.0231993
298.0160724
298.0108808
298.0071024
298.0043554
298.002361
298.0009397
297.9999845
297.999361
297.9989655
297.9990629
298.0000073
319.6183093
319.3316317
319.527339
319.7127075
319.8700001
320.0113005
320.1140452
320.1709631
320.1647409
320.0819137
319.9079558
319.6310957
319.2422553
318.7363088
318.1123829
317.3739907
316.5287318
315.5877472
314.5649676
313.4763235
312.3390314
311.1708817
309.9896055
308.8124503
307.6558297
306.5349573
305.463587
304.4537323
303.5154181
302.6564249
301.8820852
301.1951428
300.5957317
300.0814932
299.6478493
299.2884138
298.9955059
298.7607106
298.5754218
298.431315
298.3207101
298.2368074
298.1737992
298.1268761
298.0921639
298.0666147
298.0478769
298.0341657
298.0241448
298.0168248
298.0114803
298.0075823
298.0047417
298.002675
298.0012016
298.0002039
297.9995328
297.999113
297.9992262
298.0000731
320.8995939
320.7499364
320.9007176
321.041434
321.1486515
321.2320568
321.2704917
321.2561382
321.1728939
321.0082342
320.7493097
320.3861229
319.9115454
319.3223022
318.6191591
317.8069307
316.8941312
315.8924261
314.8159173
313.680425
312.5028524
311.3005334
310.0906613
308.8899208
307.7141638
306.5780582
305.4948383
304.476026
303.5311813
302.6676447
301.8903349
301.2016109
300.6012592
300.0866192
299.6528658
299.2934254
299.000491
298.7655769
298.5800528
298.4356026
298.3245744
298.2402041
298.1767185
298.1293364
298.0942033
298.0682824
298.0492262
298.0352492
298.0250108
298.0175156
298.0120321
298.0080251
298.0050991
298.0029669
298.0014468
298.000409
297.9996937
297.9992549
297.9993742
298.0001345
322.09593
322.0164007
322.1283619
322.2269141
322.287601
322.3172519
322.2963556
322.2166987
322.063424
321.8249314
321.4898945
321.0498714
320.4993877
319.8367021
319.0639103
318.186864
317.2147948
316.1597696
315.0360085
313.859229
312.6460733
311.4134963
310.1782462
308.956542
307.7637698
306.6141364
305.5204315
304.4937501
303.5432408
302.6758486
301.8961137
301.2060403
300.605091
300.0903233
299.6566811
299.2974166
299.0046067
298.7697031
298.584056
298.4393613
298.327997
298.2432358
298.1793395
298.1315554
298.0960493
298.0697965
298.0504546
298.0362379
298.0258025
298.0181485
298.0125389
298.0084326
298.0054287
298.0032376
298.0016754
298.0005994
297.9998437
297.9993894
297.9995114
298.0001941
323.1980271
323.1353524
323.214663
323.2744573
323.2928363
323.2737802
323.1994539
323.0613062
322.8456472
322.541718
322.1395221
321.6319521
321.0149233
320.2879658
319.4542642
318.5205149
317.4965329
316.3947133
315.2293756
314.0161627
312.7715143
311.5120802
310.2542475
309.0138588
307.8059151
306.6442351
305.5412293
304.5076211
303.5521937
302.681535
301.8998381
301.2087782
300.6075157
300.0928442
299.6594913
299.3005475
299.007983
298.7731935
298.5875148
298.4426571
298.3310298
298.2459427
298.181693
298.1335567
298.0977199
298.0711705
298.0515717
298.0371388
298.0265254
298.0187274
298.0130032
298.0088066
298.0057317
298.0034879
298.0018877
298.0007752
297.9999827
297.999516
297.9996417
298.0002452
324.1676461
324.1175008
324.1672947
324.1921937
324.1729288
324.1107382
323.9893459
323.7998628