/*--------------------------------*- C++ -*----------------------------------*\
  =========                 |
  \\      /  F ield         | OpenFOAM: The Open Source CFD Toolbox
   \\    /   O peration     | Website:  https://openfoam.org
    \\  /    A nd           | Version:  12
     \\/     M anipulation  |
\*---------------------------------------------------------------------------*/
FoamFile
{
    format      ascii;
    class       volVectorField;
    location    "850";
    object      U;
}
// * * * * * * * * * * * * * * * * * * * * * * * * * * * * * * * * * * * * * //

dimensions      [0 1 -1 0 0 0 0];

internalField   nonuniform List<vector> 
16200
(
(183.9324645 -7.292886941e-17 -1.499296223)
(219.332334 3.520933963e-17 -1.4249478)
(239.2450101 -2.445446136e-20 -1.599353855)
(254.9167768 0 -1.77139813)
(269.4383246 0 -1.959915541)
(284.49629 -2.522530078e-17 -2.187773656)
(300.2307208 2.884514201e-17 -2.505501802)
(312.8349259 6.222849551e-17 -2.885503643)
(316.6007505 -1.211254391e-16 -3.015911433)
(316.5975426 1.084441043e-16 -2.992723593)
(316.2820749 -4.617149176e-17 -3.049624079)
(315.9823944 0 -3.028427953)
(315.6126788 0 -3.091896464)
(315.205475 -5.367913194e-17 -3.095145673)
(314.7260787 4.48037637e-17 -3.155282009)
(314.1768554 0 -3.188798524)
(313.5360284 0 -3.255407423)
(312.7922174 8.204858148e-19 -3.319589541)
(311.9250973 4.44524157e-17 -3.406218748)
(310.9151827 -3.609649309e-17 -3.504211399)
(309.7387166 0 -3.622959976)
(308.3699461 -2.493000012e-17 -3.760362932)
(306.7803754 2.230923662e-17 -3.919260004)
(304.9397477 3.79720535e-17 -4.098163832)
(302.8172202 -3.189917772e-17 -4.294410334)
(300.3836285 -2.728356411e-17 -4.500975743)
(297.6152113 2.293979811e-17 -4.705738653)
(294.4992138 0 -4.889668937)
(291.0416316 0 -5.026200693)
(287.2763442 5.739106382e-17 -5.082457741)
(283.27302 -3.616897484e-17 -5.024227774)
(279.1388636 -1.041133424e-17 -4.825237089)
(275.0095463 0 -4.478059799)
(271.0295279 -4.592043482e-17 -4.000900045)
(267.3285218 5.155403626e-17 -3.435461527)
(264.0031964 -8.881250274e-17 -2.836251201)
(261.1092917 7.487759131e-17 -2.256500951)
(258.6634692 0 -1.736822646)
(256.6508518 0 -1.300046423)
(255.034513 0 -0.9521541342)
(253.7645901 7.751701189e-17 -0.6869315793)
(252.786093 -1.309955246e-16 -0.4915553873)
(252.0447951 1.102276534e-16 -0.3512151796)
(251.491203 0 -0.2520531791)
(251.0826399 1.567699139e-16 -0.1825555454)
(250.7839666 -1.319063273e-16 -0.1338839939)
(250.5672236 -4.860405892e-20 -0.09959670229)
(250.4108054 1.871142248e-16 -0.07517547379)
(250.2983683 -3.153143277e-16 -0.05752535484)
(250.217768 2.655807401e-16 -0.04455289112)
(250.1600877 2.238946649e-16 -0.03484698812)
(250.1188366 3.777420438e-16 -0.02745249368)
(250.0893123 -3.188307166e-16 -0.02171462414)
(250.0680813 8.082220647e-16 -0.01718462553)
(250.0526761 -4.557870023e-16 -0.01355369695)
(250.0411572 0 -0.01060798521)
(250.032505 1.638506902e-16 -0.008153253633)
(250.0254065 0 -0.006094615529)
(250.0197263 -4.753434008e-16 -0.003702141438)
(250.0129952 -3.971168445e-19 -0.003923906187)
(188.0069954 -1.539933754e-16 -4.157254308)
(224.5009286 1.506467441e-16 -4.414933089)
(244.9862208 -5.450033037e-17 -4.909901246)
(261.1073907 -4.889945971e-17 -5.299234879)
(276.1345428 5.048271024e-17 -5.69090607)
(291.7830783 0 -6.134491541)
(307.5812472 0 -6.695888684)
(317.8268292 6.698994069e-17 -7.130397398)
(319.8157666 -6.259249695e-17 -7.218956451)
(319.6695675 0 -7.183460764)
(319.3344757 0 -7.253352897)
(319.0130116 0 -7.222564388)
(318.6164278 -6.647500884e-17 -7.291192342)
(318.178011 5.54688673e-17 -7.288652199)
(317.6598178 -1.422263814e-18 -7.348159822)
(317.0640338 -1.191882313e-18 -7.376529174)
(316.3667571 0 -7.437656623)
(315.5549628 -2.528547594e-18 -7.493483892)
(314.6061307 0 -7.568784406)
(313.4983247 1.178735924e-18 -7.651686497)
(312.2051051 4.011467796e-18 -7.750340774)
(310.6977718 -2.897188453e-17 -7.86156785)
(308.9448259 -1.748296924e-17 -7.986287142)
(306.9131095 3.870894483e-17 -8.120790031)
(304.569447 0 -8.259177962)
(301.8837028 6.97738013e-18 -8.390164729)
(298.83384 -1.187153237e-17 -8.495928716)
(295.41335 0 -8.550403218)
(291.6409746 -3.475397477e-17 -8.519251751)
(287.5708774 1.450482867e-17 -8.362827355)
(283.2986711 -3.785516278e-17 -8.044094017)
(278.9570049 1.077993912e-17 -7.541016368)
(274.6979069 -3.694402495e-17 -6.858560662)
(270.6670108 -1.574760579e-17 -6.033212757)
(266.9802967 0 -5.126279132)
(263.711765 4.600396828e-17 -4.208839422)
(260.8933481 -3.877832604e-17 -3.345350824)
(258.5226587 0 -2.582123975)
(256.5731247 1.12168699e-16 -1.943180252)
(255.0031114 -9.488665053e-17 -1.432480967)
(253.7631092 8.017622337e-17 -1.03973932)
(252.8011654 2.706649404e-16 -0.746968991)
(252.0669387 -1.138881924e-16 -0.5338841889)
(251.5144748 0 -0.3814179492)
(251.1038313 4.853118322e-16 -0.2734715895)
(250.8017044 -5.444029531e-16 -0.1974098492)
(250.5812448 -3.435659253e-16 -0.1437940152)
(250.4214184 3.854229609e-16 -0.1058243779)
(250.3061215 0 -0.07872066811)
(250.2232525 -2.727951466e-16 -0.05917080789)
(250.1638451 2.295355269e-16 -0.04489684272)
(250.1213233 5.796275494e-16 -0.03433340441)
(250.0908901 3.253731162e-16 -0.02639906953)
(250.0690435 -2.74069202e-16 -0.02034606668)
(250.0532092 9.239818104e-16 -0.01566223351)
(250.0414631 -7.793030433e-16 -0.01198459123)
(250.0325774 -4.933753732e-16 -0.009037905524)
(250.0254383 5.55857289e-16 -0.006664790342)
(250.0196671 1.058118463e-15 -0.003986171814)
(250.0124938 9.803948448e-17 -0.00406081637)
(191.9470546 -1.591156181e-19 -6.908549217)
(229.5292394 1.61781062e-16 -7.66777676)
(250.5833615 -2.365915472e-16 -8.470374339)
(267.1764833 1.076361175e-16 -9.104215917)
(282.7470018 1.130424158e-16 -9.731387764)
(298.8844617 -2.555362845e-16 -10.42743474)
(314.2562397 2.832478104e-16 -11.23981372)
(321.673365 3.682572305e-19 -11.64199195)
(322.4106135 -2.639884697e-16 -11.71144776)
(322.1600243 1.149170905e-16 -11.65861406)
(321.8052621 0 -11.73672565)
(321.4575387 7.878561587e-17 -11.6912352)
(321.0259124 -6.567798149e-17 -11.75944129)
(320.5471307 -2.614482601e-18 -11.74651531)
(319.9800068 4.827133268e-17 -11.79914503)
(319.326298 3.771328963e-18 -11.81733373)
(318.5599808 -3.28480831e-17 -11.86727117)
(317.6661406 1.73515238e-18 -11.91005509)
(316.6199133 -4.661009463e-17 -11.96955327)
(315.3966312 3.662145157e-17 -12.03366909)
(313.9668683 -2.51471089e-20 -12.10881934)
(312.2986147 -2.103035037e-17 -12.19048665)
(310.3570158 1.758253491e-17 -12.27696866)
(308.1058547 0 -12.36140138)
(305.5100273 -4.253053775e-17 -12.43322829)
(302.5399313 7.018117697e-18 -12.47495891)
(299.1783987 3.693539563e-17 -12.4607814)
(295.4303399 2.133707119e-17 -12.35542461)
(291.3343148 1.842049046e-17 -12.11564322)
(286.9723542 -1.487738238e-17 -11.69629967)
(282.4711202 1.911250627e-19 -11.06239628)
(277.98825 -4.483308056e-17 -10.20405718)
(273.6855262 3.818378713e-17 -9.146901828)
(269.6996851 -9.831625251e-17 -7.950948558)
(266.1233124 2.768399062e-17 -6.697633393)
(263.0010523 0 -5.471094897)
(260.3377069 -8.072661385e-17 -4.341539537)
(258.1109289 -6.85710664e-17 -3.355594532)
(256.2827303 -1.622921571e-20 -2.534435768)
(254.8074957 4.907886375e-17 -1.877691677)
(253.6369113 -8.260116738e-17 -1.37019236)
(252.7230296 -6.973796354e-17 -0.9889868059)
(252.0204412 2.351494737e-16 -0.7090149951)
(251.4878565 2.971764477e-16 -0.5068283651)
(251.0891671 -1.665727159e-16 -0.3624869051)
(250.7939221 2.803311843e-16 -0.260129257)
(250.5772518 5.89112689e-16 -0.1877175156)
(250.4194118 -3.96128937e-16 -0.1364260072)
(250.3050985 6.657327541e-16 -0.09994168444)
(250.2226822 -2.796811842e-16 -0.0738192243)
(250.1634641 -4.699024894e-16 -0.05495796911)
(250.1210121 1.97331808e-16 -0.04120328108)
(250.0906049 -6.630546708e-16 -0.03105527207)
(250.068779 0 -0.02347087779)
(250.0529676 -1.871155032e-15 -0.01773073578)
(250.041275 7.858372818e-16 -0.01332520973)
(250.0323997 3.300421825e-16 -0.009890334273)
(250.025339 -1.386141781e-16 -0.007202525508)
(250.0196656 -9.315521749e-16 -0.004205319675)
(250.0125194 0 -0.004192820124)
(195.5839311 -3.441722522e-16 -9.784608656)
(234.1373256 -1.696253778e-19 -11.15139797)
(255.7052853 0 -12.25549076)
(272.8087001 1.162582548e-19 -13.15614589)
(288.9982973 -1.271476591e-16 -14.04480339)
(305.4732189 1.434007591e-16 -15.01698548)
(319.454917 -3.016687702e-19 -16.00107837)
(324.1906036 -5.983985068e-19 -16.28438376)
(324.2788788 1.06516844e-18 -16.35081398)
(323.9993318 1.159298462e-16 -16.27806648)
(323.6198131 -9.768857272e-17 -16.36617035)
(323.2419189 1.279193132e-18 -16.30803676)
(322.7715068 -6.820524936e-17 -16.37677453)
(322.2474913 5.875252685e-17 -16.35622964)
(321.6254595 4.783551021e-17 -16.40365868)
(320.9062883 -4.253559087e-17 -16.41431564)
(320.0616902 -4.198486945e-18 -16.45493073)
(319.074481 0 -16.48638731)
(317.9171985 0 -16.53071146)
(316.562123 0 -16.5754522)
(314.9765733 -3.825186275e-17 -16.6247796)
(313.1250581 1.420464199e-17 -16.67244768)
(310.9695019 3.647188685e-17 -16.71348338)
(308.471429 -2.045021424e-17 -16.73679269)
(305.5957108 2.620756104e-17 -16.72562129)
(302.3166932 1.485062635e-17 -16.65448597)
(298.6272956 -2.548709069e-17 -16.48801874)
(294.5508889 2.14422665e-17 -16.1810511)
(290.1537276 -1.845027065e-17 -15.68273761)
(285.5515554 -3.000786712e-19 -14.94701006)
(280.9020146 2.684987966e-17 -13.94863547)
(276.3799577 4.625236468e-17 -12.69832651)
(272.1439527 0 -11.24793431)
(268.3088859 6.754472004e-17 -9.681665493)
(264.9352312 0 -8.097392969)
(262.0349494 0 -6.586502408)
(259.5864336 2.083332208e-16 -5.219230091)
(257.5500314 3.519031632e-17 -4.038169822)
(255.879275 2.392637191e-16 -3.059005783)
(254.5269813 5.058355561e-17 -2.275872345)
(253.4477701 5.54438433e-16 -1.668615122)
(252.5989309 -2.156892101e-16 -1.209843301)
(251.9409193 -1.211597668e-16 -0.8705210475)
(251.4378896 -9.172462481e-16 -0.6236480817)
(251.0582437 -1.713079509e-19 -0.446170072)
(250.7749743 7.201724322e-16 -0.3195727396)
(250.5656876 6.050822938e-16 -0.2296368919)
(250.4123313 -1.117682954e-15 -0.1657992625)
(250.3007129 -5.117266059e-16 -0.1204037003)
(250.2199086 2.862467715e-16 -0.08799218382)
(250.1616568 -1.200311294e-15 -0.0647157945)
(250.1197905 0 -0.04787560177)
(250.0897482 1.349442758e-15 -0.03558016807)
(250.0681608 1.13039994e-15 -0.02650729416)
(250.0525153 9.464193439e-16 -0.01973886143)
(250.0409557 0 -0.01462499022)
(250.0321508 6.621707009e-16 -0.01071255817)
(250.0251783 6.915500904e-17 -0.007728133549)
(250.0195969 -2.078036045e-15 -0.00443389499)
(250.0123821 3.174849546e-15 -0.00432364592)
(198.894173 -7.289537819e-16 -12.83474505)
(238.3479165 3.735914665e-16 -14.83128884)
(260.3912075 -1.40832525e-16 -16.25649609)
(277.9897563 -6.509212216e-22 -17.44646734)
(294.8116824 0 -18.62275645)
(311.4852485 3.141232846e-19 -19.89234857)
(322.8912383 3.172911864e-21 -20.9086375)
(325.63407 0 -21.05635386)
(325.4584748 -2.207962587e-18 -21.1387638)
(325.1578086 -1.185837268e-16 -21.04741987)
(324.7461497 9.961858242e-17 -21.14552056)
(324.3317664 0 -21.07621385)
(323.8153492 -7.184373239e-17 -21.14468226)
(323.2376017 -1.953272676e-18 -21.11727273)
(322.5510658 4.574587911e-17 -21.1581242)
(321.7552887 -8.216215846e-17 -21.16017205)
(320.8196676 7.312182682e-17 -21.18889622)
(319.7243583 3.623402238e-18 -21.20594811)
(318.4390151 0 -21.23092834)
(316.9324957 4.133656143e-17 -21.25118079)
(315.1686388 -4.338760313e-17 -21.26816617)
(313.1085745 3.692884961e-17 -21.27313814)
(310.7117609 -3.729542075e-17 -21.25650316)
(307.9392128 0 -21.20113245)
(304.7588276 -1.798329028e-17 -21.08216402)
(301.1535648 0 -20.86445872)
(297.1330025 2.636590731e-17 -20.50212818)
(292.7470655 -2.218400621e-17 -19.94073928)
(288.0970145 0 -19.12557223)
(283.3346183 0 -18.01717877)
(278.6425365 0 -16.60966177)
(274.1996559 0 -14.94198984)
(270.1461685 0 -13.09480234)
(266.5635928 1.054884015e-16 -11.17364685)
(263.4750282 -1.492772385e-16 -9.286745845)
(260.8599822 1.015814567e-16 -7.526084435)
(258.6737516 -1.717429911e-16 -5.956492749)
(256.8634743 -1.822896185e-16 -4.612917519)
(255.3777061 -9.205993243e-17 -3.503625711)
(254.1701402 -1.558597283e-16 -2.616604597)
(253.1998253 -5.699464334e-16 -1.92689943)
(252.4301531 -2.956050147e-16 -1.403336716)
(251.8279874 4.357239795e-16 -1.013759219)
(251.3633454 8.373750993e-16 -0.7284776135)
(251.0095222 -7.038579474e-16 -0.5220848771)
(250.7433245 -7.389305109e-16 -0.3740282664)
(250.545178 -8.683734526e-16 -0.268370009)
(250.3990277 1.040720028e-15 -0.1931406735)
(250.2920482 1.221676128e-15 -0.1395685353)
(250.2142271 -1.462514118e-16 -0.1013342791)
(250.1578978 1.347174694e-15 -0.07393905304)
(250.117277 -1.844919641e-15 -0.05420233901)
(250.0880501 -2.914301749e-15 -0.03988090828)
(250.0670037 -1.002679431e-15 -0.02939835925)
(250.0517276 0 -0.02165313497)
(250.0404285 1.595118051e-15 -0.01586521078)
(250.0317893 -4.980879472e-16 -0.0114952721)
(250.0249471 -2.070572652e-16 -0.008228999227)
(250.0195038 1.832990481e-15 -0.004652353596)
(250.0122837 -3.03412861e-15 -0.004457086189)
(201.7629257 1.882453523e-19 -16.03540138)
(242.0518099 0 -18.69117055)
(264.54327 1.505267821e-19 -20.45467037)
(282.6406452 -1.450554666e-19 -21.95786472)
(300.048507 -3.143860473e-19 -23.44831602)
(316.5622919 0 -25.00516582)
(325.0067695 7.04894815e-19 -25.91673288)
(326.2641512 -1.304869296e-18 -25.94840845)
(325.9099581 1.133667466e-18 -26.04537737)
(325.5884079 -9.537788571e-19 -25.9343053)
(325.1393145 0 -26.03964709)
(324.6835 8.508796248e-17 -25.95825812)
(324.1155835 -7.105511502e-17 -26.02218543)
(323.4771827 6.154241135e-17 -25.98582238)
(322.7179812 -4.992122654e-17 -26.0163827)
(321.8355482 5.252195262e-18 -26.00715698)
(320.7967961 0 -26.0207023)
(319.5787581 -6.333066274e-17 -26.02012712)
(318.1479849 4.99800915e-17 -26.02170948)
(316.4698364 -1.059811968e-17 -26.01193733)
(314.5049905 8.938188158e-18 -25.98832519)
(312.2120743 0 -25.93812846)
(309.5497233 0 -25.84551299)
(306.4811255 0 -25.68571908)
(302.9813046 0 -25.42441138)
(299.0478441 -6.380812648e-17 -25.01581372)
(294.7149498 -3.835443886e-19 -24.40368416)
(290.0673324 -2.327822167e-17 -23.52724546)
(285.2456073 2.68491922e-19 -22.33497514)
(280.4336054 1.685833739e-17 -20.80424687)
(275.8261274 -2.93241127e-17 -18.95789598)
(271.5889876 1.248336744e-16 -16.86749229)
(267.8293913 -8.539949413e-17 -14.64038576)
(264.587669 -7.224504401e-17 -12.39694417)
(261.848735 1.229174805e-16 -10.24803491)
(259.5634067 -1.043704029e-16 -8.279783987)
(257.6693292 0 -6.547324816)
(256.1055181 -1.879974271e-16 -5.075675711)
(254.8193532 -2.853929795e-16 -3.864847139)
(253.7677962 1.068630973e-16 -2.896732038)
(252.9156078 1.052649168e-19 -2.142124119)
(252.2328599 2.655547156e-16 -1.566854322)
(251.6930495 -5.106615175e-16 -1.136501509)
(251.2721562 4.295532665e-16 -0.8195053857)
(250.9484573 1.442674946e-15 -0.5888204499)
(250.7026896 1.514049503e-16 -0.4224377457)
(250.5182387 -1.269273977e-16 -0.3031491564)
(250.3811947 0 -0.2179093832)
(250.2802395 -1.604501033e-15 -0.1570653949)
(250.2063942 1.491933291e-16 -0.1135979771)
(250.152688 2.246058162e-15 -0.08246701397)
(250.1138005 3.127530681e-15 -0.06008233948)
(250.0857235 4.176350903e-15 -0.04389616384)
(250.0654442 0 -0.03210856495)
(250.0506881 0 -0.02345444865)
(250.0397451 -1.60560611e-15 -0.01703654662)
(250.031339 1.664866821e-16 -0.01223539363)
(250.0246565 -2.756070226e-16 -0.008705783671)
(250.0193716 -1.820460748e-15 -0.004869287224)
(250.0121449 -5.849498559e-18 -0.004590113177)
(204.1244958 -1.997864497e-19 -19.36841112)
(245.2244375 2.171388843e-16 -22.70991295)
(268.1672668 -3.389803845e-16 -24.836523)
(286.8220263 1.653266152e-16 -26.68206158)
(304.7600476 3.526969507e-19 -28.52428083)
(320.2363564 1.924772209e-16 -30.27640668)
(325.9082248 -1.903632105e-16 -30.9843626)
(326.3695032 1.35136328e-18 -30.91899598)
(325.6543678 -1.471692231e-16 -31.01906138)
(325.3064315 1.241897506e-16 -30.88361297)
(324.8146359 -1.62369875e-18 -30.99339654)
(324.3104718 0 -30.90259419)
(323.6832013 -3.044211234e-21 -30.96155008)
(322.9743804 -3.815910828e-18 -30.91797582)
(322.1311417 3.197749483e-18 -30.93804685)
(321.1485137 3.2341677e-17 -30.91759542)
(319.9909798 -3.611399142e-17 -30.91431504)
(318.6323163 0 -30.89281827)
(317.0361497 6.452447915e-18 -30.86496246)
(315.1647054 -3.279915173e-17 -30.81555205)
(312.976218 3.663248989e-17 -30.73716716)
(310.4280598 1.566385174e-17 -30.61195161)
(307.480159 0 -30.41663868)
(304.1013802 -2.265980765e-17 -30.11749683)
(300.2793617 0 -29.66951285)
(296.0340339 -3.663815622e-19 -29.01587848)
(291.4329838 2.793131241e-17 -28.09201678)
(286.6018132 4.782995527e-17 -26.83703579)
(281.7189638 -4.09795089e-17 -25.21292737)
(276.9888638 0 -23.22477804)
(272.6004775 0 -20.93063372)
(268.6892595 9.586937678e-19 -18.43403462)
(265.3187437 -6.934176465e-19 -15.86256552)
(262.4855376 3.753633811e-17 -13.34268653)
(260.1398739 -1.590256492e-16 -10.9801685)
(258.210116 -2.698304571e-17 -8.850035658)
(256.6225897 2.053059176e-16 -6.994975054)
(255.3132302 -2.706788813e-16 -5.429114281)
(254.2316163 2.600198314e-16 -4.144277974)
(253.3398872 2.751754766e-17 -3.116837202)
(252.6093711 -9.23892812e-17 -2.314110494)
(252.0170473 3.88499829e-17 -1.699764455)
(251.5429781 6.543406331e-17 -1.237922219)
(251.168955 -9.339712823e-16 -0.8958900982)
(250.8781141 -7.38024112e-16 -0.6456216288)
(250.6550617 0 -0.4641760229)
(250.4861427 1.037994498e-15 -0.3334860228)
(250.3596325 0 -0.239740778)
(250.2657813 0 -0.1726320175)
(250.1967101 0 -0.12460079)
(250.1462059 -4.189645374e-15 -0.09017665816)
(250.1094643 -1.58852761e-15 -0.06543536433)
(250.0828262 -2.823020705e-15 -0.04757547718)
(250.0635132 -2.494825828e-15 -0.03460752099)
(250.0494116 -1.827705844e-15 -0.02512556344)
(250.038913 0 -0.01812994993)
(250.0308021 0 -0.01292929468)
(250.0243099 1.376021587e-16 -0.009153671665)
(250.0192081 1.809387393e-15 -0.005078808932)
(250.011992 -1.156412134e-17 -0.004720285095)
(205.9387156 2.122799891e-19 -22.85320944)
(247.8581886 0 -26.8631574)
(271.3031999 1.822191519e-19 -29.40127572)
(290.5875421 -8.486507047e-22 -31.62168014)
(308.9339594 -2.00406439e-16 -33.85610117)
(322.2023359 2.090477611e-16 -35.60775555)
(325.6993698 0 -36.06268336)
(325.1456531 0 -35.92187326)
(324.7216843 1.504616895e-16 -36.04525255)
(324.3395035 2.075370592e-19 -35.89590371)
(323.7973854 -1.058436136e-16 -36.00805305)
(323.2356889 0 -35.90853739)
(322.5391077 2.320073005e-18 -35.95940057)
(321.7481496 6.63733383e-17 -35.9068354)
(320.8078793 -5.559410509e-17 -35.91187212)
(319.7103317 5.500841452e-18 -35.87480148)
(318.4177002 -4.657580733e-18 -35.84692345)
(316.9004303 7.858012282e-18 -35.7944061)
(315.1193903 -5.302472317e-17 -35.72401366)
(313.0340508 -3.825562272e-19 -35.61819033)
(310.6010962 8.528045958e-17 -35.46366199)
(307.7784629 -4.797149304e-17 -35.23607035)
(304.5306279 0 -34.90310216)
(300.8373552 -2.790457902e-19 -34.42044694)
(296.7063465 1.971031872e-17 -33.73163886)
(292.1887783 3.378706575e-17 -32.77023475)
(287.3929757 0 -31.4686998)
(282.4862721 0 -29.77595433)
(277.6755991 -2.151742052e-17 -27.67936488)
(273.168107 1.813231167e-17 -25.22031769)
(269.1273926 0 -22.49334949)
(265.6447215 -1.329639838e-16 -19.62807468)
(262.7350777 1.357987052e-16 -16.76277412)
(260.3540453 -1.919730621e-17 -14.02082087)
(258.4238888 -6.690358937e-19 -11.49639219)
(256.8579703 -2.21876779e-16 -9.249966531)
(255.577568 -4.447039433e-16 -7.310649452)
(254.5199652 4.137823661e-16 -5.681870691)
(253.6396185 -3.328552251e-17 -4.348038074)
(252.9051721 0 -3.280921035)
(252.2949539 -4.733727412e-17 -2.44525379)
(251.7927759 -5.971485001e-16 -1.803347862)
(251.3849706 0 -1.31859132)
(251.0588078 0 -0.9577887908)
(250.8020024 -7.541561427e-16 -0.6924330759)
(250.6028372 0 -0.499099009)
(250.4505041 -9.265698645e-16 -0.3592169446)
(250.3354144 1.661768233e-15 -0.2584855389)
(250.2493784 -9.261900438e-17 -0.1861464985)
(250.1856316 -2.397547233e-15 -0.1342501377)
(250.1387431 2.193158721e-15 -0.09700146015)
(250.1044513 -3.545963312e-15 -0.07021587994)
(250.0794704 0 -0.05088913021)
(250.0612779 2.373407715e-15 -0.03687682699)
(250.0479369 5.897734699e-15 -0.0266558093)
(250.0379537 0 -0.01913972318)
(250.0301882 1.673177814e-16 -0.01357496984)
(250.0239123 -1.374306916e-16 -0.009571966359)
(250.0190126 1.799635347e-15 -0.005279402114)
(250.0118151 5.871411314e-15 -0.004847920389)
(207.188558 -9.225379091e-16 -26.44914868)
(249.9340614 2.545257931e-16 -31.14202565)
(273.984885 -2.008464569e-19 -34.1389528)
(293.9292107 4.023913369e-19 -36.7720817)
(312.3157782 4.277969968e-19 -39.39942695)
(322.821028 -2.210983859e-16 -40.91115921)
(323.9103427 2.059403315e-16 -41.15618152)
(323.661469 0 -40.98422671)
(323.1350305 1.535403035e-16 -41.13740718)
(322.7092229 2.370424761e-19 -40.96677501)
(322.1108612 -1.063976128e-16 -41.07442493)
(321.4838779 0 -40.96286443)
(320.7095314 2.385073844e-18 -40.99816051)
(319.8261144 0 -40.93052421)
(318.7770499 -2.330425287e-20 -40.9121546)
(317.5508449 0 -40.8493212)
(316.1074334 -3.824515933e-17 -40.78569748)
(314.4138599 -1.537161349e-19 -40.68868554)
(312.4285501 2.029709212e-17 -40.55908397)
(310.1090932 4.622906934e-17 -40.37569271)
(307.4124525 -4.851541673e-17 -40.11787775)
(304.3003454 -1.669625689e-17 -39.7529678)
(300.7467686 -2.841694491e-17 -39.23809153)
(296.7493321 2.388224761e-17 -38.51758001)
(292.3443161 2.073629034e-17 -37.52457869)
(287.6221192 1.807826635e-17 -36.18755035)
(282.7347875 0 -34.44518125)
(277.8847262 -5.212796846e-17 -32.26839185)
(273.2906976 8.921954534e-17 -29.68029915)
(269.141683 5.719265627e-17 -26.76212992)
(265.5590052 1.460552088e-16 -23.6402483)
(262.5819802 1.106146698e-16 -20.46045191)
(260.1783141 0 -17.36116218)
(258.269357 0 -14.45467639)
(256.7578123 1.003946661e-16 -11.81913026)
(255.5494927 2.551409486e-16 -9.498933272)
(254.5660927 1.916212923e-16 -7.509861247)
(253.7496944 3.234457605e-16 -5.84567653)
(253.0614757 5.463349868e-16 -4.484563833)
(252.4773159 4.600122297e-16 -3.39477003)
(251.9825846 -4.838223683e-17 -2.53933973)
(251.5676073 6.90895087e-16 -1.879961184)
(251.2245319 -1.093105453e-15 -1.37989685)
(250.9456555 -5.734432426e-17 -1.005966301)
(250.7228962 8.171845926e-16 -0.7296397871)
(250.5479361 -8.057604734e-17 -0.5273736832)
(250.4126306 6.742016137e-17 -0.3803927081)
(250.3094174 -3.608959108e-15 -0.2741387416)
(250.2316098 0 -0.1975819166)
(250.1735346 2.514736434e-15 -0.1425144354)
(250.1305392 -2.095011548e-15 -0.1029130522)
(250.0989111 6.969936246e-15 -0.07440150886)
(250.0757473 -1.808350113e-16 -0.05382095037)
(250.0587917 -2.247245235e-15 -0.03890563959)
(250.0462937 -3.838437129e-15 -0.02803844702)
(250.0368834 -3.36780445e-15 -0.020062015)
(250.0295042 0 -0.0141709813)
(250.0234672 0 -0.009960194553)
(250.0187877 -3.58216087e-15 -0.005471226386)
(250.0116173 -5.806320232e-15 -0.004972908097)
(207.9388795 6.723660748e-20 -30.14269599)
(251.5627401 -2.77023715e-16 -35.55815355)
(276.297727 0 -39.06083648)
(296.8631715 4.516002095e-19 -42.15610359)
(314.5017581 -9.392202137e-19 -45.06805242)
(322.1766089 0 -46.172671)
(321.8994161 -2.126305406e-16 -46.30936573)
(321.4895072 1.843111135e-16 -46.09314837)
(320.9367912 -1.245648851e-18 -46.24810361)
(320.4606263 0 -46.05985227)
(319.7989736 3.468216035e-18 -46.15828145)
(319.0975232 9.278008481e-17 -46.03385215)
(318.2354003 -2.156318643e-18 -46.04828441)
(317.2474478 2.644510832e-19 -45.96075476)
(316.0758528 -5.836074131e-17 -45.91147186)
(314.7051663 0 -45.81356586)
(313.0932557 4.865453727e-18 -45.70196273)
(311.2041213 -8.217888321e-18 -45.54444002)
(308.9947115 -2.806867944e-17 -45.33470149)
(306.4225355 1.163011463e-17 -45.04628363)
(303.447763 2.022624774e-17 -44.6497256)
(300.0402903 7.364326399e-21 -44.10271272)
(296.1897744 0 -43.35130355)
(291.9194999 2.509765053e-17 -42.32933949)
(287.3024408 4.224423868e-19 -40.96325624)
(282.4729115 -1.813259114e-17 -39.18443303)
(277.622965 0 -36.94971121)
(272.97565 1.071789508e-16 -34.26376458)
(268.7403476 -1.140809379e-16 -31.1913593)
(265.0682697 -5.836817941e-17 -27.85074335)
(262.0274218 -1.3269994e-16 -24.39048074)
(259.6043039 1.521673591e-17 -20.96085437)
(257.7256842 -3.609222245e-17 -17.69082327)
(256.2878328 -3.065499628e-16 -14.67586997)
(255.1825329 -2.934728912e-16 -11.97591002)
(254.314617 -1.895220419e-16 -9.619439591)
(253.6104653 3.687828039e-16 -7.610165777)
(253.0193394 3.521451408e-16 -5.933713961)
(252.5101922 -1.132945545e-15 -4.563423118)
(252.0663533 -4.39819638e-16 -3.465108109)
(251.6799718 -2.465982286e-17 -2.600945297)
(251.3473976 -4.148776254e-17 -1.932621602)
(251.0660429 1.113998429e-15 -1.423763934)
(250.8327184 9.056986293e-16 -1.041610401)
(250.6431201 4.895526466e-17 -0.7579491019)
(250.4920071 0 -0.5494051505)
(250.3736714 -2.195654942e-15 -0.3972349552)
(250.2824291 1.834547838e-15 -0.286814743)
(250.2130064 -9.570381707e-17 -0.2069924605)
(250.1607706 -1.090797204e-20 -0.1494158126)
(250.1218227 1.990563089e-16 -0.1079176542)
(250.0929886 -3.638637772e-15 -0.07799144868)
(250.0717463 0 -0.05636772679)
(250.0561081 2.570235403e-15 -0.04069054194)
(250.0445127 -1.247038997e-16 -0.02927071852)
(250.0357188 3.281493294e-15 -0.02089492471)
(250.0287579 -2.689032438e-15 -0.01471662282)
(250.0229784 0 -0.01031807216)
(250.0185344 3.56724443e-15 -0.005654247634)
(250.0113972 5.759112289e-15 -0.005095082192)
(208.2268169 -5.215353047e-16 -33.93003532)
(252.8169755 -3.025886603e-16 -40.11495266)
(278.3017864 2.529804773e-16 -44.17565143)
(299.4477378 -4.958074393e-19 -47.79080384)
(315.2446472 -2.576035059e-16 -50.71597312)
(319.4445321 4.863374518e-16 -51.33729587)
(319.1660447 -2.178848615e-16 -51.45424499)
(318.7641415 1.470796506e-18 -51.22678923)
(318.1589335 -1.580365509e-16 -51.39117639)
(317.6245382 -3.094597329e-19 -51.18092752)
(316.8917817 1.091875571e-16 -51.2611648)
(316.1056269 -9.783298648e-17 -51.11888346)
(315.1444555 7.941361362e-17 -51.10364225)
(314.0385545 0 -50.98744034)
(312.7294056 -4.949946085e-17 -50.89584628)
(311.1975599 9.504962965e-17 -50.74892042)
(309.3994297 -2.987865871e-17 -50.57169942)
(307.2969221 3.407880009e-17 -50.33101259)
(304.8470968 -2.859963639e-17 -50.01236186)
(302.0098693 -2.470811974e-17 -49.58257443)
(298.752298 2.059614772e-17 -49.00234868)
(295.0577457 1.782451265e-17 -48.21903111)
(290.9386064 0 -47.16811314)
(286.4519199 0 -45.77579093)
(281.7134433 -4.374550325e-17 -43.96864517)
(276.9004945 -3.815826108e-17 -41.69212639)
(272.2335457 0 -38.93376335)
(267.9358819 -1.108774991e-16 -35.74019678)
(264.1858818 -9.537967497e-17 -32.21734224)
(261.0825204 2.026619168e-17 -28.5117653)
(258.6368234 1.2096711e-16 -24.78182063)
(256.787701 -1.015034519e-16 -21.17107562)
(255.4305386 -1.85735469e-16 -17.79176549)
(254.4463114 3.123099348e-16 -14.71944748)
(253.723655 2.815125512e-16 -11.99567065)
(253.1716119 2.376113257e-16 -9.634409005)
(252.7242156 -4.258330606e-16 -7.629159442)
(252.3392927 -3.165515727e-16 -5.959141551)
(251.9939599 5.685986332e-16 -4.594222681)
(251.6788139 -2.992769362e-17 -3.498785585)
(251.3923088 8.301661477e-16 -2.634840045)
(251.1362289 4.225677144e-17 -1.964570363)
(250.9126567 2.228497333e-20 -1.452342054)
(250.7223838 -9.808887424e-16 -1.066112203)
(250.5644443 -4.982188425e-17 -0.7782397156)
(250.4363362 -1.445094843e-20 -0.5657349754)
(250.3345427 4.496572699e-15 -0.4100691023)
(250.2550899 0 -0.2967037819)
(250.1940073 -9.710456928e-17 -0.2144858962)
(250.1476352 1.617063487e-16 -0.1550129964)
(250.1127882 2.083583756e-15 -0.1120456642)
(250.0868092 0 -0.08100030184)
(250.0675459 0 -0.05853566118)
(250.0532746 -1.524726039e-16 -0.04223357385)
(250.0426213 4.142504881e-15 -0.03035281066)
(250.0344749 1.030077938e-16 -0.02163798843)
(250.027956 2.610432099e-15 -0.01521167303)
(250.0224495 -1.096767634e-15 -0.01064545649)
(250.0182542 -1.777170767e-15 -0.005828341263)
(250.0111552 -5.739979234e-15 -0.005214105889)
(208.054923 0 -37.80688319)
(253.7489573 6.436861481e-19 -44.82120765)
(279.9846287 0 -49.50016968)
(301.4423832 -2.789449919e-16 -53.64343324)
(314.7093856 7.740496291e-19 -56.31324248)
(316.5849428 5.048897851e-16 -56.54191935)
(315.9163428 -2.231496752e-16 -56.65318083)
(315.4893274 -1.921814457e-16 -56.37179956)
(314.8269387 -2.916832835e-18 -56.53729301)
(314.2250999 1.393521945e-16 -56.30778303)
(313.4122374 0 -56.36305222)
(312.5300846 9.998243791e-17 -56.19859862)
(311.4578134 -8.634053291e-17 -56.1451595)
(310.2203827 6.869185943e-17 -55.99016291)
(308.7592803 -5.031086338e-17 -55.84227051)
(307.0513091 0 -55.62800312)
(305.0521709 -1.023375805e-17 -55.36185746)
(302.7228484 -3.503539036e-17 -55.00857626)
(300.0224371 -3.186801687e-19 -54.54475993)
(296.9164092 6.269976595e-17 -53.929386)
(293.3834474 -2.122940147e-17 -53.1126734)
(289.4269588 -1.807944512e-17 -52.03163888)
(285.0899754 1.569745513e-17 -50.61323838)
(280.4702681 -1.320712177e-17 -48.78170345)
(275.7279406 6.912880932e-17 -46.47409083)
(271.0748145 -2.009285869e-17 -43.66276444)
(266.741005 -8.440192409e-17 -40.37600338)
(262.9273148 8.541732214e-17 -36.70449024)
(259.7634304 7.264822094e-17 -32.78818092)
(257.2890959 -1.05048821e-17 -28.78936173)
(255.4617486 -1.052453866e-16 -24.86355614)
(254.1821582 -1.199753796e-16 -21.13868003)
(253.3250966 1.890584372e-16 -17.70593024)
(252.7652927 1.712378718e-16 -14.62026054)
(252.3944925 0 -11.90623666)
(252.1296161 0 -9.5654457)
(251.914116 -4.097050122e-16 -7.583270308)
(251.7149479 3.447886587e-16 -5.934232836)
(251.5172787 5.981245409e-16 -4.585978218)
(251.3185164 -5.027906559e-16 -3.502309757)
(251.1228184 -1.612185378e-15 -2.645634108)
(250.9367713 6.662423565e-16 -1.979010383)
(250.766532 1.189823001e-15 -1.467812383)
(250.6163514 -3.020676555e-17 -1.08092759)
(250.4881729 0 -0.7914643318)
(250.3818996 4.233862802e-17 -0.5769744601)
(250.2959586 -2.299207704e-15 -0.4192797283)
(250.227911 5.904743241e-17 -0.3040428852)
(250.1749711 -4.920010429e-17 -0.220205068)
(250.1343746 0 -0.1593898607)
(250.1036012 0 -0.1153447773)
(250.0804812 1.127119057e-16 -0.08345407852)
(250.0632151 2.981926247e-15 -0.06033813844)