/*--------------------------------*- C++ -*----------------------------------*\
  =========                 |
  \\      /  F ield         | OpenFOAM: The Open Source CFD Toolbox
   \\    /   O peration     | Website:  https://openfoam.org
    \\  /    A nd           | Version:  12
     \\/     M anipulation  |
\*---------------------------------------------------------------------------*/
FoamFile
{
    format      ascii;
    class       volScalarField;
    location    "0.066";
    object      p;
}
// * * * * * * * * * * * * * * * * * * * * * * * * * * * * * * * * * * * * * //

dimensions      [1 -1 -2 0 0 0 0];

internalField   nonuniform List<scalar> 
16000
(
89384.062
89511.522
89523.437
89659.508
89685.849
89814.799
89865.696
89983.79
90058.381
90170.682
90263.767
90375.951
90483.257
90599.796
90718.252
90842.209
90970.275
91103.057
91240.432
91382.489
91529.238
91680.687
91836.817
91997.588
92162.931
92332.751
92506.922
92685.286
92867.653
93053.796
93243.456
93436.336
93632.104
93830.396
94030.815
94232.932
94436.293
94640.42
94844.816
95048.968
95252.353
95454.447
95654.726
95852.673
96047.788
96239.592
96427.63
96611.477
96790.745
96965.079
97134.166
97297.733
97455.55
97607.432
97753.231
97892.844
98026.202
98153.272
98274.055
98388.584
98496.918
98599.14
98695.363
98785.725
98870.401
98949.599
99023.571
99092.608
99157.048
99217.282
99273.771
99327.07
99377.845
99426.835
99474.475
99521.689
99577.709
99578.262
99760.972
99555.358
88997.732
89142.26
89151.655
89299.913
89327.782
89467.807
89521.082
89650.596
89729.018
89851.544
89951.058
90072.255
90187.934
90313.398
90441.176
90574.683
90712.713
90855.756
91003.733
91156.701
91314.657
91477.581
91645.427
91818.119
91995.551
92177.584
92364.045
92554.724
92749.376
92947.717
93149.425
93354.139
93561.466
93770.973
93982.198
94194.651
94407.816
94621.157
94834.125
95046.164
95256.714
95465.222
95671.147
95873.965
96073.181
96268.328
96458.976
96644.731
96825.245
97000.212
97169.371
97332.506
97489.449
97640.072
97784.291
97922.057
98053.359
98178.215
98296.676
98408.818
98514.743
98614.571
98708.447
98796.543
98879.054
98956.211
99028.273
99095.538
99158.345
99217.091
99272.238
99324.331
99374.009
99421.961
99469.141
99517.923
99563.425
99598.384
99728.984
99572.151
88643.721
88803.957
88813.051
88974.894
89002.753
89156.666
89211.603
89353.543
89436.854
89569.971
89677.32
89808.174
89933.505
90068.918
90207.232
90351.506
90500.747
90655.319
90815.158
90980.281
91150.656
91326.227
91506.908
91692.579
91883.088
92078.243
92277.816
92481.537
92689.097
92900.142
93114.279
93331.076
93550.062
93770.731
93992.547
94214.95
94437.358
94659.177
94879.806
95098.649
95315.116
95528.635
95738.659
95944.675
96146.203
96342.808
96534.102
96719.744
96899.443
97072.958
97240.1
97400.726
97554.741
97702.092
97842.762
97976.772
98104.172
98225.038
98339.473
98447.599
98549.559
98645.512
98735.635
98820.13
98899.219
98973.148
99042.19
99106.646
99166.863
99223.245
99276.265
99326.46
99374.437
99420.931
99467.222
99514.492
99557.596
99606.712
99705.694
99584.184
88325.991
88497.161
88507.293
88684.664
88711.976
88882.225
88939.361
89095.715
89184.868
89330.134
89446.82
89588.713
89725.348
89872.206
90022.613
90179.171
90341.094
90508.623
90681.698
90860.297
91044.354
91233.778
91428.44
91628.173
91832.769
92041.979
92255.505
92473.005
92694.089
92918.323
93145.226
93374.277
93604.916
93836.552
94068.567
94300.322
94531.168
94760.454
94987.533
95211.775
95432.574
95649.354
95861.582
96068.769
96270.478
96466.328
96655.993
96839.207
97015.758
97185.494
97348.311
97504.159
97653.028
97794.95
97929.989
98058.238
98179.817
98294.862
98403.53
98505.989
98602.423
98693.026
98778.008
98857.595
98932.032
99001.581
99066.521
99127.16
99183.846
99236.991
99287.071
99334.619
99380.241
99424.747
99469.308
99514.164
99556.888
99610.702
99688.733
99593.971
88047.437
88233.725
88240.419
88436.794
88463.069
88652.031
88711.479
88884.204
88980.577
89139.452
89267.317
89421.515
89571.057
89730.688
89894.512
90064.627
90240.457
90422.152
90609.654
90802.91
91001.821
91206.251
91416.017
91630.89
91850.588
92074.78
92303.081
92535.05
92770.199
93007.986
93247.825
93489.089
93731.117
93973.22
94214.689
94454.811
94692.872
94928.168
95160.023
95387.789
95610.863
95828.691
96040.779
96246.691
96446.06
96638.584
96824.03
97002.228
97173.074
97336.517
97492.563
97641.262
97782.704
97917.014
98044.341
98164.857
98278.749
98386.216
98487.464
98582.705
98672.16
98756.054
98834.623
98908.113
98976.787
99040.913
99100.779
99156.69
99208.997
99258.113
99304.51
99348.717
99391.376
99433.317
99475.43
99517.618
99559.849
99614.396
99676.719
99603.139
87813.285
88017.362
88022.01
88239.647
88264.77
88474.511
88536.249
88727.076
88831.943
89005.34
89145.788
89312.932
89476.403
89649.714
89827.959
90012.743
90203.674
90400.82
90604.099
90813.405
91028.579
91249.411
91475.634
91706.924
91942.898
92183.111
92427.058
92674.179
92923.853
93175.414
93428.149
93681.312
93934.126
94185.802
94435.546
94682.571
94926.112
95165.436
95399.856
95628.738
95851.512
96067.679
96276.816
96478.578
96672.699
96858.991
97037.34
97207.703
97370.098
97524.601
97671.336
97810.468
97942.191
98066.727
98184.312
98295.193
98399.624
98497.859
98590.149
98676.745
98757.898
98833.858
98904.877
98971.218
99033.147
99090.939
99144.878
99195.268
99242.458
99286.851
99328.905
99369.148
99408.256
99447.018
99486.031
99525.288
99566.398
99619.536
99669.06
99613.055
87624.934
87850.16
87851.958
88094.531
88118.596
88352.74
88417.76
88628.322
88741.788
88929.079
89083.011
89263.675
89442.373
89630.842
89825.17
90026.46
90234.404
90448.967
90669.998
90897.303
91130.627
91369.653
91613.998
91863.209
92116.767
92374.085
92634.509
92897.326
93161.767
93427.015
93692.219
93956.502
94218.975
94478.752
94734.965
94986.777
95233.398
95474.098
95708.217
95935.173
96154.474
96365.718
96568.598
96762.899
96948.494
97125.343
97293.481
97453.012
97604.1
97746.958
97881.838
98009.02
98128.807
98241.512
98347.453
98446.947
98540.304
98627.825
98709.798
98786.503
98858.211
98925.188
98987.699
99046.007
99100.379
99151.083
99198.397
99242.619
99284.088
99323.191
99360.359
99396.122
99431.173
99466.184
99501.536
99537.574
99576.858
99626.888
99665.872
99625.693
87476.468
87726.554
87723.964
87996.63
88017.567
88278.927
88347.216
88577.124
88702.283
88905.7
89076.682
89273.629
89470.548
89677.092
89890.316
90110.895
90338.555
90573.154
90814.448
91062.134
91315.831
91575.084
91839.357
92108.038
92380.437
92655.79
92933.264
93211.969
93490.962
93769.267
94045.885
94319.815
94590.065
94855.674
95115.731
95369.386
95615.868
95854.496
96084.691
96305.98
96518.002
96720.505
96913.346
97096.484
97269.971
97433.945
97588.615
97734.252
97871.172
97999.732
98120.31
98233.301
98339.103
98438.114
98530.721
98617.296
98698.194
98773.748
98844.273
98910.063
98971.402
99028.562
99081.807
99131.396
99177.586
99220.631
99260.795
99298.364
99333.662
99367.048
99398.925
99429.824
99460.412
99491.192
99522.454
99555.076
99591.902
99637.162
99667.549
99643.002
87365.289
87644.094
87637.034
87947.208
87962.211
88252.674
88326.17
88578.17
88720.247
88942.417
89134.235
89350.501
89568.82
89796.652
90031.884
90274.837
90525.206
90782.721
91047.008
91317.61
91593.982
91875.488
92161.398
92450.894
92743.077
93036.968
93331.525
93625.656
93918.236
94208.123
94494.182
94775.307
95050.434
95318.573
95578.816
95830.362
96072.521
96304.735
96526.572
96737.736
96938.06
97127.502
97306.134
97474.129
97631.753
97779.343
97917.296
98046.052
98166.085
98277.884
98381.944
98478.758
98568.807
98652.55
98730.427
98802.848
98870.192
98932.813
98991.032
99045.151
99095.452
99142.202
99185.655
99226.055
99263.643
99298.653
99331.33
99361.942
99390.787
99418.187
99444.519
99470.31
99496.151
99522.352
99549.278
99578.425
99612.201
99651.251
99674.982
99666.214
87293.748
87606.111
87595.953
87943.522
87957.598
88280.529
88365.652
88643.233
88805.661
89048.724
89265.164
89504.083
89747.191
89999.827
90260.479
90529.157
90805.452
91088.923
91379.016
91675.07
91976.32
92281.891
92590.805
92901.988
93214.282
93526.461
93837.249
94145.342
94449.432
94748.234
95040.507
95325.084
95600.894
95866.983
96122.532
96366.869
96599.482
96820.017
97028.279
97224.222
97407.943
97579.663
97739.711
97888.506
98026.542
98154.362
98272.55
98381.708
98482.444
98575.364
98661.056
98740.086
98812.99
98880.27
98942.391
98999.779
99052.821
99101.869
99147.24
99189.226
99228.097
99264.104
99297.482
99328.455
99357.237
99384.041
99409.087
99432.621
99454.905
99476.22
99496.919
99517.512
99538.454
99559.881
99582.428
99608.154
99638.325
99670.271
99689.286
99696.075
87268.745
87621.026
87606.855
87995.363
88013.427
88373.258
88473.781
88778.986
88967.511
89234.412
89479.793
89745.4
90017.13
90298.48
90588.301
90886.317
91191.943
91504.51
91823.21
92147.108
92475.139
92806.12
93138.756
93471.664
93803.388
94132.43
94457.273
94776.417
95088.401
95391.846
95685.476
95968.15
96238.887
96496.881
96741.516
96972.369
97189.213
97392.004
97580.867
97756.084
97918.068
98067.34
98204.509
98330.246
98445.266
98550.306
98646.11
98733.413
98812.93
98885.346
98951.311
99011.432
99066.269
99116.337
99162.102
99203.982
99242.351
99277.542
99309.853
99339.554
99366.892
99392.091
99415.361
99436.897
99456.885
99475.512
99492.976
99509.491
99525.28
99540.583
99555.736
99571.202
99587.248
99603.896
99622.217
99644.601
99670.541
99695.044
99711.644
99733.355
87299.455
87699.228
87681.068
88118.217
88141.466
88541.522
88661.898
88996.588
89217.038
89511.158
89789.929
90086.805
90391.461
90705.883
91029.035
91360.323
91698.883
92043.715
92393.658
92747.395
93103.473
93460.321
93816.267
94169.578
94518.485
94861.218
95196.052
95521.34
95835.554
96137.322
96425.459
96698.994
96957.187
97199.536
97425.775
97635.866
97829.984
98008.486
98171.895
98320.861
98456.14
98578.559
98688.995
98788.346
98877.516
98957.394
99028.841
99092.682
99149.692
99200.596
99246.063
99286.705
99323.075
99355.67
99384.931
99411.247
99434.96
99456.371
99475.743
99493.315
99509.298
99523.886
99537.253
99549.563
99560.975
99571.648
99581.753
99591.475
99600.995
99610.521
99620.383
99630.955
99642.286
99654.382
99668.837
99687.966
99709.054
99726.227
99742.881
99778.593
87387.043
87843.303
87821.792
88314.407
88346.247
88790.387
88938.325
89305.151
89564.767
89890.986
90208.4
90542.119
90884.866
91237.416
91598.602
91967.406
92342.539
92722.536
93105.752
93490.388
93874.515
94256.11
94633.094
95003.372
95364.88
95715.641
96053.808
96377.721
96685.942
96977.296
97250.893
97506.136
97742.726
97960.643
98160.129
98341.653
98505.878
98653.627
98785.838
98903.535
99007.793
99099.709
99180.376
99250.866
99312.211
99365.392
99411.329
99450.88
99484.831
99513.899
99538.733
99559.912
99577.951
99593.302
99606.36
99617.466
99626.916
99634.963
99641.83
99647.711
99652.78
99657.189
99661.078
99664.577
99667.814
99670.924
99674.052
99677.351
99680.966
99685.093
99690.052
99696.098
99703.072
99711.103
99722.282
99738.286
99754.005
99764.404
99783.404
99832.072
87536.598
88059.894
88035.686
88591.261
88638.173
89130.399
89315.347
89717.767
90024.486
90389.287
90751.564
91128.76
91515.679
91912.024
92316.212
92726.632
93141.403
93558.452
93975.54
94390.291
94800.242
95202.888
95595.745
95976.415
96342.649
96692.418
97023.969
97335.872
97627.058
97896.826
98144.847
98371.144
98576.059
98760.216
98924.473
99069.872
99197.592
99308.903
99405.129
99487.605
99557.656
99616.567
99665.569
99705.823
99738.415
99764.345
99784.529
99799.8
99810.902
99818.504
99823.195
99825.491
99825.843
99824.637
99822.204
99818.824
99814.736
99810.139
99805.205
99800.082
99794.9
99789.77
99784.793
99780.066
99775.688
99771.769
99768.431
99765.793
99763.979
99763.191
99763.728
99765.704
99768.816
99773.487
99782.184
99795.341
99805.486
99810.22
99833.257
99893.465
87754.791
88358.253
88333.307
88960.386
89029.742
89574.203
89807.63
90250.998
90614.009
91026.069
91440.867
91869.216
92306.975
92752.782
93204.385
93659.416
94115.25
94569.086
95017.983
95458.922
95888.881
96304.919
96704.27
97084.432
97443.25
97778.981
98090.338
98376.51
98637.153
98872.369
99082.655
99268.854
99432.087
99573.689
99695.152
99798.059
99884.04
99954.727
100011.72
100056.56
100090.7
100115.52
100132.28
100142.14
100146.17
100145.3
100140.39
100132.2
100121.38
100108.52
100094.12
100078.61
100062.36
100045.67
100028.81
100011.97
99995.345
99979.067
99963.256
99948.013
99933.422
99919.552
99906.467
99894.232
99882.921
99872.619
99863.422
99855.424
99848.741
99843.593
99840.241
99838.639
99838.462
99840.577
99847.636
99858.408
99863.386
99864.294
99892.856
99961.839
88047.934
88747.16
88724.431
89432.793
89536.193
90138.935
90435.767
90928.823
91358.846
91828.641
92304.426
92791.626
93286.305
93786.004
94287.591
94787.758
95282.964
95769.532
96243.737
96701.93
97140.664
97556.819
97947.726
98311.248
98645.841
98950.579
99225.137
99469.754
99685.163
99872.516
100033.3
100169.23
100282.22
100374.24
100447.31
100503.42
100544.51
100572.4
100588.83
100595.41
100593.59
100584.72
100570
100550.5
100527.18
100500.89
100472.35
100442.2
100411
100379.21
100347.23
100315.39
100283.96
100253.17
100223.19
100194.16
100166.19
100139.37
100113.76
100089.42
100066.38
100044.68
100024.35
100005.42
99987.938
99971.973
99957.593
99944.872
99933.939
99925.03
99918.338
99913.671
99910.819
99911.146
99917.171
99925.92
99926.7
99925.885
99961.209
100036.02
88423.813
89237.473
89222.764
90027.786
90182.485
90853.7
91231.255
91785.001
92292.818
92830.901
93375.527
93927.969
94483.776
95039.182
95589.843
96131.225
96658.668
97167.57
97653.57
98112.731
98541.706
98937.865
99299.363
99625.169
99915.033
100169.42
100389.43
100576.65
100733.05
100860.91
100962.63
101040.71
101097.64
101135.86
101157.69
101165.33
101160.8
101145.97
101122.52
101091.99
101055.73
101014.93
100970.67
100923.86
100875.3
100825.69
100775.61
100725.56
100675.96
100627.15
100579.42
100532.99
100488.05
100444.72
100403.11
100363.28
100325.3
100289.18
100254.94
100222.6
100192.15
100163.6
100136.93
100112.16
100089.32
100068.44
100049.59
100032.82
100018.29
100006.23
99996.747
99989.551
99984.681
99983.939
99989.241
99995.894
99993.938
99994.134
100036.43
100112.55
88902.805
89857.65
89862.399
90783.751
91007.518
91757.603
92233.456
92859.288
93454.654
94070.816
94690.882
95312.647
95930.263
96538.148
97130.335
97700.915
98244.272
98755.36
99229.943
99664.76
100057.62
100407.42
100714.09
100978.46
101202.16
101387.42
101536.9
101653.56
101740.51
101800.89
101837.79
101854.18
101852.85
101836.4
101807.2
101767.41
101718.95
101663.55
101602.71
101537.76
101469.86
101400.01
101329.06
101257.73
101186.66
101116.35
101047.24
100979.67
100913.93
100850.24
100788.77
100729.65
100672.96
100618.76
100567.08
100517.92
100471.29
100427.15
100385.49
100346.27
100309.46
100275.03
100242.94
100213.2
100185.81
100160.8
100138.19
100118.05
100100.57
100085.97
100074.22
100065.05
100058.85
100057.72
100062.59
100067.19
100063.19
100065.98
100116.12
100190.41
89517.475
90651.46
90685.872
91742.265
92054.259
92891.493
93484.802
94196.579
94889.277
95592.194
96291.347
96980.94
97652.881
98299.486
98913.371
99487.968
100017.84
100498.94
100928.68
101305.96
101631.04
101905.38
102131.37
102312.15
102451.34
102552.83
102620.63
102658.7
102670.88
102660.77
102631.71
102586.77
102528.7
102459.97
102382.75
102298.96
102210.26
102118.1
102023.71
101928.15
101832.33
101736.99
101642.77
101550.18
101459.66
101371.55
101286.11
101203.56
101124.05
101047.69
100974.54
100904.64
100837.99
100774.59
100714.38
100657.34
100603.4
100552.5
100504.59
100459.58
100417.43
100378.07
100341.47
100307.59
100276.43
100248
100222.32
100199.49
100179.69
100163.09
100149.59
100139
100132.14
100131.15
100135.76
100138.41
100133.14
100140.52
100198.33
100266.74
90296.608
91646.317
91725.315
92937.59
93371.801
94308.35
95041.041
95855.637
96653.244
97445.118
98216.668
98958.455
99660.405
100313.85
100911.72
101448.94
101922.52
102331.5
102676.77
102960.71
103186.91
103359.79
103484.28
103565.54
103608.73
103618.86
103600.67
103558.54
103496.44
103417.95
103326.26
103224.13
103114.02
102998.01
102877.91
102755.26
102631.36
102507.32
102384.06
102262.32
102142.74
102025.83
101911.99
101801.54
101694.73
101591.74
101492.69
101397.67
101306.72
101219.83
101136.99
101058.16
100983.26
100912.24
100844.99
100781.42
100721.45
100664.97
100611.89
100562.13
100515.58
100472.18
100431.88
100394.63
100360.43
100329.26
100301.15
100276.22
100254.66
100236.56
100221.78
100210.31
100203.36
100202.84
100207.15
100208.21
100203.08
100215.94
100279.54
100341.49
91271.33
92890.583
93051.556
94436.716
95039.725
96091.827
96981.189
97909.136
98805.82
99669.159
100482.97
101236.02
101918.92
102525.28
103051.71
103497.65
103865.03
104157.76
104381.16
104541.51
104645.54
104700.1
104711.88
104687.19
104631.86
104551.18
104449.87
104332.05
104201.36
104060.89
103913.33
103760.93
103605.62
103449.01
103292.43
103136.99
102983.61
102833.03
102685.83
102542.51
102403.41
102268.83
102138.97
102013.96
101893.89
101778.81
101668.72
101563.58
101463.34
101367.92
101277.23
101191.16
101109.58
101032.38
100959.42
100890.58
100825.72
100764.73
100707.48
100653.86
100603.78
100557.13
100513.86
100473.93
100437.3
100403.97
100373.99
100347.49
100324.63
100305.45
100289.79
100277.92
100271.31
100271.34
100275.22
100275.17
100271.51
100290.19
100357.29
100412.57
92526.291
94486.024
94774.536
96353.34
97173.213
98349.559
99390.413
100415.97
101374.06
102255.84
103047.31
103740.58
104331.89
104821.57
105213.32
105513.38
105729.72
105871.28
105947.3
105966.92
105938.78
105870.83
105770.24
105643.34
105495.65
105331.91
105156.17
104971.87
104781.88
104588.6
104394
104199.73
104007.12
103817.25
103630.99
103449.03
103271.91
103100.04
102933.73
102773.2
102618.58
102469.98
102327.4
102190.86
102060.3
101935.64
101816.8
101703.65
101596.05
101493.87
101396.95
101305.13
101218.25
101136.14
101058.64
100985.6
100916.86
100852.28
100791.72
100735.05
100682.15
100632.93
100587.32
100545.28
100506.75
100471.75
100440.34
100412.67
100388.87
100368.89
100352.69
100340.8
100334.74
100335.21
100338.55
100338
100336.88
100360.87
100428.72
100476.44
94194.848
96575.096
97047.073
98817.547
99889.633
101175.07
102313.98
103369.44
104303.17
105108.78
105781.9
106324.65
106743.65
107048.87
107252.24
107366.6
107404.75
107378.87
107300.17
107178.64
107023.02
106840.84
106638.49
106421.31
106193.78
105959.59
105721.74
105482.7
105244.47
105008.64
104776.5
104549.03
104327.04
104111.1
103901.68
103699.1
103503.57
103315.23
103134.15
102960.33
102793.75
102634.32
102481.94
102336.49
102197.82
102065.76
101940.15
101820.78
101707.47
101600.03
101498.26
101401.95
101310.92
101224.97
101143.92
101067.59
100995.81
100928.41
100865.24
100806.17
100751.06
100699.83
100652.39
100608.68
100568.68
100532.38
100499.88
100471.32
100446.77
100426.2
100409.68
100397.98
100392.46
100393.1
100395.83
100395.33
100397.3
100425.56
100491.55
100531.28
96469.578
99320.304
100038.7
101950.84
103236.51
104569.73
105688.32
106644.22
107424.14
108033.81
108484.34
108791.65
108973.87
109049.63
109036.8
108951.78
108809.09
108621.23
108398.81
108150.67
107884.06
107604.92
107318.04
107027.27
106735.67
106445.67
106159.19
105877.71
105602.37
105334.04
105073.36
104820.79
104576.65
104341.13
104114.34
103896.31
103687
103486.34
103294.2
103110.43
102934.87
102767.32
102607.57
102455.41
102310.61
102172.94
102042.18
101918.08
101800.41
101688.94
101583.43
101483.67
101389.44
101300.52
101216.71
101137.82
101063.67
100994.07
100928.86
100867.91
100811.07
100758.25
100709.36
100664.34
100623.15
100585.82
100552.44
100523.13
100497.94
100476.86
100460.12
100448.61
100443.41
100443.85
100445.9
100445.97
100451.26
100482.19
100543.67
100577.22
99606.216
102837.1
103864.94
105844.83
107171.48
108355.4
109285.39
109986.24
110475.86
110781.16
110930.4
110951.4
110869.57
110707.14
110482.99
110212.72
109909.01
109582.06
109239.94
108889.02
108534.25
108179.49
107827.69
107481.11
107141.45
106809.98
106487.62
106175.01
105872.58
105580.62
105299.25
105028.52
104768.37
104518.71
104279.38
104050.18
103830.9
103621.31
103421.14
103230.13
103048.01
102874.5
102709.32
102552.19
102402.85
102261
102126.38
101998.72
101877.75
101763.22
101654.87
101552.46
101455.77
101364.55
101278.6
101197.72
101121.7
101050.37
100983.55
100921.09
100862.86
100808.76
100758.68
100712.57
100670.38
100632.16
100597.99
100567.97
100542.14
100520.54
100503.54
100492.04
100486.76
100486.62
100488.06
100489.18
100497.51
100529.43
100585.29
100614.35
103861.57
107308.74
108541.47
110254.63
111396.17
112238.73
112781.41
113079.43
113177.91
113120.43
112943.89
112678.9
112349.98
111976.42
111573.16
111151.62
110720.46
110286.17
109853.62
109426.4
109007.11
108597.65
108199.35
107813.1
107439.49
107078.85
106731.33
106396.95
106075.62
105767.16
105471.34
105187.91
104916.55
104656.95
104408.77
104171.67
103945.3
103729.31
103523.36
103327.1
103140.19
102962.3
102793.11
102632.28
102479.51
102334.49
102196.92
102066.52
101942.99
101826.06
101715.47
101610.96
101512.29
101419.22
101331.53
101249.01
101171.46
101098.68
101030.5
100966.77
100907.34
100852.1
100800.96
100753.85
100710.73
100671.65
100636.67
100605.88
100579.31
100557.1
100539.7
100527.92
100522.16
100521.19
100522.24
100524.67
100535.56
100567.19
100616.94
100643.09
109164.15
112572.89
113708.12
114850.59
115471.73
115761.22
115784.35
115615.29
115308.76
114907.66
114443.89
113940.95
113415.9
112881.02
112345.05
111814.16
111292.67
110783.51
110288.66
109809.36
109346.36
108900.03
108470.48
108057.63
107661.25
107281.03
106916.59
106567.51
106233.34
105913.62
105607.88
105315.64
105036.44
104769.82
104515.32
104272.5
104040.94
103820.21
103609.92
103409.66
103219.05
103037.73
102865.34
102701.53
102545.97
102398.33
102258.29
102125.56
101999.83
101880.82
101768.27
101661.9
101561.46
101466.73
101377.45
101293.43
101214.45
101140.31
101070.85
101005.89
100945.29
100888.95
100836.75
100788.62
100744.53
100704.52
100668.64
100636.97
100609.57
100586.63
100568.65
100556.3
100549.74
100547.86
100548.68
100552.44
100565.2
100595.74
100640.09
100665.29
115464.59
118006.35
118626.98
118913.46
118820.25
118489.67
118002
117418.5
116780.2
116114.94
115441.2
114771.13
114112.62
113470.67
112848.35
112247.42
111668.75
111112.64
110578.98
110067.41
109577.41
109108.35
108659.54
108230.25
107819.78
107427.39
107052.37
106694.05
106351.74
106024.81
105712.64
105414.64
105130.23
104858.89
104600.08
104353.31
104118.1
103893.99
103680.54
103477.33
103283.96
103100.04
102925.19
102759.06
102601.29
102451.55
102309.51
102174.88
102047.33
101926.59
101812.38
101704.43
101602.49
101506.31
101415.67
101330.33
101250.1
101174.77
101104.15
101038.1
100976.45
100919.09
100865.9
100816.82
100771.81
100730.88
100694.09
100661.51
100633.24
100609.5
100590.8
100577.67
100570.17
100567.39
100568.07
100572.99
100587.1
100616.42
100656.55
100681.88
122170.04
122617.18
122398.85
121845.85
121108.49
120277.63
119409.95
118537.54
117679.14
116845.1
116040.93
115269.19
114530.73
113825.37
113152.32
112510.49
111898.58
111315.26
110759.16
110228.95
109723.37
109241.19
108781.26
108342.5
107923.87
107524.44
107143.28
106779.57
106432.51
106101.35
105785.39
105483.97
105196.47
104922.29
104660.87
104411.69
104174.23
103948.02
103732.6
103527.53
103332.4
103146.8
102970.35
102802.69
102643.46
102492.31
102348.93
102213
102084.21
101962.27
101846.9
101737.84
101634.83
101537.62
101445.97
101359.67
101278.51
101202.27
101130.79
101063.88
101001.39
100943.2
100889.18
100839.26
100793.4
100751.59
100713.89
100680.38
100651.2
100626.59
100606.89
100592.78
100584.27
100580.58
100580.97
100586.57
100601.6
100630.26
100667.72
100693.16
126085.94
125455.29
124532
123470.48
122376.23
121293.72
120245.87
119242.08
118285.86
117377.47
116515.63
115698.28
114923.08
114187.57
113489.36
112826.15
112195.81
111596.34
111025.9
110482.8
109965.48
109472.49
109002.53
108554.37
108126.89
107719.05
107329.9
106958.52
106604.1
106265.84
105943.04
105635
105341.08
105060.68
104793.23
104538.18
104295.04
104063.31
103842.53
103632.26
103432.07
103241.58
103060.38
102888.12
102724.43
102568.98
102421.44
102281.49
102148.82
102023.14
101904.18
101791.65
101685.3
101584.89
101490.18
101400.94
101316.95
101238.02
101163.95
101094.57
101029.73
100969.27
100913.08
100861.07
100813.19
100769.44
100729.85
100694.57
100663.84
100637.83
100616.65
100601.05
100591.38
100586.84
100586.91
100592.81
100608.34
100636.65
100672.84
100699.22
104116.02
104088.76
104137.71
104186.49
104222.95
104233.37
104216.28
104186.86
104151.18
104106.23
104047.69
103975.92
103894.58
103808.61
103718.89
103625.52
103528.79
103429.19
103327.15
103223.04
103117.25
103010.11
102901.95
102793.07
102683.73
102574.21
102464.72
102355.49
102246.73
102138.62
102031.35
101925.08
101819.99
101716.22
101613.92
101513.25
101414.34
101317.34
101222.37
101129.57
101039.08
100951.02
100865.52
100782.71
100702.71
100625.65
100551.63
100480.78
100413.19
100348.96
100288.18
100230.92
100177.24
100127.19
100080.81
100038.11
99999.096
99963.76
99932.085
99904.044
99879.609
99858.745
99841.415
99827.563
99817.13
99809.935
99805.929
99804.389
99805.979
99807.559
99814.678
99813.39
99830.674
99812.83
99859.5
99798.178
99903.188
99773.115
99948.831
99741.705
103460.62
103454.48
103469.37
103486.47
103485.37
103478
103467.3
103449.94
103420.93
103386.09
103344.14
103296.97
103243.81
103185.84
103123.03
103056.13
102985.34
102911.02
102833.48
102753.05
102670.02
102584.69
102497.35
102408.27
102317.73
102225.99
102133.31
102039.95
101946.13
101852.1
101758.08
101664.3
101570.96
101478.28
101386.45
101295.67
101206.13
101118.01
101031.5
100946.77
100863.99
100783.32
100704.94
100628.99
100555.62
100484.99
100417.24
100352.49
100290.86
100232.46
100177.39
100125.73
100077.55
100032.9
99991.822
99954.321
99920.396
99890.032
99863.2
99839.863
99819.975
99803.491
99790.357
99780.51
99773.878
99770.293
99769.68
99771.401
99775.965
99780.597
99790.126
99791.923
99810.565
99796.446
99842.621
99785.479
99890.524
99760.975
99943.919
99728.032
103037.91
103022.32
102993.57
102963.28
102934.28
102907.31
102874.98
102843.33
102808.02
102772.22
102732.33
102691.1
102646.2
102599.21
102549.08
102496.4
102440.96
102382.92
102322.34
102259.31
102193.96
102126.42
102056.84
101985.36
101912.17
101837.43
101761.34
101684.09
101605.87
101526.89
101447.37
101367.5
101287.5
101207.58
101127.97
101048.86
100970.48
100893.02
100816.71
100741.73
100668.29
100596.59
100526.81
100459.14
100393.75
100330.83
100270.53
100212.99
100158.37
100106.78
100058.33
100013.13
99971.235
99932.718
99897.607
99865.919
99837.648
99812.771
99791.252
99773.042
99758.085
99746.321
99737.688
99732.112
99729.514
99729.733
99732.684
99737.791
99745.458
99753.187
99765.266
99770.087
99790.472
99779.655
99825.952
99772.406
99877.932
99748.911
99938.415
99714.754
102437.93
102414.9
102385.6
102353.37
102321.44
102293.03
102260.23
102230.38
102196.3
102164.29
102128.67
102093.89
102056.24
102018.26
101978.09
101936.64
101893.35
101848.4
101801.64
101753.07
101702.69
101650.51
101596.55
101540.87
101483.54
101424.64
101364.27
101302.56
101239.65
101175.69
101110.83
101045.26
100979.16
100912.72
100846.15
100779.64
100713.41
100647.67
100582.63
100518.51
100455.53
100393.89
100333.8
100275.48
100219.11
100164.89
100113
100063.61
100016.87
99972.914
99931.878
99893.863
99858.952
99827.208
99798.668
99773.348
99751.241
99732.32
99716.54
99703.844
99694.165
99687.434
99683.578
99682.515
99684.161
99688.362
99695.023
99703.628
99714.501
99725.376
99740.096
99747.929
99770.292
99762.499
99809.39
99758.982
99865.403
99736.91
99932.447
99701.872
101699.29
101682.85
101666.74
101647.68
101626.75
101610.16
101587.6
101569.5
101545.88
101525.67
101500.85
101477.98
101451.77
101426.13
101398.29
101369.66
101339.39
101307.79
101274.65
101239.97
101203.71
101165.85
101126.38
101085.32
101042.7
100998.55
100952.93
100905.93
100857.62
100808.12
100757.55
100706.04
100653.75
100600.84
100547.49
100493.87
100440.19
100386.65
100333.45
100280.81
100228.95
100178.09
100128.44
100080.21
100033.62
99988.863
99946.136
99905.618
99867.474
99831.856
99798.897
99768.71
99741.384
99716.984
99695.549
99677.096
99661.615
99649.073
99639.419
99632.587
99628.503
99627.086
99628.255
99631.923
99638
99646.341
99656.845
99669.049
99683.212
99697.285
99714.724
99725.573
99750.004
99745.134
99792.905
99745.375
99852.918
99725.022
99926.129
99689.366
100968.33
100961.83
100957.27
100951.67
100942.02
100937.63
100925.8
100919.98
100907.14
100899.02
100885.07
100874.07
100859
100845.18
100828.95
100812.24
100793.87
100774.38
100753.52
100731.3
100707.7
100682.68
100656.24
100628.36
100599.06
100568.34
100536.24
100502.79
100468.05
100432.09
100395.01
100356.89
100317.87
100278.07
100237.64
100196.74
100155.55
100114.25
100073.04
100032.11
99991.685
99951.966
99913.171
99875.515
99839.206
99804.448
99771.435
99740.353
99711.371
99684.645
99660.312
99638.486
99619.258
99602.693
99588.829
99577.679
99569.231
99563.444
99560.259
99559.603
99561.392
99565.538
99571.952
99580.541
99591.213
99603.829
99618.287
99634.174
99651.694
99669.006
99689.216
99703.094
99729.636
99727.651
99776.451
99731.692
99840.477
99713.272
99919.562
99677.223
100305.04
100304.96
100305.82
100308.78
100306.44
100310.84
100306.4
100309.7
100304.54
100305.7
100300.28
100299.29
100293.41
100289.03
100281.94
100274.92
100266.42
100257.13
100246.71
100235.21
100222.56
100208.73
100193.69
100177.42
100159.89
100141.12
100121.1
100099.85
100077.4
100053.81
100029.13
100003.44
99976.83
99949.402
99921.28
99892.602
99863.516
99834.187
99804.788
99775.506
99746.532
99718.067
99690.312
99663.469
99637.739
99613.319
99590.397
99569.153
99549.755
99532.353
99517.082
99504.051
99493.346
99485.027
99479.128
99475.657
99474.591
99475.884
99479.466
99485.255
99493.16
99503.082
99514.926
99528.596
99543.997
99561
99579.502
99599.137
99620.064
99640.638
99663.642
99680.567
99709.252
99710.132
99760.014
99718.021
99828.076
99701.705
99912.82
99665.441
99707.975
99712.994
99716.952
99725.067