/*--------------------------------*- C++ -*----------------------------------*\
  =========                 |
  \\      /  F ield         | OpenFOAM: The Open Source CFD Toolbox
   \\    /   O peration     | Website:  https://openfoam.org
    \\  /    A nd           | Version:  12
     \\/     M anipulation  |
\*---------------------------------------------------------------------------*/
FoamFile
{
    format      ascii;
    class       volVectorField;
    location    "0.066";
    object      U;
}
// * * * * * * * * * * * * * * * * * * * * * * * * * * * * * * * * * * * * * //

dimensions      [0 1 -1 0 0 0 0];

internalField   nonuniform List<vector> 
16000
(
(216.89168 -3.1309898e-17 -8.4566407)
(254.15462 0 5.4356582)
(240.09007 0 -7.6351532)
(247.87058 4.951729e-17 3.8226609)
(243.14239 -4.8880665e-17 -6.0006252)
(245.36825 0 1.7722452)
(243.56137 0 -4.3526879)
(244.07139 8.366312e-17 -0.02499137)
(243.2266 -7.9485799e-17 -3.1725872)
(243.10498 0 -1.2714122)
(242.58924 7.1821745e-17 -2.5727486)
(242.24014 -2.0461867e-16 -1.989927)
(241.7946 1.2950947e-16 -2.4288139)
(241.36383 -1.2319581e-16 -2.3652168)
(240.90484 1.1688683e-16 -2.5258744)
(240.43181 -3.467045e-18 -2.5972781)
(239.93998 -3.2935749e-18 -2.7002532)
(239.43026 -9.7198761e-17 -2.792522)
(238.90209 1.9043228e-16 -2.8865919)
(238.35534 -9.0352687e-17 -2.9784927)
(237.78984 1.7186893e-16 -3.068615)
(237.20553 -1.629157e-16 -3.1562654)
(236.6024 0 -3.2409508)
(235.98056 1.5165636e-16 -3.3220935)
(235.3402 -4.1006764e-18 -3.3991072)
(234.68161 -2.6469408e-16 -3.4713724)
(234.00522 1.2545641e-16 -3.538262)
(233.31156 0 -3.5991342)
(232.60129 0 -3.6533498)
(231.87522 2.1789501e-16 -3.7002763)
(231.13428 -2.0301888e-16 -3.7393013)
(230.37953 0 -3.769842)
(229.6122 0 -3.7913548)
(228.83362 0 -3.803351)
(228.04527 5.122141e-18 -3.8054064)
(227.24873 1.5546227e-16 -3.7971732)
(226.44571 -1.4231217e-16 -3.7783921)
(225.63801 -1.3939115e-16 -3.7488996)
(224.82751 1.234222e-16 -3.7086377)
(224.01614 0 -3.6576602)
(223.20588 -1.1813461e-16 -3.5961345)
(222.39875 1.1150566e-16 -3.5243448)
(221.59672 -2.1133452e-16 -3.4426902)
(220.80178 1.9938873e-16 -3.3516811)
(220.01583 -1.9474123e-16 -3.2519333)
(219.24072 3.5654553e-16 -3.1441571)
(218.47818 5.5891205e-18 -3.0291461)
(217.72985 2.9905201e-19 -2.9077611)
(216.9972 -1.5008352e-16 -2.7809113)
(216.28158 1.4195071e-16 -2.6495355)
(215.58414 -1.253879e-16 -2.5145826)
(214.90588 0 -2.3769905)
(214.24756 7.4522254e-18 -2.237669)
(213.60976 0 -2.0974781)
(212.99284 6.6317997e-18 -1.9572096)
(212.39693 2.0651567e-16 -1.8175713)
(211.82194 -3.7746845e-16 -1.6791721)
(211.26758 1.0900948e-17 -1.5425106)
(210.73331 1.6774237e-16 -1.4079652)
(210.21835 -1.4847732e-16 -1.2758008)
(209.7216 1.3986268e-16 -1.1461464)
(209.24176 -8.800401e-18 -1.0190427)
(208.77718 0 -0.89441064)
(208.32587 0 -0.77205902)
(207.88541 -1.1091881e-16 -0.65170543)
(207.45305 1.1160498e-16 -0.53296095)
(207.02575 -9.8895474e-17 -0.41532621)
(206.60024 1.9305601e-16 -0.29820734)
(206.17308 -1.8842217e-16 -0.18101424)
(205.74082 8.3540882e-17 -0.063397148)
(205.30041 5.2754912e-18 0.054399914)
(204.84987 0 0.17117556)
(204.38914 4.7442709e-18 0.28465203)
(203.92057 -4.5070323e-18 0.39206507)
(203.44977 0 0.49136205)
(202.98562 -3.3715096e-17 0.57656831)
(202.47524 6.2397004e-17 0.64712611)
(202.16751 -3.171007e-17 0.83160159)
(201.19042 0 0.43551885)
(201.34998 0 1.7922214)
(218.25 0 -11.299177)
(255.83355 -3.7117764e-18 3.3778187)
(241.13017 -1.1933855e-16 -10.58325)
(249.37321 1.1000683e-16 1.726203)
(244.28631 0 -8.883957)
(246.74712 1.012166e-16 -0.39875951)
(244.73329 -1.8691374e-16 -7.1185442)
(245.33393 -1.034095e-19 -2.3207529)
(244.39672 8.4232514e-17 -5.7820922)
(244.27627 0 -3.6866612)
(243.71958 -1.5215502e-16 -5.0666605)
(243.34154 1.4883272e-16 -4.4511065)
(242.8639 1.4155744e-16 -4.8764814)
(242.39867 -2.6058654e-16 -4.8136601)
(241.90506 1.197927e-16 -4.9542435)
(241.39554 1.1012963e-17 -5.018327)
(240.86622 1.1516703e-16 -5.1057419)
(240.31769 -1.0256854e-16 -5.18429)
(239.74956 0 -5.2623172)
(239.1617 0 -5.3371306)
(238.55404 5.6596361e-18 -5.4086195)
(237.9266 -1.7756645e-16 -5.4760818)
(237.27949 3.3670093e-16 -5.5388903)
(236.61293 -3.1462904e-16 -5.5963669)
(235.92727 1.4221114e-16 -5.647818)
(235.22297 0 -5.6925345)
(234.50061 1.2404247e-16 -5.729797)
(233.76094 -1.3300871e-16 -5.7588916)
(233.00483 0 -5.7791167)
(232.23329 3.5145292e-18 -5.789795)
(231.44751 -1.3332902e-17 -5.790284)
(230.64879 0 -5.7799929)
(229.83859 0 -5.758389)
(229.0185 -1.7015991e-16 -5.7250192)
(228.19025 3.3788158e-16 -5.6795178)
(227.35566 -1.6225001e-16 -5.62162)
(226.51668 -1.5867375e-16 -5.5511754)
(225.6753 1.4522692e-16 -5.4681537)
(224.83359 -1.1186481e-16 -5.3726549)
(223.99367 -2.8901719e-19 -5.2649128)
(223.15763 -2.7030284e-19 -5.1452971)
(222.32758 2.3220397e-16 -5.0143125)
(221.50557 -1.0955845e-16 -4.8725943)
(220.69358 0 -4.7209)
(219.89351 2.0188548e-16 -4.5601002)
(219.10713 1.1911898e-17 -4.3911634)
(218.33608 -5.1023932e-18 -4.2151381)
(217.58184 -1.641483e-16 -4.0331342)
(216.84574 0 -3.8463003)
(216.12892 -1.4621852e-16 -3.6558022)
(215.43232 -8.8406218e-18 -3.4628008)
(214.75669 2.5952392e-16 -3.2684296)
(214.10259 -1.2979662e-16 -3.0737739)
(213.47033 0 -2.8798494)
(212.86004 -2.0337538e-17 -2.6875823)
(212.27163 -2.1074551e-16 -2.4977941)
(211.70478 3.6048916e-16 -2.3111867)
(211.159 -2.1480992e-16 -2.1283324)
(210.63357 0 -1.9496632)
(210.12756 -1.7043263e-16 -1.7754772)
(209.63976 1.7910412e-16 -1.6059169)
(209.1687 2.6629472e-17 -1.4410114)
(208.7127 0 -1.2806727)
(208.26966 -1.4159479e-16 -1.1246834)
(207.83709 7.3090089e-18 -0.97273249)
(207.41217 1.1148798e-16 -0.82440182)
(206.99176 -1.969783e-17 -0.67916243)
(206.57254 9.2823829e-17 -0.53639571)
(206.15109 -1.0493234e-16 -0.39550045)
(205.7241 5.49935e-18 -0.25614787)
(205.28877 -5.1894978e-18 -0.11865303)
(204.84338 0 0.015655093)
(204.38791 -4.6313843e-18 0.14438874)
(203.92441 4.3810688e-18 0.26499811)
(203.45647 8.2969759e-18 0.37476186)
(202.98438 9.8331139e-19 0.46788959)
(202.51621 0 0.56955307)
(202.08532 3.0199937e-17 0.69781459)
(201.31063 -5.7496644e-17 0.41754633)
(201.22988 2.5850011e-17 1.6515)
(219.47079 0 -14.216812)
(257.35642 -1.2208144e-16 1.1192718)
(242.10782 2.4902979e-16 -13.617202)
(250.67364 -2.2235926e-16 -0.54038916)
(245.32264 1.0982969e-16 -11.843165)
(247.92039 -3.252248e-18 -2.7639356)
(245.77801 9.8984262e-17 -9.9319754)
(246.40444 -9.3742707e-17 -4.8162207)
(245.41 -5.5645019e-18 -8.4562142)
(245.26586 -5.2834612e-18 -6.2694654)
(244.67362 -1.0036717e-17 -7.6602453)
(244.25929 1.3848661e-16 -7.0504464)
(243.74595 -1.4037415e-16 -7.4444475)
(243.24196 1.3777173e-16 -7.3886276)
(242.70899 -1.1835202e-16 -7.5078184)
(242.15844 -1.5512047e-17 -7.563822)
(241.58682 0 -7.6356069)
(240.9947 -1.3318304e-20 -7.6992862)
(240.38176 -2.2562759e-16 -7.7602199)
(239.74799 -3.7108629e-19 -7.8163847)
(239.09342 1.7293944e-16 -7.8673521)
(238.4182 1.6987639e-17 -7.9123329)
(237.72259 -2.148799e-17 -7.9505756)
(237.00698 0 -7.9812944)
(236.27189 8.4728825e-21 -8.0036958)
(235.51798 -1.649644e-16 -8.0169816)
(234.74607 1.4737799e-16 -8.0203607)
(233.95714 8.2263512e-18 -8.0130565)
(233.1523 0 -7.994326)
(232.33284 -7.3804999e-18 -7.9634667)
(231.50024 2.0464219e-22 -7.9198362)
(230.65607 -1.9867473e-16 -7.8628651)
(229.8021 2.0008813e-16 -7.7920718)
(228.94022 1.1855272e-17 -7.7070818)
(228.07243 -1.7950626e-16 -7.6076366)
(227.20083 1.4814669e-16 -7.4936107)
(226.32761 -1.8052599e-16 -7.3650207)
(225.45501 1.5131312e-16 -7.2220343)
(224.5853 -1.4328057e-16 -7.0649735)
(223.72072 1.3503311e-16 -6.8943193)
(222.86351 1.596641e-17 -6.7107091)
(222.01582 0 -6.5149287)
(221.17974 1.9919033e-16 -6.3079058)
(220.35721 -2.4109676e-16 -6.0906951)
(219.55004 0 -5.8644618)
(218.75987 1.7895409e-16 -5.6304632)
(217.98819 -1.5703776e-16 -5.3900234)
(217.23627 1.6944292e-16 -5.1445116)
(216.50518 -1.7922501e-16 -4.8953158)
(215.7958 0 -4.6438188)
(215.1088 1.7673852e-16 -4.3913745)
(214.44462 -1.3282766e-16 -4.139283)
(213.8035 0 -3.8887698)
(213.18548 0 -3.6409653)
(212.5904 1.2446231e-16 -3.3968849)
(212.01787 -2.0786135e-16 -3.1574173)
(211.46733 1.220222e-16 -2.9233106)
(210.93804 1.8364008e-16 -2.6951646)
(210.42907 1.9527032e-19 -2.4734206)
(209.93931 1.7295375e-19 -2.2583683)
(209.46739 -3.2324956e-16 -2.0501325)
(209.01172 8.9213816e-17 -1.8486988)
(208.57051 0 -1.6539419)
(208.14157 1.4179342e-16 -1.4655957)
(207.72236 -1.6265852e-16 -1.2832964)
(207.30998 1.1117801e-16 -1.1065762)
(206.90124 1.3119848e-17 -0.93486139)
(206.49277 -8.5800054e-17 -0.76750393)
(206.0812 1.1523364e-17 -0.60390199)
(205.66342 2.1669578e-17 -0.44376938)
(205.237 -1.019181e-16 -0.28750595)
(204.80066 9.5864642e-17 -0.13654868)
(204.35456 -7.2238016e-17 0.0066239549)
(203.90018 1.3608596e-16 0.13927815)
(203.4392 -5.6120874e-17 0.25830733)
(202.97306 -6.0555755e-17 0.36266541)
(202.51594 5.0029199e-17 0.47645827)
(202.03797 0 0.57098103)
(201.37632 3.2031102e-18 0.40031665)
(201.14553 -1.2162711e-17 1.4950796)
(220.52917 0 -17.204859)
(258.72723 0 -1.2752735)
(242.89764 0 -16.78844)
(251.79614 1.0624862e-16 -2.9161318)
(246.17073 -1.2338132e-16 -14.933164)
(248.9242 -2.1973427e-16 -5.2481936)
(246.63857 2.0899019e-16 -12.864903)
(247.2936 -1.2377131e-17 -7.440147)
(246.23461 5.8946685e-18 -11.242062)
(246.06265 -1.7332919e-16 -8.9851117)
(245.43022 1.6968687e-16 -10.366477)
(244.97409 1.0085353e-17 -9.7764786)
(244.4201 -1.5313925e-16 -10.131076)
(243.87197 1.3603426e-16 -10.083836)
(243.29446 -1.4885907e-20 -10.180364)
(242.69765 -8.1569662e-18 -10.226335)
(242.07863 0 -10.280903)
(241.43791 -7.3657163e-18 -10.327285)
(240.77534 -2.0966056e-16 -10.368497)
(240.09099 2.1169805e-16 -10.402962)
(239.38505 1.2567397e-17 -10.430016)
(238.65781 -1.1915225e-17 -10.448781)
(237.90972 2.1470737e-16 -10.4584)
(237.14135 -1.7102464e-16 -10.457995)
(236.35344 1.0143266e-17 -10.446678)
(235.54691 1.9232902e-16 -10.423576)
(234.72283 -1.2722551e-16 -10.387832)
(233.88247 0 -10.338626)
(233.02727 1.4702034e-16 -10.275188)
(232.15884 -1.2340566e-16 -10.196819)
(231.27897 2.4872657e-16 -10.102903)
(230.3896 -1.3277655e-17 -9.9929334)
(229.49284 -2.0892972e-16 -9.8665253)
(228.59089 1.733017e-16 -9.7234338)
(227.68608 -1.8668913e-16 -9.5635666)
(226.78081 -2.8216469e-20 -9.3869998)
(225.8775 2.0872332e-16 -9.193984)
(224.97863 -3.1500234e-16 -8.9849499)
(224.08661 9.2711131e-17 -8.76051)
(223.20383 3.5101909e-17 -8.5214546)
(222.33256 -4.9637885e-17 -8.2687463)
(221.47497 0 -8.003504)
(220.63308 -8.83307e-17 -7.7269902)
(219.80871 1.383443e-16 -7.4405875)
(219.00352 -2.0889745e-16 -7.1457776)
(218.21894 1.9627925e-16 -6.8441159)
(217.45616 -2.0819545e-16 -6.5372015)
(216.71618 3.9147944e-16 -6.2266511)
(215.99975 -3.0679946e-16 -5.9140719)
(215.3074 3.0765835e-16 -5.6010341)
(214.63943 -1.4440872e-16 -5.2890466)
(213.99593 1.3593627e-16 -4.9795343)
(213.37681 -9.5562388e-17 -4.673815)
(212.78175 2.9965123e-17 -4.3730848)
(212.21027 0 -4.0783988)
(211.66168 0 -3.7906637)
(211.13515 0 -3.5106263)
(210.62969 2.3198382e-17 -3.2388684)
(210.14415 0 -2.9758003)
(209.67724 -1.6327189e-16 -2.7216672)
(209.22743 1.9114074e-16 -2.4765459)
(208.79302 -1.075828e-16 -2.2403569)
(208.37211 -1.1199828e-19 -2.0129128)
(207.96248 2.5171928e-16 -1.7938858)
(207.56151 2.9562002e-17 -1.5828441)
(207.16626 -1.3807198e-16 -1.3792573)
(206.7735 5.1781336e-17 -1.1824995)
(206.37984 -1.4547684e-16 -0.99189542)
(205.98198 -4.5457513e-17 -0.80685972)
(205.57702 -6.3907899e-17 -0.62716985)
(205.16289 -5.9934115e-17 -0.45330922)
(204.73875 5.617281e-17 -0.2867931)
(204.30488 0 -0.13019511)
(203.862 0 0.013580859)
(203.41079 -1.5488667e-17 0.14200531)
(202.95431 0 0.25755388)
(202.50016 6.8424796e-18 0.37617038)
(202.00737 5.1537048e-17 0.45408774)
(201.40936 -7.2781545e-17 0.37573665)
(201.0852 -3.1618056e-20 1.3309553)
(221.4068 0 -20.393635)
(259.92284 -8.7804856e-18 -3.7483824)
(243.55314 2.6568901e-16 -20.096835)
(252.68211 -2.4810578e-16 -5.4188797)
(246.78361 2.5320783e-16 -18.139041)
(249.72189 -2.3164031e-16 -7.8864752)
(247.29647 -2.2082787e-16 -15.904434)
(247.96781 2.0903426e-16 -10.22364)
(246.84767 0 -14.13206)
(246.63655 0 -11.85218)
(245.96161 1.7915534e-16 -13.188364)
(245.4568 -1.6971999e-16 -12.636795)
(244.8573 -1.0083506e-17 -12.942293)
(244.2597 2.8678632e-17 -12.902964)
(243.63255 -9.0765434e-18 -12.974846)
(242.98449 3.4423514e-17 -13.007096)
(242.31318 0 -13.041545)
(241.61907 0 -13.066903)
(240.90213 -2.3510608e-16 -13.084577)
(240.16259 2.0850369e-16 -13.09321)
(239.40076 0 -13.091955)
(238.61713 0 -13.079826)
(237.81237 -1.8973505e-16 -13.055837)
(236.98732 3.5906808e-16 -13.019001)
(236.14299 -1.6982868e-16 -12.968329)
(235.28062 -2.0121605e-17 -12.902863)
(234.40165 -3.8109833e-17 -12.821687)
(233.5077 -1.4441058e-16 -12.723949)
(232.60061 1.192307e-16 -12.608882)
(231.68239 0 -12.475823)
(230.75524 -3.0539557e-17 -12.324237)
(229.82151 0 -12.153739)
(228.88368 0 -11.964106)
(227.94434 2.0619586e-16 -11.755302)
(227.00614 -2.185496e-16 -11.527484)
(226.07176 2.2927969e-17 -11.281012)
(225.14388 -2.1634613e-17 -11.016459)
(224.22513 -4.0900875e-17 -10.734603)
(223.31807 -8.3621498e-20 -10.436427)
(222.4251 7.9496507e-20 -10.123102)
(221.54849 -7.5064249e-20 -9.7959811)
(220.69031 0 -9.456565)
(219.85241 -1.2144012e-16 -9.1064901)
(219.0364 1.1403749e-16 -8.7474916)
(218.24365 0 -8.3813767)
(217.47526 -5.0547639e-17 -8.0099964)
(216.73208 1.8999344e-16 -7.6352073)
(216.01469 -2.2272871e-16 -7.2588469)
(215.32344 -2.0955253e-16 -6.8827017)
(214.65843 1.571118e-16 -6.5084825)
(214.01956 1.1081171e-16 -6.1377993)
(213.4065 -1.383218e-16 -5.7721421)
(212.81876 -3.2431366e-17 -5.4128605)
(212.25565 -2.1305287e-16 -5.0611537)
(211.71635 1.1395112e-16 -4.7180555)
(211.19986 -1.0687621e-16 -4.3844311)
(210.70507 9.9969116e-17 -4.0609708)
(210.23074 2.3423067e-16 -3.7481866)
(209.77551 -1.751915e-16 -3.4464115)
(209.3379 0 -3.1558074)
(208.91627 -3.8340604e-17 -2.8763679)
(208.5088 -7.176721e-17 -2.6079267)
(208.11352 1.341061e-16 -2.3502109)
(207.72814 1.2546863e-16 -2.1028156)
(207.35006 -2.3448409e-16 -1.8652287)
(206.97629 8.2133334e-17 -1.6368478)
(206.6036 5.1200912e-17 -1.416991)
(206.22862 9.5722168e-17 -1.2049645)
(205.84814 1.3420568e-16 -1.0002211)
(205.45949 2.2778157e-20 -0.80262568)
(205.06103 0 -0.61275271)
(204.65234 0 -0.43219445)
(204.23375 -3.4165563e-17 -0.26358733)
(203.80536 9.5873029e-17 -0.10970562)
(203.3673 -8.9672082e-17 0.027937787)
(202.92236 -8.395e-17 0.15313592)
(202.47199 5.2384915e-17 0.2740356)
(201.9809 0 0.34515581)
(201.42652 4.6015163e-17 0.34186939)
(201.03849 6.0367822e-20 1.1624811)
(222.08279 0 -23.756776)
(260.91701 2.0118289e-20 -6.2977318)
(244.01017 9.0403565e-18 -23.5007)
(253.39944 2.8733196e-16 -8.062803)
(247.2234 3.374509e-19 -21.451383)
(250.28426 -5.0400028e-16 -10.679052)
(247.70857 -3.2746026e-19 -19.041599)
(248.39693 4.5458382e-16 -13.172201)
(247.21978 -2.0915248e-16 -17.124623)
(246.95978 -1.2405977e-17 -14.870393)
(246.2406 1.1784215e-17 -16.125187)
(245.6818 -1.7893152e-16 -15.624982)
(245.03287 1.9062611e-16 -15.873495)
(244.3814 -1.8113656e-16 -15.83805)
(243.7001 3.0512749e-16 -15.882979)
(242.99612 -3.0743346e-16 -15.896979)
(242.26763 1.3701986e-16 -15.907829)
(241.5151 0 -15.90808)
(240.73868 0 -15.898005)
(239.93877 1.4597486e-17 -15.876262)
(239.11596 -2.767733e-17 -15.841786)
(238.271 0 -15.79343)
(237.40489 1.9877089e-16 -15.730052)
(236.51882 4.7863486e-19 -15.650535)
(235.61423 -3.5575423e-16 -15.55379)
(234.69279 1.6809746e-16 -15.438787)
(233.75636 1.9890988e-17 -15.304586)
(232.80707 0 -15.150345)
(231.84724 -1.7819742e-16 -14.975358)
(230.87935 1.34371e-16 -14.779074)
(229.9061 -2.228441e-16 -14.561121)
(228.93028 2.097485e-16 -14.321327)
(227.95479 -2.2702579e-16 -14.059734)
(226.98259 2.1369256e-16 -13.77662)
(226.01666 7.5758058e-17 -13.472497)
(225.05993 0 -13.148119)
(224.11526 0 -12.804481)
(223.18538 4.2228635e-17 -12.442805)
(222.27285 3.9775339e-17 -12.064526)
(221.38003 -3.7449048e-17 -11.671269)
(220.50902 3.5243985e-17 -11.264828)
(219.66166 6.6495042e-17 -10.847125)
(218.83951 -6.2458694e-17 -10.42019)
(218.04382 3.5215044e-16 -9.9861117)
(217.27555 -2.7546773e-16 -9.5470118)
(216.53536 5.170578e-17 -9.1050052)
(215.8236 -4.865298e-17 -8.6621654)
(215.14038 0 -8.2204959)
(214.48554 2.1385605e-16 -7.7819002)
(213.8587 -1.6018288e-16 -7.3481605)
(213.25929 0 -6.9209144)
(212.68653 0 -6.5016422)
(212.1395 1.3181446e-16 -6.0916515)
(211.61716 -6.1609793e-17 -5.6920721)
(211.11832 0 -5.3038491)
(210.64169 -1.6188642e-16 -4.9277424)
(210.1859 1.0077423e-16 -4.5643271)
(209.74947 1.4144864e-16 -4.2139942)
(209.33086 -1.7595944e-16 -3.8769541)
(208.92845 1.6446959e-16 -3.5532487)
(208.54046 -1.5342304e-16 -3.2427566)
(208.16502 6.124062e-20 -2.9452033)
(207.80009 0 -2.660213)
(207.44339 6.2365191e-17 -2.3872914)
(207.09229 -2.9078357e-16 -2.1258385)
(206.74387 1.6264143e-16 -1.8751765)
(206.39489 0 -1.6345727)
(206.04205 -1.4142297e-16 -1.4033297)
(205.68226 8.7858253e-17 -1.1809631)
(205.31313 1.2291022e-16 -0.9674433)
(204.93343 3.1649905e-20 -0.7634473)
(204.54313 -7.1156262e-17 -0.5706494)
(204.14253 9.9525542e-17 -0.39164246)
(203.73134 -1.5462074e-16 -0.2287099)
(203.30919 8.6480605e-17 -0.082384356)
(202.87747 2.6865602e-17 0.050702747)
(202.43395 5.0150644e-17 0.17277928)
(201.9516 0 0.24312494)
(201.4307 -4.3687518e-17 0.29918395)
(201.00043 2.037563e-17 0.99272892)
(222.53881 0 -27.289322)
(261.69989 9.7690774e-18 -8.9553536)
(244.26287 -3.0473203e-16 -27.031234)
(253.92755 2.4876061e-16 -10.849191)
(247.46886 2.5556075e-16 -24.863691)
(250.5983 -4.9840143e-16 -13.628274)
(247.90165 2.2925948e-16 -22.261969)
(248.56073 2.3211212e-16 -16.285389)
(247.33784 -2.1997165e-16 -20.20514)
(247.01962 3.9155288e-17 -18.027854)
(246.2553 0 -19.165792)
(245.63704 0 -18.725896)
(244.93374 -2.2271585e-17 -18.913573)
(244.22259 -1.6908837e-16 -18.87759)
(243.48084 1.3993136e-16 -18.894715)
(242.71427 1.8982584e-17 -18.886828)
(241.9217 -3.5984345e-17 -18.871019)
(241.10375 3.0703601e-16 -18.842218)
(240.26085 -2.2562653e-16 -18.799894)
(239.39375 2.4491274e-16 -18.742585)
(238.5034 -2.0238335e-16 -18.669014)
(237.59099 2.7441193e-17 -18.577871)
(236.65795 1.5591346e-16 -18.467875)
(235.70598 -1.9609585e-16 -18.337811)
(234.73705 0 -18.186533)
(233.75336 0 -18.013005)
(232.75737 0 -17.816328)
(231.75177 -1.964422e-16 -17.595765)
(230.73944 1.8504954e-16 -17.350771)
(229.72346 -3.5066118e-17 -17.081016)
(228.70701 0 -16.786413)
(227.69337 -2.8113187e-16 -16.467136)
(226.68586 2.3496447e-16 -16.123625)
(225.68778 -5.557973e-17 -15.756601)
(224.70236 1.5718993e-16 -15.367068)
(223.73271 -4.8837395e-17 -14.956293)
(222.78175 -1.8528533e-16 -14.525804)
(221.85217 2.1859775e-16 -14.077359)
(220.94639 -1.6410892e-16 -13.612923)
(220.06654 7.7415997e-17 -13.134628)
(219.21442 -7.2646108e-17 -12.644745)
(218.39145 1.3655959e-16 -12.145627)
(217.59874 -6.3991741e-17 -11.639688)
(216.83701 -2.4085737e-16 -11.129344)
(216.10667 5.0788817e-16 -10.61698)
(215.4078 -2.1153284e-16 -10.104914)
(214.74018 -1.4907444e-16 -9.5953639)
(214.10333 9.2683373e-17 -9.0904151)
(213.49653 8.7189694e-17 -8.5920006)
(212.91886 -1.6311328e-16 -8.1018815)
(212.36925 1.5240276e-16 -7.6216332)
(211.84646 0 -7.1526375)
(211.34918 1.3340211e-16 -6.6960766)
(210.87597 -1.8685731e-16 -6.2529333)
(210.42534 5.8231477e-17 -5.8239925)
(209.99573 5.4271937e-17 -5.4098453)
(209.58554 0 -5.0108957)
(209.19311 0 -4.6273652)
(208.81675 0 -4.2593008)
(208.45471 0 -3.9065918)
(208.10516 0 -3.5689768)
(207.76615 -7.1314295e-17 -3.2460549)
(207.43565 0 -2.9373346)
(207.1114 -4.9968029e-20 -2.6422233)
(206.79082 2.3029174e-16 -2.3600317)
(206.47104 -2.1424354e-16 -2.0900106)
(206.14892 -9.97278e-17 -1.8313879)
(205.82122 -1.8544595e-16 -1.5834839)
(205.48505 2.5853225e-16 -1.3458959)
(205.13829 3.5235337e-20 -1.1187077)
(204.78011 7.4476148e-17 -0.90270751)
(204.41076 0 -0.69964348)
(204.03057 0 -0.51191001)
(203.63908 0 -0.34103295)
(203.23536 -1.1119634e-16 -0.18694492)
(202.81883 0 -0.047919019)
(202.38572 -9.6091389e-17 0.074688319)
(201.91772 1.3395411e-16 0.14833997)
(201.42587 8.3047137e-17 0.24561185)
(200.96194 -1.9283512e-17 0.82386727)
(222.77688 0 -31.000588)
(262.27689 0 -11.721868)
(244.31651 3.2057064e-16 -30.693826)
(254.26947 1.9238919e-17 -13.795062)
(247.52471 -2.6822892e-16 -28.384764)
(250.71804 0 -16.755994)
(247.90065 1.6071847e-17 -25.561904)
(248.59318 -3.0463622e-17 -19.55481)
(247.21032 0 -23.352305)
(246.81796 1.9204258e-16 -21.306311)
(246.00183 -4.1577067e-16 -22.304649)
(245.31377 1.9687381e-16 -21.932647)
(244.54641 2.336791e-17 -22.061528)
(243.76573 0 -22.020488)
(242.9536 2.0970076e-17 -22.009004)
(242.11468 -3.3827084e-16 -21.974938)
(241.24846 7.4561071e-17 -21.927997)
(240.35582 2.4929376e-16 -21.864512)
(239.43763 2.3677225e-16 -21.783443)
(238.49506 -2.5538658e-16 -21.683205)
(237.52958 0 -21.562345)
(236.54291 -2.8659217e-16 -21.419435)
(235.53709 2.433333e-16 -21.253107)
(234.51445 -2.0511932e-16 -21.062114)
(233.47761 1.9332616e-16 -20.845337)
(232.42945 -1.8323312e-16 -20.601825)
(231.37312 3.4566698e-16 -20.33084)
(230.31197 -1.6312397e-16 -20.031871)
(229.24953 1.5429078e-16 -19.70468)
(228.18945 -2.9089189e-16 -19.349314)
(227.13547 1.3691323e-16 -18.966133)
(226.0913 1.2931543e-16 -18.555818)
(225.06063 -2.4400141e-16 -18.119373)
(224.04699 5.6635422e-17 -17.65812)
(223.05375 -5.8379943e-19 -17.173693)
(222.08402 2.5387497e-16 -16.667995)
(221.1406 0 -16.143191)
(220.22595 1.949703e-19 -15.601655)
(219.34216 0 -15.045928)
(218.4909 -7.9258864e-17 -14.478674)
(217.67343 -1.4896095e-16 -13.902634)
(216.8906 6.9939931e-17 -13.320569)
(216.14283 0 -12.735218)
(215.43019 -6.1638811e-17 -12.14925)
(214.75237 2.8850916e-16 -11.565229)
(214.10877 -3.2390927e-16 -10.985574)
(213.49849 -3.0351169e-16 -10.412533)
(212.9204 2.8338749e-16 -9.8481641)
(212.3732 -1.7685891e-16 -9.2943148)
(211.85543 0 -8.7526166)
(211.3655 0 -8.2244786)
(210.90175 7.2187241e-17 -7.7110882)
(210.46249 6.7369124e-17 -7.2134157)
(210.04596 1.2555579e-16 -6.7322201)
(209.6504 -5.8550048e-17 -6.2680584)
(209.27406 -1.0906659e-16 -5.8212957)
(208.91513 -2.0338824e-16 -5.3921159)
(208.57185 -9.4882147e-17 -4.9805316)
(208.24242 1.7617369e-16 -4.5863952)
(207.92502 0 -4.2094192)
(207.61779 -7.6308386e-17 -3.8491842)
(207.31879 -1.4184454e-16 -3.5051518)
(207.02601 1.3179839e-16 -3.1767084)
(206.73723 6.1140646e-17 -2.86316)
(206.44999 5.6861191e-17 -2.5637324)
(206.1615 0 -2.277615)
(205.86875 1.960448e-16 -2.0040154)
(205.56866 1.8192473e-16 -1.7422915)
(205.25852 -2.5317054e-16 -1.4921319)
(204.93654 7.8300361e-17 -1.25373)
(204.6022 -7.2590536e-17 -1.0279875)
(204.25595 -4.1621348e-20 -0.81669945)
(203.89816 2.4954152e-16 -0.62190243)
(203.52846 -2.3129188e-16 -0.44428723)
(203.1453 5.3547278e-17 -0.28379023)
(202.74589 1.4896011e-16 -0.14099049)
(202.32659 -4.6017734e-17 -0.018223354)
(201.87807 -4.2636527e-17 0.063683925)
(201.41214 0 0.18526294)
(200.91931 3.663343e-17 0.65778306)
(222.80847 3.9000929e-16 -34.900579)
(262.65468 5.4881153e-19 -14.605094)
(244.15083 -3.5725987e-16 -34.505892)
(254.42025 0 -16.90713)
(247.31503 0 -31.98326)
(250.50633 -2.6652423e-16 -20.059625)
(247.58521 2.6962653e-16 -28.91724)
(248.11269 6.394995e-17 -22.985403)
(246.80147 -2.4273516e-16 -26.598542)
(246.33194 2.2958902e-16 -24.729855)
(245.45327 -2.4539418e-16 -25.567865)
(244.68241 2.0625192e-16 -25.259659)
(243.83869 -4.8933003e-17 -25.329574)
(242.97657 -4.6403346e-17 -25.274106)
(242.08231 -1.7584966e-16 -25.229152)
(241.15973 1.6609101e-16 -25.161275)
(240.209 -3.547252e-16 -25.075324)
(239.2314 5.9627981e-16 -24.968324)
(238.22835 -2.8173792e-16 -24.838836)
(237.20164 -2.6734984e-16 -24.685133)
(236.15337 2.5211029e-16 -24.50562)
(235.086 -3.0027075e-17 -24.298793)
(234.0023 -2.2603426e-16 -24.063274)
(232.90541 2.1292309e-16 -23.79788)
(231.79873 2.5225994e-16 -23.501633)
(230.68598 -1.4223618e-16 -23.173814)
(229.57106 0 -22.814005)
(228.45807 2.5441923e-16 -22.422107)
(227.35121 -3.1956681e-16 -21.99838)
(226.25473 1.1243897e-16 -21.543451)
(225.17281 -2.8432418e-16 -21.058329)
(224.10953 2.0031635e-16 -20.544401)
(223.06877 -6.3127255e-17 -20.003415)
(222.05416 2.3723633e-16 -19.437456)
(221.06894 -2.2252978e-16 -18.848921)
(220.11601 -2.0975203e-16 -18.240464)
(219.19779 1.9659349e-16 -17.614953)
(218.31625 -4.6111245e-17 -16.975416)
(217.47284 0 -16.324978)
(216.66853 8.161093e-17 -15.666803)
(215.90382 -7.6169224e-17 -15.004043)
(215.17871 0 -14.339772)
(214.49282 1.3413815e-16 -13.676951)
(213.84536 -6.2748558e-17 -13.018373)
(213.23523 -1.7594752e-16 -12.36664)
(212.66103 5.4884436e-16 -11.72413)
(212.12116 -2.0550326e-16 -11.092981)
(211.61384 9.5849039e-17 -10.475083)
(211.13718 -2.6877034e-16 -9.8720683)
(210.68918 -1.8374954e-19 -9.2853195)
(210.26783 1.5584331e-16 -8.7159722)
(209.87111 -1.4538782e-16 -8.1649262)
(209.497 -6.7661631e-17 -7.6328582)
(209.14351 -6.302757e-17 -7.1202361)
(208.80868 -1.1768556e-16 -6.627333)
(208.49062 2.1856361e-16 -6.1542428)
(208.18743 0 -5.7008942)
(207.89729 9.4455088e-17 -5.2670641)
(207.61835 -3.514681e-16 -4.8523918)
(207.34879 2.446292e-16 -4.4564004)
(207.08677 7.5707883e-17 -4.0785047)
(206.83038 1.4064256e-16 -3.7180253)
(206.57769 1.3066825e-16 -3.3742281)
(206.32658 -1.2093312e-16 -3.0463209)
(206.07472 -1.1207085e-16 -2.733455)
(205.81946 -3.1174027e-16 -2.4347746)
(205.55795 -3.5403238e-20 -2.1494865)
(205.28731 -8.9104747e-17 -1.8770011)
(205.00507 0 -1.6170943)
(204.70974 -2.2909301e-16 -1.370057)
(204.40106 7.0650102e-17 -1.1369056)
(204.07953 0 -0.91944519)
(203.74571 1.2089041e-16 -0.71924853)
(203.39952 0 -0.5363356)
(203.03867 1.032982e-16 -0.37135127)
(202.65812 -1.431512e-16 -0.227125)
(202.25571 1.3229684e-16 -0.10427694)
(201.8311 -8.1494104e-17 -0.010958396)
(201.38856 7.527636e-17 0.12098578)
(200.86987 0 0.49622549)
(222.62309 -4.0967171e-16 -38.995632)
(262.82118 3.6158779e-16 -17.623316)
(243.72816 -3.3141567e-16 -38.498838)
(254.31757 3.2948029e-16 -20.19959)
(246.81432 3.1556967e-16 -35.640888)
(250.05385 -1.792464e-17 -23.549001)
(247.01979 -2.8254838e-16 -32.353496)
(247.49191 -2.6823179e-16 -26.608308)
(246.09559 2.8549464e-16 -29.96504)
(245.51678 0 -28.301511)
(244.56477 2.8489137e-17 -28.963918)
(243.69815 0 -28.707339)
(242.76506 -1.2814833e-16 -28.717842)
(241.80891 2.4195625e-16 -28.636316)
(240.82004 0 -28.55008)
(239.80183 0 -28.438084)
(238.75525 0 -28.302129)
(237.68219 3.8975964e-17 -28.139512)
(236.58484 0 -27.948498)
(235.46576 -2.4379241e-16 -27.727254)
(234.32795 3.2847136e-16 -27.474114)
(233.17479 1.2429861e-16 -27.187604)
(232.01001 1.7626267e-16 -26.866463)
(230.83771 -2.7686277e-16 -26.509726)
(229.66226 -5.2175449e-17 -26.116751)
(228.48828 -2.4694659e-16 -25.687266)
(227.32054 1.8585896e-16 -25.221403)
(226.16388 -2.1954438e-16 -24.719732)
(225.02312 8.2133156e-17 -24.183261)
(223.90299 7.766406e-17 -23.613449)
(222.80799 0 -23.012191)
(221.74235 2.7634527e-16 -22.381784)
(220.70989 -2.5955004e-16 -21.724906)
(219.714 0 -21.044552)
(218.75753 -2.2948665e-16 -20.343985)
(217.84278 2.1494672e-16 -19.626668)
(216.97146 -1.0130956e-16 -18.89619)
(216.1447 1.8967518e-16 -18.156202)
(215.36301 -2.6651653e-16 -17.41034)
(214.62638 1.2940623e-19 -16.662162)
(213.93427 -1.5572831e-16 -15.915089)
(213.28569 -7.2883497e-17 -15.17235)
(212.67925 -1.3680501e-16 -14.436945)
(212.11325 2.550256e-16 -13.711614)
(211.58569 -1.1901057e-16 -12.99881)
(211.09442 0 -12.300695)
(210.63713 -3.852708e-19 -11.619132)
(210.21142 9.6826192e-17 -10.955689)
(209.81488 0 -10.311654)
(209.44511 8.4223624e-17 -9.6880433)
(209.09974 7.8755495e-17 -9.0856214)
(208.77647 -7.312615e-17 -8.5049208)
(208.47307 2.7225805e-16 -7.9462607)
(208.18742 -2.5310784e-16 -7.4097676)
(207.91746 -1.1771879e-16 -6.8953934)
(207.66125 -1.0936195e-16 -6.4029341)
(207.41688 1.0154871e-16 -5.9320454)
(207.18252 1.8837239e-16 -5.4822588)
(206.95637 -3.4943579e-16 -5.0529966)
(206.73666 4.0498201e-16 -4.6435933)
(206.52162 -1.5006298e-16 -4.2533003)
(206.30942 1.3910289e-16 -3.881304)
(206.09824 -1.2876923e-16 -3.5267591)
(205.88611 2.3848577e-16 -3.1887858)
(205.67083 -3.3107716e-16 -2.8664771)
(205.44997 2.0411009e-16 -2.5589501)
(205.22086 -7.6661232e-20 -2.2654289)
(204.98086 8.7250775e-17 -1.9853799)
(204.72777 0 -1.7186492)
(204.46038 0 -1.4656125)
(204.17857 0 -1.2274109)
(203.8829 -1.2684129e-16 -1.0058318)
(203.57422 1.2577223e-20 -0.80197521)
(203.25289 0 -0.61557687)
(202.91565 0 -0.44859722)
(202.55547 9.1765823e-17 -0.3052373)
(202.1728 -1.6910393e-16 -0.18187151)
(201.77505 0 -0.076013176)
(201.35313 0 0.055478542)
(200.81247 -1.3199469e-16 0.34113269)
(222.18724 2.7663257e-17 -43.295174)
(262.73947 -7.8281019e-16 -20.799666)
(243.02114 3.4668102e-16 -42.631979)
(253.68288 -2.1656062e-17 -23.673036)
(245.99291 3.71918e-16 -39.418701)
(249.26379 -3.5070509e-16 -27.263808)
(246.14174 0 -35.908343)
(246.48033 -3.1594133e-16 -30.425678)
(245.03113 2.3225774e-16 -33.448725)
(244.32696 2.2061669e-16 -32.01408)
(243.28782 -2.381337e-16 -32.495671)
(242.3111 0 -32.271652)
(241.27395 1.9194136e-19 -32.220491)
(240.2099 0 -32.098944)
(239.11296 3.8366425e-16 -31.959917)
(237.98649 -7.2478621e-16 -31.790015)
(236.83245 3.4218056e-16 -31.589202)
(235.65361 -4.0423259e-17 -31.354868)
(234.45318 -3.8416721e-17 -31.085088)
(233.23481 3.65179e-17 -30.778009)
(232.00265 -6.818406e-17 -30.432047)
(230.76124 -3.2304135e-16 -30.045918)
(229.51551 3.0403731e-16 -29.618706)
(228.2707 5.7317841e-17 -29.149928)
(227.03226 -2.7167546e-16 -28.639558)
(225.80575 -7.1017793e-19 -28.088089)
(224.59678 2.8855828e-16 -27.496532)
(223.41085 -1.8112029e-16 -26.866436)
(222.25323 -6.2276377e-19 -26.199869)
(221.12888 0 -25.499399)
(220.04232 0 -24.768044)
(218.99755 -7.1294913e-17 -24.00922)
(217.99795 1.3347096e-16 -23.226678)
(217.04621 0 -22.424411)
(216.14435 -1.1798919e-16 -21.606582)
(215.29363 2.2077313e-16 -20.777432)
(214.49463 -1.0343394e-16 -19.941184)
(213.74726 -1.9384908e-16 -19.101978)
(213.05078 9.0074519e-17 -18.263781)