/*--------------------------------*- C++ -*----------------------------------*\
  =========                 |
  \\      /  F ield         | OpenFOAM: The Open Source CFD Toolbox
   \\    /   O peration     | Website:  https://openfoam.org
    \\  /    A nd           | Version:  12
     \\/     M anipulation  |
\*---------------------------------------------------------------------------*/
FoamFile
{
    format      ascii;
    class       volScalarField;
    location    "0.059";
    object      Ma;
}
// * * * * * * * * * * * * * * * * * * * * * * * * * * * * * * * * * * * * * //

dimensions      [];

internalField   nonuniform List<scalar> 
16000
(
0.63241343
0.75093388
0.70571119
0.73040065
0.71520226
0.72220875
0.71643331
0.71796535
0.71529371
0.71483707
0.7131906
0.71203903
0.71060438
0.70920388
0.7077201
0.70618903
0.7045994
0.70295273
0.70124776
0.69948395
0.69766085
0.69577825
0.69383619
0.69183498
0.68977524
0.68765792
0.68548434
0.6832562
0.6809756
0.67864507
0.67626755
0.6738464
0.67138543
0.66888884
0.66636125
0.66380763
0.66123328
0.6586438
0.65604501
0.65344289
0.65084353
0.64825304
0.64567748
0.64312277
0.64059464
0.63809852
0.6356395
0.63322224
0.63085097
0.62852934
0.62626052
0.62404706
0.62189097
0.61979369
0.61775609
0.61577854
0.61386094
0.61200278
0.61020332
0.60846165
0.60677686
0.60514859
0.60357737
0.6020645
0.60061181
0.59922127
0.59789424
0.59663083
0.59542892
0.5942823
0.59317714
0.59208763
0.59097311
0.58978024
0.58845624
0.58696982
0.58531932
0.58346907
0.58125876
0.57969399
0.63692714
0.75618346
0.7090273
0.73507927
0.71906094
0.72652125
0.72030567
0.7219458
0.71909594
0.71856233
0.71682784
0.7155578
0.7140301
0.71251317
0.71091865
0.70926876
0.70755765
0.70578514
0.70395061
0.70205356
0.7000938
0.69807141
0.69598676
0.69384057
0.6916339
0.68936823
0.68704542
0.6846678
0.68223811
0.67975958
0.67723588
0.67467116
0.67206998
0.66943736
0.6667787
0.66409974
0.66140651
0.6587053
0.65600254
0.65330473
0.65061842
0.64795002
0.64530579
0.64269176
0.64011358
0.63757654
0.63508542
0.6326445
0.63025749
0.6279275
0.62565702
0.62344795
0.62130159
0.61921867
0.61719938
0.61524344
0.6133501
0.61151833
0.60974688
0.60803448
0.60637992
0.60478258
0.60324283
0.60176185
0.60034133
0.59898288
0.59768726
0.59645358
0.5952785
0.59415462
0.59306742
0.59199111
0.59088507
0.58969504
0.58836852
0.58687835
0.58521038
0.58331949
0.58124053
0.57948927
0.6411337
0.76099375
0.71264691
0.73913909
0.72266791
0.73023026
0.72385638
0.72538181
0.72247729
0.72178498
0.71998129
0.7185712
0.71693742
0.71529152
0.71357026
0.71178701
0.70993855
0.70802444
0.70604432
0.70399804
0.70188574
0.69970792
0.6974654
0.69515941
0.69279159
0.69036403
0.68787928
0.6853404
0.68275095
0.68011499
0.67743709
0.67472232
0.67197618
0.66920464
0.666414
0.6636109
0.6608022
0.65799492
0.65519614
0.65241291
0.64965213
0.6469205
0.64422437
0.64156968
0.63896191
0.63640596
0.63390612
0.63146604
0.62908871
0.62677643
0.62453084
0.62235294
0.62024312
0.61820123
0.61622661
0.61431814
0.61247435
0.61069355
0.60897392
0.60731375
0.60571154
0.60416644
0.60267864
0.60124922
0.59987967
0.5985712
0.59732388
0.59613577
0.59500214
0.59391414
0.59285628
0.59180262
0.59071275
0.58953293
0.58821309
0.5867271
0.58505235
0.58316146
0.5811596
0.57932901
0.64495731
0.76536496
0.71569141
0.74265621
0.72579874
0.73346683
0.72693024
0.72831987
0.72535177
0.72448108
0.72259374
0.72102706
0.71926888
0.71747764
0.71561196
0.71367845
0.71167587
0.70960376
0.7074621
0.7052511
0.70297131
0.70062368
0.69820957
0.69573079
0.69318968
0.69058907
0.68793238
0.68522356
0.68246715
0.67966826
0.67683254
0.67396614
0.67107569
0.6681682
0.66525102
0.66233173
0.65941805
0.65651771
0.65363839
0.65078754
0.64797232
0.64519948
0.64247523
0.63980523
0.63719445
0.63464717
0.6321669
0.6297564
0.62741766
0.62515195
0.62295983
0.62084121
0.61879543
0.61682129
0.61491717
0.61308107
0.61131071
0.60960371
0.60795766
0.60637039
0.6048401
0.6033657
0.60194719
0.60058549
0.59928184
0.59803707
0.59685059
0.59571947
0.59463774
0.5935953
0.59257587
0.59155348
0.59048813
0.58932739
0.588024
0.58655063
0.58487989
0.58300727
0.5810637
0.57919155
0.64838307
0.76923258
0.71845014
0.74556472
0.72828661
0.73612115
0.72946728
0.73066528
0.72764583
0.72656642
0.72458462
0.72284385
0.72094292
0.71899103
0.71696421
0.71486465
0.71269208
0.71044621
0.7081273
0.70573593
0.70327313
0.70074042
0.69813984
0.69547401
0.69274617
0.68996018
0.68712054
0.68423241
0.68130158
0.67833446
0.67533799
0.67231966
0.66928736
0.6662493
0.66321393
0.66018982
0.6571855
0.65420933
0.65126942
0.64837344
0.64552856
0.64274128
0.6400174
0.63736192
0.634779
0.63227193
0.62984313
0.62749415
0.62522572
0.62303783
0.62092975
0.61890011
0.61694706
0.61506827
0.61326108
0.61152254
0.60984958
0.6082391
0.60668815
0.60519412
0.60375493
0.60236931
0.60103707
0.59975897
0.59853602
0.59736865
0.59625567
0.59519327
0.59417434
0.59318761
0.59221607
0.59123361
0.59020075
0.58906729
0.58778928
0.58633753
0.58468337
0.58284477
0.58095698
0.57906841
0.65136124
0.77251573
0.72074219
0.74799837
0.73045403
0.73811433
0.73132225
0.73234476
0.7292553
0.72797104
0.72588365
0.72395868
0.72189942
0.71977413
0.71757091
0.71528961
0.71293038
0.71049336
0.70797925
0.70538926
0.70272518
0.69998942
0.69718505
0.69431585
0.69138631
0.68840166
0.68536787
0.68229162
0.67918027
0.67604178
0.67288466
0.66971789
0.66655074
0.66339271
0.66025334
0.65714206
0.65406808
0.65104019
0.64806662
0.64515494
0.64231193
0.63954346
0.63685446
0.63424888
0.63172964
0.62929865
0.62695688
0.62470435
0.62254028
0.62046312
0.61847068
0.61656023
0.6147286
0.6129723
0.61128763
0.60967073
0.60811775
0.60662497
0.60518895
0.60380672
0.602476
0.60119536
0.59996451
0.59878404
0.59765472
0.59657666
0.59554812
0.59456456
0.59361791
0.59269591
0.59178085
0.59084638
0.58985373
0.58875573
0.58751175
0.58609031
0.58446422
0.58267361
0.58084608
0.57895064
0.65387419
0.77520266
0.72257194
0.74993022
0.7321344
0.73944054
0.73272138
0.73335708
0.73027811
0.72868511
0.72647691
0.72435578
0.72211722
0.71979908
0.7173971
0.71491072
0.71234064
0.7096878
0.70695379
0.70414082
0.70125185
0.69829059
0.69526153
0.69217001
0.68902219
0.68582506
0.68258641
0.67931478
0.67601939
0.67271003
0.66939694
0.66609069
0.66280199
0.65954152
0.65631976
0.65314682
0.65003223
0.64698479
0.64401247
0.6411222
0.63831985
0.63561015
0.63299664
0.63048168
0.6280665
0.62575124
0.62353503
0.62141609
0.61939186
0.61745912
0.61561411
0.61385266
0.61217032
0.61056247
0.60902441
0.60755149
0.60613919
0.60478328
0.60347994
0.602226
0.60101903
0.59985757
0.59874126
0.59767056
0.59664608
0.5956676
0.59473297
0.59383708
0.59297107
0.59212188
0.5912711
0.59039204
0.58944702
0.5883926
0.58719109
0.5858082
0.58422075
0.58249066
0.58072811
0.57883268
0.65597354
0.7773311
0.72398629
0.75139382
0.73338537
0.74038434
0.73355396
0.73399884
0.7305743
0.72873115
0.72636434
0.72401955
0.72156616
0.71902231
0.71638787
0.713663
0.71084917
0.70794842
0.70496353
0.70189812
0.69875665
0.69554456
0.69226818
0.68893485
0.68555281
0.68213123
0.67868009
0.67521015
0.67173271
0.66825959
0.66480283
0.66137457
0.65798681
0.65465119
0.65137877
0.64817987
0.64506382
0.64203888
0.63911204
0.63628897
0.63357398
0.63096998
0.62847851
0.62609984
0.623833
0.62167596
0.61962573
0.61767849
0.61582978
0.61407463
0.61240771
0.61082347
0.60931627
0.60788048
0.60651059
0.6052013
0.60394759
0.6027449
0.60158923
0.6004773
0.59940672
0.59837605
0.59738495
0.59643385
0.59552318
0.59465251
0.5938194
0.59301829
0.5922398
0.59147023
0.59069048
0.58987349
0.58898316
0.58798039
0.58682966
0.58549328
0.58395432
0.58229414
0.58059849
0.5787104
0.65772984
0.77893017
0.72493501
0.75237982
0.73395435
0.74027024
0.73356937
0.73330914
0.73021453
0.72804757
0.7254731
0.72286847
0.7201579
0.71734871
0.7144425
0.71144069
0.70834581
0.7051613
0.70189156
0.69854204
0.69511925
0.69163083
0.68808552
0.68449316
0.6808646
0.67721163
0.67354683
0.6698834
0.66623498
0.66261539
0.65903841
0.65551751
0.6520656
0.64869477
0.64541606
0.64223926
0.63917276
0.63622337
0.63339632
0.63069517
0.62812186
0.62567678
0.62335886
0.62116573
0.61909386
0.61713873
0.61529503
0.61355684
0.61191779
0.61037123
0.60891041
0.60752856
0.60621907
0.60497552
0.60379181
0.60266224
0.60158153
0.60054499
0.59954861
0.59858923
0.59766459
0.59677339
0.59591542
0.59509111
0.59430083
0.59354401
0.592818
0.59211698
0.59143127
0.59074673
0.59004362
0.58929456
0.58846559
0.58752225
0.58643019
0.58514828
0.58366822
0.58208627
0.58045458
0.57858001
0.65913285
0.77996511
0.72534966
0.75262021
0.73379316
0.73965375
0.73301752
0.73231074
0.72902936
0.72651394
0.72368102
0.72077884
0.71776751
0.71465045
0.71143025
0.70811009
0.70469418
0.70118795
0.69759808
0.69393249
0.69020047
0.68641255
0.68258058
0.67871753
0.67483743
0.67095512
0.66708609
0.66324616
0.65945125
0.655717
0.65205855
0.64849013
0.64502486
0.6416744
0.63844881
0.63535632
0.63240323
0.62959391
0.62693075
0.62441427
0.62204323
0.61981482
0.61772481
0.61576782
0.6139375
0.61222675
0.61062797
0.60913321
0.60773439
0.60642343
0.6051924
0.60403365
0.60293988
0.60190422
0.60092026
0.59998217
0.59908467
0.59822321
0.59739397
0.59659406
0.59582149
0.59507523
0.59435529
0.59366217
0.59299626
0.59235692
0.5917414
0.59114381
0.59055436
0.58995873
0.58933657
0.58866047
0.58789908
0.58702242
0.58599609
0.58477633
0.58336605
0.58187059
0.58029717
0.57844333
0.66010688
0.78031404
0.72514289
0.75125624
0.73285533
0.73816586
0.73162174
0.73032602
0.72690848
0.72401129
0.72086282
0.71761762
0.7142565
0.71078331
0.70720192
0.70351786
0.69973781
0.69587003
0.69192433
0.68791208
0.68384619
0.67974104
0.67561231
0.67147682
0.66735224
0.6632568
0.65920897
0.65522708
0.65132892
0.64753138
0.64385009
0.64029903
0.63689029
0.63363382
0.63053726
0.62760588
0.6248426
0.62224804
0.61982071
0.61755717
0.61545232
0.61349965
0.61169147
0.61001927
0.60847391
0.60704588
0.60572552
0.6045032
0.60336949
0.60231527
0.60133188
0.60041116
0.59954551
0.59872795
0.59795214
0.59721238
0.59650372
0.59582191
0.59516357
0.59452622
0.59390829
0.59330911
0.59272895
0.59216851
0.59162826
0.59110757
0.5906037
0.59011081
0.58961928
0.58911474
0.58857646
0.58797744
0.58728931
0.58648569
0.58553094
0.58438043
0.58305047
0.5816488
0.58013056
0.5783028
0.66056422
0.7798231
0.72420132
0.74943051
0.73132892
0.73574738
0.72928461
0.7273731
0.72372227
0.72040534
0.71687705
0.71323352
0.7094661
0.70558143
0.70158569
0.69748763
0.69329755
0.68902774
0.68469237
0.68030742
0.67589057
0.67146097
0.66703891
0.66264556
0.6583025
0.65403131
0.6498531
0.64578803
0.64185482
0.63807034
0.63444919
0.63100339
0.62774221
0.62467201
0.62179625
0.61911561
0.61662818
0.61432967
0.61221379
0.61027254
0.60849658
0.60687556
0.60539845
0.60405382
0.60283012
0.60171587
0.60069988
0.59977135
0.59892006
0.59813638
0.59741138
0.59673686
0.59610537
0.59551017
0.59494532
0.59440559
0.59388655
0.59338453
0.59289673
0.59242119
0.59195687
0.59150355
0.59106185
0.59063269
0.59021671
0.58981339
0.58942007
0.58903112
0.58863726
0.58822426
0.58777134
0.58725248
0.58664241
0.58591695
0.58503827
0.58396373
0.58272471
0.58142278
0.57995666
0.57816171
0.66045583
0.77843084
0.72240024
0.7467217
0.72887649
0.73230464
0.72587711
0.72329871
0.71932836
0.71553893
0.71155738
0.70744808
0.70320802
0.69884812
0.69437852
0.68981273
0.68516629
0.68045711
0.67570523
0.67093258
0.66616269
0.66142026
0.65673071
0.65211966
0.64761235
0.64323302
0.63900428
0.63494657
0.63107763
0.62741207
0.62396107
0.62073226
0.61772971
0.614954
0.61240256
0.61006992
0.60794816
0.60602733
0.60429592
0.60274126
0.60134994
0.60010816
0.59900206
0.59801795
0.59714255
0.59636315
0.59566769
0.59504494
0.59448448
0.59397676
0.59351312
0.59308579
0.59268784
0.59231318
0.59195653
0.5916134
0.59128009
0.59095369
0.59063208
0.59031396
0.58999883
0.58968701
0.58937947
0.58907746
0.58878185
0.58849226
0.58820625
0.58791854
0.58762027
0.5872975
0.58692985
0.58649299
0.5859645
0.58532061
0.5845211
0.5835293
0.58239178
0.58119356
0.57977549
0.57802104
0.65976311
0.77603377
0.71967299
0.74294617
0.72541322
0.72771709
0.72124822
0.71795039
0.71354913
0.70921528
0.70469447
0.70003807
0.69524822
0.69034189
0.68533556
0.68024956
0.67510672
0.66993235
0.66475386
0.65960034
0.65450197
0.64948941
0.64459309
0.6398424
0.63526492
0.63088559
0.62672609
0.62280422
0.61913351
0.61572306
0.61257747
0.60969707
0.60707821
0.60471373
0.6025935
0.600705
0.59903385
0.59756442
0.59628028
0.59516469
0.59420095
0.59337273
0.59266425
0.59206056
0.59154757
0.59111219
0.59074236
0.59042709
0.59015645
0.58992152
0.58971441
0.58952817
0.58935677
0.58919504
0.58903862
0.58888394
0.5887282
0.58856934
0.58840602
0.5882376
0.58806422
0.58788669
0.58770642
0.58752497
0.5873435
0.58716189
0.586978
0.58678701
0.58658052
0.58634499
0.586061
0.58570657
0.58526148
0.58470054
0.58398206
0.58307994
0.58205395
0.58096014
0.57958431
0.57788011
0.65842229
0.77245701
0.71596922
0.73797538
0.72076435
0.72181528
0.71519587
0.71111052
0.7061495
0.70117532
0.69601435
0.69071692
0.68529305
0.67976801
0.6741674
0.66852069
0.66286003
0.65721988
0.65163637
0.64614656
0.64078749
0.63559516
0.6306035
0.62584327
0.62134114
0.61711891
0.61319297
0.60957405
0.60626722
0.60327216
0.60058359
0.59819194
0.59608403
0.59424384
0.59265329
0.59129289
0.59014243
0.58918147
0.58838985
0.587748
0.58723726
0.58683999
0.58653981
0.58632155
0.58617138
0.58607674
0.58602635
0.58601016
0.58601927
0.5860459
0.5860833
0.5861257
0.5861682
0.58620676
0.5862381
0.5862597
0.58626974
0.58626706
0.58625111
0.58622197
0.58618033
0.58612754
0.58606541
0.58599586
0.58592036
0.58583915
0.58575051
0.58565012
0.58553002
0.58537722
0.58517388
0.58490084
0.58453907
0.58406039
0.58342372
0.58261831
0.58171252
0.58071954
0.57937779
0.57773676
0.65638172
0.76746274
0.71134433
0.73163011
0.7147256
0.71437289
0.7074492
0.70247944
0.69680841
0.69107535
0.68516249
0.67912612
0.67298782
0.66678384
0.66055159
0.65433227
0.64816951
0.64210853
0.63619497
0.63047348
0.62498628
0.6197717
0.61486285
0.6102866
0.60606281
0.60220404
0.59871559
0.5955959
0.59283721
0.59042647
0.58834627
0.58657592
0.58509241
0.58387129
0.58288751
0.58211606
0.58153253
0.58111347
0.58083674
0.58068168
0.58062922
0.58066194
0.58076404
0.58092133
0.58112114
0.58135226
0.58160485
0.58187031
0.58214127
0.58241138
0.58267534
0.58292871
0.58316792
0.58339013
0.58359327
0.58377588
0.58393712
0.58407674
0.58419496
0.58429254
0.5843707
0.58443129
0.58447648
0.58450856
0.58452934
0.58453951
0.58453786
0.58452059
0.58448014
0.58440429
0.58427736
0.5840832
0.58380278
0.58340394
0.58284909
0.58214692
0.58136784
0.58046845
0.57915012
0.57758861
0.65358277
0.76065488
0.70563043
0.72363933
0.7069846
0.70504039
0.69761784
0.69164155
0.68510033
0.67848059
0.67170638
0.66484394
0.65793103
0.65101852
0.64415934
0.63740945
0.63082583
0.62446465
0.61837923
0.61261793
0.60722233
0.60222575
0.59765232
0.59351656
0.58982356
0.58656958
0.58374311
0.58132606
0.57929518
0.57762343
0.57628126
0.57523783
0.57446192
0.57392283
0.57359094
0.57343819
0.57343835
0.57356726
0.57380285
0.57412519
0.57451641
0.5749606
0.5754437
0.5759534
0.57647895
0.57701107
0.5775418
0.57806441
0.57857324
0.57906362
0.57953177
0.57997472
0.58039022
0.58077672
0.58113327
0.5814595
0.58175551
0.58202187
0.58225954
0.58246988
0.58265463
0.58281601
0.58295657
0.58307892
0.58318525
0.58327672
0.58335275
0.58341001
0.58344137
0.58343568
0.5833799
0.58326064
0.58305774
0.58273513
0.58226174
0.58166752
0.5810183
0.58020444
0.5789003
0.57743456
0.64988513
0.75137141
0.69824383
0.71354934
0.69708369
0.69334198
0.68519551
0.6780791
0.67050931
0.66287802
0.65514814
0.64740124
0.63969794
0.6321094
0.62470779
0.61756505
0.61074959
0.60432336
0.59833922
0.5928389
0.58785176
0.58339432
0.57947064
0.57607338
0.5731853
0.57078111
0.56882935
0.56729436
0.56613793
0.56532086
0.56480416
0.56455002
0.5645225
0.56468803
0.56501567
0.56547725
0.5660474
0.56670348
0.56742544
0.56819564
0.5689987
0.56982125
0.57065179
0.57148048
0.57229897
0.57310022
0.57387844
0.57462884
0.57534762
0.57603179
0.57667912
0.57728806
0.57785766
0.57838755
0.57887788
0.57932925
0.57974263
0.58011934
0.58046098
0.58076942
0.58104687
0.58129589
0.58151931
0.58172001
0.58190059
0.58206271
0.58220638
0.58232879
0.58242332
0.58248029
0.58248947
0.58243955
0.58230851
0.58205789
0.58166557
0.58118042
0.58065769
0.57992384
0.57863858
0.57726848
0.64499831
0.73969287
0.68875179
0.70080234
0.68444418
0.67871598
0.66957893
0.66116965
0.65241767
0.64366706
0.63492858
0.62630794
0.61789542
0.60978546
0.60206734
0.59482181
0.58811703
0.58200584
0.57652401
0.5716899
0.56750522
0.56395673
0.56101856
0.55865496
0.556823
0.5554752
0.55456184
0.55403285
0.55383934
0.5539347
0.55427536
0.55482125
0.55553599
0.55638699
0.55734528
0.55838539
0.55948506
0.560625
0.5617886
0.56296163
0.56413202
0.56528956
0.56642571
0.56753339
0.56860681
0.56964129
0.57063317
0.57157963
0.57247863
0.57332879
0.57412932
0.57487997
0.57558099
0.57623309
0.57683737
0.57739528
0.57790857
0.57837918
0.57880926
0.57920114
0.57955741
0.5798809
0.58017466
0.58044183
0.5806853
0.58090725
0.58110823
0.58128594
0.58143459
0.58154631
0.58161346
0.58162573
0.58155917
0.58137594
0.58106471
0.58068597
0.58027679
0.57961662
0.57837295
0.57708328
0.63857141
0.72649936
0.67659799
0.68480376
0.66834188
0.66043504
0.64999408
0.6401205
0.63006882
0.62016683
0.61048575
0.60116089
0.59230924
0.58403837
0.57643758
0.56957457
0.56349315
0.55821302
0.55373125
0.55002512
0.54705578
0.54477225
0.54311539
0.54202151
0.54142545
0.54126298
0.54147263
0.54199692
0.54278312
0.54378356
0.54495579
0.54626233
0.54767047
0.54915189
0.55068225
0.55224077
0.55380985
0.55537469
0.55692289
0.55844417
0.5599301
0.56137379
0.56276974
0.5641136
0.56540207
0.5666327
0.56780384
0.56891445
0.56996408
0.57095279
0.57188107
0.57274981
0.5735603
0.57431415
0.57501327
0.57565986
0.57625625
0.57680494
0.57730854
0.57776977
0.57819153
0.57857687
0.57892901
0.57925124
0.57954671
0.57981799
0.58006608
0.58028929
0.58048303
0.5806415
0.58075902
0.58082503
0.58081434
0.58069355
0.58046356
0.58018652
0.5798716
0.57927002
0.57808758
0.57691387
0.63027447
0.70929299
0.66093545
0.66465855
0.64772294
0.63743289
0.6254032
0.61396312
0.60264477
0.59177075
0.58146912
0.5718915
0.56315583
0.55535065
0.54852986
0.54271347
0.53789024
0.53402238
0.53105131
0.52890374
0.52749742
0.52674623
0.5265642
0.52686858
0.52758192
0.52863339
0.52995932
0.53150339
0.53321636
0.53505567
0.53698485
0.5389729
0.54099371
0.54302538
0.54504974
0.54705176
0.54901916
0.55094197
0.55281221
0.55462356
0.55637109
0.5580511
0.55966089
0.56119863
0.56266323
0.56405424
0.56537172
0.5666162
0.56778859
0.56889014
0.56992244
0.57088733
0.57178693
0.57262361
0.57339995
0.57411869
0.57478266
0.5753948
0.57595811
0.57647565
0.57695057
0.57738612
0.57778562
0.57815246
0.57848994
0.57880082
0.57908648
0.57934596
0.57957624
0.57977366
0.57993365
0.58004446
0.58008072
0.58001694
0.57986684
0.57968639
0.5794482
0.57888993
0.57778256
0.57676289
0.61944817
0.68706574
0.64035573
0.63894552
0.62110669
0.60831657
0.59463187
0.5817943
0.56958692
0.55830841
0.54810166
0.5390884
0.53133494
0.52486005
0.51963811
0.51560738
0.51267905
0.51074667
0.50969466
0.50940542
0.50976472
0.51066547
0.51200996
0.51371098
0.51569207
0.51788716
0.52023982
0.52270239
0.52523494
0.52780429
0.5303831
0.53294899
0.53548379
0.53797291
0.5404047
0.54277004
0.54506185
0.54727478
0.54940493
0.55144953
0.55340684
0.5552759
0.55705644
0.55874878
0.56035369
0.56187236
0.5633063
0.5646573
0.56592737
0.56711876
0.56823388
0.56927536
0.57024598
0.57114869
0.57198656
0.57276275
0.57348049
0.57414304
0.57475372
0.57531591
0.575833
0.5763084
0.57674551
0.57714777
0.57751848
0.57786046
0.57817532
0.57846297
0.57872214
0.57895117
0.57914586
0.57929301
0.57936847
0.57935632
0.57928135
0.57918956
0.57901851
0.57850071
0.57748115
0.57665554
0.6049377
0.65771159
0.61293674
0.60590101
0.58688321
0.57170932
0.55679599
0.54326794
0.53109096
0.52048228
0.5115151
0.50420668
0.49850662
0.49431491
0.49149556
0.48989179
0.48933891
0.48967442
0.49074523
0.49241198
0.49455123
0.49705596
0.49983499
0.5028117
0.50592247
0.50911499
0.51234665
0.51558302
0.51879651
0.5219652
0.52507189
0.52810321
0.53104894
0.53390145
0.53665521
0.53930636
0.54185245
0.54429212
0.54662491
0.54885106
0.55097143
0.55298733
0.55490045
0.55671281
0.5584267
0.56004458
0.56156909
0.56300301
0.5643492
0.56561066
0.56679048
0.56789184
0.56891803
0.56987242
0.57075843
0.57157952
0.57233919
0.57304097
0.57368844
0.57428526
0.57483505
0.5753414
0.5758078
0.57623769
0.5766343
0.57700038
0.57733769
0.57764701
0.57792874
0.57818275
0.57840489
0.57858125
0.57869057
0.57872589
0.57871804
0.57870098
0.5785914
0.57813765
0.57724366
0.57658393
0.58475986
0.61887982
0.57649095
0.56372926
0.54405287
0.52692397
0.51194273
0.49915845
0.48854009
0.48013043
0.47383167
0.46948319
0.46687255
0.46576415
0.4659185
0.46710739
0.46912314
0.47178327
0.47493175
0.47843796
0.4821944
0.48611379
0.49012612
0.49417577
0.49821898
0.50222169
0.50615763
0.51000682
0.51375431
0.51738913
0.52090354
0.52429227
0.5275521
0.53068133
0.53367952
0.53654721
0.53928563
0.54189664
0.54438249
0.5467458
0.54898941
0.55111639
0.55312994
0.55503337
0.5568301
0.55852355
0.56011721
0.56161457
0.56301915
0.56433448
0.56556413
0.56671171
0.56778085
0.5687752
0.56969842
0.57055416
0.57134609
0.57207795
0.57275355
0.57337675
0.57395143
0.57448135
0.57497017
0.57542133
0.575838
0.57622278
0.57657759
0.57690397
0.57720354
0.57747701
0.57772023
0.57792012
0.57806023
0.57814074
0.5781919
0.57823317
0.57817444
0.57780192
0.57707089
0.57656275
0.55629925
0.56806209
0.52968622
0.51109095
0.49031107
0.47473053
0.46166154
0.45170651
0.44460029
0.44009854
0.43785314
0.43749854
0.43867493
0.44105384
0.44434884
0.44831914
0.45276778
0.45753703
0.46250268
0.4675683
0.4726599
0.47772138
0.48271074
0.48759698
0.49235761
0.49697678
0.50144366
0.50575135
0.50989589
0.51387561
0.51769053
0.52134196
0.52483217
0.52816414
0.53134135
0.53436764
0.53724707
0.53998385
0.54258228
0.5450467
0.54738143
0.5495908
0.55167911
0.5536506
0.55550948
0.55725988
0.55890587
0.56045145
0.56190058
0.56325718
0.56452516
0.56570839
0.56681075
0.56783605
0.56878808
0.56967062
0.57048742
0.57124237
0.57193942
0.57258265
0.57317613
0.57372384
0.57422964
0.57469708
0.5751293
0.5755289
0.575898
0.57623868
0.57655314
0.57684222
0.57710181
0.57732109
0.57748958
0.57761299
0.57771738
0.57780833
0.57779542
0.57750462
0.57694249
0.57664482
0.51543191
0.50276422
0.46534017
0.44733082
0.42981124
0.41753383
0.40917175
0.4045063
0.4028807
0.40370583
0.4064099
0.41050316
0.41558112
0.42132354
0.42748352
0.43387488
0.44035962
0.44683707
0.4532349
0.4595021
0.46560349
0.47151561
0.47722364
0.48271904
0.48799786
0.49305947
0.49790559
0.50253964
0.50696617
0.51119054
0.51521859
0.51905647
0.52271046
0.52618691
0.52949209
0.53263219
0.53561326
0.53844118
0.54112165
0.54366019
0.54606218
0.54833279
0.55047707
0.55249991
0.55440604
0.55620006
0.55788642
0.55946948
0.56095348
0.5623426
0.56364095
0.5648526
0.56598154
0.56703168
0.56800689
0.56891096
0.56974773
0.57052114
0.57123527
0.57189428
0.57250244
0.57306395
0.57358287
0.57406298
0.57450758
0.57491945
0.57530102
0.57565473
0.57598284
0.57628579
0.57655967
0.5767965
0.57699138
0.57715338
0.57730201
0.57743059
0.57745862
0.57726605
0.57689054
0.5767306
0.45319142
0.42045421
0.39062263
0.37569291
0.36480108
0.35997143
0.35939834
0.36215831
0.36725555
0.37392657
0.38158301
0.38979804
0.39826953
0.40678915
0.41521636
0.4234587
0.43145738
0.43917685
0.4465976
0.45371101
0.46051579
0.46701555
0.47321705
0.47912901
0.48476133
0.49012453
0.49522932
0.50008639
0.50470625
0.50909907
0.51327468
0.51724248
0.52101147
0.52459021
0.52798685
0.53120911
0.53426435
0.53715952
0.53990124
0.54249582
0.54494927
0.54726734
0.54945554
0.55151915
0.55346326
0.55529274
0.55701229
0.55862648
0.56013972
0.56155636
0.56288063
0.5641167
0.56526861
0.56634035
0.56733578
0.56825873
0.56911304
0.56990269
0.57063179
0.57130457
0.5719254
0.57249864
0.57302859
0.57351925
0.57397427
0.57439681
0.57478977
0.57515586
0.57549715
0.5758137
0.5761022
0.5763573
0.57657747
0.57677097
0.57694954
0.57710166
0.57716696
0.57707388
0.57687867
0.57683594
0.35694468
0.32334325
0.305657
0.30114971
0.30253433
0.30882259
0.3180298
0.32888444
0.34050903
0.3523495
0.36406836
0.37546842
0.38644124
0.39693331
0.40692465
0.41641544
0.42541757
0.43394943
0.4420327
0.44969036
0.45694548
0.46382054
0.47033702
0.47651521
0.48237411
0.48793147
0.49320379
0.49820639
0.5029535
0.50745834
0.5117332
0.5157895
0.51963789
0.5232883
0.52674999
0.53003164
0.53314135
0.53608674
0.53887496
0.54151278
0.54400659
0.54636247
0.5485862
0.55068329
0.55265901
0.5545184
0.55626629
0.55790736
0.55944613
0.56088702
0.56223435
0.56349231
0.564665
0.5657564
0.56677038
0.56771078
0.56858143
0.56938632
0.57012955
0.57081538
0.57144818
0.57203241
0.57257246
0.57307256
0.57353669
0.57396849
0.57437136
0.57474827
0.57510123
0.57543034
0.57573338
0.57600733
0.57625182
0.57647144
0.57667072
0.57684013
0.57694584
0.57695298
0.57689483
0.57692782
0.21730666
0.21601611
0.22141518
0.23485686
0.25222327
0.27067636
0.28900704
0.30656218
0.32311139
0.33859
0.35302287
0.36647023
0.37900577
0.39070478
0.40163902
0.41187457
0.42147117
0.43048235
0.43895586
0.44693422
0.45445532
0.46155296
0.46825735
0.47459555
0.48059192
0.48626836
0.49164472
0.49673898
0.50156751
0.50614523
0.51048585
0.51460191
0.518505
0.5222058
0.5257142
0.52903939
0.5321899
0.53517369
0.53799821
0.54067046
0.54319705
0.5455842
0.54783784
0.5499636
0.55196682
0.55385261
0.55562589
0.55729137
0.55885361
0.56031707
0.56168609
0.56296487
0.56415752
0.56526801
0.5663002
0.5672579
0.56814495
0.56896528
0.56972301
0.57042235
0.57106769
0.57166344
0.57221402
0.57272374
0.57319681
0.57363725
0.57404887
0.57443492
0.5747975
0.57513711
0.57545274
0.57574306
0.57600774
0.57624752
0.57646189
0.57664558
0.57678795
0.5768809
0.57693642
0.5770003
0.09223406
0.12223092
0.15977234
0.19353039
0.22376455
0.25038351
0.27400878
0.29510711
0.31409547
0.33130062
0.34698598
0.36136252
0.37460145
0.38684288
0.39820266
0.4087775
0.41864884
0.42788582
0.4365476
0.44468517
0.45234274
0.45955891
0.46636758
0.47279864
0.47887865
0.48463125
0.49007764
0.49523688
0.5001262
0.50476123
0.50915618
0.51332408
0.51727685
0.52102545
0.52458003
0.52794992
0.53114383
0.53416981
0.53703542
0.5397477
0.54231332
0.54473853
0.54702927
0.54919119
0.55122963
0.55314971
0.55495631
0.55665413
0.55824773
0.55974154
0.56113987
0.56244691
0.56366674
0.5648033
0.5658604
0.56684181
0.56775131
0.56859282
0.56937041
0.57008833
0.57075098
0.57136282
0.57192835
0.57245197
0.57293805
0.57339089
0.57381455
0.57421245
0.57458684
0.57493858
0.57526749
0.57557312
0.57585467
0.5761102
0.5763366
0.57653232
0.57670058
0.57684605
0.5769639
0.5770371
0.01180226
0.30085574
0.47505652
0.52243002
0.53190065
0.53231398
0.5319805
0.53314087
0.53461108
0.53609526
0.53757677
0.53903379
0.54046174
0.54187691
0.54329034
0.54471121
0.54614142
0.54758121
0.54903002
0.55048675
0.55194991
0.55341762
0.55488782
0.55635833
0.55782694
0.55929142
0.56074958
0.56219927
0.56363842
0.56506501
0.56647706
0.56787267
0.56924998
0.57060716
0.57194241
0.57325395
0.57454004
0.57579892
0.57702885
0.5782281
0.57939492
0.58052758
0.58162434
0.58268347
0.58370328
0.58468205
0.58561814
0.58650993
0.58735582
0.5881543
0.58890392
0.58960326
0.59025097
0.59084572
0.59138614
0.5918707
0.5922977
0.59266514
0.59297059
0.59321084
0.59338182
0.59347938
0.59349958
0.59343825
0.59329173
0.59305472
0.5927253
0.59229379
0.59176965
0.59113299
0.59043682
0.58962942
0.58885451
0.58796272
0.5871882
0.58626372
0.58533873
0.58452811
0.58297953
0.58158866
0.067081237
0.3893259
0.52521416
0.54985667
0.55052554
0.54864004
0.54780735
0.54796592
0.54819172
0.54851316
0.54892369
0.54949401
0.55018703
0.5509717
0.55181874
0.55272491
0.5536843
0.55469178
0.55574181
0.55682925
0.55794938
0.55909773
0.56027011
0.56146254
0.56267126
0.5638927
0.56512344
0.56636021
0.5675999
0.56883949
0.57007608
0.57130689
0.5725292
0.57374038
0.57493788
0.5761192
0.5772819
0.5784236
0.57954195
0.58063466
0.58169947
0.58273414
0.58373652
0.58470445
0.58563587
0.58652874
0.58738111
0.58819109
0.58895688
0.58967675
0.59034908
0.59097235
0.5915451
0.5920659
0.59253333
0.59294581
0.5933016
0.59359868
0.59383464
0.5940063
0.59410971
0.59414094
0.59409632
0.59397205
0.59376467
0.59346954
0.59308479
0.59260256
0.59203182
0.59135728
0.59062886
0.58980234
0.5890115
0.58811212
0.58733024
0.58638079
0.58545803
0.58457416
0.58301458
0.58154595
0.15507681
0.47065593
0.5447132
0.55727885
0.55575438
0.5548249
0.55487019
0.55544398
0.555885
0.55642781
0.55695471
0.55753767
0.5581432
0.55879016
0.55946947
0.5601862
0.56093716
0.561722
0.56253931
0.56338752
0.56426492
0.56516959
0.56609947
0.56705237
0.56802596
0.56901778
0.57002533
0.57104598
0.57207708
0.5731159
0.57415972
0.57520574
0.57625119
0.57729329
0.57832923
0.57935624
0.58037155
0.58137242
0.58235611
0.58331994
0.58426123
0.58517738
0.5860658
0.58692398
0.58774949
0.58853995
0.58929309
0.59000673
0.5906788
0.59130737
0.5918906
0.59242682
0.59291443
0.5933519
0.59373768
0.59407013
0.59434743
0.59456756
0.5947281
0.5948259
0.59485711
0.59481803
0.59470521
0.59451516
0.5942447
0.59388971
0.59344852
0.59291477
0.59229745
0.5915849
0.59082491
0.58997898
0.58917203
0.58826434
0.58747128
0.58650002
0.58556852
0.5846188
0.58303722
0.58150084
0.2368697
0.51690899
0.55870673
0.56585231
0.56315258
0.56339205
0.56348818
0.56407856
0.56437185
0.56483025
0.56521953
0.56568097
0.5661503
0.56665098
0.56716855
0.56771186
0.56827855
0.56887003
0.56948631
0.57012742
0.57079306
0.57148273
0.5721957
0.57293099
0.57368744
0.57446364
0.57525801
0.57606877
0.57689397
0.57773149
0.57857908
0.57943435
0.58029481
0.58115784
0.58202078
0.58288086
0.58373528
0.58458119
0.58541569
0.58623591
0.58703894
0.58782191
0.58858198
0.58931634
0.59002228
0.59069714
0.59133838
0.59194356
0.59251039
0.5930367
0.5935205
0.59395994
0.59435327
0.59469884
0.59499501
0.59524004