/*--------------------------------*- C++ -*----------------------------------*\
  =========                 |
  \\      /  F ield         | OpenFOAM: The Open Source CFD Toolbox
   \\    /   O peration     | Website:  https://openfoam.org
    \\  /    A nd           | Version:  12
     \\/     M anipulation  |
\*---------------------------------------------------------------------------*/
FoamFile
{
    format      ascii;
    class       volScalarField;
    location    "0.022";
    object      alphat;
}
// * * * * * * * * * * * * * * * * * * * * * * * * * * * * * * * * * * * * * //

dimensions      [1 -1 -1 0 0 0 0];

internalField   nonuniform List<scalar> 
16000
(
4.6834865e-07
1.097737e-05
1.8894652e-05
2.5645847e-05
1.9598306e-05
2.6983778e-05
1.9098695e-05
2.6189964e-05
2.0427228e-05
2.8215001e-05
2.3763012e-05
2.8032419e-05
2.556836e-05
2.6327366e-05
2.5466019e-05
2.5370423e-05
2.5143239e-05
2.5112609e-05
2.5165624e-05
2.5326675e-05
2.5588605e-05
2.5951469e-05
2.6413146e-05
2.6975038e-05
2.7640466e-05
2.8417232e-05
2.9315423e-05
3.0350741e-05
3.1542394e-05
3.2911324e-05
3.448054e-05
3.6280304e-05
3.8349638e-05
4.0736865e-05
4.350185e-05
4.6716687e-05
5.0468224e-05
5.4861106e-05
6.0025813e-05
6.6125745e-05
7.3356326e-05
8.1951883e-05
9.2211115e-05
0.00010450672
0.00011929222
0.0001371219
0.00015869302
0.00018487164
0.00021673306
0.0002556141
0.00030318417
0.00036152969
0.0004332364
0.00052147564
0.00063005839
0.0007634455
0.00092668712
0.0011253386
0.0011868621
0.0011881935
0.0011891729
0.0011902894
0.0011916747
0.001193048
0.0011940745
0.0011945345
0.0011943981
0.0011937964
0.0011928718
0.0011916644
0.0011901252
0.0011881061
0.0011849683
0.0011792283
0.0011755354
0.0011768344
0.0011718762
0.0011703012
0.0011600696
0.0011574652
4.1765647e-07
1.0351377e-05
2.1289644e-05
2.292475e-05
1.7640137e-05
2.4115251e-05
1.6941349e-05
2.2899313e-05
1.8070636e-05
2.4905981e-05
2.1540573e-05
2.5257732e-05
2.3391437e-05
2.3851241e-05
2.3193821e-05
2.3037954e-05
2.2856502e-05
2.281976e-05
2.2873499e-05
2.3023169e-05
2.3266903e-05
2.3604695e-05
2.4035015e-05
2.455921e-05
2.5180117e-05
2.5905e-05
2.6742716e-05
2.7707414e-05
2.8817163e-05
3.0092216e-05
3.1553896e-05
3.3229759e-05
3.5155722e-05
3.7376252e-05
3.9946926e-05
4.2934893e-05
4.6421431e-05
5.0503731e-05
5.5301828e-05
6.0967875e-05
6.7685836e-05
7.5671801e-05
8.5200396e-05
9.6616638e-05
0.0001103413
0.00012688148
0.00014687343
0.00017110469
0.00020054798
0.00023640315
0.00028015416
0.00033363769
0.00039909881
0.00047924729
0.00057727798
0.00069685232
0.00084200468
0.0010169849
0.0011852055
0.0011866583
0.0011876872
0.0011887767
0.001190186
0.0011916701
0.0011928461
0.0011934523
0.0011934191
0.001192868
0.0011919565
0.0011907371
0.0011891409
0.0011869584
0.001183513
0.0011774584
0.0011741041
0.0011749771
0.0011718596
0.0011694264
0.0011596484
0.0011567038
3.7408896e-07
9.853034e-06
1.9504822e-05
2.0910962e-05
1.5773536e-05
2.1189552e-05
1.5078618e-05
1.9884851e-05
1.6255413e-05
2.1848822e-05
1.96583e-05
2.2493048e-05
2.1203113e-05
2.1366865e-05
2.0870075e-05
2.0685485e-05
2.0536125e-05
2.0501592e-05
2.055529e-05
2.0696004e-05
2.0922726e-05
2.1236159e-05
2.1635071e-05
2.2120745e-05
2.2695538e-05
2.3366311e-05
2.4140926e-05
2.5032109e-05
2.6056524e-05
2.723363e-05
2.8583426e-05
3.0131154e-05
3.1910001e-05
3.3960909e-05
3.6335438e-05
3.9095946e-05
4.2318403e-05
4.6093493e-05
5.0531844e-05
5.5774159e-05
6.1993804e-05
6.9391026e-05
7.8218411e-05
8.8794283e-05
0.0001015097
0.00011682943
0.00013533441
0.00015774107
0.00018492969
0.00021797823
0.00025820577
0.00030722805
0.00036698939
0.00043979297
0.000528291
0.00063544499
0.00076442654
0.00091844684
0.0011005808
0.0011852788
0.0011864188
0.0011875069
0.0011889128
0.0011904659
0.0011917443
0.0011924617
0.0011925145
0.0011920062
0.0011910962
0.0011898415
0.001188152
0.0011857707
0.0011820902
0.0011757534
0.0011724635
0.0011732707
0.0011706442
0.0011681304
0.0011590488
0.0011558864
3.4295573e-07
9.4905989e-06
1.9078998e-05
1.902611e-05
1.4144401e-05
1.8685882e-05
1.3431409e-05
1.7367856e-05
1.4641672e-05
1.9262977e-05
1.7963346e-05
2.0049397e-05
1.9178793e-05
1.9126262e-05
1.8745798e-05
1.855503e-05
1.8432835e-05
1.8406117e-05
1.8462893e-05
1.8598805e-05
1.8812858e-05
1.9106241e-05
1.9478077e-05
1.9929708e-05
2.0463069e-05
2.1084807e-05
2.1802049e-05
2.2626368e-05
2.3573105e-05
2.4661032e-05
2.5909173e-05
2.7340761e-05
2.8986674e-05
3.0884747e-05
3.3083007e-05
3.5639528e-05
3.8625509e-05
4.2126105e-05
4.6243972e-05
5.1109074e-05
5.6885643e-05
6.3760578e-05
7.1967464e-05
8.1800376e-05
9.362525e-05
0.00010787078
0.00012507047
0.00014588025
0.00017110217
0.00020171275
0.00023889404
0.00028408176
0.00033898045
0.00040558029
0.00048613429
0.0005831185
0.00069915507
0.00083688514
0.00099882096
0.0011840846
0.001185394
0.0011864939
0.0011878628
0.0011894416
0.0011907782
0.0011915721
0.0011916905
0.0011912135
0.0011902922
0.0011889795
0.0011871693
0.0011845859
0.0011805477
0.0011740527
0.0011709773
0.0011717757
0.0011696536
0.0011667434
0.0011584432
0.0011551521
3.0149265e-07
9.2084337e-06
1.8150522e-05
1.8694339e-05
1.3206726e-05
1.6491982e-05
1.1978617e-05
1.5208827e-05
1.3247882e-05
1.7028266e-05
1.643984e-05
1.7838562e-05
1.7274411e-05
1.7078361e-05
1.6783906e-05
1.6605041e-05
1.6506415e-05
1.6489776e-05
1.6549421e-05
1.6680411e-05
1.688173e-05
1.7155032e-05
1.7499867e-05
1.7917975e-05
1.841104e-05
1.8985612e-05
1.9648293e-05
2.0409734e-05
2.1283999e-05
2.2289162e-05
2.344351e-05
2.4768563e-05
2.6293224e-05
2.8052581e-05
3.0091539e-05
3.2464359e-05
3.5237909e-05
3.8492606e-05
4.2324633e-05
4.6853877e-05
5.2236452e-05
5.8648103e-05
6.6306363e-05
7.5482913e-05
8.6522022e-05
9.9821406e-05
0.00011587301
0.00013527981
0.00015877508
0.00018724747
0.00022175963
0.0002635925
0.00031424748
0.00037545624
0.00044915316
0.00053744244
0.00064254847
0.00076673842
0.00091222105
0.001081168
0.0011846198
0.001185751
0.0011870569
0.0011886147
0.0011899572
0.0011907811
0.0011909328
0.0011904677
0.0011895192
0.0011881253
0.0011861648
0.0011833431
0.001178942
0.0011724393
0.0011701153
0.0011706679
0.0011687998
0.0011654233
0.0011582777
0.0011547144
2.7719686e-07
9.0324946e-06
1.7346773e-05
1.8635147e-05
1.3494281e-05
1.4597674e-05
1.0708529e-05
1.3392968e-05
1.2070151e-05
1.5129726e-05
1.5093275e-05
1.5893265e-05
1.5534286e-05
1.5256353e-05
1.5017214e-05
1.4853678e-05
1.4769701e-05
1.4758231e-05
1.4816138e-05
1.4938746e-05
1.5125245e-05
1.5377647e-05
1.569561e-05
1.6081399e-05
1.653662e-05
1.7067586e-05
1.7680487e-05
1.8385219e-05
1.9194623e-05
2.0126056e-05
2.1197293e-05
2.2428411e-05
2.3846689e-05
2.5484874e-05
2.7385235e-05
2.9598794e-05
3.2188689e-05
3.523138e-05
3.8818245e-05
4.3060387e-05
4.8106584e-05
5.4123777e-05
6.1317074e-05
6.9938039e-05
8.0313021e-05
9.2814402e-05
0.00010789908
0.00012612557
0.00014816881
0.00017484498
0.00020711749
0.00024614117
0.00029325601
0.0003499956
0.00041806247
0.00049930578
0.00059569856
0.00070930281
0.00084222219
0.00099661153
0.0011744681
0.0011852686
0.0011864908
0.00118798
0.0011892736
0.001190075
0.0011902204
0.0011897427
0.0011887484
0.0011872492
0.0011851045
0.0011820142
0.0011772838
0.0011710179
0.0011695794
0.0011699487
0.0011682678
0.0011643469
0.0011586121
0.0011546991
2.5662133e-07
8.937925e-06
1.6715416e-05
1.782638e-05
1.3265057e-05
1.2922279e-05
1.11252e-05
1.2201425e-05
1.184785e-05
1.3541382e-05
1.3904218e-05
1.4190583e-05
1.3939382e-05
1.3622166e-05
1.3410906e-05
1.325991e-05
1.3183649e-05
1.3173979e-05
1.3228326e-05
1.3342299e-05
1.3515049e-05
1.3748914e-05
1.4043008e-05
1.4313318e-05
1.4724964e-05
1.5208707e-05
1.5769917e-05
1.641753e-05
1.7162968e-05
1.8022518e-05
1.9013425e-05
2.0154392e-05
2.1471208e-05
2.2994429e-05
2.4763919e-05
2.6827786e-05
2.9245757e-05
3.2090593e-05
3.5450001e-05
3.9727031e-05
4.4494917e-05
5.0186505e-05
5.6998099e-05
6.5163715e-05
7.4994473e-05
8.6842751e-05
0.00010113647
0.00011839735
0.00013925116
0.00016445562
0.00019489282
0.00023161774
0.00027584464
0.00032896004
0.00039250335
0.00046815535
0.00055773751
0.00066320722
0.00078665116
0.00093032848
0.0010965295
0.0011850273
0.0011861493
0.0011875241
0.0011887147
0.0011894395
0.001189536
0.0011890182
0.0011879585
0.0011863292
0.0011839682
0.0011806001
0.0011756257
0.0011700106
0.0011693363
0.0011696819
0.0011680555
0.0011638874
0.0011592117
0.0011551366
2.2986533e-07
8.8839371e-06
1.6213539e-05
1.6303113e-05
1.2745357e-05
1.1301639e-05
1.0082947e-05
1.1034301e-05
1.0610339e-05
1.2158934e-05
1.2722679e-05
1.2639239e-05
1.2422141e-05
1.2107325e-05
1.1915783e-05
1.1781263e-05
1.1715064e-05
1.1710452e-05
1.1691592e-05
1.178281e-05
1.1933118e-05
1.214285e-05
1.24111e-05
1.273711e-05
1.3126264e-05
1.3582335e-05
1.4110649e-05
1.4719948e-05
1.542088e-05
1.6229053e-05
1.7161713e-05
1.8236725e-05
1.947902e-05
2.0917663e-05
2.2590937e-05
2.454492e-05
2.6836997e-05
2.9537271e-05
3.2731076e-05
3.6521988e-05
4.1035828e-05
4.6431157e-05
5.2898323e-05
6.1169702e-05
7.057602e-05
8.1915224e-05
9.5592352e-05
0.00011209943
0.00013202175
0.00015607235
0.00018506938
0.00021999214
0.000261963
0.00031226579
0.00037233411
0.00044374828
0.00052825084
0.00062776381
0.00074440819
0.00088058408
0.001038825
0.0011849956
0.0011860047
0.001187223
0.0011882602
0.0011888573
0.0011888632
0.0011882781
0.0011871339
0.0011853516
0.0011827496
0.0011791144
0.0011740735
0.0011691787
0.0011693273
0.0011696649
0.0011680001
0.0011634847
0.0011590725
0.0011560587
2.1140134e-07
8.8348074e-06
1.5746933e-05
1.4325471e-05
1.0459495e-05
9.886454e-06
8.2063026e-06
9.4155699e-06
9.6910368e-06
1.0969871e-05
1.1491426e-05
1.1182643e-05
1.0977924e-05
1.0695138e-05
1.0526771e-05
1.0339074e-05
1.0258894e-05
1.0245565e-05
1.0291301e-05
1.0391946e-05
1.0546378e-05
1.0753132e-05
1.1013158e-05
1.132638e-05
1.1697702e-05
1.213173e-05
1.2633803e-05
1.3212603e-05
1.3878229e-05
1.4645628e-05
1.55322e-05
1.6555289e-05
1.7739362e-05
1.9112389e-05
2.0711558e-05
2.2581539e-05
2.4778043e-05
2.7369283e-05
3.0438293e-05
3.4085571e-05
3.8434353e-05
4.3636877e-05
4.9881183e-05
5.7381812e-05
6.6410761e-05
7.7300229e-05
9.1238873e-05
0.00010719438
0.00012643088
0.00014962915
0.00017755968
0.00021114803
0.00025145366
0.00029969442
0.00035724281
0.00042562853
0.00050656453
0.00060198074
0.00071406339
0.00084536344
0.00099860224
0.0011775399
0.001186021
0.0011870465
0.0011878867
0.0011883114
0.0011881904
0.001187514
0.0011862688
0.0011843173
0.0011814644
0.0011775882
0.0011725405
0.0011684598
0.0011694359
0.0011697718
0.0011680375
0.001163704
0.0011595624
0.0011574727
1.949767e-07
8.7906217e-06
1.4198482e-05
1.2432536e-05
8.4428242e-06
8.8442222e-06
7.2383209e-06
8.5310646e-06
8.9789351e-06
9.8075457e-06
1.0268284e-05
9.8472903e-06
9.6478673e-06
9.3110604e-06
9.1297823e-06
9.017282e-06
8.9707808e-06
8.9808257e-06
9.0439707e-06
9.1552641e-06
9.3124708e-06
9.5177836e-06
9.77219e-06
1.007586e-05
1.0433964e-05
1.0851518e-05
1.1333949e-05
1.1890044e-05
1.2529537e-05
1.326678e-05
1.4119433e-05
1.5104713e-05
1.6246929e-05
1.7573325e-05
1.9120425e-05
2.0932025e-05
2.306276e-05
2.5579674e-05
2.8564703e-05
3.2116842e-05
3.6356737e-05
4.1432476e-05
4.7530671e-05
5.4859068e-05
6.3682824e-05
7.4323984e-05
8.7168716e-05
0.0001026516
0.0001224191
0.00014505096
0.00017226867
0.00020496299
0.00024415542
0.0002910275
0.00034692526
0.00041336474
0.00049206392
0.00058499023
0.00069441458
0.00082302722
0.00097369793
0.0011505481
0.0011861562
0.0011869606
0.0011875695
0.0011877873
0.0011875109
0.0011867244
0.0011853673
0.0011832423
0.0011801484
0.0011760636
0.0011710915
0.0011679297
0.0011696352
0.0011700838
0.001168212
0.0011640721
0.001160423
0.0011591796
1.8007414e-07
8.743882e-06
1.1198755e-05
1.0408438e-05
6.8758343e-06
7.9247953e-06
6.5716725e-06
7.6655115e-06
8.4016395e-06
8.7606177e-06
9.081062e-06
8.5456923e-06
8.2916712e-06
8.0586488e-06
7.9249723e-06
7.8514854e-06
7.8335881e-06
7.8654114e-06
7.9416011e-06
8.061824e-06
8.2238083e-06
8.4295132e-06
8.6811084e-06
8.9791416e-06
9.3288194e-06
9.7356067e-06
1.0205182e-05
1.074652e-05
1.1369236e-05
1.2087195e-05
1.2850324e-05
1.3800718e-05
1.4905064e-05
1.6189888e-05
1.7691092e-05
1.94517e-05
2.1525434e-05
2.3978345e-05
2.6891555e-05
3.0363057e-05
3.4512299e-05
3.9797118e-05
4.5823453e-05
5.3068973e-05
6.1792754e-05
7.2308876e-05
8.5001057e-05
0.00010029668
0.00011871856
0.00014089512
0.00016909457
0.00020130923
0.00023990328
0.00028604542
0.00034108165
0.00040654232
0.00048417518
0.00057600364
0.00068439717
0.00081216534
0.00096228442
0.0011391334
0.0011863669
0.0011869312
0.001187286
0.001187274
0.0011868232
0.0011859145
0.0011844426
0.0011821566
0.0011788555
0.0011746131
0.0011697952
0.0011675703
0.0011700081
0.0011705731
0.0011686187
0.0011648342
0.0011617384
0.0011610186
1.670493e-07
8.6999333e-06
8.7934877e-06
8.8109578e-06
6.0499122e-06
7.0278583e-06
6.0512926e-06
6.9248699e-06
7.8148252e-06
7.7879458e-06
7.7955259e-06
7.3408435e-06
7.1327558e-06
6.9616373e-06
6.8684654e-06
6.8275487e-06
6.8341097e-06
6.8842379e-06
6.9741582e-06
7.1038054e-06
7.2717864e-06
7.4803287e-06
7.7323705e-06
8.0289752e-06
8.3754134e-06
8.7382027e-06
9.1938753e-06
9.7205153e-06
1.0327525e-05
1.1028194e-05
1.1838455e-05
1.2779057e-05
1.3873173e-05
1.514717e-05
1.6636981e-05
1.8385654e-05
2.0446988e-05
2.2887096e-05
2.5787634e-05
2.9247146e-05
3.3385797e-05
3.8351747e-05
4.4323123e-05
5.1508017e-05
6.01624e-05
7.1211736e-05
8.3895698e-05
9.9176197e-05
0.00011756566
0.00013969166
0.00016628534
0.00020007194
0.00023855151
0.00028455661
0.00033945341
0.00040480844
0.00048241811
0.00057437563
0.00068314767
0.00081164118
0.0009629198
0.0011415096
0.0011866137
0.0011869278
0.0011870174
0.001186765
0.0011861303
0.0011850941
0.0011835149
0.0011811014
0.0011776574
0.0011733336
0.0011687312
0.0011674544
0.0011705467
0.0011712068
0.0011691719
0.0011657084
0.0011633267
0.0011628838
1.5545039e-07
8.6498255e-06
6.9754447e-06
7.7488038e-06
5.3991034e-06
6.2356708e-06
5.5983848e-06
6.2664651e-06
7.1127393e-06
6.6778392e-06
6.6380348e-06
6.2886281e-06
6.1233857e-06
6.0024907e-06
5.9443211e-06
5.9318511e-06
5.9606652e-06
6.0283662e-06
6.1319225e-06
6.2721159e-06
6.44825e-06
6.6626355e-06
6.8879877e-06
7.180816e-06
7.5231799e-06
7.9197641e-06
8.3786139e-06
8.9082319e-06
9.5182108e-06
1.0222009e-05
1.1035643e-05
1.1979478e-05
1.3077996e-05
1.435775e-05
1.5855015e-05
1.7613312e-05
1.968716e-05
2.2143348e-05
2.5064913e-05
2.8552156e-05
3.2726229e-05
3.7735759e-05
4.3764834e-05
5.1021618e-05
5.9763507e-05
7.0302086e-05
8.3012844e-05
9.8330828e-05
0.0001178012
0.00014012401
0.00016694467
0.0001991344
0.0002399813
0.00028640687
0.00034183336
0.0004078812
0.00048641017
0.00057958859
0.00068997257
0.00082052334
0.00097446404
0.0011562651
0.0011868631
0.0011869258
0.0011867509
0.0011862581
0.0011854382
0.0011842757
0.0011826072
0.0011801218
0.0011766336
0.0011723463
0.0011681461
0.0011679371
0.0011712017
0.0011719926
0.0011698482
0.0011666974
0.0011648558
0.001164657
1.4517309e-07
8.5918057e-06
5.5969244e-06
6.7852954e-06
4.8242151e-06
5.5311669e-06
5.2154758e-06
5.5938441e-06
6.2303495e-06
5.7159829e-06
5.6247591e-06
5.3699329e-06
5.2453558e-06
5.1666859e-06
5.1399627e-06
5.1535383e-06
5.2035628e-06
5.2887595e-06
5.406934e-06
5.5373276e-06
5.7170908e-06
5.9351739e-06
6.1942163e-06
6.4976051e-06
6.8502152e-06
7.2571413e-06
7.7262949e-06
8.2668879e-06
8.888717e-06
9.6053667e-06
1.0432913e-05
1.1391879e-05
1.2449104e-05
1.3736659e-05
1.5243515e-05
1.7013676e-05
1.9102685e-05
2.1578143e-05
2.4524609e-05
2.8044856e-05
3.226235e-05
3.7612951e-05
4.3762901e-05
5.1168125e-05
6.0088995e-05
7.0838102e-05
8.3801331e-05
9.9423803e-05
0.00011822945
0.00014213961
0.00016948409
0.00020230392
0.00024163955
0.00029148337
0.00034807008
0.00041555152
0.00049586202
0.00059124054
0.00070431531
0.00083810887
0.00099603036
0.0011822616
0.0011870903
0.0011869086
0.0011864798
0.0011857563
0.0011847565
0.0011834736
0.0011817421
0.0011792565
0.0011758451
0.0011717382
0.0011682108
0.0011687789
0.0011719447
0.0011729025
0.0011705816
0.001167697
0.001166262
0.0011663438
1.3607767e-07
8.4539688e-06
4.5564985e-06
5.9309875e-06
4.311488e-06
4.9051729e-06
4.8801164e-06
4.8569212e-06
5.3432106e-06
4.8590495e-06
4.7480439e-06
4.5713472e-06
4.4859364e-06
4.4441676e-06
4.4464488e-06
4.4845526e-06
4.5553622e-06
4.6388452e-06
4.7662258e-06
4.927864e-06
5.1248413e-06
5.3589308e-06
5.633545e-06
5.9522583e-06
6.3205895e-06
6.7439054e-06
7.2301603e-06
7.764558e-06
8.3994705e-06
9.1300245e-06
9.9722822e-06
1.09467e-05
1.2078145e-05
1.3397732e-05
1.4942194e-05
1.6756693e-05
1.8898952e-05
2.1438553e-05
2.4462632e-05
2.8078208e-05
3.2412987e-05
3.7625244e-05
4.3901275e-05
5.1464594e-05
6.0582539e-05
7.2175974e-05
8.5525396e-05
0.00010161187
0.00012097766
0.00014426764
0.00017386496
0.00020766851
0.00024819628
0.00029670502
0.00035806458
0.00042767665
0.00051056559
0.00060903254
0.00072576091
0.00086383298
0.0010267647
0.0011875585
0.00118728
0.0011868692
0.0011862053
0.0011852683
0.0011840998
0.0011827071
0.001180942
0.0011785295
0.0011753157
0.0011715021
0.0011686471
0.0011696024
0.0011727573
0.0011738145
0.0011713344
0.0011687048
0.0011676595
0.0011679098
1.2809519e-07
8.0967952e-06
3.8670288e-06
5.1745943e-06
3.8555184e-06
4.3508078e-06
4.3419094e-06
4.1890052e-06
4.4925439e-06
4.1032945e-06
3.9986217e-06
3.8844211e-06
3.8360184e-06
3.82715e-06
3.8563633e-06
3.9026281e-06
3.9866145e-06
4.1037288e-06
4.2532204e-06
4.4354456e-06
4.6521503e-06
4.9056645e-06
5.1998591e-06
5.5386078e-06
5.9136128e-06
6.354391e-06
6.8587027e-06
7.4356552e-06
8.0967019e-06
8.8554026e-06
9.7281998e-06
1.0736358e-05
1.1905721e-05
1.3268513e-05
1.4863992e-05
1.6738759e-05
1.8953426e-05
2.1580468e-05
2.4709979e-05
2.845475e-05
3.2946325e-05
3.8349571e-05
4.4861605e-05
5.2713173e-05
6.2184066e-05
7.360616e-05
8.8151596e-05
0.00010486782
0.00012499055
0.00014920158
0.00017828196
0.00021520846
0.00025734701
0.00030779941
0.00036808925
0.00044416834
0.00053037652
0.0006327374
0.00075396427
0.00089716203
0.0010658641
0.001187874
0.001187427
0.0011868101
0.0011859372
0.0011848114
0.0011834933
0.0011820065
0.0011802339
0.0011779459
0.0011750028
0.001171545
0.0011692759
0.0011703977
0.0011736203
0.0011746031
0.0011721245
0.0011697816
0.001169003
0.001169191
1.2133602e-07
7.7054545e-06
3.4144358e-06
4.5025872e-06
3.4515915e-06
3.6954873e-06
3.8676979e-06
3.5773537e-06
3.7258997e-06
3.4485027e-06
3.3659768e-06
3.3014113e-06
3.2869947e-06
3.3080124e-06
3.3447138e-06
3.4236758e-06
3.5346318e-06
3.6763565e-06
3.8490448e-06
4.0538294e-06
4.2930433e-06
4.5692981e-06
4.8768529e-06
5.2364516e-06
5.6466975e-06
6.1140102e-06
6.646082e-06
7.2523455e-06
7.9444687e-06
8.7369088e-06
9.6466124e-06
1.069575e-05
1.1911335e-05
1.3327202e-05
1.4919578e-05
1.685247e-05
1.913731e-05
2.1850259e-05
2.5237448e-05
2.9144066e-05
3.3833228e-05
3.9476732e-05
4.6284398e-05
5.4497964e-05
6.4409566e-05
7.6369879e-05
9.0794414e-05
0.00010817555
0.0001302527
0.00015563107
0.00018612231
0.00022271417
0.00026909539
0.00032198466
0.00038517042
0.00046498798
0.00055520441
0.00066218359
0.00078863365
0.0009376243
0.0011126752
0.0011881318
0.0011875378
0.0011867445
0.0011856957
0.001184414
0.001182975
0.0011814172
0.0011796541
0.0011774994
0.0011748374
0.0011718023
0.0011700178
0.0011712778
0.0011744257
0.001175243
0.0011729775
0.0011709724
0.0011702981
0.0011702309
1.1606932e-07
6.4611088e-06
3.0299426e-06
3.8917507e-06
3.1043727e-06
3.0885908e-06
3.3963732e-06
3.024299e-06
3.0683074e-06
2.8900151e-06
2.8371617e-06
2.8134198e-06
2.8214251e-06
2.8616967e-06
2.9380082e-06
3.0459462e-06
3.1834288e-06
3.3503006e-06
3.5475587e-06
3.7767933e-06
4.0344249e-06
4.3337439e-06
4.6745568e-06
5.0614557e-06
5.4999152e-06
5.996572e-06
6.5594889e-06
7.1984787e-06
7.9255852e-06
8.735976e-06
9.6811303e-06
1.0769212e-05
1.2028393e-05
1.349376e-05
1.5208871e-05
1.7227715e-05
1.9616278e-05
2.2456239e-05
2.5847515e-05
2.99115e-05
3.4796212e-05
4.0974311e-05
4.8136732e-05
5.6787054e-05
6.723221e-05
7.9842783e-05
9.5059612e-05
0.00011340733
0.00013675355
0.00016355661
0.0001957689
0.00023442485
0.0002834718
0.00033929938
0.00040595293
0.00048532534
0.00058503784
0.00069729149
0.00082956871
0.0009848824
0.0011666575
0.0011883442
0.0011876292
0.0011866966
0.0011855123
0.0011841155
0.0011825931
0.0011809949
0.0011792547
0.0011772179
0.0011748138
0.0011722469
0.0011709111
0.0011722911
0.0011752706
0.0011758064
0.0011738999
0.0011722971
0.0011716328
0.0011714148
1.117283e-07
4.6208293e-06
2.6767691e-06
3.3262364e-06
2.6573313e-06
2.5793874e-06
2.900839e-06
2.531915e-06
2.5207971e-06
2.4202695e-06
2.4009408e-06
2.4048345e-06
2.4444521e-06
2.5199505e-06
2.6268736e-06
2.7626073e-06
2.9263706e-06
3.1187223e-06
3.3378103e-06
3.5909493e-06
3.8791354e-06
4.2055855e-06
4.5742202e-06
4.9898172e-06
5.4581399e-06
5.9861266e-06
6.5821886e-06
7.2451835e-06
8.0060943e-06
8.8725612e-06
9.8638779e-06
1.1003896e-05
1.2322546e-05
1.3857198e-05
1.565436e-05
1.7771472e-05
2.0279189e-05
2.3264398e-05
2.6833787e-05
3.1117712e-05
3.6274805e-05
4.2496452e-05
5.03869e-05
5.9548535e-05
7.062163e-05
8.4001079e-05
0.00010015739
0.00011965174
0.00014315158
0.00017298645
0.00020724887
0.00024836383
0.00029761622
0.00035983945
0.00043055276
0.00051460022
0.00062001887
0.0007381863
0.00087686237
0.0010389255
0.0011892085
0.0011885284
0.0011877261
0.0011866991
0.0011854268
0.001183961
0.0011823965
0.0011807918
0.0011790978
0.0011771918
0.0011750635
0.0011730029
0.0011720189
0.001173511
0.0011762682
0.0011764407
0.0011748794
0.0011737663
0.0011732534
0.0011726346
1.0726053e-07
3.8473211e-06
2.3123405e-06
2.8041791e-06
2.2913984e-06
2.1525917e-06
2.3898241e-06
2.0999125e-06
2.0759366e-06
2.0355614e-06
2.0455574e-06
2.0846123e-06
2.1613006e-06
2.2686003e-06
2.4037841e-06
2.5657993e-06
2.754853e-06
2.9696976e-06
3.2161301e-06
3.4952747e-06
3.8099843e-06
4.1637332e-06
4.5606873e-06
5.005829e-06
5.5051454e-06
6.0658606e-06
6.6889796e-06
7.3974267e-06
8.1991215e-06
9.1103688e-06
1.0151625e-05
1.1348318e-05
1.2732285e-05
1.4343326e-05
1.6231207e-05
1.8457742e-05
2.1098928e-05
2.4247918e-05
2.8019172e-05
3.2552084e-05
3.8016802e-05
4.4943328e-05
5.2998812e-05
6.274615e-05
7.4542604e-05
8.8812485e-05
0.00010606186
0.00012689351
0.00015343239
0.00018393792
0.00022060738
0.00026461038
0.00031729888
0.00038379899
0.00045924223
0.00054869411
0.00066058352
0.00078539712
0.0009311142
0.0011003961
0.001189396
0.0011887006
0.0011878555
0.0011867857
0.001185478
0.0011839911
0.0011824236
0.001180844
0.0011792334
0.0011775305
0.0011757869
0.0011742602
0.0011735041
0.0011749093
0.0011774391
0.0011772206
0.0011759473
0.0011751722
0.0011750131
0.0011740869
1.0431281e-07
3.1058029e-06
1.9964747e-06
2.2712354e-06
1.9914969e-06
1.7869502e-06
1.9161267e-06
1.7342833e-06
1.7273646e-06
1.7358159e-06
1.776367e-06
1.8543675e-06
1.9629685e-06
2.0980921e-06
2.2585812e-06
2.4445942e-06
2.6558492e-06
2.8960904e-06
3.1670285e-06
3.471288e-06
3.8120262e-06
4.1929449e-06
4.618389e-06
5.0935064e-06
5.6244754e-06
6.2143574e-06
6.8789297e-06
7.6265122e-06
8.4708623e-06
9.4292124e-06
1.0523391e-05
1.1780561e-05
1.3234766e-05
1.4928523e-05
1.6914995e-05
1.9260604e-05
2.2047746e-05
2.5376543e-05
2.9370782e-05
3.4180785e-05
4.0253753e-05
4.7341411e-05
5.5926755e-05
6.6333907e-05
7.8949106e-05
9.4234245e-05
0.00011273911
0.00013511808
0.00016360706
0.00019643222
0.00023591654
0.00028330672
0.00034003711
0.00041151785
0.00049252229
0.00058830916
0.00070767352
0.00084013895
0.0009938196
0.0011710305
0.0011895462
0.0011888701
0.0011880348
0.0011869774
0.0011856882
0.0011842266
0.0011826923
0.0011811669
0.001179676
0.0011782504
0.0011769984
0.0011759345
0.0011753238
0.001176328
0.0011786016
0.001178033
0.0011770256
0.001176338
0.0011763655
0.0011753673
1.0323639e-07
2.4577339e-06
1.7236291e-06
1.7575039e-06
1.7153688e-06
1.4740684e-06
1.5299511e-06
1.4438041e-06
1.4687701e-06
1.5124591e-06
1.5927204e-06
1.7021397e-06
1.8370169e-06
1.9956508e-06
2.1782122e-06
2.3857831e-06
2.6191884e-06
2.8819911e-06
3.1762075e-06
3.5047473e-06
3.8709589e-06
4.2787072e-06
4.7324856e-06
5.2375916e-06
5.8003701e-06
6.428544e-06
7.1316409e-06
7.9215018e-06
8.8025836e-06
9.8096533e-06
1.0958869e-05
1.2279323e-05
1.3807543e-05
1.5589178e-05
1.7681091e-05
2.0236499e-05
2.3202178e-05
2.6750713e-05
3.101688e-05
3.6165097e-05
4.2395051e-05
4.9948145e-05
5.9116925e-05
7.02536e-05
8.3781524e-05
0.00010020835
0.00012013885
0.00014555175
0.00017498306
0.0002105053
0.00025328568
0.00030467336
0.00036967367
0.00044358626
0.00053128465
0.00063472418
0.0007630314
0.00090468321
0.001067797
0.0011902261
0.0011896523
0.0011890308
0.0011882559
0.0011872634
0.0011860418
0.0011846467
0.0011831788
0.0011817372
0.0011803845
0.001179208
0.001178357
0.0011776921
0.0011771025
0.0011775979
0.0011793308
0.0011786345
0.0011777213
0.0011768354
0.001176598
0.0011756164
1.0509099e-07
1.9013495e-06
1.4961875e-06
1.3629614e-06
1.4350843e-06
1.2117199e-06
1.2476947e-06
1.2318683e-06
1.2904374e-06
1.3691974e-06
1.4788959e-06
1.6124991e-06
1.768509e-06
1.9469413e-06
2.1489314e-06
2.3761631e-06
2.6303212e-06
2.9144406e-06
3.2309899e-06
3.583034e-06
3.9740474e-06
4.408016e-06
4.8895697e-06
5.4241697e-06
6.0183689e-06
6.6801618e-06
7.4194514e-06
8.2486282e-06
9.1832869e-06
1.0243129e-05
1.1453011e-05
1.2844343e-05
1.4456592e-05
1.6339232e-05
1.8553999e-05
2.1177665e-05
2.4305424e-05
2.8055218e-05
3.2572129e-05
3.8034319e-05
4.4659522e-05
5.271208e-05
6.2510284e-05
7.4442033e-05
8.8974414e-05
0.00010755296
0.00012924557
0.00015559577
0.00018755098
0.00022622283
0.00027290417
0.00033217506
0.00040002779
0.00048099303
0.00057703558
0.00069680667
0.00082959708
0.00098280306
0.0011575926
0.001190187
0.0011896871
0.0011891483
0.0011884727
0.0011875866
0.0011864696
0.0011851694
0.001183786
0.0011824308
0.0011811942
0.001180154
0.0011794625
0.0011789462
0.0011782433
0.0011782791
0.0011790873
0.0011784759
0.0011774334
0.0011762612
0.001175331
0.0011738046
1.1103367e-07
1.4442882e-06
1.3120484e-06
1.0748575e-06
1.2816992e-06
9.9308024e-07
1.0564727e-06
1.0926141e-06
1.1788202e-06
1.2859735e-06
1.4173061e-06
1.5695823e-06
1.7430696e-06
1.9388359e-06
2.1585456e-06
2.4041706e-06
2.6779642e-06
2.9822534e-06
3.3201292e-06
3.6946436e-06
4.1093754e-06
4.5684318e-06
5.0765913e-06
5.6395031e-06
6.2639614e-06
6.9582749e-06
7.7327632e-06
8.6004307e-06
9.5777039e-06
1.0685437e-05
1.1949987e-05
1.3404775e-05
1.5091884e-05
1.7064196e-05
1.9387858e-05
2.2145359e-05
2.543916e-05
2.9396086e-05
3.4172536e-05
3.9960728e-05
4.7316784e-05
5.5957664e-05
6.6497091e-05
7.9366381e-05
9.5089276e-05
0.00011430018
0.00013776267
0.00016638818
0.00020125129
0.00024589657
0.00029762551
0.00036009095
0.00043522794
0.00052513812
0.00063811759
0.00076467097
0.00091167498
0.0010799567
0.001190598
0.0011900487
0.0011896075
0.0011891594
0.0011885977
0.0011878372
0.0011868415
0.0011856425
0.001184333
0.0011830234
0.0011817964
0.0011806987
0.001179753
0.0011789344
0.0011781335
0.0011776739
0.0011778011
0.0011767051
0.001175535
0.0011738849
0.0011721094
0.0011700254
1.2175305e-07
1.1624013e-06
1.1537252e-06
9.2817362e-07
9.4255865e-07
8.7023471e-07
9.308162e-07
1.009794e-06
1.1173844e-06
1.2446274e-06
1.3922037e-06
1.5598164e-06
1.7486243e-06
1.9601224e-06
2.1961482e-06
2.458761e-06
2.7502682e-06
3.0732456e-06
3.4305847e-06
3.8255476e-06
4.2618478e-06
4.7437589e-06
5.2762665e-06
5.8652844e-06
6.5179531e-06
7.2404443e-06
8.0473786e-06
8.9507412e-06
9.9767264e-06
1.1133429e-05
1.2454968e-05
1.3977041e-05
1.5744639e-05
1.7814344e-05
2.0257063e-05
2.316135e-05
2.6637431e-05
3.0822055e-05
3.5884287e-05
4.2032563e-05
4.9523343e-05
5.8671941e-05
6.9865943e-05
8.3579988e-05
0.00010039993
0.00012104351
0.00014768941
0.00017903264
0.00021744399
0.00026442967
0.00032174308
0.00039140868
0.00047572028
0.0005826496
0.00070452276
0.00084805443
0.0010142308
0.0011911374
0.0011903417
0.0011897899
0.0011893731
0.0011889864
0.001188515
0.0011878631
0.0011869756
0.0011858589
0.0011845835
0.0011832483
0.0011819251
0.0011806293
0.0011793477
0.0011780799
0.0011768253
0.0011756299
0.0011744468
0.0011731605
0.0011715771
0.0011694584
0.0011668689
0.0011643215
1.4375046e-07
1.195924e-06
9.9575038e-07
7.1299158e-07
7.7148569e-07
7.7888677e-07
8.6208749e-07
9.643966e-07
1.0888775e-06
1.2312366e-06
1.392539e-06
1.5736802e-06
1.7761426e-06
2.0015539e-06
2.2517959e-06
2.5289705e-06
2.8354356e-06
3.1738367e-06
3.5471519e-06
3.9587473e-06
4.4124538e-06
4.912675e-06
5.4645409e-06
6.0741278e-06
6.7487692e-06
7.4974802e-06
8.3315192e-06
9.265106e-06
1.0316334e-05
1.1508257e-05
1.2870214e-05
1.4439497e-05
1.6263278e-05
1.8401056e-05
2.0927586e-05
2.3936488e-05
2.7544607e-05
3.1897263e-05
3.71746e-05
4.3599356e-05
5.1446637e-05
6.1492587e-05
7.3376699e-05
8.7981038e-05
0.00010595903
0.00012812447
0.00015549377
0.00018933101
0.00023118912
0.00028293227
0.00034674822
0.00042907529
0.00052560876
0.00064282279
0.00078376852
0.00095056825
0.0011432631
0.0011908852
0.0011900237
0.0011894101
0.0011889634
0.001188572
0.001188121
0.0011875124
0.0011866822
0.0011856115
0.0011843315
0.0011829021
0.0011813647
0.0011796995
0.0011778429
0.0011757643
0.0011735384
0.0011713447
0.0011693662
0.0011676112
0.001165764
0.0011633445
0.0011602843
0.0011574693
1.3714606e-07
8.061037e-07
8.1956275e-07
6.089047e-07
6.6507814e-07
7.2557391e-07
8.2796718e-07
9.473776e-07
1.0851814e-06
1.2403358e-06
1.4140589e-06
1.6075444e-06
1.8223202e-06
2.0600934e-06
2.3227988e-06
2.6126112e-06
2.9319751e-06
3.2835942e-06
3.6706146e-06
4.0964959e-06
4.5651955e-06
5.0812539e-06
5.6499522e-06
6.2775364e-06
6.9715388e-06
7.7412157e-06
8.5981292e-06
9.5569006e-06
1.0644721e-05
1.1872114e-05
1.3275409e-05
1.4893559e-05
1.6775897e-05
1.8984774e-05
2.159873e-05
2.4716419e-05
2.8461369e-05
3.2987783e-05
3.8487637e-05
4.5199395e-05
5.3418845e-05
6.3512753e-05
7.5936627e-05
9.1260419e-05
0.00011019875
0.00013365496
0.00016278145
0.00020081045
0.00024650317
0.00030375463
0.00037548732
0.00046506852
0.00057633327
0.00071359253
0.00088102783
0.0010808784
0.0011918916
0.0011906157
0.001189635
0.001188913
0.0011883753
0.0011879028
0.0011873747
0.0011867003
0.0011858289
0.0011847369
0.0011834141
0.0011818562
0.0011800465
0.0011779282