/*--------------------------------*- C++ -*----------------------------------*\
  =========                 |
  \\      /  F ield         | OpenFOAM: The Open Source CFD Toolbox
   \\    /   O peration     | Website:  https://openfoam.org
    \\  /    A nd           | Version:  12
     \\/     M anipulation  |
\*---------------------------------------------------------------------------*/
FoamFile
{
    format      ascii;
    class       volScalarField;
    location    "0.022";
    object      Ma;
}
// * * * * * * * * * * * * * * * * * * * * * * * * * * * * * * * * * * * * * //

dimensions      [];

internalField   nonuniform List<scalar> 
16000
(
0.63712178
0.75954082
0.71318243
0.73851551
0.72287666
0.73006281
0.72414735
0.72573584
0.72301207
0.72255984
0.72089775
0.71973933
0.718297
0.71689134
0.71540368
0.71387022
0.71227954
0.71063311
0.70892963
0.70716853
0.70534938
0.70347198
0.7015364
0.69954303
0.69749259
0.69538612
0.69322508
0.69101131
0.6887471
0.68643514
0.6840786
0.68168109
0.67924668
0.67677987
0.67428561
0.67176921
0.66923637
0.66669306
0.66414548
0.66160003
0.6590631
0.65654111
0.65404028
0.65156664
0.64912582
0.64672303
0.64436291
0.6420494
0.63978569
0.63757404
0.6354158
0.63331132
0.63125991
0.6292597
0.62730746
0.6253984
0.62352603
0.62168236
0.61985792
0.61804188
0.61622142
0.61438043
0.61249848
0.61055041
0.60850617
0.60632967
0.60397499
0.60138161
0.59847686
0.59520265
0.59157888
0.58780436
0.5843339
0.58183971
0.58114837
0.58177756
0.58609409
0.58624335
0.59031649
0.58664061
0.6423804
0.76527187
0.71700418
0.74371753
0.72727111
0.73489877
0.72854605
0.7302388
0.72733741
0.72680479
0.72505445
0.72377533
0.72223855
0.72071465
0.71911455
0.71746048
0.71574648
0.71397226
0.7121371
0.71024042
0.70828201
0.70626189
0.70418042
0.70203835
0.69983679
0.69757729
0.69526181
0.69289279
0.69047311
0.68800617
0.68549582
0.6829464
0.68036271
0.67775001
0.67511397
0.67246062
0.66979634
0.66712771
0.66446151
0.66180457
0.6591637
0.65654555
0.65395652
0.65140265
0.64888952
0.64642212
0.64400478
0.64164107
0.63933368
0.6370844
0.63489405
0.63276247
0.63068843
0.62866957
0.62670215
0.62478092
0.62289896
0.62104784
0.61921759
0.61739666
0.61557131
0.61372437
0.61183414
0.6098742
0.6078137
0.60561659
0.60323853
0.60062276
0.59770352
0.59443395
0.59085447
0.58719781
0.58395056
0.58181255
0.58132393
0.58276972
0.58631128
0.58749629
0.59068791
0.58673751
0.64731332
0.7705566
0.72109091
0.74830356
0.73140964
0.73912243
0.73261655
0.73418911
0.73123434
0.73053949
0.72871981
0.72729894
0.72565481
0.72400049
0.72227201
0.72048277
0.7186293
0.71671105
0.7147275
0.71267841
0.71056385
0.70838424
0.7061404
0.70383355
0.70146537
0.69903802
0.69655411
0.69401682
0.69142979
0.68879724
0.68612387
0.68341492
0.68067609
0.67791353
0.67513379
0.67234377
0.6695506
0.6667616
0.66398415
0.66122557
0.65849301
0.65579335
0.65313306
0.65051808
0.64795375
0.64544469
0.6429947
0.64060671
0.63828272
0.6360237
0.63382968
0.63169966
0.62963157
0.62762218
0.62566686
0.62375949
0.6218923
0.620056
0.61823975
0.61643092
0.61461454
0.61277219
0.61088113
0.60891436
0.60684119
0.60462678
0.60222926
0.59959631
0.59667018
0.59341823
0.58990617
0.58640136
0.58341391
0.58172203
0.58156739
0.58363674
0.5868726
0.58859237
0.59099834
0.58689879
0.6518305
0.77540081
0.72461775
0.75238149
0.7350755
0.74286202
0.73620151
0.737631
0.73461512
0.73373775
0.7318339
0.73025454
0.72848394
0.72668173
0.72480579
0.72286277
0.72085121
0.71877054
0.71662065
0.71440164
0.71211404
0.70975871
0.70733701
0.70485074
0.70230225
0.69969439
0.69703062
0.69431495
0.69155201
0.68874699
0.68590565
0.68303428
0.68013966
0.67722898
0.6743098
0.67138996
0.66847742
0.66558022
0.66270629
0.65986336
0.65705883
0.6542996
0.65159201
0.6489417
0.64635351
0.64383143
0.64137848
0.63899669
0.63668706
0.63444957
0.63228315
0.63018577
0.62815428
0.62618438
0.62427038
0.62240509
0.62057974
0.61878401
0.61700596
0.6152318
0.61344521
0.61162665
0.60975273
0.60779653
0.6057284
0.60351555
0.60111943
0.59849289
0.59558671
0.59238261
0.58896883
0.58563745
0.58292512
0.58158693
0.58181588
0.58429865
0.58744561
0.58939999
0.59123865
0.5869717
0.65593529
0.77974618
0.72787537
0.75573428
0.73816738
0.74601214
0.7392523
0.74046536
0.73740653
0.7363084
0.73430668
0.73254868
0.73063021
0.7286618
0.72661883
0.72450362
0.72231577
0.72005491
0.71772121
0.71531515
0.71283767
0.7102902
0.70767471
0.70499374
0.7022505
0.6994488
0.69659315
0.69368872
0.69074135
0.68775751
0.68474424
0.68170914
0.67866024
0.67560597
0.672555
0.66951612
0.66649814
0.66350974
0.66055929
0.65765473
0.65480347
0.65201218
0.64928677
0.64663223
0.64405258
0.6415508
0.6391288
0.6367874
0.63452628
0.6323441
0.63023846
0.62820601
0.62624232
0.6243418
0.62249752
0.62070109
0.61894257
0.61721052
0.61549188
0.61377163
0.61203232
0.61025364
0.60841215
0.60648186
0.60443508
0.6022418
0.59986714
0.59726912
0.59440703
0.59127721
0.58798916
0.58485367
0.58240969
0.58134936
0.58205867
0.58483531
0.58799295
0.58998916
0.59135866
0.58685455
0.65956043
0.78348691
0.730637
0.75854155
0.74063303
0.74846672
0.74164703
0.74258663
0.73949945
0.73815369
0.73603851
0.73408869
0.7320045
0.72985559
0.72762943
0.72532585
0.72294484
0.72048632
0.71795081
0.71533934
0.71265351
0.70989557
0.70706844
0.70417579
0.70122203
0.69821233
0.69515262
0.69204961
0.68891067
0.68574386
0.6825578
0.67936159
0.67616471
0.67297686
0.66980785
0.66666739
0.663565
0.66050976
0.65751022
0.65457424
0.65170881
0.64892001
0.64621286
0.64359127
0.641058
0.63861463
0.63626155
0.633998
0.63182208
0.6297308
0.62772025
0.62578552
0.62392076
0.62211899
0.62037196
0.61867004
0.61700213
0.6153557
0.6137166
0.61206882
0.61039415
0.60867197
0.60687956
0.60499267
0.60298623
0.60083348
0.59850315
0.59595805
0.59316542
0.59013555
0.58699701
0.58407173
0.58188071
0.58109704
0.58221636
0.58520447
0.58840306
0.59037165
0.59131967
0.58646572
0.66262874
0.78656495
0.73287633
0.76079878
0.74269104
0.75016853
0.74326471
0.74391298
0.74082882
0.73922656
0.73698474
0.73483396
0.73256597
0.73021973
0.7277902
0.72527662
0.72267942
0.71999925
0.71723745
0.71439604
0.71147775
0.70848613
0.70542554
0.7023012
0.69911919
0.69588646
0.69261081
0.68930081
0.68596575
0.68261553
0.67926056
0.67591161
0.67257963
0.66927558
0.66601025
0.66279407
0.65963693
0.65654796
0.65353544
0.65060662
0.64776759
0.64502324
0.64237717
0.63983168
0.63738775
0.63504513
0.63280229
0.63065654
0.62860409
0.62664016
0.62475908
0.62295434
0.62121858
0.61954342
0.61791932
0.61633547
0.61477972
0.61323859
0.61169708
0.61013851
0.60854439
0.60689449
0.6051675
0.60334154
0.60139466
0.59930335
0.59703956
0.59457008
0.59186919
0.58895997
0.58598737
0.58327852
0.58134945
0.58082965
0.58225947
0.58539175
0.58863968
0.5905578
0.59109207
0.58577855
0.66516548
0.78900559
0.73462031
0.76252376
0.74425278
0.75123254
0.74447908
0.74488745
0.74146896
0.73955522
0.73715491
0.73477918
0.73229394
0.72971836
0.72705178
0.72429416
0.72144679
0.7185115
0.7154909
0.71238841
0.70920836
0.70595603
0.70263768
0.69926053
0.6958328
0.69236367
0.68886315
0.68534209
0.68181195
0.67828472
0.67477268
0.67128826
0.66784376
0.66445119
0.66112198
0.6578668
0.65469541
0.65161638
0.64863705
0.64576339
0.64299988
0.64034956
0.63781394
0.63539311
0.63308581
0.63088945
0.62880025
0.62681335
0.62492288
0.62312215
0.62140372
0.61975948
0.61818062
0.61665747
0.61517933
0.61373442
0.61230976
0.61089117
0.60946315
0.60800879
0.6065099
0.60494734
0.60330173
0.60155405
0.59968551
0.59767556
0.5954986
0.59312442
0.59053332
0.58775986
0.58496196
0.58247068
0.58078775
0.58053008
0.58220574
0.58541398
0.58869118
0.59057864
0.59059672
0.58485812
0.66728225
0.7908807
0.73588734
0.76375289
0.74513862
0.75203248
0.74480447
0.74444253
0.74130324
0.73911436
0.73650065
0.73385899
0.73110976
0.72826123
0.72531466
0.72227129
0.71913352
0.71590459
0.71258874
0.70919125
0.70571849
0.702178
0.69857843
0.6949296
0.69124236
0.68752856
0.68380092
0.68007281
0.6763581
0.6726709
0.66902533
0.66543522
0.66191391
0.65847389
0.65512664
0.65188238
0.64874987
0.64573631
0.6428472
0.64008633
0.63745577
0.63495589
0.63258549
0.63034189
0.62822107
0.62621782
0.62432588
0.62253807
0.62084645
0.61924245
0.61771701
0.61626058
0.61486307
0.61351376
0.61220106
0.6109125
0.60963459
0.60835283
0.60705161
0.60571436
0.60432373
0.60286225
0.6013129
0.59965961
0.5978865
0.59597527
0.59390186
0.59163803
0.58916937
0.58654054
0.58391905
0.58163733
0.58018895
0.58017524
0.58204249
0.58527895
0.58848813
0.59039797
0.58983405
0.58381643
0.66900549
0.79216253
0.7365719
0.76435821
0.74522179
0.75102744
0.74436993
0.74365462
0.74032787
0.73776839
0.73488641
0.73193682
0.72887661
0.7257097
0.72243834
0.71906548
0.71559512
0.7120325
0.70838411
0.70465773
0.70086252
0.69700897
0.69310889
0.68917531
0.68522236
0.68126505
0.67731911
0.67340065
0.66952595
0.66571108
0.66197158
0.65832221
0.65477654
0.65134674
0.64804332
0.64487492
0.64184825
0.63896794
0.6362366
0.63365484
0.6312214
0.6289333
0.62678599
0.62477361
0.62288913
0.62112456
0.61947114
0.61791948
0.61645974
0.61508174
0.61377506
0.61252903
0.61133263
0.61017439
0.60904222
0.60792331
0.60680406
0.60567007
0.60450614
0.60329649
0.60202519
0.60067681
0.59923689
0.59769208
0.59602882
0.59423021
0.5922727
0.59012928
0.58779031
0.58530925
0.58286022
0.58077454
0.57954191
0.57974527
0.58174704
0.58498609
0.58810495
0.58982437
0.58883256
0.58272737
0.6702457
0.79272544
0.73655846
0.76329531
0.74443835
0.74983044
0.74313745
0.74181497
0.73832603
0.73537763
0.73217029
0.72886692
0.72544585
0.72191115
0.7182664
0.71451691
0.71066917
0.70673127
0.70271289
0.69862531
0.69448141
0.69029561
0.68608371
0.68186268
0.67765044
0.67346555
0.66932686
0.66525315
0.66126272
0.65737301
0.65360018
0.64995881
0.64646151
0.64311873
0.63993854
0.63692658
0.63408603
0.63141767
0.62892003
0.62658959
0.62442102
0.62240741
0.62054059
0.61881132
0.61720959
0.61572478
0.61434589
0.61306166
0.61186075
0.6107318
0.60966348
0.6086444
0.60766306
0.60670767
0.60576605
0.60482548
0.60387268
0.60289378
0.60187447
0.60080026
0.59965703
0.59843158
0.59711191
0.59568692
0.5941446
0.59246846
0.59063468
0.58861706
0.58641054
0.58407641
0.58179292
0.57988458
0.57883322
0.57921614
0.58130409
0.58452508
0.58759721
0.5891454
0.58752147
0.58162902
0.67090259
0.79238498
0.73573952
0.76138204
0.74295291
0.74745507
0.74086499
0.73891671
0.73518959
0.7318092
0.72821095
0.72449691
0.72065674
0.71669709
0.7126239
0.70844576
0.70417283
0.69981731
0.69539334
0.69091696
0.68640595
0.68187966
0.67735867
0.67286448
0.66841912
0.66404469
0.65976286
0.65559443
0.65155878
0.6476734
0.64395354
0.64041182
0.63705799
0.63389885
0.63093816
0.62817681
0.62561293
0.62324218
0.62105805
0.61905222
0.61721487
0.61553505
0.614001
0.61260039
0.61132056
0.61014877
0.60907229
0.60807859
0.6071554
0.60629074
0.60547289
0.60469031
0.60393147
0.60318473
0.60243824
0.60167984
0.60089697
0.60007676
0.59920616
0.59827237
0.59726332
0.59616801
0.59497658
0.59367953
0.5922655
0.59071762
0.58901128
0.58712112
0.58504661
0.58285625
0.5807302
0.57897882
0.5780669
0.57857684
0.58070897
0.58389458
0.58692461
0.5882858
0.58612885
0.58055032
0.67092355
0.7910655
0.73398389
0.75874542
0.7405336
0.74402603
0.73745917
0.73482993
0.73077177
0.72690535
0.72284072
0.71864657
0.71431877
0.70986821
0.70530489
0.70064222
0.69589577
0.69108351
0.68622562
0.68134427
0.6764633
0.67160783
0.6668038
0.66207742
0.65745461
0.65296032
0.64861796
0.64444872
0.64047109
0.63670035
0.63314829
0.62982302
0.62672894
0.62386689
0.62123434
0.61882575
0.61663298
0.61464573
0.61285201
0.61123856
0.60979126
0.60849552
0.60733653
0.60629954
0.60536999
0.60453373
0.60377711
0.60308703
0.602451
0.60185706
0.6012937
0.60074971
0.60021403
0.59967565
0.59912347
0.59854628
0.59793263
0.59727099
0.59654995
0.59575862
0.59488702
0.59392616
0.5928678
0.5917033
0.59042116
0.58900352
0.58742494
0.58566118
0.58371609
0.58166384
0.57968284
0.57806732
0.57726563
0.5778451
0.57997368
0.58311805
0.5861283
0.5873197
0.58477387
0.57955819
0.67028994
0.78866886
0.73122992
0.75491654
0.73702907
0.73937507
0.73276166
0.72939662
0.72489544
0.72046839
0.71584865
0.71109039
0.70619515
0.70117993
0.69606124
0.69085953
0.68559779
0.68030163
0.67499884
0.66971899
0.66449289
0.6593519
0.65432726
0.64944925
0.64474634
0.64024441
0.63596601
0.63192974
0.62814983
0.62463591
0.62139298
0.6184216
0.61571817
0.61327543
0.611083
0.60912791
0.60739529
0.60586882
0.60453137
0.60336536
0.60235322
0.60147761
0.60072171
0.60006933
0.59950502
0.59901417
0.59858306
0.59819884
0.5978495
0.59752372
0.59721074
0.59690016
0.59658186
0.59624582
0.59588211
0.59548076
0.59503176
0.59452518
0.59395144
0.59330166
0.59256781
0.59174258
0.59081874
0.58978785
0.5886376
0.58734888
0.58589574
0.58425553
0.5824358
0.58051282
0.57865966
0.57716171
0.57645371
0.57704896
0.5791169
0.58220843
0.58522021
0.58629405
0.58350179
0.57872463
0.66895258
0.78502357
0.72744334
0.74984694
0.73227737
0.73334646
0.72657283
0.7223995
0.71732265
0.71223584
0.70695675
0.70153756
0.695988
0.69033358
0.68460008
0.67881733
0.67301791
0.66723687
0.66151108
0.65587846
0.65037703
0.64504388
0.63991403
0.63501937
0.63038761
0.62604149
0.62199819
0.61826908
0.61485965
0.61176977
0.6089942
0.6065232
0.60434324
0.60243783
0.60078824
0.59937425
0.5981748
0.59716859
0.59633452
0.59565203
0.59510143
0.59466404
0.59432228
0.59405972
0.59386111
0.59371236
0.59360054
0.5935138
0.59344123
0.59337268
0.59329857
0.59320975
0.59309736
0.59295274
0.59276735
0.59253271
0.59224044
0.59188238
0.59145084
0.59093884
0.59034003
0.58964832
0.58885699
0.58795716
0.58693538
0.58577136
0.58443923
0.58291837
0.58121882
0.57941586
0.57767753
0.57628402
0.57564223
0.57619936
0.57815154
0.58117081
0.58420227
0.58525364
0.58244568
0.57809711
0.66686164
0.77988374
0.72269334
0.74333222
0.72606857
0.72570323
0.71861392
0.71353168
0.70772573
0.70185803
0.69580522
0.68962489
0.68333866
0.67698319
0.67059641
0.66422023
0.65789915
0.65167948
0.64560804
0.63973083
0.63409143
0.62872954
0.62367954
0.61896939
0.6146199
0.61064431
0.60704836
0.60383067
0.60098345
0.59849336
0.59634255
0.59450971
0.59297106
0.59170129
0.59067442
0.58986445
0.5892459
0.5887943
0.58848647
0.58830068
0.58821679
0.58821628
0.58828214
0.58839891
0.58855251
0.58873029
0.58892081
0.58911381
0.58929996
0.58947067
0.58961788
0.58973395
0.58981152
0.5898435
0.58982292
0.5897429
0.58959675
0.58937811
0.58908106
0.58870029
0.58823075
0.5876671
0.58700262
0.58622768
0.58532758
0.58428124
0.58306352
0.58165598
0.58007018
0.57838016
0.57674946
0.57544088
0.57482152
0.57528757
0.57707559
0.57999062
0.58305772
0.58422207
0.58161781
0.57768503
0.66395697
0.77283278
0.71678122
0.73509771
0.71808345
0.71609024
0.70848848
0.70237287
0.69567462
0.68889609
0.68195784
0.67492731
0.66784271
0.66075581
0.65372059
0.64679436
0.6400356
0.63350216
0.62724903
0.62132626
0.61577696
0.61063579
0.60592793
0.60166867
0.59786355
0.59450897
0.59159324
0.58909788
0.58699902
0.58526881
0.5838768
0.58279109
0.5819794
0.58140989
0.58105181
0.58087592
0.58085491
0.58096349
0.58117855
0.5814791
0.5818462
0.58226286
0.58271385
0.5831856
0.58366609
0.58414467
0.58461197
0.58505967
0.58548031
0.58586708
0.58621364
0.58651401
0.58676249
0.58695358
0.58708192
0.58714226
0.58712955
0.58703906
0.58686645
0.58660766
0.5862585
0.58581393
0.58526691
0.58460688
0.58381816
0.58287949
0.58176692
0.58046382
0.57898251
0.57739629
0.57586071
0.57460626
0.57396038
0.57428219
0.57585621
0.57862954
0.58174184
0.58314405
0.58094733
0.5774358
0.66008893
0.76320945
0.70912637
0.724682
0.70785941
0.70402894
0.69568678
0.68840225
0.68064998
0.67283313
0.66491284
0.65697224
0.64907322
0.64128864
0.63369258
0.62635907
0.61935862
0.61275525
0.60660369
0.60094724
0.59581647
0.59122874
0.58718855
0.5836886
0.58071133
0.57823086
0.57621491
0.57462677
0.57342711
0.57257549
0.57203165
0.57175649
0.5717128
0.57186574
0.57218318
0.57263579
0.57319708
0.57384338
0.57455361
0.57530915
0.57609362
0.5768926
0.5776935
0.57848534
0.57925858
0.58000503
0.58071758
0.58139006
0.58201699
0.58259341
0.58311473
0.58357669
0.5839752
0.58430636
0.58456632
0.58475134
0.58485781
0.5848824
0.58482192
0.58467317
0.58443235
0.58409432
0.58365151
0.58309259
0.5824014
0.58155721
0.58053744
0.57932616
0.57793474
0.57643353
0.57496522
0.57372514
0.57300143
0.57312874
0.57443972
0.57703178
0.5801732
0.58188048
0.58028746
0.5772524
0.65496623
0.75122319
0.69929914
0.71153142
0.69481696
0.68895636
0.6796014
0.67099174
0.66202776
0.65306227
0.64410605
0.63526726
0.62663854
0.61831701
0.61039454
0.60295445
0.59606715
0.58978732
0.58415213
0.57918083
0.57487548
0.57122276
0.56819629
0.56575947
0.56386826
0.5624739
0.56152523
0.56097072
0.56075997
0.5608449
0.56118052
0.56172537
0.56244179
0.56329593
0.56425769
0.56530052
0.56640117
0.5675394
0.56869771
0.56986097
0.57101617
0.57215215
0.57325935
0.5743297
0.57535638
0.57633372
0.57725692
0.57812194
0.57892521
0.57966357
0.58033416
0.58093429
0.58146142
0.58191306
0.5822867
0.58257986
0.5827901
0.58291508
0.58295237
0.58289912
0.58275152
0.58250407
0.58214869
0.58167361
0.58106294
0.58029708
0.57935444
0.57821807
0.57689577
0.57544962
0.57400314
0.57272462
0.57187453
0.57177401
0.57278783
0.57514802
0.5782633
0.58027761
0.5794248
0.57701388
0.64824948
0.73757604
0.68673585
0.69504552
0.67822286
0.67013404
0.65944608
0.64933679
0.63904189
0.62889692
0.61897507
0.60941516
0.6003374
0.59185254
0.58405255
0.57700734
0.57076224
0.56533788
0.56073159
0.55692036
0.55386453
0.55151195
0.54980204
0.54866947
0.54804733
0.54786963
0.54807315
0.54859873
0.54939203
0.55040389
0.55159043
0.55291288
0.55433733
0.55583436
0.55737863
0.55894844
0.56052537
0.56209381
0.56364058
0.5651546
0.56662659
0.56804879
0.56941481
0.57071945
0.57195855
0.57312881
0.57422762
0.57525286
0.57620276
0.57707581
0.57787067
0.57858611
0.57922088
0.57977367
0.58024303
0.58062741
0.58092518
0.58113455
0.58125336
0.58127874
0.58120661
0.58103108
0.58074376
0.58033304
0.57978392
0.57907804
0.57819386
0.57711203
0.57583481
0.57440954
0.57293109
0.5715514
0.57053833
0.57020258
0.57091869
0.57300035
0.57599064
0.57824204
0.57818737
0.57672458
0.63960163
0.71983393
0.67057218
0.67430702
0.65700238
0.64647801
0.63416873
0.62245959
0.61087225
0.59973661
0.58918431
0.57937089
0.57041752
0.56241532
0.55541989
0.54945215
0.54450094
0.5405279
0.53747325
0.53526211
0.53381034
0.53302975
0.53283225
0.53313299
0.5338525
0.53491802
0.53626411
0.5378328
0.53957337
0.54144189
0.54340063
0.54541748
0.5474653
0.54952129
0.55156645
0.55358506
0.55556415
0.55749313
0.55936332
0.56116771
0.5629006
0.56455752
0.566135
0.5676305
0.56904222
0.57036898
0.57161005
0.572765
0.57383362
0.57481582
0.5757116
0.57652091
0.57724352
0.57787899
0.57842658
0.57888532
0.57925393
0.57953075
0.57971353
0.5797991
0.57978312
0.57965958
0.57942035
0.57905464
0.57854854
0.5778843
0.57703939
0.57599136
0.57473549
0.57330149
0.57175263
0.57023464
0.56904829
0.56849503
0.56894121
0.57072129
0.57346882
0.57585021
0.57663125
0.57634504
0.62834665
0.69694035
0.64937388
0.64787444
0.62965649
0.61658428
0.60259302
0.5894645
0.57697829
0.56543922
0.55499396
0.54576728
0.53782735
0.53119384
0.52584094
0.5217059
0.51869822
0.5167093
0.51562108
0.51531339
0.51566941
0.51657953
0.5179437
0.51967257
0.52168771
0.5239213
0.52631535
0.52882078
0.53139639
0.53400789
0.5366269
0.53923015
0.54179864
0.54431708
0.54677322
0.54915739
0.551462
0.55368121
0.55581051
0.55784656
0.55978691
0.56162995
0.56337477
0.56502107
0.56656904
0.56801925
0.56937249
0.57062973
0.57179203
0.57286052
0.57383624
0.57472003
0.57551239
0.57621339
0.57682267
0.57733942
0.57776233
0.57808953
0.57831844
0.57844567
0.57846688
0.57837664
0.57816796
0.57783154
0.57735445
0.57671845
0.57589905
0.57486985
0.57361736
0.57215784
0.57054317
0.56892323
0.56761572
0.56690655
0.56707615
0.56856403
0.57097648
0.57341208
0.57492839
0.57594937
0.61333183
0.66677711
0.62120303
0.61397815
0.59457741
0.57908391
0.56385637
0.55003911
0.53759951
0.52675866
0.51759183
0.51011708
0.50428346
0.49998942
0.49709655
0.49544518
0.49486737
0.49519739
0.49627896
0.49796974
0.5001436
0.50269112
0.50551896
0.50854866
0.51171499
0.51496423
0.51825252
0.52154435
0.52481114
0.52803012
0.53118325
0.53425649
0.537239
0.54012262
0.54290137
0.54557102
0.54812873
0.55057274
0.55290211
0.55511658
0.55721642
0.55920238
0.56107566
0.56283776
0.56449043
0.56603558
0.56747518
0.56881125
0.57004585
0.57118099
0.5722185
0.57315984
0.57400597
0.57475719
0.57541315
0.57597285
0.57643464
0.57679627
0.57705489
0.57720723
0.57724975
0.57717862
0.57698918
0.57667434
0.57622198
0.57561229
0.57481757
0.57380753
0.5725622
0.57109167
0.56946223
0.56783818
0.56653015
0.56585939
0.56577123
0.56690903
0.56892786
0.5713402
0.57355266
0.57564499
0.59252898
0.62698533
0.5838809
0.57083755
0.55081368
0.53332787
0.51805491
0.5050159
0.49418216
0.48559725
0.47916242
0.47471473
0.47203834
0.4708937
0.47103706
0.47223603
0.47427901
0.47697999
0.4801798
0.48374514
0.48756621
0.49155382
0.49563632
0.49975671
0.5038701
0.50794138
0.51194343
0.51585547
0.51966182
0.52335087
0.52691426
0.53034621
0.533643
0.53680258
0.53982418
0.54270805
0.54545515
0.548067
0.55054547
0.55289276
0.55511128
0.55720369
0.5591728
0.56102153
0.5627528
0.5643695
0.56587442
0.56727031
0.56855983
0.56974556
0.57082987
0.57181465
0.57270113
0.57348962
0.57417951
0.57476933
0.57525694
0.57563974
0.57591501
0.57608037
0.57613422
0.57607574
0.57590382
0.57561419
0.57519546
0.57462576
0.57387357
0.57290575
0.57170379
0.57028693
0.56873746
0.5672135
0.56597204
0.56541217
0.565319
0.56619519
0.56782611
0.5701139
0.57278417
0.57555894
0.56333179
0.57505734
0.53613647
0.51714443
0.49601166
0.48015344
0.46684716
0.45670467
0.44945883
0.44486195
0.44256098
0.44218481
0.4433678
0.44577605
0.44911816
0.4531491
0.45766829
0.46251502
0.46756268
0.47271285
0.47788996
0.48303663
0.4881098
0.4930776
0.49791682
0.50261093
0.50714856
0.51152223
0.51572749
0.51976215
0.52362579
0.5273193
0.53084461
0.53420438
0.53740186
0.54044065
0.54332457
0.54605756
0.54864361
0.55108673
0.55339097
0.55556044
0.55759922
0.55951131
0.56130055
0.56297054
0.5645246
0.56596585
0.56729722
0.56852151
0.56964131
0.57065876
0.57157519
0.57239083
0.57310473
0.57371493
0.57421881
0.57461373
0.57489772
0.57507035
0.57513337
0.57509041
0.57494489
0.57469564
0.57433162
0.5738289
0.57315365
0.57227406
0.57118028
0.56990915
0.56856518
0.56732205
0.56638778
0.56593658
0.56603442
0.56668879
0.56799198
0.57006888
0.57282073
0.57569475
0.52159091
0.5085991
0.47061719
0.45231148
0.4345154
0.42202853
0.41351912
0.40876289
0.40709496
0.40791791
0.41065158
0.41479881
0.41994872
0.42577589
0.43202926
0.43851941
0.44510584
0.45168595
0.45818594
0.46455367
0.47075307
0.47675999
0.48255905
0.48814124
0.49350221
0.49864094
0.50355881
0.50825884
0.51274524
0.51702298
0.52109754
0.52497474
0.52866058
0.53216114
0.53548248
0.53863056
0.54161116
0.5444299
0.54709222
0.54960342
0.55196871
0.55419326
0.55628212
0.55824018
0.56007205
0.56178196
0.56337368
0.56485056
0.56621554
0.5674712
0.56861978
0.56966312
0.57060245
0.57143808
0.57216917
0.57279367
0.57330888
0.57371238
0.57400352
0.57418493
0.57426302
0.57424699
0.57414533
0.57395987
0.5736798
0.57327981
0.57272657
0.5719955
0.5710929
0.57007597
0.569061
0.56820726
0.56766832
0.56752343
0.56775114
0.56832226
0.56935537
0.57109916
0.57355203
0.57602414
0.45822472
0.42501869
0.39480035
0.37963462
0.36857633
0.36366024
0.36306213
0.36584645
0.37100446
0.37776211
0.38552258
0.39385265
0.40244548
0.41108935
0.41964125
0.42800699
0.43612653
0.44396346
0.45149761
0.45871991
0.46562873
0.4722274
0.47852247
0.48452247
0.49023711
0.49567669
0.50085172
0.50577264
0.51044966
0.5148927
0.51911127
0.52311453
0.52691121
0.53050966
0.53391777
0.53714302
0.54019245
0.54307273
0.54579019
0.54835094
0.55076094
0.55302603
0.55515195
0.55714426
0.55900824
0.56074885
0.56237059
0.56387736
0.56527207
0.56655644
0.56773133
0.56879751
0.56975607
0.570608
0.5713532
0.57199005
0.57251634
0.57293057
0.57323382
0.57343201
0.57353688
0.57356375
0.57352615
0.57342881
0.57326142
0.57299841
0.57261055
0.57208454
0.57144508
0.57076604
0.57016305
0.56976194
0.569648
0.5698184
0.57018878
0.57069999
0.57146806
0.57275967
0.57461272
0.57639994
0.36065547
0.32665925
0.30875161
0.3041655
0.30555013
0.31190307
0.32121746
0.33220552
0.34397824
0.35597383
0.36784976
0.37940564
0.39053101
0.4011711
0.41130517
0.42093294
0.43006604
0.43872271
0.44692457
0.45469454
0.4620557
0.4690305
0.47564041
0.48190567
0.48784523
0.49347671
0.49881648
0.50387969
0.50868036
0.51323149
0.51754515
0.52163254
0.52550413
0.52916963
0.53263808
0.53591787
0.53901681
0.54194214
0.54470073
0.5472991
0.54974358
0.55204033
0.55419539
0.5562146
0.55810364
0.5598681
0.56151337
0.56304415
0.5644635
0.56577241
0.56697065
0.56805848
0.56903743
0.56990867
0.57067088
0.57132157
0.57186025
0.57228906
0.57261177
0.57283623
0.57297853
0.57305991
0.57309848
0.57310167
0.57306033
0.57295082
0.57274957
0.5724558
0.57210875
0.57179065
0.57160276
0.57162727
0.57188459
0.57231198
0.57279085
0.57324044
0.57373721
0.57450327
0.57562518
0.57670029
0.2194713
0.21813916
0.22358174
0.2371614
0.25471769
0.27338139
0.29192808
0.30969619
0.32645143
0.34212741
0.35674836
0.37037444
0.38307956
0.39493929
0.40602575
0.41640533
0.42613808
0.43527779
0.44387243
0.45196472
0.45959268
0.46679021
0.4735876
0.48001194
0.48608753
0.49183624
0.4972778
0.50243003
0.50730914
0.51192987
0.51630576
0.5204492
0.52437165
0.52808368
0.53159503
0.53491469
0.53805096
0.54101153
0.5438036
0.54643396
0.54890909
0.55123517
0.55341811
0.5554635
0.55737673
0.55916303
0.56082731
0.56237386
0.56380626
0.56512787
0.56634206
0.56745145
0.56845822
0.56935958
0.57014768
0.5708172
0.57137014
0.57181413
0.57215722
0.57240861
0.57258699
0.57271805
0.5728241
0.5729158
0.57298539
0.57301109
0.57297746
0.57289137
0.57280198
0.57279046
0.5729393
0.57329089
0.5738166
0.57441813
0.57496378
0.5753582
0.57561639
0.57589801
0.5763605
0.57688168
0.093115433
0.12341707
0.16133942
0.19545449
0.22601571
0.25293245
0.27682988
0.29817852
0.31739839
0.33481879
0.35070507
0.36526977
0.37868533
0.39109288
0.40260907
0.41333126
0.42334139
0.43270904
0.44149369
0.44974657
0.45751209
0.46482898
0.4717312
0.47824866
0.48440787
0.4902324
0.49574329
0.50095943
0.50589786
0.510574
0.51500194
0.51919456
0.52316376
0.52692052
0.53047501
0.53383663
0.53701408
0.54001545
0.54284825
0.54551946
0.54803557
0.55040247
0.55262551
0.55470955
0.55665895
0.55847772
0.56016976
0.56173954
0.56319248
0.56453472
0.56577162
0.56690408
0.56792831
0.56884113
0.56964549
0.57034334
0.57093
0.57139951
0.57175684
0.57202154
0.5722188
0.57237584
0.57251866
0.57266085
0.57279747
0.57290983
0.57298297
0.57302884
0.57309953
0.57327563
0.57362938
0.57417977
0.57487113
0.57558345
0.57617362
0.57651232
0.57666265
0.57667563
0.57674904
0.57695912
0.0095272385
0.28935285
0.46921871
0.51963231
0.5298717
0.53012153
0.52965486
0.53080357
0.53237344
0.53391851
0.53543183
0.53691663
0.53836377
0.53979096
0.54121053
0.54263224
0.54405905
0.54549179
0.54693044
0.54837445
0.54982279
0.55127408
0.55272664
0.55417865
0.55562823
0.55707348
0.55851255
0.55994363
0.56136494
0.56277481
0.56417161
0.56555376
0.56691972
0.568268
0.56959716
0.57090581
0.5721926
0.57345625
0.57469553
0.57590931
0.5770965
0.57825608
0.57938717
0.58048896
0.58156084
0.58260239
0.58361354
0.58459455
0.58554607
0.58646914
0.58736544
0.58823776
0.58909036
0.58992903
0.59076089
0.59159478
0.59244239
0.59331879
0.59424209
0.59523231
0.59631107
0.59750159
0.59882393
0.60028141
0.60184577
0.60344168
0.60496183
0.60624453
0.60712188
0.60737887
0.60684465
0.60512175
0.60250987
0.59779497
0.59274422
0.5845553
0.57951743
0.57370423
0.57501982
0.57553102
0.055822759
0.37507198
0.52144929
0.5487758
0.54962506
0.54730717
0.5463616
0.54650303
0.54670655
0.54699497
0.54737819
0.54791492
0.54856916
0.54931232
0.55011631
0.55097829
0.55189348
0.55285718
0.55386431
0.55491013
0.5559902
0.55710024
0.55823618
0.5593941
0.56057032
0.5617613
0.56296372
0.56417441
0.56539037
0.56660876
0.56782685
0.56904207
0.57025193
0.57145408
0.57264626
0.57382629
0.57499215
0.57614191
0.57727375
0.578386
0.5794771
0.58054563
0.58159034
0.58261012
0.58360411
0.58457173
0.58551274
0.58642734
0.58731617
0.58818032
0.58902161
0.58984306
0.59064923
0.59144627
0.5922417
0.5930448
0.59386749
0.59472478
0.59563413
0.59661408
0.59768356
0.59886149
0.60016102
0.60157556
0.60306443
0.60454161
0.60589476
0.60696369
0.60760163
0.60756321
0.60676304
0.60481933
0.60195532
0.59712312
0.59194406
0.58385001
0.57914979
0.57361768
0.5755498
0.57596844
0.12692226
0.45461509
0.54350606
0.55694981
0.55532436
0.55404233
0.55397143
0.55446099
0.55482611
0.55528089
0.5557258
0.55622548
0.55675272
0.55732472
0.55793245
0.55858109
0.55926816
0.55999298
0.56075419
0.56155015
0.56237904
0.5632388
0.5641272
0.56504188
0.56598035
0.56694009
0.56791848
0.56891293
0.5699208
0.57093948
0.57196637
0.57299888
0.57403446
0.57507058
0.57610476
0.57713458
0.57815772
0.57917193
0.58017506
0.58116512
0.58214022
0.58309864
0.58403883
0.58495945
0.5858594
0.58673788
0.58759455
0.58842946
0.58924322
0.59003693
0.59081251
0.59157309
0.59232342
0.59306984
0.59382011
0.59458363
0.59537227
0.59620055
0.59708485
0.59804179
0.59908722
0.60023529
0.60149196
0.60284107
0.60423105
0.60556823
0.60673888
0.60758465
0.60799542
0.60768391
0.60662427
0.60446128
0.60139576
0.59644388
0.59118668
0.58317881
0.57884902
0.57361215
0.57602491
0.57641447
0.20326175
0.50623962
0.55746657
0.56545061
0.56243834
0.5622773
0.56233733
0.56284655
0.56308927
0.56347792
0.5638116
0.56421166
0.56462484
0.56507062
0.56553531
0.56602787
0.56654661
0.56709261
0.56766605
0.568267
0.56889516
0.56954998
0.57023066
0.57093621
0.57166538
0.57241678
0.57318884
0.57397986
0.57478801
0.57561134
0.57644784
0.57729536
0.57815172
0.57901466
0.57988189
0.58075111
0.58162001
0.58248634
0.58334791
0.5842026
0.58504841
0.58588347
0.58670609
0.58751476
0.58830826
0.58908566
0.5898465
0.59059078
0.59131903
0.59203241
0.59273291
0.59342377
0.5941098
0.59479743