/*--------------------------------*- C++ -*----------------------------------*\
  =========                 |
  \\      /  F ield         | OpenFOAM: The Open Source CFD Toolbox
   \\    /   O peration     | Website:  https://openfoam.org
    \\  /    A nd           | Version:  12
     \\/     M anipulation  |
\*---------------------------------------------------------------------------*/
FoamFile
{
    format      ascii;
    class       volScalarField;
    location    "0.022";
    object      nut;
}
// * * * * * * * * * * * * * * * * * * * * * * * * * * * * * * * * * * * * * //

dimensions      [0 2 -1 0 0 0 0];

internalField   nonuniform List<scalar> 
16000
(
4.4070669e-07
9.9849391e-06
1.7494291e-05
2.3413152e-05
1.795948e-05
2.4642612e-05
1.7461561e-05
2.3901112e-05
1.8643709e-05
2.5717763e-05
2.1651161e-05
2.5510397e-05
2.3251614e-05
2.3916627e-05
2.3113091e-05
2.3002849e-05
2.2773577e-05
2.2721568e-05
2.2744511e-05
2.2864129e-05
2.3073556e-05
2.3372538e-05
2.3758816e-05
2.4233272e-05
2.479853e-05
2.5461172e-05
2.62298e-05
2.7117961e-05
2.8142244e-05
2.9320671e-05
3.0672989e-05
3.2225269e-05
3.4011189e-05
3.6072454e-05
3.8460709e-05
4.1238076e-05
4.4479302e-05
4.8274344e-05
5.2735324e-05
5.8002567e-05
6.4243602e-05
7.1658992e-05
8.0504343e-05
9.1098271e-05
0.00010382791
0.00011916575
0.00013770563
0.00016018425
0.00018751513
0.0002208325
0.00026155111
0.00031143691
0.00037267557
0.0004479446
0.00054045949
0.00065398683
0.00079280509
0.00096165581
0.0010179895
0.0010188088
0.0010194824
0.001020442
0.0010218133
0.0010233649
0.0010248154
0.0010259822
0.0010268465
0.0010275344
0.0010281937
0.0010288881
0.0010295687
0.001029999
0.0010293622
0.0010259305
0.0010236065
0.0010243883
0.0010192691
0.0010137198
0.001003888
0.0010013506
3.9360906e-07
9.4419892e-06
1.9662966e-05
2.0976507e-05
1.6215719e-05
2.208375e-05
1.5534724e-05
2.0953924e-05
1.6538428e-05
2.2760276e-05
1.9677038e-05
2.3042354e-05
2.132341e-05
2.1718198e-05
2.1098639e-05
2.093397e-05
2.0746152e-05
2.0689004e-05
2.0713125e-05
2.0823166e-05
2.1017014e-05
2.1294393e-05
2.1653589e-05
2.2095422e-05
2.2622088e-05
2.3239706e-05
2.3955787e-05
2.4782516e-05
2.57355e-05
2.6832182e-05
2.809085e-05
2.9535208e-05
3.1196234e-05
3.3112271e-05
3.5331247e-05
3.7911e-05
4.0921463e-05
4.444614e-05
4.8588103e-05
5.3477956e-05
5.9273364e-05
6.6159136e-05
7.4370113e-05
8.4201121e-05
9.6011204e-05
0.00011023237
0.00012740629
0.00014820269
0.00017344785
0.00020415998
0.00024159729
0.00028731592
0.00034321657
0.00041159281
0.00049515073
0.00059700013
0.00072058777
0.00086958189
0.0010168668
0.0010178451
0.0010186112
0.001019589
0.0010210104
0.0010226741
0.0010242562
0.001025539
0.0010264719
0.0010271771
0.0010278216
0.0010284853
0.0010291044
0.001029386
0.0010284713
0.0010246784
0.001022596
0.0010230675
0.0010189564
0.0010131951
0.0010037744
0.0010009222
3.5458372e-07
9.0113128e-06
1.8041081e-05
1.919782e-05
1.454169e-05
1.9455412e-05
1.3863831e-05
1.8242032e-05
1.4914962e-05
2.0015437e-05
1.8000194e-05
2.0567145e-05
1.9370783e-05
1.9497101e-05
1.9023041e-05
1.8832566e-05
1.8674143e-05
1.8619531e-05
1.8644296e-05
1.8747072e-05
1.8926549e-05
1.9183077e-05
1.9515226e-05
1.9923767e-05
2.0410465e-05
2.09811e-05
2.1642309e-05
2.2405034e-05
2.3283661e-05
2.4294965e-05
2.5456092e-05
2.6788734e-05
2.8321486e-05
3.0089631e-05
3.213761e-05
3.4519112e-05
3.7299486e-05
4.0556614e-05
4.4385418e-05
4.8906608e-05
5.4268744e-05
6.0643005e-05
6.8245263e-05
7.7347444e-05
8.8283204e-05
0.00010144838
0.00011733745
0.00013655971
0.00015986312
0.00018816298
0.00022257873
0.00026448116
0.00031551967
0.00037764926
0.00045312562
0.00054447842
0.0006544378
0.00078580171
0.00094129461
0.0010169534
0.0010178758
0.0010189014
0.0010203565
0.0010221029
0.0010237831
0.0010251603
0.0010261585
0.0010268895
0.0010275272
0.001028157
0.0010286921
0.0010287882
0.0010275992
0.0010234509
0.0010213607
0.0010216317
0.001017623
0.0010122017
0.0010034132
0.0010004263
3.2468866e-07
8.7009777e-06
1.7724171e-05
1.7507831e-05
1.3073627e-05
1.719807e-05
1.23791e-05
1.5969913e-05
1.346426e-05
1.7684482e-05
1.6481527e-05
1.8368557e-05
1.7553525e-05
1.7483264e-05
1.711499e-05
1.6919232e-05
1.6785868e-05
1.6738891e-05
1.676711e-05
1.6866291e-05
1.7035204e-05
1.7274603e-05
1.758338e-05
1.7962392e-05
1.8413025e-05
1.8940893e-05
1.955199e-05
2.0256252e-05
2.1066911e-05
2.2000162e-05
2.3072312e-05
2.4303299e-05
2.571971e-05
2.7354121e-05
2.9247903e-05
3.1451034e-05
3.4024731e-05
3.7042098e-05
4.0591149e-05
4.4783303e-05
4.9759288e-05
5.5678819e-05
6.2741448e-05
7.1198316e-05
8.1361671e-05
9.3596622e-05
0.00010835733
0.00012620184
0.00014781213
0.00017401818
0.00020582454
0.00024445155
0.00029134879
0.00034821115
0.00041696295
0.00049973015
0.00059878261
0.00071643245
0.00085490987
0.0010160798
0.0010172112
0.0010182968
0.0010197588
0.001021553
0.001023297
0.0010247449
0.0010257999
0.0010265591
0.0010271928
0.0010277812
0.0010282146
0.001028111
0.0010265171
0.0010221415
0.0010201632
0.0010202741
0.0010164581
0.0010110033
0.001002939
0.00099991959
2.86173e-07
8.4599441e-06
1.6903818e-05
1.7246468e-05
1.2244287e-05
1.5210569e-05
1.1063272e-05
1.4011908e-05
1.2205414e-05
1.5660505e-05
1.5108473e-05
1.6368612e-05
1.5833175e-05
1.5632293e-05
1.5342607e-05
1.5158121e-05
1.5046684e-05
1.5009463e-05
1.5040988e-05
1.5136444e-05
1.5294666e-05
1.5516809e-05
1.5802138e-05
1.6151918e-05
1.6567319e-05
1.7053879e-05
1.7617144e-05
1.8266239e-05
1.901328e-05
1.987386e-05
2.0863657e-05
2.2001112e-05
2.3311093e-05
2.4823781e-05
2.657783e-05
2.8619901e-05
3.100745e-05
3.380948e-05
3.7108402e-05
4.10069e-05
4.5638736e-05
5.1154061e-05
5.773865e-05
6.5624435e-05
7.5105221e-05
8.6519761e-05
0.00010028695
0.00011692003
0.00013704303
0.00016141214
0.00019093181
0.000226693
0.00026997571
0.00032225938
0.00038520232
0.00046061844
0.00055043978
0.00065665341
0.00078121383
0.00092605858
0.0010166323
0.0010178017
0.0010192539
0.001021062
0.0010228336
0.0010243234
0.0010254219
0.0010262094
0.0010268419
0.0010273812
0.0010276887
0.001027337
0.0010253308
0.0010208584
0.0010194015
0.0010190596
0.0010152838
0.0010097122
0.0010026559
0.00099946338
2.6517643e-07
8.3128831e-06
1.618891e-05
1.721964e-05
1.2528955e-05
1.3486206e-05
9.9068101e-06
1.2357758e-05
1.1136213e-05
1.3932802e-05
1.3887301e-05
1.4599694e-05
1.4251968e-05
1.3976678e-05
1.3737827e-05
1.3567825e-05
1.3470271e-05
1.3438371e-05
1.3469009e-05
1.3557571e-05
1.3703119e-05
1.3907144e-05
1.4169006e-05
1.4490474e-05
1.4872655e-05
1.532089e-05
1.5840367e-05
1.643955e-05
1.7129473e-05
1.7925109e-05
1.8841698e-05
1.9896423e-05
2.1112732e-05
2.2518759e-05
2.4150856e-05
2.6052855e-05
2.8278962e-05
3.0894742e-05
3.3978444e-05
3.7625134e-05
4.1962254e-05
4.7132407e-05
5.3310706e-05
6.0711808e-05
6.9614256e-05
8.0335283e-05
9.3264059e-05
0.00010887628
0.00012774685
0.00015057115
0.00017817037
0.00021153024
0.00025179556
0.00030028025
0.00035844797
0.00042789659
0.00051034147
0.00060758654
0.00072148209
0.00085393435
0.0010066972
0.0010173994
0.0010188298
0.0010206187
0.0010223808
0.0010238805
0.0010250039
0.0010258151
0.0010264453
0.001026923
0.0010270731
0.0010264366
0.0010240245
0.0010197023
0.0010187432
0.0010179828
0.001014209
0.0010084845
0.0010026109
0.00099906158
2.4466498e-07
8.2363641e-06
1.5625523e-05
1.6490376e-05
1.2334334e-05
1.1952921e-05
1.0308124e-05
1.1271445e-05
1.0940011e-05
1.2480282e-05
1.2801947e-05
1.3043501e-05
1.2794624e-05
1.2483955e-05
1.2271029e-05
1.2113048e-05
1.2023121e-05
1.1993494e-05
1.2021556e-05
1.2102964e-05
1.2236729e-05
1.242467e-05
1.2665667e-05
1.2883838e-05
1.3227654e-05
1.3634322e-05
1.4108301e-05
1.46572e-05
1.5290795e-05
1.6023116e-05
1.6868945e-05
1.7844262e-05
1.8971211e-05
2.0276002e-05
2.1792879e-05
2.3563118e-05
2.5637945e-05
2.8079706e-05
3.0963469e-05
3.4638898e-05
3.8731147e-05
4.3615176e-05
4.945854e-05
5.6460806e-05
6.4887519e-05
7.5038937e-05
8.7279669e-05
0.00010205436
0.00011989647
0.00014145241
0.00016747523
0.00019886678
0.00023666683
0.00028206556
0.00033638875
0.00040109004
0.00047775179
0.00056808101
0.00067390286
0.00079720129
0.00093997111
0.0010170807
0.0010184826
0.0010202222
0.0010219403
0.0010234176
0.001024545
0.0010253718
0.0010259944
0.001026393
0.0010263517
0.0010254074
0.0010226581
0.0010187608
0.001018201
0.0010171296
0.001013222
0.0010075951
0.0010026024
0.00099868591
2.1943364e-07
8.1941187e-06
1.5174923e-05
1.5092759e-05
1.1855073e-05
1.0461115e-05
9.3431904e-06
1.0196618e-05
9.8023992e-06
1.1210751e-05
1.171618e-05
1.1618804e-05
1.1401308e-05
1.1093545e-05
1.0899203e-05
1.0756911e-05
1.0676803e-05
1.0652424e-05
1.0614657e-05
1.0676216e-05
1.0790443e-05
1.0957366e-05
1.1175844e-05
1.1444909e-05
1.1769104e-05
1.2151491e-05
1.2596504e-05
1.311159e-05
1.3705841e-05
1.439269e-05
1.5186927e-05
1.6103797e-05
1.7164685e-05
1.8394482e-05
1.9826032e-05
2.1498818e-05
2.3462e-05
2.5775588e-05
2.8512574e-05
3.176149e-05
3.5629812e-05
4.0252971e-05
4.5793404e-05
5.2881594e-05
6.0934986e-05
7.0639847e-05
8.2341407e-05
9.6459254e-05
0.00011349279
0.00013405097
0.00015883321
0.00018867788
0.00022454754
0.00026754563
0.00031890774
0.00038000022
0.00045233424
0.00053758061
0.00063758658
0.00075445239
0.00089037462
0.0010168305
0.0010182009
0.0010198651
0.001021508
0.0010229327
0.0010240425
0.0010248733
0.0010254781
0.0010257761
0.001025511
0.0010242505
0.001021292
0.0010178331
0.0010177142
0.0010163059
0.0010122542
0.0010065101
0.0010017128
0.00099841352
2.0227567e-07
8.153652e-06
1.4750689e-05
1.326794e-05
9.7352222e-06
9.1536623e-06
7.6073181e-06
8.7046955e-06
8.9538571e-06
1.0113113e-05
1.0578693e-05
1.0275137e-05
1.0069337e-05
9.7917411e-06
9.6192641e-06
9.4292164e-06
9.3372229e-06
9.3057838e-06
9.3275088e-06
9.3983257e-06
9.5169534e-06
9.6817656e-06
9.8933596e-06
1.015139e-05
1.0459976e-05
1.0822944e-05
1.1244746e-05
1.1732782e-05
1.2295659e-05
1.2946219e-05
1.3699386e-05
1.456994e-05
1.5578842e-05
1.6750005e-05
1.8115285e-05
1.9712905e-05
2.159053e-05
2.3806485e-05
2.6431726e-05
2.9552072e-05
3.3272717e-05
3.7723578e-05
4.3065074e-05
4.9480037e-05
5.7200381e-05
6.6509381e-05
7.8426104e-05
9.2059553e-05
0.00010849381
0.00012831088
0.00015217016
0.00018086486
0.00021530448
0.00025653638
0.00030574346
0.00036424708
0.00043352995
0.00051526599
0.00061135597
0.00072402011
0.00085562416
0.0010094816
0.0010179723
0.00101954
0.0010210819
0.0010224279
0.0010234995
0.0010243201
0.0010248927
0.0010250677
0.0010245542
0.0010229781
0.001019847
0.0010168941
0.0010171704
0.0010154627
0.0010112975
0.001005808
0.0010011366
0.00099825334
1.8655934e-07
8.1146703e-06
1.3304964e-05
1.1516109e-05
7.8598821e-06
8.1901205e-06
6.7098774e-06
7.8838464e-06
8.2909986e-06
9.0351325e-06
9.4436313e-06
9.0382037e-06
8.8378048e-06
8.5118077e-06
8.328538e-06
8.2081071e-06
8.1476483e-06
8.1382275e-06
8.1764362e-06
8.2575052e-06
8.379159e-06
8.5431274e-06
8.7500339e-06
8.9997802e-06
9.2967306e-06
9.6450832e-06
1.0049378e-05
1.0517104e-05
1.1056543e-05
1.1679999e-05
1.2402606e-05
1.3239023e-05
1.4210042e-05
1.5338917e-05
1.6656881e-05
1.8201353e-05
2.0019011e-05
2.2167107e-05
2.4715581e-05
2.7748884e-05
3.1369901e-05
3.5704895e-05
4.0912993e-05
4.7171167e-05
5.4705462e-05
6.3790504e-05
7.4755741e-05
8.7972108e-05
0.00010484875
0.00012416808
0.00014740508
0.00017532368
0.00020880118
0.00024885381
0.00029664109
0.00035347119
0.00042082886
0.00050041734
0.00059421002
0.00070454573
0.00083392244
0.0009859654
0.0010177822
0.0010192384
0.0010206599
0.0010219067
0.0010229215
0.0010237162
0.0010242399
0.0010242733
0.0010235002
0.0010216175
0.0010183661
0.0010159884
0.0010165735
0.0010146756
0.0010103689
0.0010051661
0.0010006717
0.0009981498
1.7232287e-07
8.0695316e-06
1.0493623e-05
9.6395421e-06
6.3993185e-06
7.3340876e-06
6.086917e-06
7.0767544e-06
7.7482256e-06
8.0593763e-06
8.3379108e-06
7.8291345e-06
7.5797811e-06
7.3500256e-06
7.2112482e-06
7.1272842e-06
7.0936332e-06
7.1046688e-06
7.1552758e-06
7.2449029e-06
7.3712683e-06
7.5358945e-06
7.740486e-06
7.985298e-06
8.2747292e-06
8.6133804e-06
9.0060168e-06
9.460285e-06
9.984353e-06
1.0590075e-05
1.123335e-05
1.2038128e-05
1.2974685e-05
1.4065616e-05
1.5341568e-05
1.683924e-05
1.8604457e-05
2.0693545e-05
2.3175663e-05
2.613432e-05
2.9671287e-05
3.4178766e-05
3.9316795e-05
4.5494389e-05
5.2932362e-05
6.1898551e-05
7.2720424e-05
8.5762994e-05
0.00010147331
0.00012038931
0.00014445061
0.00017194503
0.00020489717
0.00024431199
0.00029134832
0.00034732547
0.00041375252
0.00049238015
0.0005852676
0.00069485546
0.00082374352
0.00097578179
0.0010176159
0.0010189521
0.0010202407
0.001021374
0.0010223168
0.0010230692
0.0010235284
0.0010234119
0.0010223877
0.0010202267
0.0010169071
0.0010150975
0.0010160139
0.0010139496
0.0010095167
0.0010046494
0.0010003447
0.00099807804
1.5977852e-07
8.0228451e-06
8.2353252e-06
8.1539059e-06
5.625531e-06
6.4960225e-06
5.5966099e-06
6.3825847e-06
7.1926126e-06
7.1490862e-06
7.1401167e-06
6.7073759e-06
6.5012748e-06
6.3292617e-06
6.2283799e-06
6.1748797e-06
6.1641331e-06
6.1923273e-06
6.2558134e-06
6.3542974e-06
6.4863119e-06
6.6536339e-06
6.8586615e-06
7.1021251e-06
7.3884772e-06
7.6880573e-06
8.0680646e-06
8.5088827e-06
9.0184783e-06
9.6081758e-06
1.0291548e-05
1.1086291e-05
1.2012131e-05
1.3091489e-05
1.4354983e-05
1.5839274e-05
1.7590182e-05
1.9664004e-05
2.2130268e-05
2.5072863e-05
2.8594078e-05
3.2820049e-05
3.7902438e-05
4.4018456e-05
5.1386236e-05
6.0795594e-05
7.1597122e-05
8.461257e-05
0.0001002803
0.00011913769
0.00014181143
0.0001706301
0.00020346779
0.0002427482
0.00028964697
0.0003455139
0.00041189996
0.00049061644
0.00058380681
0.00069400099
0.00082388407
0.00097743689
0.0010174618
0.0010186742
0.0010198246
0.001020836
0.0010216945
0.0010223893
0.0010227732
0.0010225149
0.0010212756
0.0010188924
0.0010155614
0.0010143244
0.0010155107
0.0010133106
0.0010087559
0.0010040891
0.0010000799
0.00099800659
1.4852675e-07
7.9663332e-06
6.5255076e-06
7.159899e-06
5.0119054e-06
5.7528914e-06
5.1661022e-06
5.7617499e-06
6.5279533e-06
6.1115872e-06
6.0597248e-06
5.7252724e-06
5.5595212e-06
5.4343893e-06
5.3662275e-06
5.3392715e-06
5.3492593e-06
5.393778e-06
5.4698804e-06
5.5780517e-06
5.7174692e-06
5.8899917e-06
6.0713932e-06
6.3113744e-06
6.5938613e-06
6.9227634e-06
7.3049121e-06
7.7475071e-06
8.2586702e-06
8.8498473e-06
9.5346558e-06
1.0330422e-05
1.1257963e-05
1.2339826e-05
1.3606866e-05
1.5096083e-05
1.6853844e-05
1.8936941e-05
2.141599e-05
2.4376287e-05
2.7920867e-05
3.2176168e-05
3.7298852e-05
4.3466151e-05
5.0897386e-05
5.9858303e-05
7.0669468e-05
8.3702725e-05
0.00010027564
0.00011928493
0.00014213559
0.00016957501
0.00020441096
0.00024403109
0.00029136198
0.00034779983
0.00041495118
0.00049469288
0.00058925007
0.00070120365
0.00083339177
0.00098974602
0.0010173105
0.0010183999
0.0010194127
0.0010202993
0.0010210641
0.0010216887
0.0010219948
0.0010216224
0.0010202331
0.0010177162
0.0010145936
0.001014032
0.0010150701
0.0010128041
0.0010080871
0.0010035451
0.00099981914
0.0009979341
1.3847839e-07
7.898195e-06
5.2268262e-06
6.2561769e-06
4.467279e-06
5.0893955e-06
4.7979067e-06
5.1264044e-06
5.6967511e-06
5.2104853e-06
5.1124892e-06
4.8661076e-06
4.7385617e-06
4.6527902e-06
4.6139085e-06
4.6111097e-06
4.6406816e-06
4.7012467e-06
4.7906405e-06
4.8903474e-06
5.0330654e-06
5.2088118e-06
5.4197257e-06
5.6686008e-06
5.9595243e-06
6.2967659e-06
6.6870284e-06
7.1381159e-06
7.6583161e-06
8.2591589e-06
8.9542853e-06
9.7611197e-06
1.0651128e-05
1.1737176e-05
1.3009528e-05
1.4505543e-05
1.6272385e-05
1.8367463e-05
2.08626e-05
2.3845104e-05
2.7419896e-05
3.1957368e-05
3.7174056e-05
4.3457742e-05
5.1030274e-05
6.0158284e-05
7.1171229e-05
8.4449615e-05
0.00010044179
0.00012078459
0.00014406465
0.00017202327
0.00020555387
0.0002480645
0.00029636564
0.0003540082
0.00042266447
0.00050427583
0.00060113316
0.00071588063
0.00085152889
0.0010117506
0.0010171558
0.0010181269
0.0010190076
0.0010197707
0.0010204358
0.0010209815
0.0010212166
0.0010207759
0.0010193266
0.0010167991
0.0010141203
0.0010139889
0.0010147109
0.0010124486
0.0010075175
0.0010030502
0.00099960562
0.00099791454
1.2950346e-07
7.7522784e-06
4.2447454e-06
5.4525931e-06
3.9794179e-06
4.4976127e-06
4.4712829e-06
4.432072e-06
4.8622889e-06
4.40681e-06
4.29193e-06
4.1181288e-06
4.0271896e-06
3.9756704e-06
3.9636048e-06
3.9833414e-06
4.0318652e-06
4.0912984e-06
4.1890568e-06
4.316416e-06
4.4741499e-06
4.6636506e-06
4.8877449e-06
5.1493996e-06
5.4532622e-06
5.8038412e-06
6.2078656e-06
6.6525649e-06
7.1827368e-06
7.7940455e-06
8.5000959e-06
9.3182227e-06
1.0269496e-05
1.1380286e-05
1.2681724e-05
1.4212097e-05
1.6020353e-05
1.816551e-05
2.0721497e-05
2.3779143e-05
2.7446887e-05
3.1859192e-05
3.7174459e-05
4.3582912e-05
5.1312325e-05
6.1144683e-05
7.2473205e-05
8.6132435e-05
0.00010258638
0.00012238728
0.00014756423
0.00017634308
0.00021087122
0.00025222926
0.00030457503
0.00036402041
0.00043486787
0.00051911806
0.00061911418
0.0007375614
0.00087756435
0.0010161209
0.0010169945
0.0010178553
0.0010186128
0.0010192575
0.0010198208
0.0010202839
0.0010204616
0.001020007
0.0010185988
0.0010161553
0.0010139136
0.0010139169
0.0010144691
0.0010121824
0.0010070849
0.001002705
0.00099951133
0.00099807895
1.2154049e-07
7.4017739e-06
3.5906863e-06
4.7395236e-06
3.5435202e-06
3.9714765e-06
3.9577621e-06
3.8018441e-06
4.0637237e-06
3.6976273e-06
3.5897658e-06
3.4738571e-06
3.4172699e-06
3.3960728e-06
3.4086561e-06
3.4362027e-06
3.4967586e-06
3.5860437e-06
3.7032095e-06
3.8484068e-06
4.0230154e-06
4.2289338e-06
4.4693956e-06
4.7476378e-06
5.0565004e-06
5.4211739e-06
5.8396456e-06
6.319612e-06
6.870758e-06
7.5045506e-06
8.234897e-06
9.0797858e-06
1.0061082e-05
1.1206048e-05
1.2547911e-05
1.4126127e-05
1.5992026e-05
1.8207011e-05
2.0847447e-05
2.4008967e-05
2.7803201e-05
3.2370133e-05
3.7877293e-05
4.4521043e-05
5.2539747e-05
6.221649e-05
7.4545783e-05
8.8726785e-05
0.00010580983
0.00012637866
0.00015110297
0.00018251681
0.00021839982
0.00026139771
0.00031282378
0.00037776441
0.00045144365
0.00053903201
0.0006429064
0.00076579509
0.00091082559
0.0010160134
0.0010168255
0.0010175868
0.0010182329
0.0010187682
0.0010192333
0.0010196155
0.0010197493
0.001019322
0.0010180236
0.0010157305
0.0010138472
0.001013844
0.0010143379
0.001011932
0.001006844
0.0010026059
0.00099956089
0.00099827353
1.1469243e-07
7.0176109e-06
3.1568809e-06
4.1047032e-06
3.1552508e-06
3.354183e-06
3.5027515e-06
3.2245767e-06
3.3452026e-06
3.0829766e-06
2.9963864e-06
2.9262652e-06
2.9009405e-06
2.9069836e-06
2.9268168e-06
2.9835196e-06
3.0678516e-06
3.1785628e-06
3.3156772e-06
3.4800566e-06
3.6736128e-06
3.8985079e-06
4.1498135e-06
4.4451535e-06
4.7832828e-06
5.1696172e-06
5.6106513e-06
6.1143514e-06
6.690572e-06
7.3515222e-06
8.1115161e-06
8.9892772e-06
1.0007623e-05
1.1195135e-05
1.2532068e-05
1.4156447e-05
1.6078247e-05
1.8361926e-05
2.1214961e-05
2.4508059e-05
2.8463395e-05
3.3226778e-05
3.897646e-05
4.5918141e-05
5.4300696e-05
6.4423202e-05
7.6640443e-05
9.1373269e-05
0.00011009799
0.00013164426
0.00015755298
0.00018867213
0.00022814282
0.00027320309
0.00032708757
0.00039521001
0.00047231796
0.00056387533
0.00067226179
0.00080017987
0.00095075196
0.0010158924
0.00101665
0.0010173247
0.0010178736
0.0010183128
0.0010186893
0.0010189975
0.0010190927
0.0010186983
0.0010175282
0.001015461
0.0010138496
0.001013859
0.0010142166
0.001011684
0.0010068209
0.0010027968
0.00099977122
0.00099844294
1.091943e-07
5.8577334e-06
2.786076e-06
3.5267807e-06
2.8185601e-06
2.7833417e-06
3.0511607e-06
2.7029464e-06
2.7296372e-06
2.5586841e-06
2.4998639e-06
2.4670975e-06
2.4624384e-06
2.4860402e-06
2.5408948e-06
2.6229225e-06
2.7301485e-06
2.8623113e-06
3.020171e-06
3.2050173e-06
3.4137899e-06
3.6577214e-06
3.9366222e-06
4.2543634e-06
4.6155643e-06
5.0258269e-06
5.4919557e-06
6.0222304e-06
6.6268096e-06
7.3017717e-06
8.0902723e-06
8.999303e-06
1.0052624e-05
1.1279835e-05
1.2717698e-05
1.4411803e-05
1.6417908e-05
1.880507e-05
2.1657825e-05
2.5078968e-05
2.9193949e-05
3.440119e-05
4.044358e-05
4.7746651e-05
5.6571878e-05
6.7235277e-05
8.0113181e-05
9.565393e-05
0.00011544121
0.00013818387
0.00016554131
0.00019840217
0.00024012628
0.00028767887
0.00034451341
0.00041227216
0.00049748149
0.00059357765
0.00070700096
0.00084041595
0.0009968567
0.0010157603
0.0010164708
0.0010170741
0.0010175427
0.0010179024
0.0010182046
0.0010184476
0.0010185015
0.0010181197
0.001017064
0.0010152832
0.0010139155
0.001013948
0.0010141502
0.0010114801
0.0010069973
0.0010032532
0.0010001949
0.00099879751
1.0448671e-07
4.1641186e-06
2.4441555e-06
2.9918122e-06
2.3921829e-06
2.303873e-06
2.5802238e-06
2.2393128e-06
2.2176407e-06
2.117722e-06
2.0896293e-06
2.0820934e-06
2.1056924e-06
2.1602213e-06
2.2415891e-06
2.3473863e-06
2.4768379e-06
2.6303503e-06
2.8063378e-06
3.0109459e-06
3.2450078e-06
3.5112372e-06
3.8129456e-06
4.1541684e-06
4.5397712e-06
4.9756076e-06
5.4687694e-06
6.0184356e-06
6.6504788e-06
7.3714225e-06
8.1975081e-06
9.1488172e-06
1.0250557e-05
1.1534209e-05
1.3038977e-05
1.4813314e-05
1.6916863e-05
1.9423021e-05
2.2421988e-05
2.6024073e-05
3.0363662e-05
3.5603097e-05
4.2251556e-05
4.9979286e-05
5.9327271e-05
7.0632195e-05
8.4295647e-05
0.00010079718
0.00012070791
0.00014600422
0.00017509083
0.00021003044
0.00025192931
0.00030490618
0.00036519893
0.00043695227
0.0005270493
0.00062823488
0.00074718689
0.00088645677
0.0010149042
0.0010156174
0.001016291
0.0010168413
0.0010172493
0.0010175477
0.0010177895
0.0010179751
0.0010179887
0.0010176179
0.0010166875
0.0010152338
0.0010140444
0.0010141145
0.0010141919
0.0010114042
0.0010073383
0.0010039224
0.0010009278
0.00099913221
9.9579919e-08
3.4406613e-06
2.0931714e-06
2.4991155e-06
2.0411063e-06
1.9016513e-06
2.1000222e-06
1.8336169e-06
1.8017484e-06
1.7561547e-06
1.7545898e-06
1.7782277e-06
1.8340817e-06
1.9158977e-06
2.0212066e-06
2.1490324e-06
2.2995083e-06
2.4715957e-06
2.6701411e-06
2.896109e-06
3.1519153e-06
3.4405016e-06
3.7653919e-06
4.1307954e-06
4.541764e-06
5.0043862e-06
5.5196432e-06
6.1066132e-06
6.7720415e-06
7.5296338e-06
8.3965829e-06
9.3942672e-06
1.0549462e-05
1.1895661e-05
1.3474767e-05
1.5338867e-05
1.7552053e-05
2.019296e-05
2.3358296e-05
2.7165973e-05
3.1760088e-05
3.7586295e-05
4.4369799e-05
5.258531e-05
6.2536992e-05
7.4586529e-05
8.9165813e-05
0.00010678997
0.0001292588
0.00015511995
0.00018623963
0.00022362368
0.00026843706
0.00032504754
0.00038937093
0.0004657415
0.00056137747
0.00066827253
0.00079328963
0.00093879326
0.0010147326
0.0010154588
0.0010161126
0.0010166319
0.0010170016
0.0010172571
0.0010174498
0.0010175838
0.0010175708
0.0010172593
0.0010165315
0.0010154142
0.001014328
0.001014316
0.0010143515
0.0010114971
0.0010078411
0.0010046557
0.0010018317
0.0009997233
9.5998131e-08
2.7517358e-06
1.7876857e-06
2.0012488e-06
1.7508222e-06
1.5572299e-06
1.6589312e-06
1.4909594e-06
1.4751177e-06
1.4728752e-06
1.498295e-06
1.5555128e-06
1.6384845e-06
1.7436514e-06
1.8699892e-06
2.0176183e-06
2.1863335e-06
2.3792645e-06
2.5978774e-06
2.8444023e-06
3.1215174e-06
3.4323582e-06
3.7805997e-06
4.1705886e-06
4.6075333e-06
5.0941115e-06
5.6434384e-06
6.2625646e-06
6.9630412e-06
7.7593326e-06
8.6697581e-06
9.7171238e-06
1.0930029e-05
1.2344219e-05
1.4004415e-05
1.5966536e-05
1.830001e-05
2.1089303e-05
2.4438946e-05
2.8476055e-05
3.3575949e-05
3.9534961e-05
4.6759778e-05
5.5525948e-05
6.6162232e-05
7.9062236e-05
9.4695102e-05
0.00011362008
0.0001377305
0.000165549
0.00019904832
0.00023930108
0.00028754389
0.00034838612
0.00041744552
0.00049922094
0.00060124197
0.00071468744
0.00084653025
0.00099883336
0.0010145263
0.0010152747
0.0010159327
0.0010164467
0.0010168031
0.0010170353
0.0010171917
0.0010172838
0.001017263
0.0010170647
0.0010166174
0.0010157769
0.0010147471
0.0010144745
0.0010145557
0.0010117515
0.001008519
0.0010054146
0.0010027318
0.0010004632
9.3973611e-08
2.1520807e-06
1.5221209e-06
1.526513e-06
1.4834523e-06
1.2629263e-06
1.3008765e-06
1.2183468e-06
1.2307876e-06
1.2593405e-06
1.3186673e-06
1.4023297e-06
1.5071532e-06
1.6317078e-06
1.7761532e-06
1.9414219e-06
2.1282571e-06
2.3396381e-06
2.5772985e-06
2.8437091e-06
3.1417085e-06
3.4745687e-06
3.8460873e-06
4.2607345e-06
4.7238547e-06
5.2419418e-06
5.8229954e-06
6.4769478e-06
7.2077431e-06
8.0441796e-06
8.9999511e-06
1.0099458e-05
1.1373355e-05
1.2859983e-05
1.4607141e-05
1.6742571e-05
1.9223694e-05
2.2194932e-05
2.5770054e-05
3.0088058e-05
3.5318011e-05
4.1664609e-05
4.9376218e-05
5.875221e-05
7.0152814e-05
8.4010509e-05
0.00010084126
0.00012231814
0.00014722564
0.00017732154
0.00021360836
0.00025724689
0.00031249422
0.0003754141
0.00045016562
0.00053845505
0.00064809196
0.00076936797
0.00090925134
0.001013476
0.0010142667
0.0010150497
0.0010157377
0.0010162754
0.0010166463
0.0010168783
0.001017018
0.0010170884
0.0010170696
0.0010169607
0.001016744
0.0010161649
0.0010151436
0.0010146121
0.00101462
0.0010121529
0.0010092769
0.0010061611
0.0010033933
0.0010011094
9.4280057e-08
1.6399663e-06
1.297857e-06
1.1625383e-06
1.2159318e-06
1.0167698e-06
1.0384423e-06
1.0175267e-06
1.0588753e-06
1.1171675e-06
1.2010389e-06
1.3046536e-06
1.4267991e-06
1.5675349e-06
1.7278482e-06
1.9091815e-06
2.1129903e-06
2.3418241e-06
2.5977905e-06
2.883489e-06
3.2018634e-06
3.5562863e-06
3.9506688e-06
4.3896159e-06
4.8786429e-06
5.4244663e-06
6.0353923e-06
6.7218027e-06
7.4967557e-06
8.3767454e-06
9.3825895e-06
1.0540606e-05
1.1883888e-05
1.3453956e-05
1.5302668e-05
1.7494577e-05
2.0109813e-05
2.3247776e-05
2.7030909e-05
3.1609801e-05
3.716876e-05
4.3931873e-05
5.2169329e-05
6.2210727e-05
7.4453416e-05
9.0116368e-05
0.00010842987
0.0001306996
0.00015773628
0.0001904926
0.00023007838
0.00028038318
0.00033805733
0.00040695924
0.00048879251
0.00059094155
0.00070439152
0.0008354799
0.0009852715
0.0010130899
0.0010139276
0.0010147576
0.0010154996
0.0010160908
0.0010165064
0.0010167648
0.0010169094
0.0010169726
0.0010169546
0.0010168502
0.0010167204
0.0010162997
0.0010153244
0.0010146951
0.0010144126
0.0010125233
0.0010099069
0.0010069025
0.0010039544
0.0010012819
9.7713006e-08
1.2218169e-06
1.1123443e-06
8.9633047e-07
1.0597188e-06
8.1329027e-07
8.5849223e-07
8.820001e-07
9.4652177e-07
1.0283037e-06
1.1299075e-06
1.2487734e-06
1.3851845e-06
1.5400786e-06
1.7148805e-06
1.9112696e-06
2.1311607e-06
2.3765401e-06
2.6500156e-06
2.9541808e-06
3.2920672e-06
3.6671485e-06
4.0834597e-06
4.5457613e-06
5.0597674e-06
5.6324525e-06
6.2724655e-06
6.9906918e-06
7.800874e-06
8.7204565e-06
9.7714963e-06
1.0981975e-05
1.2387156e-05
1.403139e-05
1.5970203e-05
1.8272916e-05
2.102574e-05
2.4335532e-05
2.8334266e-05
3.318439e-05
3.9351855e-05
4.660633e-05
5.5463836e-05
6.6290764e-05
7.9532585e-05
9.5729603e-05
0.00011553302
0.00013972106
0.0001692124
0.0002070088
0.00025086383
0.00030387942
0.00036772028
0.00044419829
0.00054037803
0.00064827418
0.00077376677
0.00091762735
0.0010118583
0.0010126169
0.0010134829
0.001014364
0.0010151748
0.0010158442
0.0010163328
0.0010166438
0.0010168111
0.0010168667
0.001016812
0.0010166302
0.0010163149
0.0010158482
0.0010151541
0.0010145795
0.001014179
0.0010124983
0.0010102228
0.0010073931
0.0010043597
0.001001408
1.0438794e-07
9.5990611e-07
9.5064622e-07
7.5308163e-07
7.5818438e-07
6.9428349e-07
7.3798893e-07
7.9687624e-07
8.789521e-07
9.7712164e-07
1.091978e-06
1.223371e-06
1.3723105e-06
1.5400811e-06
1.7282481e-06
1.9385636e-06
2.1729887e-06
2.4337109e-06
2.7231835e-06
3.0441714e-06
3.3998179e-06
3.7937344e-06
4.2301267e-06
4.7139734e-06
5.251273e-06
5.8472841e-06
6.514126e-06
7.2618756e-06
8.112221e-06
9.0722809e-06
1.0170436e-05
1.1436557e-05
1.2908324e-05
1.4633167e-05
1.6670583e-05
1.9094961e-05
2.1999018e-05
2.549795e-05
2.9734393e-05
3.4884456e-05
4.1165113e-05
4.8843453e-05
5.8248188e-05
6.9782439e-05
8.3944513e-05
0.00010134584
0.00012382572
0.00015030768
0.0001827975
0.0002225814
0.00027115842
0.00033026254
0.00040186261
0.000492736
0.00059644098
0.00071870297
0.00086041976
0.0010107862
0.0010113117
0.0010120513
0.0010129187
0.001013834
0.0010147086
0.0010154643
0.0010160457
0.0010164322
0.0010166382
0.0010166909
0.0010165977
0.0010163431
0.0010159268
0.0010153947
0.0010147918
0.0010141701
0.0010133064
0.0010120019
0.0010100586
0.0010074719
0.0010044842
0.0010014466
1.1907198e-07
9.5845888e-07
7.9420132e-07
5.615299e-07
6.0311299e-07
6.0553347e-07
6.6789709e-07
7.4577053e-07
8.4156712e-07
9.5203307e-07
1.0780904e-06
1.2205404e-06
1.3806514e-06
1.5598161e-06
1.7596375e-06
1.9819041e-06
2.2286194e-06
2.5020288e-06
2.8046567e-06
3.1393537e-06
3.5093595e-06
3.9183926e-06
4.3707777e-06
4.8716274e-06
5.4270994e-06
6.0447496e-06
6.7339993e-06
7.5067367e-06
8.37808e-06
9.3672946e-06
1.0498905e-05
1.1804105e-05
1.3322382e-05
1.5103585e-05
1.7210416e-05
1.9721488e-05
2.2735062e-05
2.6373518e-05
3.0788794e-05
3.6168999e-05
4.2746734e-05
5.1172708e-05
6.1154082e-05
7.3433234e-05
8.8566056e-05
0.00010724625
0.00013034125
0.00015892984
0.00019433604
0.00023814762
0.00029222782
0.00036203242
0.00044396742
0.00054353722
0.00066336887
0.00080531315
0.00096947354
0.0010102688
0.0010107276
0.0010114034
0.0010122368
0.0010131471
0.0010140503
0.0010148698
0.0010155423
0.0010160243
0.0010162984
0.0010163686
0.0010162379
0.0010158908
0.001015315
0.0010145482
0.0010136883
0.0010128278
0.0010119487
0.0010108671
0.0010093061
0.0010070885
0.0010043202
0.001001392
1.090979e-07
6.2451786e-07
6.3128714e-07
4.6539209e-07
5.0640212e-07
5.5149657e-07
6.2930341e-07
7.2090904e-07
8.2746322e-07
9.4828001e-07
1.0844066e-06
1.236882e-06
1.4070128e-06
1.5962555e-06
1.8062567e-06
2.0388635e-06
2.296149e-06
2.5804062e-06
2.894294e-06
3.2407393e-06
3.6230852e-06
4.0451622e-06
4.5114191e-06
5.0271079e-06
5.5985503e-06
6.2335009e-06
6.9416321e-06
7.7351632e-06
8.6365951e-06
9.6550743e-06
1.0820803e-05
1.2166353e-05
1.3733003e-05
1.5572978e-05
1.7752128e-05
2.0353274e-05
2.3480263e-05
2.7262919e-05
3.186309e-05
3.7482045e-05
4.4369678e-05
5.2836161e-05
6.3267262e-05
7.6146624e-05
9.2082204e-05
0.00011184449
0.00013641817
0.00016853865
0.00020719486
0.0002556809
0.00031647679
0.000392442
0.00048684572
0.00060337757
0.00074562448
0.0009155441
0.0010096403
0.0010097416
0.0010100951
0.0010106785
0.0010114417
0.0010123025
0.0010131781
0.0010140023
0.0010147236
0.0010152931
0.0010156626
0.0010157948