/*--------------------------------*- C++ -*----------------------------------*\
  =========                 |
  \\      /  F ield         | OpenFOAM: The Open Source CFD Toolbox
   \\    /   O peration     | Website:  https://openfoam.org
    \\  /    A nd           | Version:  12
     \\/     M anipulation  |
\*---------------------------------------------------------------------------*/
FoamFile
{
    format      ascii;
    class       volScalarField;
    location    "0.022";
    object      p;
}
// * * * * * * * * * * * * * * * * * * * * * * * * * * * * * * * * * * * * * //

dimensions      [1 -1 -2 0 0 0 0];

internalField   nonuniform List<scalar> 
16000
(
88447.868
88577.213
88589.087
88727.699
88753.968
88885.336
88936.634
89056.893
89132.321
89246.544
89340.866
89454.824
89563.668
89681.96
89802.153
89927.939
90057.887
90192.618
90332.011
90476.157
90625.073
90778.769
90937.233
91100.431
91268.304
91440.761
91617.685
91798.926
91984.301
92173.592
92366.547
92562.876
92762.258
92964.336
93168.719
93374.988
93582.697
93791.376
94000.535
94209.669
94418.267
94625.813
94831.794
95035.705
95237.054
95435.367
95630.194
95821.106
96007.696
96189.572
96366.353
96537.66
96703.106
96862.297
97014.82
97160.232
97298.045
97427.708
97548.607
97660.087
97761.489
97852.22
97931.819
98000.022
98056.856
98102.704
98138.261
98164.293
98181.164
98188.34
98184.721
98168.782
98139.462
98100.838
98056.041
98064.511
97954.2
98228.982
98255.947
98263.345
88038.861
88185.63
88194.858
88345.908
88373.832
88516.543
88570.282
88702.156
88781.558
88906.153
89007.076
89130.189
89247.578
89374.943
89504.626
89640.124
89780.209
89925.385
90075.579
90230.855
90391.217
90556.655
90727.13
90902.573
91082.888
91267.942
91457.57
91651.569
91849.702
92051.692
92257.225
92465.947
92677.471
92891.373
93107.197
93324.46
93542.651
93761.241
93979.685
94197.433
94413.931
94628.63
94840.99
95050.49
95256.629
95458.936
95656.967
95850.311
96038.583
96221.42
96398.469
96569.38
96733.803
96891.379
97041.737
97184.49
97319.221
97445.476
97562.771
97670.619
97768.581
97856.313
97933.611
98000.453
98057.025
98103.715
98141.003
98169.134
98187.612
98194.875
98188.533
98165.928
98127.011
98078.122
98027.746
97989.652
97950.605
98155.627
98182.006
98268.685
87660.625
87823.401
87832.32
87997.046
88024.774
88181.486
88236.867
88381.26
88465.609
88600.867
88709.715
88842.562
88969.717
89107.14
89247.502
89393.93
89545.421
89702.352
89864.669
90032.396
90205.507
90383.956
90567.661
90756.51
90950.358
91149.02
91352.274
91559.859
91771.471
91986.766
92205.356
92426.816
92650.682
92876.455
93103.603
93331.57
93559.777
93787.631
94014.533
94239.886
94463.098
94683.593
94900.815
95114.237
95323.364
95527.738
95726.943
95920.6
96108.365
96289.917
96464.95
96633.166
96794.265
96947.946
97093.909
97231.846
97361.447
97482.385
97594.342
97697.032
97790.245
97873.878
97947.952
98012.609
98068.096
98114.696
98152.547
98181.283
98199.579
98205.021
98194.377
98164.513
98117.078
98058.543
97999.532
97946.732
97940.857
98098.51
98127.216
98270.728
87316.298
87490.303
87500.12
87680.738
87708.139
87881.209
87938.807
88097.691
88187.982
88335.478
88453.799
88597.813
88736.469
88885.552
89038.274
89197.289
89361.803
89532.066
89708.021
89889.651
90076.896
90269.67
90467.85
90671.279
90879.755
91093.037
91310.836
91532.82
91758.605
91987.764
92219.825
92454.273
92690.552
92928.075
93166.224
93404.362
93641.836
93877.99
94112.174
94343.748
94572.095
94796.625
95016.781
95232.048
95441.96
95646.095
95844.087
96035.612
96220.387
96398.159
96568.69
96731.754
96887.126
97034.589
97173.936
97304.972
97427.516
97541.401
97646.493
97742.715
97830.081
97908.694
97978.727
98040.393
98093.881
98139.255
98176.233
98203.82
98219.968
98221.628
98205.2
98167.902
98112.112
98045.524
97982.424
97922.758
97936.238
98064.386
98096.603
98282.954
87009.847
87199.254
87205.655
87405.662
87432.066
87624.264
87684.545
87859.963
87957.659
88118.992
88248.828
88405.49
88557.478
88719.767
88886.367
89059.406
89238.301
89423.207
89614.071
89810.848
90013.448
90221.746
90435.57
90654.701
90878.871
91107.757
91340.984
91578.122
91818.688
92062.147
92307.92
92555.382
92803.872
93052.7
93301.153
93548.51
93794.047
94037.052
94276.832
94512.724
94744.103
94970.387
95191.047
95405.609
95613.66
95814.849
96008.882
96195.52
96374.567
96545.859
96709.25
96864.605
97011.797
97150.713
97281.262
97403.38
97517.035
97622.231
97719.02
97807.526
97887.95
97960.543
98025.552
98083.148
98133.36
98175.941
98210.146
98234.414
98246.168
98242.064
98218.682
98174.231
98112.384
98042.368
97977.329
97920.391
97947.555
98054.266
98092.803
98321.454
86749.694
86957.151
86961.474
87183.083
87208.159
87421.649
87484.373
87678.368
87785.104
87961.546
88104.592
88274.732
88441.171
88617.607
88799.069
88987.2
89181.613
89382.394
89589.477
89802.772
90022.135
90247.371
90478.226
90714.388
90955.486
91201.082
91450.683
91703.73
91959.611
92217.662
92477.169
92737.382
92997.52
93256.785
93514.368
93769.47
94021.308
94269.131
94512.228
94749.94
94981.664
95206.862
95425.068
95635.886
95838.995
96034.143
96221.148
96399.881
96570.259
96732.23
96885.761
97030.826
97167.413
97295.53
97415.215
97526.547
97629.648
97724.688
97811.895
97891.559
97964.016
98029.593
98088.512
98140.811
98186.263
98224.253
98253.586
98272.257
98277.431
98265.871
98234.825
98184.065
98119.187
98049.708
97984.999
97941.911
97981.429
98069.379
98117.399
98399.279
86541.055
86769.994
86771.367
87018.116
87041.778
87279.503
87346.165
87560.696
87676.596
87867.25
88024.066
88207.898
88389.759
88581.553
88779.345
88984.276
89196.057
89414.667
89639.972
89871.792
90109.884
90353.942
90603.592
90858.391
91117.826
91381.317
91648.212
91917.801
92189.312
92461.927
92734.785
93006.998
93277.663
93545.875
93810.745
94071.415
94327.069
94576.95
94820.366
95056.703
95285.425
95506.087
95718.328
95921.877
96116.544
96302.219
96478.857
96646.473
96805.118
96954.873
97095.829
97228.084
97351.749
97466.959
97573.889
97672.757
97763.83
97847.426
97923.916
97993.708
98057.211
98114.741
98166.413
98212.048
98251.107
98282.594
98304.924
98315.829
98312.531
98292.307
98253.548
98198.201
98132.507
98067.882
98009.795
97987.213
98039.832
98111.702
98172.67
98522.794
86376.538
86630.957
86628.164
86905.394
86926.96
87193.753
87262.947
87496.181
87623.299
87829.644
88003.4
88203.536
88403.808
88613.98
88831.072
89055.774
89287.818
89527.069
89773.292
90026.191
90285.395
90550.456
90820.846
91095.956
91375.102
91657.518
91942.372
92228.764
92515.747
92802.328
93087.492
93370.215
93649.482
93924.305
94193.743
94456.914
94713.016
94961.335
95201.254
95432.258
95653.94
95866.001
96068.243
96260.566
96442.955
96615.474
96778.252
96931.461
97075.309
97210.015
97335.801
97452.892
97561.522
97661.951
97754.479
97839.448
97917.249
97988.312
98053.106
98112.104
98165.71
98214.153
98257.369
98294.912
98325.917
98349.049
98362.45
98363.814
98350.739
98321.374
98275.658
98217.718
98155.903
98098.588
98053.299
98053.42
98118.606
98184.156
98266.67
98686.126
86249.896
86533.701
86526.371
86841.998
86858.13
87153.206
87227.369
87483.061
87627.788
87853.537
88048.87
88269.042
88491.448
88723.641
88963.484
89211.318
89466.847
89729.813
89999.854
90276.523
90559.284
90847.506
91140.465
91437.344
91737.239
92039.166
92342.071
92644.847
92946.348
93245.409
93540.864
93831.573
94116.442
94394.441
94664.626
94926.158
95178.311
95420.486
95652.213
95873.154
96083.097
96281.953
96469.741
96646.577
96812.661
96968.259
97113.685
97249.289
97375.43
97492.467
97600.746
97700.608
97792.398
97876.485
97953.273
98023.201
98086.744
98144.404
98196.693
98244.081
98286.903
98325.235
98358.785
98386.832
98408.218
98421.366
98424.324
98414.999
98391.65
98353.573
98302.459
98244.729
98189.505
98142.566
98115.455
98140.612
98218.074
98281.185
98399.04
98881.446
86165.793
86483.832
86473.092
86826.92
86840.703
87168.454
87256.334
87538.516
87704.641
87952.128
88172.91
88416.51
88664.485
88922.267
89188.34
89462.736
89745.061
90034.888
90331.672
90634.763
90943.398
91256.705
91573.701
91893.304
92214.345
92535.578
92855.702
93173.387
93487.29
93796.087
94098.497
94393.309
94679.408
94955.796
95221.611
95476.143
95718.837
95949.304
96167.311
96372.778
96565.763
96746.445
96915.107
97072.118
97217.908
97352.956
97477.768
97592.857
97698.724
97795.848
97884.681
97965.657
98039.209
98105.788
98165.867
98219.944
98268.534
98312.157
98351.312
98386.405
98417.641
98444.899
98467.647
98484.916
98495.342
98497.252
98488.825
98468.433
98435.215
98389.781
98335.568
98280.846
98234.923
98201.132
98195.181
98247.093
98338.52
98405.335
98563.625
99096.63
86133.521
86492.493
86477.816
86873.309
86891.996
87257.861
87361.056
87671.354
87864.029
88135.887
88386.265
88657.267
88934.653
89221.992
89518.13
89822.809
90135.455
90455.407
90781.863
91113.889
91450.415
91790.247
92132.077
92474.498
92816.028
93155.136
93490.266
93819.87
94142.442
94456.549
94760.863
95054.19
95335.498
95603.936
95858.844
96099.763
96326.431
96538.776
96736.899
96921.055
97091.629
97249.113
97394.076
97527.145
97648.983
97760.267
97861.67
97953.843
98037.398
98112.903
98180.88
98241.827
98296.232
98344.589
98387.401
98425.177
98458.422
98487.626
98513.218
98535.485
98554.457
98569.801
98580.767
98586.205
98584.668
98574.574
98554.462
98523.399
98481.552
98430.833
98376.078
98326.807
98292.789
98274.992
98291.8
98369.979
98476.2
98555.725
98762.256
99322.162
86160.923
86568.483
86549.724
86994.844
87019.225
87425.978
87549.83
87890.262
88115.728
88415.628
88700.277
89003.459
89314.737
89636.156
89966.685
90305.742
90652.467
91005.863
91364.76
91727.833
92093.61
92460.492
92826.78
93190.699
93550.433
93904.163
94250.104
94586.548
94911.904
95224.736
95523.801
95808.071
96076.757
96329.314
96565.445
96785.087
96988.394
97175.713
97347.554
97504.56
97647.469
97777.089
97894.267
97999.864
98094.741
98179.734
98255.64
98323.201
98383.095
98435.934
98482.273
98522.633
98557.518
98587.423
98612.835
98634.228
98652.052
98666.716
98678.53
98687.621
98693.824
98696.606
98695.05
98687.926
98673.849
98651.519
98620.045
98579.359
98530.716
98477.184
98424.524
98382.647
98361.574
98362.584
98403.652
98505.705
98625.901
98725.919
98988.697
99549.87
86249.507
86714.841
86692.761
87194.558
87227.996
87679.702
87831.851
88205.245
88470.756
88803.694
89127.997
89469.087
89819.595
90180.336
90550.142
90927.996
91312.602
91702.48
92095.964
92491.227
92886.304
93279.126
93667.56
94049.45
94422.666
94785.155
95134.997
95470.455
95790.02
96092.451
96376.798
96642.42
96888.98
97116.435
97325.01
97515.172
97687.587
97843.082
97982.605
98107.184
98217.889
98315.805
98402.004
98477.528
98543.37
98600.465
98649.672
98691.768
98727.44
98757.297
98781.885
98801.709
98817.244
98828.946
98837.241
98842.528
98845.159
98845.421
98843.47
98839.248
98832.4
98822.229
98807.73
98787.704
98760.977
98726.693
98684.681
98635.821
98582.43
98528.589
98480.805
98448.527
98440.007
98460.148
98526.468
98650.416
98784.495
98910.194
99222.8
99767.192
86403.914
86937.716
86913.02
87479.054
87528.15
88028.915
88219.004
88629.004
88942.725
89315.422
89685.857
90071.738
90467.793
90873.74
91287.986
91708.902
92134.584
92562.93
92991.657
93418.339
93840.451
94255.418
94660.674
95053.734
95432.258
95794.128
96137.503
96460.879
96763.116
97043.462
97301.546
97537.367
97751.256
97943.839
98115.986
98268.761
98403.367
98521.102
98623.31
98711.342
98786.524
98850.136
98903.391
98947.425
98983.287
99011.935
99034.221
99050.891
99062.594
99069.888
99073.27
99073.187
99070.051
99064.236
99056.076
99045.856
99033.804
99020.054
99004.588
98987.161
98967.25
98944.053
98916.565
98883.732
98844.708
98799.196
98747.794
98692.31
98636.019
98583.94
98543.156
98521.728
98525.487
98564.761
98656.173
98799.303
98946.234
99097.998
99443.458
99959.989
86630.566
87246.225
87221.035
87859.95
87932.191
88486.406
88726.176
89178.461
89549.879
89971.281
90395.766
90834.343
91282.809
91739.797
92203.028
92670.103
93138.353
93604.919
94066.789
94520.859
94964.011
95393.199
95805.547
96198.447
96569.64
96917.293
97240.041
97537.012
97807.82
98052.542
98271.669
98466.05
98636.83
98785.378
98913.223
99021.996
99113.369
99189.014
99250.561
99299.567
99337.499
99365.719
99385.476
99397.908
99404.036
99404.76
99400.863
99393.006
99381.748
99367.565
99350.866
99332.012
99311.316
99289.044
99265.407
99240.561
99214.586
99187.451
99158.962
99128.705
99096.034
99060.11
99020.01
98974.92
98924.407
98868.758
98809.3
98748.638
98690.872
98641.805
98608.805
98598.769
98615.708
98673.878
98788.483
98947.946
99104.97
99278.429
99639.501
100117.91
86935.445
87648.822
87626.231
88348.236
88455.757
89069.899
89374.603
89878.198
90318.303
90799.08
91286.257
91785.385
92292.477
92805.049
93319.92
93833.72
94342.822
94843.448
95331.759
95803.976
96256.52
96686.141
97090.048
97465.995
97812.353
98128.127
98412.949
98667.036
98891.121
99086.372
99254.307
99396.7
99515.498
99612.747
99690.524
99750.882
99795.805
99827.178
99846.756
99856.158
99856.854
99850.17
99837.292
99819.269
99797.014
99771.31
99742.813
99712.058
99679.485
99645.454
99610.268
99574.172
99537.362
99499.976
99462.092
99423.724
99384.801
99345.132
99304.363
99261.948
99217.176
99169.239
99117.371
99061.058
99000.311
98935.969
98869.955
98805.501
98747.341
98701.776
98676.392
98678.402
98709.395
98786.008
98921.55
99093.835
99256.43
99442.734
99808.297
100239.74
87327.176
88157.314
88143.606
88964.685
89124.839
89809.32
90196.41
90762.378
91282.108
91832.956
92390.829
92957.057
93527.118
94097.179
94662.794
95219.304
95761.908
96285.844
96786.589
97260.048
97702.729
98111.875
98485.543
98822.629
99122.843
99386.636
99615.107
99809.88
99972.984
100106.73
100213.62
100296.21
100357.09
100398.75
100423.6
100433.9
100431.73
100419
100397.41
100368.5
100333.62
100293.96
100250.56
100204.29
100155.92
100106.06
100055.2
100003.73
99951.947
99900.092
99848.336
99796.802
99745.553
99694.594
99643.871
99593.261
99542.553
99491.416
99439.372
99385.799
99329.982
99271.209
99208.922
99142.938
99073.695
99002.497
98931.729
98865.084
98807.714
98766.125
98748.325
98762.822
98809.155
98903.708
99057.286
99237.982
99401.263
99590.852
99950.475
100335.56
87827.566
88802.216
88808.546
89747.956
89978.391
90743.528
91230.824
91870.724
92480.111
93111.102
93746.519
94384.116
95017.912
95642.174
96250.754
96837.546
97396.733
97923.076
98412.165
98860.594
99266.061
99627.388
99944.462
100218.12
100450.02
100642.41
100798.05
100919.96
101011.34
101075.44
101115.43
101134.37
101135.16
101120.46
101092.73
101054.18
101006.78
100952.29
100892.21
100827.89
100760.45
100690.87
100619.99
100548.47
100476.89
100405.66
100335.11
100265.45
100196.86
100129.43
100063.21
99998.19
99934.305
99871.435
99809.404
99747.971
99686.81
99625.488
99563.457
99500.081
99434.707
99366.769
99295.948
99222.384
99146.885
99071.13
98997.883
98931.23
98876.609
98840.606
98831.553
98858.896
98922.208
99034.555
99201.642
99384.8
99544.69
99730.288
100072.89
100420.01
88467.858
89624.943
89661.294
90738.148
91058.777
91913.245
92520.538
93248.687
93957.933
94678.08
95394.853
96102.298
96792.088
97456.292
98087.277
98678.238
99223.535
99718.942
100161.76
100550.8
100886.32
101169.77
101403.59
101591
101735.7
101841.7
101913.11
101954
101968.33
101959.8
101931.87
101887.69
101830.11
101761.67
101684.6
101600.87
101512.18
101419.98
101325.5
101229.79
101133.73
101038.03
100943.3
100849.99
100758.45
100668.91
100581.53
100496.38
100413.47
100332.79
100254.26
100177.75
100103.07
100030
99958.274
99887.548
99817.426
99747.425
99676.988
99605.534
99532.525
99457.577
99380.616
99302.06
99223.009
99145.431
99072.468
99008.654
98959.672
98932.219
98935.032
98977.087
99058.066
99186.942
99361.564
99539.912
99691.668
99873.855
100193.87
100509.42
89275.527
90652.386
90734.842
91970.832
92416.398
93372.891
94122.754
94956.434
95773.322
96584.812
97375.937
98136.97
98857.518
99528.621
100142.97
100695.29
101182.45
101603.45
101959.12
102251.92
102485.51
102664.4
102793.64
102878.54
102924.39
102936.35
102919.27
102877.66
102815.63
102736.84
102644.57
102541.71
102430.75
102313.87
102192.9
102069.42
101944.75
101819.98
101696.02
101573.59
101453.3
101335.62
101220.89
101109.37
101001.2
100896.45
100795.09
100697.09
100602.33
100510.67
100421.93
100335.87
100252.23
100170.68
100090.9
100012.5
99935.061
99858.097
99781.114
99703.638
99625.288
99545.874
99465.533
99384.894
99305.248
99228.801
99159.096
99101.176
99060.967
99045.419
99064.142
99124.42
99222.22
99362.728
99537.739
99705.609
99846.577
100023.04
100323.6
100594.84
90284.535
91936.056
92102.513
93515.118
94132.911
95207.932
96118.013
97067.787
97986.072
98870.635
99704.827
100477.08
101177.69
101800.05
102340.63
102798.82
103176.56
103477.81
103708.03
103873.64
103981.53
104038.74
104052.1
104028.11
103972.75
103891.45
103789.04
103669.79
103537.41
103395.12
103245.66
103091.38
102934.24
102775.91
102617.74
102460.87
102306.19
102154.44
102006.17
101861.84
101721.77
101586.19
101455.25
101328.99
101207.38
101090.33
100977.71
100869.34
100765.02
100664.5
100567.52
100473.76
100382.88
100294.54
100208.37
100123.98
100040.96
99958.913
99877.442
99796.216
99715.019
99633.823
99552.908
99473.015
99395.547
99322.921
99259.076
99209.568
99180.619
99179.261
99215.971
99295.678
99408.102
99551.866
99717.513
99869.235
99998.202
100164.94
100431.49
100656.97
91581.536
93579.498
93876.463
95486.626
96325.454
97527.417
98592.047
99641.327
100621.95
101524.78
102335.45
103045.79
103651.9
104154.08
104556.07
104864.24
105086.72
105232.65
105311.5
105332.62
105304.85
105236.35
105134.46
105005.67
104855.65
104689.26
104510.67
104323.4
104130.41
103934.18
103736.74
103539.78
103344.69
103152.56
102964.29
102780.54
102601.83
102428.57
102261.01
102099.35
101943.68
101794.02
101650.33
101512.49
101380.32
101253.63
101132.17
101015.66
100903.84
100796.37
100692.93
100593.14
100496.66
100403.12
100312.16
100223.44
100136.63
100051.42
99967.547
99884.827
99803.161
99722.602
99643.45
99566.44
99493.043
99425.911
99369.383
99329.526
99313.013
99326.354
99378.185
99471.572
99593.029
99729.8
99873.995
100000.54
100111.18
100257.43
100477.31
100647.44
93301.131
95726.733
96211.368
98016.567
99112.115
100424.83
101588.66
102667.59
103622.36
104446.36
105135.08
105690.64
106119.76
106432.57
106641.28
106758.97
106798.74
106773.06
106693.36
106569.88
106411.58
106226.15
106020.13
105799.02
105567.4
105329.04
105087.05
104843.96
104601.83
104362.3
104126.71
103896.09
103671.25
103452.78
103241.14
103036.62
102839.42
102649.64
102467.31
102292.39
102124.81
101964.41
101811
101664.32
101524.11
101390.05
101261.83
101139.11
101021.55
100908.78
100800.42
100696.11
100595.47
100498.17
100403.91
100312.42
100223.45
100136.83
100052.42
99970.115
99889.834
99811.56
99735.451
99662.111
99593.049
99531.221
99481.404
99450.063
99444.313
99469.963
99529.873
99623.013
99737.065
99850.284
99956.071
100052.7
100139.72
100250.58
100398.88
100506.05
95638.142
98541.153
99277.113
101225.43
102537.51
103898.36
105040.03
106016.01
106812.6
107435.52
107896.04
108210.38
108396.98
108474.87
108462.28
108375.97
108230.74
108039.4
107812.77
107559.89
107288.2
107003.76
106711.47
106415.29
106118.36
105823.18
105531.71
105245.49
104965.71
104693.26
104428.83
104172.88
103925.74
103687.61
103458.58
103238.63
103027.71
102825.69
102632.42
102447.71
102271.32
102102.97
101942.36
101789.13
101642.93
101503.4
101370.15
101242.81
101120.99
101004.29
100892.32
100784.72
100681.15
100581.32
100484.99
100392
100302.22
100215.57
100131.97
100051.3
99973.342
99897.799
99824.504
99753.811
99687.228
99628.024
99581.435
99554.071
99552.382
99580.102
99635.244
99709.513
99788.732
99852.981
99916.12
99970.266
100027.03
100083.58
100147.71
100195.03
98851.286
102138.32
103186.47
105204.13
106555.81
107762.78
108711.21
109426.13
109925.75
110237.44
110389.97
110411.69
110328.49
110163.06
109934.64
109659.15
109349.57
109016.28
108667.54
108309.86
107948.31
107586.84
107228.47
106875.53
106529.77
106192.49
105864.64
105546.92
105239.78
104943.52
104658.29
104384.14
104121.02
103868.8
103627.31
103396.32
103175.59
102964.82
102763.73
102572
102389.28
102215.22
102049.41
101891.45
101740.92
101597.41
101460.51
101329.8
101204.89
101085.35
100970.79
100860.87
100755.29
100653.84
100556.37
100462.79
100373.07
100287.18
100205
100126.26
100050.38
99976.59
99904.197
99833.196
99765.047
99703.266
99653.319
99621.394
99612.185
99626.189
99657.515
99693.831
99720.314
99728.422
99728.004
99728.831
99735.802
99735.808
99719.651
99715.364
103194.6
106700.6
107955.27
109699.21
110861.8
111719.94
112272.86
112576.59
112677.05
112618.59
112438.77
112168.78
111833.6
111452.9
111041.9
110612.27
110172.83
109730.24
109289.45
108854.14
108426.99
108009.95
107604.38
107211.21
106831.05
106464.27
106111.04
105771.39
105445.26
105132.48
104832.83
104546.05
104271.83
104009.81
103759.64
103520.93
103293.31
103076.39
102869.77
102673.07
102485.85
102307.7
102138.15
101976.76
101823.08
101676.68
101537.11
101403.95
101276.75
101155.11
101038.64
100927.03
100820.05
100717.54
100619.43
100525.69
100436.31
100351.26
100270.27
100192.72
100117.53
100043.24
99968.52
99892.912
99817.78
99746.746
99685.127
99638.042
99607.706
99590.947
99578.357
99556.559
99514.545
99452.402
99384.808
99330.752
99290.834
99241.271
99170.621
99134.403
108594.42
112060.07
113214.81
114376.74
115008.81
115303.42
115326.98
115154.9
114842.81
114434.37
113962.04
113449.76
112914.92
112370.03
111824.01
111283.16
110751.89
110233.21
109729.15
109241
108769.53
108315.14
107877.95
107457.9
107054.78
106668.3
106298.08
105943.72
105604.78
105280.82
104971.36
104675.92
104394.01
104125.16
103868.88
103624.68
103392.12
103170.73
102960.06
102759.66
102569.07
102387.81
102215.4
102051.36
101895.24
101746.56
101604.88
101469.72
101340.64
101217.25
101099.24
100986.34
100878.31
100774.98
100676.28
100582.25
100492.88
100408.02
100327.21
100249.36
100172.74
100095.12
100014.43
99929.749
99842.287
99755.602
99674.439
99602.334
99538.802
99477.68
99408.111
99318.805
99204.858
99074.215
98947.466
98844.915
98766.217
98686.717
98595.54
98549.115
115002.03
117583.52
118214.66
118505.85
118411.15
118074.95
117578.89
116985.21
116335.66
115658.56
114972.73
114290.55
113620.06
112966.39
112332.67
111720.71
111131.44
110565.16
110021.79
109500.98
109002.21
108524.87
108068.27
107631.69
107214.43
106815.76
106434.98
106071.43
105724.44
105393.38
105077.62
104776.56
104489.62
104216.23
103955.83
103707.89
103471.9
103247.38
103033.82
102830.76
102637.69
102454.13
102279.56
102113.51
101955.49
101805.02
101661.63
101524.81
101394.16
101269.39
101150.26
101036.46
100927.58
100823.33
100723.77
100629.07
100539.16
100453.68
100371.88
100292.32
100212.55
100129.58
100040.63
99944.299
99841.548
99735.694
99630.733
99528.512
99426.256
99316.088
99187.832
99034.465
98857.922
98672.238
98500.392
98362.561
98260.138
98173.235
98089.484
98046.022
121812.43
122266.52
122044.76
121482.86
120733.45
119888.82
119006.55
118119.3
117246.12
116397.57
115579.26
114793.84
114042.2
113324.18
112639
111985.58
111362.62
110768.78
110202.7
109663.04
109148.53
108657.95
108190.14
107744.01
107318.55
106912.8
106525.87
106156.92
105805.18
105469.89
105150.36
104845.92
104555.9
104279.71
104016.74
103766.44
103528.27
103301.71
103086.26
102881.43
102686.69
102501.56
102325.52
102158.07
101998.74
101847.03
101702.49
101564.67
101433.18
101307.59
101187.51
101072.43
100961.89
100856.01
100755.31
100659.88
100569.4
100483.08
100400.04
100318.67
100235.93
100148.14
100051.84
99945.101
99828.643
99705.519
99578.89
99449.441
99312.964
99160.676
98984.424
98781.698
98560.047
98337.242
98136.465
97976.086
97861.78
97781.322
97717.632
97681.287
125788.02
125147.62
124209.76
123131.42
122019.57
120919.42
119854.25
118833.64
117861.19
116937.21
116060.42
115228.77
114439.89
113691.33
112980.66
112305.6
111663.98
111053.8
110473.21
109920.51
109394.12
108892.61
108414.65
107959.02
107524.61
107110.37
106715.36
106338.69
105979.52
105637.11
105310.7
104999.62
104703.2
104420.81
104151.86
103895.77
103652.02
103420.07
103199.44
102989.63
102790.13
102600.44
102420.07
102248.51
102085.29
101929.93
101782
101641.06
101506.54
101377.83
101254.47
101136.2
101023.32
100915.81
100813.05
100714.88
100621.54
100533.27
100448.96
100366.15
100281.49
100190.67
100089.6
99975.919
99850.076
99714.981
99573.662
99426.003
99266.779
99087.381
98880.793
98647.221
98396.926
98150.683
97932.422
97762.382
97641.086
97565.281
97518.316
97487.473
103024.43
102994.38
103034.61
103076.76
103106.57
103110.97
103089.09
103055.74
103016.96
102968.45
102906
102831.48
102748.54
102661.6
102571.44
102478.1
102381.86
102283.16
102182.38
102079.86
101975.93
101870.89
101765.05
101658.66
101551.97
101445.21
101338.61
101232.36
101126.66
101021.7
100917.64
100814.65
100712.89
100612.51
100513.67
100416.5
100321.15
100227.75
100136.44
100047.35
99960.606
99876.334
99794.657
99715.693
99639.553
99566.348
99496.179
99429.138
99365.309
99304.76
99247.542
99193.688
99143.204
99096.072
99052.238
99011.607
98974.047
98939.389
98907.44
98877.995
98850.854
98825.86
98802.903
98782.035
98763.244
98747.241
98733.289
98725.11
98715.767
98723.78
98714.661
98765.545
98729.431
98879.137
98801.469
99054.643
99068.783
99155.003
99659.402
98923.772
102265.84
102259.11
102273.79
102292.53
102292.75
102287.82
102278.72
102263.09
102236.97
102204.94
102166.17
102122.19
102072.48
102017.96
101958.77
101895.48
101828.34
101757.68
101683.79
101606.99
101527.58
101445.83
101362.05
101276.5
101189.47
101101.21
101012.01
100922.09
100831.73
100741.15
100650.59
100560.27
100470.42
100381.24
100292.95
100205.73
100119.79
100035.32
99952.482
99871.467
99792.44
99715.565
99641
99568.894
99499.39
99432.624
99368.719
99307.79
99249.934
99195.235
99143.756
99095.541
99050.605
99008.934
98970.478
98935.144
98902.801
98873.281
98846.386
98821.906
98799.636
98779.416
98761.132
98744.807
98730.406
98718.496
98708.336
98703.217
98696.31
98706.045
98698.058
98746.073
98712.81
98855.217
98783.459
99028.856
99046.517
99130.295
99627.362
98884.831
101776.78
101765.3
101746.59
101727.56
101706.91
101687.94
101663.43
101639.04
101610.86
101581.6
101548.21
101512.89
101473.84
101432.24
101387.37
101339.65
101288.97
101235.48
101179.28
101120.45
101059.17
100995.56
100929.79
100862.03
100792.47
100721.3
100648.72
100574.94
100500.15
100424.59
100348.47
100272.01
100195.42
100118.94
100042.78
99967.153
99892.286
99818.389
99745.67
99674.334
99604.579
99536.599
99470.578
99406.697
99345.124
99286.02
99229.532
99175.793
99124.921
99077.016
99032.157
98990.399
98951.769
98916.262
98883.833
98854.394
98827.818
98803.938
98782.554
98763.453
98746.427
98731.313
98717.995
98706.469
98696.672
98689.041
98682.795
98680.888
98676.766
98688.57
98680.39
98726.696
98694.544
98832.034
98764.238
99003.262
99024.315
99101.133
99600.333
98838.349
101227.76
101209.12
101185.96
101160.33
101134.3
101111.2
101083.95
101058.96
101030
101002.47
100971.58
100940.95
100907.67
100873.61
100837.43
100799.73
100760.13
100718.73
100675.45
100630.28
100583.22
100534.3
100483.54
100431.02
100376.81
100321.01
100263.73
100205.1
100145.27
100084.39
100022.64
99960.192
99897.246
99833.999
99770.656
99707.427
99644.527
99582.17
99520.574
99459.953
99400.521
99342.486
99286.053
99231.42
99178.777
99128.301
99080.159
99034.502
98991.465
98951.163
98913.688
98879.111
98847.468
98818.763
98792.957
98769.97
98749.679
98731.919
98716.491
98703.18
98691.775
98682.11
98674.064
98667.602
98662.622
98659.42
98657.175
98658.386
98656.007
98669.034
98661.919
98707.034
98674.877
98809.047
98743.511
98977.375
99001.597
99069.536
99578.465
98786.962
100566.65
100550.33
100535.37
100517.37
100497.76
100482.21
100461.28
100444.34
100422.55
100403.67
100380.8
100359.41
100335.27
100311.29
100285.48
100258.77
100230.54
100200.98
100169.96
100137.42
100103.34
100067.71
100030.51
99991.76
99951.487
99909.735
99866.564
99822.053
99776.294
99729.398
99681.488
99632.707
99583.206
99533.154
99482.727
99432.114
99381.512
99331.124
99281.16
99231.83
99183.35
99135.933
99089.789
99045.125
99002.14
98961.024
98921.955
98885.094
98850.589
98818.566
98789.13
98762.358
98738.298
98716.958
98698.306
98682.268
98668.725
98657.515
98648.441
98641.284
98635.835
98631.921
98629.413
98628.241
98628.255
98629.607
98631.447
98635.78
98636.608
98649.723
98643.14
98687.022
98654.233
98786.12
98721.693
98951.014
98978.153
99037.59
99558.58
98732.414
99885.416
99876.917
99871.693
99865.027
99854.949
99849.904
99838.063
99831.67
99819.049
99810.561
99796.988
99785.879
99771.47
99757.805
99742.257
99726.174
99708.673
99690.079
99670.25
99649.163
99626.794
99603.113
99578.106
99551.763
99524.087
99495.093
99464.808
99433.275
99400.549
99366.703
99331.823
99296.015
99259.395
99222.099
99184.275
99146.084
99107.699
99069.305
99031.094
98993.266
98956.025
98919.578
98884.133
98849.894
98817.06
98785.823
98756.363
98728.846
98703.425
98680.232
98659.376
98640.939
98624.972
98611.487
98600.455
98591.806
98585.423
98581.148
98578.783
98578.112
98578.924
98581.039
98584.312
98588.631
98593.791
98599.789
98605.722
98613.149
98617.724
98630.137
98623.929
98666.496
98632.904
98763.032
98698.915
98924.933
98953.443
99004.279
99538.031
98677.329
99250.258
99248.576
99249.115
99250.702
99247.28
99250.362
99245.238
99247.312
99241.85
99242.06
99236.465
99234.768
99229.04
99224.106
99217.091
99210.033
99201.777
99192.742
99182.733
99171.731
99159.702
99146.606
99132.416
99117.111
99100.678
99083.113
99064.423
99044.628
99023.76
99001.864
98979.002
98955.249
98930.698
98905.453
98879.637
98853.386
98826.848
98800.185
98773.568
98747.178
98721.203
98695.834
98671.267
98647.694
98625.305
98604.285
98584.808
98567.038
98551.121
98537.189
98525.349
98515.681
98508.233
98503.015
98500
98499.117
98500.25
98503.242
98507.899
98514.004
98521.344
98529.73
98538.993
98548.974
98559.397
98570.096
98580.063
98590.44
98595.935
98610.242
98604.232
98645.456
98611.063
98739.641
98675.35
98899.059
98927.371
98967.432
99515.45
98623.501
98669.251
98672.78
98676.388
98683.809
98684.69
98693.87
98693.332