/*--------------------------------*- C++ -*----------------------------------*\
  =========                 |
  \\      /  F ield         | OpenFOAM: The Open Source CFD Toolbox
   \\    /   O peration     | Website:  https://openfoam.org
    \\  /    A nd           | Version:  12
     \\/     M anipulation  |
\*---------------------------------------------------------------------------*/
FoamFile
{
    format      ascii;
    class       volScalarField;
    location    "0.022";
    object      rho;
}
// * * * * * * * * * * * * * * * * * * * * * * * * * * * * * * * * * * * * * //

dimensions      [1 -3 0 0 0 0 0];

internalField   nonuniform List<scalar> 
16000
(
1.0637619
1.0992916
1.0865188
1.0953265
1.0912134
1.094892
1.0938356
1.0957887
1.0959498
1.0972335
1.0979245
1.0990007
1.0999311
1.1009873
1.1020421
1.1031515
1.1042945
1.105479
1.1067033
1.1079681
1.1092735
1.1106196
1.112006
1.1134324
1.1148982
1.1164026
1.1179444
1.1195221
1.1211341
1.1227783
1.1244524
1.1261536
1.1278791
1.1296254
1.1313889
1.1331658
1.1349517
1.1367424
1.1385331
1.140319
1.1420951
1.1438563
1.1455974
1.1473131
1.1489979
1.1506465
1.1522532
1.1538125
1.1553187
1.1567657
1.1581473
1.1594567
1.1606862
1.1618278
1.1628724
1.16381
1.1646297
1.1653189
1.1658637
1.1662486
1.1664576
1.1664745
1.1662847
1.1658759
1.1652388
1.1643672
1.1632545
1.1618875
1.1602397
1.1582796
1.1560139
1.153549
1.1511437
1.1492742
1.1483808
1.1487864
1.1497196
1.1544785
1.1556452
1.1559142
1.0603749
1.0962621
1.082829
1.0922215
1.0878753
1.0918217
1.0906621
1.0927854
1.0929405
1.0943272
1.0950713
1.0962235
1.0972299
1.0983619
1.0994995
1.100692
1.1019227
1.1031973
1.1045149
1.1058759
1.1072802
1.1087277
1.1102177
1.1117497
1.1133226
1.1149351
1.1165856
1.1182723
1.1199929
1.1217447
1.1235249
1.1253301
1.1271567
1.1290008
1.1308581
1.132724
1.1345939
1.1364626
1.138325
1.1401757
1.1420094
1.1438205
1.1456036
1.1473531
1.1490633
1.1507289
1.1523442
1.1539039
1.1554024
1.156834
1.1581926
1.1594719
1.1606648
1.1617635
1.1627598
1.1636445
1.1644074
1.1650374
1.1655223
1.165849
1.166004
1.1659747
1.1657495
1.1653187
1.1646751
1.1638124
1.1627219
1.161385
1.1597672
1.1578299
1.1555751
1.1531134
1.1507334
1.1489583
1.1481142
1.148451
1.1500278
1.1541707
1.1552768
1.1556595
1.0572645
1.0934438
1.0795768
1.0893122
1.0848158
1.0889598
1.0877709
1.0900115
1.0902068
1.0916766
1.0924954
1.0937246
1.0948181
1.0960344
1.0972644
1.0985506
1.0998794
1.1012552
1.1026772
1.1041453
1.1056592
1.1072182
1.1088216
1.1104682
1.1121564
1.1138846
1.1156505
1.1174518
1.1192856
1.1211486
1.1230373
1.1249477
1.1268754
1.1288158
1.1307639
1.1327147
1.1346625
1.1366019
1.1385272
1.1404324
1.142312
1.14416
1.1459707
1.1477386
1.1494579
1.1511233
1.1527294
1.1542711
1.1557432
1.1571403
1.158457
1.1596873
1.1608246
1.1618622
1.1627922
1.1636066
1.1642964
1.1648521
1.1652632
1.1655194
1.16561
1.1655252
1.1652562
1.1647956
1.1641369
1.1632728
1.1621913
1.1608675
1.1592599
1.1573262
1.1550724
1.1526238
1.1503089
1.1486787
1.1478911
1.1483832
1.1503248
1.1539849
1.1550473
1.1553984
1.0544089
1.0908299
1.076513
1.0866303
1.0819954
1.0863615
1.0851511
1.0875276
1.0877717
1.0893382
1.0902466
1.0915654
1.0927619
1.0940769
1.0954145
1.096809
1.0982503
1.0997411
1.1012805
1.1028681
1.1045033
1.106185
1.1079121
1.1096828
1.1114954
1.1133474
1.1152361
1.1171585
1.1191109
1.1210893
1.1230894
1.1251064
1.1271352
1.1291702
1.1312059
1.1332362
1.135255
1.1372562
1.1392336
1.1411811
1.1430925
1.1449619
1.1467835
1.1485518
1.1502613
1.151907
1.1534838
1.1549872
1.1564125
1.1577551
1.15901
1.160172
1.1612355
1.1621944
1.163042
1.1637714
1.1643752
1.1648456
1.1651744
1.1653535
1.165375
1.1652317
1.1649166
1.1644234
1.1637452
1.1628728
1.1617896
1.1604649
1.1588518
1.1569078
1.154648
1.1522209
1.1499865
1.148479
1.1478134
1.1484531
1.1506584
1.153956
1.1549722
1.1552383
1.051873
1.0885682
1.0738285
1.0842241
1.079489
1.0841072
1.0828974
1.0854144
1.0857303
1.0874019
1.0884213
1.0898421
1.0911578
1.0925851
1.094043
1.0955581
1.0971231
1.0987394
1.1004065
1.1021235
1.1038897
1.1057036
1.1075635
1.1094673
1.1114125
1.1133959
1.1154142
1.1174632
1.1195385
1.1216351
1.1237478
1.1258707
1.1279978
1.1301226
1.1322387
1.1343394
1.1364179
1.1384676
1.1404819
1.1424543
1.1443789
1.1462495
1.1480607
1.1498072
1.1514841
1.1530868
1.1546111
1.156053
1.1574088
1.1586745
1.1598462
1.1609195
1.1618897
1.1627517
1.1635002
1.1641297
1.1646343
1.165008
1.165245
1.1653392
1.1652851
1.1650772
1.1647099
1.1641766
1.1634692
1.1625755
1.1614744
1.1601297
1.1584918
1.1565228
1.1542535
1.1518617
1.1497297
1.1483398
1.1478829
1.1487354
1.1511394
1.1540968
1.1551337
1.1553154
1.0497489
1.0867171
1.0716066
1.0822942
1.0774251
1.0823074
1.0811058
1.0837722
1.0841848
1.085969
1.0871158
1.0886448
1.0900882
1.0916351
1.0932205
1.0948643
1.0965616
1.0983132
1.1001183
1.1019759
1.1038845
1.105842
1.1078461
1.1098938
1.1119815
1.1141052
1.1162603
1.1184417
1.1206437
1.1228602
1.1250847
1.1273104
1.12953
1.1317363
1.1339219
1.1360795
1.1382017
1.1402815
1.1423123
1.1442877
1.1462017
1.1480487
1.1498237
1.1515221
1.1531398
1.1546731
1.1561188
1.1574739
1.1587355
1.159901
1.1609673
1.161931
1.1627886
1.1635363
1.16417
1.1646857
1.1650793
1.1653465
1.1654833
1.1654859
1.1653501
1.1650717
1.1646452
1.1640632
1.1633153
1.1623858
1.1612489
1.159865
1.1581849
1.1561801
1.1539024
1.1515587
1.1495428
1.1483127
1.1481022
1.1492425
1.1518252
1.1544318
1.1555269
1.1557472
1.0480837
1.0853377
1.0698905
1.0809007
1.0759297
1.081025
1.0798364
1.0826781
1.0831976
1.0850801
1.0863574
1.0879943
1.0895717
1.0912479
1.0929727
1.0947595
1.0966048
1.0985084
1.1004686
1.1024838
1.1045513
1.1066684
1.1088313
1.1110361
1.1132778
1.1155513
1.1178504
1.1201687
1.1224992
1.1248344
1.1271665
1.1294874
1.131789
1.1340629
1.1363012
1.138496
1.1406396
1.1427252
1.144746
1.1466962
1.1485703
1.1503636
1.152072
1.1536919
1.1552203
1.156655
1.1579937
1.1592349
1.1603769
1.1614182
1.1623568
1.1631906
1.1639172
1.1645341
1.1650386
1.1654282
1.1657002
1.1658521
1.1658815
1.1657858
1.1655622
1.1652066
1.1647127
1.1640715
1.16327
1.1622887
1.1610982
1.159657
1.1579203
1.1558736
1.1535932
1.1513152
1.1494443
1.1484081
1.1484697
1.1499619
1.1527234
1.1549958
1.156131
1.1566016
1.0467949
1.0843551
1.0686049
1.0799953
1.0749459
1.080249
1.0791278
1.0821406
1.0826835
1.0846659
1.0861034
1.0878731
1.0896116
1.0914446
1.0933351
1.0952913
1.09731
1.0993898
1.1015284
1.1037228
1.1059695
1.1082642
1.1106022
1.1129777
1.1153845
1.1178157
1.1202635
1.1227201
1.1251766
1.1276243
1.1300539
1.1324563
1.1348222
1.1371427
1.1394093
1.141614
1.1437494
1.1458087
1.1477862
1.1496766
1.1514757
1.1531801
1.1547869
1.1562943
1.1577007
1.1590053
1.1602075
1.1613072
1.162304
1.1631976
1.1639873
1.1646723
1.1652512
1.1657228
1.1660857
1.1663387
1.1664805
1.16651
1.1664257
1.166226
1.1659085
1.1654684
1.1648982
1.1641868
1.1633182
1.1622698
1.1610097
1.159497
1.1576951
1.155607
1.1533357
1.1511462
1.1494542
1.1486378
1.1490025
1.1508477
1.1537535
1.1558294
1.1570057
1.1578447
1.0458398
1.0837133
1.0676854
1.0795516
1.0743197
1.0799601
1.0787504
1.0817481
1.0826414
1.0847801
1.0864188
1.0883552
1.0902866
1.0923084
1.0943943
1.0965486
1.098768
1.10105
1.1033913
1.1057875
1.1082336
1.1107238
1.1132516
1.1158095
1.1183892
1.120982
1.1235783
1.1261682
1.1287415
1.1312877
1.1337963
1.1362573
1.1386606
1.1409972
1.1432584
1.1454366
1.1475251
1.1495182
1.1514113
1.1532009
1.1548844
1.15646
1.1579271
1.1592854
1.1605354
1.161678
1.1627144
1.1636457
1.1644732
1.1651977
1.1658196
1.1663392
1.1667564
1.1670708
1.1672824
1.1673909
1.167396
1.1672974
1.1670944
1.1667857
1.1663682
1.1658364
1.1651809
1.1643881
1.1634396
1.1623107
1.1609688
1.1593766
1.1575083
1.155387
1.1531429
1.1510672
1.1495673
1.1490051
1.1497079
1.1518928
1.1548706
1.1568566
1.1581557
1.1594461
1.0452902
1.083476
1.0671924
1.079522
1.0740877
1.0797891
1.0789185
1.082152
1.0832515
1.0855477
1.0874191
1.0895514
1.091704
1.0939446
1.0962551
1.0986362
1.101084
1.1035946
1.1061628
1.1087826
1.1114471
1.1141482
1.1168773
1.1196245
1.1223793
1.1251306
1.1278669
1.1305763
1.1332468
1.1358666
1.1384244
1.1409094
1.1433116
1.145622
1.147833
1.1499378
1.1519315
1.15381
1.155571
1.157213
1.1587358
1.1601401
1.1614274
1.1625998
1.1636596
1.1646097
1.1654529
1.1661918
1.1668289
1.1673661
1.1678048
1.1681462
1.168391
1.16854
1.1685935
1.1685523
1.1684165
1.1681862
1.1678609
1.1674389
1.1669162
1.1662857
1.1655362
1.164652
1.1636129
1.1623935
1.1609628
1.1592899
1.1573623
1.1552239
1.1530302
1.1510915
1.1498115
1.1495189
1.15057
1.1530831
1.1560984
1.1579642
1.159548
1.1612788
1.0452415
1.0837453
1.0672079
1.079692
1.0744388
1.0804981
1.0798043
1.0832414
1.0845781
1.0870584
1.0891965
1.0915596
1.0939654
1.0964586
1.0990258
1.1016649
1.1043706
1.1071367
1.1099559
1.1128197
1.1157186
1.1186418
1.1215775
1.1245134
1.1274362
1.1303324
1.1331881
1.1359898
1.1387241
1.1413783
1.1439407
1.1464006
1.1487489
1.1509779
1.1530816
1.1550557
1.1568977
1.1586063
1.1601819
1.1616262
1.1629418
1.164132
1.1652007
1.1661523
1.1669913
1.1677222
1.1683491
1.168876
1.1693063
1.1696427
1.1698875
1.1700423
1.1701086
1.1700874
1.1699799
1.1697867
1.1695084
1.1691448
1.1686951
1.1681567
1.1675244
1.1667893
1.1659383
1.1649545
1.163817
1.1625013
1.1609809
1.1592332
1.1572607
1.1551274
1.1530089
1.1512279
1.1501868
1.1501792
1.1515658
1.1543813
1.1574746
1.1593268
1.1612356
1.1632117
1.0457654
1.0845734
1.0678166
1.0806092
1.0755223
1.0818313
1.0814191
1.0850323
1.0867111
1.0894068
1.0918493
1.0944848
1.097181
1.0999648
1.1028249
1.1057561
1.1087507
1.1117996
1.1148923
1.1180169
1.1211603
1.1243084
1.127446
1.1305576
1.1336272
1.1366386
1.1395763
1.1424253
1.1451714
1.1478021
1.1503065
1.1526753
1.1549016
1.1569803
1.1589088
1.1606861
1.1623132
1.1637926
1.1651283
1.1663252
1.1673889
1.1683255
1.1691414
1.169843
1.1704363
1.1709272
1.1713211
1.1716227
1.1718359
1.171964
1.1720095
1.1719744
1.1718604
1.1716687
1.1714006
1.1710564
1.1706365
1.1701402
1.1695657
1.1689093
1.1681643
1.16732
1.1663624
1.1652735
1.1640334
1.1626207
1.161015
1.1592044
1.1572066
1.1551035
1.1530849
1.1514763
1.1506734
1.150961
1.1526633
1.1557279
1.1588932
1.1608362
1.1631233
1.1651762
1.0468669
1.0859751
1.0690288
1.0822737
1.0773469
1.0839121
1.0838542
1.0876721
1.0897423
1.0926985
1.0954887
1.0984456
1.1014769
1.1045953
1.107789
1.1110491
1.1143638
1.11772
1.121103
1.1244964
1.127883
1.1312446
1.1345624
1.1378177
1.1409917
1.1440665
1.1470252
1.1498527
1.1525358
1.1550635
1.1574276
1.1596222
1.1616443
1.1634934
1.1651712
1.1666814
1.1680294
1.1692219
1.1702665
1.1711715
1.1719454
1.1725966
1.1731335
1.1735638
1.1738949
1.1741334
1.1742853
1.1743555
1.1743482
1.1742667
1.1741134
1.1738904
1.1735991
1.1732407
1.1728158
1.1723247
1.1717666
1.1711402
1.1704424
1.1696681
1.1688091
1.1678534
1.1667863
1.1655905
1.1642478
1.1627417
1.1610597
1.1592018
1.1572001
1.1551522
1.1532588
1.1518381
1.151254
1.1518133
1.1538068
1.1570772
1.1603291
1.1624466
1.1649535
1.1670584
1.0485946
1.0879965
1.0709048
1.0846189
1.0799955
1.0868131
1.0872076
1.0912556
1.0937867
1.0970632
1.1002536
1.1035908
1.10701
1.1105123
1.1140824
1.1177063
1.1213667
1.1250453
1.128722
1.1323755
1.1359838
1.1395243
1.1429747
1.1463134
1.1495199
1.1525758
1.1554651
1.1581746
1.1606944
1.163018
1.1651421
1.1670666
1.1687941
1.1703301
1.1716816
1.1728577
1.1738683
1.1747241
1.175436
1.1760152
1.1764722
1.1768172
1.1770595
1.1772079
1.17727
1.1772529
1.1771623
1.177003
1.1767788
1.1764927
1.1761468
1.1757426
1.1752814
1.1747637
1.1741893
1.1735577
1.1728673
1.1721154
1.1712978
1.1704077
1.1694356
1.1683689
1.1671929
1.1658917
1.1644506
1.1628587
1.1611124
1.1592235
1.1572373
1.1552652
1.1535151
1.1522858
1.1518988
1.1526973
1.1549463
1.1583738
1.1617098
1.1640193
1.1666171
1.16873
1.0510104
1.0906957
1.0735653
1.0877934
1.0835486
1.0906454
1.0916035
1.0959292
1.0989972
1.1026738
1.1063296
1.1101142
1.1139786
1.1179128
1.1218962
1.1259079
1.1299244
1.1339207
1.1378707
1.1417474
1.1455237
1.149173
1.1526704
1.1559933
1.159122
1.1620408
1.1647377
1.1672054
1.1694405
1.1714437
1.1732192
1.1747743
1.1761188
1.1772642
1.1782235
1.1790104
1.1796387
1.1801223
1.1804747
1.1807085
1.1808355
1.1808665
1.1808112
1.1806782
1.1804751
1.1802083
1.1798829
1.1795032
1.1790722
1.1785923
1.1780648
1.1774908
1.1768707
1.176204
1.1754899
1.1747267
1.1739118
1.1730411
1.1721089
1.1711073
1.1700258
1.1688515
1.1675707
1.1661698
1.1646383
1.1629715
1.1611745
1.1592696
1.1573139
1.1554294
1.153826
1.152781
1.152579
1.1535813
1.1560316
1.1595656
1.1629566
1.1654358
1.1681392
1.1700968
1.0541717
1.0940957
1.0771435
1.0918656
1.0881521
1.0955561
1.0972191
1.1019026
1.1055959
1.1097664
1.1139584
1.1182556
1.1226153
1.1270174
1.1314337
1.1358351
1.1401901
1.144466
1.1486293
1.1526475
1.1564893
1.1601268
1.1635358
1.1666969
1.1695962
1.1722253
1.1745811
1.1766657
1.1784855
1.1800506
1.1813742
1.1824714
1.1833587
1.1840536
1.1845734
1.1849355
1.1851562
1.1852512
1.1852348
1.1851202
1.1849191
1.184642
1.1842981
1.1838952
1.1834399
1.1829376
1.1823925
1.1818077
1.1811855
1.180527
1.179833
1.1791036
1.1783382
1.1775355
1.1766935
1.1758094
1.1748795
1.1738983
1.1728591
1.1717528
1.1705683
1.1692935
1.167916
1.1664252
1.1648151
1.1630873
1.1612544
1.1593475
1.1574332
1.1556394
1.1541741
1.1533054
1.153274
1.154442
1.1570346
1.1606181
1.1640247
1.1666395
1.1694399
1.1711601
1.0581626
1.0982088
1.0817654
1.0970104
1.0940271
1.1018074
1.1043305
1.1094693
1.1138719
1.1186276
1.1234189
1.128281
1.1331695
1.1380523
1.1428908
1.1476447
1.1522725
1.1567328
1.1609865
1.1649983
1.168738
1.172182
1.1753138
1.1781241
1.1806109
1.1827784
1.1846363
1.1861987
1.1874834
1.1885101
1.1893002
1.1898755
1.1902578
1.1904683
1.190527
1.1904527
1.1902628
1.1899727
1.1895965
1.1891465
1.1886334
1.1880664
1.1874534
1.186801
1.1861142
1.1853973
1.184653
1.1838832
1.1830889
1.1822705
1.1814277
1.1805595
1.1796644
1.1787401
1.1777834
1.1767906
1.1757567
1.1746753
1.1735386
1.1723369
1.1710595
1.1696951
1.1682333
1.1666668
1.1649942
1.1632225
1.1613708
1.1594773
1.1576145
1.1559117
1.1545744
1.1538693
1.1539958
1.1552916
1.1579624
1.1615275
1.1649068
1.1676162
1.1704983
1.1720158
1.0631947
1.1032456
1.0877059
1.1035657
1.1015143
1.1097332
1.1132655
1.1189598
1.1241446
1.1295694
1.1350138
1.140474
1.1458948
1.1512275
1.1564186
1.1614154
1.1661674
1.1706294
1.1747635
1.1785407
1.1819416
1.1849565
1.1875852
1.1898354
1.1917217
1.193264
1.1944862
1.1954143
1.1960758
1.1964983
1.1967087
1.1967329
1.1965951
1.1963177
1.1959211
1.1954235
1.1948411
1.1941882
1.193477
1.192718
1.1919202
1.191091
1.1902364
1.1893614
1.1884693
1.1875628
1.1866433
1.1857113
1.1847667
1.1838088
1.1828363
1.1818472
1.180839
1.1798083
1.1787512
1.1776628
1.1765373
1.1753676
1.1741453
1.1728608
1.171504
1.170065
1.1685359
1.1669126
1.1651978
1.163403
1.1615532
1.1596924
1.1578967
1.1562928
1.1550811
1.1545227
1.1547959
1.1561864
1.1588581
1.1623198
1.1656283
1.1684103
1.1713418
1.1727976
1.0695364
1.1098896
1.0953424
1.111858
1.1109592
1.1196639
1.1243647
1.1307423
1.136786
1.1429565
1.1490839
1.1551268
1.1610107
1.1666674
1.1720306
1.1770416
1.1816521
1.1858263
1.1895415
1.1927887
1.1955708
1.1979012
1.1998018
1.2013007
1.2024299
1.2032241
1.2037185
1.2039478
1.2039455
1.203743
1.2033691
1.2028504
1.2022106
1.2014706
1.2006489
1.1997616
1.1988225
1.1978431
1.1968334
1.1958015
1.1947539
1.1936961
1.1926322
1.1915651
1.1904967
1.1894278
1.1883586
1.1872883
1.1862158
1.1851394
1.1840567
1.1829648
1.1818603
1.180739
1.1795961
1.1784262
1.1772228
1.1759786
1.1746851
1.1733332
1.1719142
1.1704198
1.1688446
1.1671876
1.1654546
1.163661
1.1618371
1.1600333
1.1583269
1.1568398
1.1557665
1.1553494
1.1557472
1.1571918
1.1597791
1.1630403
1.1662174
1.1690977
1.1721024
1.1736224
1.0773567
1.1184327
1.1048695
1.1221436
1.1227597
1.1320459
1.1380945
1.1453152
1.1522772
1.1592117
1.1659588
1.1724405
1.1785653
1.1842562
1.1894505
1.1941039
1.1981908
1.2017038
1.2046517
1.2070569
1.2089518
1.2103759
1.2113732
1.211989
1.2122688
1.2122564
1.211993
1.2115164
1.2108612
1.2100581
1.2091344
1.2081139
1.2070173
1.2058623
1.204664
1.2034351
1.202186
1.2009255
1.1996604
1.1983964
1.1971377
1.1958876
1.1946482
1.1934207
1.1922053
1.1910015
1.1898079
1.188623
1.1874446
1.18627
1.185096
1.183919
1.1827347
1.1815383
1.1803247
1.179088
1.1778216
1.1765183
1.1751702
1.1737694
1.1723083
1.1707811
1.1691842
1.167519
1.1657937
1.1640269
1.1622539
1.1605315
1.158938
1.1575889
1.1566749
1.1564096
1.1568984
1.1583284
1.1607396
1.1637146
1.1667051
1.1696486
1.1727995
1.1743647
1.0868366
1.1289188
1.1169576
1.1349982
1.1375964
1.1476067
1.1551328
1.1632985
1.1711174
1.1786534
1.1857433
1.1922912
1.1982134
1.203455
1.2079874
1.2118079
1.2149352
1.2174053
1.2192665
1.2205746
1.2213894
1.2217711
1.221778
1.2214652
1.2208832
1.2200776
1.219089
1.2179529
1.2167002
1.2153575
1.2139475
1.2124893
1.2109992
1.2094905
1.207974
1.2064588
1.2049518
1.2034586
1.2019834
1.2005292
1.1990983
1.1976917
1.1963099
1.1949524
1.193618
1.192305
1.1910112
1.1897338
1.1884699
1.1872161
1.1859686
1.184723
1.1834747
1.1822186
1.1809492
1.1796609
1.1783472
1.1770015
1.1756171
1.1741874
1.1727064
1.1711697
1.1695758
1.1679271
1.1662336
1.1645164
1.1628153
1.161193
1.1597289
1.158531
1.157783
1.1576646
1.1582099
1.1595316
1.1616494
1.1642457
1.1669969
1.1699296
1.1730987
1.1747666
1.0987883
1.1422689
1.1325513
1.1514172
1.156464
1.1672766
1.1761981
1.1851691
1.1934955
1.2011497
1.2079987
1.213977
1.2190539
1.2232358
1.2265579
1.2290776
1.2308664
1.2320037
1.2325711
1.2326484
1.2323105
1.2316264
1.2306578
1.2294591
1.2280775
1.2265536
1.2249219
1.2232114
1.2214466
1.2196477
1.2178315
1.2160116
1.214199
1.2124025
1.210629
1.2088837
1.2071705
1.2054919
1.2038499
1.2022453
1.2006783
1.1991484
1.1976546
1.1961949
1.1947671
1.1933683
1.1919957
1.1906457
1.1893149
1.1879991
1.1866941
1.1853952
1.1840976
1.1827961
1.1814856
1.1801606
1.1788154
1.1774445
1.1760422
1.1746034
1.1731233
1.1715985
1.1700277
1.1684142
1.1667687
1.165115
1.1634966
1.1619807
1.1606505
1.1596031
1.1589881
1.1589527
1.1594979
1.1606118
1.1623091
1.1644077
1.166816
1.1695595
1.1725759
1.174288
1.1148855
1.1596306
1.1529776
1.1725049
1.1803541
1.1918337
1.2016267
1.2107892
1.2188469
1.2257753
1.2315361
1.2361542
1.2396915
1.2422389
1.2439031
1.2447973
1.2450335
1.2447176
1.2439461
1.2428051
1.2413694
1.2397031
1.2378607
1.2358875
1.2338214
1.2316936
1.2295296
1.2273501
1.2251719
1.2230083
1.22087
1.2187653
1.2167004
1.21468
1.2127073
1.2107843
1.2089122
1.2070913
1.2053214
1.2036016
1.2019307
1.2003068
1.1987274
1.1971897
1.1956906
1.1942264
1.1927937
1.1913884
1.1900065
1.1886437
1.1872954
1.1859567
1.184623
1.1832894
1.1819512
1.1806034
1.1792415
1.1778609
1.1764571
1.175026
1.173563
1.1720644
1.170528
1.1689562
1.1673606
1.1657679
1.1642251
1.1628018
1.161584
1.1606607
1.1601135
1.1600242
1.160413
1.1611928
1.1623278
1.1638511
1.1658207
1.1681377
1.1706608
1.1722877
1.1365377
1.1823323
1.1796943
1.1992785
1.2096084
1.221181
1.2307553
1.2389549
1.2456038
1.2507703
1.2545543
1.2571004
1.2585689
1.2591232
1.2589186
1.2580964
1.2567808
1.2550786
1.2530799
1.2508594
1.2484785
1.2459873
1.2434261
1.2408272
1.2382166
1.2356144
1.2330369
1.2304963
1.2280023
1.225562
1.2231807
1.220862
1.2186083
1.2164207
1.2142996
1.2122445
1.2102545
1.2083281
1.2064635
1.2046586
1.2029108
1.2012173
1.1995746
1.1979792
1.1964273
1.1949148
1.1934376
1.1919916
1.1905722
1.189175
1.1877954
1.1864286
1.1850701
1.1837155
1.1823608
1.1810019
1.1796353
1.1782573
1.1768641
1.1754515
1.1740139
1.1725456
1.1710417
1.1695027
1.1679404
1.1663845
1.1648859
1.163514
1.1623466
1.1614512
1.1608602
1.1605658
1.1605402
1.1607591
1.1613588
1.1621674
1.1636029
1.1652287
1.1669896
1.1683684
1.1665603
1.2111785
1.2137761
1.2326337
1.2432978
1.2535646
1.261453
1.2673744
1.2714635
1.2739698
1.2751408
1.2752195
1.2744245
1.272946
1.270944
1.2685504
1.2658721
1.2629946
1.2599855
1.2568981
1.253774
1.2506454
1.2475369
1.2444675
1.2414514
1.2384993
1.2356187
1.2328151
1.2300922
1.2274521
1.2248958
1.2224234
1.2200343
1.2177269
1.2154996
1.2133499
1.2112755
1.2092735
1.2073412
1.2054753
1.2036725
1.201929
1.200241
1.1986043
1.1970145
1.1954675
1.1939586
1.1924836
1.1910379
1.1896167
1.1882154
1.1868297
1.1854552
1.1840883
1.1827257
1.1813643
1.1800011
1.1786331
1.1772563
1.1758651
1.1744514
1.1730051
1.1715174
1.1699857
1.1684216
1.1668572
1.1653448
1.1639493
1.1627306
1.161724
1.1609223
1.1602758
1.159723
1.1592656
1.1590736
1.1592717
1.1599083
1.1607666
1.1616414
1.1626323
1.2074603
1.2480179
1.2539215
1.2698443
1.279309
1.2864444
1.2909354
1.2933519
1.294071
1.2934752
1.2918775
1.2895373
1.2866602
1.2834077
1.2799039
1.2762439
1.2724994
1.2687246
1.2649596
1.2612345
1.257571
1.2539849
1.2504872
1.2470855
1.2437848
1.240588
1.2374963
1.2345099
1.2316281
1.2288494
1.2261717
1.2235926
1.2211092
1.2187184
1.2164168
1.214201
1.2120673
1.2100122
1.208032
1.206123
1.2042812
1.2025023
1.200782
1.1991158
1.1974993
1.1959277
1.1943967
1.1929015
1.1914373
1.1899995
1.1885835
1.1871851
1.1858007
1.1844272
1.183062
1.1817025
1.1803461
1.1789896
1.1776279
1.1762526
1.1748513
1.1734083
1.1719091
1.1703479
1.1687354
1.1671047
1.1655067
1.1639957
1.1626082
1.1613431
1.1601561
1.1589786
1.1577711
1.1565962
1.1556428
1.1551233
1.1550488
1.1551631
1.1552891
1.1558582
1.2573286
1.2910327
1.2983755
1.3084879
1.3134991
1.3158301
1.3158869
1.3143465
1.3116609
1.3081909
1.3042001
1.2998827
1.2953789
1.2907899
1.2861873
1.2816222
1.2771299
1.2727349
1.2684536
1.2642966
1.2602702
1.2563776
1.2526199
1.2489967
1.2455061
1.2421458
1.2389126
1.2358033
1.2328141
1.2299412
1.2271804
1.2245277
1.2219788
1.2195294
1.2171753
1.2149121
1.2127356
1.2106418
1.2086264
1.2066854
1.2048143
1.2030087
1.2012639
1.1995752
1.1979382
1.196348
1.1948
1.1932893
1.1918109
1.1903604
1.1889337
1.1875272
1.1861371
1.1847601
1.1833936
1.1820357
1.180684
1.1793346
1.1779803
1.176609
1.1752027
1.1737392
1.1721979
1.170569
1.1688625
1.1671107
1.1653592
1.1636478
1.1619874
1.1603472
1.1586648
1.1568817
1.155001
1.153141
1.1515293
1.1503809
1.1497037
1.1492562
1.1489017
1.1491252
1.3138244
1.3350891
1.3396784
1.3420147
1.3410601
1.3381747
1.3339955
1.3290323
1.3236192
1.3179827
1.3122727
1.3065881
1.3009931
1.2955286
1.2902198
1.2850814
1.280121
1.2753413
1.2707419
1.2663201
1.2620719
1.2579924
1.2540762
1.2503176
1.2467109
1.2432502
1.2399298
1.2367441
1.2336878
1.2307554
1.2279417
1.2252417
1.2226501
1.2201622
1.217773
1.2154778
1.2132722
1.2111516
1.2091117
1.207148
1.205256
1.203431
1.2016683
1.1999632
1.1983109
1.1967066
1.1951454
1.1936222
1.1921327
1.1906734
1.189241
1.187831
1.1864381
1.1850579
1.183689
1.1823307
1.1809804
1.1796319
1.1782763
1.1768983
1.1754735
1.1739735
1.1723716
1.1706541
1.1688288
1.1669259
1.1649846
1.1630289
1.1610478
1.1589924
1.1568015
1.1544475
1.1519851
1.1495761
1.1474585
1.1458379
1.1447372
1.1439688
1.1434044
1.1433774
1.3689713
1.3721238
1.3706424
1.3658499
1.3596313
1.3526447
1.3453678
1.3380515
1.330847
1.3238363
1.3170636
1.3105498
1.304302
1.2983191
1.2925953
1.287122
1.2818892
1.2768864
1.2721029
1.2675283
1.2631524
1.2589655
1.2549583
1.2511222
1.2474489
1.2439308
1.2405605
1.2373312
1.2342364
1.23127
1.2284259
1.2256985
1.2230824
1.220572
1.2181624
1.2158485
1.2136257
1.2114893
1.2094347
1.2074574
1.2055528
1.2037162
1.2019428
1.2002278
1.1985664
1.1969538
1.1953851
1.1938558
1.1923616
1.190898
1.1894609
1.1880431
1.1866398
1.1852504
1.1838779
1.1825205
1.1811727
1.1798246
1.1784663
1.1770818
1.1756413
1.1741106
1.1724573
1.1706631
1.1687333
1.1666963
1.1645839
1.1624094
1.1601448
1.1577338
1.155128
1.1523343
1.1494507
1.1466649
1.14421
1.1422717
1.1409122
1.1400168
1.1394192
1.139221
1.4043347
1.3962937
1.3881667
1.3794156
1.3703241
1.3613386
1.3526241
1.3442571
1.336266
1.3286534
1.3214102
1.3145207
1.3079669
1.3017299
1.2957912
1.2901329
1.2847383
1.2795917
1.2746789
1.2699863
1.2655016
1.2612135
1.2571114
1.2531856
1.2494271
1.2458276
1.2423793
1.2390751
1.2359081
1.2328719
1.2299605
1.227168
1.2244888
1.2219175
1.2194489
1.217078
1.2148001
1.2126107
1.2105051
1.208479
1.2065277
1.2046466
1.2028312
1.2010765
1.1993778
1.1977306
1.1961303
1.1945721
1.19305
1.1915568
1.1900888
1.1886416
1.1872179
1.1858146
1.1844244
1.1830433
1.1816717
1.1803092
1.1789433
1.1775491
1.1760956
1.1745426
1.1728525
1.1710035
1.1689992
1.1668662
1.1646337
1.1623066
1.1598504
1.1572059
1.1543333
1.1512608
1.148108
1.1450819
1.142423
1.1403273
1.1388168
1.1378624
1.137299
1.1370149
1.1533995
1.1577882
1.172638
1.1853093
1.1910502
1.1922588
1.1922701
1.1919104
1.1919624
1.1916412
1.1913048
1.1908
1.1902169
1.1895768
1.188894
1.1881743
1.1874223
1.1866433
1.1858418
1.1850217
1.1841866
1.1833397
1.1824839
1.1816218
1.1807558
1.179888
1.1790206
1.1781553
1.177294
1.1764384
1.1755902
1.174751
1.1739224
1.173106
1.1723034
1.1715164
1.1707465
1.1699957
1.1692657
1.1685585
1.1678761
1.1672206
1.1665942
1.1659993
1.1654382
1.1649136
1.1644286
1.1639863
1.1635901
1.163243
1.1629482
1.1627108
1.1625381
1.1624388
1.162421
1.1624915
1.1626587
1.1629343
1.1633326
1.1638678
1.1645539
1.1654037
1.1664258
1.1676195
1.1689639
1.1704135
1.1718687
1.1732294
1.1742661
1.1749842
1.1747774
1.1744629
1.1722895
1.1706956
1.165842
1.1636236
1.1593395
1.1583393
1.161894
1.1588927
1.1481962
1.1584478
1.1760841
1.1852921
1.1877273
1.187548
1.1870301
1.1868355
1.1865822
1.1863406
1.1860168
1.1856661
1.1852697
1.1848371
1.184365
1.1838593
1.1833217
1.1827548
1.1821613
1.1815434
1.1809038
1.1802447
1.1795684
1.1788772
1.1781735
1.1774593
1.176737
1.1760088
1.1752767
1.1745429
1.1738096
1.1730789
1.1723528
1.1716335
1.1709232
1.1702239
1.169538
1.1688676
1.168215
1.1675828
1.1669732
1.1663889
1.1658325
1.1653067
1.1648143
1.1643585
1.1639424
1.1635699
1.1632445
1.1629695
1.1627486
1.1625872
1.1624928
1.1624744
1.1625401
1.1626968
1.1629526
1.1633183
1.1638068
1.1644303
1.1651996
1.1661232
1.1672035
1.1684314
1.1697759
1.17118
1.1725372
1.173744
1.1745825
1.1750681
1.1746342
1.1740542
1.1716856
1.1698654
1.1650328
1.1628191
1.1587899
1.1579916
1.1616836
1.1587672
1.146916
1.1611715
1.1749792
1.1817787
1.1828926
1.1825364
1.182157
1.1819948
1.1818016
1.1816048
1.1813547
1.1810913
1.1807904
1.1804697
1.1801187
1.1797436
1.1793431
1.1789188
1.1784716
1.1780026
1.177513
1.1770042
1.1764775
1.1759343
1.1753762
1.1748049
1.1742219
1.1736292
1.1730286
1.172422
1.1718114
1.171199
1.1705868
1.1699772
1.1693723
1.1687746
1.1681865
1.1676106
1.1670494
1.1665057
1.1659822
1.1654819
1.1650077
1.1645628
1.1641502
1.1637735
1.1634363
1.1631425
1.1628962
1.1627011
1.1625612
1.162482
1.1624713
1.1625378
1.1626898
1.1629341
1.1632781
1.1637316
1.1643058
1.1650105
1.1658532
1.1668375
1.1679596
1.1692025
1.1705262
1.1718647
1.1731075
1.1741517
1.174798
1.1750429
1.1744229
1.17358
1.171026
1.169035
1.1642302
1.1620445
1.1582731
1.1576283
1.1615263
1.1585764
1.1452286
1.1614916
1.1734121
1.1785878
1.1786385
1.1783095
1.177966
1.1778352
1.1776036
1.1774183
1.1771756
1.1769475
1.176689
1.1764273
1.1761441
1.175849
1.1755373
1.1752109
1.174869
1.1745116
1.174139
1.1737513
1.1733489
1.1729322
1.1725019
1.1720589
1.1716041
1.1711387
1.1706641
1.1701817
1.1696932
1.1692004
1.1687051
1.1682096
1.1677159
1.1672265
1.1667438
1.1662704
1.1658091
1.1653628
1.1649343
1.1645269
1.1641439
1.1637884
1.1634641
1.1631746
1.162924
1.1627164
1.162556
1.162447
1.1623937
1.1624018
1.162479
1.1626338
1.162874
1.1632063
1.1636374
1.1641761
1.1648313
1.1656103
1.1665167
1.1675496
1.1686989
1.1699399
1.1712247
1.1724802
1.1735949
1.1744686
1.174914
1.1749008
1.1741228
1.173044
1.1703164
1.1681946
1.1634205
1.161282
1.1577754
1.1572591
1.1614339
1.1583462
1.1409286
1.1594494
1.1703092
1.1740773
1.1736612
1.1736021
1.1733314
1.1733088
1.1731321
1.1730397
1.1728688
1.1727288
1.1725517
1.1723803
1.1721879
1.1719885
1.1717747
1.1715495
1.1713117
1.1710613
1.1707981
1.1705222
1.1702337
1.1699327
1.1696196
1.1692948
1.1689589
1.1686128
1.1682573
1.1678936
1.167523
1.167147
1.1667672
1.1663856
1.1660041
1.1656249
1.1652504
1.1648833
1.1645261
1.164182
1.1638538
1.1635449
1.1632587
1.1629987
1.1627685
1.1625721
1.1624136
1.1622974
1.1622279
1.1622095
1.1622468
1.1623457
1.1625132
1.1627577
1.1630864
1.1635055
1.1640211
1.1646403
1.16537
1.1662145
1.1671738
1.1682419
1.169403
1.1706254
1.1718543
1.1730121
1.173989
1.1746898
1.1749415
1.1747228
1.1737411
1.1724515
1.1695701
1.1673503
1.1626132
1.1605312
1.1572981
1.1569011
1.1613747
1.1580882
1.1355276
1.1570316
1.1663507
1.1693964
1.1688299
1.1690324
1.1688066
1.1689104
1.1687954
1.1688056
1.1687096
1.1686621
1.168568
1.1684861
1.1683813
1.1682728
1.1681501
1.1680178
1.1678747
1.1677209
1.1675564
1.1673812
1.1671954
1.166999
1.1667922
1.1665751
1.1663483
1.1661121
1.1658673
1.1656148
1.1653556
1.1650908
1.164822
1.1645506
1.1642787
1.1640082
1.1637413
1.1634805
1.1632285
1.1629881
1.1627625
1.1625548
1.1623686
1.1622073
1.1620749
1.1619751
1.1619123
1.161891
1.1619156
1.1619907
1.1621211
1.1623123
1.1625713
1.1629055
1.1633215
1.1638248
1.1644207
1.1651148
1.1659114
1.166812
1.1678126
1.1689026
1.1700608
1.1712493
1.1724076
1.1734562
1.174289
1.1748177
1.1748641
1.1744715
1.1732882
1.171808
1.1687963
1.1665035
1.16181
1.1597977
1.1568407
1.156546
1.161326
1.1578238
1.1305084
1.1547572
1.1623633
1.1650665
1.1643997
1.164815
1.1646
1.1648129
1.1647417
1.16484
1.1648081
1.1648466
1.1648279
1.164822
1.1647898
1.1647586
1.1647148
1.164664
1.1646044
1.1645363
1.1644597
1.1643743
1.1642803
1.1641775
1.1640661
1.1639461
1.1638178
1.1636816
1.163538
1.1633877
1.1632315
1.1630704
1.1629058
1.162739
1.1625716
1.1624057
1.1622432
1.1620864
1.161938
1.1618006
1.1616774
1.1615714
1.161486
1.1614248
1.1613916
1.1613903
1.1614251
1.1615003
1.1616206
1.1617905
1.1620147
1.1622987
1.1626486
1.163071
1.1635718
1.1641556
1.1648266
1.1655886
1.1664437
1.16739
1.1684201
1.1695192
1.1706608
1.1718016
1.1728772
1.1738081
1.1744938
1.1748512
1.1746884
1.1741396
1.1727711
1.1711212
1.1680025
1.1656561
1.1610144
1.1590868
1.1564036
1.1561761
1.1612773
1.1575644
1.1260936
1.1525623
1.1585955
1.1611904
1.1604315
1.1610279