/*--------------------------------*- C++ -*----------------------------------*\
  =========                 |
  \\      /  F ield         | OpenFOAM: The Open Source CFD Toolbox
   \\    /   O peration     | Website:  https://openfoam.org
    \\  /    A nd           | Version:  12
     \\/     M anipulation  |
\*---------------------------------------------------------------------------*/
FoamFile
{
    format      ascii;
    class       volScalarField;
    location    "0.095";
    object      Ma;
}
// * * * * * * * * * * * * * * * * * * * * * * * * * * * * * * * * * * * * * //

dimensions      [];

internalField   nonuniform List<scalar> 
16000
(
0.62664251
0.74436056
0.69956869
0.72401339
0.70899124
0.71590537
0.71020688
0.71171721
0.70907025
0.70862137
0.70699604
0.70585754
0.70444
0.70305625
0.70159021
0.70007764
0.69850735
0.69688094
0.69519719
0.69345566
0.69165595
0.68979794
0.68788172
0.68590769
0.68387653
0.68178926
0.67964728
0.67745235
0.67520665
0.67291277
0.67057372
0.66819297
0.66577437
0.66332223
0.66084124
0.65833647
0.6558133
0.65327743
0.65073478
0.64819145
0.64565364
0.6431276
0.64061954
0.63813558
0.63568163
0.63326338
0.63088618
0.628555
0.62627439
0.62404841
0.6218806
0.61977394
0.61773083
0.61575307
0.61384186
0.61199775
0.61022073
0.60851023
0.60686513
0.60528367
0.60376347
0.60230181
0.60089548
0.59954048
0.59823192
0.59696385
0.59572916
0.59451971
0.59332694
0.59214276
0.59096033
0.58977427
0.58858004
0.58737103
0.58613983
0.58489868
0.58366235
0.58230065
0.5810817
0.57970815
0.63115879
0.74960744
0.70299964
0.72869781
0.71285397
0.72022881
0.71408589
0.71571301
0.71288461
0.71236275
0.71065004
0.70939556
0.70788644
0.70638822
0.70481327
0.70318381
0.70149402
0.6997438
0.69793257
0.69605992
0.69412573
0.69213014
0.69007359
0.68795687
0.68578112
0.68354787
0.68125907
0.67891711
0.6765248
0.67408543
0.67160277
0.66908101
0.6665248
0.66393923
0.66132976
0.65870221
0.6560627
0.65341758
0.65077337
0.64813669
0.64551418
0.64291238
0.64033772
0.63779638
0.63529423
0.63283677
0.63042906
0.62807566
0.62578061
0.62354737
0.62137883
0.61927725
0.61724429
0.615281
0.61338779
0.6115645
0.60981041
0.60812427
0.60650439
0.60494852
0.60345386
0.60201728
0.60063534
0.59930387
0.59801791
0.59677155
0.59555774
0.59436837
0.59319477
0.59202859
0.59086278
0.5896923
0.58851287
0.58731699
0.5860992
0.58487247
0.5836217
0.582282
0.58107345
0.57958597
0.63539114
0.75442651
0.70652769
0.73279326
0.71649312
0.72396963
0.71766703
0.7191825
0.71629852
0.71561938
0.71383809
0.71244532
0.71083146
0.70920604
0.70750616
0.7057453
0.70392019
0.70203048
0.70007583
0.69805617
0.6959717
0.69382297
0.69161089
0.68933674
0.68700224
0.68460955
0.68216131
0.67966063
0.67711113
0.67451695
0.67188271
0.66921355
0.66651503
0.66379315
0.6610543
0.65830514
0.65555262
0.65280381
0.65006586
0.64734591
0.64465096
0.64198782
0.63936298
0.63678256
0.63425222
0.63177708
0.62936169
0.62701
0.62472531
0.62251027
0.62036688
0.61829649
0.61629982
0.61437696
0.61252742
0.61075014
0.60904357
0.60740569
0.60583412
0.60432603
0.60287815
0.60148694
0.60014862
0.59885883
0.59761251
0.59640374
0.59522557
0.59407003
0.59292851
0.59179258
0.59065515
0.58951151
0.58835751
0.58718584
0.58599329
0.58478867
0.58354227
0.58222956
0.58103948
0.57946475
0.63925543
0.75882777
0.70962844
0.73637513
0.71966776
0.72725092
0.72078396
0.72216836
0.71922126
0.71836551
0.71650174
0.71495479
0.71321835
0.71144967
0.70960742
0.70769835
0.70572118
0.70367556
0.70156149
0.69937926
0.69712949
0.69481321
0.69243184
0.68998729
0.68748195
0.68491874
0.68230113
0.67963314
0.67691937
0.67416498
0.67137566
0.6685576
0.66571746
0.6628623
0.6599995
0.65713666
0.65428154
0.65144192
0.64862553
0.64583989
0.64309224
0.64038943
0.63773783
0.63514322
0.63261077
0.63014498
0.6277496
0.62542769
0.62318157
0.62101283
0.61892238
0.61691045
0.61497666
0.61312003
0.61133904
0.60963167
0.60799548
0.60642765
0.60492508
0.60348438
0.60210179
0.60077339
0.5994951
0.59826239
0.59707014
0.59591249
0.59478262
0.59367277
0.59257447
0.59147927
0.59038011
0.58927238
0.58815201
0.58701252
0.58585265
0.58467498
0.5834418
0.58216137
0.58099007
0.57933921
0.64274149
0.76274185
0.7124417
0.73932327
0.7222302
0.72997002
0.72338595
0.7245799
0.72158739
0.72052044
0.7185632
0.71684419
0.71496647
0.71303875
0.71103697
0.70896353
0.70681813
0.7046006
0.70231124
0.69995072
0.69752014
0.69502109
0.6924557
0.68982665
0.68713723
0.68439137
0.68159361
0.67874917
0.67586387
0.67294414
0.66999696
0.66702981
0.6640506
0.66106755
0.65808912
0.65512387
0.65218035
0.64926696
0.64639183
0.64356268
0.64078674
0.63807063
0.63542025
0.63284075
0.63033649
0.62791097
0.62556686
0.62330601
0.62112947
0.61903755
0.61702984
0.61510531
0.61326232
0.61149872
0.60981188
0.60819881
0.60665614
0.60518026
0.60376738
0.60241355
0.60111456
0.59986617
0.59866403
0.59750351
0.59637947
0.59528611
0.59421685
0.59316422
0.59211998
0.59107584
0.59002479
0.58896223
0.58788404
0.58678518
0.58566607
0.58452195
0.58331099
0.58207136
0.58092105
0.57920487
0.64580033
0.76608814
0.71480054
0.74181537
0.72444729
0.73204627
0.72533428
0.72633767
0.72330413
0.7220108
0.71994774
0.71804568
0.71601061
0.71391079
0.71173414
0.70948068
0.70715058
0.70474403
0.70226178
0.69970512
0.69707588
0.69437655
0.69161024
0.68878079
0.68589272
0.68295132
0.67996257
0.67693317
0.67387048
0.67078249
0.66767769
0.66456503
0.66145378
0.6583534
0.65527342
0.65222326
0.6492121
0.64624873
0.64334142
0.64049776
0.63772458
0.63502786
0.63241265
0.62988303
0.62744212
0.62509207
0.62283409
0.62066853
0.6185949
0.61661198
0.6147179
0.61291021
0.61118596
0.60954177
0.60797393
0.60647845
0.60505111
0.60368757
0.60238342
0.60113422
0.59993541
0.59878247
0.59767091
0.59659604
0.59555276
0.59453544
0.59353777
0.59255264
0.59157219
0.59058841
0.58959444
0.58858546
0.58755728
0.58650671
0.58543546
0.58433059
0.58314998
0.58195965
0.58082958
0.57905951
0.64840213
0.76884758
0.71670719
0.74381224
0.72619749
0.73345966
0.72678028
0.72740727
0.7243863
0.72281564
0.72063234
0.71853619
0.71632387
0.71403349
0.71166058
0.7092047
0.70666655
0.70404713
0.70134806
0.69857161
0.69572077
0.69279931
0.68981174
0.68676344
0.6836606
0.68051021
0.67732007
0.67409872
0.67085535
0.66759972
0.66434205
0.66109284
0.65786275
0.65466242
0.65150228
0.64839239
0.64534224
0.64236064
0.63945553
0.6366339
0.63390166
0.63126364
0.6287235
0.62628378
0.6239459
0.62171025
0.61957623
0.61754238
0.61560646
0.61376556
0.61201623
0.61035455
0.60877626
0.60727679
0.60585141
0.60449522
0.60320327
0.60197059
0.60079228
0.59966352
0.59857952
0.59753561
0.59652723
0.59554972
0.59459813
0.59366706
0.59275054
0.5918419
0.59093379
0.59001863
0.58908979
0.58814207
0.58717116
0.58617611
0.58515903
0.58409864
0.58295687
0.58182366
0.58071302
0.5789023
0.65058864
0.77105077
0.71820258
0.74534268
0.72753804
0.73443518
0.72773451
0.72823047
0.72480613
0.72295739
0.72061818
0.71830172
0.71587785
0.71336507
0.71076312
0.70807223
0.70529389
0.70243021
0.69948397
0.69645884
0.69335932
0.69019086
0.68695984
0.68367358
0.68034034
0.67696927
0.67357034
0.67015423
0.66673224
0.66331608
0.65991775
0.65654928
0.6532226
0.64994927
0.64674027
0.64360585
0.64055531
0.63759686
0.63473751
0.63198296
0.6293376
0.62680443
0.62438516
0.62208023
0.61988891
0.61780944
0.61583911
0.61397443
0.61221126
0.61054495
0.60897045
0.60748245
0.60607544
0.60474381
0.60348192
0.60228417
0.60114502
0.60005905
0.59902104
0.59802594
0.59706886
0.5961451
0.59525019
0.5943796
0.59352859
0.59269208
0.59186453
0.59103978
0.59021107
0.58937148
0.58851463
0.58763481
0.58672774
0.58579465
0.58483689
0.58382552
0.58273117
0.58166183
0.58056971
0.57873335
0.65242771
0.77272656
0.71924457
0.74640484
0.72822149
0.73446854
0.72786225
0.72756349
0.72451677
0.72238285
0.71983852
0.71726572
0.71458828
0.71181385
0.70894392
0.70597997
0.70292453
0.69978109
0.69655407
0.69324894
0.68987223
0.68643159
0.68293576
0.67939456
0.67581881
0.67222024
0.66861138
0.66500535
0.66141568
0.65785609
0.65434026
0.65088152
0.64749267
0.6441857
0.64097155
0.63785994
0.6348592
0.63197614
0.62921598
0.62658236
0.62407731
0.62170136
0.61945364
0.61733197
0.6153331
0.6134528
0.61168609
0.61002735
0.60847056
0.60700938
0.6056373
0.60434776
0.60313423
0.60199025
0.60090954
0.59988599
0.59891369
0.59798701
0.59710056
0.59624928
0.59542833
0.59463312
0.59385935
0.59310278
0.59235897
0.59162325
0.59089055
0.59015529
0.58941145
0.58865287
0.58787349
0.58706709
0.58622961
0.58536401
0.58446939
0.58351104
0.58247298
0.58147294
0.58039628
0.5785538
0.65391784
0.77384827
0.71975914
0.7467989
0.72818169
0.73395956
0.72738895
0.72670501
0.72345739
0.72097194
0.71817281
0.71530621
0.71233187
0.70925347
0.70607354
0.70279532
0.69942302
0.69596211
0.69241926
0.68880243
0.68512085
0.68138508
0.67760689
0.67379921
0.66997598
0.66615194
0.66234247
0.65856327
0.6548301
0.65115846
0.64756331
0.64405877
0.64065778
0.63737191
0.6342111
0.63118352
0.62829545
0.62555125
0.62295337
0.62050243
0.61819734
0.61603546
0.61401282
0.61212427
0.61036377
0.60872454
0.60719931
0.60578048
0.60446027
0.6032309
0.60208468
0.60101409
0.60001186
0.599071
0.59818486
0.59734709
0.5965517
0.59579304
0.59506581
0.59436508
0.59368622
0.59302491
0.59237717
0.59173909
0.59110666
0.59047569
0.58984164
0.58919957
0.58854428
0.5878705
0.58717248
0.58644374
0.58568065
0.58488693
0.58405785
0.58315611
0.58218335
0.58125648
0.58018989
0.57836478
0.65499693
0.7743136
0.71966912
0.74566202
0.72736801
0.73260288
0.72612642
0.7248482
0.72146913
0.71860765
0.71549637
0.71229039
0.70897011
0.70553959
0.70200265
0.69836486
0.69463288
0.69081498
0.68692093
0.68296207
0.67895125
0.67490279
0.67083225
0.66675634
0.6626926
0.65865908
0.65467409
0.65075577
0.64692172
0.64318863
0.63957195
0.63608548
0.63274118
0.62954886
0.62651611
0.62364815
0.62094793
0.61841612
0.61605135
0.61385034
0.61180819
0.60991862
0.60817424
0.60656684
0.60508759
0.60372735
0.60247679
0.60132661
0.6002677
0.59929119
0.5983886
0.59755184
0.59677329
0.59604578
0.59536259
0.59471747
0.59410458
0.59351851
0.59295424
0.59240716
0.59187299
0.59134782
0.59082806
0.59031023
0.58979086
0.58926629
0.58873255
0.58818541
0.58762054
0.58703356
0.58641914
0.58577091
0.58508592
0.58436713
0.58360461
0.58276298
0.58186435
0.58101203
0.57995015
0.57816197
0.65557509
0.77395747
0.71886261
0.74385992
0.72593509
0.73032811
0.72392736
0.722042
0.71843048
0.71515265
0.71166538
0.70806513
0.70434291
0.70050547
0.69655891
0.692512
0.68837497
0.68416006
0.67988134
0.67555474
0.67119778
0.66682948
0.66246997
0.65814021
0.65386158
0.64965544
0.64554265
0.64154314
0.6376754
0.63395608
0.63039955
0.62701772
0.6238197
0.62081179
0.61799745
0.61537737
0.61294974
0.61071042
0.6086533
0.60677061
0.60505328
0.60349126
0.60207384
0.60078994
0.59962835
0.59857796
0.59762791
0.59676773
0.59598745
0.59527767
0.59462957
0.59403498
0.5934863
0.59297656
0.59249932
0.5920487
0.59161926
0.59120606
0.59080454
0.59041055
0.59002031
0.58963039
0.5892377
0.58883927
0.58843218
0.58801337
0.58757951
0.5871271
0.58665272
0.58615279
0.58562249
0.58505618
0.58445172
0.58380951
0.58311362
0.58233577
0.58151957
0.5807399
0.57967566
0.57794736
0.65558997
0.77270573
0.71720257
0.74132139
0.72362804
0.72703222
0.72066716
0.71812104
0.71419381
0.71044843
0.70651284
0.70245185
0.69826222
0.6939549
0.68953995
0.6850308
0.6804429
0.67579405
0.67110413
0.66639491
0.6616897
0.657013
0.65238996
0.64784596
0.64340591
0.63909377
0.63493187
0.63094037
0.62713676
0.62353543
0.62014742
0.61698024
0.61403789
0.61132101
0.60882707
0.60655074
0.6044843
0.60261802
0.60094067
0.59943987
0.59810254
0.59691524
0.59586445
0.59493685
0.59411952
0.59340009
0.59276685
0.59220883
0.59171585
0.5912785
0.59088817
0.59053703
0.59021795
0.58992447
0.58965075
0.58939149
0.58914193
0.58889773
0.58865496
0.58841006
0.58815982
0.58790138
0.58763217
0.58734981
0.58705196
0.58673616
0.58639977
0.58604009
0.58565453
0.5852402
0.58479296
0.58430849
0.58378553
0.58322036
0.58259088
0.58188049
0.58115359
0.58044281
0.57937134
0.57772543
0.65502207
0.77046023
0.71461857
0.73768999
0.72030914
0.72260323
0.71619677
0.71293857
0.70858494
0.70430057
0.69983143
0.69522914
0.69049568
0.68564795
0.68070228
0.67567889
0.67060042
0.66549198
0.66038075
0.65529556
0.65026627
0.64532325
0.64049655
0.63581521
0.63130645
0.62699489
0.62290187
0.61904495
0.61543745
0.61208832
0.60900208
0.60617907
0.60361571
0.60130498
0.59923694
0.5973993
0.59577799
0.59435769
0.59312231
0.59205548
0.59114086
0.59036249
0.58970498
0.58915372
0.58869498
0.58831601
0.58800503
0.58775129
0.58754501
0.58737738
0.58724044
0.58712713
0.5870311
0.58694673
0.58686899
0.58679341
0.58671601
0.58663321
0.58654181
0.58643891
0.58632194
0.58618864
0.58603701
0.58586524
0.58567157
0.58545417
0.58521114
0.58494056
0.58464059
0.58430889
0.58394215
0.58353797
0.58309591
0.5826072
0.58204434
0.58140468
0.58077077
0.58012692
0.57905112
0.5775024
0.65381317
0.76705049
0.7110574
0.7328842
0.71581889
0.71687177
0.71031609
0.70627781
0.70137016
0.69645177
0.691349
0.68611226
0.68075135
0.67529146
0.6697579
0.66417999
0.65858956
0.65302077
0.64750941
0.64209214
0.63680557
0.63168528
0.62676475
0.62207433
0.61764029
0.61348412
0.60962195
0.60606434
0.60281627
0.59987738
0.5972425
0.59490218
0.59284348
0.59105064
0.58950589
0.5881901
0.58708342
0.5861658
0.58541748
0.58481927
0.5843529
0.58400112
0.58374789
0.58357841
0.58347917
0.58343789
0.58344354
0.58348624
0.58355719
0.58364861
0.58375365
0.58386627
0.58398121
0.58409388
0.58420023
0.58429673
0.58438028
0.58444816
0.58449793
0.58452743
0.5845347
0.58451813
0.58447627
0.58440785
0.58431169
0.58418659
0.58403135
0.58384487
0.58362592
0.58337258
0.5830826
0.58275576
0.58239223
0.58197821
0.58148275
0.5809169
0.58037509
0.57979901
0.57873374
0.57725822
0.65190864
0.76223851
0.70656218
0.72671217
0.70995023
0.70961296
0.70275598
0.69784154
0.69223078
0.68656059
0.68071312
0.67474454
0.66867623
0.66254419
0.65638549
0.65024102
0.64415395
0.63816905
0.63233143
0.62668521
0.62127206
0.61612982
0.61129111
0.60678241
0.60262328
0.59882605
0.59539592
0.59233133
0.58962459
0.58726282
0.58522889
0.58350239
0.58206067
0.58087968
0.57993478
0.57920138
0.57865549
0.57827409
0.57803545
0.5779193
0.57790695
0.57798133
0.578127
0.57833007
0.57857816
0.5788603
0.57916681
0.57948923
0.57982018
0.58015326
0.58048295
0.58080452
0.58111389
0.58140762
0.58168274
0.58193673
0.5821674
0.58237289
0.58255154
0.58270192
0.58282273
0.58291294
0.58297164
0.58299807
0.58299157
0.58295153
0.58287747
0.58276901
0.58262543
0.58244522
0.58222736
0.58197375
0.58168445
0.58134157
0.58091422
0.58042592
0.57997291
0.57945943
0.5784138
0.57701984
0.64925088
0.75563666
0.70101946
0.71891087
0.70239537
0.70048102
0.69312912
0.68721662
0.68074329
0.67419405
0.66749291
0.66070581
0.65387014
0.64703641
0.64025698
0.63358727
0.6270836
0.62080152
0.61479363
0.6091077
0.60378471
0.59885753
0.5943499
0.59027611
0.58664111
0.58344119
0.58066492
0.57829444
0.5763068
0.57467531
0.57337085
0.57236299
0.57162101
0.57111465
0.57081478
0.57069378
0.57072588
0.57088732
0.57115644
0.57151367
0.57194149
0.57242432
0.57294841
0.5735017
0.57407369
0.57465527
0.5752386
0.57581698
0.57638469
0.57693693
0.57746964
0.57797945
0.57846357
0.57891971
0.57934599
0.57974087
0.58010309
0.5804316
0.5807255
0.58098407
0.58120663
0.58139271
0.5815419
0.58165389
0.58172846
0.58176557
0.58176537
0.58172809
0.58165345
0.5815405
0.58138961
0.58120413
0.580983
0.58070577
0.5803468
0.57994173
0.57957523
0.57910898
0.57808172
0.57679588
0.6457058
0.74657724
0.69381504
0.7090288
0.6926981
0.68900089
0.68093022
0.67388646
0.66639315
0.65884087
0.65119237
0.64352868
0.63590978
0.62840618
0.62108921
0.61403003
0.60729619
0.60094888
0.59504027
0.58961153
0.58469157
0.58029664
0.57643069
0.5730864
0.57024667
0.56788649
0.56597477
0.56447626
0.56335324
0.56256703
0.56207915
0.56185231
0.56185111
0.56204245
0.56239587
0.56288367
0.56348089
0.56416527
0.56491711
0.56571913
0.56655622
0.56741532
0.56828517
0.56915616
0.5700201
0.5708701
0.57170037
0.57250613
0.57328344
0.5740291
0.57474054
0.57541574
0.57605316
0.57665161
0.57721023
0.57772843
0.57820579
0.57864204
0.57903698
0.57939052
0.5797026
0.57997323
0.58020246
0.58039037
0.58053716
0.58064321
0.58070924
0.58073591
0.58072335
0.58067146
0.58058206
0.58045898
0.58029885
0.58008076
0.57978991
0.57947389
0.57919149
0.57875162
0.57773788
0.5766092
0.64098595
0.73506474
0.68452064
0.69650501
0.68027912
0.67461151
0.66555812
0.6572316
0.64856595
0.63990365
0.63125501
0.62272485
0.61440243
0.60638124
0.5987495
0.59158702
0.58496114
0.57892402
0.57351094
0.56873996
0.56461267
0.56111591
0.55822403
0.55590162
0.55410621
0.55279082
0.55190631
0.55140319
0.55123316
0.5513502
0.55171131
0.55227695
0.55301129
0.55388217
0.5548611
0.55592299
0.55704596
0.55821106
0.55940198
0.56060478
0.56180765
0.56300061
0.56417533
0.56532489
0.56644363
0.56752693
0.5685711
0.56957325
0.57053115
0.57144314
0.57230806
0.57312514
0.57389395
0.57461434
0.57528637
0.57591028
0.57648641
0.57701518
0.57749703
0.57793243
0.57832189
0.57866585
0.57896477
0.57921908
0.57942931
0.57959623
0.57972089
0.57980425
0.57984689
0.57984984
0.57981626
0.57974946
0.57964316
0.57947809
0.57925344
0.57902669
0.57882484
0.57840724
0.57741415
0.57645902
0.63473132
0.72211477
0.67257734
0.68075179
0.6644204
0.65659151
0.64624475
0.63646498
0.62650969
0.61670468
0.60712013
0.59789014
0.5891304
0.58094738
0.57342933
0.56664322
0.56063226
0.55541586
0.55099101
0.54733513
0.54440968
0.54216414
0.54053993
0.53947398
0.53890181
0.53875986
0.53898734
0.53952742
0.540328
0.541342
0.5425275
0.54384754
0.54526987
0.54676659
0.54831372
0.54989085
0.55148069
0.55306869
0.55464274
0.55619279
0.55771061
0.55918951
0.56062415
0.5620103
0.56334473
0.56462499
0.56584936
0.56701667
0.56812624
0.56917782
0.57017146
0.57110752
0.57198654
0.57280926
0.57357653
0.57428931
0.57494859
0.57555538
0.5761107
0.57661551
0.57707078
0.57747737
0.57783611
0.57814774
0.57841309
0.57863321
0.5788093
0.57894248
0.57903383
0.57908565
0.57910217
0.57908549
0.57902677
0.57891013
0.57874791
0.57860236
0.57847294
0.57809405
0.57716154
0.57635218
0.62661516
0.70516292
0.65715108
0.66088223
0.64407787
0.63388211
0.62195819
0.6106223
0.59940818
0.58863625
0.57843303
0.56894882
0.56030033
0.55257521
0.54582674
0.54007462
0.53530762
0.53148817
0.52855814
0.52644483
0.52506673
0.52433845
0.52417484
0.52449393
0.52521905
0.52628008
0.52761406
0.52916526
0.53088505
0.53273138
0.53466825
0.53666511
0.53869622
0.54074002
0.54277865
0.54479737
0.54678414
0.54872923
0.55062486
0.55246489
0.5542446
0.55596042
0.55760978
0.55919092
0.56070278
0.56214486
0.56351712
0.56481991
0.56605389
0.56721997
0.56831926
0.56935304
0.57032268
0.57122964
0.57207545
0.57286166
0.57358979
0.57426134
0.57487781
0.57544061
0.57595107
0.57641047
0.57681992
0.5771805
0.57749333
0.57775961
0.57798058
0.57815741
0.57829178
0.57838707
0.57844808
0.57847547
0.5784592
0.57838834
0.57828512
0.57820913
0.57813786
0.57781144
0.57698825
0.57628163
0.61599145
0.68323374
0.63684677
0.63548007
0.61777689
0.60509546
0.59152572
0.57879869
0.56669751
0.55551903
0.54540465
0.53647511
0.52879602
0.52238591
0.51721923
0.51323461
0.51034388
0.50844139
0.50741245
0.50714042
0.50751203
0.5084211
0.5097708
0.51147474
0.51345719
0.51565273
0.51800557
0.52046856
0.52300225
0.52557389
0.52815653
0.53072812
0.5332708
0.53577024
0.53821505
0.5405963
0.54290713
0.54514238
0.5472983
0.5493723
0.55136278
0.55326891
0.55509051
0.55682793
0.55848193
0.56005362
0.56154439
0.56295581
0.56428964
0.56554774
0.56673208
0.56784466
0.56888753
0.56986273
0.57077231
0.5716183
0.57240265
0.57312727
0.57379403
0.5744047
0.57496096
0.57546439
0.57591644
0.57631849
0.57667193
0.57697809
0.57723819
0.57745348
0.57762614
0.57776029
0.57786058
0.57792638
0.57794821
0.57792148
0.57787496
0.5778591
0.5778313
0.57755124
0.57684785
0.57629065
0.60170741
0.65422324
0.60974671
0.60278794
0.58390766
0.56885388
0.55405693
0.54063711
0.52855883
0.51803831
0.50914798
0.50190491
0.49625888
0.49211049
0.48932462
0.48774556
0.48720975
0.48755592
0.48863211
0.49030006
0.49243732
0.49493778
0.49771104
0.5006812
0.50378524
0.5069714
0.51019755
0.51342966
0.5166405
0.51980851
0.52291674
0.52595208
0.52890456
0.53176674
0.53453327
0.53720048
0.53976606
0.54222881
0.54458842
0.54684528
0.54900036
0.55105507
0.55301118
0.55487071
0.55663589
0.55830912
0.55989288
0.56138973
0.56280226
0.56413309
0.56538482
0.56656004
0.56766129
0.5686911
0.5696519
0.57054607
0.57137593
0.57214367
0.57285148
0.57350141
0.57409543
0.57463539
0.57512303
0.57556005
0.57594809
0.57628864
0.57658295
0.57683246
0.57703969
0.57720893
0.57734398
0.57744322
0.57749949
0.57751521
0.57752239
0.57755824
0.57756345
0.57732527
0.57674331
0.57635994
0.58179132
0.61578536
0.5736597
0.56100478
0.54145033
0.52445679
0.50958211
0.49689192
0.48635377
0.47801044
0.47176445
0.46745604
0.46487401
0.46378418
0.46394859
0.46514052
0.46715373
0.46980702
0.47294552
0.47643959
0.48018259
0.48408797
0.48808634
0.4921226
0.49615348
0.50014527
0.50407205
0.50791415
0.51165687
0.51528948
0.51880444
0.52219667
0.52546311
0.52860223
0.53161373
0.53449827
0.53725724
0.53989261
0.54240678
0.54480249
0.5470827
0.54925055
0.55130929
0.55326222
0.5551127
0.55686406
0.55851963
0.56008268
0.56155645
0.5629441
0.56424872
0.56547332
0.56662083
0.56769409
0.56869584
0.56962875
0.57049535
0.57129812
0.57203944
0.5727216
0.57334679
0.57391709
0.57443451
0.57490104
0.57531857
0.57568877
0.57601312
0.57629332
0.57653215
0.5767334
0.5768995
0.57702835
0.57711621
0.57717196
0.57722731
0.57730475
0.57733584
0.57714525
0.57669287
0.5764596
0.55363004
0.56541401
0.52722573
0.50878024
0.48812962
0.47264948
0.45966639
0.44978009
0.44272589
0.43826076
0.43603831
0.43569503
0.43687315
0.43924619
0.44252947
0.44648376
0.45091342
0.45566182
0.46060566
0.46564925
0.4707192
0.47575994
0.48072987
0.48559834
0.49034318
0.49494877
0.49940453
0.50370374
0.50784265
0.51181971
0.51563512
0.51929031
0.52278769
0.52613034
0.52932187
0.53236622
0.53526758
0.5380303
0.5406588
0.54315751
0.54553088
0.54778329
0.54991909
0.55194249
0.55385764
0.55566857
0.5573792
0.55899333
0.56051463
0.56194665
0.56329283
0.56455648
0.5657408
0.56684885
0.56788362
0.56884793
0.56974452
0.57057605
0.57134506
0.57205401
0.57270526
0.5733011
0.57384375
0.57433543
0.57477823
0.57517411
0.57552486
0.57583264
0.57610031
0.57633087
0.57652531
0.5766815
0.5767992
0.57689155
0.57698657
0.5770936
0.57714503
0.57700914
0.57669009
0.57658199
0.51310892
0.50056406
0.46333985
0.44544027
0.42801758
0.41581597
0.40750701
0.40287498
0.40126587
0.4020936
0.40478934
0.40886602
0.41392142
0.41963718
0.42576793
0.43212867
0.43858235
0.44502903
0.45139696
0.45763557
0.46371006
0.46959727
0.4752826
0.48075774
0.48601892
0.49106566
0.49589983
0.50052498
0.50494579
0.50916772
0.51319672
0.51703905
0.52070109
0.52418927
0.52750997
0.5306695
0.533674
0.53652947
0.53924175
0.54181648
0.5442591
0.54657487
0.54876885
0.55084591
0.55281074
0.55466783
0.5564215
0.55807589
0.55963499
0.56110261
0.56248241
0.56377791
0.56499248
0.56612936
0.56719166
0.56818236
0.56910432
0.56996032
0.57075305
0.57148507
0.5721589
0.57277697
0.57334167
0.57385538
0.57432037
0.57473881
0.5751129
0.57544523
0.57573874
0.57599581
0.57621666
0.5763997
0.57654727
0.57667324
0.57679876
0.57692302
0.57698745
0.57690533
0.57672153
0.57672752
0.45130748
0.41874337
0.38904702
0.37420363
0.36337033
0.35857149
0.3580073
0.36075899
0.36583525
0.37247643
0.38009716
0.38827291
0.39670327
0.40518117
0.413567
0.42176896
0.42972875
0.43741121
0.44479709
0.451878
0.45865282
0.4651253
0.47130233
0.47719274
0.48280654
0.48815433
0.49324693
0.49809512
0.50270949
0.5071003
0.51127746
0.51525046
0.51902837
0.52261985
0.52603312
0.52927604
0.53235604
0.53528022
0.53805532
0.54068775
0.5431836
0.54554871
0.54778859
0.54990852
0.55191352
0.5538084
0.55559771
0.55728582
0.55887691
0.56037496
0.56178377
0.56310699
0.5643481
0.56551045
0.56659726
0.56761158
0.56855637
0.5694345
0.57024875
0.57100178
0.57169622
0.57233462
0.5729195
0.57345333
0.5739385
0.57437734
0.57477235
0.57512633
0.57544228
0.5757224
0.57596715
0.57617634
0.5763536
0.57651024
0.57665953
0.57679767
0.57688623
0.57687313
0.57678437
0.5768049
0.35557778
0.3221073
0.30449903
0.30002107
0.30140482
0.30766984
0.31683866
0.32764579
0.33921778
0.3510034
0.36266696
0.37401247
0.38493228
0.39537335
0.40531607
0.41476081
0.42371961
0.43221097
0.44025665
0.44787967
0.45510319
0.46194972
0.4684408
0.47459678
0.48043673
0.48597846
0.49123852
0.49623231
0.50097414
0.5054773
0.50975413
0.51381615
0.51767408
0.52133792
0.52481705
0.52812021
0.53125566
0.53423112
0.53705387
0.53973079
0.54226836
0.54467272
0.54694968
0.54910474
0.55114313
0.55306979
0.55488947
0.55660663
0.55822557
0.55975035
0.56118486
0.56253283
0.56379782
0.56498323
0.56609233
0.56712826
0.56809402
0.56899257
0.56982673
0.57059924
0.57131281
0.57197006
0.57257359
0.57312596
0.57362964
0.57408711
0.57450095
0.57487397
0.57520897
0.57550816
0.57577279
0.57600417
0.57620634
0.57638734
0.57655455
0.57670366
0.57681169
0.57685453
0.57685761
0.57693298
0.2165138
0.21523359
0.22061673
0.23401015
0.25130911
0.26968746
0.28794138
0.30542086
0.32189696
0.3373057
0.35167222
0.36505682
0.37753321
0.3891766
0.4000587
0.41024551
0.41979672
0.4287658
0.43720048
0.44514325
0.452632
0.45970054
0.46637909
0.47269476
0.47867192
0.48433255
0.48969653
0.4947819
0.49960511
0.50418115
0.50852378
0.51264563
0.51655836
0.52027272
0.52379872
0.52714563
0.53032212
0.53333627
0.53619567
0.53890743
0.54147823
0.5439144
0.54622188
0.54840629
0.55047296
0.55242694
0.55427302
0.55601575
0.55765945
0.55920826
0.5606661
0.56203672
0.56332372
0.56453055
0.56566052
0.5667168
0.56770243
0.5686204
0.56947358
0.57026475
0.57099661
0.57167185
0.57229307
0.57286287
0.57338382
0.57385852
0.57428966
0.57468
0.57503214
0.57534825
0.57563023
0.57588051
0.57610312
0.57630321
0.57648399
0.57664256
0.57676962
0.57685896
0.57692367
0.57700109
0.091910857
0.12180058
0.15920834
0.19284187
0.22296078
0.24947492
0.27300426
0.29401443
0.31292136
0.33005101
0.34566616
0.35997727
0.37315517
0.38533966
0.39664636
0.40717178
0.41699721
0.42619169
0.43481431
0.44291598
0.45054089
0.45772765
0.46451013
0.47091826
0.47697862
0.4827149
0.48814835
0.49329809
0.49818141
0.502814
0.50721015
0.51138296
0.51534442
0.51910561
0.52267673
0.52606726
0.52928602
0.53234121
0.53524052
0.53799115
0.54059985
0.54307298
0.54541653
0.54763617
0.54973723
0.5517248
0.55360366
0.55537839
0.55705331
0.55863255
0.56012005
0.56151956
0.56283468
0.56406886
0.56522542
0.56630753
0.56731828
0.56826063
0.56913748
0.56995161
0.5707057
0.57140238
0.57204422
0.57263378
0.57317364
0.57366652
0.57411526
0.57452274
0.57489165
0.5752243
0.57552288
0.57579009
0.57602945
0.57624431
0.57643601
0.57660349
0.5767462
0.57686676
0.57696659
0.57703656
0.010643811
0.2957312
0.47068521
0.51884421
0.52863943
0.52911921
0.52877592
0.52991546
0.53139859
0.53288359
0.53435935
0.53580823
0.53722948
0.5386354
0.54003744
0.54144539
0.54286114
0.54428515
0.54571715
0.54715617
0.54860084
0.5500494
0.55149992
0.55295031
0.55439843
0.55584212
0.55727925
0.55870771
0.56012544
0.56153042
0.56292072
0.56429441
0.56564963
0.56698456
0.56829738
0.56958632
0.57084961
0.57208548
0.57329219
0.57446798
0.57561109
0.57671975
0.57779222
0.57882673
0.57982153
0.58077488
0.58168508
0.58255044
0.58336934
0.58414022
0.58486162
0.58553215
0.58615057
0.58671578
0.58722683
0.58768296
0.58808367
0.58842861
0.58871768
0.58895057
0.58912666
0.58924554
0.58930714
0.58931124
0.58925744
0.58914455
0.58897098
0.58873241
0.58842651
0.58804477
0.58759019
0.58704689
0.58642148
0.58568657
0.58483496
0.58390447
0.58278167
0.58183577
0.58031442
0.57971936
0.06344634
0.38316668
0.521298
0.54658833
0.5474403
0.54555026
0.5446822
0.54482194
0.54502645
0.54532763
0.54571685
0.54626743
0.54693865
0.54770116
0.54852589
0.54940957
0.55034605
0.5513306
0.55235784
0.55342264
0.55452032
0.55564643
0.55679678
0.55796737
0.55915444
0.56035437
0.56156371
0.56277918
0.56399761
0.56521596
0.5664313
0.56764081
0.56884174
0.57003146
0.57120737
0.57236696
0.57350779
0.57462744
0.57572356
0.57679385
0.57783602
0.57884784
0.57982712
0.58077172
0.58167951
0.58254846
0.58337657
0.58416192
0.58490268
0.58559711
0.58624362
0.58684071
0.58738708
0.58788157
0.58832326
0.58871141
0.58904557
0.58932549
0.58955118
0.58972243
0.58983873
0.58989984
0.58990581
0.58985658
0.58975182
0.58959043
0.58937078
0.58908867
0.58874149
0.58832097
0.58782972
0.58725168
0.58659458
0.58582798
0.58495339
0.58399439
0.58286385
0.58189296
0.58037234
0.57977662
0.14676524
0.46386979
0.54129003
0.55408372
0.55269072
0.5517039
0.55169177
0.55223685
0.55264483
0.55315555
0.55364997
0.55420514
0.55478269
0.55540255
0.55605591
0.55674775
0.55747448
0.55823603
0.55903087
0.55985731
0.56071353
0.56159754
0.5625072
0.56344022
0.56439421
0.56536666
0.56635496
0.56735647
0.56836845
0.56938816
0.57041279
0.57143956
0.57246564
0.57348822
0.57450448
0.57551165
0.57650692
0.57748755
0.57845081
0.579394
0.58031446
0.58120957
0.58207677
0.58291354
0.58371743
0.58448607
0.58521716
0.58590853
0.58655811
0.58716395
0.58772427
0.58823746
0.58870209
0.58911695
0.58948108
0.58979374
0.59005449
0.59026319
0.59041989
0.59052446
0.59057648
0.59057582
0.59052264
0.59041695
0.59025849
0.59004622
0.58977847
0.58945107
0.58906123
0.58860075
0.58807194
0.58745846
0.58676908
0.58597066
0.58507222
0.58408554
0.58294501
0.5819532
0.58042788
0.57983208
0.22848489
0.51161728
0.55495132
0.56246129
0.55977366
0.55994289
0.56001167
0.56059166
0.56086254
0.56130312
0.56167329
0.56211991
0.5625721
0.56305617
0.56355759
0.56408489
0.56463549
0.56521119
0.5658119
0.56643755
0.56708785
0.56776224
0.56845997
0.56918004
0.56992122
0.5706821
0.57146105
0.57225626
0.57306574
0.57388736
0.57471884
0.57555778
0.57640166
0.57724787
0.57809371
0.57893644
0.57977324
0.58060127
0.58141766
0.58221954
0.58300402
0.58376826
0.58450943
0.58522476
0.58591153
0.58656711
0.58718896
0.58777467
0.58832194
0.58882865
0.58929286