/*--------------------------------*- C++ -*----------------------------------*\
  =========                 |
  \\      /  F ield         | OpenFOAM: The Open Source CFD Toolbox
   \\    /   O peration     | Website:  https://openfoam.org
    \\  /    A nd           | Version:  12
     \\/     M anipulation  |
\*---------------------------------------------------------------------------*/
FoamFile
{
    format      ascii;
    class       volScalarField;
    location    "0.095";
    object      nut;
}
// * * * * * * * * * * * * * * * * * * * * * * * * * * * * * * * * * * * * * //

dimensions      [0 2 -1 0 0 0 0];

internalField   nonuniform List<scalar> 
16000
(
4.5999099e-07
9.8754303e-06
1.7841184e-05
2.3737033e-05
1.8229564e-05
2.4992308e-05
1.7664511e-05
2.4182087e-05
1.8857363e-05
2.598583e-05
2.1857279e-05
2.5690166e-05
2.340999e-05
2.4038255e-05
2.3220605e-05
2.3088145e-05
2.2844453e-05
2.2777457e-05
2.2787516e-05
2.2894914e-05
2.3091934e-05
2.3378026e-05
2.3750661e-05
2.4209829e-05
2.4757662e-05
2.5399949e-05
2.6144537e-05
2.7003997e-05
2.7993656e-05
2.9130011e-05
3.0431138e-05
3.1921062e-05
3.3630819e-05
3.5598671e-05
3.787171e-05
4.0506121e-05
4.3568847e-05
4.7139715e-05
5.1317569e-05
5.6224973e-05
6.200587e-05
6.8829892e-05
7.691115e-05
8.6512294e-05
9.7946323e-05
0.000111589
0.00012790671
0.00014746851
0.00017096823
0.00019925282
0.00023336078
0.00027456832
0.00032443822
0.00038488836
0.0004582739
0.00054750069
0.00065616895
0.00078876583
0.00095092668
0.001019085
0.0010190085
0.0010189154
0.0010187912
0.0010186083
0.0010183656
0.0010180525
0.0010176561
0.0010171587
0.0010165335
0.0010157382
0.001014696
0.0010132517
0.0010112832
0.0010096197
0.0010081153
0.0010067856
0.0010056279
0.0010045654
0.0010046931
0.0010060623
4.1743687e-07
9.3786216e-06
1.9764595e-05
2.136298e-05
1.6460421e-05
2.2453575e-05
1.5705033e-05
2.1223758e-05
1.6690355e-05
2.2999435e-05
1.9822231e-05
2.3200377e-05
2.1441706e-05
2.1814241e-05
2.117506e-05
2.0991529e-05
2.078834e-05
2.0716685e-05
2.0727838e-05
2.0825621e-05
2.100729e-05
2.1271943e-05
2.1617688e-05
2.2044578e-05
2.2554292e-05
2.3152251e-05
2.3845256e-05
2.4644636e-05
2.5564892e-05
2.6622115e-05
2.7833128e-05
2.9219885e-05
3.0811108e-05
3.2642227e-05
3.4757307e-05
3.7209189e-05
4.0061251e-05
4.3388533e-05
4.7283136e-05
5.1861133e-05
5.7260905e-05
6.3642206e-05
7.1206676e-05
8.0204704e-05
9.0936871e-05
0.00010376029
0.00011911973
0.00013755976
0.00015974581
0.00018649059
0.00021879071
0.00025787393
0.0003052455
0.0003627558
0.00043267868
0.00051782167
0.00062166554
0.00074854014
0.00090386668
0.0010183515
0.0010182926
0.0010181819
0.0010180481
0.0010178568
0.0010176066
0.0010172869
0.0010168844
0.0010163806
0.0010157472
0.0010149406
0.001013895
0.0010124847
0.0010105826
0.0010089695
0.0010075279
0.001006278
0.0010051713
0.0010042064
0.0010043318
0.0010052435
3.738317e-07
8.9932097e-06
1.8721867e-05
1.9527924e-05
1.4762133e-05
1.9799367e-05
1.4004839e-05
1.8473471e-05
1.5028548e-05
2.0207274e-05
1.809803e-05
2.0685881e-05
1.9448657e-05
1.9560935e-05
1.906889e-05
1.8863904e-05
1.8692767e-05
1.8626387e-05
1.8640587e-05
1.8733094e-05
1.8902487e-05
1.9148194e-05
1.946866e-05
1.9864174e-05
2.0336057e-05
2.0889531e-05
2.1530669e-05
2.2269727e-05
2.3120211e-05
2.40978e-05
2.5218464e-05
2.6502503e-05
2.7976713e-05
2.967406e-05
3.1635902e-05
3.3911972e-05
3.6562455e-05
3.9658591e-05
4.3286755e-05
4.7556442e-05
5.2601355e-05
5.8573503e-05
6.5663664e-05
7.4110556e-05
8.4204562e-05
9.6287311e-05
0.00011078496
0.00012822088
0.00014923603
0.00017461415
0.00020531568
0.00024252644
0.0002877014
0.000342632
0.0004095207
0.00049108749
0.00059070642
0.0007125752
0.00086193519
0.0010176654
0.0010176261
0.0010174927
0.0010173415
0.0010171344
0.0010168694
0.0010165357
0.0010161195
0.0010156019
0.0010149535
0.0010141274
0.0010130618
0.0010116652
0.0010098363
0.0010082918
0.0010069268
0.0010057566
0.0010047113
0.0010038527
0.001003984
0.0010045587
3.3333844e-07
8.7030451e-06
1.7793468e-05
1.8178155e-05
1.3290549e-05
1.7504072e-05
1.2498054e-05
1.6164855e-05
1.3545407e-05
1.7834411e-05
1.6541999e-05
1.8455591e-05
1.7604637e-05
1.7526354e-05
1.7143788e-05
1.6937435e-05
1.6794272e-05
1.6738015e-05
1.6757833e-05
1.684845e-05
1.7009019e-05
1.7239344e-05
1.753823e-05
1.7906319e-05
1.8344696e-05
1.8858528e-05
1.9453402e-05
2.0138729e-05
2.0927077e-05
2.1833784e-05
2.2874264e-05
2.4067413e-05
2.5438465e-05
2.7018268e-05
2.8845892e-05
3.0968389e-05
3.3443181e-05
3.6338522e-05
3.9736221e-05
4.3739634e-05
4.8478834e-05
5.4099918e-05
6.0784904e-05
6.8762105e-05
7.8314431e-05
8.9771476e-05
0.00010354452
0.00012014027
0.00014018049
0.00016442724
0.00019381301
0.00022949219
0.0002728821
0.00032573103
0.00039018972
0.00046891486
0.00056520306
0.00068315898
0.00082790547
0.0010058442
0.0010170066
0.0010168467
0.0010166727
0.0010164447
0.0010161599
0.0010158073
0.0010153727
0.0010148368
0.0010141698
0.0010133223
0.0010122315
0.0010108378
0.0010090843
0.0010076171
0.0010063358
0.0010052451
0.0010042643
0.0010035002
0.0010036132
0.0010039
3.0739092e-07
8.4885355e-06
1.6980639e-05
1.8191086e-05
1.3263208e-05
1.5498466e-05
1.1170156e-05
1.4180122e-05
1.2265674e-05
1.5781627e-05
1.5152401e-05
1.6439584e-05
1.5877545e-05
1.5670399e-05
1.5369073e-05
1.5175592e-05
1.5055716e-05
1.5010355e-05
1.5034729e-05
1.5122934e-05
1.5274355e-05
1.548934e-05
1.5767098e-05
1.6108742e-05
1.6515253e-05
1.6991821e-05
1.7543692e-05
1.8179607e-05
1.8911204e-05
1.9753443e-05
2.0721367e-05
2.1832706e-05
2.3111396e-05
2.4586458e-05
2.6294983e-05
2.8281686e-05
3.0601508e-05
3.3320264e-05
3.6516319e-05
4.0287171e-05
4.4759804e-05
5.0075841e-05
5.6410405e-05
6.3982026e-05
7.3067831e-05
8.3987912e-05
9.7141109e-05
0.00011302026
0.00013223093
0.0001555179
0.00018379022
0.00021817656
0.00026006282
0.00031116162
0.00037358113
0.00044992545
0.0005434266
0.00065811097
0.00079900348
0.00097237322
0.0010164316
0.0010162421
0.0010160394
0.0010157852
0.0010154754
0.0010150991
0.0010146414
0.0010140825
0.0010133928
0.0010125219
0.0010114017
0.0010099962
0.0010083345
0.0010069525
0.0010057603
0.0010047499
0.0010038397
0.001003161
0.0010032322
0.0010032089
2.8023075e-07
8.3589728e-06
1.6329596e-05
1.7974654e-05
1.3054403e-05
1.3739372e-05
1.0563628e-05
1.2536112e-05
1.137566e-05
1.4047374e-05
1.3932496e-05
1.4665485e-05
1.429658e-05
1.4013376e-05
1.3763499e-05
1.3585145e-05
1.348038e-05
1.3441866e-05
1.3467249e-05
1.3550882e-05
1.3692161e-05
1.3891889e-05
1.4149515e-05
1.4466532e-05
1.4843913e-05
1.5286835e-05
1.5800266e-05
1.6392423e-05
1.7074044e-05
1.7859674e-05
1.876416e-05
1.9804286e-05
2.100296e-05
2.238768e-05
2.3993914e-05
2.5864431e-05
2.8052069e-05
3.062069e-05
3.3646433e-05
3.7221739e-05
4.1470755e-05
4.6532136e-05
5.2576506e-05
5.9813521e-05
6.8516388e-05
7.8998687e-05
9.1649786e-05
0.00010695227
0.00012549924
0.00014802379
0.0001754175
0.00020879073
0.00024950666
0.0002992524
0.00036010653
0.00043463598
0.00052602635
0.00063824716
0.00077625277
0.00094621677
0.001015895
0.0010156728
0.0010154366
0.0010151513
0.0010148121
0.0010144076
0.001013923
0.0010133372
0.0010126211
0.0010117259
0.0010105774
0.0010091463
0.0010075919
0.0010063022
0.0010052038
0.0010042756
0.001003442
0.0010028356
0.0010028434
0.0010024906
2.4882591e-07
8.288522e-06
1.5821082e-05
1.7013344e-05
1.295379e-05
1.2145465e-05
1.0616715e-05
1.1554279e-05
1.0970394e-05
1.2545171e-05
1.2834461e-05
1.3095454e-05
1.2827431e-05
1.2510667e-05
1.2289901e-05
1.2126822e-05
1.2033197e-05
1.2000365e-05
1.2026448e-05
1.2106324e-05
1.2239146e-05
1.2426073e-05
1.266656e-05
1.2886137e-05
1.3229311e-05
1.3635339e-05
1.4108446e-05
1.4656135e-05
1.5288058e-05
1.6018015e-05
1.6860616e-05
1.7831728e-05
1.8953308e-05
2.0251398e-05
2.1759952e-05
2.3519952e-05
2.5582254e-05
2.8008797e-05
3.0874243e-05
3.452559e-05
3.8592295e-05
4.344721e-05
4.9258889e-05
5.6229339e-05
6.462891e-05
7.4767596e-05
8.7028187e-05
0.00010188637
0.00011992591
0.00014187353
0.00016860858
0.00020122987
0.00024108554
0.00028984614
0.0003495719
0.00042280608
0.00051270345
0.00062319452
0.00075918558
0.00092678492
0.0010153925
0.0010151347
0.0010148604
0.0010145398
0.001014167
0.0010137307
0.0010132157
0.0010126
0.0010118543
0.0010109335
0.0010097624
0.0010083093
0.0010068653
0.0010056731
0.0010046714
0.0010038259
0.001003073
0.001002523
0.0010024421
0.0010019
2.2965026e-07
8.2483218e-06
1.5385551e-05
1.5479136e-05
1.1865524e-05
1.0587674e-05
9.1752867e-06
1.0314807e-05
9.632066e-06
1.127935e-05
1.1724969e-05
1.1649948e-05
1.1421949e-05
1.1112669e-05
1.0915819e-05
1.077259e-05
1.0692573e-05
1.0668355e-05
1.063313e-05
1.0696501e-05
1.0812901e-05
1.0982437e-05
1.1203042e-05
1.1474822e-05
1.1801954e-05
1.2187454e-05
1.263583e-05
1.3154516e-05
1.3752616e-05
1.4443496e-05
1.5241951e-05
1.616335e-05
1.7229189e-05
1.8464573e-05
1.9902556e-05
2.1582969e-05
2.3555449e-05
2.5880718e-05
2.8632849e-05
3.1902019e-05
3.579815e-05
4.0460444e-05
4.6057211e-05
5.3229473e-05
6.1406514e-05
7.1297127e-05
8.3280781e-05
9.7829519e-05
0.00011552112
0.00013708151
0.0001633834
0.00019552114
0.00023483617
0.00028299209
0.00034204265
0.00041452204
0.00050357098
0.00061310033
0.00074799128
0.00091431812
0.0010149184
0.0010146222
0.0010143061
0.0010139465
0.0010135367
0.0010130655
0.0010125173
0.0010118697
0.001011092
0.0010101436
0.0010089574
0.0010074953
0.001006161
0.0010050695
0.0010041663
0.0010034023
0.0010027287
0.001002232
0.0010020473
0.0010013545
2.1092304e-07
8.2068652e-06
1.4931527e-05
1.3549427e-05
9.7552359e-06
9.4124464e-06
7.5654905e-06
8.7984068e-06
8.9691761e-06
1.0144312e-05
1.0595696e-05
1.0302788e-05
1.0093973e-05
9.816086e-06
9.6436003e-06
9.4559107e-06
9.3665768e-06
9.3378701e-06
9.3625894e-06
9.4376188e-06
9.5591069e-06
9.7285833e-06
9.9448704e-06
1.0208025e-05
1.0522185e-05
1.0891262e-05
1.131981e-05
1.1815293e-05
1.2386443e-05
1.3046169e-05
1.3809544e-05
1.4691671e-05
1.5713861e-05
1.6900566e-05
1.8284268e-05
1.9904091e-05
2.1808913e-05
2.4058759e-05
2.672698e-05
2.9902818e-05
3.369635e-05
3.8244516e-05
4.3718049e-05
5.0314875e-05
5.8288826e-05
6.7955728e-05
8.0399001e-05
9.4772488e-05
0.00011227509
0.00013363725
0.000159731
0.00019165337
0.00023074761
0.0002786801
0.00033751019
0.00040977787
0.00049862726
0.00060796921
0.00074268249
0.00090883732
0.0010144671
0.0010141299
0.0010137691
0.0010133675
0.0010129179
0.0010124091
0.0010118257
0.0010111449
0.0010103342
0.0010093559
0.001008161
0.0010067127
0.0010054862
0.001004496
0.0010036913
0.0010030065
0.0010024014
0.0010019465
0.0010016696
0.0010009426
1.932885e-07
8.1657425e-06
1.3410889e-05
1.1797835e-05
7.8890787e-06
8.3660476e-06
6.7296611e-06
7.9373906e-06
8.302264e-06
9.0703196e-06
9.4753243e-06
9.0726285e-06
8.8706695e-06
8.545995e-06
8.3645392e-06
8.2467535e-06
8.1898139e-06
8.1851063e-06
8.2266781e-06
8.311652e-06
8.4398667e-06
8.6095376e-06
8.8227383e-06
9.0794461e-06
9.3840184e-06
9.7407547e-06
1.015436e-05
1.0632451e-05
1.1183523e-05
1.1820062e-05
1.2557469e-05
1.341088e-05
1.4401645e-05
1.5553831e-05
1.6899667e-05
1.8477959e-05
2.0337259e-05
2.2537411e-05
2.5151956e-05
2.8270391e-05
3.2002694e-05
3.6485165e-05
4.1891349e-05
4.8418877e-05
5.6323324e-05
6.5921849e-05
7.7605473e-05
9.1833034e-05
0.0001101849
0.00013153948
0.00015765287
0.00018963182
0.00022883051
0.00027692832
0.0003360028
0.00040861552
0.00049793253
0.0006078862
0.0007433767
0.00091049999
0.0010140327
0.0010136523
0.0010132446
0.0010127987
0.0010123073
0.0010117591
0.0010111386
0.001010424
0.0010095811
0.0010085709
0.0010073691
0.0010059695
0.0010048468
0.0010039557
0.0010032476
0.0010026412
0.0010020984
0.001001684
0.0010013446
0.0010005592
1.7853198e-07
8.1195743e-06
1.0653797e-05
9.7849747e-06
6.4798889e-06
7.4465726e-06
6.1320275e-06
7.1283092e-06
7.7627688e-06
8.0940638e-06
8.3743829e-06
7.8666616e-06
7.618687e-06
7.3910332e-06
7.2553142e-06
7.1751269e-06
7.1456291e-06
7.1617805e-06
7.2180682e-06
7.3137572e-06
7.4463022e-06
7.6179108e-06
7.8300198e-06
8.0831019e-06
8.3816021e-06
8.7302509e-06
9.1340154e-06
9.6007189e-06
1.0138815e-05
1.0760438e-05
1.1422371e-05
1.2248035e-05
1.3209017e-05
1.4328973e-05
1.5639869e-05
1.7180228e-05
1.8998343e-05
2.1153928e-05
2.3720829e-05
2.6789077e-05
3.0469552e-05
3.5173482e-05
4.056873e-05
4.7094885e-05
5.5009414e-05
6.4632032e-05
7.6363862e-05
9.0673314e-05
0.00010815097
0.00012953279
0.00015714498
0.00018945621
0.00022908989
0.00027774904
0.00033754264
0.00041107058
0.00050154077
0.00061293062
0.00075018759
0.0009194631
0.0010136095
0.0010131838
0.001012728
0.0010122363
0.0010117016
0.0010111128
0.0010104543
0.0010097052
0.0010088326
0.001007792
0.0010065757
0.0010052714
0.001004248
0.0010034508
0.0010028354
0.0010023081
0.0010018237
0.0010014502
0.0010011038
0.0010002798
1.6528194e-07
8.0724139e-06
8.4046355e-06
8.3244667e-06
5.6990289e-06
6.5919573e-06
5.626966e-06
6.4205184e-06
7.211835e-06
7.1813624e-06
7.1799465e-06
6.7474347e-06
6.5441372e-06
6.37536e-06
6.2785453e-06
6.2297562e-06
6.2243089e-06
6.258134e-06
6.3277143e-06
6.4327406e-06
6.5719283e-06
6.7469224e-06
6.9602342e-06
7.2127954e-06
7.5091342e-06
7.8204674e-06
8.2128079e-06
8.6673957e-06
9.1925467e-06
9.7999551e-06
1.0503705e-05
1.1322135e-05
1.227591e-05
1.3388746e-05
1.4692891e-05
1.6227246e-05
1.8040663e-05
2.0193601e-05
2.2761323e-05
2.5835687e-05
2.953008e-05
3.3986192e-05
3.9377588e-05
4.5912302e-05
5.3851654e-05
6.4072738e-05
7.5965357e-05
9.0489311e-05
0.00010824413
0.0001299864
0.00015663961
0.00019112442
0.00023153021
0.00028115567
0.00034215493
0.00041718426
0.00050951505
0.00062319578
0.00076325074
0.00093591651
0.0010131918
0.0010127192
0.0010122149
0.0010116767
0.0010110979
0.001010468
0.001009771
0.0010089867
0.0010080867
0.0010070252
0.0010057849
0.0010046212
0.0010036934
0.0010029827
0.0010024533
0.001002007
0.0010015805
0.0010012422
0.0010009518
0.0010000984
1.5345135e-07
8.0146008e-06
6.6827692e-06
7.3017555e-06
5.0750419e-06
5.8280792e-06
5.1918932e-06
5.7920153e-06
6.555682e-06
6.1457343e-06
6.1012553e-06
5.7674761e-06
5.6052941e-06
5.4841504e-06
5.4206622e-06
5.3988926e-06
5.4145354e-06
5.4651066e-06
5.5477133e-06
5.6628017e-06
5.8096669e-06
5.9902358e-06
6.1810606e-06
6.4306603e-06
6.7236525e-06
7.0641689e-06
7.4592158e-06
7.9162862e-06
8.4439102e-06
9.0539776e-06
9.7607149e-06
1.058223e-05
1.154041e-05
1.2659321e-05
1.3971739e-05
1.5517304e-05
1.7345953e-05
1.9519384e-05
2.211497e-05
2.5227397e-05
2.8972759e-05
3.3495731e-05
3.8978536e-05
4.5634119e-05
5.373151e-05
6.3605282e-05
7.5670991e-05
9.0430683e-05
0.00010945791
0.00013175274
0.00015909965
0.00019267258
0.0002361487
0.00028715481
0.00034985835
0.00042699157
0.00052191302
0.00063877066
0.00078270089
0.00096005727
0.0010127746
0.0010122536
0.0010117012
0.0010111164
0.0010104933
0.0010098222
0.0010090874
0.0010082675
0.0010073395
0.0010062741
0.0010050562
0.0010040191
0.0010031851
0.0010025525
0.0010020996
0.0010017343
0.0010013709
0.0010010636
0.0010008354
0.00100002
1.4288968e-07
7.9434197e-06
5.3566941e-06
6.3736616e-06
4.5188967e-06
5.1477865e-06
4.8195539e-06
5.1511523e-06
5.7318817e-06
5.2455144e-06
5.1541285e-06
4.9094025e-06
4.7858793e-06
4.7045245e-06
4.6705956e-06
4.6731797e-06
4.7085557e-06
4.7752678e-06
4.8712394e-06
4.9785472e-06
5.1289698e-06
5.312944e-06
5.5327143e-06
5.7912157e-06
6.0926898e-06
6.4416521e-06
6.8450317e-06
7.3109475e-06
7.8481516e-06
8.4686914e-06
9.1869104e-06
1.0021134e-05
1.0943881e-05
1.2069781e-05
1.3391312e-05
1.4948822e-05
1.6793537e-05
1.8988455e-05
2.1613103e-05
2.4765501e-05
2.8565458e-05
3.341367e-05
3.9039778e-05
4.5879104e-05
5.4209506e-05
6.4374553e-05
7.680892e-05
9.2035833e-05
0.00011069557
0.00013480822
0.0001630828
0.00019780931
0.00024047813
0.00029573963
0.00036065788
0.00044051283
0.00053877727
0.00065972879
0.00080865782
0.00099207505
0.0010123532
0.0010117829
0.0010111833
0.0010105528
0.0010098855
0.0010091734
0.0010084016
0.0010075482
0.0010065904
0.0010055224
0.0010043859
0.0010034663
0.0010027238
0.0010021623
0.0010017742
0.0010014833
0.001001188
0.0010009136
0.0010007396
0.00099996645
1.3346517e-07
7.8119951e-06
4.3446495e-06
5.5473177e-06
4.0213494e-06
4.5416149e-06
4.4921906e-06
4.454768e-06
4.9011597e-06
4.4422074e-06
4.3326923e-06
4.1613319e-06
4.0745578e-06
4.0276105e-06
4.0205508e-06
4.0456615e-06
4.0999325e-06
4.1659903e-06
4.2704107e-06
4.4047806e-06
4.5699456e-06
4.7674136e-06
5.000117e-06
5.271197e-06
5.5854619e-06
5.9476922e-06
6.3648826e-06
6.8249106e-06
7.3724545e-06
8.0040441e-06
8.7340623e-06
9.5808462e-06
1.0566814e-05
1.1720142e-05
1.3074439e-05
1.4671343e-05
1.6564355e-05
1.8818788e-05
2.151725e-05
2.4762633e-05
2.8680122e-05
3.3427476e-05
3.9195444e-05
4.6218952e-05
5.4787384e-05
6.5804641e-05
7.8715197e-05
9.4536728e-05
0.00011393974
0.00013775034
0.00016855366
0.00020471569
0.00024916268
0.00030380044
0.0003745319
0.00045773918
0.00056011799
0.00068610789
0.00084119986
0.0010125373
0.0010119234
0.0010113038
0.0010106583
0.0010099833
0.0010092729
0.0010085197
0.0010077115
0.0010068282
0.0010058458
0.0010047645
0.0010037725
0.0010029625
0.0010023092
0.001001815
0.0010014799
0.0010012481
0.0010010235
0.0010008062
0.0010006838
0.0010000058
1.2510053e-07
7.4868781e-06
3.6458259e-06
4.8136454e-06
3.5777609e-06
4.00394e-06
3.9807257e-06
3.8241862e-06
4.1014414e-06
3.7319161e-06
3.6284457e-06
3.5155846e-06
3.4632366e-06
3.446655e-06
3.4641781e-06
3.4973796e-06
3.5637095e-06
3.6589678e-06
3.7823602e-06
3.9341271e-06
4.115743e-06
4.3292366e-06
4.5779609e-06
4.8653454e-06
5.1847118e-06
5.5609628e-06
5.9926292e-06
6.4877987e-06
7.0566426e-06
7.7112745e-06
8.4664477e-06
9.341238e-06
1.0358977e-05
1.1548901e-05
1.2946931e-05
1.4596218e-05
1.6553106e-05
1.8885958e-05
2.1680739e-05
2.5046418e-05
2.9113125e-05
3.4046476e-05
4.0049542e-05
4.7367613e-05
5.6306199e-05
6.7239963e-05
8.1345834e-05
9.7889475e-05
0.00011818637
0.00014311189
0.00017371842
0.00021333222
0.00025989603
0.0003171507
0.00038754853
0.00047861125
0.0005858883
0.00071788203
0.00088032795
0.0010121322
0.0010114815
0.0010108141
0.0010101239
0.0010094061
0.001008654
0.0010078605
0.0010070156
0.0010061039
0.0010051138
0.0010040721
0.0010032128
0.0010025064
0.0010019395
0.0010015124
0.0010012219
0.0010010314
0.0010008643
0.0010007144
0.0010005874
0.0010000437
1.1787519e-07
7.0805781e-06
3.2017668e-06
4.162519e-06
3.1825749e-06
3.3780654e-06
3.527577e-06
3.2464058e-06
3.3788087e-06
3.1149717e-06
3.0323105e-06
2.9656645e-06
2.9445717e-06
2.9551148e-06
2.9801616e-06
3.0419726e-06
3.1315288e-06
3.2476461e-06
3.3904356e-06
3.5608666e-06
3.7609565e-06
3.9930149e-06
4.2525133e-06
4.5567825e-06
4.9049864e-06
5.3027996e-06
5.7570438e-06
6.2760933e-06
6.8703212e-06
7.5526062e-06
8.3381663e-06
9.2468818e-06
1.0303136e-05
1.1537623e-05
1.2932656e-05
1.4631403e-05
1.6648745e-05
1.9056612e-05
2.2076907e-05
2.5588127e-05
2.9835341e-05
3.4992014e-05
4.1274701e-05
4.8941813e-05
5.8314342e-05
6.9789479e-05
8.3854159e-05
0.00010110542
0.00012336839
0.00014958501
0.00018179067
0.00022136732
0.00027257182
0.00033285035
0.00040697466
0.00050299248
0.0006159514
0.0007549246
0.00092593052
0.0010117151
0.0010110255
0.001010313
0.0010095791
0.0010088198
0.0010080282
0.0010071959
0.0010063155
0.0010053766
0.0010043787
0.0010034556
0.0010027078
0.0010020967
0.0010016104
0.0010012518
0.0010010024
0.0010008367
0.0010006986
0.0010006062
0.0010005332
0.0010000686
1.1204741e-07
6.105927e-06
2.8220363e-06
3.5711424e-06
2.8396673e-06
2.8008048e-06
3.0768372e-06
2.7235331e-06
2.758728e-06
2.5880691e-06
2.5329387e-06
2.503762e-06
2.5033422e-06
2.5313812e-06
2.5906625e-06
2.6771421e-06
2.7889463e-06
2.9259078e-06
3.0888871e-06
3.2792939e-06
3.4943817e-06
3.7451747e-06
4.0317693e-06
4.3582128e-06
4.72934e-06
5.1510156e-06
5.6303708e-06
6.1761016e-06
6.7989018e-06
7.4956005e-06
8.3100818e-06
9.2506332e-06
1.0342632e-05
1.161787e-05
1.3116111e-05
1.4887065e-05
1.6992191e-05
1.9508426e-05
2.2531226e-05
2.6178523e-05
3.0596732e-05
3.6225292e-05
4.2827464e-05
5.0893298e-05
6.0760493e-05
7.2848645e-05
8.7673476e-05
0.00010586926
0.00012939182
0.00015706294
0.00019106972
0.00023287003
0.00028702289
0.00035070976
0.00042904524
0.00052540582
0.00065004185
0.00079695995
0.0009777321
0.0010112842
0.001010556
0.0010098013
0.0010090248
0.0010082247
0.0010073952
0.0010065266
0.0010056123
0.0010046579
0.0010036935
0.0010029065
0.0010022593
0.0010017335
0.001001319
0.0010010227
0.0010008178
0.0010006701
0.0010005457
0.0010004955
0.0010004529
0.0010001244
1.07183e-07
4.2656162e-06
2.4773428e-06
3.0231888e-06
2.4095441e-06
2.3168184e-06
2.605265e-06
2.2585779e-06
2.2429227e-06
2.144516e-06
2.1197791e-06
2.1158154e-06
2.143238e-06
2.2015052e-06
2.2865901e-06
2.3961744e-06
2.5295976e-06
2.6873729e-06
2.8681391e-06
3.077957e-06
3.3178386e-06
3.5906289e-06
3.8997887e-06
4.2495252e-06
4.6449099e-06
5.092052e-06
5.5983646e-06
6.1635399e-06
6.8137649e-06
7.556346e-06
8.4084321e-06
9.3913205e-06
1.0531853e-05
1.1863737e-05
1.3429232e-05
1.5281007e-05
1.748453e-05
2.012126e-05
2.3292544e-05
2.7124137e-05
3.1771854e-05
3.7427796e-05
4.4659353e-05
5.3165853e-05
6.3579679e-05
7.6344836e-05
9.200759e-05
0.00011124114
0.0001348746
0.00016539912
0.00020138436
0.00024563193
0.00030005404
0.0003704466
0.00045342945
0.00055553332
0.00068772189
0.00084350336
0.0010116012
0.0010108406
0.0010100743
0.0010092813
0.0010084642
0.0010076232
0.0010067562
0.0010058556
0.0010049119
0.0010039423
0.0010031039
0.0010024225
0.0010018666
0.0010014178
0.0010010732
0.0010008242
0.0010006605
0.0010005309
0.0010004137
0.0010003927
0.0010003905
0.0010001854
1.0201114e-07
3.5188859e-06
2.118926e-06
2.5194645e-06
2.0571252e-06
1.9123047e-06
2.1220664e-06
1.8513699e-06
1.8237039e-06
1.7801274e-06
1.7816144e-06
1.8084255e-06
1.8673806e-06
1.9522377e-06
2.0606323e-06
2.191692e-06
2.3456602e-06
2.521691e-06
2.7245733e-06
2.9554203e-06
3.2167591e-06
3.5116517e-06
3.8437585e-06
4.2174493e-06
4.6379688e-06
5.111646e-06
5.6398473e-06
6.2418773e-06
6.9250539e-06
7.7037422e-06
8.5960103e-06
9.6244129e-06
1.0817319e-05
1.2210394e-05
1.3848533e-05
1.5787952e-05
1.8098448e-05
2.0866539e-05
2.4199831e-05
2.8231332e-05
3.312615e-05
3.9371389e-05
4.6713283e-05
5.5692834e-05
6.669339e-05
8.01849e-05
9.6746066e-05
0.00011709006
0.00014341215
0.00017440091
0.00021250355
0.00025937364
0.00031704358
0.00039166437
0.00047966399
0.00058798885
0.00072832988
0.00089378887
0.0010111683
0.001010385
0.0010095833
0.0010087564
0.0010079024
0.0010070217
0.0010061154
0.0010051846
0.0010042342
0.0010033107
0.001002591
0.0010020045
0.0010015295
0.0010011462
0.0010008582
0.0010006563
0.0010005242
0.0010004132
0.0010003068
0.0010002971
0.0010003315
0.00100022
9.8214934e-08
2.8100724e-06
1.8085625e-06
2.0143662e-06
1.7657765e-06
1.5663385e-06
1.6766288e-06
1.506684e-06
1.4938647e-06
1.493686e-06
1.5218263e-06
1.5815609e-06
1.6669873e-06
1.7746301e-06
1.9035746e-06
2.0540359e-06
2.2259517e-06
2.4224543e-06
2.6451123e-06
2.8962451e-06
3.1786256e-06
3.495495e-06
3.8506492e-06
4.2485783e-06
4.6946631e-06
5.191844e-06
5.753413e-06
6.3868058e-06
7.1040251e-06
7.9201303e-06
8.8542345e-06
9.9302201e-06
1.1178154e-05
1.263579e-05
1.4350615e-05
1.6382357e-05
1.8805689e-05
2.1712302e-05
2.521671e-05
2.9459904e-05
3.4844464e-05
4.1181187e-05
4.8921409e-05
5.8395231e-05
7.0007358e-05
8.4256243e-05
0.00010175485
0.00012325924
0.00015104998
0.00018381864
0.00022412948
0.00027373788
0.00033480877
0.00041381865
0.00050710042
0.00062200269
0.00077093099
0.00094670334
0.0010107306
0.0010099212
0.0010090876
0.0010082303
0.0010073452
0.0010064303
0.0010054868
0.0010045226
0.0010035682
0.0010027868
0.0010021554
0.0010016501
0.0010012472
0.001000932
0.0010006841
0.001000521
0.0010004115
0.0010003146
0.0010002247
0.0010002305
0.0010002842
0.0010002243
9.5997311e-08
2.1919497e-06
1.5387237e-06
1.5342386e-06
1.4971515e-06
1.2706902e-06
1.3143765e-06
1.2317297e-06
1.2464326e-06
1.2769892e-06
1.3383935e-06
1.4240065e-06
1.5307965e-06
1.6574288e-06
1.8041538e-06
1.9719773e-06
2.1617438e-06
2.3764414e-06
2.6178906e-06
2.8886334e-06
3.1915865e-06
3.530109e-06
3.9080992e-06
4.3301449e-06
4.8017323e-06
5.32953e-06
5.9217576e-06
6.5886301e-06
7.3344408e-06
8.1884818e-06
9.1651073e-06
1.0289616e-05
1.1593897e-05
1.311799e-05
1.4912032e-05
1.7108212e-05
1.9666291e-05
2.2737585e-05
2.6444157e-05
3.0936617e-05
3.64005e-05
4.3064011e-05
5.1209132e-05
6.118304e-05
7.3413434e-05
8.8427563e-05
0.00010687426
0.00013068486
0.00015878468
0.00019335097
0.00023589329
0.00028827462
0.00035613519
0.00043621673
0.00053489958
0.00065656448
0.00081428282
0.0010007598
0.0010102957
0.0010094591
0.0010085957
0.0010077096
0.0010067973
0.0010058564
0.0010048868
0.0010039099
0.0010030378
0.00100235
0.0010017992
0.0010013598
0.0010010113
0.001000757
0.0010005513
0.0010004178
0.0010003235
0.0010002358
0.0010001621
0.001000181
0.0010002485
0.0010002278
9.6142883e-08
1.6649759e-06
1.311026e-06
1.1668186e-06
1.2272484e-06
1.0233047e-06
1.0485463e-06
1.0285571e-06
1.0716228e-06
1.1315646e-06
1.2170042e-06
1.3221655e-06
1.4459581e-06
1.588516e-06
1.7508889e-06
1.9345704e-06
2.1410783e-06
2.3729865e-06
2.6324619e-06
2.9221579e-06
3.2450767e-06
3.6046553e-06
4.0048771e-06
4.45043e-06
4.946927e-06
5.5012022e-06
6.1217094e-06
6.8190189e-06
7.6064374e-06
8.5007934e-06
9.5233623e-06
1.0701096e-05
1.2067965e-05
1.3666702e-05
1.5550817e-05
1.7787087e-05
2.0458629e-05
2.3668885e-05
2.7545887e-05
3.224817e-05
3.7971586e-05
4.4957132e-05
5.3499646e-05
6.3964507e-05
7.6800733e-05
9.3328403e-05
0.00011284363
0.0001368326
0.00016634053
0.00020265875
0.00024738088
0.00030531569
0.0003737188
0.00045804355
0.00056205895
0.00069714592
0.00085683684
0.0010107312
0.0010098736
0.0010090103
0.0010081207
0.0010072068
0.001006268
0.0010053064
0.0010043288
0.0010033686
0.0010026118
0.0010020008
0.0010015175
0.0010011371
0.0010008406
0.0010006116
0.0010004513
0.0010003397
0.0010002565
0.0010001757
0.0010001157
0.0010001439
0.0010002204
0.001000223
9.9452265e-08
1.2349199e-06
1.1224909e-06
8.981644e-07
1.0699403e-06
8.19257e-07
8.6606306e-07
8.9081526e-07
9.5663749e-07
1.0396622e-06
1.1424948e-06
1.2626636e-06
1.4005292e-06
1.5570756e-06
1.7337657e-06
1.9323126e-06
2.1546636e-06
2.4028424e-06
2.679482e-06
2.9872131e-06
3.3291021e-06
3.7086583e-06
4.1299525e-06
4.5977829e-06
5.1179031e-06
5.6973314e-06
6.3447677e-06
7.0711614e-06
7.8903408e-06
8.8198713e-06
9.8819852e-06
1.110492e-05
1.2524302e-05
1.4184976e-05
1.6143113e-05
1.8468839e-05
2.1249363e-05
2.4592834e-05
2.8633061e-05
3.3535336e-05
3.9773344e-05
4.7118516e-05
5.6100967e-05
6.7104562e-05
8.0601461e-05
9.7173728e-05
0.00011753955
0.00014258546
0.0001734032
0.00021332331
0.00026042051
0.00031845538
0.00039001633
0.00047831719
0.00059308169
0.00072880956
0.00089660646
0.0010103446
0.0010094709
0.0010085857
0.0010076758
0.0010067401
0.0010057767
0.0010047898
0.0010038075
0.0010029544
0.0010022742
0.0010017302
0.0010012988
0.0010009576
0.0010007093
0.0010005049
0.0010003742
0.0010002799
0.0010002042
0.0010001297
0.0010000798
0.0010001085
0.0010001829
0.001000199
1.0603322e-07
9.5588728e-07
9.5808558e-07
7.5951411e-07
7.6276282e-07
6.9876403e-07
7.438691e-07
8.0370327e-07
8.8676883e-07
9.859077e-07
1.1018072e-06
1.234363e-06
1.3846261e-06
1.553907e-06
1.7437933e-06
1.9560567e-06
2.1926766e-06
2.4558572e-06
2.7480662e-06
3.0720798e-06
3.4310481e-06
3.8285832e-06
4.2688842e-06
4.7569129e-06
5.2986393e-06
5.8992592e-06
6.5708512e-06
7.3233973e-06
8.1785672e-06
9.1431954e-06
1.0245544e-05
1.1515255e-05
1.2989699e-05
1.4715853e-05
1.6752519e-05
1.9173011e-05
2.2068429e-05
2.5551675e-05
2.976235e-05
3.4872826e-05
4.1095726e-05
4.8693172e-05
5.7988043e-05
6.9376311e-05
8.3347884e-05
0.00010050618
0.00012267841
0.00014882027
0.00018098606
0.00022059381
0.00026939967
0.00032958474
0.00040385848
0.00050030339
0.00061452306
0.00075580821
0.00093075251
0.0010099954
0.001009103
0.0010081965
0.0010072691
0.0010063199
0.001005348
0.0010043597
0.0010033929
0.0010026339
0.001002017
0.0010015262
0.0010011374
0.0010008313
0.0010006215
0.0010004262
0.0010003086
0.0010002316
0.0010001613
0.0010000954
0.0010000559
0.0010000822
0.0010001479
0.0010001612
1.2056738e-07
9.598039e-07
7.9946167e-07
5.6315431e-07
6.0616065e-07
6.0907365e-07
6.7242234e-07
7.5101278e-07
8.4757424e-07
9.5886115e-07
1.0858516e-06
1.2293638e-06
1.3906833e-06
1.5712155e-06
1.7725732e-06
1.9965522e-06
2.2451601e-06
2.5206417e-06
2.8255154e-06
3.1626179e-06
3.5351647e-06
3.9468373e-06
4.4019059e-06
4.9054073e-06
5.4633958e-06
6.0832876e-06
6.7743184e-06
7.5481303e-06
8.419517e-06
9.4073148e-06
1.0535475e-05
1.1834409e-05
1.3342514e-05
1.5108069e-05
1.7191494e-05
1.9668085e-05
2.2631365e-05
2.619714e-05
3.0508492e-05
3.5741922e-05
4.2115027e-05
5.0253421e-05
5.9846842e-05
7.1598352e-05
8.6013403e-05
0.00010371448
0.00012547088
0.00015223396
0.00018518163
0.00022577237
0.00027582052
0.00034069742
0.00041752752
0.00051248135
0.00062996691
0.00077550547
0.00095601244
0.0010097124
0.0010087996
0.0010078693
0.0010069192
0.0010059491
0.0010049619
0.0010039778
0.001003092
0.0010023928
0.0010018275
0.0010013779
0.0010010229
0.0010007504
0.001000539
0.0010003883
0.0010002468
0.0010001948
0.0010001266
0.0010000697
0.0010000387
0.0010000611
0.0010001149
0.001000117
1.1054357e-07
6.1961387e-07
6.3393213e-07
4.6637952e-07
5.0862472e-07
5.5426206e-07
6.327275e-07
7.2492771e-07
8.3214758e-07
9.5371658e-07
1.0907029e-06
1.2441535e-06
1.4153809e-06
1.6058442e-06
1.8171892e-06
2.0512578e-06
2.3101123e-06
2.5960276e-06
2.9116338e-06
3.2598172e-06
3.6438635e-06
4.0675251e-06
4.5351459e-06
5.0518397e-06
5.6237456e-06
6.2583794e-06
6.9650996e-06
7.7557131e-06
8.6523035e-06
9.6630739e-06
1.0817324e-05
1.2146248e-05
1.3689172e-05
1.5495512e-05
1.7627045e-05
2.0160727e-05
2.3192083e-05
2.6839375e-05
3.1248724e-05
3.6600399e-05
4.3116545e-05
5.1070656e-05
6.0799238e-05
7.2718098e-05
8.7339458e-05
0.0001052961
0.00012737043
0.00015588711
0.00018957915
0.00023108934
0.00028228122
0.00034547355
0.00042356125
0.00052016614
0.00063983031
0.00078826283
0.00097263757
0.0010095245
0.0010085964
0.0010076471
0.0010066772
0.0010056872
0.0010046841
0.0010037007
0.0010028807
0.0010022216
0.0010016919
0.0010012696
0.0010009342
0.0010006854
0.0010004947
0.0010003551