/*--------------------------------*- C++ -*----------------------------------*\
  =========                 |
  \\      /  F ield         | OpenFOAM: The Open Source CFD Toolbox
   \\    /   O peration     | Website:  https://openfoam.org
    \\  /    A nd           | Version:  12
     \\/     M anipulation  |
\*---------------------------------------------------------------------------*/
FoamFile
{
    format      ascii;
    class       volScalarField;
    location    "0.095";
    object      p;
}
// * * * * * * * * * * * * * * * * * * * * * * * * * * * * * * * * * * * * * //

dimensions      [1 -1 -2 0 0 0 0];

internalField   nonuniform List<scalar> 
16000
(
89688.378
89814.687
89826.594
89961.359
89987.405
90115.152
90165.56
90282.591
90356.443
90467.752
90559.93
90671.109
90777.4
90892.872
91010.224
91133.034
91259.91
91391.455
91527.547
91668.273
91813.642
91963.658
92118.304
92277.537
92441.29
92609.468
92781.946
92958.566
93139.14
93323.445
93511.222
93702.18
93895.991
94092.296
94290.704
94490.794
94692.121
94894.215
95096.59
95298.745
95500.173
95700.363
95898.809
96095.011
96288.487
96478.772
96665.429
96848.05
97026.26
97199.722
97368.139
97531.251
97688.842
97840.737
97986.803
98126.948
98261.122
98389.309
98511.528
98627.834
98738.307
98843.05
98942.181
99035.832
99124.142
99207.249
99285.297
99358.433
99426.811
99490.601
99549.999
99605.199
99656.346
99703.823
99748.174
99788.365
99824.871
99867.876
99888.162
99917.914
89317.614
89460.896
89470.184
89617.147
89644.877
89783.621
89836.459
89964.849
90042.549
90164.03
90262.619
90382.764
90497.384
90621.726
90748.343
90880.636
91017.404
91159.133
91305.743
91457.289
91613.768
91775.158
91941.411
92112.453
92288.176
92468.441
92653.077
92841.876
93034.593
93230.948
93430.621
93633.259
93838.47
94045.83
94254.884
94465.149
94676.119
94887.27
95098.066
95307.963
95516.418
95722.895
95926.871
96127.839
96325.322
96518.87
96708.071
96892.55
97071.977
97246.063
97414.564
97577.281
97734.059
97884.788
98029.398
98167.858
98300.175
98426.388
98546.566
98660.805
98769.222
98871.948
98969.125
99060.9
99147.424
99228.844
99305.308
99376.966
99443.968
99506.485
99564.706
99618.794
99668.914
99715.534
99758.861
99797.667
99834.895
99875.064
99891.823
99930.248
88978.553
89137.357
89146.486
89306.793
89334.527
89487.045
89541.516
89682.241
89764.784
89896.778
90003.133
90132.864
90257.062
90391.279
90528.352
90671.33
90819.22
90972.383
91130.754
91294.346
91463.127
91637.04
91815.997
91999.88
92188.534
92381.771
92579.362
92781.04
92986.499
93195.387
93407.318
93621.863
93838.557
94056.904
94276.374
94496.418
94716.466
94935.936
95154.244
95370.806
95585.052
95796.427
96004.403
96208.483
96408.21
96603.165
96792.98
96977.334
97155.953
97328.618
97495.156
97655.443
97809.401
97956.994
98098.226
98233.138
98361.801
98484.313
98600.797
98711.395
98816.26
98915.554
99009.44
99098.083
99181.641
99260.271
99334.124
99403.349
99468.098
99528.537
99584.845
99637.158
99685.674
99730.867
99772.608
99809.93
99846.986
99884.057
99897.599
99943.674
88674.452
88844.08
88854.252
89029.932
89057.119
89225.897
89282.58
89437.635
89525.986
89670.054
89785.681
89926.377
90061.8
90207.374
90356.443
90511.597
90672.052
90838.044
91009.513
91186.435
91368.746
91556.351
91749.122
91946.894
92149.459
92356.567
92567.924
92783.191
93001.98
93223.861
93448.36
93674.961
93903.113
94132.233
94361.715
94590.931
94819.247
95046.026
95270.638
95492.471
95710.935
95925.476
96135.579
96340.776
96540.648
96734.835
96923.031
97104.988
97280.517
97449.483
97611.802
97767.441
97916.41
98058.763
98194.585
98323.993
98447.129
98564.155
98675.247
98780.593
98880.383
98974.809
99064.055
99148.298
99227.708
99302.446
99372.664
99438.51
99500.131
99557.691
99611.343
99661.204
99707.503
99750.66
99790.247
99825.757
99861.935
99895.312
99905.706
99959.034
88408.774
88593.375
88600.224
88794.722
88820.851
89008.131
89067.026
89238.302
89333.786
89491.38
89618.102
89770.994
89919.197
90077.403
90239.736
90408.283
90582.474
90762.457
90948.173
91139.567
91336.542
91538.959
91746.637
91959.345
92176.804
92398.683
92624.598
92854.114
93086.746
93321.957
93559.17
93797.765
94037.091
94276.471
94515.211
94752.61
94987.971
95220.608
95449.862
95675.107
95895.758
96111.282
96321.203
96525.11
96722.652
96913.55
97097.59
97274.622
97444.561
97607.375
97763.089
97911.771
98053.534
98188.524
98316.913
98438.899
98554.695
98664.523
98768.612
98867.192
98960.487
99048.715
99132.075
99210.757
99284.937
99354.776
99420.427
99482.032
99539.733
99593.682
99644.005
99690.804
99734.336
99774.906
99811.844
99845.239
99879.989
99908.981
99916.506
99976.967
88186.49
88388.75
88393.524
88609.113
88634.134
88841.917
88903.112
89092.319
89196.173
89368.087
89507.182
89672.811
89834.733
90006.416
90182.968
90365.988
90555.082
90750.318
90951.609
91158.848
91371.875
91590.476
91814.387
92043.281
92276.777
92514.433
92755.748
93000.164
93247.069
93495.805
93745.668
93995.922
94245.806
94494.543
94741.357
94985.477
95226.159
95462.688
95694.398
95920.676
96140.973
96354.813
96561.792
96761.586
96953.949
97138.714
97315.786
97485.139
97646.81
97800.894
97947.532
98086.907
98219.238
98344.766
98463.752
98576.47
98683.2
98784.22
98879.806
98970.221
99055.72
99136.535
99212.882
99284.954
99352.93
99416.969
99477.218
99533.811
99586.882
99636.564
99682.952
99726.141
99766.403
99803.875
99837.72
99868.737
99901.502
99925.453
99930.65
99997.994
88008.226
88231.429
88233.411
88473.71
88497.722
88729.779
88794.192
89002.899
89115.138
89300.702
89453.08
89632.048
89809.021
89995.687
90188.146
90387.489
90593.406
90805.856
91024.685
91249.697
91480.636
91717.183
91958.954
92205.5
92456.305
92710.784
92968.29
93228.119
93489.508
93751.656
94013.721
94274.843
94534.149
94790.772
95043.863
95292.605
95536.231
95774.032
96005.369
96229.686
96446.511
96655.463
96856.257
97048.697
97232.676
97408.171
97575.235
97733.988
97884.611
98027.332
98162.422
98290.179
98410.925
98524.997
98632.736
98734.486
98830.583
98921.351
99007.103
99088.127
99164.695
99237.053
99305.417
99369.985
99430.928
99488.4
99542.539
99593.468
99641.307
99686.164
99728.101
99767.217
99803.773
99837.689
99868.085
99896.528
99926.735
99945.066
99948.486
100022.58
87867.979
88115.778
88113.443
88383.535
88404.414
88663.358
88730.901
88958.719
89082.602
89284.237
89453.569
89648.711
89843.768
90048.351
90259.524
90477.953
90703.361
90935.605
91174.439
91419.556
91670.578
91927.05
92188.44
92454.138
92723.46
92995.65
93269.884
93545.282
93820.917
94095.827
94369.03
94639.544
94906.398
95168.654
95425.422
95675.877
95919.272
96154.949
96382.355
96601.037
96810.656
97010.982
97201.891
97383.359
97555.456
97718.333
97872.216
98017.387
98154.178
98282.96
98404.126
98518.088
98625.265
98726.074
98820.926
98910.22
98994.334
99073.627
99148.43
99219.049
99285.761
99348.811
99408.415
99464.76
99518.01
99568.308
99615.775
99660.522
99702.651
99742.235
99779.31
99813.986
99846.472
99876.445
99903.143
99928.873
99955.925
99968.211
99970.52
100051.17
87763.692
88039.914
88033.167
88340.237
88355.17
88642.865
88715.752
88965.568
89106.307
89326.562
89516.556
89730.825
89947.061
90172.689
90405.606
90646.126
90893.944
91148.787
91410.282
91677.974
91951.318
92229.681
92512.34
92798.484
93087.221
93377.584
93668.546
93959.03
94247.929
94534.122
94816.496
95093.967
95365.499
95630.125
95886.965
96135.243
96374.296
96603.588
96822.713
97031.395
97229.487
97416.966
97593.917
97760.532
97917.085
98063.926
98201.464
98330.149
98450.466
98562.915
98668.007
98766.248
98858.136
98944.154
99024.762
99100.395
99171.457
99238.321
99301.326
99360.778
99416.947
99470.07
99520.349
99567.957
99613.044
99655.734
99696.131
99734.33
99770.406
99804.397
99836.319
99866.295
99894.427
99920.162
99943.044
99965.972
99989.247
99995.332
99997.397
100084.08
87698.072
88007.503
87997.648
88341.737
88355.889
88675.871
88760.205
89035.398
89196.171
89437.057
89651.369
89887.985
90128.686
90378.783
90636.77
90902.653
91176.02
91456.432
91743.334
92036.069
92333.875
92635.884
92941.126
93248.539
93556.98
93865.238
94172.057
94476.155
94776.248
95071.075
95359.425
95640.158
95912.234
96174.725
96426.842
96667.94
96897.532
97115.286
97321.028
97514.731
97696.507
97866.59
98025.319
98173.125
98310.508
98438.018
98556.247
98665.803
98767.304
98861.364
98948.583
99029.54
99104.79
99174.853
99240.215
99301.325
99358.594
99412.39
99463.044
99510.846
99556.051
99598.873
99639.496
99678.071
99714.725
99749.562
99782.666
99814.109
99843.936
99872.148
99898.756
99923.881
99947.467
99968.787
99987.886
100007.96
100026.83
100026.75
100029.83
100121.64
87677.876
88026.783
88012.951
88397.659
88415.745
88772.287
88871.682
89174.15
89360.672
89625.054
89867.939
90130.871
90399.806
90678.218
90964.958
91259.748
91562.003
91871.053
92186.096
92506.2
92830.311
93157.256
93485.755
93814.441
94141.88
94466.598
94787.104
95101.925
95409.633
95708.879
95998.42
96277.149
96544.115
96798.543
97039.844
97267.621
97481.667
97681.956
97868.631
98041.984
98202.437
98350.519
98486.842
98612.083
98726.959
98832.21
98928.583
99016.817
99097.633
99171.724
99239.749
99302.328
99360.038
99413.411
99462.935
99509.048
99552.144
99592.574
99630.64
99666.607
99700.7
99733.106
99763.979
99793.445
99821.604
99848.534
99874.297
99898.939
99922.468
99944.856
99966.121
99986.354
100005.3
100022.18
100037.68
100054.85
100068.72
100062.88
100068.51
100164.12
87711.816
88107.676
88089.936
88522.788
88545.809
88942.111
89061.096
89392.695
89610.758
89901.99
90177.854
90471.632
90773.044
91084.058
91403.64
91731.197
92065.863
92406.648
92752.394
93101.8
93453.428
93805.722
94157.036
94505.66
94849.855
95187.884
95518.055
95838.759
96148.503
96445.954
96729.963
96999.592
97254.132
97493.109
97716.278
97923.623
98115.33
98291.77
98453.47
98601.086
98735.375
98857.163
98967.327
99066.764
99156.375
99237.049
99309.647
99374.995
99433.874
99487.014
99535.093
99578.736
99618.511
99654.933
99688.462
99719.507
99748.427
99775.535
99801.096
99825.336
99848.443
99870.568
99891.832
99912.329
99932.129
99951.284
99969.829
99987.78
100005.11
100021.77
100037.79
100053.19
100067.52
100080.08
100092.27
100106.48
100114.81
100104.09
100114.02
100211.59
87800.907
88252.601
88231.523
88719.208
88750.701
89190.616
89336.814
89700.161
89956.929
90279.817
90593.828
90923.938
91262.899
91611.477
91968.509
92332.982
92703.614
93078.953
93457.37
93837.084
94216.192
94592.699
94964.557
95329.707
95686.127
96031.88
96365.163
96684.358
96988.07
97275.162
97544.777
97796.351
98029.607
98244.546
98441.423
98620.715
98783.09
98929.371
99060.495
99177.481
99281.399
99373.338
99454.385
99525.607
99588.03
99642.632
99690.334
99731.99
99768.392
99800.264
99828.262
99852.979
99874.943
99894.625
99912.438
99928.741
99943.842
99958.004
99971.443
99984.341
99996.841
100009.06
100021.07
100032.93
100044.7
100056.38
100067.98
100079.5
100090.86
100102.02
100113
100123.73
100133.56
100142.07
100151.31
100162.45
100164.88
100150.5
100166.47
100263.36
87950.354
88468.33
88444.552
88994.527
89040.846
89528.328
89711.059
90109.532
90412.831
90773.744
91132.008
91504.964
91887.44
92279.138
92678.487
93083.885
93493.468
93905.186
94316.823
94726.037
95130.399
95527.447
95914.743
96289.937
96650.831
96995.446
97322.078
97629.342
97916.207
98182.006
98426.436
98649.538
98851.668
99033.457
99195.761
99339.621
99466.208
99576.784
99672.659
99755.159
99825.596
99885.244
99935.325
99976.991
100011.32
100039.31
100061.88
100079.85
100093.98
100104.94
100113.33
100119.68
100124.45
100128.05
100130.82
100133.07
100135.03
100136.92
100138.89
100141.07
100143.56
100146.44
100149.74
100153.49
100157.7
100162.35
100167.44
100172.9
100178.66
100184.65
100190.91
100197.21
100202.77
100207.59
100214.21
100222.2
100218.68
100201.73
100224.99
100318.42
88166.78
88764.025
88739.452
89360.184
89428.591
89967.719
90198.296
90637.129
90996.007
91403.484
91813.525
92236.876
92669.418
93109.799
93555.783
94005.023
94454.924
94902.719
95345.507
95780.32
96204.187
96614.227
97007.734
97382.264
97735.72
98066.41
98373.093
98654.993
98911.795
99143.618
99350.971
99534.699
99695.92
99835.96
99956.298
100058.5
100144.18
100214.96
100272.41
100318.06
100353.35
100379.65
100398.2
100410.16
100416.57
100418.39
100416.46
100411.54
100404.3
100395.32
100385.12
100374.15
100362.78
100351.33
100340.08
100329.25
100319.03
100309.55
100300.91
100293.21
100286.48
100280.75
100276.03
100272.31
100269.57
100267.77
100266.87
100266.76
100267.36
100268.63
100270.56
100272.74
100274.39
100275.99
100280.28
100285.05
100276.03
100257.07
100287.93
100377.01
88456.49
89148.437
89125.938
89827.063
89928.946
90525.631
90818.793
91306.58
91731.608
92195.989
92666.146
93147.471
93636.05
94129.447
94624.558
95118.116
95606.626
96086.467
96553.982
97005.589
97437.914
97847.909
98232.971
98591.023
98920.573
99220.734
99491.21
99732.257
99944.615
100129.43
100288.19
100422.59
100534.52
100625.93
100698.82
100755.15
100796.83
100825.68
100843.4
100851.58
100851.68
100845
100832.76
100816.01
100795.7
100772.68
100747.68
100721.35
100694.23
100666.8
100639.48
100612.61
100586.48
100561.31
100537.31
100514.62
100493.36
100473.59
100455.38
100438.75
100423.71
100410.23
100398.29
100387.86
100378.87
100371.27
100364.97
100359.86
100355.85
100352.9
100350.93
100349.37
100347.56
100346.52
100348.85
100350.41
100336.49
100316.01
100354.13
100439.88
88827.061
89632.149
89617.341
90414.022
90566.449
91230.766
91603.676
92151.291
92653.113
93184.812
93722.809
94268.374
94817.092
95365.242
95908.535
96442.505
96962.572
97464.22
97943.173
98395.583
98818.183
99208.411
99564.48
99885.401
100170.96
100421.62
100638.5
100823.16
100977.59
101103.99
101204.78
101282.41
101339.34
101377.98
101400.61
101409.41
101406.38
101393.35
101372
101343.84
101310.2
101272.28
101231.13
101187.67
101142.69
101096.89
101050.86
101005.1
100960.03
100916.02
100873.36
100832.29
100793
100755.64
100720.33
100687.13
100656.09
100627.24
100600.57
100576.07
100553.69
100533.38
100515.09
100498.74
100484.26
100471.56
100460.52
100451.02
100442.98
100436.35
100430.95
100426.09
100421.37
100418.32
100418.97
100417.24
100399.09
100379.04
100423.83
100505.78
89298.377
90242.946
90247.208
91159.149
91379.747
92121.983
92592.023
93210.697
93798.889
94407.515
95019.795
95633.559
96243.031
96842.712
97426.731
97989.286
98524.869
99028.541
99496.159
99924.544
100311.57
100656.18
100958.32
101218.85
101439.38
101622.12
101769.72
101885.08
101971.29
102031.44
102068.59
102085.66
102085.41
102070.39
102042.96
102005.24
101959.12
101906.31
101848.31
101786.42
101721.79
101655.42
101588.15
101520.71
101453.72
101387.7
101323.08
101260.22
101199.42
101140.9
101084.86
101031.43
100980.71
100932.78
100887.65
100845.36
100805.87
100769.17
100735.2
100703.9
100675.19
100649
100625.23
100603.79
100584.59
100567.5
100552.39
100539.13
100527.65
100517.89
100509.52
100501.85
100494.82
100490.33
100489.4
100484.21
100462.89
100446.14
100496.93
100571.79
89902.877
91024.597
91058.186
92104.019
92411.625
93239.785
93825.798
94529.142
95213.271
95907.317
96597.421
97277.88
97940.728
98578.413
99183.685
99750.106
100272.36
100746.47
101169.95
101541.73
101862.09
102132.5
102355.33
102533.69
102671.15
102771.57
102838.89
102877.04
102889.78
102880.68
102853.04
102809.87
102753.9
102687.55
102612.97
102532.06
102446.46
102357.59
102266.69
102174.8
102082.81
101991.48
101901.43
101813.18
101727.18
101643.75
101563.19
101485.72
101411.48
101340.62
101273.2
101209.28
101148.87
101091.97
101038.54
100988.55
100941.92
100898.58
100858.44
100821.4
100787.36
100756.2
100727.81
100702.09
100678.9
100658.11
100639.59
100623.19
100608.86
100596.47
100585.59
100575.6
100566.86
100561.34
100558.77
100550.28
100527.29
100515.49
100570.55
100634.42
90669.636
92004.768
92082.364
93281.829
93710.262
94636.334
95359.922
96164.561
96952.069
97733.71
98495.074
99226.887
99919.244
100563.63
101153.13
101682.77
102149.63
102552.8
102893.18
103173.14
103396.25
103566.87
103689.87
103770.35
103813.41
103823.99
103806.76
103766.04
103705.76
103629.45
103540.23
103440.86
103333.74
103220.94
103104.24
102985.17
102865.01
102744.86
102625.62
102508.06
102392.79
102280.32
102171.07
102065.35
101963.41
101865.45
101771.6
101681.95
101596.56
101515.44
101438.59
101365.97
101297.53
101233.21
101172.91
101116.55
101064
101015.17
100969.92
100928.14
100889.68
100854.42
100822.22
100792.96
100766.49
100742.66
100721.32
100702.36
100685.71
100671.14
100658.17
100646.34
100636.38
100630.04
100625.76
100614.45
100591.24
100584.54
100640.51
100691.46
91628.74
93230.547
93388.854
94759.181
95354.273
96394.286
97272.504
98188.87
99074.08
99926.186
100729.24
101472.22
102145.89
102743.98
103263.19
103703.01
104065.36
104354.11
104574.55
104732.87
104835.73
104889.9
104901.97
104878.18
104824.29
104745.5
104646.47
104531.28
104403.51
104266.22
104122.05
103973.23
103821.67
103668.95
103516.4
103365.11
103215.99
103069.77
102927.06
102788.32
102653.91
102524.14
102399.19
102279.22
102164.33
102054.56
101949.92
101850.4
101755.96
101666.53
101582.03
101502.37
101427.42
101357.08
101291.21
101229.68
101172.34
101119.05
101069.67
101024.03
100982
100943.41
100908.13
100876
100846.88
100820.59
100796.99
100775.98
100757.44
100741.08
100726.39
100713.15
100702.33
100695.2
100689.1
100675.51
100653.09
100650.47
100703.85
100743.63
92863.675
94802.452
95086.409
96648.244
97457.562
98620.198
99648.106
100660.87
101606.82
102477.3
103258.52
103942.74
104526.28
105009.51
105396.11
105692.25
105905.84
106045.69
106120.96
106140.66
106113.33
106046.83
105948.21
105823.75
105678.87
105518.27
105345.96
105165.3
104979.13
104789.84
104599.37
104409.34
104221.07
104035.64
103853.89
103676.53
103504.09
103336.97
103175.49
103019.86
102870.25
102726.73
102589.34
102458.09
102332.93
102213.81
102100.63
101993.3
101891.7
101795.68
101705.12
101619.86
101539.75
101464.62
101394.32
101328.67
101267.52
101210.68
101158
101109.29
101064.41
101023.17
100985.43
100951.02
100919.78
100891.54
100866.15
100843.51
100823.44
100805.59
100789.5
100775.21
100763.74
100755.72
100747.7
100732.31
100711.28
100711.88
100761.13
100791.45
94506.663
96861.738
97326.433
99078.043
100136.82
101407.38
102532.56
103575.16
104497.41
105293.02
105957.73
106493.68
106907.42
107208.83
107409.74
107522.82
107560.72
107535.51
107458.24
107338.78
107185.77
107006.64
106807.7
106594.24
106370.67
106140.62
105907.08
105672.47
105438.77
105207.56
104980.1
104757.38
104540.18
104329.09
104124.56
103926.92
103736.38
103553.08
103377.09
103208.44
103047.08
102892.96
102745.98
102606.02
102472.94
102346.59
102226.81
102113.42
102006.25
101905.11
101809.83
101720.2
101636.05
101557.18
101483.41
101414.54
101350.38
101290.75
101235.48
101184.36
101137.23
101093.91
101054.24
101018.03
100985.12
100955.33
100928.52
100904.57
100883.24
100864.15
100846.93
100831.84
100819.78
100810.68
100800.72
100784.11
100765.08
100768.27
100811.79
100832.07
96748.705
99570.08
100277.97
102170.3
103440.87
104758.81
105864.5
106809.23
107579.95
108182.37
108627.53
108931.21
109111.34
109186.34
109173.91
109090.26
108949.72
108764.67
108545.58
108301.18
108038.65
107763.85
107481.51
107195.43
106908.65
106623.55
106342.04
106065.57
105795.27
105532.01
105276.42
105028.96
104789.94
104559.56
104337.94
104125.1
103921.01
103725.6
103538.76
103360.35
103190.2
103028.12
102873.92
102727.4
102588.33
102456.51
102331.71
102213.71
102102.29
101997.23
101898.32
101805.33
101718.06
101636.29
101559.82
101488.44
101421.95
101360.15
101302.85
101249.85
101200.96
101156.01
101114.81
101077.18
101042.94
101011.92
100983.98
100958.94
100936.54
100916.39
100898.27
100882.51
100869.8
100859.41
100847.6
100830.45
100813.8
100818.31
100854.05
100864.88
99843.561
103042.48
104058.14
106017.16
107329.21
108500.13
109419.7
110112.67
110596.74
110898.6
111046.23
111067.16
110986.51
110826.29
110605.16
110338.54
110038.99
109716.57
109379.26
109033.36
108683.77
108334.29
107987.84
107646.65
107312.41
106986.37
106669.42
106362.22
106065.2
105778.62
105502.62
105237.25
104982.45
104738.14
104504.17
104280.34
104066.45
103862.27
103667.54
103482.02
103305.44
103137.53
102978.01
102826.64
102683.13
102547.22
102418.66
102297.19
102182.55
102074.51
101972.83
101877.26
101787.59
101703.58
101625.02
101551.68
101483.37
101419.86
101360.97
101306.48
101256.21
101209.96
101167.54
101128.77
101093.45
101061.42
101032.52
101006.54
100983.18
100962.11
100943.22
100926.85
100913.31
100901.48
100888.1
100871.05
100856.67
100860.94
100887.84
100891.05
104049.27
107462.91
108682.14
110378.04
111507.34
112340.96
112877.79
113172.62
113270.11
113213.42
113039.05
112777.3
112452.44
112083.54
111685.38
111269.25
110843.71
110415.2
109988.51
109567.19
109153.83
108750.28
108357.87
107977.48
107609.68
107254.8
106913.01
106584.3
106268.6
105965.73
105675.47
105397.56
105131.71
104877.61
104634.91
104403.3
104182.43
103971.97
103771.56
103580.89
103399.61
103227.4
103063.96
102908.96
102762.1
102623.09
102491.65
102367.49
102250.36
102139.98
102036.1
101938.48
101846.88
101761.06
101680.8
101605.87
101536.06
101471.16
101410.95
101355.23
101303.79
101256.44
101212.99
101173.23
101136.97
101104.05
101074.27
101047.41
101023.16
101001.26
100981.65
100964.57
100950
100936.7
100922.24
100905.91
100893.42
100895.76
100912.49
100909.52
109295.45
112672.12
113795
114926.26
115540.98
115827.51
115850.44
115683.27
115380.16
114983.58
114525.1
114027.98
113509.11
112980.64
112451.2
111926.91
111412.02
110909.44
110421.11
109948.27
109491.66
109051.64
108628.32
108221.6
107831.28
107457.04
107098.5
106755.26
106426.87
106112.86
105812.79
105526.19
105252.59
104991.55
104742.63
104505.38
104279.4
104064.27
103859.59
103664.98
103480.07
103304.5
103137.92
102979.99
102830.39
102688.82
102554.96
102428.53
102309.24
102196.83
102091.04
101991.6
101898.29
101810.85
101729.05
101652.68
101581.5
101515.31
101453.88
101397.02
101344.5
101296.12
101251.68
101210.98
101173.83
101140.03
101109.37
101081.62
101056.48
101033.75
101013.39
100995.48
100979.76
100965.19
100950.28
100935.02
100923.26
100921.48
100928.79
100924.21
115532.75
118052.06
118665.88
118949.57
118857.26
118530.03
118047.4
117470.02
116838.53
116180.5
115514.19
114851.66
114200.68
113566.22
112951.31
112357.67
111786.17
111237.1
110710.35
110205.57
109722.22
109259.68
108817.27
108394.29
107990
107603.71
107234.69
106882.29
106545.84
106224.7
105918.26
105625.96
105347.22
105081.51
104828.33
104587.18
104357.59
104139.12
103931.34
103733.83
103546.2
103368.07
103199.07
103038.85
102887.09
102743.45
102607.63
102479.32
102358.26
102244.15
102136.73
102035.75
101940.96
101852.11
101768.98
101691.34
101618.97
101551.64
101489.13
101431.23
101377.74
101328.42
101283.09
101241.52
101203.52
101168.89
101137.39
101108.78
101082.81
101059.3
101038.16
101019.36
101002.55
100986.95
100971.69
100957.09
100945.68
100940.83
100941.11
100934.65
122175.47
122618.91
122402.56
121854.89
121124.73
120302.11
119443.18
118579.72
117730.28
116905.11
116109.64
115346.42
114616.27
113919.01
113253.85
112619.69
112015.27
111439.24
110890.26
110367.01
109868.22
109392.68
108939.26
108506.87
108094.51
107701.23
107326.13
106968.39
106627.22
106301.89
105991.7
105696.01
105414.2
105145.68
104889.91
104646.37
104414.56
104194.01
103984.26
103784.9
103595.51
103415.71
103245.11
103083.37
102930.13
102785.08
102647.9
102518.28
102395.94
102280.6
102172
102069.87
101973.97
101884.06
101799.9
101721.26
101647.93
101579.68
101516.29
101457.54
101403.21
101353.1
101306.98
101264.65
101225.9
101190.51
101158.26
101128.91
101102.22
101078.02
101056.19
101036.57
101018.82
101002.44
100987.08
100972.98
100961.25
100953.02
100947.59
100941.35
126055.89
125431.05
124516.39
123464.92
122381.19
121309.26
120271.81
119278.16
118331.77
117432.9
116580.26
115771.81
115005.21
114278.03
113587.89
112932.51
112309.78
111717.7
111154.47
110618.39
110107.91
109621.63
109158.22
108716.48
108295.3
107893.65
107510.58
107145.2
106796.7
106464.3
106147.28
105844.99
105556.78
105282.06
105020.28
104770.89
104533.41
104307.35
104092.26
103887.72
103693.3
103508.61
103333.28
103166.96
103009.29
102859.95
102718.63
102585.02
102458.83
102339.78
102227.62
102122.07
102022.9
101929.86
101842.71
101761.24
101685.21
101614.4
101548.6
101487.57
101431.1
101378.98
101330.97
101286.87
101246.47
101209.53
101175.83
101145.12
101117.2
101091.87
101068.96
101048.26
101029.45
101012.23
100996.48
100982.36
100970.04
100959.43
100950.69
100945.05
103958.98
103931.71
103978.88
104026.42
104061.48
104070.61
104052.57
104022.46
103986.39
103941.03
103882.01
103810.03
103728.85
103643.23
103553.99
103461.19
103365.16
103266.37
103165.23
103062.12
102957.42
102851.44
102744.52
102636.95
102528.99
102420.89
102312.89
102205.21
102098.04
101991.58
101886.01
101781.49
101678.2
101576.28
101475.89
101377.19
101280.3
101185.38
101092.57
101002
100913.82
100828.15
100745.14
100664.91
100587.6
100513.35
100442.26
100374.48
100310.11
100249.27
100192.06
100138.55
100088.85
100042.99
100001.02
99962.977
99928.84
99898.583
99872.152
99849.461
99830.395
99814.811
99802.548
99793.43
99787.269
99783.908
99783.142
99784.922
99788.908
99795.366
99803.421
99813.996
99825.418
99838.556
99854.112
99864.356
99891.093
99884.023
99941.868
99889.993
103299.88
103293.72
103307.91
103324.7
103323.86
103317
103306.51
103289.25
103260.4
103225.81
103184.34
103137.7
103085.2
103027.94
102965.96
102899.94
102830.1
102756.8
102680.33
102601.02
102519.17
102435.06
102348.98
102261.22
102172.04
102081.7
101990.48
101898.6
101806.32
101713.88
101621.5
101529.4
101437.79
101346.9
101256.91
101168.03
101080.46
100994.37
100909.96
100827.41
100746.88
100668.57
100592.62
100519.21
100448.5
100380.64
100315.78
100254.06
100195.61
100140.56
100089.02
100041.08
99996.83
99956.323
99919.605
99886.692
99857.573
99832.213
99810.546
99792.476
99777.879
99766.601
99758.472
99753.307
99750.913
99751.125
99753.741
99758.699
99765.68
99774.919
99785.581
99798.552
99812.115
99827.344
99844.351
99856.666
99883.977
99879.308
99937.301
99886.148
102873.96
102859.02
102831.85
102803.38
102775.19
102748.91
102717.97
102687.62
102653.58
102618.92
102580.27
102540.15
102496.45
102450.57
102401.59
102350.04
102295.75
102238.86
102179.44
102117.59
102053.43
101987.1
101918.76
101848.55
101776.65
101703.25
101628.52
101552.68
101475.9
101398.42
101320.43
101242.14
101163.78
101085.56
101007.69
100930.4
100853.89
100778.39
100704.09
100631.21
100559.96
100490.54
100423.13
100357.94
100295.15
100234.94
100177.47
100122.92
100071.43
100023.14
99978.167
99936.625
99898.598
99864.153
99833.334
99806.156
99782.606
99762.642
99746.192
99733.154
99723.394
99716.754
99713.055
99712.107
99713.714
99717.704
99723.878
99732.165
99742.262
99754.379
99767.717
99783.142
99798.896
99816.241
99834.775
99849.12
99877.14
99874.577
99932.98
99882.477
102287.86
102265.73
102237.63
102206.71
102175.98
102148.7
102117.04
102088.21
102055.28
102024.24
101989.74
101955.91
101919.34
101882.32
101843.19
101802.73
101760.46
101716.51
101670.78
101623.26
101573.94
101522.84
101469.99
101415.44
101359.27
101301.56
101242.43
101182
101120.4
101057.8
100994.36
100930.25
100865.66
100800.8
100735.86
100671.05
100606.59
100542.69
100479.58
100417.47
100356.58
100297.14
100239.35
100183.42
100129.57
100077.99
100028.87
99982.392
99938.717
99897.997
99860.367
99825.942
99794.819
99767.066
99742.73
99721.825
99704.338
99690.221
99679.399
99671.763
99667.176
99665.473
99666.472
99669.979
99675.796
99683.747
99693.637
99705.384
99718.702
99733.782
99749.855
99767.778
99785.758
99805.24
99825.361
99841.719
99870.545
99869.859
99928.899
99878.986
101570.53
101554.49
101538.85
101520.38
101500
101483.89
101461.95
101444.34
101421.4
101401.7
101377.61
101355.27
101329.81
101304.76
101277.67
101249.74
101220.22
101189.38
101157.04
101123.18
101087.78
101050.8
101012.25
100972.14
100930.51
100887.39
100842.85
100796.96
100749.81
100701.53
100652.22
100602.04
100551.12
100499.65
100447.8
100395.76
100343.73
100291.92
100240.54
100189.81
100139.94
100091.18
100043.72
99997.807
99953.644
99911.443
99871.406
99833.721
99798.566
99766.099
99736.463
99709.78
99686.15
99665.646
99648.312
99634.164
99623.184
99615.325
99610.504
99608.609
99609.499
99613.006
99618.945
99627.122
99637.337
99649.412
99663.157
99678.481
99695.116
99713.23
99732.088
99752.54
99772.771
99794.4
99816.147
99834.517
99864.188
99865.249
99925.024
99875.695
100858.9
100852.44
100847.92
100842.47
100833.03
100828.79
100817.26
100811.58
100799.13
100791.18
100777.67
100766.89
100752.31
100738.77
100723.02
100706.76
100688.93
100669.97
100649.69
100628.09
100605.14
100580.82
100555.11
100528.01
100499.52
100469.67
100438.47
100405.98
100372.25
100337.35
100301.38
100264.44
100226.66
100188.16
100149.11
100109.66
100070
100030.31
99990.796
99951.662
99913.122
99875.394
99838.698
99803.252
99769.274
99736.977
99706.563
99678.224
99652.139
99628.47
99607.364
99588.943
99573.306
99560.527
99550.646
99543.676
99539.598
99538.357
99539.868
99544.014
99550.651
99559.609
99570.702
99583.735
99598.511
99614.851
99632.57
99651.57
99671.598
99692.805
99714.488
99737.487
99759.982
99783.756
99807.15
99827.533
99858.058
99860.809
99921.33
99872.632
100212.23
100212.21
100213.08
100216.02
100213.64
100218.01
100213.67
100216.95
100212.01
100213.18
100208.06
100207.16
100201.67
100197.37
100190.61
100183.86
100175.75
100166.84
100156.85
100145.8
100133.65
100120.36
100105.89
100090.23
100073.37
100055.31
100036.04
100015.6
99994.024
99971.351
99947.65
99922.997
99897.489
99871.236
99844.363
99817.01
99789.333
99761.499
99733.686
99706.083
99678.888
99652.303
99626.538
99601.801
99578.3
99556.24
99535.816
99517.216
99500.612
99486.163
99474.01
99464.271
99457.04
99452.383
99450.336
99450.905
99454.064
99459.754
99467.883
99478.33
99490.947
99505.563
99521.992
99540.04
99559.512
99580.232
99602.019
99624.774
99648.256
99672.598
99697.134
99722.687
99747.45
99773.351
99798.392
99820.783
99852.156
99856.597
99917.802
99869.819
99629.985
99634.982
99638.926
99647.116
99648.492
99658.639
99658.523
99667.933