/*--------------------------------*- C++ -*----------------------------------*\
  =========                 |
  \\      /  F ield         | OpenFOAM: The Open Source CFD Toolbox
   \\    /   O peration     | Website:  https://openfoam.org
    \\  /    A nd           | Version:  12
     \\/     M anipulation  |
\*---------------------------------------------------------------------------*/
FoamFile
{
    format      ascii;
    class       volScalarField;
    location    "0.095";
    object      rho;
}
// * * * * * * * * * * * * * * * * * * * * * * * * * * * * * * * * * * * * * //

dimensions      [1 -3 0 0 0 0 0];

internalField   nonuniform List<scalar> 
16000
(
1.0587095
1.0915558
1.0793339
1.087679
1.0838237
1.0872765
1.086292
1.0881209
1.0882693
1.0894828
1.0901367
1.0911553
1.0920366
1.0930377
1.0940381
1.0950908
1.0961759
1.0973012
1.0984648
1.0996677
1.1009096
1.1021908
1.103511
1.1048697
1.1062663
1.1077
1.1091695
1.1106736
1.1122105
1.1137783
1.1153747
1.1169972
1.1186429
1.1203087
1.1219913
1.1236871
1.1253922
1.1271026
1.1288142
1.1305227
1.1322238
1.1339131
1.1355864
1.1372393
1.1388679
1.140468
1.1420361
1.1435686
1.1450623
1.1465143
1.147922
1.1492831
1.1505957
1.1518582
1.1530693
1.1542279
1.1553334
1.1563854
1.1573836
1.158328
1.1592187
1.160056
1.1608401
1.161571
1.1622487
1.162873
1.1634433
1.1639591
1.1644199
1.1648256
1.1651766
1.1654739
1.1657186
1.1659154
1.1660724
1.1661856
1.1662664
1.1663899
1.1662487
1.1661044
1.055434
1.0887984
1.0760725
1.0848593
1.0807789
1.084503
1.0834172
1.085419
1.0855616
1.0868784
1.087585
1.0886797
1.089636
1.0907123
1.091794
1.0929285
1.0940995
1.095313
1.0965677
1.0978643
1.0992024
1.1005821
1.1020027
1.1034635
1.1049636
1.1065017
1.1080763
1.1096856
1.1113273
1.112999
1.114698
1.1164211
1.1181651
1.1199261
1.1217004
1.1234837
1.1252717
1.12706
1.128844
1.1306191
1.1323805
1.1341239
1.1358446
1.1375384
1.1392014
1.1408295
1.1424194
1.1439677
1.1454718
1.146929
1.1483374
1.149695
1.1510004
1.1522527
1.153451
1.1545948
1.155684
1.1567186
1.1576987
1.1586248
1.1594973
1.1603166
1.1610831
1.1617971
1.1624588
1.1630677
1.1636237
1.1641261
1.1645745
1.1649689
1.1653098
1.1655981
1.1658352
1.1660265
1.1661768
1.1662797
1.1663681
1.1664664
1.1662897
1.1662126
1.0524728
1.0862847
1.073105
1.0822791
1.0780563
1.0819839
1.0808679
1.0829899
1.0831745
1.084575
1.0853561
1.0865281
1.0875708
1.0887306
1.0899036
1.0911302
1.0923975
1.0937098
1.0950661
1.0964666
1.0979108
1.0993983
1.1009281
1.1024993
1.1041104
1.1057598
1.1074454
1.1091648
1.1109154
1.1126942
1.1144978
1.1163224
1.1181641
1.1200187
1.1218815
1.1237479
1.125613
1.1274718
1.1293194
1.1311509
1.1329613
1.134746
1.1365005
1.1382205
1.1399023
1.1415422
1.1431371
1.1446843
1.1461814
1.1476266
1.1490182
1.1503552
1.1516368
1.1528624
1.1540321
1.1551459
1.156204
1.1572072
1.1581559
1.159051
1.1598932
1.1606831
1.1614214
1.1621084
1.1627445
1.1633293
1.1638627
1.1643441
1.1647733
1.1651502
1.1654755
1.16575
1.1659758
1.1661583
1.1662988
1.1663929
1.1664835
1.1665553
1.1663485
1.166334
1.0498342
1.0840192
1.0704426
1.0799579
1.0755993
1.0797616
1.0786211
1.0808816
1.0811176
1.0826151
1.0834849
1.0847461
1.08589
1.0871468
1.0884246
1.0897565
1.0911327
1.0925558
1.0940252
1.0955406
1.0971013
1.0987065
1.1003551
1.1020454
1.1037758
1.1055439
1.1073473
1.1091829
1.1110473
1.112937
1.1148477
1.116775
1.1187143
1.1206604
1.1226083
1.1245526
1.1264878
1.1284085
1.1303095
1.1321854
1.1340314
1.1358427
1.1376149
1.1393442
1.1410269
1.14266
1.144241
1.1457676
1.1472383
1.1486519
1.1500076
1.151305
1.1525441
1.1537252
1.1548489
1.1559158
1.1569269
1.1578834
1.1587861
1.1596364
1.1604352
1.1611835
1.161882
1.1625313
1.1631317
1.163683
1.1641852
1.1646377
1.1650404
1.1653933
1.165697
1.1659524
1.166162
1.1663308
1.1664569
1.1665397
1.1666266
1.1666667
1.1664307
1.1664803
1.0475582
1.0821277
1.0681594
1.0779636
1.0734651
1.0779025
1.0767511
1.079156
1.0794648
1.0810667
1.0820443
1.0834046
1.084663
1.0860276
1.0874206
1.0888679
1.0903624
1.0919058
1.0934975
1.095137
1.0968234
1.0985554
1.1003314
1.1021494
1.1040069
1.105901
1.1078285
1.1097854
1.1117676
1.1137706
1.1157892
1.1178183
1.1198522
1.1218852
1.1239113
1.1259245
1.127919
1.129889
1.1318288
1.1337331
1.135597
1.1374161
1.1391862
1.140904
1.1425665
1.1441713
1.1457166
1.1472012
1.1486242
1.1499854
1.1512848
1.1525231
1.153701
1.1548196
1.1558801
1.1568841
1.1578329
1.1587282
1.1595715
1.1603643
1.1611078
1.1618033
1.1624516
1.1630534
1.1636091
1.1641187
1.1645819
1.1649986
1.1653684
1.1656915
1.1659685
1.1662001
1.1663894
1.1665404
1.1666487
1.1667184
1.1667978
1.1668006
1.1665395
1.1666566
1.0456921
1.0806299
1.0663122
1.0764251
1.071833
1.0764831
1.0753194
1.0778891
1.0782869
1.0799985
1.0810957
1.0825583
1.0839381
1.0854169
1.0869322
1.0885033
1.0901253
1.0917992
1.0935241
1.0952991
1.0971226
1.0989927
1.1009072
1.1028631
1.1048572
1.1068856
1.1089439
1.1110273
1.1131307
1.1152482
1.1173739
1.1195014
1.1216244
1.1237361
1.12583
1.1278996
1.1299384
1.1319405
1.1339003
1.1358126
1.1376727
1.1394767
1.1412212
1.1429034
1.1445214
1.1460736
1.1475594
1.1489784
1.150331
1.1516179
1.1528402
1.1539994
1.1550972
1.1561355
1.1571163
1.1580416
1.1589136
1.1597341
1.1605053
1.1612287
1.161906
1.1625385
1.1631271
1.1636727
1.1641756
1.1646358
1.1650533
1.1654277
1.1657589
1.1660472
1.1662928
1.1664966
1.1666619
1.1667913
1.1668784
1.1669337
1.1670011
1.1669614
1.1666818
1.1668682
1.0442343
1.0795361
1.0649041
1.075356
1.0706711
1.0755284
1.0744096
1.0771105
1.0776128
1.0794113
1.0806349
1.0822039
1.0837154
1.0853212
1.0869729
1.0886835
1.0904495
1.0922706
1.0941454
1.0960721
1.0980483
1.1000714
1.1021379
1.104244
1.1063851
1.1085562
1.1107517
1.1129656
1.1151913
1.117422
1.1196504
1.1218693
1.1240712
1.1262488
1.1283948
1.1305024
1.1325651
1.1345768
1.1365323
1.1384269
1.1402565
1.1420181
1.1437092
1.1453283
1.1468744
1.1483475
1.1497479
1.1510766
1.1523352
1.1535255
1.1546497
1.1557103
1.1567099
1.1576511
1.1585365
1.1593689
1.1601507
1.1608845
1.1615722
1.162216
1.1628176
1.1633783
1.1638992
1.164381
1.1648242
1.1652288
1.1655947
1.1659217
1.1662097
1.1664589
1.1666693
1.166842
1.1669802
1.1670846
1.1671482
1.167188
1.167239
1.1671524
1.166861
1.1671199
1.0431225
1.0787866
1.0638653
1.074702
1.0699183
1.0750004
1.0739133
1.0768092
1.0773371
1.0792513
1.0806357
1.0823377
1.0840075
1.0857664
1.0875789
1.0894531
1.0913858
1.0933761
1.0954215
1.0975196
1.0996668
1.1018593
1.1040924
1.1063608
1.1086587
1.1109796
1.1133164
1.1156615
1.118007
1.1203448
1.1226664
1.1249636
1.1272281
1.129452
1.1316276
1.1337482
1.1358074
1.1377997
1.1397205
1.1415659
1.1433333
1.1450206
1.146627
1.1481522
1.1495968
1.1509623
1.1522505
1.1534637
1.1546047
1.1556767
1.1566829
1.1576265
1.1585111
1.1593399
1.1601162
1.1608432
1.1615236
1.1621602
1.1627553
1.163311
1.163829
1.1643109
1.1647575
1.1651697
1.1655478
1.1658918
1.1662017
1.1664772
1.1667183
1.166925
1.1670973
1.1672365
1.1673452
1.1674218
1.1674605
1.1674845
1.1675141
1.1673775
1.1670827
1.1674161
1.0423511
1.0783669
1.0631796
1.0744829
1.0695121
1.07476
1.0737649
1.0767003
1.0775405
1.0795989
1.0811746
1.0830347
1.0848882
1.0868267
1.0888252
1.090888
1.0930119
1.0951947
1.0974329
1.0997228
1.1020594
1.1044374
1.1068505
1.1092918
1.1117535
1.1142274
1.1167048
1.1191763
1.1216328
1.1240645
1.126462
1.1288163
1.1311185
1.1333605
1.1355349
1.1376352
1.1396558
1.1415922
1.1434412
1.1452004
1.1468688
1.1484461
1.1499331
1.1513316
1.1526438
1.1538728
1.1550221
1.1560953
1.1570966
1.1580301
1.1589001
1.1597106
1.1604658
1.1611695
1.1618253
1.1624368
1.1630068
1.1635383
1.1640336
1.1644949
1.1649238
1.1653216
1.1656894
1.1660277
1.1663369
1.166617
1.1668677
1.167089
1.1672807
1.1674428
1.1675752
1.1676793
1.1677569
1.1678039
1.1678173
1.1678254
1.1678284
1.167641
1.1673531
1.1677607
1.0419557
1.0783141
1.0628878
1.0746163
1.0695064
1.0750086
1.0741664
1.0773006
1.0783254
1.0805332
1.0823301
1.0843764
1.0864404
1.0885874
1.0907998
1.0930785
1.0954197
1.0978196
1.1002733
1.1027753
1.1053188
1.1078964
1.1104999
1.1131201
1.1157473
1.1183712
1.1209809
1.1235658
1.1261148
1.1286174
1.1310632
1.1334427
1.1357471
1.1379687
1.1401008
1.1421381
1.1440765
1.1459133
1.1476472
1.149278
1.1508068
1.1522356
1.1535674
1.1548058
1.155955
1.1570199
1.1580054
1.1589165
1.1597584
1.1605363
1.161255
1.1619194
1.1625339
1.1631028
1.1636299
1.1641186
1.1645722
1.1649933
1.1653844
1.1657472
1.1660835
1.1663944
1.1666806
1.1669428
1.167181
1.1673953
1.1675853
1.167751
1.1678922
1.1680085
1.1681003
1.1681689
1.1682144
1.168231
1.1682202
1.1682125
1.1681835
1.1679462
1.167679
1.168157
1.0420039
1.0786985
1.0630414
1.0749623
1.0699974
1.0757876
1.075156
1.0784513
1.0797492
1.0821335
1.0841863
1.0864533
1.0887591
1.0911468
1.0936035
1.0961275
1.0987135
1.1013557
1.1040472
1.10678
1.1095451
1.1123325
1.1151311
1.1179294
1.1207152
1.1234759
1.1261989
1.1288718
1.1314824
1.1340195
1.1364725
1.1388321
1.1410905
1.1432411
1.1452791
1.1472012
1.1490058
1.1506928
1.1522636
1.1537206
1.1550676
1.1563092
1.1574505
1.1584973
1.1594558
1.160332
1.1611324
1.1618632
1.1625302
1.1631393
1.163696
1.1642052
1.1646717
1.1650998
1.1654932
1.1658555
1.1661895
1.1664979
1.1667828
1.1670459
1.1672885
1.1675115
1.1677157
1.1679013
1.1680683
1.1682166
1.1683459
1.168456
1.1685466
1.1686175
1.168669
1.1687025
1.1687159
1.1687026
1.1686698
1.1686464
1.1685799
1.1682972
1.1680672
1.1686086
1.0425769
1.0795926
1.0637406
1.0759616
1.0711634
1.0771974
1.0768226
1.0802963
1.0819091
1.0844984
1.0868417
1.0893677
1.0919499
1.0946138
1.0973486
1.1001496
1.1030092
1.1059189
1.1088689
1.111848
1.1148439
1.1178434
1.1208324
1.1237965
1.1267209
1.1295909
1.1323923
1.1351114
1.1377358
1.1402542
1.1426569
1.1449363
1.1470864
1.1491033
1.1509851
1.1527319
1.1543454
1.1558288
1.1571867
1.1584248
1.1595495
1.1605679
1.1614875
1.1623158
1.1630605
1.163729
1.1643286
1.1648661
1.165348
1.1657805
1.166169
1.1665186
1.166834
1.1671192
1.167378
1.1676133
1.167828
1.1680242
1.1682038
1.1683681
1.1685183
1.1686549
1.1687784
1.1688888
1.1689861
1.1690699
1.1691399
1.1691958
1.1692371
1.1692638
1.1692764
1.169276
1.1692582
1.1692167
1.1691653
1.1691259
1.1690173
1.168698
1.1685236
1.1691174
1.0436696
1.0810022
1.064982
1.0776258
1.0729886
1.079265
1.0792313
1.082899
1.0848888
1.0877259
1.0904007
1.0932325
1.0961328
1.099114
1.1021648
1.1052769
1.1084392
1.1116392
1.1148631
1.1180957
1.1213209
1.1245216
1.1276807
1.1307806
1.1338043
1.1367355
1.139559
1.1422612
1.1448304
1.1472572
1.1495344
1.1516575
1.1536243
1.155435
1.1570919
1.1585992
1.1599628
1.1611897
1.162288
1.1632664
1.1641339
1.1648998
1.1655733
1.1661634
1.1666786
1.1671273
1.167517
1.167855
1.1681477
1.1684011
1.1686206
1.168811
1.1689765
1.169121
1.1692476
1.169359
1.1694575
1.1695449
1.1696226
1.1696917
1.1697528
1.1698063
1.1698523
1.1698908
1.1699213
1.1699435
1.169957
1.1699613
1.1699559
1.1699407
1.1699168
1.1698843
1.1698369
1.1697703
1.1697039
1.169648
1.1694941
1.1691509
1.1690514
1.1696736
1.0453363
1.0829796
1.0668281
1.0799197
1.0755594
1.0820896
1.0824862
1.0863731
1.0888021
1.0919428
1.0949976
1.0981897
1.1014574
1.1048018
1.1082087
1.1116645
1.1151532
1.1186575
1.1221584
1.1256363
1.1290705
1.1324403
1.135725
1.1389049
1.1419615
1.1448781
1.1476404
1.150237
1.1526592
1.1549016
1.156962
1.1588409
1.1605415
1.1620694
1.163432
1.1646383
1.1656983
1.1666228
1.1674229
1.1681099
1.1686948
1.1691883
1.1696009
1.1699421
1.1702209
1.1704458
1.1706242
1.1707631
1.1708686
1.1709464
1.1710012
1.1710374
1.1710586
1.1710681
1.1710684
1.1710619
1.1710501
1.1710345
1.171016
1.1709953
1.1709727
1.1709482
1.1709217
1.1708927
1.1708609
1.1708257
1.1707866
1.170743
1.1706943
1.1706406
1.1705833
1.170521
1.1704465
1.1703587
1.1702808
1.1702077
1.1700088
1.169653
1.1696426
1.1702674
1.0476375
1.0855838
1.0693896
1.0829722
1.0789749
1.0857703
1.0867033
1.0908523
1.0937922
1.0973114
1.1008072
1.1044231
1.1081121
1.1118653
1.1156629
1.1194852
1.1233101
1.1271143
1.1308733
1.1345619
1.1381553
1.141629
1.1449603
1.1481287
1.1511165
1.1539097
1.1564979
1.158875
1.1610384
1.1629897
1.1647332
1.1662765
1.1676293
1.1688029
1.1698099
1.1706639
1.1713783
1.171967
1.1724433
1.17282
1.1731093
1.1733225
1.1734702
1.1735619
1.1736065
1.1736118
1.1735848
1.1735318
1.1734582
1.1733689
1.1732679
1.1731589
1.1730449
1.1729283
1.1728111
1.1726951
1.1725812
1.1724705
1.1723634
1.1722601
1.1721605
1.1720645
1.1719715
1.171881
1.1717923
1.1717049
1.1716181
1.1715311
1.1714433
1.1713554
1.1712681
1.171179
1.1710804
1.1709759
1.1708899
1.1707993
1.1705605
1.1701982
1.1702816
1.1709023
1.0506308
1.0888469
1.0727938
1.086855
1.0833585
1.0904455
1.0920485
1.0965345
1.100069
1.1040564
1.1080608
1.1121627
1.1163211
1.1205171
1.1247241
1.1289148
1.1330595
1.1371279
1.1410889
1.1449126
1.1485704
1.1520366
1.1552895
1.1583118
1.161091
1.1636202
1.1658971
1.1679243
1.1697084
1.1712595
1.1725904
1.1737157
1.1746515
1.1754145
1.1760214
1.1764891
1.1768334
1.1770698
1.1772126
1.177275
1.1772692
1.1772062
1.177096
1.1769475
1.1767685
1.1765659
1.176346
1.1761138
1.175874
1.1756304
1.1753863
1.1751443
1.1749068
1.1746755
1.1744518
1.1742366
1.1740306
1.173834
1.173647
1.1734695
1.1733009
1.1731408
1.1729884
1.172843
1.1727038
1.1725701
1.172441
1.1723157
1.1721939
1.1720762
1.1719629
1.1718501
1.1717314
1.1716157
1.1715254
1.171418
1.1711452
1.1707823
1.1709588
1.1715828
1.0543873
1.0927776
1.0771675
1.0917197
1.0889158
1.0963604
1.0987836
1.1037018
1.1079118
1.1124552
1.1170288
1.1216663
1.1263255
1.1309765
1.1355828
1.1401069
1.1445102
1.1487545
1.1528039
1.1566259
1.160193
1.163484
1.1664841
1.1691855
1.1715868
1.1736926
1.1755126
1.1770606
1.1783536
1.1794106
1.1802521
1.180899
1.1813721
1.1816916
1.1818768
1.181946
1.1819159
1.1818019
1.1816179
1.1813765
1.181089
1.1807651
1.1804136
1.1800421
1.1796573
1.1792647
1.1788692
1.178475
1.1780855
1.1777035
1.1773313
1.1769709
1.1766237
1.1762907
1.1759725
1.1756697
1.1753823
1.1751102
1.174853
1.1746102
1.1743811
1.1741649
1.1739607
1.1737675
1.1735845
1.1734108
1.1732453
1.1730873
1.1729366
1.1727939
1.1726586
1.1725256
1.1723914
1.17227
1.1721786
1.1720547
1.1717547
1.1714107
1.1716758
1.1722884
1.0590974
1.0975251
1.0827452
1.0978944
1.0959798
1.103845
1.1072318
1.1126781
1.1176323
1.1228108
1.1280036
1.1332074
1.1383705
1.1434474
1.1483883
1.1531442
1.1576686
1.1619198
1.1658631
1.1694721
1.1727293
1.1756265
1.1781639
1.1803495
1.1821975
1.183727
1.1849609
1.185924
1.1866425
1.1871425
1.18745
1.1875894
1.1875838
1.1874548
1.1872219
1.1869028
1.1865134
1.1860679
1.1855785
1.1850564
1.1845108
1.1839501
1.1833813
1.1828103
1.1822422
1.1816814
1.1811312
1.1805947
1.1800742
1.1795714
1.1790879
1.1786246
1.1781822
1.1777612
1.1773615
1.1769831
1.1766255
1.1762884
1.1759709
1.1756722
1.1753913
1.1751272
1.1748789
1.1746452
1.1744252
1.1742177
1.1740218
1.1738367
1.1736624
1.1734994
1.173346
1.1731967
1.1730519
1.1729295
1.1728378
1.1726968
1.1723814
1.1720827
1.1724248
1.1730007
1.0650429
1.1036681
1.089923
1.1057168
1.1048966
1.1132234
1.1177229
1.1238169
1.129586
1.1354711
1.141311
1.1470673
1.1526704
1.158057
1.1631654
1.1679416
1.1723407
1.17633
1.179889
1.1830099
1.185696
1.1879605
1.1898243
1.1913144
1.1924613
1.1932978
1.1938575
1.1941734
1.1942771
1.1941986
1.1939655
1.1936028
1.1931333
1.1925773
1.1919524
1.1912745
1.1905572
1.1898123
1.1890499
1.1882788
1.1875062
1.1867384
1.1859805
1.1852369
1.1845111
1.1838058
1.1831234
1.1824655
1.1818334
1.1812281
1.1806501
1.1800997
1.1795769
1.1790814
1.1786129
1.1781708
1.1777542
1.1773623
1.1769942
1.1766486
1.1763245
1.1760206
1.1757356
1.1754684
1.1752179
1.174983
1.1747624
1.1745556
1.1743627
1.1741838
1.1740159
1.1738545
1.1737039
1.1735834
1.1734903
1.1733342
1.1730196
1.1727833
1.1731817
1.1736865
1.0724111
1.1117367
1.0989014
1.1154156
1.116037
1.124915
1.1306961
1.1375896
1.1442306
1.1508413
1.1572712
1.1634478
1.1692857
1.1747134
1.1796728
1.1841228
1.1880401
1.1914184
1.1942666
1.1966062
1.1984682
1.1998902
1.200914
1.2015826
1.2019391
1.2020252
1.2018798
1.201539
1.2010356
1.2003989
1.1996548
1.1988263
1.1979331
1.1969924
1.1960189
1.1950253
1.1940222
1.1930185
1.1920218
1.1910383
1.1900732
1.1891306
1.1882138
1.1873256
1.1864679
1.1856423
1.1848498
1.1840911
1.1833667
1.1826764
1.1820203
1.1813978
1.1808086
1.1802517
1.1797265
1.1792318
1.1787667
1.1783299
1.1779202
1.1775363
1.1771769
1.1768405
1.176526
1.1762319
1.175957
1.1757002
1.1754603
1.1752368
1.17503
1.1748389
1.1746601
1.1744906
1.1743382
1.1742207
1.1741237
1.1739559
1.1736578
1.17349
1.1739136
1.1743151
1.0813359
1.1216017
1.1102877
1.1275381
1.1300457
1.1396118
1.1467988
1.1545918
1.1620508
1.1692391
1.1760034
1.1822544
1.1879139
1.1929308
1.197279
1.2009565
1.2039814
1.2063883
1.208223
1.2095388
1.2103922
1.2108404
1.2109388
1.2107396
1.2102908
1.2096357
1.2088128
1.207856
1.2067948
1.2056546
1.204457
1.2032206
1.201961
1.2006912
1.1994222
1.1981631
1.1969212
1.1957027
1.1945125
1.1933544
1.1922315
1.1911462
1.1901
1.1890942
1.1881296
1.1872064
1.1863249
1.1854847
1.1846855
1.1839266
1.1832074
1.1825268
1.1818839
1.1812775
1.1807065
1.1801695
1.1796653
1.1791924
1.1787494
1.1783348
1.1779473
1.1775852
1.1772473
1.1769321
1.1766383
1.1763647
1.1761103
1.1758747
1.1756577
1.1754578
1.1752711
1.175097
1.1749456
1.1748303
1.1747269
1.1745505
1.1742774
1.1741723
1.1745947
1.1748948
1.0925624
1.134176
1.1249862
1.1430324
1.1478737
1.1582087
1.1667306
1.1752984
1.1832526
1.1905686
1.1971214
1.20285
1.2077262
1.2117564
1.2149745
1.2174354
1.2192071
1.2203651
1.2209867
1.2211479
1.2209198
1.220368
1.219551
1.2185206
1.2173216
1.2159927
1.2145667
1.2130716
1.2115306
1.2099632
1.2083854
1.2068106
1.2052496
1.2037112
1.2022026
1.2007293
1.1992959
1.1979057
1.1965613
1.1952645
1.1940165
1.1928181
1.1916696
1.190571
1.1895219
1.1885218
1.18757
1.1866655
1.1858073
1.1849942
1.1842251
1.1834986
1.1828133
1.1821678
1.1815606
1.1809902
1.1804551
1.1799537
1.1794846
1.1790461
1.1786366
1.1782546
1.1778987
1.1775675
1.1772594
1.1769734
1.1767085
1.1764644
1.1762404
1.1760342
1.1758423
1.1756662
1.175517
1.1754022
1.1752903
1.1751078
1.1748629
1.1748103
1.175218
1.1754366
1.1076588
1.1505597
1.1442733
1.1629681
1.1704871
1.1814743
1.1908456
1.1996158
1.207336
1.213984
1.2195242
1.2239809
1.2274136
1.2299088
1.2315684
1.2324999
1.2328101
1.2325995
1.2319602
1.2309737
1.2297114
1.2282343
1.2265941
1.2248343
1.2229908
1.2210935
1.2191668
1.2172305
1.2153008
1.2133907
1.2115105
1.2096684
1.2078708
1.2061226
1.2044275
1.2027883
1.2012068
1.1996841
1.1982209
1.1968173
1.1954732
1.1941879
1.1929607
1.1917906
1.1906765
1.1896171
1.1886111
1.1876569
1.1867531
1.1858981
1.1850903
1.1843282
1.1836099
1.182934
1.1822988
1.1817024
1.1811434
1.1806201
1.1801308
1.1796738
1.1792476
1.1788505
1.1784811
1.1781378
1.1778193
1.1775243
1.1772522
1.1770023
1.1767736
1.176563
1.176368
1.1761916
1.1760442
1.1759271
1.175805
1.1756208
1.1754079
1.1753976
1.1757717
1.175914
1.128104
1.1720511
1.1695787
1.1883631
1.1982626
1.209363
1.2185548
1.2264354
1.2328389
1.2378321
1.241511
1.2440138
1.2454938
1.2461065
1.2460002
1.2453094
1.2441525
1.2426312
1.2408314
1.2388242
1.2366683
1.2344113
1.2320918
1.2297408
1.2273829
1.2250377
1.2227206
1.2204437
1.2182162
1.2160453
1.2139361
1.2118925
1.2099172
1.2080119
1.2061775
1.2044144
1.2027223
1.2011009
1.1995491
1.1980659
1.1966499
1.1952996
1.1940134
1.1927898
1.1916268
1.1905227
1.1894756
1.1884838
1.1875454
1.1866585
1.1858212
1.1850318
1.1842884
1.1835892
1.1829324
1.1823162
1.1817389
1.1811988
1.1806941
1.1802232
1.1797843
1.1793759
1.1789964
1.1786443
1.1783181
1.1780169
1.1777398
1.1774861
1.1772539
1.1770401
1.1768432
1.1766673
1.1765202
1.1763976
1.1762653
1.1760845
1.1759059
1.1759239
1.1762417
1.1763169
1.1565134
1.199446
1.2019989
1.2201098
1.2303763
1.2402552
1.2478609
1.2535908
1.2575734
1.2600479
1.2612511
1.261415
1.2607484
1.259433
1.2576214
1.2554397
1.2529897
1.2503532
1.2475947
1.2447652
1.2419043
1.2390429
1.2362046
1.2334077
1.2306658
1.2279892
1.2253853
1.2228596
1.2204157
1.2180558
1.2157813
1.2135925
1.2114893
1.209471
1.2075364
1.2056841
1.2039126
1.2022198
1.200604
1.1990631
1.1975948
1.1961972
1.1948679
1.1936048
1.1924058
1.1912686
1.1901911
1.1891712
1.1882068
1.1872958
1.1864363
1.1856262
1.1848636
1.1841467
1.1834735
1.1828421
1.1822508
1.1816979
1.1811815
1.1806999
1.1802515
1.1798345
1.1794474
1.1790887
1.1787571
1.1784514
1.1781707
1.1779139
1.1776787
1.1774624
1.1772644
1.1770885
1.1769397
1.1768097
1.1766692
1.1764969
1.1763493
1.1763785
1.176632
1.1766547
1.1954574
1.2345513
1.2403251
1.2556592
1.2647981
1.2717122
1.276095
1.2784952
1.2792743
1.2787984
1.2773674
1.2752293
1.2725811
1.269577
1.2663358
1.2629484
1.2594835
1.2559929
1.2525151
1.2490787
1.2457047
1.2424082
1.2392
1.2360873
1.2330752
1.2301663
1.2273622
1.2246632
1.2220686
1.2195773
1.2171877
1.2148978
1.2127053
1.2106079
1.2086029
1.2066878
1.2048598
1.2031163
1.2014547
1.1998721
1.1983659
1.1969336
1.1955725
1.1942802
1.1930542
1.191892
1.1907914
1.1897499
1.1887655
1.1878358
1.1869589
1.1861325
1.1853548
1.1846238
1.1839374
1.1832939
1.1826914
1.1821282
1.1816023
1.1811121
1.1806559
1.1802319
1.1798387
1.1794746
1.1791384
1.1788289
1.178545
1.1782851
1.1780468
1.177828
1.1776287
1.1774519
1.1772994
1.1771619
1.1770183
1.1768612
1.1767409
1.1767606
1.1769229
1.1768941
1.2431186
1.2757057
1.2828686
1.2926761
1.29758
1.299914
1.3000684
1.2986935
1.2962236
1.2930044
1.2892889
1.2852631
1.2810617
1.2767813
1.2724909
1.2682391
1.2640601
1.2599774
1.2560066
1.2521579
1.2484376
1.2448488
1.2413927
1.2380688
1.2348758
1.2318112
1.2288725
1.2260564
1.2233595
1.2207785
1.2183098
1.2159496
1.2136946
1.2115411
1.2094857
1.207525
1.2056556
1.2038743
1.2021779
1.2005634
1.1990278
1.1975682
1.1961817
1.1948657
1.1936175
1.1924345
1.1913144
1.1902546
1.1892528
1.1883069
1.1874146
1.1865739
1.1857827
1.1850389
1.1843407
1.1836861
1.1830734
1.1825006
1.181966
1.1814677
1.1810042
1.1805735
1.1801743
1.1798049
1.179464
1.1791503
1.1788625
1.1785987
1.1783567
1.178135
1.1779337
1.1777545
1.1775969
1.1774528
1.1773099
1.1771679
1.17706
1.1770462
1.1771237
1.1770957
1.2972689
1.3179554
1.3225111
1.3248781
1.3240795
1.3214238
1.3175258
1.3128759
1.3077957
1.3025028
1.2971415
1.2918067
1.2865602
1.2814413
1.2764743
1.2716734
1.267046
1.2625946
1.258319
1.2542167
1.2502839
1.2465161
1.2429082
1.2394549
1.2361507
1.2329901
1.2299679
1.2270788
1.2243177
1.2216798
1.2191603
1.2167547
1.2144586
1.2122679
1.2101785
1.2081867
1.2062886
1.2044807
1.2027596
1.201122
1.1995647
1.1980847
1.1966791
1.1953449
1.1940795
1.1928802
1.1917446
1.1906701
1.1896543
1.1886952
1.1877903
1.1869376
1.1861351
1.1853807
1.1846724
1.1840085
1.1833869
1.182806
1.1822638
1.1817586
1.1812885
1.180852
1.1804473
1.180073
1.1797275
1.1794095
1.1791174
1.1788494
1.1786035
1.1783784
1.1781742
1.1779913
1.1778281
1.1776782
1.1775346
1.1774005
1.1773002
1.1772666
1.1772887
1.177255
1.3502108
1.3535167
1.352291
1.3478208
1.3419786
1.3353911
1.3285233
1.3216169
1.3148185
1.3082073
1.3018263
1.2956956
1.2898225
1.2842058
1.2788402
1.2737175
1.2688284
1.2641626
1.2597102
1.2554611
1.2514057
1.2475348
1.2438396
1.240312
1.2369442
1.2337288
1.2306591
1.2277285
1.224931
1.2222608
1.2197127
1.2172814
1.2149622
1.2127505
1.210642
1.2086325
1.2067182
1.2048952
1.20316
1.2015091
1.1999394
1.1984476
1.1970307
1.1956858
1.1944102
1.1932011
1.1920561
1.1909725
1.1899481
1.1889806
1.1880677
1.1872073
1.1863973
1.1856358
1.1849208
1.1842504
1.1836227
1.183036
1.1824883
1.1819779
1.181503
1.1810618
1.1806528
1.1802742
1.1799248
1.1796029
1.1793068
1.1790349
1.1787854
1.1785573
1.17835
1.1781632
1.1779949
1.1778417
1.1777007
1.1775748
1.1774749
1.1774123
1.1773819
1.17735
1.3843003
1.3767127
1.3691628
1.3608858
1.3522858
1.3437779
1.3355282
1.3276115
1.3200561
1.3128655
1.306031
1.299538
1.2933695
1.2875074
1.281934
1.2766323
1.2715864
1.2667814
1.2622035
1.2578399
1.2536789
1.2497097
1.2459223
1.2423075
1.2388567
1.2355621
1.2324163
1.2294125
1.2265443
1.2238059
1.2211916
1.2186962
1.2163148
1.2140427
1.2118755
1.2098091
1.2078394
1.2059627
1.2041754
1.2024741
1.2008553
1.1993161
1.1978533
1.1964641
1.1951456
1.1938953
1.1927104
1.1915885
1.1905273
1.1895244
1.1885777
1.1876849
1.1868441
1.1860532
1.1853103
1.1846134
1.1839608
1.1833506
1.1827808
1.1822498
1.1817556
1.1812965
1.1808708
1.1804769
1.1801132
1.1797779
1.1794694
1.1791859
1.1789261
1.178689
1.1784739
1.1782794
1.1781035
1.1779441
1.177801
1.1776766
1.1775733
1.1774906
1.1774299
1.1774029
1.1628526
1.1679538
1.1828544
1.1949479
1.2005217
1.2017892
1.2018526
1.2015131
1.2015515
1.2012509
1.2009604
1.2004392
1.1998532
1.1992114
1.1985251
1.1977989
1.1970373
1.1962458
1.1954293
1.1945918
1.1937373
1.1928693
1.1919909
1.1911049
1.1902141
1.1893207
1.1884269
1.1875347
1.186646
1.1857624
1.1848855
1.1840169
1.183158
1.1823101
1.1814746
1.1806527
1.1798458
1.1790549
1.1782813
1.1775262
1.1767908
1.1760761
1.1753834
1.1747138
1.1740683
1.1734481
1.1728541
1.1722876
1.1717493
1.1712402
1.1707613
1.1703131
1.1698962
1.1695113
1.1691585
1.168838
1.1685496
1.168293
1.1680678
1.1678732
1.1677081
1.1675711
1.1674609
1.1673759
1.1673138
1.1672721
1.167247
1.1672351
1.1672295
1.1672289
1.1672221
1.1672148
1.1671882
1.1671476
1.167091
1.1669532
1.166915
1.1665711
1.1666952
1.1659393
1.1586866
1.1699904
1.1866876
1.1952095
1.1975217
1.1974331
1.1968961
1.1966529
1.1963451
1.1960528
1.195675
1.1952813
1.1948426
1.1943692
1.193857
1.1933125
1.1927368
1.1921327
1.1915026
1.1908488
1.1901737
1.1894795
1.1887686
1.1880432
1.1873055
1.1865577
1.1858019
1.1850402
1.1842747
1.1835072
1.1827398
1.1819743
1.1812125
1.1804562
1.1797071
1.1789669
1.1782372
1.1775197
1.1768158
1.1761271
1.1754551
1.1748013
1.1741671
1.1735537
1.1729627
1.1723953
1.1718526
1.171336
1.1708465
1.1703851
1.1699528
1.1695502
1.1691782
1.1688371
1.1685272
1.1682487
1.1680013
1.1677848
1.1675985
1.1674415
1.1673128
1.1672109
1.1671342
1.167081
1.1670489
1.1670352
1.1670359
1.1670475
1.1670635
1.1670824
1.1670937
1.1671028
1.1670903
1.167063
1.1670142
1.1668899
1.1668541
1.1665299
1.1666564
1.1659074
1.1594098
1.1731902
1.1853017
1.1917716
1.1927783
1.1923114
1.1918201
1.1915717
1.1912926
1.1910203
1.1906968
1.1903701
1.1900087
1.1896329
1.1892296
1.1888056
1.1883584
1.1878897
1.1873998
1.1868896
1.18636
1.1858122
1.1852473
1.1846666
1.1840715
1.1834636
1.1828443
1.1822153
1.1815783
1.1809349
1.1802869
1.1796361
1.1789842
1.1783332
1.1776848
1.1770408
1.1764031
1.1757734
1.1751535
1.1745452
1.1739501
1.1733701
1.1728067
1.1722614
1.171736
1.1712319
1.1707505
1.1702931
1.1698611
1.1694555
1.1690773
1.1687276
1.1684068
1.1681156
1.1678543
1.1676229
1.1674212
1.1672488
1.1671053
1.1669896
1.1669004
1.1668363
1.1667957
1.1667765
1.1667763
1.1667921
1.16682
1.1668564
1.166895
1.1669345
1.1669645
1.1669905
1.1669926
1.1669788
1.1669385
1.1668277
1.1667956
1.1664889
1.1666197
1.1658766
1.157438
1.1721814
1.1830867
1.1878863
1.1877584
1.1873713
1.1869375
1.1867442
1.1864382
1.1861926
1.1858877
1.1856093
1.1853003
1.1849936
1.1846667
1.1843305
1.1839791
1.1836144
1.1832352
1.1828413
1.1824326
1.1820093
1.1815714
1.1811194
1.1806539
1.1801754
1.1796848
1.1791833
1.1786718
1.1781516
1.1776242
1.1770909
1.1765534
1.1760132
1.175472
1.1749317
1.174394
1.1738607
1.1733337
1.1728148
1.1723058
1.1718086
1.1713249
1.1708566
1.1704053
1.1699727
1.1695604
1.1691699
1.1688026
1.1684596
1.1681422
1.1678512
1.1675874
1.1673514
1.1671435
1.1669637
1.1668119
1.1666876
1.1665903
1.1665189
1.1664721
1.1664483
1.1664459
1.1664627
1.166496
1.1665428
1.1665992
1.1666614
1.1667236
1.1667842
1.1668337
1.1668769
1.1668939
1.1668939
1.1668629
1.1667656
1.1667383
1.1664476
1.1665849
1.1658472
1.1521028
1.1688025
1.1788415
1.1824302
1.1819095
1.1818161
1.1814645
1.1814051
1.1811704
1.1810378
1.1808201
1.1806468
1.1804326
1.1802299
1.1800055
1.179776
1.1795322
1.1792777
1.1790106
1.1787307
1.1784379
1.1781319
1.1778128
1.1774805
1.1771355
1.1767779
1.1764083
1.1760272
1.1756356
1.1752342
1.1748241
1.1744063
1.1739823
1.1735534
1.173121
1.1726868
1.1722524
1.1718195
1.1713899
1.1709655
1.1705482
1.1701396
1.1697418
1.1693566
1.1689858
1.168631
1.1682941
1.1679766
1.1676799
1.1674053
1.1671541
1.1669272
1.1667254
1.1665493
1.1663992
1.1662752
1.166177
1.1661043
1.1660564
1.1660322
1.1660303
1.1660492
1.1660869
1.1661413
1.1662097
1.1662888
1.1663747
1.1664637
1.1665503
1.1666329
1.1667022
1.1667631
1.1667952
1.1668091
1.1667879
1.1667043
1.1666826
1.166407
1.1665519
1.1658194
1.1462164
1.1653665
1.1740093
1.176945
1.1762734
1.1764359
1.1761288
1.1762051
1.1760345
1.1760119
1.1758744
1.1758012
1.1756754
1.1755692
1.1754385
1.1753061
1.1751591
1.1750031
1.1748359
1.1746576
1.174468
1.1742669
1.1740542
1.1738298
1.1735938
1.1733463
1.1730874
1.1728176
1.1725373
1.1722471
1.1719477
1.1716401
1.1713251
1.171004
1.170678
1.1703485
1.1700169
1.1696848
1.169354
1.1690261
1.1687028
1.1683861
1.1680777
1.1677796
1.1674934
1.167221
1.166964
1.1667241
1.1665027
1.1663012
1.1661207
1.1659623
1.1658267
1.1657146
1.1656261
1.1655614
1.1655203
1.1655022
1.1655064
1.165532
1.1655773
1.1656408
1.1657204
1.165814
1.1659187
1.1660312
1.1661476
1.1662643
1.166376
1.1664811
1.1665707
1.1666494
1.1666967
1.1667247
1.1667136
1.1666441
1.1666284
1.1663676
1.1665203
1.1657934
1.1410848
1.1621115
1.1692185
1.1718377
1.171062
1.1714263
1.1711274
1.1713136
1.1711821
1.1712474
1.1711724
1.1711862
1.1711352
1.1711065
1.1710492
1.1709956
1.1709291
1.1708564
1.1707748
1.1706842
1.1705844
1.170475
1.1703558
1.1702266
1.1700873
1.1699377
1.1697781
1.1696085
1.1694293
1.1692407
1.1690434
1.1688379
1.1686251
1.1684058
1.1681811
1.1679522
1.1677204
1.167487
1.1672535
1.1670215
1.1667927
1.1665687
1.1663514
1.1661423
1.1659433
1.165756
1.1655822
1.1654232
1.1652807
1.1651558
1.1650497
1.1649633
1.1648975
1.1648527
1.1648292
1.1648269
1.1648456
1.1648848
1.1649437
1.1650211
1.1651156
1.1652254
1.1653485
1.1654825
1.1656245
1.1657713
1.1659191
1.1660642
1.1662015
1.1663296
1.1664397
1.1665363
1.166599
1.166641
1.1666403
1.1665852
1.1665756
1.16633
1.1664902
1.1657694
1.1363086
1.1591327
1.1647177