/*--------------------------------*- C++ -*----------------------------------*\
  =========                 |
  \\      /  F ield         | OpenFOAM: The Open Source CFD Toolbox
   \\    /   O peration     | Website:  https://openfoam.org
    \\  /    A nd           | Version:  12
     \\/     M anipulation  |
\*---------------------------------------------------------------------------*/
FoamFile
{
    format      ascii;
    class       volVectorField;
    location    "0.095";
    object      U;
}
// * * * * * * * * * * * * * * * * * * * * * * * * * * * * * * * * * * * * * //

dimensions      [0 1 -1 0 0 0 0];

internalField   nonuniform List<vector> 
16000
(
(215.72629 -3.1365392e-17 -8.3926379)
(252.67784 0 5.3922568)
(238.7635 0 -7.5835581)
(246.4364 4.9633611e-17 3.7894608)
(241.74196 -4.8992483e-17 -5.9690044)
(243.95248 0 1.7557105)
(242.15542 0 -4.3386832)
(242.6626 8.3858045e-17 -0.030017732)
(241.82172 -7.9671686e-17 -3.1693653)
(241.70014 0 -1.2724503)
(241.18582 7.1989462e-17 -2.574049)
(240.83819 -2.0509798e-16 -1.9916755)
(240.39421 1.2981423e-16 -2.4319968)
(239.96517 -1.2348374e-16 -2.3689642)
(239.50805 1.1716175e-16 -2.5306995)
(239.03708 -3.4754748e-18 -2.6029723)
(238.5475 -3.3015672e-18 -2.7068865)
(238.04023 -9.7424196e-17 -2.8000772)
(237.51473 1.9087509e-16 -2.8950639)
(236.97086 -9.0562977e-17 -2.9878716)
(236.40846 1.7226396e-16 -3.0788862)
(235.82748 -1.632919e-16 -3.1674116)
(235.22791 0 -3.252952)
(234.60984 1.5200013e-16 -3.3349283)
(233.97347 -4.1135161e-18 -3.412754)
(233.31909 -2.6528899e-16 -3.4858107)
(232.64711 1.2573799e-16 -3.5534733)
(231.95806 0 -3.6151037)
(231.25259 0 -3.6700671)
(230.5315 2.1836797e-16 -3.7177369)
(229.79571 -2.0346089e-16 -3.7575082)
(229.04629 0 -3.7888063)
(228.28444 0 -3.8110982)
(227.5115 0 -3.8239062)
(226.72893 5.1331884e-18 -3.8268185)
(225.93831 1.5578143e-16 -3.8195005)
(225.14134 -1.4260508e-16 -3.8017069)
(224.3398 -1.3967162e-16 -3.7732893)
(223.53557 1.236709e-16 -3.7342062)
(222.73055 0 -3.6845299)
(221.92672 -1.1836508e-16 -3.6244481)
(221.12605 1.1172375e-16 -3.5542673)
(220.33053 -2.1173842e-16 -3.4744099)
(219.54208 1.9977049e-16 -3.3854105)
(218.76261 -1.9510639e-16 -3.2879093)
(217.99392 3.5721033e-16 -3.1826415)
(217.23774 5.5966646e-18 -3.0704269)
(216.49566 2.9698308e-19 -2.9521553)
(215.76917 -1.5035632e-16 -2.8287706)
(215.05957 1.4220444e-16 -2.7012527)
(214.36802 -1.2561095e-16 -2.5705998)
(213.69551 0 -2.4378083)
(213.04284 7.465675e-18 -2.3038568)
(212.41062 0 -2.1696892)
(211.79928 6.6435923e-18 -2.0362004)
(211.20904 2.0686888e-16 -1.9042246)
(210.63993 -3.7810806e-16 -1.7745237)
(210.09182 1.0918203e-17 -1.6477774)
(209.56441 1.6802141e-16 -1.5245756)
(209.05718 -1.4872429e-16 -1.4054292)
(208.56941 1.4009063e-16 -1.2907434)
(208.10031 -8.8153483e-18 -1.180862)
(207.64889 0 -1.0760192)
(207.21393 0 -0.97634052)
(206.79392 -1.1109472e-16 -0.88185807)
(206.38701 1.1177516e-16 -0.79251249)
(205.99094 -9.9046427e-17 -0.70818614)
(205.60312 1.9333939e-16 -0.62873536)
(205.22081 -1.8869013e-16 -0.55402128)
(204.84141 8.3653028e-17 -0.48396489)
(204.46272 5.2827764e-18 -0.4185949)
(204.083 0 -0.35795481)
(203.70075 4.7501049e-18 -0.30232336)
(203.31365 -4.5122586e-18 -0.2533138)
(202.91898 0 -0.21181189)
(202.52031 -3.3745959e-17 -0.1728423)
(202.12221 6.2464848e-17 -0.14614946)
(201.6834 -3.1740359e-17 -0.14898393)
(201.29388 0 -0.041782031)
(200.86035 0 -0.14573448)
(217.04237 0 -11.215724)
(254.31457 -3.7216118e-18 3.3420593)
(239.71123 -1.1960977e-16 -10.510683)
(247.90083 1.1027781e-16 1.7072551)
(242.85102 0 -8.8304241)
(245.29294 1.0146309e-16 -0.40140301)
(243.29143 -1.8736611e-16 -7.0846704)
(243.88725 -1.0238348e-19 -2.3109259)
(242.95497 8.4438584e-17 -5.7610143)
(242.83411 0 -3.6718678)
(242.27898 -1.5252675e-16 -5.051295)
(241.90238 1.4919939e-16 -4.4367152)
(241.42639 1.4190392e-16 -4.8633277)
(240.96296 -2.612255e-16 -4.8012184)
(240.47134 1.2008691e-16 -4.9427851)
(239.964 1.1040187e-17 -5.0077319)
(239.43708 1.1544667e-16 -5.0960088)
(238.89117 -1.0281838e-16 -5.1753996)
(238.32589 0 -5.2542422)
(237.74113 0 -5.3298462)
(237.13681 5.6736908e-18 -5.4020973)
(236.51296 -1.7798987e-16 -5.4702924)
(235.86969 3.3750313e-16 -5.5338038)
(235.20723 -3.1537304e-16 -5.5919539)
(234.52589 1.4254623e-16 -5.6440507)
(233.82616 0 -5.6893879)
(233.1086 1.2432751e-16 -5.7272506)
(232.37396 -1.3331667e-16 -5.7569302)
(231.62309 0 -5.777732)
(230.85701 3.5231972e-18 -5.7889871)
(230.07687 -1.3363627e-17 -5.790063)
(229.284 0 -5.7803797)
(228.47982 0 -5.7594174)
(227.66592 -1.7052658e-16 -5.7267365)
(226.84402 3.386092e-16 -5.6819859)
(226.01593 -1.62598e-16 -5.6249168)
(225.18357 -1.590055e-16 -5.5553956)
(224.34894 1.4553175e-16 -5.4734101)
(223.51408 -1.1209301e-16 -5.3790795)
(222.68107 -2.8591508e-19 -5.2726586)
(221.85201 -2.6745147e-19 -5.1545388)
(221.02897 2.3266687e-16 -5.0252473)
(220.21398 -1.0977583e-16 -4.8854419)
(219.40899 0 -4.7359028)
(218.61587 2.0227218e-16 -4.5775226)
(217.83637 1.1931312e-17 -4.4112926)
(217.0721 -5.1150449e-18 -4.2382856)
(216.32453 -1.6445627e-16 -4.0596386)
(215.59496 0 -3.8765321)
(214.88452 -1.4648526e-16 -3.6901694)
(214.19414 -8.8547972e-18 -3.501756)
(213.52458 2.5999015e-16 -3.3124778)
(212.8764 -1.3002757e-16 -3.1234841)
(212.24998 0 -2.9358698)
(211.64549 -2.0373466e-17 -2.7506598)
(211.06291 -2.1111198e-16 -2.5687978)
(210.50207 3.6110986e-16 -2.3911335)
(209.96262 -2.1517735e-16 -2.2184152)
(209.44406 0 -2.0512827)
(208.94574 -1.7072158e-16 -1.8902773)
(208.46681 1.7940316e-16 -1.7358139)
(208.00633 2.6674281e-17 -1.5882229)
(207.56327 0 -1.4477255)
(207.13633 -1.4182887e-16 -1.3144139)
(206.72401 7.3176623e-18 -1.1882822)
(206.32445 1.1166194e-16 -1.0692299)
(205.93544 -1.9728831e-17 -0.95709906)
(205.5544 9.296466e-17 -0.85171057)
(205.17854 -1.0508511e-16 -0.75290366)
(204.80517 5.5066625e-18 -0.6605997)
(204.432 -5.1960642e-18 -0.57480679)
(204.05741 0 -0.49546971)
(203.67995 -4.6365737e-18 -0.42290817)
(203.29703 4.3856818e-18 -0.35892778)
(202.90659 8.3066471e-18 -0.30332336)
(202.51241 9.8428061e-19 -0.25112724)
(202.10939 0 -0.21878972)
(201.67754 3.0217005e-17 -0.20537473)
(201.29116 -5.7573453e-17 -0.082315912)
(200.82103 2.5848772e-17 -0.22154056)
(218.22476 0 -14.112946)
(255.80142 -1.224094e-16 1.0961628)
(240.66194 2.4964031e-16 -13.524955)
(249.16382 -2.2293649e-16 -0.54949873)
(243.85264 1.101057e-16 -11.772062)
(246.43074 -3.2602958e-18 -2.7534004)
(244.30136 9.9235184e-17 -9.8814227)
(244.92268 -9.3983882e-17 -4.791404)
(243.93341 -5.579188e-18 -8.4188842)
(243.78904 -5.2974307e-18 -6.2385622)
(243.19846 -1.0063251e-17 -7.628475)
(242.78574 1.3884001e-16 -7.0195313)
(242.27419 -1.4073405e-16 -7.4145331)
(241.77218 1.3812303e-16 -7.3593274)
(241.24139 -1.1865538e-16 -7.4793227)
(240.69324 -1.5551557e-17 -7.5360558)
(240.12424 0 -7.6085547)
(239.53499 -1.230447e-20 -7.6729269)
(238.92518 -2.261954e-16 -7.7345218)
(238.2948 -3.6728616e-19 -7.7913167)
(237.64389 1.7337352e-16 -7.842881)
(236.97261 1.7030197e-17 -7.888425)
(236.28121 -2.1540984e-17 -7.9271984)
(235.57009 0 -7.9584175)
(234.83977 7.2041044e-21 -7.9812928)
(234.09089 -1.6536204e-16 -7.9950307)
(233.32427 1.4773257e-16 -7.9988467)
(232.54088 8.245346e-18 -7.991972)
(231.74183 0 -7.9736729)
(230.9284 -7.3972357e-18 -7.9432576)
(230.10204 -1.4366228e-21 -7.9000964)
(229.26433 -1.991247e-16 -7.8436334)
(228.41701 2.0054376e-16 -7.7734024)
(227.56196 1.1883684e-17 -7.6890453)
(226.70116 -1.7990047e-16 -7.5903213)
(225.83671 1.4847243e-16 -7.4771237)
(224.97077 -1.8091469e-16 -7.3494887)
(224.10555 1.5163888e-16 -7.207605)
(223.2433 -1.4357921e-16 -7.0518159)
(222.38625 1.35317e-16 -6.8826245)
(221.5366 1.6000021e-17 -6.7006901)
(220.69648 0 -6.5068202)
(219.86793 1.9958736e-16 -6.3019634)
(219.05289 -2.4158059e-16 -6.0871947)
(218.25313 0 -5.8636992)
(217.47027 1.7930083e-16 -5.6327544)
(216.70576 -1.573408e-16 -5.3957063)
(215.96086 1.6976398e-16 -5.1539486)
(215.23662 -1.7956455e-16 -4.9088973)
(214.53391 0 -4.6619683)
(213.85338 1.7706555e-16 -4.4145547)
(213.19549 -1.3307094e-16 -4.1680041)
(212.5605 0 -3.9236013)
(211.94849 0 -3.6825514)
(211.35933 1.2468355e-16 -3.4459637)
(210.79273 -2.0822886e-16 -3.214843)
(210.24826 1.2223447e-16 -2.9900785)
(209.72531 1.8395917e-16 -2.7724389)
(209.22319 1.9904007e-19 -2.5625661)
(208.74105 1.7719753e-19 -2.3609852)
(208.2779 -3.2380062e-16 -2.1680847)
(207.83268 8.9361771e-17 -1.9841438)
(207.40425 0 -1.8093393)
(206.99127 1.4203089e-16 -1.6437067)
(206.59219 -1.6292417e-16 -1.4871801)
(206.20517 1.1136052e-16 -1.3396029)
(205.82802 1.3144548e-17 -1.2007619)
(205.45823 -8.5931853e-17 -1.0704304)
(205.09301 1.1539832e-17 -0.94842151)
(204.72964 2.1702781e-17 -0.83465602)
(204.36581 -1.0206265e-16 -0.72911059)
(203.99998 9.5992696e-17 -0.63167236)
(203.63074 -7.2328471e-17 -0.5427942)
(203.25556 1.3624778e-16 -0.46416374)
(202.87313 -5.6184993e-17 -0.39431412)
(202.4859 -6.0621255e-17 -0.33010367)
(202.08404 5.0085817e-17 -0.29157518)
(201.66071 0 -0.2584376)
(201.28012 3.2048459e-18 -0.12584976)
(200.78196 -1.2152709e-17 -0.29768663)
(219.2459 0 -17.079592)
(257.13756 0 -1.2856103)
(241.42771 0 -16.67384)
(250.24551 1.065379e-16 -2.9117254)
(244.66704 -1.2370741e-16 -14.842013)
(247.40075 -2.2032228e-16 -5.2225737)
(245.12924 2.0954777e-16 -12.795513)
(245.77903 -1.2411232e-17 -7.3986961)
(244.72554 5.9099768e-18 -11.186724)
(244.55376 -1.7379206e-16 -8.9365381)
(243.92326 1.7014068e-16 -10.316765)
(243.469 1.0111558e-17 -9.7276553)
(242.91709 -1.5354513e-16 -10.083061)
(242.37122 1.3639759e-16 -10.036382)
(241.79618 -1.3720293e-20 -10.133556)
(241.20209 -8.1802471e-18 -10.180121)
(240.58603 0 -10.235242)
(239.94855 -7.3845733e-18 -10.282147)
(239.28949 -2.1020737e-16 -10.323844)
(238.60895 2.1225185e-16 -10.358757)
(237.90711 1.2599091e-17 -10.386227)
(237.18427 -1.1945089e-17 -10.405377)
(236.44088 2.1525349e-16 -10.415354)
(235.67752 -1.7146052e-16 -10.415282)
(234.89492 1.0168145e-17 -10.404281)
(234.09399 1.9280577e-16 -10.381485)
(233.2758 -1.2754112e-16 -10.346043)
(232.4416 0 -10.297147)
(231.59283 1.4737502e-16 -10.234037)
(230.73108 -1.2370354e-16 -10.156028)
(229.85813 2.4931167e-16 -10.062521)
(228.97592 -1.3315679e-17 -9.9530247)
(228.0865 -2.0941779e-16 -9.8271724)
(227.19209 1.7369667e-16 -9.684739)
(226.29498 -1.8711517e-16 -9.5256532)
(225.39755 -3.0097314e-20 -9.3500123)
(224.5022 2.0918158e-16 -9.1580895)
(223.61136 -3.1569e-16 -8.9503374)
(222.72743 9.2913049e-17 -8.7273912)
(221.85276 3.517777e-17 -8.4900629)
(220.9896 -4.9742604e-17 -8.2393357)
(220.14008 0 -7.9763485)
(219.30619 -8.8511501e-17 -7.7023821)
(218.48972 1.3862499e-16 -7.4188368)
(217.6923 -2.093133e-16 -7.127211)
(216.91533 1.9666989e-16 -6.8290774)
(216.15999 -2.0860009e-16 -6.5260535)
(215.42725 3.922383e-16 -6.2197766)
(214.71784 -3.0738755e-16 -5.9118778)
(214.03228 3.0824111e-16 -5.6039554)
(213.37088 -1.4467737e-16 -5.2975525)
(212.73374 1.3618843e-16 -4.9941371)
(212.12077 -9.5737219e-17 -4.695082)
(211.53171 3.0020908e-17 -4.4016534)
(210.9661 0 -4.1149948)
(210.42337 0 -3.836122)
(209.90279 0 -3.5659149)
(209.40351 2.3238316e-17 -3.3051156)
(208.92462 0 -3.0543248)
(208.46509 -1.6356e-16 -2.8140117)
(208.02378 1.9147264e-16 -2.584505)
(207.59953 -1.0777358e-16 -2.366005)
(207.19109 -1.1791693e-19 -2.1586157)
(206.79709 2.5214708e-16 -1.9623)
(206.41596 2.9615515e-17 -1.7769189)
(206.04588 -1.3829981e-16 -1.6022498)
(205.68473 5.1864776e-17 -1.4380183)
(205.33003 -1.4570965e-16 -1.2839456)
(204.97907 -4.553133e-17 -1.1398169)
(204.6291 -6.4005367e-17 -1.0055431)
(204.27781 -6.0023104e-17 -0.88106121)
(203.92367 5.6251053e-17 -0.76624866)
(203.5653 0 -0.66170083)
(203.20044 0 -0.5687291)
(202.82843 -1.5506161e-17 -0.4848282)
(202.4497 0 -0.40948076)
(202.05185 6.8498781e-18 -0.36366571)
(201.63874 5.1575862e-17 -0.3095129)
(201.26404 -7.2871591e-17 -0.1711245)
(200.74117 -1.0591433e-20 -0.37421673)
(220.08849 0 -20.244578)
(258.30051 -8.8068759e-18 -3.7448941)
(242.05238 2.6639213e-16 -19.958097)
(251.10625 -2.4881404e-16 -5.3987791)
(245.24553 2.5390302e-16 -18.026122)
(248.16768 -2.3229189e-16 -7.844731)
(245.75674 -2.2144015e-16 -15.815007)
(246.42381 2.096193e-16 -10.164235)
(245.3085 0 -14.057663)
(245.0988 0 -11.784723)
(244.42611 1.7965074e-16 -13.11956)
(243.92349 -1.701936e-16 -12.568824)
(243.32646 -1.0110801e-17 -12.874912)
(242.73153 2.8758452e-17 -12.836006)
(242.10729 -9.1009813e-18 -12.908317)
(241.46242 3.451791e-17 -12.940965)
(240.79455 0 -12.975767)
(240.10418 0 -13.001455)
(239.39129 -2.3573867e-16 -13.019429)
(238.65609 2.0906665e-16 -13.028337)
(237.89892 0 -13.027334)
(237.12028 0 -13.015438)
(236.32083 -1.9022867e-16 -12.991665)
(235.50141 3.6000439e-16 -12.955032)
(234.66304 -1.7027042e-16 -12.904559)
(233.80694 -2.0172135e-17 -12.839295)
(232.93456 -3.820624e-17 -12.758335)
(232.04749 -1.4477031e-16 -12.660839)
(231.14757 1.1952982e-16 -12.546057)
(230.23679 0 -12.413342)
(229.31733 -3.0614555e-17 -12.262178)
(228.39153 0 -12.092201)
(227.46183 0 -11.90321)
(226.53079 2.0667418e-16 -11.695192)
(225.60104 -2.190584e-16 -11.468326)
(224.67523 2.2979419e-17 -11.222997)
(223.75599 -2.1682548e-17 -10.959801)
(222.84594 -4.0992575e-17 -10.679539)
(221.94757 -8.5854921e-20 -10.383215)
(221.06326 8.1559682e-20 -10.07202)
(220.19526 -7.6978467e-20 -9.7473261)
(219.34558 0 -9.4106499)
(218.51604 -1.2169125e-16 -9.0636427)
(217.70824 1.1427345e-16 -8.7080536)
(216.92349 0 -8.3457026)
(216.16289 -5.0650133e-17 -7.9784539)
(215.42725 1.9036859e-16 -7.6081783)
(214.71715 -2.2316558e-16 -7.2367291)
(214.03292 -2.0995905e-16 -6.8659124)
(213.37467 1.5741424e-16 -6.4974626)
(212.74228 1.110232e-16 -6.13302)
(212.13545 -1.3858247e-16 -5.7741141)
(211.5537 -3.2490697e-17 -5.4221462)
(210.9964 -2.1344817e-16 -5.0783814)
(210.46276 1.1415984e-16 -4.7439366)
(209.95188 -1.070718e-16 -4.4197795)
(209.46276 1.0014924e-16 -4.1067253)
(208.9943 2.3465628e-16 -3.8054368)
(208.54538 -1.7550256e-16 -3.5164258)
(208.11481 0 -3.2400638)
(207.70132 -3.8406498e-17 -2.976581)
(207.30363 -7.1893191e-17 -2.7260728)
(206.92043 1.3433743e-16 -2.4885415)
(206.55033 1.2568958e-16 -2.26386)
(206.19174 -2.3488696e-16 -2.0518023)
(205.84289 8.2264518e-17 -1.8520703)
(205.50172 5.1282976e-17 -1.6643209)
(205.16587 9.5878671e-17 -1.4882203)
(204.83268 1.344188e-16 -1.3235222)
(204.49945 2.4615712e-20 -1.1701164)
(204.16387 0 -1.0279)
(203.82442 0 -0.89679598)
(203.47967 -3.4215041e-17 -0.77751794)
(203.12786 9.6000044e-17 -0.67077618)
(202.76887 -8.9789823e-17 -0.57335645)
(202.40078 -8.4053798e-17 -0.48782563)
(202.00986 5.245045e-17 -0.43376409)
(201.60971 0 -0.35755836)
(201.24158 4.6082697e-17 -0.21694757)
(200.69731 1.7876326e-20 -0.44994325)
(220.73178 0 -23.582136)
(259.26468 1.8960945e-20 -6.2797579)
(242.48376 9.0648556e-18 -23.337933)
(251.79936 2.8817762e-16 -8.0252575)
(245.66723 3.3405931e-19 -21.31445)
(248.70264 -5.0546868e-16 -10.618061)
(246.13836 -3.2425264e-19 -18.929974)
(246.82748 4.5590376e-16 -13.092691)
(245.65056 -2.0976144e-16 -17.029723)
(245.39671 -1.2442548e-17 -14.782647)
(244.68036 1.1817536e-17 -16.035788)
(244.12434 -1.794447e-16 -15.536141)
(243.47846 1.9117647e-16 -15.784935)
(242.83025 -1.8165133e-16 -15.749729)
(242.15246 3.0599633e-16 -15.794888)
(241.45225 -3.0830368e-16 -15.809127)
(240.7278 1.3740806e-16 -15.820193)
(239.97961 0 -15.820647)
(239.20784 0 -15.810757)
(238.41291 1.4637151e-17 -15.789179)
(237.5954 -2.7754239e-17 -15.754852)
(236.75609 0 -15.706628)
(235.89599 1.9930541e-16 -15.643373)
(235.01628 4.7317392e-19 -15.563977)
(234.1184 -3.5669564e-16 -15.46736)
(233.20401 1.6854086e-16 -15.352506)
(232.27498 1.9941807e-17 -15.21849)
(231.3334 0 -15.064488)
(230.38158 -1.7864646e-16 -14.889814)
(229.42199 1.3470976e-16 -14.693941)
(228.45728 -2.2339038e-16 -14.476517)
(227.49023 2.1026438e-16 -14.237397)
(226.5237 -2.2756768e-16 -13.976647)
(225.56062 2.1420437e-16 -13.69457)
(224.60391 7.5935519e-17 -13.391705)
(223.65648 0 -13.068828)
(222.72113 0 -12.726958)
(221.80055 4.2322716e-17 -12.367337)
(220.89726 3.9862769e-17 -11.99142)
(220.01357 -3.7530266e-17 -11.600848)
(219.15155 3.5319407e-17 -11.197428)
(218.313 6.6637379e-17 -10.783095)
(217.49944 -6.2587904e-17 -10.359888)
(216.7121 3.5288096e-16 -9.9299056)
(215.9519 -2.760364e-16 -9.4952758)
(215.21947 5.1809546e-17 -9.0581223)
(214.51517 -4.8751156e-17 -8.6205278)
(213.83909 0 -8.1845072)
(213.19106 2.142737e-16 -7.7519795)
(212.57073 -1.6049455e-16 -7.3247473)
(211.9775 0 -6.9044755)
(211.41064 0 -6.4926821)
(210.86925 1.320638e-16 -6.0907237)
(210.35232 -6.1726707e-17 -5.6997929)
(209.85874 0 -5.3209138)
(209.38729 -1.6218813e-16 -4.9549431)
(208.93672 1.0095821e-16 -4.6025737)
(208.50571 1.4171159e-16 -4.2643375)
(208.09295 -1.7627639e-16 -3.9406115)
(207.69709 1.6477039e-16 -3.6316318)
(207.31679 -1.5369608e-16 -3.3374946)
(206.95067 6.8109319e-20 -3.0581668)
(206.59739 0 -2.7935268)
(206.25554 6.2476091e-17 -2.5433419)
(205.92356 -2.9129727e-16 -2.3072895)
(205.59974 1.6291725e-16 -2.0849885)
(205.28211 0 -1.8760246)
(204.96842 -1.4166024e-16 -1.6800084)
(204.65615 8.799997e-17 -1.4966598)
(204.34266 1.2311641e-16 -1.3258321)
(204.0257 3.4394446e-20 -1.1673914)
(203.70364 -7.1261093e-17 -1.0213617)
(203.37505 9.9664896e-17 -0.88850934)
(203.03876 -1.5483011e-16 -0.7687747)
(202.69508 8.6601555e-17 -0.65868709)
(202.33946 2.6902763e-17 -0.56399401)
(201.9581 5.0216022e-17 -0.50059174)
(201.57366 0 -0.4020717)
(201.21181 -4.3751112e-17 -0.26211822)
(200.64967 2.0364133e-17 -0.51950005)
(221.15951 0 -27.088135)
(260.02183 9.7995082e-18 -8.9212653)
(242.71416 -3.0560831e-16 -26.843142)
(252.30697 2.4952372e-16 -10.793369)
(245.89193 2.5631377e-16 -24.701955)
(248.99475 -4.9990276e-16 -13.546326)
(246.31853 2.2994694e-16 -22.127608)
(246.97395 2.3280518e-16 -16.183609)
(245.75401 -2.2063258e-16 -20.087388)
(245.43661 3.9272671e-17 -17.916884)
(244.67583 0 -19.053193)
(244.06095 0 -18.613822)
(243.36128 -2.2336396e-17 -18.801753)
(242.65396 -1.6958353e-16 -18.766042)
(241.91628 1.4034285e-16 -18.783391)
(241.15405 1.9038475e-17 -18.775725)
(240.36613 -3.6089592e-17 -18.760098)
(239.55313 3.0791518e-16 -18.731449)
(238.71555 -2.2627406e-16 -18.689244)
(237.85412 2.4560188e-16 -18.632027)
(236.96981 -2.0295677e-16 -18.558527)
(236.06381 2.7518091e-17 -18.467441)
(235.13759 1.5633934e-16 -18.357501)
(234.19282 -1.966345e-16 -18.227507)
(233.23147 0 -18.076329)
(232.25574 0 -17.902951)
(231.26807 0 -17.706494)
(230.27112 -1.9695059e-16 -17.486246)
(229.26776 1.8552768e-16 -17.241688)
(228.26101 -3.5155209e-17 -16.972515)
(227.25403 0 -16.67867)
(226.25007 -2.8182118e-16 -16.360351)
(225.25238 2.3554169e-16 -16.018028)
(224.26423 -5.5713066e-17 -15.652447)
(223.2888 1.5755835e-16 -15.264637)
(222.32912 -4.8959147e-17 -14.855886)
(221.38808 -1.8571533e-16 -14.427743)
(220.46832 2.1909028e-16 -13.981982)
(219.57221 -1.6447907e-16 -13.520582)
(218.70183 7.7586536e-17 -13.045686)
(217.85891 -7.2802241e-17 -12.559571)
(217.04488 1.3685548e-16 -12.064598)
(216.26078 -6.4126811e-17 -11.563181)
(215.50733 -2.4135899e-16 -11.057741)
(214.7849 5.0893842e-16 -10.550665)
(214.09356 -2.119673e-16 -10.044272)
(213.43308 -1.4937514e-16 -9.5407855)
(212.80299 9.2869231e-17 -9.0422982)
(212.20257 8.7362988e-17 -8.5507558)
(211.63092 -1.6343273e-16 -8.0679378)
(211.08697 1.5269875e-16 -7.5954465)
(210.56955 0 -7.1347)
(210.07733 1.3365747e-16 -6.6869288)
(209.60896 -1.8721196e-16 -6.2531772)
(209.16301 5.8342385e-17 -5.834306)
(208.73799 5.437188e-17 -5.4309994)
(208.33243 0 -5.0437726)
(207.94483 0 -4.6729794)
(207.57373 0 -4.3188217)
(207.21769 0 -3.9813668)
(206.87527 0 -3.6605507)
(206.54509 -7.1441234e-17 -3.3561911)
(206.22579 0 -3.0680281)
(205.91596 -5.6012269e-20 -2.7957123)
(205.61413 2.3070837e-16 -2.5388183)
(205.31863 -2.1462409e-16 -2.2968783)
(205.02762 -9.9914663e-17 -2.0694064)
(204.73899 -1.8577974e-16 -1.8559614)
(204.45037 2.5896812e-16 -1.6562235)
(204.1593 4.8415923e-20 -1.4699962)
(203.86354 7.4593091e-17 -1.2971352)
(203.56135 0 -1.1378092)
(203.25126 0 -0.992731)
(202.93281 0 -0.86098918)
(202.60648 -1.1135052e-16 -0.73940997)
(202.26502 0 -0.63661749)
(201.89597 -9.6201943e-17 -0.56272802)
(201.52976 1.3412662e-16 -0.44248575)
(201.17387 8.3167226e-17 -0.30608655)
(200.59803 -1.9251585e-17 -0.58823538)
(221.37601 0 -30.771488)
(260.57864 0 -11.671307)
(242.75037 3.2152839e-16 -30.480191)
(252.63301 1.9291822e-17 -13.719942)
(245.93083 -2.690552e-16 -28.199199)
(249.10647 0 -16.652299)
(246.29744 1.6120855e-17 -25.403578)
(246.99392 -3.0558432e-17 -19.428432)
(245.60878 0 -23.209997)
(245.22136 1.9263025e-16 -21.17057)
(244.40907 -4.1704248e-16 -22.167864)
(243.72479 1.9747679e-16 -21.796504)
(242.96151 2.3439428e-17 -21.925683)
(242.18515 0 -21.884944)
(241.37764 2.103234e-17 -21.873652)
(240.54368 -3.3927364e-16 -21.839737)
(239.68277 7.4792249e-17 -21.792889)
(238.79581 2.5003271e-16 -21.729451)
(237.8837 2.3745807e-16 -21.648394)
(236.94763 -2.5612938e-16 -21.548145)
(235.98907 0 -21.427264)
(235.00975 -2.8739864e-16 -21.284341)
(234.0117 2.4401922e-16 -21.118026)
(232.99727 -2.05683e-16 -20.927093)
(231.96903 1.9385964e-16 -20.710448)
(230.92988 -1.8372428e-16 -20.467163)
(229.88291 3.465894e-16 -20.19653)
(228.83146 -1.6355727e-16 -19.898065)
(227.77902 1.5468791e-16 -19.571561)
(226.72919 -2.9163657e-16 -19.217095)
(225.68565 1.3726204e-16 -18.835056)
(224.65207 1.2963612e-16 -18.426154)
(223.63207 -2.4459416e-16 -17.991419)
(222.62913 5.6782415e-17 -17.532198)
(221.64654 -5.7592195e-19 -17.050144)
(220.68736 2.5447481e-16 -16.54718)
(219.75433 0 -16.025483)
(218.84986 1.9454416e-19 -15.487436)
(217.97597 0 -14.935587)
(217.13428 -7.9434647e-17 -14.372603)
(216.32602 -1.4928549e-16 -13.801224)
(215.55199 7.0092701e-17 -13.224207)
(214.8126 0 -12.644287)
(214.1079 -6.1767938e-17 -12.064131)
(213.43756 2.8910662e-16 -11.486297)
(212.80098 -3.2457624e-16 -10.913201)
(212.19727 -3.041276e-16 -10.347094)
(211.62532 2.8395792e-16 -9.7900382)
(211.08383 -1.7721077e-16 -9.2438936)
(210.57136 0 -8.7103099)
(210.08637 0 -8.1907239)
(209.62724 7.2328153e-17 -7.6863604)
(209.1923 6.7499848e-17 -7.198239)
(208.77986 1.2579595e-16 -6.7271802)
(208.38824 -5.8660891e-17 -6.2738164)
(208.01575 -1.0927174e-16 -5.8386028)
(207.66074 -2.0377518e-16 -5.42183)
(207.32159 -9.5070039e-17 -5.0236351)
(206.99675 1.7649977e-16 -4.6440139)
(206.68473 0 -4.2828417)
(206.38406 -7.6453094e-17 -3.939876)
(206.09337 -1.4211232e-16 -3.6147738)
(205.81132 1.3203905e-16 -3.3071306)
(205.53658 6.1242214e-17 -3.0164748)
(205.26772 5.6964076e-17 -2.7422773)
(205.0032 0 -2.4839842)
(204.74132 1.9639628e-16 -2.2410424)
(204.48012 1.8224583e-16 -2.0129629)
(204.21743 -2.5360938e-16 -1.79938)
(203.95098 7.8441632e-17 -1.6000386)
(203.67863 -7.2708339e-17 -1.4148145)
(203.39845 -4.5398217e-20 -1.2440376)
(203.10895 2.4992425e-16 -1.088227)
(202.81042 -2.316348e-16 -0.94566718)
(202.5031 5.3627099e-17 -0.81408479)
(202.17727 1.4917632e-16 -0.70422795)
(201.82333 -4.6082629e-17 -0.61868857)
(201.47752 -4.2684147e-17 -0.47816699)
(201.12722 0 -0.34725234)
(200.54249 3.6541109e-17 -0.65398271)
(221.39216 3.9106097e-16 -34.64193)
(260.94045 5.4359571e-19 -14.537309)
(242.57054 -3.5837406e-16 -34.265392)
(252.77121 0 -16.810713)
(245.70712 0 -31.772132)
(248.876 -2.6737195e-16 -19.931511)
(245.97082 2.7048517e-16 -28.734248)
(246.49662 6.4153024e-17 -22.83419)
(245.19335 -2.4349912e-16 -26.433202)
(244.72629 2.3031675e-16 -24.570181)
(243.85194 -2.4616171e-16 -25.407215)
(243.08539 2.0689985e-16 -25.099435)
(242.24636 -4.9084801e-17 -25.169417)
(241.38925 -4.6547201e-17 -25.114044)
(240.50039 -1.7638576e-16 -25.069083)
(239.58358 1.6659986e-16 -25.001163)
(238.63904 -3.5578924e-16 -24.915128)
(237.66807 5.9806429e-16 -24.808018)
(236.67211 -2.8257914e-16 -24.678412)
(235.65293 -2.681284e-16 -24.524596)
(234.61266 2.5284782e-16 -24.344998)
(233.55375 -3.0112818e-17 -24.138135)
(232.47898 -2.2666975e-16 -23.902654)
(231.39145 2.135244e-16 -23.637399)
(230.29457 2.5295113e-16 -23.341423)
(229.19199 -1.426296e-16 -23.014037)
(228.08759 0 -22.654855)
(226.98544 2.5508826e-16 -22.263812)
(225.88966 -3.2040103e-16 -21.841201)
(224.80445 1.1273434e-16 -21.387679)
(223.73392 -2.8503737e-16 -20.904285)
(222.68209 2.008216e-16 -20.39243)
(221.65276 -6.3280404e-17 -19.853887)
(220.64948 2.3780487e-16 -19.290758)
(219.67543 -2.2306485e-16 -18.705454)
(218.73343 -2.1024001e-16 -18.100638)
(217.82584 1.9705201e-16 -17.479182)
(216.95456 -4.6217016e-17 -16.844114)
(216.12099 0 -16.198554)
(215.32607 8.1789805e-17 -15.545659)
(214.57025 -7.633675e-17 -14.888569)
(213.85352 0 -14.230349)
(213.17546 1.3442295e-16 -13.573945)
(212.5353 -6.2881544e-17 -12.922143)
(211.93192 -1.7631472e-16 -12.277534)
(211.36396 5.4997699e-16 -11.642491)
(210.82982 -2.0592263e-16 -11.019153)
(210.32775 9.604325e-17 -10.409415)
(209.85588 -2.6930949e-16 -9.8149236)
(209.41227 -1.8500182e-19 -9.2370804)
(208.99494 1.5615e-16 -8.6770524)
(208.60191 -1.4567216e-16 -8.13578)
(208.23122 -6.7792386e-17 -7.6139917)
(207.88093 -6.31485e-17 -7.112219)
(207.54918 -1.1791757e-16 -6.6308109)
(207.23414 2.1897896e-16 -6.1699504)
(206.93407 0 -5.7296692)
(206.64731 9.4632438e-17 -5.3098618)
(206.37225 -3.5214451e-16 -4.9103005)
(206.10742 2.4508197e-16 -4.5306564)
(205.85139 7.5848634e-17 -4.1705015)
(205.60281 1.4091297e-16 -3.8293306)
(205.36044 1.309378e-16 -3.5065966)
(205.12301 -1.2114727e-16 -3.2017074)
(204.88922 -1.1226773e-16 -2.9140347)
(204.65765 -3.1232257e-16 -2.6429434)
(204.42675 -4.2437829e-20 -2.3878218)
(204.19476 -8.9261586e-17 -2.1481375)
(203.95973 0 -1.9234718)
(203.71964 -2.2949067e-16 -1.7135128)
(203.47244 7.0769511e-17 -1.518191)
(203.21603 0 -1.3379686)
(202.94898 1.2108906e-16 -1.173018)
(202.67215 0 -1.0210273)
(202.38506 1.0344967e-16 -0.88119621)
(202.07615 -1.4335884e-16 -0.76520829)
(201.74023 1.3248166e-16 -0.66689373)
(201.41661 -8.1583831e-17 -0.50858544)
(201.07081 7.535619e-17 -0.38551578)
(200.48344 0 -0.71491835)
(221.19553 -4.1082026e-16 -38.705798)
(261.09439 3.6286125e-16 -17.537063)
(242.139 -3.3247406e-16 -38.228693)
(252.6532 3.3059191e-16 -20.078487)
(245.19822 3.1659386e-16 -35.40345)
(248.41809 -1.7993024e-17 -23.396385)
(245.40142 -2.8347435e-16 -32.14805)
(245.87125 -2.6910192e-16 -26.432387)
(244.4813 2.8642557e-16 -29.776313)
(243.90649 0 -28.117047)
(242.9596 2.8580168e-17 -28.77842)
(242.09821 0 -28.521981)
(241.17075 -1.2855108e-16 -28.532287)
(240.22061 2.4272127e-16 -28.450622)
(239.23818 0 -28.364183)
(238.22684 0 -28.25197)
(237.18759 0 -28.115791)
(236.12234 3.9093615e-17 -27.952958)
(235.03329 0 -27.761759)
(233.92301 -2.4450934e-16 -27.540382)
(232.7945 3.294389e-16 -27.287186)
(231.65111 1.2465705e-16 -27.000729)
(230.49658 1.7676135e-16 -26.67978)
(229.33496 -2.7764622e-16 -26.323411)
(228.17061 -5.2321064e-17 -25.931014)
(227.00808 -2.4761726e-16 -25.502353)
(225.85208 1.8636445e-16 -25.037597)
(224.7074 -2.2012269e-16 -24.53735)
(223.57879 8.2355447e-17 -24.002651)
(222.47089 7.786552e-17 -23.434989)
(221.38813 0 -22.836283)
(220.33463 2.7702612e-16 -22.208851)
(219.31416 -2.6018731e-16 -21.555383)
(218.32999 0 -20.878883)
(217.38492 -2.3002669e-16 -20.182617)
(216.48116 2.1545386e-16 -19.470042)
(215.62037 -1.0153905e-16 -18.744741)
(214.80359 1.9010299e-16 -18.01035)
(214.03133 -2.6711348e-16 -17.270489)
(213.30352 1.2834304e-19 -16.528697)
(212.61962 -1.5607029e-16 -15.788375)
(211.97861 -7.3041324e-17 -15.052733)
(211.37912 -1.3709343e-16 -14.324754)
(210.81944 2.5556523e-16 -13.607163)
(210.29762 -1.1926043e-16 -12.902403)
(209.81151 0 -12.21263)
(209.35884 -3.8405125e-19 -11.53971)
(208.93727 9.7023212e-17 -10.88522)
(208.54442 0 -10.250464)
(208.17793 8.4393246e-17 -9.6364834)
(207.8355 7.8914215e-17 -9.0440799)
(207.51486 -7.3269573e-17 -8.4738308)
(207.21387 2.727948e-16 -7.9261114)
(206.93044 -2.5360151e-16 -7.4011148)
(206.66263 -1.179491e-16 -6.8988707)
(206.40855 -1.095755e-16 -6.4192636)
(206.16647 1.0174676e-16 -5.9620495)
(205.93472 1.8874055e-16 -5.526871)
(205.71176 -3.5010924e-16 -5.1132733)
(205.49615 4.0575945e-16 -4.7207251)
(205.28656 -1.5034774e-16 -4.3486177)
(205.08173 1.3936549e-16 -3.9962916)
(204.88051 -1.2901191e-16 -3.6630682)
(204.68176 2.3894253e-16 -3.3482433)
(204.48432 -3.3171263e-16 -3.051099)
(204.28693 2.0448846e-16 -2.7709295)
(204.08818 -8.4345802e-20 -2.5070749)
(203.88655 8.7415691e-17 -2.2589638)
(203.68033 0 -2.0261202)
(203.46779 0 -1.8081898)
(203.24697 0 -1.6051862)
(203.01567 -1.2705667e-16 -1.4176209)
(202.7726 1.7345984e-20 -1.2451864)
(202.51887 0 -1.0853455)
(202.25277 0 -0.93921241)
(201.96196 9.1897572e-17 -0.81783475)
(201.64702 -1.693423e-16 -0.70581215)
(201.34688 0 -0.53288675)
(201.00376 0 -0.42120288)
(200.42134 -1.3187611e-16 -0.76897921)
(220.75219 2.7732927e-17 -42.972593)
(261.00304 -7.8563328e-16 -20.692985)
(241.42804 3.4782954e-16 -42.331585)
(252.00739 -2.1730894e-17 -23.527472)
(244.37387 3.7316091e-16 -39.15686)
(247.62441 -3.5189786e-16 -27.08534)
(244.52062 0 -35.678742)
(244.85836 -3.1699101e-16 -30.223022)
(243.41697 2.3303304e-16 -33.234482)
(242.71777 2.2133938e-16 -31.80329)
(241.68483 -2.3891823e-16 -32.283818)
(240.71448 0 -32.05976)
(239.68414 1.9175491e-19 -32.008264)
(238.62733 0 -31.886439)
(237.5381 3.8486842e-16 -31.747105)
(236.41982 -7.2705479e-16 -31.576908)
(235.27447 3.432486e-16 -31.375827)
(234.10486 -4.0547487e-17 -31.141276)
(232.91417 -3.8531427e-17 -30.871361)
(231.70607 3.6623264e-17 -30.564261)
(230.48468 -6.8386167e-17 -30.218426)
(229.25454 -3.2397238e-16 -29.83261)
(228.02052 3.0491485e-16 -29.40594)
(226.78783 5.7480876e-17 -28.937973)
(225.56185 -2.7241888e-16 -28.428721)
(224.34808 -7.0019694e-19 -27.878717)
(223.15206 2.8933781e-16 -27.289009)
(221.97918 -1.8160338e-16 -26.661176)
(220.83463 -6.1604143e-19 -25.997315)
(219.72329 0 -25.300013)
(218.64956 0 -24.572306)
(217.61735 -7.1466977e-17 -23.817615)
(216.62994 1.3379447e-16 -23.039691)
(215.68994 0 -22.242521)
(214.79929 -1.1826117e-16 -21.430252)
(213.95918 2.21282e-16 -20.607107)
(213.17015 -1.0367064e-16 -19.777285)
(212.43205 -1.9428421e-16 -18.944898)