/*--------------------------------*- C++ -*----------------------------------*\
  =========                 |
  \\      /  F ield         | OpenFOAM: The Open Source CFD Toolbox
   \\    /   O peration     | Website:  https://openfoam.org
    \\  /    A nd           | Version:  12
     \\/     M anipulation  |
\*---------------------------------------------------------------------------*/
FoamFile
{
    format      ascii;
    class       volScalarField;
    location    "0.02";
    object      alphat;
}
// * * * * * * * * * * * * * * * * * * * * * * * * * * * * * * * * * * * * * //

dimensions      [1 -1 -1 0 0 0 0];

internalField   nonuniform List<scalar> 
16000
(
4.7900508e-07
1.1023523e-05
2.0827971e-05
2.6038679e-05
1.9839354e-05
2.7822877e-05
1.9214586e-05
2.6755138e-05
2.0321523e-05
2.8616555e-05
2.3575843e-05
2.8301248e-05
2.5516079e-05
2.6423598e-05
2.5461787e-05
2.5371069e-05
2.5107834e-05
2.505527e-05
2.5081477e-05
2.5216104e-05
2.5449932e-05
2.5783134e-05
2.6213091e-05
2.6740351e-05
2.7367816e-05
2.810269e-05
2.8954296e-05
2.9937413e-05
3.1070238e-05
3.2372638e-05
3.3866235e-05
3.5579429e-05
3.7548871e-05
3.9819869e-05
4.2448542e-05
4.5502341e-05
4.9062394e-05
5.3226232e-05
5.8115326e-05
6.3881845e-05
7.0707401e-05
7.8808595e-05
8.8460977e-05
0.00010000796
0.00011386753
0.00013055192
0.00015071187
0.00017516802
0.00020496702
0.00024145033
0.00028634788
0.00034191702
0.00041112225
0.00049793154
0.00060781655
0.0007486486
0.00093228883
0.0011771209
0.0011897775
0.0011909744
0.0011921269
0.0011931412
0.0011939207
0.0011944619
0.0011947785
0.0011948479
0.0011947326
0.0011945231
0.0011942336
0.0011939458
0.0011937141
0.0011935509
0.0011934371
0.0011933979
0.0011936837
0.0011942692
0.0011932383
0.0011917289
0.0011744694
0.0011936394
4.2547338e-07
1.0384665e-05
2.1320976e-05
2.3515187e-05
1.7836733e-05
2.4819294e-05
1.7041214e-05
2.3355222e-05
1.8005119e-05
2.5248939e-05
2.139238e-05
2.5521703e-05
2.3378576e-05
2.3965917e-05
2.322705e-05
2.3071295e-05
2.2861047e-05
2.2805264e-05
2.2837426e-05
2.2965745e-05
2.3187566e-05
2.350248e-05
2.3908734e-05
2.4406954e-05
2.4999577e-05
2.5693497e-05
2.6496996e-05
2.7423556e-05
2.8490528e-05
2.9717509e-05
3.1125008e-05
3.2739428e-05
3.4595218e-05
3.6734956e-05
3.921193e-05
4.20905e-05
4.5448643e-05
4.9379627e-05
5.3998711e-05
5.9452373e-05
6.5918321e-05
7.3605285e-05
8.2779031e-05
9.3775065e-05
0.00010700662
0.00012297821
0.00014233428
0.00016589187
0.00019470203
0.00023012551
0.00027392452
0.00032841968
0.00039669549
0.00048289813
0.00059271954
0.00073420575
0.00091906168
0.0011645391
0.001188903
0.0011900557
0.0011911431
0.0011921084
0.001192843
0.0011933282
0.0011935748
0.0011936262
0.0011935449
0.0011933644
0.0011931541
0.0011929817
0.0011928897
0.0011928817
0.0011929336
0.0011930847
0.0011935287
0.0011939916
0.0011937844
0.0011910151
0.001176256
0.0011939112
3.8194788e-07
9.879329e-06
1.9682102e-05
2.1480407e-05
1.5923055e-05
2.1798872e-05
1.5151985e-05
2.0270959e-05
1.6168626e-05
2.2133973e-05
1.9504514e-05
2.2729291e-05
2.1209081e-05
2.1479018e-05
2.09197e-05
2.0733105e-05
2.0561723e-05
2.0511859e-05
2.0549004e-05
2.0673126e-05
2.0883516e-05
2.1180057e-05
2.1561386e-05
2.202842e-05
2.2583143e-05
2.3232231e-05
2.3983194e-05
2.4848346e-05
2.5843904e-05
2.6989022e-05
2.830337e-05
2.9811653e-05
3.1546354e-05
3.3547509e-05
3.5865648e-05
3.8561975e-05
4.1711283e-05
4.5403118e-05
4.9747013e-05
5.4882835e-05
6.0984231e-05
6.8253052e-05
7.6945303e-05
8.7386542e-05
9.9983728e-05
0.00011523163
0.00013376383
0.00015638847
0.00018414617
0.00021838985
0.0002608789
0.00031392414
0.00038060168
0.00046502679
0.00057273036
0.00071125939
0.00089099489
0.0011259549
0.0011882596
0.001189364
0.0011903469
0.001191214
0.0011918535
0.0011922711
0.0011925027
0.0011925588
0.0011924802
0.0011923392
0.0011922131
0.0011921593
0.0011922039
0.001192338
0.0011925409
0.0011928716
0.0011934595
0.0011939926
0.0011939625
0.0011906563
0.001177985
0.0011937944
3.4717925e-07
9.5112784e-06
1.9187141e-05
1.9510828e-05
1.4256395e-05
1.9212319e-05
1.3482944e-05
1.7682177e-05
1.4544836e-05
1.9485017e-05
1.7818559e-05
2.0248168e-05
1.9203051e-05
1.9229488e-05
1.8805062e-05
1.8610491e-05
1.8472135e-05
1.8433367e-05
1.8477938e-05
1.8601265e-05
1.8803558e-05
1.9085083e-05
1.9444744e-05
1.9883893e-05
2.0404172e-05
2.1012147e-05
2.1714799e-05
2.2523501e-05
2.3453365e-05
2.4523126e-05
2.5751859e-05
2.7162751e-05
2.878661e-05
3.0661164e-05
3.2834457e-05
3.536477e-05
3.832389e-05
4.1798161e-05
4.5892188e-05
5.073905e-05
5.6508572e-05
6.3396578e-05
7.1650072e-05
8.1583653e-05
9.359717e-05
0.00010817311
0.00012592973
0.00014766431
0.00017439837
0.0002074506
0.00024854807
0.00029993775
0.00036455388
0.00044626392
0.00055009478
0.00068252333
0.00085175552
0.0010673722
0.0011878435
0.0011889225
0.0011897731
0.0011905003
0.0011910295
0.001191389
0.0011915937
0.0011916435
0.0011915835
0.0011914887
0.0011914431
0.0011915011
0.0011916734
0.0011919386
0.0011922821
0.0011927841
0.0011935118
0.0011941901
0.0011939326
0.0011910076
0.0011796283
0.0011936717
3.0410692e-07
9.2179228e-06
1.8248774e-05
1.9129995e-05
1.3327801e-05
1.6936404e-05
1.2014463e-05
1.545623e-05
1.3147828e-05
1.719777e-05
1.631568e-05
1.8003055e-05
1.7314713e-05
1.7170767e-05
1.6846336e-05
1.6662364e-05
1.6551705e-05
1.6525689e-05
1.6576696e-05
1.6698622e-05
1.6891972e-05
1.7157745e-05
1.7495125e-05
1.7906048e-05
1.8392053e-05
1.895962e-05
1.9615373e-05
2.0369928e-05
2.1237294e-05
2.2235692e-05
2.3383749e-05
2.4703323e-05
2.6223754e-05
2.7980674e-05
3.0019856e-05
3.2396869e-05
3.51806e-05
3.8454536e-05
4.2319306e-05
4.6901099e-05
5.2365766e-05
5.8903733e-05
6.6753854e-05
7.6218662e-05
8.7689899e-05
0.00010163609
0.00011865574
0.00013952514
0.00016523663
0.00019705759
0.00023663663
0.00028610917
0.00034816118
0.00042622143
0.00052461742
0.00064857505
0.00080409793
0.00099675094
0.0011875865
0.0011886787
0.0011893771
0.0011899218
0.0011903218
0.001190615
0.0011908033
0.0011908747
0.0011908537
0.0011908126
0.0011908448
0.0011910077
0.0011913004
0.0011916889
0.0011921692
0.0011928381
0.0011936874
0.0011945681
0.0011942359
0.0011917173
0.0011812119
0.0011936195
2.8112927e-07
9.0280592e-06
1.7406483e-05
1.9093798e-05
1.3521281e-05
1.4963503e-05
1.073233e-05
1.3586959e-05
1.1967202e-05
1.5259378e-05
1.499107e-05
1.6023748e-05
1.5580689e-05
1.5333732e-05
1.5074999e-05
1.4906608e-05
1.4814247e-05
1.4796218e-05
1.4848868e-05
1.4966013e-05
1.5148085e-05
1.5396869e-05
1.5711693e-05
1.6094888e-05
1.6548153e-05
1.7077707e-05
1.7689889e-05
1.8394705e-05
1.9205083e-05
2.0138668e-05
2.1213778e-05
2.2451139e-05
2.3878861e-05
2.5530751e-05
2.745061e-05
2.9691625e-05
3.2320036e-05
3.5416785e-05
3.9079617e-05
4.3428427e-05
4.8624729e-05
5.4854217e-05
6.2348963e-05
7.1398621e-05
8.2386168e-05
9.5767272e-05
0.00011212032
0.00013218633
0.00015691367
0.00018751257
0.0002255044
0.00027285028
0.00033197788
0.00040587404
0.00049814728
0.00061290468
0.00075406912
0.00092368807
0.0011204857
0.0011885863
0.0011891241
0.0011894503
0.0011897078
0.0011899281
0.0011901124
0.0011902333
0.001190282
0.0011903104
0.0011904175
0.0011906748
0.001191078
0.0011915836
0.0011921985
0.0011930182
0.001194011
0.0011949978
0.0011947767
0.0011920856
0.0011828001
0.0011936417
2.5852174e-07
8.9204972e-06
1.6758591e-05
1.8312442e-05
1.3264027e-05
1.3223761e-05
1.1024518e-05
1.2287266e-05
1.1803566e-05
1.3644806e-05
1.3822665e-05
1.4287817e-05
1.398368e-05
1.3683559e-05
1.3460712e-05
1.330658e-05
1.3225518e-05
1.3212265e-05
1.3264417e-05
1.3376285e-05
1.3547706e-05
1.3781035e-05
1.4075653e-05
1.4347102e-05
1.4760776e-05
1.5247417e-05
1.5812622e-05
1.6465548e-05
1.7217827e-05
1.8086135e-05
1.9088403e-05
2.024421e-05
2.1580475e-05
2.3129195e-05
2.4932248e-05
2.7040523e-05
2.9517614e-05
3.2441739e-05
3.5908295e-05
4.033342e-05
4.5301625e-05
5.1268664e-05
5.8461499e-05
6.7156785e-05
7.7727405e-05
9.0617053e-05
0.0001063852
0.00012573591
0.00014956414
0.00017901797
0.00021549639
0.00026075247
0.00031693675
0.00038660212
0.0004726231
0.00057787231
0.0007043772
0.00085263959
0.0010214599
0.0011885709
0.0011889595
0.0011890526
0.001189147
0.0011892804
0.0011894756
0.0011896861
0.0011898491
0.001189974
0.0011901584
0.0011904985
0.0011910018
0.001191622
0.0011923652
0.0011932789
0.0011942991
0.0011951629
0.0011953943
0.0011929887
0.0011847961
0.0011935798
2.3125973e-07
8.858701e-06
1.6235087e-05
1.6782321e-05
1.3015131e-05
1.1589364e-05
1.0327693e-05
1.1166694e-05
1.0540925e-05
1.2222462e-05
1.2669981e-05
1.271156e-05
1.2464275e-05
1.215833e-05
1.1960831e-05
1.1825095e-05
1.1756916e-05
1.1751111e-05
1.1731832e-05
1.1823342e-05
1.1974508e-05
1.2186247e-05
1.2457145e-05
1.2786751e-05
1.3180442e-05
1.3642224e-05
1.4177623e-05
1.4795686e-05
1.5507375e-05
1.6328774e-05
1.7277911e-05
1.8373706e-05
1.9642447e-05
2.1114923e-05
2.2831789e-05
2.4842353e-05
2.7208434e-05
3.0006296e-05
3.3329884e-05
3.7294678e-05
4.2042938e-05
4.7756273e-05
5.4657702e-05
6.3542238e-05
7.3775182e-05
8.6260319e-05
0.00010153544
0.00012027395
0.00014331506
0.00017172516
0.00020678878
0.00025007222
0.00030340454
0.00036885753
0.0004486053
0.00054462638
0.0006583046
0.00079012606
0.00093951235
0.0011051019
0.0011888519
0.0011887093
0.0011886038
0.0011886337
0.0011888555
0.0011891982
0.001189529
0.0011897881
0.0011900587
0.0011904709
0.0011910635
0.0011917974
0.0011926593
0.001193601
0.0011944775
0.0011952074
0.0011958832
0.001193963
0.0011878391
0.0011933326
2.126285e-07
8.8044221e-06
1.5761139e-05
1.4672869e-05
1.08078e-05
1.0098301e-05
8.3692376e-06
9.4841487e-06
9.5706709e-06
1.1013736e-05
1.1472136e-05
1.1242032e-05
1.1021618e-05
1.074307e-05
1.057178e-05
1.0383333e-05
1.0302456e-05
1.0289327e-05
1.0335817e-05
1.0438931e-05
1.0594669e-05
1.0804487e-05
1.1068559e-05
1.1386888e-05
1.1764226e-05
1.2205688e-05
1.2716762e-05
1.3306493e-05
1.3985378e-05
1.4768912e-05
1.5675341e-05
1.6723192e-05
1.7938455e-05
1.9351041e-05
2.1000759e-05
2.2935838e-05
2.5216833e-05
2.7918621e-05
3.1133479e-05
3.4974604e-05
3.9582701e-05
4.513411e-05
5.1850583e-05
5.9992981e-05
6.9897354e-05
8.1985682e-05
9.7626221e-05
0.00011586899
0.00013825174
0.00016575964
0.00019955313
0.00024102329
0.00029173148
0.00035337201
0.00042764997
0.00051610151
0.00061995858
0.00073989764
0.00087583226
0.0010273918
0.0011887779
0.0011883987
0.001188055
0.0011879695
0.001188227
0.0011887385
0.0011892883
0.0011897259
0.0011901014
0.0011905801
0.0011912514
0.0011920943
0.0011930666
0.0011939959
0.001194637
0.0011951601
0.0011961194
0.0011945876
0.0011907236
0.0011933876
1.95804e-07
8.7563012e-06
1.4619299e-05
1.2642694e-05
8.725726e-06
9.0096071e-06
7.2283848e-06
8.586243e-06
8.8892648e-06
9.8462065e-06
1.0281078e-05
9.9019478e-06
9.6944693e-06
9.3580926e-06
9.1745463e-06
9.0618344e-06
9.0151773e-06
9.0268822e-06
9.0904245e-06
9.2037658e-06
9.3644253e-06
9.573079e-06
9.8322517e-06
1.0141722e-05
1.0506871e-05
1.0932833e-05
1.1425363e-05
1.1993645e-05
1.2647886e-05
1.3403055e-05
1.4277697e-05
1.5290304e-05
1.6466836e-05
1.7836642e-05
1.9439057e-05
2.1321673e-05
2.354427e-05
2.6180899e-05
2.9323138e-05
3.3083141e-05
3.7599514e-05
4.3044871e-05
4.9639615e-05
5.7637511e-05
6.736645e-05
7.923423e-05
9.3744448e-05
0.0001114885
0.00013442336
0.00016120225
0.00019393524
0.00023384801
0.00028228975
0.00034069864
0.0004105061
0.00049303895
0.00058939612
0.00070038588
0.00082654752
0.00096847054
0.0011271894
0.001188101
0.0011875049
0.0011872922
0.001187586
0.0011882838
0.0011890894
0.0011897497
0.0011902592
0.0011908083
0.001191549
0.0011924863
0.0011935428
0.0011944719
0.0011947952
0.0011949486
0.0011962112
0.0011947272
0.0011916162
0.0011934711
1.8064465e-07
8.7052164e-06
1.1551148e-05
1.0738545e-05
7.0503233e-06
8.0521566e-06
6.5613673e-06
7.7034203e-06
8.3366923e-06
8.8009905e-06
9.1136881e-06
8.5955915e-06
8.3359562e-06
8.1023701e-06
7.9669775e-06
7.8934634e-06
7.8757406e-06
7.9086526e-06
7.986818e-06
8.10916e-06
8.2748217e-06
8.4847903e-06
8.7415437e-06
9.0457898e-06
9.4029072e-06
9.8185673e-06
1.0298774e-05
1.0852935e-05
1.1491199e-05
1.222812e-05
1.3014323e-05
1.3993562e-05
1.5134097e-05
1.6464675e-05
1.8024123e-05
1.9859398e-05
2.2029527e-05
2.4607719e-05
2.768487e-05
3.1372212e-05
3.5807105e-05
4.1483309e-05
4.8020331e-05
5.5949044e-05
6.5588202e-05
7.7331793e-05
9.1670449e-05
0.00010916927
0.00013052171
0.0001565594
0.0001899644
0.00022862156
0.00027522706
0.00033103354
0.00039731034
0.00047526685
0.00056603869
0.00067075759
0.00079056074
0.00092668616
0.0010808592
0.001187819
0.0011869741
0.0011866297
0.001186947
0.001187821
0.0011888948
0.0011898139
0.0011904947
0.00119113
0.0011919354
0.0011929445
0.0011940125
0.0011948479
0.001194912
0.001194576
0.0011962413
0.0011944947
0.0011917972
0.0011934383
1.6739484e-07
8.6569654e-06
9.0733072e-06
8.9536669e-06
6.0885106e-06
7.1234367e-06
6.0403172e-06
6.9517809e-06
7.7740313e-06
7.8269744e-06
7.8307987e-06
7.3821435e-06
7.1706704e-06
6.9990614e-06
6.9050355e-06
6.8643134e-06
6.8719087e-06
6.922777e-06
7.013988e-06
7.1481868e-06
7.3196369e-06
7.5325017e-06
7.7897834e-06
8.0926708e-06
8.4466332e-06
8.8182403e-06
9.2846909e-06
9.8243781e-06
1.0447276e-05
1.1167416e-05
1.2001697e-05
1.2972174e-05
1.4103817e-05
1.5425311e-05
1.6975608e-05
1.8801794e-05
2.0963082e-05
2.3532821e-05
2.6602461e-05
3.0283713e-05
3.4714358e-05
4.0066193e-05
4.6549044e-05
5.4412927e-05
6.3968982e-05
7.6256818e-05
9.0537243e-05
0.00010792149
0.00012906002
0.00015473302
0.00018582579
0.00022543274
0.00027070046
0.00032461886
0.00038837778
0.00046319857
0.00055033596
0.00065114122
0.00076714996
0.00090014747
0.0010522633
0.0011875636
0.0011864945
0.0011860204
0.0011863362
0.0011873502
0.0011886746
0.0011898719
0.0011907632
0.0011915119
0.0011923858
0.0011934538
0.0011945081
0.0011951597
0.0011949704
0.0011943377
0.0011959507
0.0011942063
0.0011919432
0.0011932673
1.5561889e-07
8.6072052e-06
7.1688113e-06
7.8458779e-06
5.4249185e-06
6.3031544e-06
5.5818432e-06
6.286092e-06
7.0926979e-06
6.7092655e-06
6.6684525e-06
6.3210541e-06
6.1541471e-06
6.0330907e-06
5.9749375e-06
5.9620203e-06
5.9931606e-06
6.0626471e-06
6.1685608e-06
6.3112473e-06
6.4908874e-06
6.7094995e-06
6.9397131e-06
7.2386468e-06
7.5883845e-06
7.9938579e-06
8.4634625e-06
9.006182e-06
9.6322161e-06
1.0355799e-05
1.1193953e-05
1.2168379e-05
1.3305358e-05
1.4633824e-05
1.6193121e-05
1.8030832e-05
2.0206909e-05
2.2795329e-05
2.5888749e-05
2.9600316e-05
3.4068192e-05
3.9463515e-05
4.6000061e-05
5.392475e-05
6.3544918e-05
7.5235473e-05
8.9450979e-05
0.00010672129
0.00012879314
0.0001543066
0.00018507619
0.00022203038
0.00026871866
0.00032144908
0.00038364899
0.00045659252
0.00054167285
0.00064047284
0.00075482003
0.00088678846
0.0010387343
0.0011873475
0.0011860937
0.0011854998
0.0011857849
0.0011868831
0.0011884127
0.0011898839
0.0011910181
0.0011919168
0.0011928763
0.0011940013
0.0011950081
0.0011954072
0.0011949193
0.0011941195
0.0011957306
0.0011938483
0.0011920126
0.0011929954
1.4520103e-07
8.5502228e-06
5.7181493e-06
6.8499137e-06
4.842032e-06
5.5812613e-06
5.1944665e-06
5.6064282e-06
6.2287072e-06
5.7412612e-06
5.6497496e-06
5.3954727e-06
5.2700517e-06
5.1909693e-06
5.1649521e-06
5.179382e-06
5.2302273e-06
5.3169562e-06
5.4371642e-06
5.5699723e-06
5.7529103e-06
5.9749272e-06
6.238795e-06
6.548062e-06
6.9078391e-06
7.3234956e-06
7.8033098e-06
8.35698e-06
8.9949317e-06
9.7315463e-06
1.0583924e-05
1.1573937e-05
1.2669475e-05
1.4006154e-05
1.5575452e-05
1.7425345e-05
1.9616655e-05
2.2223916e-05
2.5340856e-05
2.9082379e-05
3.3587827e-05
3.9326014e-05
4.5969628e-05
5.4018468e-05
6.3776767e-05
7.5611026e-05
8.9971741e-05
0.00010737776
0.00012842975
0.00015523652
0.00018595641
0.00022272574
0.00026651792
0.00032146195
0.00038301074
0.00045524493
0.00053969755
0.00063812322
0.00075255634
0.00088529527
0.0010388545
0.0011871762
0.0011857863
0.0011850916
0.0011853209
0.0011864415
0.0011881112
0.0011898263
0.0011912213
0.0011923108
0.0011933858
0.001194572
0.0011955095
0.0011955847
0.0011947086
0.0011937738
0.0011951614
0.0011933867
0.0011920037
0.001192749
1.3600352e-07
8.4250894e-06
4.6216375e-06
5.9785711e-06
4.3211233e-06
4.9363254e-06
4.8615969e-06
4.8671425e-06
5.3528923e-06
4.8795514e-06
4.7680142e-06
4.5911459e-06
4.5051294e-06
4.4632489e-06
4.4655747e-06
4.5041695e-06
4.5759277e-06
4.6604494e-06
4.7895382e-06
4.9534417e-06
5.1533479e-06
5.391107e-06
5.670285e-06
5.9946285e-06
6.3699012e-06
6.8017597e-06
7.298535e-06
7.8456331e-06
8.49654e-06
9.2469589e-06
1.0113958e-05
1.1119319e-05
1.2289623e-05
1.3658242e-05
1.5264861e-05
1.7158449e-05
1.9401752e-05
2.2070904e-05
2.5261591e-05
2.9092027e-05
3.3704319e-05
3.9275393e-05
4.6015331e-05
5.4177359e-05
6.4065655e-05
7.6682016e-05
9.12926e-05
0.000108961
0.00013027918
0.00015592701
0.00018842788
0.0002253903
0.00026934814
0.00032139314
0.0003864319
0.00045905266
0.00054419564
0.00064377195
0.00075997477
0.00089523455
0.0010521413
0.001187046
0.0011855714
0.0011848027
0.0011849633
0.0011860528
0.001187791
0.0011897002
0.0011913549
0.0011926701
0.0011938924
0.0011951485
0.0011960109
0.0011957225
0.0011943221
0.0011932621
0.0011945232
0.0011928897
0.0011920617
0.0011927341
1.2794329e-07
8.0858664e-06
3.8593045e-06
5.2028614e-06
3.8608369e-06
4.3708952e-06
4.328578e-06
4.1986529e-06
4.5051408e-06
4.118892e-06
4.0133707e-06
3.898654e-06
3.8496241e-06
3.8404533e-06
3.8696996e-06
3.9160559e-06
4.0005879e-06
4.118709e-06
4.2696997e-06
4.453968e-06
4.6733424e-06
4.930258e-06
5.2287431e-06
5.5728504e-06
5.9542893e-06
6.4032802e-06
6.9177826e-06
7.5073718e-06
8.1841052e-06
8.9623154e-06
9.8594119e-06
1.0897921e-05
1.2105313e-05
1.3515918e-05
1.5171742e-05
1.7122906e-05
1.943461e-05
2.2185271e-05
2.5472627e-05
2.9419351e-05
3.4169523e-05
3.9903897e-05
4.6839621e-05
5.5231911e-05
6.538998e-05
7.7679809e-05
9.3355503e-05
0.00011141904
0.00013316967
0.00015929871
0.00019056701
0.0002300306
0.00027468641
0.00032760229
0.00039009971
0.00046811784
0.0005552899
0.00065757826
0.00077733797
0.00091712733
0.0010795406
0.001186945
0.0011854345
0.001184624
0.0011847185
0.0011857426
0.0011874874
0.0011895319
0.0011914234
0.0011929769
0.001194364
0.0011957067
0.0011965173
0.0011958813
0.001193855
0.0011927041
0.0011937217
0.0011925466
0.0011923702
0.001193069
1.2110575e-07
7.6835932e-06
3.4043844e-06
4.5203812e-06
3.4532301e-06
3.7081402e-06
3.8589253e-06
3.585419e-06
3.7360081e-06
3.4589477e-06
3.3755184e-06
3.3103332e-06
3.2953061e-06
3.3159568e-06
3.3522041e-06
3.4312259e-06
3.542624e-06
3.6851911e-06
3.8591698e-06
4.0657496e-06
4.3073574e-06
4.5867085e-06
4.8979808e-06
5.2625018e-06
5.6789396e-06
6.1539985e-06
6.6957258e-06
7.3139994e-06
8.021051e-06
8.8320603e-06
9.7648637e-06
1.0842781e-05
1.2094286e-05
1.3555084e-05
1.5202322e-05
1.72056e-05
1.9579122e-05
2.2404064e-05
2.5937332e-05
3.0024665e-05
3.4942765e-05
4.0876062e-05
4.8050087e-05
5.672548e-05
6.7216309e-05
7.989751e-05
9.5208875e-05
0.00011366295
0.00013706883
0.0001639173
0.00019603981
0.00023436479
0.00028261739
0.00033715712
0.00040175111
0.00048276149
0.00057347541
0.00068031387
0.00080583985
0.00095279776
0.0011237775
0.0011868535
0.0011853483
0.0011845287
0.0011845726
0.0011855204
0.0011872299
0.001189351
0.0011914322
0.0011931994
0.0011947271
0.0011961264
0.0011969295
0.0011960768
0.0011934714
0.001192277
0.0011931161
0.001192534
0.0011930871
0.0011936051
1.157624e-07
6.5363788e-06
3.0188813e-06
3.9033917e-06
3.1020132e-06
3.0955407e-06
3.3911871e-06
3.0295208e-06
3.0744142e-06
2.8958503e-06
2.8421517e-06
2.8177338e-06
2.8249201e-06
2.8645199e-06
2.9404855e-06
3.0484058e-06
3.1861946e-06
3.3537205e-06
3.5520279e-06
3.7827622e-06
4.0422308e-06
4.3441598e-06
4.6883638e-06
5.0796056e-06
5.5235705e-06
6.0271566e-06
6.5987503e-06
7.2485655e-06
7.9891423e-06
8.8157595e-06
9.7815542e-06
1.0895255e-05
1.2186236e-05
1.3691103e-05
1.5455331e-05
1.7535327e-05
2.0000106e-05
2.2935146e-05
2.644511e-05
3.065729e-05
3.5727003e-05
4.2144547e-05
4.9596409e-05
5.8606243e-05
6.9495683e-05
8.265063e-05
9.8525742e-05
0.00011765493
0.00014195389
0.00016978456
0.00020311621
0.00024294802
0.00029327934
0.00035028285
0.00041807611
0.00049857786
0.00059963804
0.00071337974
0.00084767016
0.0010055984
0.0011886687
0.0011867385
0.0011852671
0.0011844632
0.0011844755
0.0011853522
0.001187003
0.0011891443
0.0011913419
0.0011932507
0.0011948438
0.0011962242
0.0011970374
0.0011962433
0.0011934358
0.0011921534
0.001192678
0.0011929002
0.0011939956
0.001194005
1.1144878e-07
4.6231932e-06
2.6681736e-06
3.3333191e-06
2.6525007e-06
2.5813078e-06
2.898899e-06
2.5346203e-06
2.5234676e-06
2.4224784e-06
2.4022861e-06
2.4052119e-06
2.4438814e-06
2.5187079e-06
2.6252324e-06
2.7608334e-06
2.9247256e-06
3.1174833e-06
3.3371556e-06
3.5913169e-06
3.8809685e-06
4.209416e-06
4.5806932e-06
4.9997232e-06
5.472451e-06
6.006037e-06
6.6091637e-06
7.2806129e-06
8.0524531e-06
8.9325156e-06
9.9406847e-06
1.1101518e-05
1.2445808e-05
1.4011976e-05
1.5847822e-05
1.8012363e-05
2.0578145e-05
2.363432e-05
2.7290278e-05
3.167961e-05
3.6964909e-05
4.334244e-05
5.1430653e-05
6.0824031e-05
7.2177615e-05
8.5893894e-05
0.00010244943
0.00012240876
0.0001464399
0.00017690659
0.00021183994
0.00025371195
0.00030385351
0.00036726857
0.00043954356
0.00052591155
0.00063506217
0.00075888112
0.00090622646
0.0010808757
0.0011884417
0.0011865441
0.0011851155
0.0011843342
0.0011843229
0.0011851317
0.0011867043
0.0011888065
0.0011910229
0.0011929558
0.0011944897
0.0011957256
0.0011964972
0.0011960338
0.0011936509
0.0011920069
0.0011923991
0.0011933854
0.0011944091
0.0011937715
1.0695782e-07
3.8410444e-06
2.3043005e-06
2.8078446e-06
2.2850943e-06
2.1520012e-06
2.3892595e-06
2.1006955e-06
2.0760225e-06
2.0349671e-06
2.0438777e-06
2.081791e-06
2.1575522e-06
2.2641501e-06
2.3988375e-06
2.5605456e-06
2.7494698e-06
2.964241e-06
3.2108745e-06
3.4904685e-06
3.8059207e-06
4.1607686e-06
4.5592614e-06
5.0064884e-06
5.5085703e-06
6.0728948e-06
6.7002958e-06
7.4145349e-06
8.2235365e-06
9.14391e-06
1.0196461e-05
1.1406998e-05
1.2807777e-05
1.4439052e-05
1.6351077e-05
1.8606167e-05
2.1280778e-05
2.4468427e-05
2.8283831e-05
3.2866513e-05
3.8386746e-05
4.5378949e-05
5.3503046e-05
6.332673e-05
7.520847e-05
8.9573708e-05
0.00010692969
0.00012788205
0.00015457493
0.00018527148
0.00022223022
0.00026672204
0.00032028305
0.00038840014
0.00046666933
0.00056101847
0.00068132252
0.00081956849
0.00098623314
0.0011865201
0.0011880693
0.0011861815
0.0011847772
0.0011840006
0.0011839505
0.0011846749
0.0011861357
0.0011881272
0.0011902438
0.0011920466
0.001193358
0.0011942915
0.0011948595
0.0011946762
0.0011931907
0.0011916427
0.0011918185
0.0011929412
0.001193452
0.0011920408
1.039961e-07
3.0958452e-06
1.9883815e-06
2.2707493e-06
1.9856997e-06
1.786021e-06
1.9150626e-06
1.7333715e-06
1.7254508e-06
1.7330187e-06
1.7722188e-06
1.8491097e-06
1.9567806e-06
2.091125e-06
2.2509494e-06
2.4363857e-06
2.6470442e-06
2.8867862e-06
3.1572937e-06
3.4611974e-06
3.8016713e-06
4.1824446e-06
4.6079002e-06
5.0832377e-06
5.6147019e-06
6.2051627e-06
6.8709296e-06
7.6202348e-06
8.4669255e-06
9.4283054e-06
1.0526249e-05
1.178789e-05
1.3247143e-05
1.4946245e-05
1.6937851e-05
1.9287562e-05
2.20765e-05
2.5402859e-05
2.9387782e-05
3.4178135e-05
4.0218018e-05
4.7251474e-05
5.5757663e-05
6.6055068e-05
7.8524301e-05
9.3622438e-05
0.00011189758
0.00013401081
0.00016221057
0.00019480548
0.00023422938
0.00028195042
0.00033978533
0.00041380081
0.00049979949
0.00060466381
0.00073997401
0.00089849473
0.0010935399
0.0011897857
0.0011874757
0.0011855357
0.0011841003
0.0011832842
0.0011831571
0.0011837538
0.0011850412
0.0011868272
0.001188707
0.001190205
0.0011911054
0.0011915708
0.001191762
0.0011915813
0.0011909995
0.0011902142
0.0011904317
0.0011905971
0.0011904251
0.0011878719
1.0289544e-07
2.4461027e-06
1.71578e-06
1.7553254e-06
1.7103476e-06
1.4727353e-06
1.5279829e-06
1.4414487e-06
1.4652674e-06
1.5077308e-06
1.586725e-06
1.695052e-06
1.8289421e-06
1.9866392e-06
2.1682651e-06
2.3748655e-06
2.6071579e-06
2.8687983e-06
3.1617364e-06
3.4888587e-06
3.8534905e-06
4.2594753e-06
4.7112856e-06
5.2141986e-06
5.774539e-06
6.4000057e-06
7.1000896e-06
7.8865653e-06
8.7632081e-06
9.7655456e-06
1.0908977e-05
1.2222076e-05
1.374058e-05
1.5508978e-05
1.7582442e-05
2.0112951e-05
2.3041459e-05
2.6537123e-05
3.0728653e-05
3.5772797e-05
4.1859897e-05
4.9220348e-05
5.8134143e-05
6.8939719e-05
8.2046259e-05
9.7949235e-05
0.00011724823
0.00014190172
0.00017054599
0.00020533086
0.00024762649
0.00029915125
0.00036550937
0.00044318097
0.00053873514
0.00065692531
0.00081174434
0.00099793096
0.0011918312
0.0011890892
0.0011865973
0.0011845057
0.0011829517
0.0011820259
0.0011817662
0.0011821664
0.0011831832
0.0011846365
0.0011861338
0.0011871758
0.0011875085
0.0011873804
0.001187117
0.0011866777
0.0011861688
0.0011859182
0.0011859799
0.0011858751
0.0011845239
0.001181162
1.047082e-07
1.8893743e-06
1.4891005e-06
1.3603633e-06
1.4314671e-06
1.2100166e-06
1.2449652e-06
1.2283344e-06
1.2856472e-06
1.3630583e-06
1.4715372e-06
1.6040094e-06
1.7588875e-06
1.9361196e-06
2.1367848e-06
2.3625193e-06
2.6149147e-06
2.8970267e-06
3.2112405e-06
3.5605579e-06
3.9483804e-06
4.3786126e-06
4.8557912e-06
5.3852722e-06
5.9734853e-06
6.6282753e-06
7.3593527e-06
8.1788447e-06
9.1019705e-06
1.0147889e-05
1.1340677e-05
1.2710628e-05
1.4295632e-05
1.6142946e-05
1.8311211e-05
2.0872925e-05
2.3917473e-05
2.7555087e-05
3.1920866e-05
3.718042e-05
4.3536082e-05
5.123368e-05
6.056964e-05
7.1906921e-05
8.5685834e-05
0.00010329316
0.00012384044
0.00014885282
0.00017933115
0.00021652265
0.00026199761
0.0003207463
0.00038990641
0.0004754885
0.00058211999
0.00072310065
0.00089478228
0.0011165271
0.0011911821
0.0011881947
0.001185421
0.0011830607
0.0011812799
0.0011801585
0.001179691
0.0011798101
0.001180442
0.0011814198
0.0011823986
0.0011829005
0.0011826221
0.0011818752
0.0011811877
0.0011805418
0.0011799546
0.0011795873
0.0011794079
0.0011787102
0.0011764558
0.0011726741
1.106342e-07
1.4332635e-06
1.3060177e-06
1.0725178e-06
1.2777837e-06
9.909304e-07
1.0530232e-06
1.0880502e-06
1.1729746e-06
1.2788068e-06
1.4089111e-06
1.5599274e-06
1.7320328e-06
1.9262264e-06
2.1441098e-06
2.387592e-06
2.658857e-06
2.9601239e-06
3.2944305e-06
3.6647022e-06
4.0743872e-06
4.5274419e-06
5.0284701e-06
5.5829188e-06
6.1973429e-06
6.8797591e-06
7.6401168e-06
8.4909356e-06
9.4479778e-06
1.0531179e-05
1.1765612e-05
1.3182916e-05
1.4822701e-05
1.6734426e-05
1.8979536e-05
2.163412e-05
2.4792061e-05
2.856891e-05
3.310656e-05
3.8578932e-05
4.5509711e-05
5.3603025e-05
6.3431872e-05
7.5386572e-05
8.9944057e-05
0.00010768988
0.00012934538
0.00015580231
0.00018816599
0.00022996217
0.00027907247
0.00033963527
0.00041472161
0.00050847525
0.00063273958
0.00078460806
0.00098166731
0.0011936783
0.0011904151
0.0011871346
0.0011840157
0.0011812723
0.0011790998
0.0011776846
0.0011769216
0.0011766849
0.001176844
0.0011772401
0.001177613
0.001177575
0.0011768017
0.0011755715
0.0011745829
0.0011738436
0.0011731762
0.0011724949
0.0011716829
0.0011702528
0.0011675128
0.0011639381
1.2135108e-07
1.1547647e-06
1.1487546e-06
9.2555439e-07
9.4006028e-07
8.6747222e-07
9.266337e-07
1.0043736e-06
1.1107232e-06
1.2366936e-06
1.3829342e-06
1.5490566e-06
1.7361379e-06
1.9456028e-06
2.1792152e-06
2.4389521e-06
2.7270242e-06
3.0458929e-06
3.3983131e-06
3.7873849e-06
4.2166311e-06
4.6901022e-06
5.2125244e-06
5.789508e-06
6.4278326e-06
7.1329556e-06
7.9193784e-06
8.798166e-06
9.7951368e-06
1.0915964e-05
1.2193391e-05
1.366056e-05
1.535895e-05
1.7340316e-05
1.9668983e-05
2.2424616e-05
2.5705619e-05
2.9633283e-05
3.4356795e-05
4.0059371e-05
4.696574e-05
5.5351392e-05
6.5553978e-05
7.7985891e-05
9.3156895e-05
0.00011169521
0.00013557586
0.00016358426
0.00019794688
0.00024019931
0.00029231009
0.00035685407
0.00043726029
0.00054331748
0.00067231241
0.00083836782
0.0010568594
0.0011930181
0.001189562
0.0011860025
0.0011825589
0.0011794458
0.001177092
0.0011753645
0.0011741976
0.001173468
0.0011730309
0.0011727249
0.0011723637
0.0011717303
0.0011706275
0.0011691758
0.0011680551
0.0011673503
0.0011666526
0.0011655864
0.0011639728
0.0011617825
0.0011590079
0.0011562956
1.4332986e-07
1.1872593e-06
9.9195385e-07
7.1130063e-07
7.6889732e-07
7.7543886e-07
8.5725409e-07
9.5836849e-07
1.0816184e-06
1.2226494e-06
1.3824201e-06
1.5617687e-06
1.762105e-06
1.9849791e-06
2.2321837e-06
2.5057162e-06
2.8078084e-06
3.1409547e-06
3.5079524e-06
3.9119527e-06
4.3565322e-06
4.8457964e-06
5.3845262e-06
5.9783879e-06
6.6342268e-06
7.3604616e-06
8.1675994e-06
9.0688832e-06
1.0081104e-05
1.1225551e-05
1.2529145e-05
1.4025855e-05
1.5758281e-05
1.7779643e-05
2.0156141e-05
2.296986e-05
2.6322317e-05
3.0338761e-05
3.5173419e-05
4.1015883e-05
4.8099116e-05
5.7117841e-05
6.76893e-05
8.0587383e-05
9.6351737e-05
0.00011564895
0.00013930659
0.0001683546
0.00020408086
0.00024810786
0.00030251589
0.00037342856
0.00045820516
0.00056461218
0.0006994604
0.00087295037
0.0011016779
0.0011922909
0.0011887092
0.0011849127
0.0011811543
0.0011778761
0.0011752518
0.0011731673
0.0011715557
0.001170287
0.0011691989
0.0011681391
0.0011670252
0.0011658556
0.0011646364
0.0011633349
0.0011622356
0.0011616125
0.001160944
0.0011596359
0.0011573851
0.0011544999
0.0011518059
0.0011502243
1.3633908e-07
7.9903138e-07
8.1689389e-07
6.07376e-07
6.6224568e-07
7.2156986e-07
8.2271412e-07
9.4093924e-07
1.0774422e-06
1.2311032e-06
1.4030631e-06
1.5944485e-06
1.8067117e-06
2.0414724e-06
2.3005604e-06
2.5860242e-06
2.900155e-06
3.2454626e-06
3.6248859e-06
4.0416144e-06
4.4992931e-06
5.0020948e-06
5.5548687e-06
6.1633524e-06
6.8344708e-06
7.5767388e-06
8.4007866e-06
9.3200301e-06
1.0360681e-05
1.152997e-05
1.286175e-05
1.439088e-05
1.6161042e-05
1.8226816e-05
2.0656118e-05
2.3533246e-05
2.6962567e-05
3.107304e-05
3.6023728e-05
4.2010541e-05
4.9274551e-05
5.8112324e-05
6.8888921e-05
8.2056361e-05
9.8172933e-05
0.00011793051
0.0001421872
0.00017351899
0.00021049792
0.00025606709
0.00031232975
0.00038197706
0.00046849102
0.00057642837
0.00071198718
0.00088442787
0.0011094439
0.0011915295
0.0011879054
0.0011840025
0.0011800485
0.0011765272
0.00117362
0.001171171
0.0011691074
0.001167296
0.0011655808
0.0011638523
0.0011621372
0.0011605939
0.0011593639
0.0011583946
0.0011575071