/*--------------------------------*- C++ -*----------------------------------*\
  =========                 |
  \\      /  F ield         | OpenFOAM: The Open Source CFD Toolbox
   \\    /   O peration     | Website:  https://openfoam.org
    \\  /    A nd           | Version:  12
     \\/     M anipulation  |
\*---------------------------------------------------------------------------*/
FoamFile
{
    format      ascii;
    class       volScalarField;
    location    "0.02";
    object      Ma;
}
// * * * * * * * * * * * * * * * * * * * * * * * * * * * * * * * * * * * * * //

dimensions      [];

internalField   nonuniform List<scalar> 
16000
(
0.6312444
0.75473806
0.70761813
0.73352393
0.71769122
0.72504551
0.71904106
0.72070394
0.71795096
0.7175344
0.71586816
0.71472406
0.71328662
0.71188704
0.71040375
0.7088737
0.70728581
0.7056417
0.70394039
0.70218155
0.70036498
0.69849068
0.69655894
0.69457033
0.69252575
0.69042648
0.68827424
0.68607116
0.6838199
0.68152358
0.67918588
0.67681098
0.67440359
0.67196893
0.66951274
0.6670412
0.66456096
0.66207906
0.65960291
0.65714023
0.65469896
0.65228724
0.64991328
0.6475853
0.64531146
0.64309992
0.64095864
0.63889499
0.63691596
0.63502878
0.63323996
0.63155539
0.62998045
0.6285196
0.62717605
0.62595138
0.62484515
0.62385444
0.62297287
0.62218922
0.62148499
0.62083011
0.62017879
0.61947322
0.61865217
0.61764202
0.61635897
0.61471111
0.61259588
0.60990474
0.60651832
0.60229195
0.59708662
0.59094507
0.58438526
0.57872727
0.57672992
0.57307966
0.58157611
0.57549796
0.6366514
0.76075272
0.71195321
0.73898141
0.72234916
0.73012999
0.72371203
0.72546408
0.72254812
0.72204697
0.72029924
0.71903578
0.71750849
0.71599404
0.71440254
0.71275614
0.71104949
0.70928242
0.70745459
0.70556571
0.70361584
0.70160526
0.69953462
0.69740488
0.69521742
0.69297403
0.69067699
0.68832905
0.6859335
0.68349418
0.68101547
0.67850231
0.67596017
0.67339505
0.67081343
0.66822223
0.66562879
0.66304075
0.66046608
0.6579129
0.6553895
0.6529042
0.65046527
0.64808079
0.6457586
0.64350648
0.64133207
0.63924206
0.63724217
0.63533867
0.63353713
0.63184215
0.63025781
0.62878733
0.62743252
0.62619337
0.62506745
0.62404947
0.6231308
0.622299
0.62153573
0.62081034
0.62007559
0.61927758
0.61835853
0.61724001
0.61583914
0.61406797
0.61183122
0.60902555
0.60553186
0.60120463
0.59591459
0.58971204
0.58317763
0.57790554
0.57556848
0.57356655
0.58114454
0.57544224
0.64174489
0.76628351
0.71630313
0.74382213
0.72673112
0.73460514
0.72803314
0.72966775
0.726701
0.72603906
0.72422571
0.72282245
0.72119175
0.71955032
0.7178345
0.71605729
0.71421587
0.71230984
0.71033907
0.70830359
0.70620383
0.70404049
0.7018147
0.69952796
0.69718225
0.69478001
0.69232421
0.68981836
0.68726657
0.6846735
0.68204443
0.6793852
0.67670221
0.67400237
0.67129305
0.66858204
0.66587743
0.66318759
0.66052104
0.65788636
0.65529214
0.65274682
0.65025864
0.6478355
0.64548479
0.6432136
0.64102896
0.63893703
0.63694233
0.63504962
0.63326323
0.63158638
0.63002148
0.62857012
0.62723244
0.62600653
0.62488782
0.62386848
0.62293731
0.62208049
0.62127953
0.62050073
0.61969445
0.61881226
0.61779813
0.6165715
0.61505241
0.6131575
0.61079832
0.60787603
0.60427071
0.59983843
0.59446478
0.58823561
0.58181712
0.57684241
0.57462473
0.57378524
0.58064088
0.57526227
0.64644786
0.77136041
0.72006095
0.7481591
0.73064851
0.73859594
0.73187372
0.73336078
0.73033971
0.72949375
0.7276012
0.72604095
0.72428789
0.72250225
0.72064325
0.71871688
0.71672229
0.7146591
0.71252754
0.71032805
0.70806147
0.70572902
0.70333239
0.7008737
0.69835564
0.69578142
0.69315486
0.69048039
0.68776308
0.68500862
0.68222335
0.67941419
0.67658862
0.67375459
0.67092047
0.66809498
0.66528703
0.66250565
0.6597599
0.65705872
0.65441084
0.65182466
0.6493082
0.64686894
0.64451369
0.64224852
0.64007916
0.63801092
0.63604774
0.63419244
0.63244756
0.63081495
0.62929521
0.62788787
0.62659125
0.62540153
0.62431222
0.62331346
0.62239212
0.62153375
0.6207184
0.6199071
0.61905051
0.61810653
0.61701718
0.61570357
0.61408813
0.61209113
0.60962926
0.60660624
0.60290233
0.59837927
0.59294025
0.58671609
0.58044458
0.57571193
0.57371662
0.57389026
0.58006148
0.57498027
0.65076905
0.77594102
0.72355712
0.75178855
0.73399872
0.74200469
0.73518898
0.73645543
0.73339971
0.73233231
0.73034768
0.72861094
0.72671427
0.7247664
0.7227446
0.72065055
0.71848434
0.71624587
0.71393563
0.71155446
0.70910368
0.70658509
0.70400103
0.70135445
0.69864891
0.69588863
0.69307853
0.69022421
0.68733198
0.68440883
0.68146237
0.67850084
0.67553295
0.67256785
0.66961502
0.66668411
0.66378485
0.66092687
0.65811964
0.65537227
0.65269342
0.65009118
0.64757304
0.64514577
0.64281538
0.64058677
0.63846371
0.63644994
0.63454885
0.63276146
0.63108819
0.62952911
0.62808305
0.62674735
0.62551859
0.62439097
0.62335621
0.62240327
0.62151757
0.62068301
0.61987357
0.61904545
0.61815595
0.61716706
0.61601649
0.61462956
0.61293099
0.61084452
0.60829044
0.60517466
0.60137962
0.59677482
0.59128538
0.58509612
0.57900981
0.57453024
0.57278716
0.57390169
0.57943703
0.57461851
0.65465766
0.77993062
0.72657644
0.75487921
0.73676853
0.7447418
0.73787172
0.73886271
0.73578558
0.73447093
0.73237813
0.73045121
0.72839198
0.72626676
0.72406502
0.72178614
0.71943054
0.71699843
0.7144907
0.71190874
0.70925458
0.70653086
0.70374092
0.70088884
0.69797944
0.6950183
0.69201179
0.68896704
0.68589191
0.68279496
0.67968537
0.67657285
0.67346753
0.67037982
0.66732029
0.66429948
0.6613278
0.65841528
0.65557152
0.65280549
0.65012542
0.64753871
0.64505186
0.6426705
0.6403994
0.63824207
0.6362004
0.63427582
0.63247004
0.63078264
0.62921197
0.62775583
0.62641116
0.62517361
0.62403799
0.62299738
0.62204304
0.62116132
0.62033499
0.61954347
0.61875314
0.61792378
0.6170222
0.6160059
0.61480961
0.6133637
0.61159574
0.60943285
0.60679797
0.6035996
0.59972381
0.5950486
0.58952491
0.58339912
0.57753081
0.57332388
0.57188443
0.57376306
0.5787866
0.57419268
0.65804353
0.78328074
0.72910215
0.75742325
0.73914868
0.7467589
0.73979899
0.74050598
0.73742786
0.73586296
0.73364696
0.73151967
0.72927836
0.72695796
0.72455525
0.72206921
0.71950063
0.71685048
0.71412046
0.71131296
0.70843114
0.70547893
0.70246112
0.69938333
0.69625205
0.69307466
0.68985935
0.68661514
0.68335179
0.68007968
0.67680976
0.67355336
0.67032206
0.6671275
0.66398121
0.6608944
0.65787784
0.65494159
0.65209495
0.64934624
0.64670277
0.64417069
0.64175505
0.63945973
0.6372876
0.6352404
0.63331841
0.63152075
0.62984628
0.62829291
0.6268573
0.62553507
0.62432123
0.62321009
0.62219404
0.62126501
0.62041169
0.6196181
0.61886529
0.61812757
0.61737013
0.61656105
0.61566746
0.61463739
0.61340861
0.61191571
0.61008986
0.60786133
0.60515582
0.60188492
0.59793895
0.59320501
0.58766389
0.58163001
0.57601017
0.57213116
0.57102286
0.57355833
0.57811562
0.57378149
0.66094574
0.7860169
0.73117311
0.75941653
0.74102998
0.74811234
0.74135928
0.74175898
0.7384123
0.7365235
0.734152
0.73180098
0.72934418
0.72679697
0.72416003
0.72143328
0.7186183
0.7157172
0.71273291
0.70966921
0.7065308
0.70332335
0.7000535
0.69672887
0.69335809
0.68995073
0.68651723
0.68306885
0.6796175
0.67617565
0.67275609
0.66937178
0.66603563
0.66276028
0.65955789
0.65643992
0.65341694
0.65049846
0.64769282
0.64500704
0.64244679
0.64001636
0.63771869
0.63555539
0.63352685
0.63163242
0.62987045
0.62823803
0.62673127
0.62534581
0.62407658
0.62291749
0.62186159
0.62090103
0.62002598
0.61922605
0.61848815
0.61779615
0.61712915
0.61645892
0.61575504
0.61498683
0.61411224
0.61307847
0.61182832
0.61029945
0.60842643
0.60614286
0.60337758
0.60004565
0.59604209
0.59126412
0.5857262
0.57981223
0.57446924
0.57092738
0.57016425
0.57329459
0.57745283
0.57336553
0.66344679
0.7881914
0.73280457
0.76090105
0.74230022
0.74919935
0.74204619
0.74170735
0.73858741
0.73641977
0.73383825
0.73122432
0.72850666
0.72569037
0.72277761
0.71976964
0.71666903
0.7134793
0.71020496
0.70685159
0.70342594
0.69993587
0.69639046
0.69279989
0.68917543
0.68552932
0.68187469
0.67822534
0.67459555
0.67099991
0.66745301
0.66396923
0.66056245
0.65724583
0.65403154
0.65093055
0.64795247
0.64510539
0.64239579
0.63982854
0.63740685
0.63513238
0.63300533
0.63102451
0.62918753
0.62749095
0.62593049
0.62450104
0.62319662
0.62201061
0.62093584
0.61996468
0.61908852
0.61829746
0.61758085
0.61692587
0.61631817
0.61574108
0.61517256
0.6145853
0.61394964
0.61322877
0.6123782
0.61134899
0.61008694
0.60853198
0.60662214
0.60429437
0.60148092
0.59810131
0.59405603
0.58925381
0.58374473
0.57797505
0.57292098
0.56973959
0.56928527
0.57302051
0.576836
0.57296772
0.66554348
0.78976096
0.73384548
0.76180607
0.74270816
0.7485992
0.74190653
0.74123066
0.73795324
0.73541728
0.73257189
0.7296551
0.72663107
0.72350145
0.72026897
0.71693661
0.71350857
0.7099903
0.70638855
0.70271143
0.69896845
0.69517046
0.69132967
0.68745949
0.68357444
0.67968994
0.67582211
0.67198748
0.66820274
0.6644844
0.66084851
0.65731031
0.65388398
0.6505823
0.64741648
0.64439593
0.64152815
0.6388187
0.63627115
0.63388718
0.63166669
0.62960797
0.62770786
0.62596199
0.62436497
0.62291053
0.62159165
0.62040086
0.61933022
0.61837137
0.61751553
0.61675356
0.61607554
0.61547059
0.61492644
0.61442925
0.61396301
0.61350921
0.61304661
0.61254911
0.61198376
0.6113118
0.61049046
0.60947296
0.60820667
0.60663471
0.60469837
0.60233776
0.59948927
0.59607794
0.59201086
0.58721005
0.58175942
0.57615378
0.57138787
0.56858939
0.56848086
0.57278019
0.57631279
0.57262609
0.66715134
0.79061817
0.73418686
0.76123437
0.7422872
0.74771411
0.74105483
0.73975503
0.73630331
0.7333833
0.73021709
0.72695195
0.72357162
0.72007881
0.71647741
0.71277285
0.70897181
0.70508261
0.70111524
0.69708129
0.69299398
0.68886809
0.68471978
0.68056641
0.67642628
0.67231831
0.66826177
0.66427583
0.66037921
0.6565898
0.65292426
0.64939767
0.64602326
0.64281208
0.63977294
0.63691221
0.6342339
0.6317397
0.6294291
0.62729966
0.6253472
0.62356606
0.62194943
0.62048955
0.61917797
0.61800576
0.61696362
0.61604197
0.61523112
0.61452128
0.6139025
0.61336444
0.61289615
0.61248598
0.61212102
0.6117867
0.61146649
0.61114143
0.61078921
0.6103824
0.60988757
0.60926707
0.60847893
0.60747764
0.60621332
0.60463253
0.60267951
0.60029789
0.59742893
0.59400395
0.58993799
0.58516835
0.57980927
0.57438781
0.56990551
0.56749577
0.56773966
0.57253416
0.5758843
0.57239024
0.66819776
0.7906054
0.73376209
0.75960378
0.74112279
0.74575474
0.73914574
0.737213
0.73353564
0.73018747
0.72663237
0.72295987
0.71916324
0.71524847
0.71122174
0.70709173
0.70286883
0.69856544
0.69419596
0.6897767
0.68532577
0.6808628
0.67640875
0.67198545
0.66761531
0.6633208
0.659124
0.65504611
0.65110696
0.64732452
0.64371453
0.64029018
0.63706183
0.63403691
0.63121991
0.62861248
0.62621358
0.62401977
0.62202553
0.62022356
0.61860519
0.6171607
0.61587963
0.61475107
0.61376388
0.61290685
0.61216883
0.6115388
0.61100585
0.6105592
0.61018806
0.60988148
0.60962816
0.60941599
0.60923157
0.60906004
0.60888471
0.60868633
0.60844188
0.60812374
0.60769882
0.60712935
0.60637502
0.60539233
0.60413461
0.60255148
0.60059063
0.59819952
0.59532459
0.59190399
0.58786249
0.5831554
0.5779246
0.57271378
0.56851828
0.56647439
0.56711591
0.57223935
0.57552428
0.57231929
0.66863094
0.78965156
0.73243207
0.7573929
0.73912465
0.74262114
0.736108
0.73350061
0.72949091
0.72565899
0.72163773
0.71748692
0.71320449
0.70880098
0.70428651
0.69967454
0.69498078
0.69022333
0.68542259
0.68060095
0.67578253
0.67099274
0.66625784
0.66160442
0.65705875
0.6526462
0.64839061
0.64431362
0.64043419
0.63676814
0.6333278
0.63012186
0.62715536
0.62442979
0.62194334
0.61969124
0.61766619
0.61585878
0.61425795
0.61285148
0.61162633
0.61056908
0.60966617
0.60890417
0.60826994
0.60775074
0.60733425
0.60700859
0.6067623
0.6065842
0.60646332
0.60638863
0.60634872
0.60633127
0.6063228
0.60630848
0.60627175
0.60619349
0.60605066
0.60581529
0.6054548
0.60493276
0.60421025
0.60324635
0.6019973
0.60041623
0.59845428
0.5960629
0.59319378
0.58979244
0.58579588
0.58118132
0.57611674
0.57114925
0.56723849
0.56547745
0.56660303
0.57187722
0.57520073
0.57243425
0.6684148
0.78763292
0.73008455
0.75383919
0.73597368
0.7383447
0.73177506
0.72842898
0.72397605
0.71958641
0.71501086
0.71029788
0.70544995
0.70048381
0.695416
0.69026695
0.68505975
0.67982011
0.67457602
0.66935726
0.66419491
0.65912064
0.65416607
0.64936183
0.64473685
0.64031745
0.63612667
0.63218362
0.62850308
0.62509522
0.62196566
0.61911553
0.6165419
0.61423816
0.61219464
0.61039913
0.60883756
0.60749447
0.60635363
0.60539845
0.60461234
0.60397909
0.60348301
0.60310913
0.60284325
0.60267197
0.60258264
0.6025633
0.60260256
0.60268949
0.60281335
0.60296337
0.6031283
0.60329608
0.60345354
0.60358616
0.60367763
0.60370894
0.60365735
0.60349542
0.60319132
0.60271007
0.60201471
0.60106689
0.5998259
0.59824806
0.59628791
0.59390086
0.59104389
0.58767094
0.5837347
0.57923831
0.57437298
0.56967474
0.56603902
0.56452204
0.56610858
0.5713998
0.57484102
0.57263923
0.66748044
0.78435328
0.72665113
0.74912208
0.73156237
0.73265073
0.72592884
0.72177834
0.71674939
0.7117035
0.70647003
0.70109781
0.69559696
0.68999276
0.68431102
0.67858156
0.67283708
0.66711275
0.66144568
0.65587402
0.65043613
0.64516945
0.64010943
0.6352884
0.63073458
0.62647123
0.62251609
0.61888108
0.61557228
0.61259016
0.60993008
0.60758291
0.60553574
0.60377273
0.60227582
0.60102551
0.60000151
0.5991833
0.59855062
0.59808381
0.59776411
0.59757383
0.59749641
0.59751651
0.59761991
0.59779347
0.59802501
0.59830316
0.59861724
0.59895697
0.59931226
0.59967287
0.60002806
0.60036633
0.6006751
0.60094034
0.60114608
0.60127355
0.60130031
0.60119971
0.60094124
0.6004917
0.59981639
0.59887938
0.59764261
0.59606517
0.59410472
0.59172056
0.58887553
0.58553424
0.5816695
0.57731229
0.57266915
0.56825035
0.56488274
0.56359708
0.5654774
0.57069316
0.57428784
0.57280214
0.66576698
0.77956537
0.72217155
0.74291633
0.72568135
0.72533426
0.71829792
0.71324357
0.70748456
0.70165966
0.69565255
0.68951904
0.68328097
0.67697485
0.67063873
0.66431453
0.65804696
0.65188248
0.64586823
0.64005052
0.63447333
0.6291768
0.6241958
0.61955884
0.61528729
0.61139495
0.60788818
0.60476619
0.60202177
0.59964218
0.59761016
0.59590496
0.5945034
0.59338078
0.59251171
0.59187086
0.59143345
0.59117572
0.59107524
0.59111109
0.59126395
0.59151616
0.59185162
0.59225573
0.59271521
0.59321801
0.59375309
0.59431026
0.59487993
0.59545284
0.59601979
0.59657135
0.59709757
0.5975877
0.59802982
0.59841042
0.59871393
0.59892193
0.59901247
0.59895983
0.59873504
0.59830698
0.59764315
0.59670969
0.59547054
0.593887
0.59191956
0.58953185
0.58669434
0.58338612
0.57960466
0.57540753
0.57100248
0.56686076
0.56375527
0.56266583
0.56460352
0.56959867
0.57333453
0.57283923
0.66322296
0.77288123
0.71660815
0.73499356
0.71801089
0.71603863
0.70848728
0.70240182
0.69574684
0.68900948
0.68211425
0.67512774
0.66808832
0.6610477
0.65406001
0.64718268
0.64047444
0.6339934
0.62779497
0.62192959
0.61644087
0.61136398
0.60672469
0.60253886
0.59881261
0.59554295
0.59271878
0.5903222
0.5883299
0.58671456
0.58544627
0.58449365
0.58382495
0.58340886
0.58321516
0.58321523
0.58338234
0.58369185
0.58412129
0.58465037
0.58526088
0.58593654
0.58666285
0.58742688
0.58821706
0.58902301
0.58983532
0.59064531
0.59144478
0.59222571
0.59297996
0.5936991
0.5943741
0.59499504
0.59555069
0.59602804
0.59641189
0.59668425
0.59682384
0.59680606
0.59660359
0.59618733
0.5955267
0.59458928
0.59334027
0.59174268
0.58976003
0.58736194
0.58452989
0.58126222
0.57758427
0.57357544
0.56942742
0.56555809
0.56270361
0.56174731
0.5634817
0.56800512
0.57173321
0.57272452
0.6597224
0.7636146
0.70926795
0.72488459
0.70808806
0.70427555
0.69597659
0.68872003
0.68100472
0.67322442
0.6653422
0.65744074
0.64958207
0.64183908
0.63428607
0.62699731
0.6200437
0.61348965
0.60739038
0.60178971
0.59671876
0.59219546
0.58822488
0.58480028
0.58190469
0.57951277
0.57759276
0.57610847
0.57502107
0.57429056
0.57387717
0.57374222
0.57384898
0.57416306
0.57465279
0.57528937
0.57604683
0.57690202
0.57783444
0.57882606
0.57986108
0.58092567
0.58200773
0.58309661
0.58418292
0.58525831
0.58631523
0.5873467
0.58834602
0.5893065
0.59022119
0.5910827
0.59188299
0.59261301
0.59326219
0.593818
0.5942656
0.59458752
0.59476335
0.59476979
0.59458119
0.59417016
0.59350743
0.59256132
0.59129763
0.58968108
0.58767971
0.58527234
0.58245631
0.57925345
0.57571642
0.57193902
0.56808406
0.56449311
0.56185834
0.56097362
0.56228143
0.56607538
0.56971444
0.57232638
0.65496376
0.7517237
0.69971221
0.71200712
0.69531359
0.68946271
0.68014241
0.67155681
0.66262263
0.65368749
0.64476302
0.63595715
0.62736285
0.61907741
0.61119315
0.60379378
0.59695023
0.59071768
0.58513386
0.58021855
0.57597436
0.57238847
0.56943504
0.56707794
0.56527361
0.56397373
0.56312759
0.56268407
0.56259317
0.56280721
0.56328157
0.56397518
0.56485076
0.56587487
0.56701781
0.56825345
0.56955898
0.57091462
0.57230333
0.57371047
0.57512348
0.57653158
0.57792549
0.57929713
0.58063946
0.58194624
0.58321186
0.58443104
0.58559861
0.58670919
0.58775701
0.58873581
0.58963853
0.59045698
0.59118128
0.59179942
0.59229699
0.59265715
0.59286058
0.59288549
0.59270785
0.59230143
0.59163755
0.59068455
0.58940875
0.58777783
0.58576744
0.58337052
0.58060549
0.57751934
0.5741858
0.57070207
0.56719855
0.56391625
0.56141779
0.56055617
0.56121525
0.56409608
0.56771432
0.57175727
0.64856675
0.73833001
0.68739445
0.69573902
0.67894001
0.6708548
0.66019185
0.65010119
0.63982805
0.62970573
0.61980815
0.61027428
0.60122491
0.59277121
0.58500574
0.57799893
0.57179668
0.56642009
0.56186701
0.55811488
0.55512446
0.55284401
0.55121331
0.5501674
0.5496397
0.54956458
0.54987915
0.55052456
0.5514468
0.55259704
0.55393172
0.5554124
0.55700552
0.55868199
0.56041682
0.56218867
0.56397947
0.56577396
0.56755936
0.56932494
0.57106174
0.57276216
0.57441979
0.57602913
0.57758541
0.57908446
0.58052247
0.58189579
0.58320065
0.58443299
0.58558822
0.58666117
0.5876458
0.58853479
0.58931906
0.58998726
0.59052564
0.5909182
0.59114694
0.59119172
0.59102985
0.59063576
0.58998055
0.58903242
0.58775928
0.58613465
0.58414665
0.58180799
0.57916156
0.57627663
0.57323547
0.57012068
0.56702735
0.56411584
0.56170679
0.56050482
0.5604809
0.56253694
0.5660961
0.57139969
0.64019601
0.72076992
0.67143211
0.67517837
0.6578923
0.64736673
0.63506983
0.62337051
0.61179545
0.60067394
0.5901386
0.5803454
0.57141624
0.56344277
0.55648118
0.55055285
0.54564709
0.54172585
0.53872972
0.53658406
0.535205
0.53450456
0.53439488
0.53479132
0.53561467
0.53679239
0.53825931
0.53995772
0.54183715
0.54385397
0.54597075
0.54815569
0.55038193
0.552627
0.55487218
0.55710202
0.55930384
0.56146731
0.56358405
0.56564726
0.5676514
0.56959192
0.57146507
0.57326768
0.57499709
0.57665094
0.57822706
0.57972326
0.58113711
0.58246578
0.58370587
0.58485331
0.5859031
0.58684891
0.58768259
0.58839376
0.58896971
0.58939572
0.58965523
0.58972957
0.58959705
0.58923213
0.58860539
0.58768563
0.58644493
0.58486733
0.5829592
0.58075723
0.57832772
0.57575258
0.57310617
0.5704395
0.56779299
0.56524313
0.56296669
0.56135626
0.56089949
0.5619118
0.56541579
0.57153525
0.62916848
0.69803088
0.65038554
0.6488826
0.63066684
0.61758489
0.60359234
0.59046354
0.5779809
0.56644935
0.55601655
0.54680779
0.53889191
0.53228896
0.52697356
0.52288317
0.51992751
0.51799806
0.51697688
0.51674384
0.51718219
0.51818241
0.51964456
0.52147941
0.5236087
0.52596478
0.52848988
0.53113516
0.53385968
0.53662942
0.5394163
0.54219732
0.54495381
0.54767069
0.55033598
0.55294021
0.555476
0.55793767
0.56032091
0.56262243
0.56483974
0.56697093
0.56901455
0.57096946
0.57283476
0.57460969
0.5762935
0.57788529
0.57938386
0.5807876
0.58209431
0.58330111
0.5844041
0.58539808
0.58627606
0.58702899
0.58764573
0.58811325
0.58841652
0.58853792
0.58845609
0.58814503
0.58757517
0.58671786
0.58555356
0.58408241
0.58233385
0.58036903
0.57827041
0.57611691
0.5739543
0.57178266
0.56957848
0.56734329
0.56515801
0.5632668
0.56222205
0.5629089
0.56616785
0.57230484
0.61428744
0.66796031
0.622306
0.61505995
0.59564568
0.58013276
0.5648936
0.55106896
0.53862834
0.52779313
0.51863941
0.51118559
0.50538108
0.50112438
0.49827714
0.49667959
0.49616369
0.49656355
0.49772278
0.49949897
0.50176592
0.50441422
0.5073506
0.5104967
0.51378741
0.5171692
0.52059843
0.52403983
0.52746508
0.5308517
0.53418196
0.5374421
0.54062155
0.54371239
0.54670882
0.54960676
0.55240349
0.55509734
0.55768741
0.56017333
0.56255512
0.56483303
0.56700748
0.56907901
0.5710482
0.5729156
0.57468166
0.57634666
0.57791057
0.57937299
0.58073299
0.58198893
0.58313822
0.58417699
0.58509969
0.58589896
0.58656559
0.58708849
0.58745409
0.58764525
0.58764006
0.58741177
0.58693182
0.5861774
0.58514227
0.58384769
0.58234768
0.58072255
0.57905704
0.577407
0.57577059
0.57408745
0.57227654
0.57029351
0.56818576
0.56618218
0.56487005
0.56524859
0.56819917
0.57353847
0.59360616
0.62819082
0.58500862
0.57192874
0.55188283
0.53436643
0.51907721
0.50602962
0.49519658
0.48662187
0.48020704
0.47578905
0.47315189
0.4720556
0.47225608
0.47352055
0.47563706
0.47841931
0.48170794
0.48536952
0.48929419
0.49339278
0.4975937
0.5018401
0.50608723
0.51030021
0.51445213
0.51852249
0.5224959
0.52636106
0.53010992
0.53373698
0.5372388
0.54061352
0.54386052
0.54698015
0.54997341
0.55284182
0.55558713
0.55821128
0.5607162
0.56310385
0.56537614
0.5675349
0.56958192
0.57151885
0.5733472
0.57506827
0.5766832
0.57819279
0.57959746
0.58089695
0.58209015
0.58317476
0.58414707
0.58500168
0.58573145
0.58632706
0.58677593
0.58706056
0.58715771
0.58704002
0.586682
0.58607056
0.58521724
0.58416655
0.5829935
0.5817859
0.58061215
0.57948491
0.57834158
0.57706385
0.57553792
0.57372386
0.57170336
0.56974069
0.56840815
0.56859367
0.57093726
0.57488256
0.56445318
0.57621299
0.53723547
0.51818662
0.4970196
0.4811362
0.46781614
0.45767148
0.4504356
0.44586035
0.44359217
0.44325913
0.44449488
0.44696474
0.4503767
0.4544852
0.45908931
0.46402805
0.46917466
0.47443066
0.47972051
0.48498691
0.49018694
0.4952889
0.5002698
0.50511334
0.50980841
0.51434783
0.51872746
0.52294545
0.52700168
0.53089736
0.53463464
0.5382164
0.541646
0.5449271
0.54806353
0.55105913
0.55391763
0.55664262
0.5592375
0.56170546
0.56404957
0.56627271
0.5683776
0.57036682
0.57224279
0.57400782
0.57566411
0.57721376
0.57865855
0.57999973
0.58123778
0.58237222
0.58340144
0.58432235
0.58512977
0.58581555
0.58636703
0.58676524
0.58698514
0.58699966
0.58678892
0.58635307
0.58572372
0.58496645
0.58416827
0.58340865
0.58272118
0.58206198
0.58130786
0.58030123
0.57893189
0.57721159
0.57529743
0.57348653
0.57224816
0.57220663
0.57371314
0.576015
0.52269064
0.50966559
0.47160911
0.45325666
0.43542985
0.4229255
0.41441462
0.40967145
0.4080301
0.40889159
0.41167441
0.41588013
0.42109687
0.42699841
0.43333314
0.43991125
0.44659204
0.4532728
0.45987973
0.46636075
0.47267995
0.47881334
0.48474575
0.49046839
0.49597717
0.50127134
0.50635256
0.51122419
0.51589073
0.52035751
0.52463034
0.52871532
0.53261872
0.53634679
0.53990573
0.54330157
0.54654006
0.54962668
0.55256653
0.55536436
0.55802459
0.56055135
0.56294854
0.56521985
0.56736879
0.5693987
0.57131286
0.57311448
0.57480684
0.57639327
0.57787699
0.57926085
0.58054696
0.58173667
0.58283056
0.58382796
0.58472546
0.58551521
0.58618321
0.58670804
0.58706261
0.58722155
0.58717298
0.58693218
0.58654975
0.58610612
0.58568805
0.58535128
0.58508229
0.58477927
0.58427278
0.58339491
0.58207435
0.58040188
0.57861226
0.57699909
0.57585717
0.57547349
0.57596359
0.57685951
0.45919008
0.42592417
0.39564978
0.3804481
0.36937566
0.36446383
0.36388709
0.3667069
0.37191219
0.3787268
0.38655237
0.39495458
0.40362584
0.41235396
0.42099569
0.42945677
0.43767715
0.44562053
0.45326692
0.46060743
0.46764068
0.47437025
0.48080294
0.48694758
0.49281414
0.49841323
0.50375566
0.50885218
0.51371337
0.51834945
0.52277028
0.52698529
0.53100348
0.53483339
0.53848307
0.54196008
0.54527149
0.54842379
0.55142301
0.55427467
0.55698388
0.55955545
0.56199389
0.56430349
0.56648839
0.56855261
0.57050017
0.57233516
0.57406185
0.57568473
0.5772084
0.57863729
0.57997524
0.58122534
0.58238994
0.58347027
0.58446475
0.58536545
0.58615533
0.58681034
0.58730179
0.58760708
0.58772334
0.5876802
0.58754305
0.5873988
0.58732286
0.58733755
0.5873806
0.58730323
0.58691228
0.58605575
0.58472174
0.58308086
0.58142008
0.57998546
0.57887089
0.57807321
0.57759049
0.57729625
0.36141683
0.32736448
0.30942923
0.30483915
0.306244
0.31263354
0.32199787
0.33304521
0.34488448
0.35695235
0.3689055
0.38054309
0.39175452
0.40248499
0.41271391
0.42244118
0.43167865
0.44044484
0.44876164
0.4566523
0.46414019
0.47124809
0.47799776
0.48440975
0.49050332
0.49629642
0.50180572
0.5070467
0.51203373
0.51678012
0.52129825
0.52559962
0.52969489
0.53359401
0.53730616
0.54083987
0.54420295
0.54740259
0.55044533
0.55333722
0.55608384
0.55869043
0.56116193
0.56350307
0.56571846
0.56781263
0.56979023
0.57165611
0.57341541
0.57507364
0.57663654
0.57810985
0.57949908
0.58080902
0.58204307
0.58320373
0.5842915
0.58529841
0.58620389
0.58698113
0.5876009
0.58804302
0.58831228
0.58844928
0.5885286
0.58863653
0.58883154
0.58910245
0.58934668
0.58938634
0.58902396
0.58813674
0.58677252
0.58516344
0.58361522
0.5823
0.58112651
0.57988574
0.57858442
0.57750809
0.21993342
0.21861981
0.22409526
0.23772201
0.25534332
0.27407757
0.29269969
0.31054573
0.32738121
0.34313957
0.35784525
0.37155868
0.3843541
0.39630747
0.40749126
0.41797223
0.42781081
0.43706116
0.44577162
0.45398527
0.46174049
0.46907155
0.47600906
0.48258045
0.48881038
0.49472104
0.50033248
0.50566289
0.51072879
0.51554526
0.52012609
0.52448395
0.52863046
0.53257634
0.53633143
0.5399048
0.54330471
0.54653872
0.54961372
0.55253606
0.55531158
0.55794581
0.56044394
0.56281096
0.56505175
0.56717113
0.56917412
0.57106605
0.57285275
0.57454058
0.57613623
0.57764639
0.57907741
0.5804351
0.58172492
0.58295246
0.58412023
0.58521027
0.5862124
0.58709232
0.5878206
0.58837662
0.58877018
0.58904882
0.58929154
0.58958241
0.58996566
0.59040438
0.59077327
0.59087799
0.59051331
0.58959795
0.58821255
0.58663263
0.58516112
0.58389975
0.58262149
0.580999
0.57910316
0.57758309
0.093346599
0.12372335
0.16175656
0.19596388
0.22662284
0.25363083
0.2776179
0.29905431
0.31836146
0.33586935
0.35184412
0.36649894
0.38000684
0.39250944
0.40412388
0.41494798
0.42506411
0.43454225
0.4434423
0.45181587
0.45970778
0.46715712
0.47419824
0.48086141
0.48717352
0.49315849
0.49883775
0.50423056
0.50935429
0.51422473
0.5188562
0.52326182
0.52745358
0.53144248
0.53523864
0.5388513
0.5422889
0.54555913
0.54866902
0.55162497
0.55443293
0.55709845
0.55962679
0.56202299
0.56429194
0.56643853
0.56846779
0.57038518
0.5721968
0.57390952
0.57553091
0.57706883
0.57853103
0.57992491
0.58125735
0.58253308
0.58375245
0.58490859
0.58598289
0.58694377
0.58775405
0.58839219
0.58886877
0.58923466
0.58957558
0.58997852
0.59047117
0.5910101
0.5914929
0.5916504
0.59133058
0.59042467
0.58903512
0.58746834
0.58602701
0.58477399
0.58340819
0.58155037
0.5793275
0.5775992
0.011363497
0.29688705
0.47304707
0.52056285
0.52978492
0.52999265
0.52962452
0.53077987
0.53230603
0.53380835
0.53530201
0.53675521
0.53818865
0.53961235
0.54103484
0.54246465
0.54390367
0.54535179
0.54680815
0.54827148
0.54974012
0.55121209
0.5526852
0.55415712
0.55562547
0.55708788
0.558542
0.55998557
0.56141641
0.5628325
0.56423197
0.56561307
0.5669742
0.56831386
0.56963062
0.5709231
0.5721899
0.57342957
0.5746406
0.57582137
0.57697017
0.57808516
0.57916447
0.58020614
0.58120826
0.58216892
0.58308636
0.58395894
0.58478518
0.58556378
0.58629362
0.58697379
0.58760365
0.58818288
0.58871164
0.58919059
0.58962104
0.59000503
0.59034529
0.59064541
0.59091079
0.59115069
0.59138162
0.59163517
0.59196661
0.59246576
0.59325955
0.59447777
0.59624554
0.59856985
0.60131124
0.60394742
0.60621728
0.60710123
0.6063032
0.6019645
0.59579518
0.58489139
0.57931039
0.57486278
0.061139774
0.38374798
0.52317821
0.54813102
0.54855812
0.54649289
0.54564775
0.54581377
0.54602707
0.54632731
0.54672095
0.54727765
0.54795968
0.54873452
0.54957304
0.55047173
0.55142473
0.55242644
0.55347108
0.55455333
0.55566829
0.5568113
0.55797798
0.55916416
0.56036588
0.56157933
0.56280091
0.56402718
0.56525488
0.56648095
0.56770251
0.56891688
0.57012156
0.57131417
0.5724925
0.57365437
0.57479767
0.57592029
0.57702008
0.57809484
0.57914231
0.58016017
0.58114606
0.58209762
0.58301254
0.58388863
0.58472384
0.5855163
0.58626437
0.58696659
0.58762176
0.58822894
0.58878752
0.5892973
0.58975862
0.59017241
0.59054035
0.59086499
0.59114978
0.59139938
0.59162105
0.59182718
0.59203906
0.5922952
0.59265828
0.59322556
0.59412318
0.5954678
0.5973566
0.59975647
0.6024689
0.60496746
0.60697506
0.60749792
0.60621416
0.60151559
0.59496454
0.58420104
0.57899359
0.57483175
0.14218778
0.46415277
0.54316866
0.55563818
0.55386432
0.55279642
0.55282091
0.55335788
0.55377087
0.55427322
0.55476493
0.55531231
0.55588958
0.55651151
0.55716861
0.55786566
0.55859946
0.55936894
0.56017237
0.5610079
0.5618735
0.562767
0.56368608
0.56462829
0.56559103
0.56657163
0.56756731
0.56857526
0.56959264
0.57061664
0.57164449
0.57267349
0.573701
0.57472449
0.57574142
0.57674935
0.5777458
0.57872828
0.57969425
0.5806411
0.58156616
0.58246669
0.58333994
0.58418315
0.58499369
0.58576901
0.5865068
0.58720496
0.58786163
0.58847521
0.58904442
0.58956827
0.59004619
0.59047812
0.5908646
0.59120689
0.59150707
0.59176831
0.59199494
0.59219297
0.59237181
0.59254734
0.59274589
0.59301246
0.59341603
0.59405816
0.5950604
0.59652273
0.59851158
0.60095204
0.60359968
0.60592716
0.60766303
0.60776575
0.60607333
0.60098832
0.59415896
0.58351941
0.57872986
0.57483079
0.21975556
0.51184368
0.55693633
0.56400482
0.56108291
0.56119787
0.56129337
0.5618368
0.56210572
0.56252041
0.56287766
0.56330495
0.5637479
0.5642238
0.56471919
0.56524273
0.56579199
0.56636764
0.5669695
0.5675973
0.56825051
0.56892836
0.56962992
0.57035398
0.57109914
0.57186379
0.57264612
0.57344416
0.5742558
0.57507883
0.57591098
0.57674991
0.57759326
0.57843865
0.57928368
0.58012588
0.58096273
0.58179165
0.58260992
0.58341473
0.58420318
0.58497226
0.58571894
0.58644022
0.58713316
0.587795
0.5884232
0.58901546
0.58956977
0.59008442
0.59055805
0.59098971
0.59137889
0.59172568
0.5920309