/*--------------------------------*- C++ -*----------------------------------*\
  =========                 |
  \\      /  F ield         | OpenFOAM: The Open Source CFD Toolbox
   \\    /   O peration     | Website:  https://openfoam.org
    \\  /    A nd           | Version:  12
     \\/     M anipulation  |
\*---------------------------------------------------------------------------*/
FoamFile
{
    format      ascii;
    class       volScalarField;
    location    "0.02";
    object      omega;
}
// * * * * * * * * * * * * * * * * * * * * * * * * * * * * * * * * * * * * * //

dimensions      [0 0 -1 0 0 0 0];

internalField   nonuniform List<scalar> 
16000
(
1097.4395
2254.8529
1101.3678
656.87681
464.57992
322.568
245.88848
185.35363
149.6489
120.84824
102.82208
87.831589
76.9188
67.70999
60.234935
53.919581
48.590563
44.042156
40.132033
36.745397
33.796642
31.213556
28.936412
26.917632
25.118883
23.510295
22.067015
20.769824
19.602528
18.550405
17.599998
16.740594
15.963647
15.261929
14.629303
14.060089
13.548968
13.0909
12.681638
12.31765
11.995026
11.709575
11.458211
11.238186
11.04642
10.879705
10.735579
10.611839
10.506533
10.417861
10.344075
10.283337
10.233565
10.192681
10.158868
10.131115
10.109943
10.097417
10.094177
10.092887
10.09131
10.089694
10.08821
10.087081
10.086563
10.086703
10.088118
10.091344
10.096409
10.103711
10.113418
10.125424
10.13942
10.154778
10.169524
10.177748
10.170402
10.126863
10.034386
10.067955
1139.1115
2235.638
1092.1524
656.43397
464.02705
325.14122
246.60713
186.94513
150.27811
121.74538
103.23638
88.303825
77.187927
67.948973
60.392359
54.035121
48.664459
44.086365
40.15328
36.748734
33.786344
31.193731
28.910323
26.887847
25.086989
23.477564
22.034067
20.736929
19.570023
18.518915
17.569934
16.712026
15.936503
15.236018
14.604466
14.036228
13.526102
13.069007
12.660507
12.297165
11.975378
11.690763
11.44007
11.220648
11.029616
10.863644
10.720227
10.597166
10.492516
10.404468
10.331262
10.271111
10.221991
10.181896
10.149015
10.122112
10.101146
10.087804
10.083683
10.082865
10.08207
10.081278
10.080753
10.080532
10.080782
10.081933
10.08442
10.08841
10.094248
10.102203
10.112366
10.124614
10.138635
10.153795
10.168096
10.175146
10.166929
10.120501
10.037391
10.066163
1179.0935
2230.1975
1077.9504
651.96908
459.92271
324.93608
245.13289
186.89171
149.6151
121.75353
102.94433
88.215791
76.989496
67.772596
60.18963
53.829372
48.454087
43.876417
39.94699
36.547727
33.591926
31.007415
28.733169
26.720721
24.930019
23.330845
21.897286
20.609526
19.451448
18.409001
17.468495
16.618634
15.850668
15.157155
14.532036
13.969737
13.465193
13.013383
12.609708
12.250685
11.933084
11.652434
11.405313
11.189068
11.001077
10.837931
10.697089
10.576374
10.473871
10.387785
10.316322
10.257731
10.210023
10.171263
10.139705
10.114064
10.093894
10.080207
10.074801
10.074112
10.073962
10.073825
10.074064
10.074773
10.076147
10.078393
10.081725
10.086512
10.093108
10.101702
10.112297
10.124749
10.138744
10.153582
10.167102
10.172764
10.161965
10.114874
10.038853
10.061708
1217.2535
2229.6463
1064.8675
647.74499
455.40368
324.5719
243.37039
186.68714
148.8132
121.66763
102.60522
88.072611
76.756477
67.554816
59.952255
53.590166
48.213269
43.638141
39.714594
36.322719
33.37535
30.800687
28.537187
26.536323
24.757229
23.169693
21.74742
20.470336
19.322243
18.289509
17.358508
16.517681
15.758231
15.072596
14.454771
13.899208
13.400967
12.955141
12.557001
12.202891
11.890006
11.613844
11.37081
11.158154
10.973572
10.813595
10.675633
10.557517
10.45736
10.37341
10.303824
10.246887
10.200638
10.163203
10.132897
10.108425
10.089064
10.075121
10.068114
10.067028
10.067327
10.067707
10.068614
10.070212
10.072523
10.075649
10.079754
10.085194
10.092345
10.101379
10.11224
10.124764
10.138647
10.153139
10.165883
10.170168
10.156167
10.112781
10.039837
10.056828
1253.4386
2240.4833
1053.9964
642.96992
450.02454
323.48682
240.92621
186.00171
147.63769
121.30847
102.08334
87.757638
76.390326
67.209334
59.604586
53.251053
47.883301
43.3195
39.409729
36.032317
33.099524
30.540165
28.292215
26.307274
24.543734
22.971454
21.563822
20.300561
19.165304
18.144857
17.22578
16.396253
15.647471
14.971736
14.363103
13.816042
13.325714
12.887374
12.496247
12.148361
11.841351
11.570755
11.332852
11.124663
10.944259
10.788149
10.653689
10.538715
10.44135
10.359916
10.292511
10.237453
10.192809
10.156762
10.127689
10.104326
10.085835
10.071971
10.063545
10.061362
10.061769
10.062552
10.063977
10.066324
10.069554
10.073618
10.078505
10.084523
10.092095
10.101434
10.112462
10.124984
10.138711
10.152804
10.164624
10.168011
10.151783
10.112108
10.040671
10.051952
1287.483
2260.7196
1044.5632
638.89169
444.64252
321.79738
237.95879
184.91311
146.18916
120.71695
101.42538
87.29408
75.911179
66.753982
59.161594
52.825792
47.476203
42.931226
39.041823
35.684894
32.771908
30.232513
28.004252
26.038853
24.29429
22.740428
21.35038
20.103739
18.983877
17.978019
17.073046
16.256864
15.520697
14.856689
14.258966
13.722009
13.241059
12.811532
12.428743
12.088299
11.788193
11.524086
11.292236
11.089282
10.913701
10.762032
10.631578
10.520192
10.425972
10.347338
10.282328
10.229292
10.186323
10.151675
10.123787
10.101437
10.083774
10.070279
10.061062
10.057135
10.057129
10.058171
10.059924
10.06286
10.066978
10.072038
10.077785
10.084363
10.09223
10.101721
10.1128
10.12526
10.138807
10.15242
10.16297
10.165806
10.149648
10.108549
10.041783
10.047417
1319.3122
2287.702
1039.4899
635.27211
439.92913
319.49269
234.64598
183.44296
144.53738
119.89594
100.6407
86.680169
75.315175
66.18674
58.620244
52.311671
46.989174
42.470603
38.607962
35.277573
32.389738
29.875094
27.670904
25.728335
24.006339
22.474258
21.104929
19.877904
18.77621
17.787438
16.898931
16.098301
15.376854
14.726544
14.141579
13.616448
13.146453
12.727144
12.354057
12.022487
11.730353
11.473652
11.248779
11.05186
10.88173
10.73505
10.609072
10.501677
10.41091
10.335329
10.272887
10.221986
10.180744
10.147499
10.120766
10.099361
10.082437
10.069382
10.059879
10.054294
10.05325
10.05428
10.056068
10.059403
10.064402
10.070607
10.077399
10.084612
10.092704
10.102213
10.113246
10.125607
10.138965
10.152015
10.161035
10.16181
10.148163
10.107478
10.044516
10.043025
1349.058
2318.6298
1037.8233
631.53109
435.31084
316.60281
231.70704
181.70474
142.90076
118.87251
99.749221
85.925425
74.604677
65.510761
57.981389
51.708677
46.421456
41.936649
38.106147
34.808155
31.950828
29.465745
27.290325
25.371933
23.676222
22.16951
20.824284
19.620144
18.539688
17.570772
16.701356
15.91873
15.21434
14.579914
14.009745
13.498331
13.041031
12.633484
12.271487
11.950933
11.667875
11.419459
11.202444
11.012447
10.848351
10.707154
10.586089
10.483037
10.395965
10.323625
10.263873
10.215175
10.175689
10.14384
10.118231
10.097709
10.081422
10.068728
10.059153
10.052704
10.05008
10.050574
10.052089
10.055645
10.06151
10.069034
10.077117
10.085127
10.093439
10.10286
10.113758
10.125993
10.139111
10.151274
10.158055
10.156219
10.145469
10.108005
10.055322
10.036859
1376.8438
2350.8391
1036.1557
627.13615
430.54073
313.05158
228.26638
179.66382
140.96007
117.66825
98.750629
85.031321
73.773542
64.721972
57.240185
51.011045
45.767167
41.323995
37.527994
34.268169
31.447024
28.996674
26.855587
24.970101
23.304975
21.827656
20.510193
19.33238
18.276366
17.330128
16.482425
15.720229
15.035194
14.418772
13.865355
13.36945
12.926475
12.532154
12.182348
11.872927
11.600196
11.361015
11.152718
10.97102
10.813516
10.67823
10.562532
10.464142
10.380967
10.312004
10.255022
10.208567
10.170841
10.140362
10.115843
10.096177
10.0805
10.068149
10.058583
10.051575
10.047455
10.0468
10.047832
10.051429
10.058107
10.067082
10.076698
10.085724
10.094337
10.103621
10.114318
10.126398
10.139185
10.150096
10.154232
10.14887
10.140262
10.106988
10.066667
10.031852
1402.7191
2382.2862
1027.4877
621.62225
424.03384
308.92568
223.81528
177.14969
138.89699
116.30294
97.632062
83.992076
72.812663
63.811676
56.387949
50.205223
45.011698
40.618576
36.871421
33.658062
30.880437
28.471071
26.369774
24.521456
22.891496
21.447743
20.161882
19.014022
17.98586
17.065307
16.242024
15.502807
14.839546
14.243353
13.708725
13.230174
12.803176
12.423538
12.087278
11.790326
11.528908
11.299745
11.100679
10.92714
10.776857
10.647872
10.538294
10.444838
10.365781
10.300282
10.246122
10.201925
10.165964
10.136843
10.113399
10.09457
10.079475
10.067428
10.057838
10.050346
10.04514
10.042947
10.04333
10.046779
10.054162
10.064596
10.075898
10.086174
10.095257
10.104433
10.114883
10.126768
10.139185
10.148658
10.149881
10.140105
10.133076
10.102585
10.064659
10.029187
1426.8152
2411.5827
1018.2027
615.05323
415.90571
304.50116
218.98335
174.48366
136.7791
114.76393
96.379891
82.799548
71.709768
62.758649
55.401327
49.285814
44.155908
39.823971
36.133865
32.975296
30.248599
27.886652
25.831096
24.025557
22.435604
21.029774
19.77959
18.665523
17.668841
16.7772
15.980841
15.267229
14.628243
14.05456
13.540789
13.081442
12.672054
12.308498
11.986959
11.703458
11.454301
11.236015
11.046803
10.882072
10.73941
10.616832
10.512995
10.424737
10.350273
10.288292
10.237023
10.195092
10.160895
10.133125
10.110741
10.092744
10.078218
10.066435
10.056775
10.048827
10.042698
10.039133
10.038725
10.041884
10.04978
10.061506
10.074493
10.08621
10.095997
10.105179
10.115373
10.126995
10.138853
10.146956
10.145082
10.130955
10.125622
10.096712
10.05947
10.026545
1449.2859
2439.6362
1004.5933
607.30574
406.24196
299.73488
214.00687
171.5651
134.65062
113.06354
94.967581
81.424083
70.426468
61.555949
54.283344
48.24872
43.195126
38.935851
35.313007
32.218117
29.550419
27.242761
25.239103
23.482118
21.937475
20.573777
19.363598
18.287407
17.326047
16.466919
15.698732
15.013413
14.401287
13.852479
13.361693
12.923427
12.533299
12.187217
11.881575
11.612504
11.376431
11.170451
10.991513
10.835925
10.70125
10.585381
10.487442
10.404352
10.334111
10.275706
10.227602
10.187982
10.155561
10.129139
10.107797
10.090619
10.07665
10.065114
10.055379
10.047005
10.040086
10.03545
10.034236
10.037012
10.045147
10.057827
10.072309
10.085547
10.096284
10.105661
10.115648
10.126925
10.137927
10.144403
10.13994
10.123596
10.120729
10.091564
10.055161
10.023882
1470.414
2466.5113
987.00902
598.31278
395.90177
294.55486
208.99766
168.47689
132.4928
111.17827
93.326594
79.847071
68.966357
60.196037
53.025976
47.088942
42.125525
37.951456
34.4067
31.384672
28.784785
26.539027
24.593301
22.891082
21.397703
20.078696
18.913047
17.879071
16.957042
16.134618
15.400476
14.746094
14.163262
13.641527
13.175636
12.760049
12.390521
12.062968
11.77403
11.520044
11.297356
11.102981
10.934747
10.788618
10.662216
10.553702
10.461596
10.383729
10.317877
10.262905
10.217569
10.180516
10.149934
10.124874
10.104547
10.088152
10.074714
10.063398
10.053588
10.04487
10.037375
10.031986
10.030063
10.032398
10.040466
10.053637
10.069239
10.083917
10.095785
10.105588
10.115492
10.126432
10.136465
10.140997
10.134389
10.117827
10.116917
10.087473
10.05148
10.021128
1490.4169
2488.1906
965.19416
588.84328
385.20368
289.05811
204.02337
165.21715
130.22679
109.0076
91.438531
78.055742
67.314834
58.669202
51.621613
45.800373
40.942461
36.86702
33.412408
30.473126
27.950616
25.775418
23.891422
22.250379
20.815144
19.550522
18.434606
17.447576
16.569112
15.786966
15.089623
14.468748
13.917042
13.424269
12.984906
12.593301
12.24545
11.937236
11.665532
11.427037
11.218183
11.035879
10.878323
10.741659
10.623424
10.521604
10.435304
10.362573
10.301466
10.25002
10.207331
10.172462
10.143987
10.120364
10.101025
10.085344
10.07239
10.061266
10.0514
10.042441
10.034593
10.028782
10.026301
10.028184
10.035903
10.049061
10.065272
10.081118
10.094168
10.104618
10.114633
10.125378
10.134447
10.136764
10.128008
10.112379
10.111353
10.084034
10.048236
10.018545
1509.521
2499.5922
939.17206
578.75364
374.16464
283.27385
199.15814
161.70315
127.73145
106.55797
89.274586
76.030942
65.457832
56.963827
50.061322
44.375918
39.641761
35.679189
32.328659
29.479123
27.043978
24.94939
23.141453
21.569543
20.199341
18.994754
17.933909
16.997981
16.167035
15.428674
14.771165
14.186108
13.665545
13.203077
12.791469
12.424762
12.099336
11.811026
11.556848
11.334004
11.139044
10.969621
10.822605
10.695261
10.585246
10.490278
10.409554
10.341568
10.28458
10.237054
10.197052
10.164214
10.137527
10.115619
10.097287
10.082225
10.06968
10.058714
10.048818
10.039737
10.031749
10.025809
10.022943
10.024406
10.031565
10.044254
10.060505
10.077094
10.09122
10.102463
10.112779
10.123494
10.131822
10.131796
10.120486
10.106114
10.10609
10.081106
10.045866
10.016518
1527.9437
2489.0832
909.31854
568.13487
362.83093
277.18739
194.39529
157.80705
124.92681
103.78217
86.802852
73.747873
63.377151
55.066434
48.336015
42.80888
38.219144
34.380414
31.149572
28.410807
26.076981
24.07423
22.351169
20.856656
19.558103
18.419909
17.41934
16.536487
15.756235
15.064397
14.448874
13.901875
13.415703
12.984028
12.600712
12.25919
11.956341
11.688032
11.451214
11.243825
11.06215
10.904194
10.767573
10.649294
10.547328
10.459716
10.384499
10.321076
10.267818
10.223706
10.186786
10.15597
10.130896
10.110473
10.093371
10.07885
10.066615
10.05577
10.045875
10.036794
10.028848
10.022994
10.019916
10.021025
10.027515
10.039396
10.055172
10.072001
10.08694
10.098981
10.10968
10.120434
10.128374
10.126444
10.112209
10.099481
10.100439
10.078959
10.04488
10.015422
1545.868
2435.7579
877.00849
556.97358
351.26351
270.72704
189.41766
153.49779
121.69593
100.62944
83.986617
71.179036
61.054359
52.965397
46.436952
41.087571
36.66544
32.981764
29.891359
27.279088
25.061072
23.162056
21.53341
20.124436
18.901261
17.834412
16.89897
16.075275
15.347881
14.704411
14.13209
13.623683
13.171842
12.770743
12.415302
12.09868
11.818025
11.569506
11.349737
11.157388
10.988737
10.841806
10.714996
10.605312
10.510694
10.429548
10.36026
10.301266
10.251498
10.210477
10.17628
10.147835
10.12428
10.105199
10.089159
10.075305
10.063267
10.052506
10.042638
10.03367
10.025914
10.02026
10.017126
10.017963
10.023768
10.034661
10.049584
10.066172
10.081538
10.094199
10.105221
10.116056
10.124011
10.121226
10.10466
10.093916
10.095511
10.078147
10.045711
10.015337
1563.1491
2400.9565
844.63643
545.24707
339.45609
263.34873
184.29621
148.66629
117.91987
97.037384
80.786643
68.296743
58.470964
50.649897
44.349391
39.22291
35.00229
31.498768
28.570961
26.103052
24.014661
22.230948
20.702025
19.385943
18.246649
17.25487
16.387023
15.623883
14.950081
14.355093
13.826057
13.356055
12.938211
12.566809
12.236956
11.944414
11.685072
11.455726
11.253437
11.075414
10.919322
10.782836
10.665143
10.563584
10.47592
10.400674
10.336433
10.281889
10.235833
10.197635
10.165951
10.139631
10.117819
10.099932
10.084891
10.071669
10.059763
10.049047
10.039213
10.030428
10.022988
10.01753
10.014453
10.015092
10.020256
10.03012
10.043979
10.059937
10.075299
10.088256
10.099366
10.110102
10.118482
10.116829
10.100383
10.091193
10.09141
10.079574
10.048351
10.016174
1579.2607
2356.205
811.42678
532.62042
327.28926
254.81168
178.83177
143.18924
113.48334
92.939276
77.164612
65.076437
55.605141
48.103141
42.098966
37.238028
33.25471
29.959146
27.214994
24.908124
22.95768
21.299483
19.881352
18.662301
17.609043
16.69384
15.894087
15.191542
14.570649
14.021442
13.534512
13.101628
12.716556
12.374142
12.069982
11.800056
11.560732
11.348902
11.161931
10.997479
10.853442
10.727759
10.618499
10.524435
10.443261
10.373552
10.314005
10.263474
10.220916
10.185364
10.155998
10.131702
10.111591
10.094791
10.080632
10.067939
10.056267
10.045559
10.035738
10.027128
10.020103
10.014681
10.011702
10.012169
10.016735
10.025601
10.038325
10.053405
10.068389
10.081266
10.092127
10.102417
10.111301
10.112893
10.100686
10.090193
10.088904
10.082959
10.05188
10.017879
1593.5367
2287.373
776.63601
518.59747
313.95702
244.95098
172.70442
136.91806
108.27814
88.27037
73.090411
61.495791
52.47388
45.375164
39.724161
35.174119
31.463157
28.400018
25.853031
23.720739
21.92234
20.395241
19.090691
17.970201
17.002863
16.163068
15.429349
14.783865
14.214691
13.710805
13.263699
12.865935
12.511643
12.196103
11.915502
11.666477
11.445751
11.250315
11.077716
10.925664
10.792289
10.675987
10.575387
10.488134
10.412914
10.348311
10.293083
10.246148
10.206572
10.173842
10.146557
10.124062
10.105482
10.089918
10.076589
10.064415
10.052948
10.042229
10.032367
10.023802
10.016876
10.011468
10.008516
10.008776
10.012748
10.020657
10.032259
10.046366
10.06073
10.073191
10.083449
10.092897
10.101698
10.106581
10.102119
10.092976
10.089714
10.084952
10.054995
10.019747
1604.8902
2216.9305
739.34228
502.5513
299.84954
233.56199
165.43566
129.67596
102.22039
82.996636
68.555976
57.597377
49.142941
42.529078
37.288653
33.087664
29.676773
26.860696
24.527632
22.576955
20.933589
19.539107
18.347787
17.32392
16.439388
15.671338
14.999053
14.408977
13.887961
13.425941
13.015714
12.650425
12.324665
12.034002
11.774934
11.544705
11.340797
11.160176
11.000712
10.860192
10.736744
10.629445
10.53591
10.454912
10.385064
10.325117
10.273883
10.230357
10.193696
10.163174
10.137819
10.116945
10.099767
10.085376
10.072859
10.061225
10.050001
10.039268
10.029284
10.020614
10.013147
10.007498
10.004365
10.004318
10.007685
10.014671
10.025194
10.038323
10.051967
10.063779
10.073111
10.081406
10.089449
10.095672
10.097917
10.095789
10.094715
10.0808
10.056547
10.02066
1610.5474
2131.8945
699.29741
482.78398
284.70254
220.32394
156.53973
121.31623
95.306015
77.166253
63.649615
53.496605
45.716101
39.657231
34.871098
31.043312
27.943432
25.389345
23.272951
21.504168
20.01357
18.747943
17.665596
16.733828
15.9269
15.224458
14.61009
14.070052
13.593219
13.169288
12.79235
12.456356
12.156433
11.888494
11.649122
11.435655
11.246708
11.0792
10.931335
10.801261
10.687168
10.587337
10.500372
10.42496
10.359896
10.30409
10.256473
10.215929
10.182015
10.153543
10.1299
10.110441
10.094491
10.081237
10.069522
10.058474
10.04757
10.036853
10.026597
10.01716
10.008804
10.002443
9.9987948
9.9982676
10.001022
10.007107
10.016542
10.028659
10.041557
10.052675
10.060885
10.067818
10.074908
10.080766
10.084447
10.085765
10.083464
10.074505
10.053782
10.020004
1605.3484
2027.8889
655.96238
457.01554
268.29846
204.8634
145.76799
111.86001
87.690014
70.914139
58.569159
49.35097
42.320137
36.859956
32.551944
29.106892
26.317606
24.023372
22.118593
20.524411
19.178516
18.033557
17.052471
16.206081
15.47129
14.829805
14.267058
13.771144
13.332217
12.942307
12.594821
12.284633
12.007437
11.759687
11.538372
11.340903
11.165059
11.009003
10.870982
10.749444
10.642927
10.549941
10.468828
10.398458
10.33765
10.285422
10.241152
10.203458
10.171629
10.145009
10.122921
10.104699
10.089898
10.077504
10.066594
10.056193
10.045707
10.034976
10.024345
10.013616
10.003904
9.9962829
9.9916448
9.9904038
9.9924818
9.9976721
10.005978
10.016968
10.029067
10.039633
10.046851
10.052362
10.058539
10.06405
10.067735
10.069415
10.068665
10.062721
10.046491
10.017593
1582.821
1895.444
609.51122
424.56541
250.59687
186.95266
133.34591
101.6434
79.737326
64.584378
53.548251
45.333634
39.082349
34.232119
30.403217
27.334447
24.842399
22.794364
21.087567
19.654426
18.440474
17.404411
16.513987
15.743693
15.073107
14.485833
13.968887
13.512274
13.107259
12.746837
12.424951
12.137079
11.879375
11.64869
11.442367
11.258127
11.093964
10.94808
10.818845
10.704768
10.604567
10.517468
10.441472
10.375556
10.318657
10.269796
10.228083
10.192686
10.162721
10.137611
10.116929
10.099843
10.085815
10.07416
10.063995
10.054377
10.044374
10.033652
10.022243
10.010219
9.9988993
9.9894434
9.9829163
9.9805852
9.9818449
9.9861998
9.9933959
10.003142
10.014347
10.024641
10.031486
10.035936
10.041371
10.046827
10.050575
10.051935
10.051022
10.046877
10.03567
10.013977
1534.3533
1735.6127
561.09267
386.16347
232.45585
166.83644
119.97283
91.315482
71.92536
58.515323
48.817828
41.60599
36.118513
31.856559
28.484271
25.771358
23.556922
21.726603
20.197309
18.906789
17.808647
16.867316
16.055113
15.350141
14.734785
14.19455
13.716803
13.293519
12.916938
12.581589
12.281427
12.012496
11.771355
11.555181
11.361588
11.188525
11.034189
10.896964
10.775372
10.668051
10.573732
10.491229
10.419401
10.356996
10.303083
10.256725
10.217127
10.183747
10.155482
10.13176
10.112
10.095689
10.082277
10.071128
10.061569
10.052525
10.043097
10.032595
10.020471
10.007368
9.9946602
9.9835033
9.9767171
9.9734315
9.9734272
9.9763667
9.9819983
9.9899724
9.9994451
10.008723
10.015586
10.019746
10.024667
10.030414
10.034611
10.035584
10.033337
10.029122
10.022361
10.009622
1452.1283
1577.6873
511.75619
346.16792
208.304
147.34477
106.60819
81.59185
64.725018
53.024275
44.591251
38.319446
33.535774
29.806339
26.841287
24.443118
22.474145
20.836466
19.459288
18.290676
17.290747
16.429139
15.682053
15.030623
14.459674
13.956865
13.512065
13.116906
12.764616
12.449567
12.167095
11.913535
11.685803
11.481349
11.298012
11.133923
10.987429
10.857029
10.741339
10.639063
10.548999
10.470106
10.401728
10.34227
10.290912
10.246766
10.209032
10.176967
10.149879
10.127077
10.108023
10.092215
10.079254
10.068424
10.059099
10.050453
10.041549
10.031492
10.019224
10.005325
9.9913859
9.9800542
9.9724878
9.9680485
9.9666436
9.9679961
9.9717266
9.9773645
9.9844115
9.9922026
9.9995264
10.004864
10.009537
10.015578
10.020627
10.021994
10.018496
10.012321
10.007275
10.003704
1338.3288
1487.9427
465.43778
298.83057
184.19838
129.02737
94.544044
73.001652
58.508213
48.399309
41.082311
35.62296
31.436736
28.15125
25.520701
23.378374
21.608074
20.126622
18.872161
17.801873
16.881372
16.084468
15.390469
14.782838
14.248183
13.775588
13.356047
12.982174
12.647994
12.349029
12.080324
11.838686
11.621292
11.425826
11.250318
11.093065
10.952556
10.827423
10.716397
10.618282
10.531932
10.456228
10.390076
10.33258
10.282821
10.239975
10.20328
10.172065
10.145843
10.123713
10.105177
10.089704
10.076804
10.065976
10.05665
10.048136
10.039605
10.030103
10.018326
10.004494
9.9900874
9.9780632
9.9696019
9.9639001
9.9609606
9.9605565
9.9622558
9.9655913
9.9704075
9.9767913
9.9843241
9.9914667
9.9967441
10.002562
10.008116
10.010695
10.008309
10.002301
9.9981386
9.9988694
1204.6579
1253.1472
425.14161
256.50148
161.80429
113.76814
84.586454
66.076145
53.596625
44.833521
38.443036
33.632197
29.909514
26.961613
24.581186
22.62707
21.00044
19.630421
18.465033
17.465321
16.601657
15.850953
15.194916
14.61878
14.110436
13.659839
13.25886
12.90069
12.579734
12.291378
12.031849
11.798003
11.58725
11.397423
11.226678
11.07342
10.936229
10.813818
10.704995
10.608651
10.523795
10.449737
10.384927
10.328559
10.279736
10.237654
10.201558
10.170754
10.144601
10.122513
10.103933
10.088345
10.075254
10.06417
10.054583
10.045943
10.037607
10.02873
10.017992
10.004987
9.9907613
9.9777529
9.9682069
9.9611682
9.9565859
9.9543184
9.9540322
9.955488
9.9588871
9.9645348
9.9720561
9.9798801
9.9863387
9.9916729
9.9970111
10.001638
10.002809
9.9994227
9.9955715
9.9967672
1084.8775
1112.1985
392.30154
225.77618
145.08746
102.5804
77.229382
61.034397
50.083771
42.330056
36.618823
32.278703
28.889266
26.182369
23.97942
22.158035
20.63195
19.338909
18.232995
17.279662
16.452401
15.730479
15.097392
14.539888
14.047635
13.610109
13.21997
12.870782
12.557279
12.275093
12.020626
11.790915
11.583507
11.396353
11.227715
11.076086
10.940129
10.818624
10.710437
10.614492
10.52976
10.455256
10.390045
10.333217
10.283922
10.241356
10.204774
10.173485
10.146848
10.12427
10.105193
10.089095
10.075483
10.063877
10.053811
10.04482
10.036422
10.028009
10.018595
10.007036
9.993773
9.9799848
9.9690468
9.9607335
9.9545926
9.9505279
9.9484108
9.9481687
9.9506641
9.9561731
9.9636874
9.9715899
9.9781725
9.9836314
9.9893193
9.9951517
9.9991626
9.9990162
9.9950282
9.994411
1029.5925
1073.4964
367.93295
208.64256
134.18615
95.024402
71.766514
57.032051
47.089984
40.043869
34.840136
30.868081
27.753007
25.254891
23.213946
21.520311
20.096343
18.885852
17.847312
16.949441
16.168222
15.484855
14.884324
14.354404
13.884985
13.467621
13.095187
12.761707
12.46218
12.192448
11.94907
11.729207
11.530511
11.35103
11.189115
11.043346
10.912469
10.795349
10.690928
10.598208
10.51623
10.44407
10.38084
10.325689
10.277806
10.23643
10.200847
10.170395
10.144456
10.122454
10.10385
10.088126
10.074786
10.063349
10.053425
10.044655
10.036603
10.028664
10.019694
10.008375
9.9951167
9.9813181
9.9704374
9.9618241
9.9551349
9.9500948
9.9466556
9.9454635
9.9454893
9.9515895
9.9585779
9.9664472
9.9733356
9.9791422
9.9851781
9.9912119
9.995914
9.9974373
9.9949581
9.9933886
31866.624
79769.137
37073.085
10381.276
1361.8226
631.74175
447.49187
361.62859
300.55388
245.15118
199.53887
164.93055
139.4544
120.61595
106.11912
94.211256
84.098017
75.488181
68.141131
61.810839
56.301358
51.472914
47.219781
43.455038
40.111413
37.122488
34.441244
32.026316
29.844574
27.869836
26.079937
24.455248
22.978544
21.634493
20.410856
19.297421
18.2851
17.365904
16.532586
15.7785
15.097855
14.484984
13.934647
13.44205
13.002568
12.611968
12.266439
11.96187
11.694456
11.460833
11.257774
11.082171
10.93103
10.801838
10.692139
10.599786
10.523433
10.463029
10.420426
10.39273
10.37471
10.364412
10.358693
10.35258
10.344761
10.337454
10.330665
10.318461
10.294688
10.265422
10.237192
10.211411
10.1912
10.157106
10.176346
10.1908
10.196852
10.225812
10.214716
10.03536
19587.471
60633.529
24751.277
4943.7149
1008.4966
546.83375
409.42408
331.52099
273.16893
220.55817
180.4846
150.70752
128.96789
112.71726
99.852434
88.987449
79.707092
71.812735
65.048676
59.183476
54.053233
49.541
45.553583
42.013027
38.855533
36.026313
33.482506
31.185456
29.105905
27.220353
25.508395
23.95184
22.534774
21.243041
20.065669
18.993247
18.017308
17.130439
16.325837
15.597279
14.939356
14.346643
13.814196
13.33747
12.912034
12.533862
12.199301
11.904328
11.645318
11.41905
11.222392
11.052327
10.905956
10.780877
10.67472
10.585341
10.511216
10.452613
10.411765
10.385593
10.368734
10.358863
10.352708
10.345855
10.337665
10.330148
10.322072
10.306886
10.280759
10.250958
10.223001
10.200358
10.184908
10.154244
10.176808
10.189029
10.196314
10.22477
10.212085
10.032849
27234.106
36547.849
13583.48
2511.3589
865.03335
515.20408
398.72345
316.00651
259.19044
208.4176
172.24058
144.40346
124.19705
108.89986
96.62019
86.168695
77.285485
69.735601
63.247608
57.609472
52.673137
48.328317
44.485377
41.069597
38.018356
35.28284
32.821542
30.596799
28.581495
26.753126
25.092027
23.580685
22.203861
20.948
19.802868
18.759409
17.809494
16.946039
16.162479
15.452843
14.811948
14.234494
13.715737
13.251281
12.836813
12.468441
12.142609
11.855342
11.603153
11.382909
11.191537
11.026083
10.883731
10.762176
10.658966
10.572141
10.500036
10.442893
10.403458
10.378538
10.362593
10.352869
10.346121
10.338543
10.329991
10.322005
10.312211
10.294164
10.266532
10.236759
10.20989
10.1913
10.179763
10.1537
10.174042
10.187272
10.195874
10.223724
10.208888
10.030311
34423.698
24188.832
8281.7683
1591.1403
784.63719
490.87641
385.73893
299.91966
247.48965
197.31426
164.80286
138.31668
119.65927
105.24445
93.533052
83.494048
74.996552
67.765757
61.53466
56.110334
51.356274
47.16814
43.460278
40.161295
37.21193
34.562807
32.178788
30.022355
28.068063
26.294167
24.681709
23.213792
21.875786
20.654684
19.540949
18.525795
17.601419
16.761026
15.998266
15.307395
14.68344
14.121201
13.616138
13.163985
12.760537
12.402033
12.085003
11.805522
11.560235
11.346094
11.160078
10.999301
10.861101
10.743023
10.642824
10.558609
10.48872
10.433055
10.394996
10.371251
10.356084
10.346349
10.338927
10.330614
10.321607
10.312833
10.301031
10.28053
10.252181
10.223
10.198153
10.184004
10.174533
10.154909
10.17159
10.185819
10.195557
10.222683
10.204893
10.02775
38841.85
20169.049
5848.6553
1304.7779
747.99291
471.55871
375.72113
287.38288
238.87193
188.82325
159.52067
133.61913
116.22593
102.35694
91.048511
81.320013
73.123956
66.135848
60.102295
54.845243
50.235489
46.172549
42.573564
39.36957
36.503304
33.928057
31.606731
29.507805
27.605379
25.878151
24.307693
22.877553
21.573578
20.383187
19.29742
18.307633
17.4063
16.586849
15.843084
15.169453
14.561144
14.013027
13.520743
13.080124
12.687053
12.33788
12.029206
11.75714
11.518457
11.310168
11.129306
10.97305
10.838822
10.724123
10.626852
10.545198
10.477606
10.423379
10.386549
10.363825
10.349249
10.339319
10.33113
10.322035
10.312408
10.30251
10.2886
10.266281
10.237977
10.210024
10.188087
10.178147
10.167843
10.157329
10.169787
10.18467
10.195306
10.220933
10.199714
10.025186
41590.017
18665.212
4546.4468
1228.1501
725.03725
453.2717
368.09195
277.38722
232.17421
182.04326
155.37816
129.6505
113.38292
99.875016
88.904519
79.436989
71.493401
64.704847
58.83678
53.721454
49.234616
45.278796
41.773443
38.651562
35.857651
33.346394
31.080754
29.03262
27.17616
25.490572
23.957793
22.561726
21.288618
20.126242
19.066144
18.099743
17.219771
16.419829
15.693842
15.036425
14.442893
13.908167
13.428056
12.998465
12.61535
12.27516
11.974551
11.709663
11.477392
11.2748
11.098975
10.947198
10.816756
10.705359
10.610974
10.531865
10.466549
10.413883
10.378111
10.356245
10.342068
10.331773
10.322721
10.312749
10.302277
10.290977
10.275092
10.251731
10.224166
10.198099
10.179762
10.1728
10.158574
10.158502
10.168056
10.183811
10.195125
10.217569
10.192788
10.022659
43854.409
16867.636
3687.6699
1173.2181
707.82764
440.31242
361.94052
269.30484
226.92115
176.63077
152.0875
126.31768
111.02288
97.734705
87.051932
77.802259
70.068937
63.445044
57.715965
52.720712
48.33862
44.474594
41.049933
37.999209
35.268314
32.813215
30.598223
28.593764
26.777934
25.129513
23.630562
22.265247
21.020144
19.883324
18.84678
17.901924
17.04174
16.259953
15.550588
14.908401
14.328807
13.80676
13.338229
12.919162
12.54558
12.214021
11.92118
11.663223
11.437166
11.240119
11.069264
10.921701
10.794958
10.686794
10.595251
10.518672
10.45564
10.404649
10.369702
10.348508
10.334531
10.323706
10.313676
10.302689
10.291134
10.278283
10.260789
10.237194
10.210992
10.187451
10.173066
10.166297
10.148907
10.159241
10.166438
10.18322
10.195015
10.212968
10.18279
10.02022
45577.823
14355.341
3146.4719