/*--------------------------------*- C++ -*----------------------------------*\
  =========                 |
  \\      /  F ield         | OpenFOAM: The Open Source CFD Toolbox
   \\    /   O peration     | Website:  https://openfoam.org
    \\  /    A nd           | Version:  12
     \\/     M anipulation  |
\*---------------------------------------------------------------------------*/
FoamFile
{
    format      ascii;
    class       volScalarField;
    location    "0.02";
    object      rho;
}
// * * * * * * * * * * * * * * * * * * * * * * * * * * * * * * * * * * * * * //

dimensions      [1 -3 0 0 0 0 0];

internalField   nonuniform List<scalar> 
16000
(
1.0504723
1.0866838
1.0739377
1.0829753
1.078947
1.0827382
1.081748
1.0837569
1.0839679
1.0852982
1.0860216
1.0871312
1.0880874
1.0891679
1.0902438
1.0913726
1.0925338
1.093736
1.0949777
1.0962604
1.0975846
1.0989505
1.1003584
1.1018084
1.1033
1.1048329
1.1064062
1.108019
1.1096701
1.1113579
1.1130807
1.1148365
1.116623
1.1184378
1.1202782
1.1221413
1.1240241
1.1259236
1.1278364
1.1297594
1.1316893
1.1336231
1.1355576
1.1374901
1.1394178
1.141339
1.1432524
1.1451559
1.1470477
1.1489285
1.1507983
1.1526566
1.1545034
1.1563378
1.1581576
1.1599582
1.161731
1.1634629
1.1651365
1.1667303
1.1682153
1.1695483
1.1706674
1.1715131
1.1720539
1.1722596
1.1721029
1.1715805
1.1707088
1.16952
1.1680576
1.1663671
1.1644967
1.1625929
1.1611531
1.1608263
1.1614321
1.1673141
1.1650896
1.1807762
1.047487
1.0842383
1.0710387
1.0805296
1.0762827
1.0803477
1.0792716
1.0814551
1.0816721
1.0831117
1.083897
1.0850904
1.0861306
1.0872947
1.0884612
1.0896809
1.0909373
1.0922372
1.0935798
1.0949661
1.0963966
1.0978714
1.0993906
1.1009537
1.1025603
1.1042093
1.1058997
1.10763
1.1093985
1.1112031
1.1130417
1.1149115
1.1168098
1.1187336
1.1206796
1.1226443
1.1246244
1.1266161
1.1286158
1.1306199
1.1326249
1.1346274
1.1366242
1.1386122
1.1405884
1.142551
1.1444995
1.1464318
1.1483445
1.1502381
1.1521127
1.1539669
1.1557995
1.1576083
1.1593894
1.1611359
1.1628365
1.1644744
1.1660305
1.1674855
1.1688162
1.1699798
1.1709111
1.1715624
1.1719223
1.1719629
1.1716717
1.1710574
1.1701445
1.1689715
1.1675817
1.1660101
1.1642939
1.1625944
1.1613983
1.1612213
1.1626706
1.1677438
1.1666508
1.1815214
1.0448644
1.0820301
1.0684748
1.0783165
1.0739271
1.0782027
1.0771083
1.0794199
1.0796867
1.0812194
1.0820876
1.0833669
1.0845027
1.0857594
1.0870265
1.0883479
1.0897106
1.0911195
1.0925744
1.0940758
1.095624
1.0972186
1.0988595
1.1005457
1.1022765
1.1040503
1.1058657
1.1077205
1.1096125
1.1115392
1.1134975
1.1154843
1.1174961
1.1195292
1.1215798
1.1236437
1.1257169
1.1277953
1.1298747
1.1319512
1.1340208
1.13608
1.1381255
1.1401541
1.1421626
1.1441486
1.1461121
1.1480521
1.1499644
1.1518483
1.1537037
1.1555288
1.1573211
1.159077
1.1607912
1.1624551
1.164055
1.1655716
1.1669844
1.1682775
1.1694346
1.1704096
1.1711349
1.1715833
1.1717585
1.1716339
1.1712135
1.1705148
1.1695692
1.1684185
1.1671031
1.1656471
1.1640844
1.1625908
1.1616385
1.1617816
1.1638268
1.1684298
1.1683599
1.1823379
1.0425589
1.0800523
1.0661584
1.0763518
1.0718306
1.0763388
1.0752311
1.0776861
1.0780126
1.0796502
1.0806155
1.0819924
1.0832388
1.0846018
1.0859841
1.0874216
1.0889046
1.0904364
1.0920169
1.0936461
1.0953241
1.0970502
1.0988239
1.1006438
1.1025087
1.1044165
1.1063652
1.1083521
1.1103742
1.1124282
1.1145103
1.1166167
1.118743
1.1208848
1.1230374
1.125196
1.127356
1.1295126
1.1316612
1.1337974
1.1359171
1.1380165
1.1400922
1.1421412
1.1441604
1.1461471
1.1480998
1.1500192
1.1519028
1.1537479
1.1555535
1.1573183
1.1590384
1.1607084
1.1623222
1.1638701
1.1653378
1.1667059
1.1679535
1.1690696
1.1700403
1.1708136
1.17133
1.1715875
1.1715938
1.1713283
1.1708073
1.1700541
1.1691045
1.1680005
1.1667761
1.1654449
1.1640412
1.1627515
1.1620359
1.1625025
1.1649729
1.1692839
1.1700866
1.1831898
1.0405894
1.0784004
1.0641077
1.0746626
1.0700401
1.0748063
1.0737026
1.0763045
1.0767121
1.0784622
1.079545
1.0810309
1.0824039
1.0838866
1.0853971
1.0869633
1.0885783
1.0902443
1.0919614
1.0937294
1.0955479
1.0974161
1.0993329
1.1012965
1.1033049
1.1053555
1.1074454
1.1095711
1.1117287
1.113914
1.1161223
1.1183487
1.1205879
1.1228347
1.1250834
1.1273287
1.1295651
1.1317873
1.1339903
1.1361693
1.1383202
1.140439
1.1425224
1.1445676
1.1465724
1.1485339
1.1504491
1.1523181
1.1541422
1.155918
1.1576429
1.1593156
1.1609319
1.1624848
1.1639675
1.1653699
1.1666789
1.1678769
1.168945
1.1698743
1.170645
1.1712026
1.1715114
1.1715907
1.1714414
1.1710553
1.1704552
1.169669
1.1687348
1.1676924
1.1665673
1.1653644
1.1641217
1.1630373
1.1625586
1.1633314
1.1661282
1.1702457
1.1718144
1.1840861
1.0390222
1.0771275
1.0624891
1.0734339
1.0686816
1.0736843
1.0725906
1.0753491
1.0758596
1.0777309
1.0789483
1.0805503
1.0820595
1.0836703
1.0853173
1.0870214
1.0887783
1.0905894
1.0924546
1.0943734
1.0963448
1.0983674
1.1004394
1.1025582
1.1047209
1.1069239
1.1091632
1.1114342
1.113732
1.1160511
1.1183857
1.1207298
1.1230772
1.1254214
1.1277563
1.1300754
1.1323728
1.1346428
1.1368801
1.1390798
1.1412377
1.14335
1.1454137
1.1474263
1.1493865
1.1512925
1.1531406
1.154929
1.1566612
1.1583349
1.1599467
1.1614942
1.1629739
1.1643789
1.1657022
1.1669336
1.1680628
1.1690753
1.1699538
1.1706854
1.17124
1.1715751
1.1716898
1.1716074
1.1713207
1.1708357
1.1701786
1.1693807
1.1684803
1.1675129
1.1664943
1.1654226
1.1643422
1.1634603
1.1632139
1.1642628
1.1672598
1.1713304
1.1735222
1.1849893
1.0378829
1.0762737
1.0612994
1.0726378
1.0678475
1.0730182
1.0719475
1.0748886
1.0755076
1.0774907
1.078848
1.080567
1.08222
1.0839696
1.0857657
1.0876225
1.0895374
1.0915105
1.0935411
1.0956278
1.0977689
1.099962
1.1022041
1.1044916
1.1068203
1.1091855
1.1115817
1.1140032
1.1164435
1.1188958
1.1213532
1.1238083
1.1262539
1.1286826
1.1310872
1.1334611
1.1357976
1.138091
1.1403358
1.1425275
1.1446621
1.1467365
1.1487481
1.150695
1.1525765
1.1543919
1.1561395
1.157817
1.1594256
1.1609653
1.1624338
1.1638274
1.1651425
1.1663749
1.1675171
1.1685611
1.1694959
1.1703062
1.1709763
1.1714887
1.1718127
1.1719378
1.1718827
1.1716543
1.1712482
1.1706843
1.1699898
1.1691982
1.1683462
1.1674629
1.1665549
1.1656156
1.1646963
1.1640098
1.1639925
1.1652828
1.168445
1.1725834
1.1751578
1.1858574
1.0370939
1.0757716
1.0605205
1.0721965
1.0674132
1.0727938
1.0718284
1.0749403
1.075594
1.0776832
1.079209
1.0810687
1.0828915
1.0848066
1.0867773
1.0888125
1.0909099
1.0930686
1.0952871
1.0975631
1.0998936
1.1022751
1.1047032
1.1071731
1.109679
1.1122146
1.114773
1.1173465
1.1199274
1.1225074
1.125078
1.1276307
1.1301574
1.1326497
1.1351001
1.1375013
1.139847
1.1421314
1.1443496
1.1464977
1.1485723
1.1505715
1.1524935
1.1543376
1.1561034
1.1577913
1.159402
1.1609348
1.1623891
1.1637651
1.1650622
1.1662777
1.1674085
1.1684518
1.1693952
1.1702303
1.1709453
1.1715297
1.1719743
1.1722585
1.1723676
1.1723134
1.1721065
1.1717436
1.1712373
1.1706128
1.1698987
1.1691286
1.1683357
1.167542
1.1667461
1.1659395
1.1651777
1.1646782
1.1648875
1.1664314
1.1697247
1.1737883
1.1767236
1.1866783
1.0366306
1.0755846
1.0600821
1.0721394
1.0672783
1.0730057
1.0719536
1.0750886
1.0761074
1.07836
1.080095
1.0821281
1.0841513
1.0862623
1.0884358
1.0906768
1.092983
1.0953526
1.0977828
1.10027
1.10281
1.1053977
1.1080269
1.1106909
1.1133823
1.1160926
1.1188131
1.1215344
1.1242469
1.1269409
1.1296067
1.1322345
1.1348155
1.1373409
1.139803
1.1421947
1.1445103
1.1467445
1.1488938
1.1509551
1.1529269
1.1548082
1.156599
1.1583
1.1599119
1.161436
1.162874
1.1642274
1.1654964
1.1666806
1.1677793
1.1687902
1.1697096
1.1705324
1.1712533
1.1718642
1.1723563
1.1727192
1.1729411
1.1730129
1.1729368
1.1727213
1.1723665
1.1718846
1.1712964
1.1706283
1.1699097
1.1691725
1.1684456
1.1677437
1.1670595
1.166384
1.1657738
1.1654506
1.165883
1.1677282
1.1710335
1.1748557
1.1781621
1.1874354
1.036564
1.075787
1.0600591
1.0724602
1.0674075
1.0733668
1.0725849
1.0759861
1.0772315
1.0796457
1.0816188
1.0838519
1.0861017
1.0884375
1.0908421
1.0933172
1.0958598
1.0984664
1.1011328
1.1038535
1.1066223
1.109432
1.1122742
1.1151399
1.1180193
1.1209018
1.1237765
1.126632
1.1294571
1.1322406
1.1349717
1.1376402
1.1402366
1.1427525
1.1451806
1.1475149
1.1497508
1.1518848
1.1539149
1.1558402
1.157661
1.1593783
1.160994
1.1625103
1.1639298
1.1652551
1.1664885
1.1676322
1.1686877
1.1696555
1.1705347
1.1713231
1.1720181
1.1726155
1.1731099
1.1734941
1.1737601
1.173899
1.1739053
1.1737818
1.1735308
1.173154
1.1726652
1.1720826
1.1714298
1.1707332
1.1700222
1.1693263
1.1686688
1.1680582
1.1674837
1.1669359
1.1664675
1.1662999
1.1669351
1.1690577
1.1722734
1.1758339
1.1794526
1.1880627
1.0369504
1.0764476
1.060496
1.073193
1.0682253
1.0745273
1.0740069
1.077586
1.0790173
1.0816176
1.0838627
1.0863314
1.0888405
1.0914357
1.0941046
1.096846
1.0996552
1.1025268
1.1054542
1.1084296
1.1114441
1.1144875
1.1175488
1.1206162
1.1236771
1.1267186
1.1297274
1.1326905
1.135595
1.1384287
1.1411804
1.1438399
1.1463983
1.1488483
1.1511842
1.1534019
1.155499
1.1574747
1.1593296
1.1610652
1.1626844
1.1641905
1.1655875
1.1668794
1.1680705
1.1691645
1.170165
1.1710745
1.171895
1.1726274
1.1732713
1.1738253
1.1742871
1.1746526
1.1749166
1.1750734
1.1751178
1.1750461
1.1748557
1.1745468
1.1741265
1.1736068
1.1730041
1.1723395
1.1716378
1.1709261
1.1702328
1.1695835
1.1689965
1.1684755
1.1680078
1.1675814
1.167239
1.1671966
1.1679869
1.170271
1.1733085
1.1767012
1.1805837
1.188526
1.0378519
1.0776259
1.0614925
1.074676
1.0697536
1.0764276
1.0760125
1.0797508
1.081551
1.0843715
1.0869291
1.0896774
1.092485
1.0953791
1.0983498
1.1013925
1.1045004
1.107665
1.1108767
1.1141241
1.117395
1.1206758
1.1239522
1.127209
1.1304308
1.1336022
1.1367081
1.1397338
1.1426658
1.1454917
1.1482008
1.1507843
1.1532352
1.1555488
1.1577221
1.1597545
1.1616468
1.1634015
1.1650225
1.1665145
1.1678829
1.1691335
1.1702724
1.1713052
1.1722374
1.1730739
1.1738187
1.1744754
1.1750459
1.1755314
1.1759318
1.176246
1.1764716
1.1766049
1.1766421
1.1765786
1.1764112
1.1761384
1.1757618
1.1752861
1.1747204
1.1740796
1.1733829
1.1726538
1.1719185
1.1712044
1.1705374
1.1699392
1.1694237
1.168991
1.168627
1.1683136
1.1680763
1.168123
1.1690033
1.1713114
1.1741106
1.177395
1.1815504
1.1888429
1.0392852
1.0793771
1.0630798
1.0767861
1.0720045
1.0786379
1.0787693
1.0827464
1.0849429
1.0880304
1.0909444
1.0940223
1.0971732
1.1004107
1.1037242
1.1071054
1.1105437
1.1140265
1.1175398
1.1210682
1.124595
1.1281027
1.1315732
1.1349881
1.1383293
1.1415792
1.1447214
1.147741
1.150625
1.1533627
1.1559457
1.1583683
1.1606275
1.1627225
1.1646549
1.1664282
1.1680476
1.1695193
1.1708508
1.1720498
1.1731244
1.1740824
1.1749315
1.1756787
1.1763302
1.1768915
1.177367
1.1777602
1.1780734
1.1783076
1.1784627
1.1785377
1.1785301
1.1784373
1.1782564
1.1779848
1.1776212
1.1771661
1.1766233
1.1760007
1.1753104
1.1745692
1.1737986
1.1730236
1.1722709
1.1715667
1.1709347
1.1703934
1.1699528
1.1696102
1.1693486
1.1691388
1.1689842
1.1690803
1.1699779
1.1721684
1.1746923
1.1778629
1.1823371
1.1890618
1.0413184
1.0817458
1.0652942
1.0792163
1.0749197
1.0819007
1.0824477
1.0866546
1.0893223
1.0927355
1.0960573
1.099523
1.1030701
1.1067003
1.1103998
1.1141551
1.1179501
1.1217672
1.1255869
1.1293886
1.1331511
1.1368522
1.1404701
1.1439835
1.1473725
1.1506188
1.1537065
1.1566227
1.1593574
1.161904
1.1642591
1.1664224
1.1683963
1.1701859
1.1717979
1.1732408
1.1745243
1.1756585
1.1766538
1.1775207
1.1782691
1.1789083
1.1794469
1.1798925
1.1802516
1.1805297
1.1807312
1.1808592
1.1809156
1.1809015
1.1808163
1.1806591
1.1804279
1.1801208
1.1797358
1.1792723
1.1787307
1.1781139
1.1774277
1.1766817
1.1758901
1.1750717
1.1742492
1.173448
1.1726946
1.1720141
1.1714284
1.1709532
1.1705956
1.1703498
1.1701921
1.1700768
1.1699816
1.1700843
1.1709163
1.1728748
1.1750846
1.1781235
1.1829759
1.1892706
1.0440342
1.0847925
1.0682677
1.0827268
1.0787377
1.0860176
1.0871425
1.0916313
1.0948437
1.0986622
1.1024566
1.1063779
1.1103791
1.1144513
1.1185751
1.1227301
1.1268939
1.1310422
1.1351495
1.1391892
1.1431348
1.1469601
1.1506405
1.1541536
1.15748
1.1606037
1.163513
1.1662002
1.168662
1.1708985
1.1729139
1.1747151
1.1763112
1.1777136
1.1789345
1.1799872
1.180885
1.1816411
1.1822681
1.1827781
1.1831821
1.1834898
1.1837099
1.1838499
1.1839159
1.1839129
1.1838447
1.1837138
1.1835218
1.1832691
1.1829551
1.1825787
1.1821386
1.1816336
1.1810631
1.1804278
1.1797299
1.1789743
1.1781684
1.1773237
1.1764557
1.1755843
1.1747326
1.1739259
1.1731901
1.1725494
1.1720245
1.1716298
1.1713689
1.1712304
1.1711797
1.1711496
1.1710899
1.1711544
1.1718471
1.1735096
1.1753701
1.1782605
1.1835366
1.1896184
1.0474924
1.0885608
1.072124
1.0870561
1.083614
1.0912013
1.0930342
1.0978832
1.1017292
1.1060491
1.1103888
1.1148331
1.1193411
1.1238936
1.1284634
1.1330223
1.1375393
1.1419824
1.1463187
1.1505159
1.1545431
1.1583724
1.1619798
1.1653459
1.1684567
1.1713035
1.1738832
1.1761974
1.1782523
1.1800575
1.1816257
1.1829717
1.1841115
1.1850618
1.1858396
1.1864614
1.1869431
1.1872994
1.1875441
1.1876894
1.1877461
1.1877238
1.1876302
1.187472
1.1872545
1.1869817
1.1866564
1.1862805
1.1858548
1.1853792
1.184853
1.1842753
1.1836451
1.1829623
1.1822275
1.1814429
1.1806124
1.179742
1.1788411
1.1779224
1.1770026
1.1761019
1.1752434
1.1744521
1.1737532
1.1731706
1.1727246
1.1724281
1.1722801
1.1722595
1.1723146
1.1723553
1.1723073
1.1722993
1.1728046
1.1741351
1.1756482
1.1784319
1.1841065
1.1901685
1.0517537
1.093075
1.077021
1.0924387
1.0897242
1.0976941
1.1003967
1.1057087
1.1102756
1.115192
1.1201435
1.125166
1.1302168
1.1352648
1.1402723
1.1451997
1.150006
1.1546502
1.1590935
1.1633006
1.1672414
1.1708923
1.1742365
1.1772646
1.1799742
1.1823692
1.1844589
1.186257
1.1877809
1.1890498
1.1900846
1.1909067
1.1915373
1.1919969
1.192305
1.1924796
1.1925374
1.1924931
1.1923599
1.1921493
1.1918709
1.1915329
1.1911419
1.190703
1.1902203
1.1896965
1.1891335
1.1885321
1.1878925
1.1872142
1.1864964
1.1857384
1.1849398
1.1841015
1.1832254
1.1823147
1.1813748
1.1804132
1.1794406
1.1784709
1.1775214
1.1766127
1.1757676
1.1750107
1.1743671
1.1738608
1.1735116
1.1733295
1.1733055
1.1734031
1.1735488
1.1736329
1.1735701
1.1734663
1.1737484
1.1747665
1.175978
1.1787585
1.1847668
1.1907609
1.0570151
1.0984215
1.0831602
1.0991991
1.0974275
1.1058502
1.109575
1.1154542
1.1208176
1.1264172
1.1320364
1.1376724
1.1432718
1.1487864
1.1541637
1.1593513
1.1642992
1.168962
1.1733019
1.1772898
1.1809059
1.1841404
1.1869925
1.1894697
1.1915862
1.1933615
1.1948189
1.1959841
1.1968842
1.1975462
1.1979967
1.1982609
1.1983626
1.1983234
1.1981632
1.1978994
1.1975475
1.197121
1.1966312
1.1960878
1.1954986
1.1948699
1.1942064
1.1935118
1.1927886
1.1920382
1.1912613
1.1904579
1.1896276
1.1887696
1.1878831
1.1869676
1.1860237
1.1850528
1.1840579
1.1830433
1.1820156
1.1809836
1.1799589
1.1789566
1.1779945
1.1770934
1.1762762
1.1755675
1.1749927
1.1745755
1.1743336
1.1742705
1.1743639
1.1745566
1.1747523
1.1748318
1.1747177
1.1745023
1.1745467
1.1753069
1.1762948
1.1791303
1.1853356
1.1910691
1.0636064
1.1049242
1.09095
1.1077066
1.1070927
1.116019
1.1209263
1.1275014
1.1337385
1.1400996
1.1464186
1.1526549
1.1587353
1.1645922
1.1701597
1.1753791
1.1802021
1.1845926
1.1885278
1.191998
1.1950059
1.1975646
1.1996953
1.2014258
1.2027878
1.2038155
1.2045437
1.2050068
1.2052377
1.2052675
1.2051246
1.204835
1.2044218
1.2039053
1.2033035
1.2026315
1.2019025
1.2011273
1.2003148
1.1994722
1.198605
1.1977174
1.1968124
1.1958918
1.1949565
1.1940069
1.1930425
1.1920626
1.1910663
1.1900528
1.1890212
1.1879715
1.1869046
1.1858228
1.1847297
1.1836305
1.1825327
1.1814459
1.1803829
1.1793592
1.1783932
1.1775062
1.1767216
1.1760648
1.1755612
1.1752329
1.1750916
1.1751279
1.1753005
1.1755294
1.1757029
1.1757057
1.1754828
1.1751375
1.1749639
1.1753907
1.1764353
1.1792486
1.1852974
1.1906124
1.0717191
1.1137221
1.100687
1.1182326
1.1191284
1.1286496
1.1349205
1.142354
1.1495269
1.1566707
1.1636286
1.170323
1.1766633
1.1825727
1.1879884
1.1928659
1.1971792
1.2009205
1.2040983
1.2067344
1.2088608
1.2105167
1.2117456
1.2125927
1.2131029
1.2133197
1.2132841
1.2130335
1.2126022
1.2120204
1.211315
1.2105093
1.2096235
1.2086745
1.2076768
1.2066424
1.205581
1.2045004
1.2034066
1.2023042
1.2011965
1.2000856
1.1989725
1.1978574
1.1967401
1.1956196
1.1944947
1.193364
1.1922265
1.1910811
1.1899272
1.1887649
1.1875954
1.1864214
1.1852469
1.1840777
1.1829217
1.1817891
1.1806931
1.1796497
1.1786778
1.1777994
1.1770392
1.1764234
1.1759766
1.175716
1.1756409
1.1757223
1.1758949
1.1760598
1.1761038
1.1759348
1.1755235
1.1749736
1.1746038
1.174757
1.1759926
1.178645
1.1839769
1.1886354
1.081488
1.1244084
1.1129819
1.1313179
1.13421
1.1444729
1.1522422
1.1606414
1.1686919
1.1764581
1.1837789
1.1905586
1.196714
1.2021897
1.2069571
1.211013
1.2143758
1.2170809
1.2191764
1.2207177
1.2217642
1.222376
1.2226111
1.2225243
1.2221659
1.2215813
1.2208108
1.2198896
1.2188483
1.2177132
1.2165063
1.2152465
1.2139491
1.212627
1.2112904
1.2099474
1.2086043
1.2072658
1.2059351
1.2046143
1.2033046
1.2020061
1.2007184
1.1994402
1.1981702
1.1969063
1.1956468
1.19439
1.1931344
1.191879
1.1906232
1.189367
1.1881118
1.1868601
1.1856159
1.1843853
1.183176
1.1819984
1.1808655
1.1797935
1.178802
1.177914
1.1771557
1.1765536
1.176129
1.1758885
1.1758128
1.175847
1.1759008
1.1758648
1.1756424
1.1751861
1.1745254
1.1737837
1.1732411
1.1732775
1.1744278
1.1768027
1.1808619
1.1843772
1.0936539
1.1379772
1.1287984
1.1479883
1.1533487
1.1644363
1.1736239
1.1828511
1.1914304
1.1993349
1.2064327
1.2126585
1.2179817
1.2224082
1.2259731
1.2287334
1.2307605
1.2321335
1.2329338
1.2332409
1.23313
1.2326697
1.2319216
1.2309401
1.2297721
1.228458
1.2270322
1.2255233
1.2239556
1.2223487
1.220719
1.2190795
1.2174406
1.2158105
1.2141953
1.2125994
1.2110259
1.2094767
1.2079524
1.2064532
1.2049782
1.2035262
1.2020953
1.2006833
1.1992877
1.1979059
1.1965356
1.1951748
1.1938218
1.1924754
1.1911347
1.1897997
1.188471
1.187151
1.1858434
1.1845535
1.1832887
1.1820589
1.1808765
1.1797577
1.1787227
1.1777963
1.1770057
1.1763758
1.1759199
1.1756281
1.1754564
1.1753226
1.1751183
1.1747384
1.1741215
1.1732802
1.1723062
1.1713661
1.1707129
1.1706879
1.1715257
1.1732536
1.1755175
1.1778236
1.1098111
1.1555833
1.1494804
1.1693633
1.1775485
1.189327
1.1994083
1.2088483
1.2171775
1.2243718
1.2303941
1.235269
1.2390589
1.2418544
1.2437622
1.2448956
1.2453667
1.2452814
1.2447364
1.2438178
1.2426003
1.2411483
1.2395159
1.2377486
1.2358842
1.2339535
1.2319818
1.2299895
1.227993
1.2260053
1.2240363
1.2220938
1.2201834
1.218309
1.2164731
1.2146769
1.2129208
1.2112043
1.2095261
1.2078846
1.2062777
1.2047027
1.2031569
1.2016371
1.2001402
1.1986629
1.1972026
1.1957568
1.1943238
1.1929018
1.1914895
1.1900862
1.1886921
1.1873084
1.1859382
1.1845857
1.1832573
1.1819616
1.1807107
1.1795206
1.1784131
1.1774143
1.1765515
1.1758444
1.1752932
1.1748656
1.1744908
1.1740652
1.1734774
1.1726481
1.1715709
1.1703265
1.1690603
1.1679498
1.1671961
1.166995
1.1673736
1.1680271
1.1686847
1.1697552
1.1317299
1.1785657
1.1764931
1.1964634
1.2071531
1.2190482
1.2289299
1.2374231
1.2443555
1.2497962
1.2538462
1.2566505
1.2583699
1.2591685
1.2592018
1.2586117
1.2575228
1.2560422
1.2542601
1.2522516
1.2500781
1.2477898
1.2454268
1.2430216
1.2405998
1.2381814
1.2357822
1.2334143
1.2310867
1.2288062
1.2265773
1.224403
1.222285
1.2202238
1.2182188
1.2162688
1.2143721
1.2125262
1.2107286
1.2089763
1.2072661
1.2055947
1.2039584
1.2023534
1.2007759
1.1992224
1.1976897
1.1961749
1.1946757
1.19319
1.1917158
1.1902514
1.1887959
1.1873495
1.1859138
1.1844917
1.183088
1.18171
1.1803693
1.1790829
1.1778743
1.1767712
1.1757986
1.1749671
1.1742584
1.1736154
1.1729441
1.1721321
1.1710859
1.169775
1.168261
1.1666868
1.1652232
1.1640118
1.1631481
1.1626684
1.1624421
1.1620961
1.1614805
1.1616036
1.1620137
1.207733
1.2109051
1.2301847
1.2412287
1.2518375
1.2600461
1.2662686
1.2706438
1.273423
1.2748555
1.2751856
1.2746332
1.2733893
1.271615
1.2694427
1.26698
1.2643127
1.2615089
1.258622
1.2556936
1.252756
1.2498338
1.2469457
1.2441058
1.2413243
1.2386085
1.2359636
1.2333924
1.2308967
1.2284768
1.2261321
1.223861
1.2216615
1.219531
1.2174663
1.215464
1.2135207
1.2116325
1.2097957
1.2080065
1.2062608
1.2045544
1.2028832
1.2012428
1.1996292
1.1980387
1.196468
1.1949139
1.1933736
1.1918444
1.1903235
1.1888087
1.1872986
1.1857931
1.1842936
1.1828029
1.1813274
1.1798789
1.1784764
1.1771456
1.1759149
1.1748046
1.1738122
1.1728986
1.1719837
1.1709596
1.1697226
1.1682182
1.1664802
1.1646381
1.1628758
1.1613496
1.1601185
1.1591414
1.1583185
1.1574825
1.1563798
1.1550371
1.1546366
1.2032048
1.2449327
1.2514274
1.267797
1.2776562
1.2851405
1.289952
1.2926652
1.2936626
1.2933294
1.2919816
1.2898805
1.2872334
1.284203
1.2809144
1.2774635
1.2739228
1.2703465
1.2667754
1.2632394
1.2597603
1.2563538
1.253031
1.249799
1.2466626
1.2436243
1.240685
1.2378442
1.2351007
1.2324523
1.2298964
1.2274296
1.2250484
1.2227488
1.2205267
1.2183776
1.2162973
1.2142812
1.2123251
1.2104245
1.2085751
1.2067726
1.2050123
1.2032898
1.2016003
1.1999393
1.1983025
1.1966859
1.1950854
1.1934974
1.1919181
1.1903439
1.1887711
1.1871964
1.1856176
1.1840343
1.1824486
1.1808658
1.1792989
1.1777697
1.1763065
1.1749373
1.1736752
1.1725026
1.1713604
1.1701519
1.1687685
1.167132
1.1652408
1.1631945
1.1611756
1.1593775
1.1579059
1.156713
1.1556276
1.1544698
1.1531391
1.1516205
1.1501165
1.1494805
1.2533905
1.2883322
1.2962904
1.3068565
1.3122614
1.3149337
1.315299
1.3140412
1.3116187
1.3083962
1.3046405
1.3005481
1.2962609
1.2918812
1.2874819
1.2831144
1.2788148
1.2746078
1.27051
1.2665319
1.2626798
1.2589568
1.2553639
1.2519
1.2485632
1.2453507
1.2422589
1.2392837
1.236421
1.2336661
1.2310142
1.2284606
1.226
1.2236274
1.2213378
1.2191259
1.2169867
1.2149154
1.212907
1.2109571
1.2090609
1.2072139
1.205411
1.2036476
1.2019184
1.2002187
1.1985434
1.1968877
1.1952467
1.1936156
1.1919896
1.1903644
1.1887352
1.1870971
1.1854451
1.1837762
1.1820925
1.1804013
1.178715
1.1770599
1.1754662
1.1739601
1.1725467
1.1711939
1.1698267
1.168341
1.1666398
1.1646804
1.162515
1.1602984
1.1582412
1.1565174
1.1551616
1.1540228
1.1528392
1.1514199
1.1497941
1.1481761
1.1468416
1.1462124
1.3102556
1.3327633
1.3379965
1.340769
1.3401927
1.337629
1.3337391
1.3290402
1.3238731
1.3184686
1.3129796
1.307507
1.3021166
1.2968504
1.2917345
1.286784
1.282007
1.2774063
1.2729816
1.26873
1.2646476
1.2607291
1.256969
1.253361
1.2498992
1.2465771
1.2433886
1.2403274
1.2373875
1.2345628
1.2318473
1.2292351
1.2267204
1.2242975
1.2219605
1.2197042
1.2175229
1.2154117
1.2133655
1.2113795
1.209449
1.207569
1.2057346
1.2039406
1.2021815
1.200452
1.1987465
1.1970596
1.1953857
1.1937191
1.1920539
1.1903847
1.1887064
1.1870138
1.1852997
1.1835562
1.1817842
1.179995
1.1782036
1.176437
1.1747285
1.1731017
1.1715548
1.1700446
1.1684863
1.1667765
1.1648353
1.1626543
1.1603293
1.1580514
1.1560391
1.1544321
1.1531959
1.1521004
1.1508367
1.1492493
1.1475115
1.1460149
1.1450064
1.1444415
1.3658336
1.3700743
1.3693036
1.3649048
1.3590447
1.3523581
1.3453521
1.3382838
1.3313111
1.3245198
1.3179569
1.311645
1.3055926
1.2997994
1.2942604
1.2889673
1.2839105
1.2790795
1.2744637
1.2700524
1.2658353
1.2618024
1.2579442
1.2542517
1.2507161
1.2473292
1.2440833
1.2409708
1.2379845
1.2351176
1.2323634
1.2297155
1.2271674
1.2247133
1.222347
1.2200628
1.2178552
1.2157191
1.2136492
1.2116409
1.2096892
1.2077892
1.2059359
1.2041238
1.2023472
1.2006003
1.198877
1.1971712
1.195477
1.1937886
1.1920997
1.1904037
1.1886941
1.1869645
1.1852092
1.1834222
1.1816044
1.1797281
1.1778639
1.1760126
1.1742164
1.1724979
1.1708512
1.1692284
1.1675409
1.1656845
1.1635923
1.1612841
1.1588799
1.1565886
1.154632
1.1531199
1.1519686
1.1508983
1.1495825
1.1479119
1.1461722
1.1448597
1.144159
1.1436531
1.4018275
1.3942701
1.3870398
1.3786415
1.3699002
1.3612032
1.3527511
1.3446253
1.3368604
1.3294628
1.3224255
1.3157348
1.3093737
1.3033242
1.2975683
1.2920885
1.2868684
1.2818922
1.2771456
1.272615
1.2682879
1.2641525
1.2601981
1.2564145
1.2527922
1.2493224
1.2459968
1.2428075
1.239747
1.2368082
1.2339842
1.2312686
1.2286548
1.2261368
1.2237085
1.2213642
1.2190984
1.2169059
1.2147816
1.2127209
1.2107189
1.2087709
1.2068719
1.2050163
1.2031985
1.201412
1.1996502
1.1979061
1.1961729
1.194444
1.1927135
1.1909757
1.1892249
1.1874539
1.1856534
1.1838133
1.1819267
1.1799983
1.1780511
1.1761189
1.174239
1.1724396
1.1707149
1.1690178
1.1672533
1.1653068
1.1631196
1.1607276
1.1582457
1.1559255
1.1539782
1.1524855
1.1513733
1.1503202
1.1489851
1.1472876
1.1455751
1.1443905
1.1438672
1.1433853
1.1573507
1.1617113
1.1765869
1.1887075
1.1941402
1.1953183
1.1953579
1.195017
1.1950504
1.1947547
1.1944853
1.193928
1.1933327
1.1926909
1.1920053
1.1912798
1.1905193
1.1897292
1.1889141
1.1880781
1.1872249
1.1863581
1.1854807
1.1845957
1.1837057
1.1828131
1.1819201
1.1810287
1.1801411
1.1792589
1.1783842
1.1775186
1.176664
1.175822
1.1749945
1.1741829
1.1733889
1.1726142
1.1718601
1.1711281
1.1704198
1.1697364
1.1690794
1.1684503
1.1678505
1.1672816
1.166745
1.1662423
1.1657749
1.1653442
1.1649515
1.1645978
1.1642836
1.164009
1.1637737
1.1635766
1.1634162
1.1632903
1.1631961
1.1631306
1.163092
1.1630813
1.1631061
1.1631861
1.1633634
1.1637046
1.1643108
1.1653168
1.1668177
1.1688967
1.1713631
1.174096
1.1760728
1.1776076
1.1760301
1.1757018
1.1671854
1.1674695
1.1566551
1.1683173
1.1527791
1.1633931
1.1801993
1.1887036
1.1909028
1.1907769
1.1902355
1.1899871
1.1896729
1.1893719
1.1889835
1.1885911
1.1881548
1.1876827
1.1871728
1.1866314
1.1860597
1.1854599
1.1848342
1.1841848
1.1835139
1.1828239
1.1821169
1.1813952
1.1806609
1.1799163
1.1791636
1.178405
1.1776426
1.1768786
1.1761152
1.1753545
1.1745987
1.17385
1.1731103
1.1723818
1.1716665
1.1709664
1.1702832
1.1696189
1.1689751
1.1683537
1.1677564
1.1671849
1.1666409
1.1661261
1.1656422
1.1651909
1.1647738
1.1643922
1.1640475
1.1637405
1.1634719
1.1632417
1.1630494
1.1628942
1.1627745
1.1626886
1.162634
1.1626089
1.1626129
1.16265
1.1627322
1.1628855
1.1631582
1.1636245
1.1643876
1.1655717
1.1672519
1.1694711
1.1719959
1.1746433
1.1764106
1.1775698
1.175723
1.1749985
1.1664496
1.1667701
1.1565302
1.1684556
1.1525803
1.1661592
1.1785549
1.1850045
1.1859337
1.1854425
1.1849518
1.1846983
1.1844186
1.1841456
1.1838258
1.1835004
1.183144
1.1827742
1.1823784
1.1819622
1.1815234
1.1810632
1.1805817
1.1800795
1.1795577
1.1790172
1.1784591
1.1778849
1.1772958
1.1766935
1.1760796
1.1754557
1.1748237
1.1741856
1.1735432
1.1728988
1.1722545
1.1716123
1.1709746
1.1703436
1.1697213
1.16911
1.1685118
1.1679288
1.167363
1.1668164
1.1662911
1.1657888
1.1653118
1.1648617
1.1644405
1.16405
1.1636919
1.1633678
1.1630789
1.1628263
1.1626103
1.1624311
1.1622882
1.162181
1.1621082
1.1620685
1.1620601
1.1620824
1.1621369
1.1622309
1.1623811
1.1626196
1.1630002
1.1636022
1.1645277
1.1658863
1.1677307
1.1700634
1.172608
1.1751371
1.1766651
1.1775018
1.1753957
1.1742615
1.1657004
1.1661635
1.1564364
1.168616
1.1499465
1.1649257
1.1760823
1.1808467
1.1807094
1.1803204
1.1798943
1.1796975
1.1793982
1.1791555
1.1788582
1.1785855
1.1782868
1.1779893
1.1776733
1.1773478
1.1770075
1.1766537
1.1762852
1.1759016
1.1755027
1.1750886
1.1746593
1.1742154
1.1737574
1.1732859
1.1728021
1.172307
1.1718019
1.1712882
1.1707677
1.1702419
1.169713
1.1691827
1.1686533
1.1681268
1.1676054
1.1670914
1.1665869
1.1660942
1.1656153
1.1651526
1.1647081
1.1642841
1.1638825
1.1635055
1.1631551
1.1628333
1.1625419
1.1622824
1.1620563
1.1618646
1.1617076
1.1615854
1.1614979
1.1614446
1.1614247
1.1614371
1.1614813
1.1615581
1.1616712
1.1618314
1.1620603
1.162396
1.1628964
1.163644
1.164736
1.1662653
1.168259
1.1706785
1.1732063
1.1755855
1.1768478
1.1773873
1.1750561
1.173485
1.1649391
1.1656309
1.1563646
1.1687995
1.1443216
1.1614606
1.1716845
1.1752498
1.1747605
1.1746537
1.1743123
1.1742451
1.1740196
1.1738884
1.1736801
1.1735114
1.1733077
1.1731133
1.1729
1.172681
1.1724485
1.1722048
1.1719484
1.171679
1.1713961
1.1710996
1.1707894
1.1704657
1.1701286
1.1697786
1.1694163
1.1690424
1.1686579
1.1682637
1.1678612
1.1674518
1.167037
1.1666187
1.1661987
1.165779
1.1653616
1.1649487
1.1645424
1.164145
1.1637587
1.1633857
1.1630283
1.1626887
1.1623691
1.1620717
1.1617987
1.161552
1.1613335
1.161145
1.1609878
1.1608629
1.1607708
1.1607115
1.1606851
1.1606915
1.1607301
1.1608009
1.1609043
1.1610428
1.1612229
1.161459
1.1617776
1.1622216
1.1628524
1.1637522
1.1650109
1.1667023
1.1688251
1.1713001
1.173773
1.1759719
1.1769388
1.1771801
1.1746426
1.1726791
1.1641839
1.1651647
1.1563122
1.169007
1.1382226
1.1580184
1.166782
1.1697029
1.1690694
1.1692034
1.1689109
1.1689723
1.1688108
1.1687853
1.168656
1.1685839
1.1684666
1.1683651
1.1682431
1.1681189
1.1679813
1.1678344
1.1676765
1.1675074
1.1673269
1.1671346
1.1669304
1.1667142
1.166486
1.1662461
1.1659947
1.1657322
1.1654593
1.1651767
1.1648854
1.1645865
1.1642813
1.1639713
1.1636582
1.1633437
1.1630297
1.1627183
1.1624114
1.1621113
1.1618201
1.1615401
1.1612735
1.1610225
1.1607895
1.1605765
1.1603857
1.1602193
1.1600791
1.1599668
1.1598838
1.1598311
1.1598091
1.159818
1.1598581
1.1599296
1.1600324
1.1601674
1.1603365
1.1605444
1.1608
1.1611217
1.1615403
1.1621029
1.1628725
1.1639286
1.1653507
1.1671916
1.1694204
1.1719173
1.1743001
1.1762857
1.1769412
1.17688
1.1741252
1.1718543
1.1634459
1.1647697
1.1562808
1.1692393
1.1328272
1.1548245
1.1619621
1.1645501
1.1638143
1.1641379
1.1638563
1.1640194
1.1638962
1.1639531
1.1638847
1.1638961
1.1638525
1.1638242
1.1637726
1.1637245
1.1636653
1.1636001
1.1635264
1.163444
1.1633523
1.163251
1.1631397
1.1630183
1.1628866
1.1627445
1.1625923
1.1624302
1.1622585
1.1620778
1.1618889
1.1616925
1.1614899
1.1612822
1.1610709
1.1608576
1.160644
1.1604318
1.1602232
1.1600201
1.1598245
1.1596387
1.1594647
1.1593048
1.1591611
1.1590358
1.1589311
1.1588489
1.1587912
1.1587594
1.1587551
1.1587791
1.158832
1.158914
1.1590256
1.1591673
1.1593399
1.1595449
1.1597863
1.1600708
1.1604106
1.1608272
1.1613557
1.1620455
1.1629598
1.1641731
1.1657517
1.1677259
1.1700339
1.1725178
1.1747773
1.1765197
1.1768676
1.1765127
1.1735094
1.171019
1.1627351
1.1644522
1.1562726
1.1694964
1.1279365
1.1517671
1.1573832