/*--------------------------------*- C++ -*----------------------------------*\
  =========                 |
  \\      /  F ield         | OpenFOAM: The Open Source CFD Toolbox
   \\    /   O peration     | Website:  https://openfoam.org
    \\  /    A nd           | Version:  12
     \\/     M anipulation  |
\*---------------------------------------------------------------------------*/
FoamFile
{
    format      ascii;
    class       volScalarField;
    location    "0.119";
    object      nut;
}
// * * * * * * * * * * * * * * * * * * * * * * * * * * * * * * * * * * * * * //

dimensions      [0 2 -1 0 0 0 0];

internalField   nonuniform List<scalar> 
16000
(
4.7109263e-07
9.8745559e-06
1.9932313e-05
2.3563252e-05
1.8259594e-05
2.5057912e-05
1.7712521e-05
2.4231504e-05
1.8914579e-05
2.6020199e-05
2.1919455e-05
2.5719897e-05
2.3462959e-05
2.4079251e-05
2.3269144e-05
2.3135409e-05
2.2894003e-05
2.2828067e-05
2.2839538e-05
2.2948156e-05
2.3146819e-05
2.3434532e-05
2.3808962e-05
2.4270145e-05
2.4820233e-05
2.5465084e-05
2.6212607e-05
2.7075437e-05
2.8068947e-05
2.9209667e-05
3.051574e-05
3.201129e-05
3.3727472e-05
3.5702684e-05
3.7984172e-05
4.0628298e-05
4.370221e-05
4.7285998e-05
5.1478825e-05
5.6403563e-05
6.220441e-05
6.9051269e-05
7.7158389e-05
8.6788218e-05
9.8253165e-05
0.00011192814
0.00012827818
0.00014787019
0.00017139447
0.00019969227
0.00023379296
0.00027495894
0.00032473352
0.00038500817
0.00045810235
0.00054687387
0.00065485853
0.00078645331
0.0009471562
0.0010189975
0.00101889
0.0010187518
0.0010185652
0.0010183047
0.0010179697
0.0010175536
0.0010170483
0.0010164412
0.0010157135
0.0010148392
0.0010137734
0.0010124067
0.0010106254
0.0010090876
0.0010077875
0.001006763
0.0010059441
0.0010060948
0.0010040836
0.0010046148
4.1901481e-07
9.375706e-06
1.9803891e-05
2.1391888e-05
1.6508544e-05
2.2499211e-05
1.5755481e-05
2.1257352e-05
1.6747936e-05
2.3027901e-05
1.9884438e-05
2.3230221e-05
2.149239e-05
2.1854018e-05
2.1220097e-05
2.1035466e-05
2.0833728e-05
2.0762945e-05
2.0775297e-05
2.0874101e-05
2.1057271e-05
2.1323464e-05
2.1670907e-05
2.2099712e-05
2.2611557e-05
2.3211919e-05
2.390765e-05
2.471014e-05
2.5633944e-05
2.6695185e-05
2.7910747e-05
2.9302675e-05
3.0899803e-05
3.2737698e-05
3.4860575e-05
3.7321451e-05
4.0183898e-05
4.352319e-05
4.7431714e-05
5.202583e-05
5.7444139e-05
6.3846626e-05
7.143511e-05
8.04599e-05
9.1221118e-05
0.00010407517
0.00011946571
0.00013793541
0.00016014668
0.00018690732
0.00021920624
0.00025825961
0.00030555636
0.00036292483
0.00043260907
0.00051737626
0.00062065336
0.00074669724
0.00090081913
0.0010183216
0.0010182266
0.0010180677
0.0010178669
0.0010175924
0.0010172433
0.0010168129
0.0010162935
0.0010156732
0.0010149331
0.0010140456
0.0010129719
0.0010116284
0.0010098982
0.0010084169
0.0010071633
0.0010061278
0.0010054422
0.0010053552
0.0010039496
0.0010045195
3.7756447e-07
8.9903847e-06
1.8761173e-05
1.9612428e-05
1.4807177e-05
1.9847703e-05
1.4051321e-05
1.851179e-05
1.5081305e-05
2.0243348e-05
1.8156874e-05
2.0720648e-05
1.9497237e-05
1.9601275e-05
1.9112321e-05
1.8906437e-05
1.873619e-05
1.8670498e-05
1.8685768e-05
1.877915e-05
1.8949934e-05
1.919715e-05
1.9519297e-05
1.9916736e-05
2.0390783e-05
2.094671e-05
2.1590636e-05
2.2332878e-05
2.3187003e-05
2.4168733e-05
2.5294103e-05
2.6583509e-05
2.8063867e-05
2.9768293e-05
3.1738313e-05
3.4023859e-05
3.6685338e-05
3.9794249e-05
4.3437285e-05
4.77243e-05
5.2789321e-05
5.8784716e-05
6.590165e-05
7.4379117e-05
8.4507482e-05
9.6628204e-05
0.00011116701
0.00012864639
0.00014970558
0.00017512541
0.00020586154
0.00024309228
0.00028826185
0.00034314716
0.00040993116
0.0004913074
0.00059061458
0.00071200333
0.0008606441
0.0010176907
0.001017609
0.0010174246
0.0010172022
0.0010169071
0.0010165373
0.0010160861
0.001015546
0.0010149057
0.0010141468
0.0010132396
0.001012145
0.0010108049
0.0010091306
0.0010077182
0.0010065167
0.0010055329
0.0010049281
0.001004708
0.0010038565
0.0010043449
3.3780125e-07
8.701698e-06
1.7833743e-05
1.8193955e-05
1.332672e-05
1.7551157e-05
1.2537954e-05
1.6201906e-05
1.3590764e-05
1.7867549e-05
1.6593148e-05
1.8487798e-05
1.7647534e-05
1.7563716e-05
1.7183453e-05
1.6976823e-05
1.6834523e-05
1.6779065e-05
1.680007e-05
1.6891613e-05
1.7053592e-05
1.7285497e-05
1.758613e-05
1.7956217e-05
1.8396844e-05
1.8913217e-05
1.9510974e-05
2.0199584e-05
2.0991681e-05
2.1902658e-05
2.2947996e-05
2.4146693e-05
2.5524106e-05
2.7111242e-05
2.8947348e-05
3.1079689e-05
3.3565935e-05
3.6474618e-05
3.9887895e-05
4.3909539e-05
4.8670051e-05
5.4316002e-05
6.1029965e-05
6.9040817e-05
7.8631828e-05
9.0132864e-05
0.00010395537
0.000120606
0.00014070599
0.00016501622
0.0001944669
0.00023020838
0.00027365185
0.00032653727
0.00039100449
0.0004696954
0.00056588661
0.00068365651
0.00082808815
0.0010055065
0.0010170354
0.0010168224
0.001016574
0.0010162544
0.0010158604
0.0010153849
0.0010148207
0.001014157
0.001013376
0.001012447
0.0010113274
0.0010099813
0.0010083681
0.0010070263
0.0010058842
0.0010049628
0.0010043927
0.0010041346
0.0010036988
0.0010042242
3.0589039e-07
8.4860619e-06
1.7019565e-05
1.8205994e-05
1.3276571e-05
1.55389e-05
1.120526e-05
1.4212611e-05
1.2306268e-05
1.5810146e-05
1.5198125e-05
1.6469819e-05
1.591582e-05
1.5704855e-05
1.5405123e-05
1.5211707e-05
1.5092697e-05
1.5048233e-05
1.5073962e-05
1.5163228e-05
1.5316153e-05
1.5532856e-05
1.5812493e-05
1.6156263e-05
1.6565159e-05
1.7044403e-05
1.7599292e-05
1.8238627e-05
1.8974117e-05
1.9820786e-05
2.0793751e-05
2.1910849e-05
2.3196142e-05
2.4678817e-05
2.6396154e-05
2.8393097e-05
3.0724859e-05
3.345757e-05
3.6669977e-05
4.0460062e-05
4.4955345e-05
5.0298052e-05
5.6664029e-05
6.4272641e-05
7.3401766e-05
8.4372233e-05
9.7583682e-05
0.00011352977
0.00013281683
0.0001561902
0.00018455918
0.00021905185
0.00026105263
0.00031227201
0.00037481591
0.0004512855
0.00054490838
0.00065970554
0.00080069286
0.00097410949
0.0010165033
0.001016259
0.0010159797
0.0010156312
0.0010152088
0.0010147053
0.0010141134
0.0010134227
0.0010126159
0.001011663
0.0010105159
0.0010091504
0.0010076158
0.0010063478
0.0010052727
0.0010044153
0.0010038671
0.0010036043
0.0010034442
0.0010038455
2.8375021e-07
8.3556258e-06
1.636627e-05
1.7991641e-05
1.3074756e-05
1.3775452e-05
1.0566202e-05
1.2565399e-05
1.1348832e-05
1.4067209e-05
1.3971668e-05
1.4692924e-05
1.4329787e-05
1.4044358e-05
1.3795818e-05
1.3617955e-05
1.3514243e-05
1.3476811e-05
1.3503772e-05
1.3588657e-05
1.3731556e-05
1.393313e-05
1.4192756e-05
1.4512004e-05
1.4891881e-05
1.5337584e-05
1.5854139e-05
1.6449822e-05
1.7135445e-05
1.7925627e-05
1.8835294e-05
1.9881339e-05
2.1086802e-05
2.2479352e-05
2.4094658e-05
2.5975732e-05
2.817571e-05
3.0758805e-05
3.3801579e-05
3.7397008e-05
4.1669884e-05
4.6759588e-05
5.2837621e-05
6.0114712e-05
6.8865198e-05
7.9403857e-05
9.2121476e-05
0.00010750235
0.00012614153
0.00014877442
0.00017629521
0.00020981699
0.00025070588
0.00030065287
0.00036174255
0.00043655045
0.00052827316
0.00064089519
0.00077939194
0.00094995353
0.0010160064
0.0010157283
0.001015414
0.0010150327
0.0010145784
0.0010140438
0.0010134214
0.0010127009
0.0010118654
0.0010108869
0.0010097145
0.0010083179
0.001006881
0.0010056905
0.0010046877
0.0010038912
0.0010033616
0.0010031212
0.0010031668
0.001003342
2.5287157e-07
8.2838138e-06
1.585677e-05
1.7045973e-05
1.2972454e-05
1.2179671e-05
1.0634761e-05
1.1566548e-05
1.1004452e-05
1.2568344e-05
1.2867969e-05
1.312023e-05
1.2856855e-05
1.2539059e-05
1.2319594e-05
1.2157302e-05
1.206486e-05
1.2033185e-05
1.2060938e-05
1.2142181e-05
1.2276646e-05
1.246546e-05
1.2707999e-05
1.2929775e-05
1.3275486e-05
1.3684317e-05
1.4160571e-05
1.4711805e-05
1.5347747e-05
1.6082276e-05
1.6930085e-05
1.7907153e-05
1.9035571e-05
2.0341557e-05
2.1859276e-05
2.3629966e-05
2.57048e-05
2.8146102e-05
3.1028998e-05
3.4702276e-05
3.8793879e-05
4.3678564e-05
4.9525908e-05
5.6539204e-05
6.4990293e-05
7.5190827e-05
8.7525621e-05
0.00010247291
0.00012061963
0.0001426964
0.00016958748
0.0002023976
0.00024248218
0.00029152149
0.00035158979
0.00042525036
0.00051568458
0.00062685873
0.00076373019
0.00093247116
0.0010155408
0.0010152262
0.001014873
0.0010144554
0.0010139663
0.0010133977
0.0010127424
0.0010119901
0.0010111233
0.0010101168
0.0010089252
0.0010075061
0.0010061723
0.0010050623
0.0010041342
0.0010033959
0.0010028853
0.0010026646
0.0010028397
0.0010027819
2.2981899e-07
8.2444203e-06
1.542173e-05
1.5523573e-05
1.1935755e-05
1.0618561e-05
9.2318602e-06
1.0339677e-05
9.6982858e-06
1.129546e-05
1.1756095e-05
1.1674041e-05
1.1449583e-05
1.1139802e-05
1.0944004e-05
1.0801566e-05
1.0722676e-05
1.0699545e-05
1.0665903e-05
1.0730703e-05
1.0848688e-05
1.1020065e-05
1.1242716e-05
1.1516754e-05
1.1846387e-05
1.2234691e-05
1.2686215e-05
1.3208447e-05
1.3810568e-05
1.4506022e-05
1.5309694e-05
1.6237069e-05
1.7309778e-05
1.8553109e-05
2.0000332e-05
2.1691551e-05
2.3676736e-05
2.6017022e-05
2.8786989e-05
3.2077445e-05
3.5999097e-05
4.0692114e-05
4.6325977e-05
5.3545749e-05
6.1777769e-05
7.1735183e-05
8.3800065e-05
9.8447822e-05
0.00011626052
0.00013796955
0.00016445469
0.00019681932
0.00023641638
0.00028492489
0.0003444205
0.00041746868
0.00050725279
0.00061774099
0.00075389603
0.00092190436
0.0010151009
0.0010147471
0.001014352
0.0010138952
0.0010133686
0.0010127638
0.0010120734
0.0010112876
0.0010103881
0.0010093505
0.0010081447
0.00100673
0.0010054959
0.0010044684
0.0010036157
0.0010029338
0.0010024443
0.0010022332
0.0010024327
0.0010023131
2.1265282e-07
8.2039151e-06
1.4970675e-05
1.3593796e-05
9.8167624e-06
9.4401752e-06
7.6066617e-06
8.8154538e-06
8.996084e-06
1.0164209e-05
1.0624463e-05
1.0326431e-05
1.0119956e-05
9.8418694e-06
9.6702112e-06
9.4832693e-06
9.3950029e-06
9.3673471e-06
9.3934488e-06
9.4701204e-06
9.5930843e-06
9.7644391e-06
9.9827244e-06
1.0248111e-05
1.0564757e-05
1.0936613e-05
1.1368282e-05
1.1867281e-05
1.2442414e-05
1.3106676e-05
1.3875231e-05
1.47633e-05
1.5792333e-05
1.6986969e-05
1.8379914e-05
2.0010574e-05
2.1928178e-05
2.4193188e-05
2.6879498e-05
3.0077027e-05
3.3896706e-05
3.8476539e-05
4.3988579e-05
5.0632417e-05
5.8663966e-05
6.8401614e-05
8.0936591e-05
9.5418281e-05
0.00011305496
0.00013458405
0.00016088674
0.00019307206
0.00023249894
0.00028085482
0.0003402287
0.00041320309
0.00050298117
0.00061355384
0.00074991264
0.000918289
0.001014681
0.0010142857
0.0010138461
0.0010133476
0.0010127814
0.0010121387
0.0010114115
0.0010105907
0.0010096582
0.0010085869
0.0010073657
0.0010059929
0.0010048571
0.0010039125
0.0010031349
0.0010025084
0.0010020422
0.0010018369
0.0010020168
0.0010017997
1.946968e-07
8.163162e-06
1.3514044e-05
1.1842076e-05
7.9400033e-06
8.3856096e-06
6.7498967e-06
7.954226e-06
8.3279918e-06
9.0888598e-06
9.5010226e-06
9.0948223e-06
8.8944352e-06
8.5698475e-06
8.3891743e-06
8.2722007e-06
8.2163103e-06
8.2127472e-06
8.2551138e-06
8.3427578e-06
8.4720028e-06
8.6434714e-06
8.858654e-06
9.1175609e-06
9.4245779e-06
9.7840469e-06
1.0200721e-05
1.0682269e-05
1.1237258e-05
1.1878258e-05
1.2620768e-05
1.3480042e-05
1.4477575e-05
1.563762e-05
1.699264e-05
1.8581732e-05
2.0453816e-05
2.2669196e-05
2.5301986e-05
2.844241e-05
3.220136e-05
3.6716292e-05
4.2162212e-05
4.8738593e-05
5.6703373e-05
6.6376679e-05
7.8153259e-05
9.2496761e-05
0.00011100127
0.00013254017
0.00015888701
0.00019116349
0.0002307436
0.00027933345
0.00033904798
0.0004125025
0.00050293909
0.00061439424
0.00075191339
0.00092180288
0.0010142753
0.001013836
0.00101335
0.0010128081
0.0010122008
0.0010115189
0.0010107536
0.001009896
0.0010089307
0.0010078266
0.0010065811
0.0010052985
0.0010042589
0.001003397
0.0010026929
0.0010021229
0.0010016801
0.0010014725
0.0010016079
0.0010013682
1.7973199e-07
8.1174998e-06
1.0735125e-05
9.8492981e-06
6.5151397e-06
7.4640241e-06
6.1495966e-06
7.1438258e-06
7.785738e-06
8.1112728e-06
8.3968367e-06
7.8869068e-06
7.6400808e-06
7.4128183e-06
7.2779258e-06
7.1986316e-06
7.1700481e-06
7.1876197e-06
7.2453108e-06
7.3422001e-06
7.4764873e-06
7.6498524e-06
7.8638971e-06
8.1191264e-06
8.4200126e-06
8.7713276e-06
9.1780864e-06
9.6481649e-06
1.0190086e-05
1.0816069e-05
1.1482808e-05
1.2314168e-05
1.3281738e-05
1.4409367e-05
1.5729257e-05
1.7280233e-05
1.9110965e-05
2.1281649e-05
2.3866732e-05
2.695701e-05
3.0664336e-05
3.5402884e-05
4.0839007e-05
4.7415753e-05
5.5393204e-05
6.5094429e-05
7.6924836e-05
9.1358369e-05
0.00010899297
0.0001305744
0.00015845388
0.00019109635
0.00023115919
0.00028037795
0.0003409069
0.00041541098
0.00050719141
0.00062035532
0.00076002974
0.00093262516
0.0010138776
0.0010133922
0.0010128587
0.0010122721
0.0010116227
0.0010109008
0.0010100967
0.0010092009
0.0010082019
0.0010070725
0.0010057942
0.0010046477
0.0010037036
0.0010029233
0.0010022902
0.0010017802
0.0010013699
0.0010011495
0.0010012196
0.0010009819
1.6638579e-07
8.0707918e-06
8.4660701e-06
8.3533998e-06
5.7168651e-06
6.6082902e-06
5.6426365e-06
6.4339211e-06
7.2327002e-06
7.1970985e-06
7.1995336e-06
6.7657991e-06
6.563435e-06
6.3952272e-06
6.2992622e-06
6.2514338e-06
6.2470922e-06
6.2820449e-06
6.3529136e-06
6.4594059e-06
6.6001125e-06
6.7768138e-06
6.992001e-06
7.2466417e-06
7.5452916e-06
7.8591569e-06
8.2543746e-06
8.7122053e-06
9.2410332e-06
9.8526342e-06
1.0561195e-05
1.1385179e-05
1.2345401e-05
1.3465772e-05
1.4778785e-05
1.632365e-05
1.8149613e-05
2.0317633e-05
2.2903608e-05
2.6000201e-05
2.9721836e-05
3.4211529e-05
3.9644542e-05
4.6231105e-05
5.4235391e-05
6.4542194e-05
7.6538905e-05
9.1194929e-05
0.00010911814
0.00013107635
0.00015800819
0.00019287122
0.0002337536
0.00028400613
0.00034583644
0.0004219773
0.00051581082
0.00063154212
0.00077441186
0.00095096367
0.0010134821
0.0010129487
0.0010123673
0.0010117352
0.0010110431
0.0010102808
0.0010094381
0.0010085037
0.0010074682
0.0010063252
0.0010050701
0.0010040407
0.0010031928
0.0010024931
0.0010019266
0.0010014753
0.0010011055
0.0010008745
0.0010008671
0.0010006747
1.544461e-07
8.0138064e-06
6.7273956e-06
7.3279275e-06
5.0896114e-06
5.8418033e-06
5.2062148e-06
5.8038279e-06
6.5745487e-06
6.1602179e-06
6.1184771e-06
5.7841396e-06
5.6227426e-06
5.5022504e-06
5.4396045e-06
5.4187693e-06
5.435451e-06
5.4871766e-06
5.5710315e-06
5.687471e-06
5.835835e-06
6.0180426e-06
6.2106569e-06
6.4622437e-06
6.7574423e-06
7.1004255e-06
7.4982425e-06
7.9584401e-06
8.4896168e-06
9.1037448e-06
9.8151547e-06
1.0642082e-05
1.1606573e-05
1.273289e-05
1.4054061e-05
1.5610047e-05
1.7451192e-05
1.9639714e-05
2.2253651e-05
2.5388538e-05
2.9161562e-05
3.3718809e-05
3.9244333e-05
4.5953439e-05
5.4118256e-05
6.4077419e-05
7.6251795e-05
9.1150396e-05
0.00011036397
0.00013289096
0.00016053957
0.00019450721
0.0002385259
0.00029022678
0.00035385799
0.00043223997
0.00052885923
0.00064804774
0.00079519809
0.00097701936
0.0010130834
0.0010125006
0.0010118712
0.0010111936
0.0010104588
0.0010096564
0.0010087756
0.001007805
0.0010067322
0.00100557
0.0010044025
0.0010034813
0.0010027276
0.0010021075
0.0010016039
0.0010012028
0.0010008793
0.0010006504
0.0010005749
0.0010003894
1.4378843e-07
7.9426206e-06
5.3895805e-06
6.3957981e-06
4.5317296e-06
5.1596538e-06
4.8326482e-06
5.1617141e-06
5.748525e-06
5.2588113e-06
5.1692731e-06
4.9244312e-06
4.8016028e-06
4.7209294e-06
4.6878197e-06
4.6913125e-06
4.7276922e-06
4.7954951e-06
4.8926608e-06
5.0012767e-06
5.153119e-06
5.3386521e-06
5.5601379e-06
5.8205385e-06
6.1241243e-06
6.4754511e-06
6.8814925e-06
7.3504219e-06
7.891061e-06
8.5155404e-06
9.2383093e-06
1.0077824e-05
1.1006557e-05
1.2139696e-05
1.3469818e-05
1.50376e-05
1.6894683e-05
1.9104604e-05
2.1747579e-05
2.4922514e-05
2.8750363e-05
3.3634914e-05
3.9304888e-05
4.6199452e-05
5.4599795e-05
6.4853885e-05
7.7402225e-05
9.2775727e-05
0.00011162493
0.00013599466
0.00016459369
0.00019974728
0.00024298233
0.00029903131
0.00036497372
0.00044621527
0.0005463734
0.00066993605
0.00082249157
0.0010109587
0.0010126765
0.0010120438
0.0010113673
0.0010106445
0.0010098676
0.0010090259
0.0010081081
0.0010071046
0.0010060044
0.0010048155
0.0010037944
0.0010029727
0.0010023085
0.0010017664
0.0010013258
0.001000971
0.0010006871
0.0010004718
0.0010003678
0.0010001862
1.3427854e-07
7.8169664e-06
4.3681866e-06
5.565956e-06
4.0324014e-06
4.5516755e-06
4.5043483e-06
4.4641523e-06
4.9155961e-06
4.4542648e-06
4.3459671e-06
4.1747639e-06
4.0886307e-06
4.0423692e-06
4.0361019e-06
4.0620864e-06
4.1173167e-06
4.1844299e-06
4.2899871e-06
4.4255927e-06
4.5921058e-06
4.7910532e-06
5.0253876e-06
5.2982786e-06
5.6145637e-06
5.979064e-06
6.3988197e-06
6.8617133e-06
7.4125706e-06
8.0479729e-06
8.7824086e-06
9.6343464e-06
1.062637e-05
1.1786864e-05
1.3149698e-05
1.4756849e-05
1.6662249e-05
1.8931765e-05
2.1648723e-05
2.491694e-05
2.8862805e-05
3.3645642e-05
3.9458238e-05
4.65382e-05
5.5178446e-05
6.629158e-05
7.9321186e-05
9.5296601e-05
0.00011489955
0.00013897135
0.00017013277
0.0002067527
0.00025181002
0.00030726734
0.00037915099
0.00046387865
0.00056834192
0.00069721414
0.00085632337
0.0010129117
0.0010122571
0.0010115757
0.0010108535
0.0010100866
0.0010092685
0.0010083894
0.0010074369
0.0010064022
0.0010052925
0.001004154
0.0010032462
0.0010025177
0.0010019353
0.0010014674
0.0010010847
0.0010007732
0.001000523
0.0010003308
0.0010002077
0.0010000469
1.258376e-07
7.5004407e-06
3.6588424e-06
4.8289595e-06
3.5874048e-06
4.0124077e-06
3.9918212e-06
3.8326768e-06
4.1136695e-06
3.7426559e-06
3.6400046e-06
3.5274688e-06
3.4757389e-06
3.459841e-06
3.4781317e-06
3.5121844e-06
3.5794323e-06
3.6756808e-06
3.8001431e-06
3.9530736e-06
4.1359616e-06
4.3508572e-06
4.6011349e-06
4.8902527e-06
5.2115478e-06
5.5899823e-06
6.0241251e-06
6.5221203e-06
7.0942073e-06
7.7525841e-06
8.5121108e-06
9.3919963e-06
1.0415741e-05
1.1612794e-05
1.3019347e-05
1.4678895e-05
1.6648229e-05
1.8996282e-05
2.180976e-05
2.5198595e-05
2.9294165e-05
3.4263719e-05
4.0312467e-05
4.768851e-05
5.6701085e-05
6.772981e-05
8.1963634e-05
9.8667541e-05
0.00011917348
0.00014437323
0.0001753417
0.00021545654
0.00026266948
0.00032079983
0.00039238774
0.00048513956
0.00059467465
0.00072979697
0.00089660868
0.0010125152
0.0010118221
0.0010110952
0.0010103294
0.0010095201
0.0010086623
0.0010077477
0.0010067654
0.001005705
0.0010045798
0.0010035683
0.0010027626
0.0010021182
0.0010016074
0.0010012094
0.0010008847
0.0010006116
0.0010003827
0.0010002237
0.0010001157
0.00099998298
1.185404e-07
7.0904151e-06
3.2127203e-06
4.1751787e-06
3.190871e-06
3.3850761e-06
3.5376108e-06
3.2540458e-06
3.3889517e-06
3.124363e-06
3.0423257e-06
2.9761119e-06
2.9556286e-06
2.966842e-06
2.9926403e-06
3.0552501e-06
3.1456622e-06
3.2627019e-06
3.4064915e-06
3.5780165e-06
3.7793115e-06
4.0127076e-06
4.2736949e-06
4.5796347e-06
4.929722e-06
5.3296693e-06
5.7863438e-06
6.3081756e-06
6.9056066e-06
7.5916003e-06
8.3814815e-06
9.2952657e-06
1.0357507e-05
1.1599117e-05
1.3002427e-05
1.4711395e-05
1.674116e-05
1.9164235e-05
2.2203995e-05
2.5738669e-05
3.0015172e-05
3.5208651e-05
4.1537873e-05
4.9264148e-05
5.8712324e-05
7.028473e-05
8.4475184e-05
0.00010188999
0.00012437566
0.00015087583
0.00018345683
0.00022353385
0.00027543733
0.00033663312
0.00041200886
0.0005098116
0.00062516462
0.00076746237
0.00094311035
0.0010121029
0.0010113715
0.0010106026
0.0010097961
0.0010089472
0.0010080516
0.0010071032
0.0010060945
0.0010050268
0.0010039367
0.0010030543
0.0010023425
0.0010017748
0.001001325
0.0010009825
0.0010007168
0.0010004868
0.0010002746
0.0010001447
0.0010000708
0.00099997446
1.1265052e-07
6.1556408e-06
2.8311828e-06
3.5814463e-06
2.8467097e-06
2.8065487e-06
3.0857347e-06
2.7302998e-06
2.7671206e-06
2.5962213e-06
2.5416251e-06
2.512928e-06
2.5131026e-06
2.5417875e-06
2.6017586e-06
2.6889726e-06
2.8015666e-06
2.9393862e-06
3.1033061e-06
3.2947531e-06
3.5109997e-06
3.763086e-06
4.0511336e-06
4.3792162e-06
4.7522001e-06
5.175987e-06
5.6577533e-06
6.2062502e-06
6.8322398e-06
7.5325811e-06
8.3513514e-06
9.296936e-06
1.0394883e-05
1.1677203e-05
1.3183937e-05
1.4965153e-05
1.7082767e-05
1.9614307e-05
2.2655994e-05
2.6326746e-05
3.0774269e-05
3.6441195e-05
4.3090356e-05
5.1215941e-05
6.115953e-05
7.3345904e-05
8.8297731e-05
0.00010665867
0.00013040648
0.00015836433
0.00019275114
0.00023505889
0.00028992257
0.00035454378
0.00043415746
0.00053227993
0.0006594475
0.00080979604
0.00099536147
0.0010116768
0.001010907
0.0010100998
0.0010092561
0.0010083712
0.0010074409
0.001006462
0.0010054293
0.0010043544
0.0010033852
0.0010026075
0.0010019815
0.0010014843
0.0010010949
0.001000794
0.001000574
0.0010003864
0.0010001931
0.0010000877
0.0010000551
0.00099999999
1.0775638e-07
4.2863675e-06
2.4857748e-06
3.0310055e-06
2.4156138e-06
2.3215845e-06
2.612947e-06
2.2645352e-06
2.2499231e-06
2.1515764e-06
2.1273138e-06
2.1238352e-06
2.1518131e-06
2.2106689e-06
2.2963811e-06
2.4066406e-06
2.5408002e-06
2.6993877e-06
2.8810595e-06
3.0918866e-06
3.3329008e-06
3.6069666e-06
3.9175673e-06
4.2689358e-06
4.666174e-06
5.1154276e-06
5.624154e-06
6.1920744e-06
6.8454811e-06
7.5917493e-06
8.4481335e-06
9.436066e-06
1.058256e-05
1.1921541e-05
1.3495548e-05
1.5357607e-05
1.7573644e-05
2.0225706e-05
2.3415897e-05
2.7270953e-05
3.1947963e-05
3.7640681e-05
4.4920574e-05
5.3486459e-05
6.3976028e-05
7.6838307e-05
9.2626285e-05
0.00011202224
0.00013586769
0.00016668219
0.00020303912
0.00024778276
0.0003028727
0.00037420725
0.00045844275
0.00056227715
0.00069696126
0.00085613595
0.001012028
0.0010112388
0.001010432
0.0010095904
0.0010087131
0.0010077965
0.0010068354
0.001005829
0.0010047877
0.0010037463
0.0010029078
0.0010022246
0.0010016745
0.0010012364
0.0010009056
0.0010006428
0.0010004549
0.0010002952
0.0010001475
0.0010000506
0.0010000441
0.0010000197
1.0253347e-07
3.5349788e-06
2.1256782e-06
2.5251403e-06
2.0626368e-06
1.9163959e-06
2.1283907e-06
1.8565562e-06
1.8295602e-06
1.786197e-06
1.7881167e-06
1.8153903e-06
1.8748477e-06
1.9602402e-06
2.0692145e-06
2.2009104e-06
2.3555849e-06
2.5324092e-06
2.7361806e-06
2.9680294e-06
3.2304995e-06
3.5266718e-06
3.8602282e-06
4.2355631e-06
4.6579511e-06
5.1337568e-06
5.664374e-06
6.269184e-06
6.9555613e-06
7.7379546e-06
8.6345371e-06
9.6679966e-06
1.0866871e-05
1.2267044e-05
1.3913684e-05
1.5863358e-05
1.8186313e-05
2.0969636e-05
2.4321666e-05
2.8376351e-05
3.3300012e-05
3.9582822e-05
4.6970408e-05
5.6007634e-05
6.708133e-05
8.0666037e-05
9.7346566e-05
0.00011784431
0.00014437456
0.00017562577
0.00021407401
0.00026140349
0.00031969013
0.00039518002
0.00048433438
0.00059425616
0.00073690595
0.00090551305
0.0010116027
0.0010107905
0.0010099514
0.0010090796
0.0010081722
0.0010072278
0.0010062427
0.0010052125
0.001004159
0.0010032389
0.0010024976
0.001001899
0.0010014168
0.0010010311
0.0010007592
0.001000527
0.001000368
0.0010002318
0.0010001054
0.0010000355
0.0010000439
0.0010000331
9.8696945e-08
2.8225184e-06
1.8142689e-06
2.018748e-06
1.7705996e-06
1.5697659e-06
1.6816288e-06
1.5111021e-06
1.4987445e-06
1.4988486e-06
1.5273958e-06
1.5875569e-06
1.6734444e-06
1.7815892e-06
1.9110892e-06
2.0621721e-06
2.2347899e-06
2.4320844e-06
2.655638e-06
2.9077848e-06
3.1913136e-06
3.5094833e-06
3.8661105e-06
4.2657094e-06
4.7136895e-06
5.2130175e-06
5.777039e-06
6.4132372e-06
7.1336795e-06
7.9535068e-06
8.8919352e-06
9.9729772e-06
1.1226864e-05
1.269156e-05
1.4414815e-05
1.6456695e-05
1.8892299e-05
2.1813854e-05
2.5336556e-05
2.9602261e-05
3.501576e-05
4.1387294e-05
4.9170886e-05
5.869894e-05
7.0379116e-05
8.4713698e-05
0.00010232067
0.00012396278
0.00015193754
0.00018493489
0.00022554309
0.00027554241
0.00033713348
0.0004168725
0.00051111865
0.00062735366
0.00077821321
0.00095662771
0.0010111738
0.0010103375
0.0010094707
0.0010085735
0.0010076404
0.0010066701
0.001005666
0.0010046379
0.0010036181
0.0010028108
0.0010021529
0.0010016244
0.0010012031
0.001000871
0.0010006139
0.0010004358
0.0010002986
0.0010001821
0.0010000787
0.001000032
0.0010000511
0.0010000487
9.6444291e-08
2.2006085e-06
1.5434492e-06
1.537399e-06
1.5013617e-06
1.2735517e-06
1.3182468e-06
1.2354283e-06
1.2504888e-06
1.2813606e-06
1.3431399e-06
1.4291526e-06
1.536383e-06
1.6635064e-06
1.8107854e-06
1.9792368e-06
2.1697173e-06
2.3852243e-06
2.6275915e-06
2.8993743e-06
3.2035047e-06
3.5433588e-06
3.9228546e-06
4.3466032e-06
4.8201185e-06
5.3501025e-06
5.9448156e-06
6.6145239e-06
7.3635546e-06
8.2213225e-06
9.2022623e-06
1.0331797e-05
1.1641973e-05
1.3173028e-05
1.4975343e-05
1.7181716e-05
1.975179e-05
2.2837591e-05
2.6561787e-05
3.1075741e-05
3.6565916e-05
4.326167e-05
5.144641e-05
6.146907e-05
7.3759522e-05
8.8847718e-05
0.0001073859
0.00013131523
0.0001595569
0.0001943006
0.00023706685
0.00028973431
0.00035798345
0.00043855917
0.00053790763
0.00066048673
0.0008195321
0.0010078322
0.0010107512
0.0010098894
0.0010089972
0.0010080782
0.0010071265
0.0010061367
0.0010051089
0.0010040739
0.0010031812
0.0010024568
0.0010018707
0.0010013976
0.001001022
0.0010007461
0.0010005192
0.0010003563
0.0010002428
0.0010001417
0.0010000609
0.0010000364
0.0010000629
0.0010000572
9.6563428e-08
1.6707279e-06
1.3149205e-06
1.1690808e-06
1.2306563e-06
1.025679e-06
1.051539e-06
1.0316303e-06
1.0750065e-06
1.135267e-06
1.2210624e-06
1.3266142e-06
1.4508472e-06
1.593905e-06
1.7568476e-06
1.9411784e-06
2.1484254e-06
2.3811725e-06
2.6415984e-06
2.9323694e-06
3.2565019e-06
3.6174495e-06
4.0192143e-06
4.4665064e-06
4.9649648e-06
5.5214555e-06
6.1444708e-06
6.844629e-06
7.6352963e-06
8.5333761e-06
9.5602373e-06
1.0742949e-05
1.2115629e-05
1.3721189e-05
1.5613365e-05
1.7859207e-05
2.0542169e-05
2.3766097e-05
2.7659519e-05
3.2381553e-05
3.8128751e-05
4.5142917e-05
5.3719809e-05
6.422584e-05
7.7111158e-05
9.3700088e-05
0.0001132844
0.00013735418
0.00016695598
0.00020338264
0.00024822966
0.00030631793
0.00037489047
0.00045941783
0.00056368527
0.00069912136
0.00085927209
0.0010112229
0.0010103458
0.0010094592
0.0010085436
0.001007602
0.0010066332
0.0010056373
0.0010046185
0.0010036111
0.0010028184
0.0010021685
0.0010016456
0.0010012242
0.0010008809
0.0010006311
0.0010004433
0.0010002866
0.0010001947
0.0010001054
0.0010000459
0.0010000435
0.0010000788
0.0010000626
9.9856369e-08
1.2382957e-06
1.1256392e-06
8.9975154e-07
1.0730002e-06
8.2129575e-07
8.6842094e-07
8.9338086e-07
9.5949528e-07
1.0428338e-06
1.1460195e-06
1.2665873e-06
1.4049093e-06
1.5619779e-06
1.7392648e-06
1.9384918e-06
2.1616155e-06
2.4106698e-06
2.6882985e-06
2.9971447e-06
3.3402884e-06
3.7212544e-06
4.1441314e-06
4.6137382e-06
5.135853e-06
5.7175235e-06
6.3674852e-06
7.0967321e-06
7.9191472e-06
8.8523648e-06
9.9187028e-06
1.1146504e-05
1.2571527e-05
1.4238773e-05
1.6204604e-05
1.8539376e-05
2.1330563e-05
2.4686623e-05
2.8741716e-05
3.3661517e-05
3.9921127e-05
4.7290519e-05
5.6300961e-05
6.7336466e-05
8.0869048e-05
9.7480137e-05
0.00011788654
0.00014297229
0.000173825
0.00021377299
0.00026087309
0.00031887646
0.00039035311
0.00047849279
0.00059298817
0.00072830118
0.00089549842
0.0010108526
0.0010099632
0.0010090593
0.0010081268
0.0010071655
0.0010061743
0.0010051581
0.0010041432
0.0010032472
0.0010025229
0.0010019342
0.00100146
0.0010010822
0.0010007845
0.0010005523
0.0010003821
0.0010002268
0.0010001541
0.0010000718
0.0010000247
0.0010000373
0.0010000867
0.0010000725
1.0642923e-07
9.561405e-07
9.6055573e-07
7.6109258e-07
7.645746e-07
7.0041895e-07
7.458136e-07
8.0588098e-07
8.8923498e-07
9.8869248e-07
1.1049575e-06
1.2379323e-06
1.3886767e-06
1.5585087e-06
1.7490238e-06
1.9620018e-06
2.1994312e-06
2.4635257e-06
2.7567635e-06
3.0819327e-06
3.4421961e-06
3.8411807e-06
4.2831022e-06
4.7729416e-06
5.3166915e-06
5.9195674e-06
6.5936908e-06
7.349079e-06
8.2074792e-06
9.1757443e-06
1.0282231e-05
1.1556674e-05
1.3036555e-05
1.4768982e-05
1.6812909e-05
1.9241821e-05
2.2147003e-05
2.5641551e-05
2.9865248e-05
3.4990609e-05
4.1230312e-05
4.8846369e-05
5.8161256e-05
6.9570071e-05
8.3561118e-05
0.0001007351
0.00012291696
0.00014905128
0.00018118402
0.00022071779
0.00026938618
0.00032933801
0.00040323728
0.0004990922
0.00061243657
0.00075244042
0.00092554755
0.0010105174
0.0010096146
0.001008696
0.0010077532
0.0010067845
0.0010057883
0.0010047703
0.001003768
0.0010029581
0.0010022927
0.0010017539
0.0010013186
0.0010009685
0.0010006996
0.0010004878
0.0010003357
0.0010002138
0.0010001219
0.0010000487
0.0010000049
0.0010000143
0.0010000575
0.0010000521
1.2095967e-07
9.6074157e-07
8.0138627e-07
5.6417864e-07
6.0750777e-07
6.1048571e-07
6.7408783e-07
7.5292342e-07
8.4977571e-07
9.6139486e-07
1.0887701e-06
1.2327252e-06
1.3945529e-06
1.5756651e-06
1.7776822e-06
2.0024079e-06
2.251858e-06
2.5282866e-06
2.8342223e-06
3.1725124e-06
3.5463846e-06
3.9595335e-06
4.4162446e-06
4.9215713e-06
5.4815877e-06
6.1037333e-06
6.7972717e-06
7.5738794e-06
8.4483925e-06
9.439699e-06
1.0571813e-05
1.1875221e-05
1.3388404e-05
1.515974e-05
1.7249748e-05
1.9733829e-05
2.2705593e-05
2.6280902e-05
3.060283e-05
3.5847746e-05
4.2232918e-05
5.038426e-05
5.9988507e-05
7.1747598e-05
8.6163814e-05
0.00010385471
0.00012558202
0.00015228578
0.00018512706
0.00022553957
0.00027530167
0.00033972406
0.00041586982
0.00050980027
0.00062577852
0.00076912692
0.00094649145
0.0010102445
0.0010093248
0.0010083881
0.00100743
0.00100645
0.001005449
0.0010044399
0.0010034881
0.0010027359
0.0010021173
0.0010016174
0.0010012146
0.0010008907
0.0010006439
0.0010004485
0.0010002994
0.0010001905
0.0010001044
0.0010000379
0.0010000011
0.001000009
0.0010000444
0.0010000402
1.1090236e-07
6.192717e-07
6.3526115e-07
4.6720004e-07
5.0971038e-07
5.5550167e-07
6.3420506e-07
7.266648e-07
8.3418979e-07
9.5611161e-07
1.0935057e-06
1.2474247e-06
1.4191874e-06
1.6102596e-06
1.8222943e-06
2.057141e-06
2.3168702e-06
2.6037658e-06
2.9204676e-06
3.2698722e-06
3.6552765e-06
4.0804455e-06
4.5497366e-06
5.0682784e-06
5.6422275e-06
6.2791195e-06
6.9883371e-06
7.781716e-06
8.6814036e-06
9.6956021e-06
1.0853681e-05
1.2186892e-05
1.3734627e-05
1.5546362e-05
1.7683936e-05
2.022434e-05
2.32631e-05
2.691841e-05
3.1336202e-05
3.6696364e-05
4.3220356e-05
5.1180504e-05
6.0911426e-05
7.282595e-05
8.7431711e-05
0.00010535454
0.00012736643
0.00015577566
0.00018929294
0.00023052757
0.00028129452
0.00034384256
0.00042096656
0.00051614632
0.00063372381
0.00077912888
0.00095914996
0.0010100626
0.0010091296
0.0010081766
0.0010072015
0.001006205
0.001005192
0.0010041866
0.0010032945
0.0010025789
0.001001994
0.0010015216
0.0010011422
0.0010008406
0.0010006039
0.001000423