/*--------------------------------*- C++ -*----------------------------------*\
  =========                 |
  \\      /  F ield         | OpenFOAM: The Open Source CFD Toolbox
   \\    /   O peration     | Website:  https://openfoam.org
    \\  /    A nd           | Version:  12
     \\/     M anipulation  |
\*---------------------------------------------------------------------------*/
FoamFile
{
    format      ascii;
    class       volScalarField;
    location    "0.119";
    object      rho;
}
// * * * * * * * * * * * * * * * * * * * * * * * * * * * * * * * * * * * * * //

dimensions      [1 -3 0 0 0 0 0];

internalField   nonuniform List<scalar> 
16000
(
1.0578269
1.0904029
1.0783201
1.0865514
1.0827321
1.0861509
1.0851799
1.0869911
1.0871391
1.0883413
1.0889902
1.0899995
1.0908734
1.0918656
1.0928572
1.0939006
1.0949762
1.0960914
1.0972446
1.0984366
1.0996673
1.1009368
1.1022449
1.103591
1.1049747
1.106395
1.1078507
1.1093405
1.1108628
1.1124154
1.1139963
1.1156029
1.1172324
1.1188816
1.1205472
1.1222258
1.1239134
1.1256061
1.1272997
1.1289901
1.1306729
1.1323438
1.1339986
1.1356331
1.1372431
1.1388249
1.1403747
1.1418891
1.1433649
1.1447994
1.1461899
1.1475342
1.1488304
1.150077
1.1512726
1.1524164
1.1535076
1.1545457
1.1555306
1.1564623
1.1573409
1.1581665
1.1589397
1.1596611
1.1603311
1.1609507
1.1615205
1.1620416
1.162515
1.1629419
1.1633234
1.1636614
1.1639585
1.1642168
1.1644362
1.1646227
1.1648599
1.1646397
1.1655246
1.164135
1.0545543
1.0876446
1.0749465
1.0837353
1.0796886
1.0833741
1.0823013
1.0842828
1.0844235
1.0857271
1.0864273
1.0875113
1.0884588
1.0895249
1.0905967
1.0917208
1.0928811
1.0940834
1.0953266
1.0966112
1.0979369
1.0993037
1.100711
1.1021581
1.1036439
1.1051673
1.1067268
1.1083204
1.1099461
1.1116013
1.1132834
1.1149892
1.1167155
1.1184586
1.1202146
1.1219794
1.1237487
1.1255181
1.127283
1.1290388
1.130781
1.132505
1.1342065
1.1358811
1.137525
1.1391343
1.1407055
1.1422356
1.1437217
1.1451615
1.1465527
1.1478937
1.1491831
1.1504198
1.1516032
1.1527327
1.1538082
1.1548296
1.1557972
1.1567113
1.1575724
1.1583811
1.1591381
1.159844
1.1604997
1.161106
1.1616637
1.1621738
1.1626374
1.1630556
1.1634296
1.163761
1.164052
1.1643037
1.1645185
1.1647186
1.1648649
1.1648612
1.1654204
1.1642992
1.0515786
1.0851208
1.0720793
1.081139
1.0769511
1.0808381
1.0797368
1.0818382
1.0820205
1.0834073
1.0841814
1.0853421
1.0863752
1.0875242
1.0886864
1.0899016
1.0911571
1.0924571
1.0938007
1.095188
1.0966186
1.0980919
1.0996072
1.1011632
1.1027587
1.104392
1.106061
1.1077634
1.1094965
1.1112574
1.1130426
1.1148486
1.1166713
1.1185065
1.1203497
1.1221963
1.1240414
1.1258801
1.1277076
1.1295188
1.1313091
1.1330737
1.1348082
1.1365085
1.1381708
1.1397916
1.1413677
1.1428966
1.1443759
1.1458037
1.1471785
1.1484993
1.1497653
1.150976
1.1521314
1.1532314
1.1542766
1.1552673
1.1562043
1.1570883
1.1579201
1.1587006
1.1594307
1.1601113
1.1607433
1.1613277
1.1618654
1.1623573
1.1628044
1.1632079
1.1635689
1.1638889
1.1641694
1.1644113
1.1646217
1.1648116
1.1649289
1.1650216
1.1653797
1.1644348
1.0489235
1.0828359
1.0693768
1.0788036
1.0744802
1.0785983
1.0774741
1.0797131
1.0799464
1.0814292
1.0822911
1.0835402
1.0846733
1.0859182
1.0871839
1.0885032
1.0898664
1.0912761
1.0927315
1.0942324
1.0957781
1.0973678
1.0990004
1.1006742
1.1023875
1.1041381
1.1059234
1.1077405
1.109586
1.1114562
1.1133471
1.1152543
1.1171731
1.1190986
1.1210255
1.1229487
1.1248627
1.1267623
1.128642
1.1304968
1.1323219
1.1341124
1.1358642
1.1375733
1.1392363
1.1408501
1.1424123
1.1439208
1.1453739
1.1467705
1.1481099
1.1493917
1.1506158
1.1517827
1.1528928
1.1539468
1.1549457
1.1558905
1.1567824
1.1576225
1.158412
1.159152
1.1598438
1.1604883
1.1610866
1.1616398
1.1621486
1.1626142
1.1630373
1.1634192
1.1637607
1.1640633
1.1643278
1.1645557
1.1647552
1.1649268
1.1650328
1.1651545
1.1653806
1.164569
1.0466289
1.0809237
1.0670715
1.0767926
1.0723301
1.0767188
1.0755851
1.0779671
1.0782725
1.0798584
1.0808265
1.0821736
1.0834201
1.0847716
1.0861515
1.0875849
1.0890652
1.0905939
1.0921704
1.0937941
1.0954642
1.0971793
1.0989379
1.1007378
1.1025768
1.1044519
1.1063597
1.1082965
1.1102583
1.1122403
1.1142376
1.1162451
1.1182571
1.120268
1.1222718
1.1242628
1.126235
1.1281827
1.1301004
1.1319829
1.1338253
1.1356231
1.1373725
1.13907
1.1407127
1.1422983
1.1438251
1.1452918
1.1466977
1.1480425
1.1493263
1.1505497
1.1517134
1.1528185
1.1538663
1.1548582
1.1557956
1.1566802
1.1575135
1.1582971
1.1590324
1.1597209
1.160364
1.1609628
1.1615184
1.162032
1.1625043
1.1629363
1.1633289
1.1636829
1.1639994
1.1642792
1.164523
1.1647329
1.1649158
1.1650664
1.1651634
1.1652882
1.1654154
1.1647195
1.0447398
1.0794011
1.0652053
1.075228
1.0706733
1.0752725
1.0741285
1.0766726
1.0770677
1.0787613
1.0798482
1.0812969
1.0826638
1.0841286
1.0856297
1.0871859
1.0887925
1.0904504
1.0921588
1.0939165
1.0957222
1.0975739
1.0994693
1.1014056
1.1033795
1.1053872
1.1074242
1.1094859
1.1115671
1.1136621
1.1157649
1.1178694
1.119969
1.1220573
1.1241278
1.1261739
1.1281895
1.1301686
1.1321056
1.1339955
1.1358337
1.1376163
1.1393399
1.1410019
1.1426003
1.1441338
1.1456015
1.1470033
1.1483394
1.1496106
1.1508181
1.1519633
1.1530478
1.1540736
1.1550425
1.1559567
1.1568181
1.1576289
1.158391
1.1591063
1.1597765
1.1604033
1.1609881
1.1615324
1.1620372
1.1625035
1.1629322
1.1633241
1.16368
1.1640006
1.1642866
1.1645388
1.1647575
1.1649452
1.1651064
1.1652337
1.165319
1.1654321
1.1654799
1.1648886
1.0432565
1.0782785
1.0637702
1.0741289
1.0694829
1.0742875
1.073189
1.0758615
1.0763606
1.0781425
1.0793549
1.0809091
1.0824064
1.083997
1.0856331
1.0873275
1.0890766
1.09088
1.0927366
1.0946443
1.096601
1.0986039
1.1006496
1.1027342
1.1048533
1.1070019
1.1091744
1.1113648
1.1135666
1.1157731
1.1179772
1.1201715
1.1223488
1.1245017
1.1266232
1.1287065
1.1307452
1.1327333
1.1346656
1.1365375
1.1383452
1.1400854
1.141756
1.1433553
1.1448824
1.1463373
1.1477204
1.1490327
1.1502758
1.1514514
1.1525618
1.1536094
1.1545967
1.1555263
1.1564009
1.157223
1.1579953
1.1587202
1.1593998
1.1600365
1.1606321
1.1611884
1.1617069
1.162189
1.1626359
1.1630486
1.1634277
1.1637739
1.1640878
1.16437
1.1646211
1.1648414
1.1650312
1.1651927
1.165328
1.1654303
1.1655005
1.1655892
1.1655746
1.1650812
1.0421192
1.0775001
1.0627053
1.0734436
1.0687024
1.0737276
1.0726613
1.0755263
1.0760546
1.0779494
1.0793206
1.0810063
1.0826601
1.0844022
1.0861973
1.0880532
1.0899672
1.0919379
1.0939632
1.0960403
1.098166
1.1003363
1.1025466
1.1047917
1.1070656
1.109362
1.1116739
1.1139937
1.1163137
1.1186257
1.1209214
1.1231927
1.1254314
1.1276296
1.1297799
1.1318756
1.1339103
1.1358788
1.1377763
1.1395993
1.141345
1.1430115
1.1445979
1.1461041
1.1475307
1.148879
1.1501509
1.1513488
1.1524755
1.1535339
1.1545274
1.1554591
1.1563325
1.1571508
1.1579173
1.1586349
1.1593067
1.1599353
1.1605232
1.1610727
1.1615858
1.1620644
1.16251
1.162924
1.1633073
1.163661
1.1639856
1.1642815
1.1645492
1.1647891
1.1650013
1.1651861
1.1653439
1.1654759
1.1655821
1.1656581
1.1657107
1.1657654
1.1656999
1.1653006
1.0413214
1.0770509
1.0619927
1.0731904
1.0682678
1.0734596
1.072481
1.075394
1.0762199
1.0782587
1.079819
1.0816611
1.0834965
1.0854162
1.0873953
1.0894378
1.0915409
1.093702
1.095918
1.0981848
1.1004977
1.1028514
1.1052395
1.1076552
1.1100909
1.1125383
1.1149888
1.1174333
1.1198625
1.122267
1.1246373
1.1269646
1.12924
1.1314557
1.1336043
1.1356794
1.1376755
1.1395883
1.1414145
1.1431519
1.1447994
1.1463568
1.147825
1.1492056
1.150501
1.1517142
1.1528486
1.1539079
1.1548962
1.1558175
1.156676
1.1574758
1.1582209
1.1589151
1.1595621
1.1601651
1.1607274
1.1612517
1.1617407
1.1621966
1.1626215
1.1630171
1.1633849
1.1637262
1.1640419
1.1643328
1.1645993
1.1648416
1.1650599
1.1652543
1.1654248
1.1655715
1.1656948
1.1657945
1.1658693
1.1659186
1.1659504
1.1659639
1.1658583
1.1655527
1.0408941
1.0769631
1.0616678
1.0732924
1.0682294
1.0736909
1.0728435
1.0759456
1.0769618
1.079148
1.0809273
1.0829537
1.0849977
1.0871237
1.0893145
1.0915707
1.0938887
1.0962647
1.0986937
1.1011702
1.1036877
1.1062386
1.1088149
1.1114073
1.1140063
1.1166016
1.1191827
1.1217388
1.1242591
1.1267331
1.1291507
1.1315025
1.1337796
1.1359747
1.138081
1.1400934
1.1420079
1.1438218
1.1455339
1.1471441
1.1486533
1.1500636
1.1513781
1.1526002
1.1537343
1.154785
1.1557572
1.1566559
1.1574863
1.1582534
1.158962
1.1596169
1.1602225
1.1607829
1.161302
1.1617832
1.1622297
1.1626444
1.1630297
1.1633879
1.1637209
1.1640303
1.1643175
1.1645834
1.164829
1.1650547
1.1652609
1.1654475
1.1656145
1.1657615
1.1658884
1.1659953
1.1660822
1.1661477
1.16619
1.1662127
1.16622
1.166187
1.1660531
1.1658405
1.040904
1.0773064
1.0617831
1.0736105
1.0686787
1.074413
1.0737862
1.0770508
1.0783353
1.0806967
1.0827297
1.0849746
1.087258
1.0896224
1.092055
1.094554
1.0971142
1.0997299
1.1023941
1.1050989
1.1078353
1.1105934
1.1133624
1.1161307
1.1188862
1.1216165
1.1243091
1.1269518
1.1295326
1.1320402
1.1344644
1.1367961
1.1390273
1.1411517
1.1431646
1.1450628
1.1468447
1.1485103
1.1500608
1.1514989
1.1528283
1.1540533
1.1551792
1.1562118
1.1571569
1.1580209
1.1588098
1.1595299
1.160187
1.1607868
1.1613347
1.1618356
1.1622942
1.1627147
1.163101
1.1634563
1.1637839
1.1640864
1.164366
1.1646249
1.1648647
1.1650867
1.1652922
1.165482
1.1656566
1.1658164
1.1659615
1.1660917
1.1662065
1.1663054
1.1663879
1.1664542
1.1665038
1.1665341
1.1665441
1.1665408
1.1665201
1.1664382
1.1662871
1.1661645
1.0414343
1.0781558
1.0624385
1.0745535
1.0697952
1.0757741
1.0754011
1.0788422
1.0804391
1.0830036
1.0853242
1.0878257
1.0903827
1.0930205
1.0957283
1.0985014
1.1013323
1.1042126
1.1071324
1.1100806
1.1130451
1.1160128
1.1189697
1.1219016
1.1247938
1.1276318
1.1304015
1.1330894
1.1356833
1.1381721
1.1405462
1.1427981
1.1449219
1.1469138
1.1487721
1.1504967
1.1520894
1.1535535
1.1548934
1.1561148
1.1572242
1.1582284
1.1591349
1.1599512
1.1606847
1.161343
1.161933
1.1624615
1.1629351
1.1633597
1.1637406
1.1640831
1.1643915
1.1646699
1.1649221
1.165151
1.1653596
1.1655502
1.1657248
1.1658851
1.1660326
1.1661683
1.166293
1.1664075
1.166512
1.1666067
1.1666913
1.1667656
1.1668288
1.1668799
1.1669185
1.1669445
1.1669566
1.1669516
1.1669307
1.1669026
1.166851
1.166721
1.1665643
1.166526
1.0424814
1.0795182
1.0636342
1.076169
1.0715688
1.0777882
1.077752
1.0813855
1.0833556
1.0861655
1.0888144
1.0916185
1.0944905
1.0974423
1.1004629
1.1035438
1.1066741
1.1098414
1.113032
1.1162308
1.1194219
1.1225883
1.1257131
1.1287789
1.1317689
1.134667
1.1374582
1.140129
1.142668
1.1450658
1.1473155
1.1494126
1.1513549
1.1531428
1.1547784
1.1562662
1.1576117
1.158822
1.1599051
1.1608696
1.1617244
1.1624788
1.1631417
1.163722
1.1642284
1.1646688
1.1650508
1.1653815
1.1656673
1.1659142
1.1661272
1.1663114
1.1664707
1.1666089
1.1667293
1.1668345
1.166927
1.1670088
1.1670815
1.1671464
1.1672046
1.1672568
1.1673036
1.1673454
1.1673821
1.1674138
1.16744
1.1674602
1.1674733
1.1674783
1.1674745
1.1674614
1.1674368
1.1673977
1.1673484
1.1672968
1.1672119
1.1670368
1.1668866
1.1669294
1.0440972
1.0814431
1.0654278
1.078406
1.0740789
1.0805511
1.0809414
1.0847923
1.0871974
1.0903079
1.0933331
1.096494
1.0997297
1.1030409
1.1064138
1.1098348
1.113288
1.1167562
1.1202208
1.123662
1.1270595
1.1303928
1.1336415
1.1367861
1.1398082
1.1426915
1.1454218
1.1479879
1.1503813
1.1525966
1.1546317
1.1564872
1.1581662
1.1596743
1.1610189
1.1622088
1.163254
1.1641652
1.1649533
1.1656294
1.1662045
1.1666893
1.1670939
1.1674277
1.1676998
1.1679183
1.1680908
1.168224
1.168324
1.1683962
1.1684455
1.168476
1.1684915
1.168495
1.1684893
1.1684765
1.1684586
1.1684371
1.1684131
1.1683877
1.1683615
1.1683349
1.1683081
1.1682812
1.1682539
1.168226
1.168197
1.1681659
1.1681317
1.1680932
1.1680495
1.1679995
1.16794
1.1678692
1.1677948
1.1677211
1.1676017
1.1673878
1.1672566
1.1673747
1.0463421
1.0839902
1.0679297
1.0813958
1.0774281
1.0841634
1.0850848
1.0891952
1.0921064
1.0955916
1.0990535
1.102634
1.1062868
1.1100027
1.1137623
1.1175459
1.1213317
1.1250965
1.1288161
1.1324656
1.1360202
1.1394561
1.1427505
1.1458834
1.1488372
1.1515982
1.1541562
1.1565051
1.1586425
1.1605697
1.1622915
1.163815
1.16515
1.1663077
1.1673006
1.168142
1.1688454
1.1694243
1.1698919
1.1702609
1.1705434
1.1707505
1.1708926
1.1709792
1.171019
1.1710197
1.1709883
1.1709308
1.1708527
1.1707587
1.1706528
1.1705385
1.1704189
1.1702963
1.1701729
1.1700503
1.1699299
1.1698126
1.1696992
1.1695902
1.1694859
1.1693865
1.1692916
1.1692012
1.1691148
1.1690318
1.1689516
1.1688732
1.1687953
1.1687168
1.1686366
1.1685526
1.1684611
1.1683622
1.1682663
1.1681714
1.1680188
1.1677777
1.1676766
1.1678534
1.049274
1.0871919
1.071266
1.0852091
1.0817365
1.0887609
1.0903458
1.0947901
1.0982903
1.1022393
1.106205
1.1102668
1.1143844
1.1185387
1.1227036
1.1268516
1.1309538
1.1349798
1.1388991
1.1426819
1.1463
1.1497282
1.152945
1.1559332
1.1586806
1.1611804
1.1634305
1.1654333
1.1671955
1.1687271
1.1700407
1.1711508
1.1720734
1.1728248
1.1734219
1.1738811
1.1742182
1.1744484
1.1745858
1.1746435
1.1746337
1.174567
1.1744535
1.1743018
1.1741197
1.173914
1.1736908
1.1734551
1.1732115
1.1729637
1.1727149
1.1724678
1.1722246
1.171987
1.1717565
1.1715341
1.1713206
1.1711165
1.1709221
1.1707375
1.1705627
1.1703973
1.1702409
1.1700931
1.1699532
1.1698205
1.169694
1.1695728
1.1694555
1.1693412
1.1692284
1.1691141
1.1689943
1.1688717
1.1687581
1.1686424
1.1684598
1.1682071
1.1681452
1.1683521
1.0529619
1.0910563
1.0755648
1.0899941
1.0872072
1.0945863
1.0969843
1.1018569
1.1060266
1.1105266
1.1150562
1.1196485
1.124262
1.1288667
1.1334267
1.1379047
1.1422625
1.1464625
1.150469
1.15425
1.1577785
1.1610333
1.1639999
1.1666708
1.1690444
1.1711255
1.1729237
1.1744526
1.175729
1.1767719
1.1776014
1.1782382
1.1787029
1.1790156
1.1791953
1.17926
1.1792263
1.1791094
1.1789232
1.1786799
1.1783907
1.1780653
1.1777123
1.1773393
1.1769526
1.176558
1.17616
1.1757629
1.17537
1.1749839
1.1746071
1.1742413
1.1738879
1.173548
1.1732223
1.1729113
1.1726152
1.1723342
1.172068
1.1718165
1.1715792
1.1713555
1.1711447
1.1709461
1.1707589
1.1705822
1.1704149
1.1702559
1.1701041
1.1699584
1.1698173
1.1696767
1.1695332
1.1693923
1.1692642
1.169128
1.1689193
1.1686704
1.1686544
1.168859
1.0575928
1.0957253
1.081053
1.096077
1.0941717
1.1019684
1.1053218
1.1107179
1.1156252
1.1207545
1.1258973
1.1310505
1.1361629
1.1411891
1.1460802
1.1507876
1.1552653
1.1594722
1.1633738
1.1669442
1.1701662
1.1730315
1.1755406
1.1777012
1.1795276
1.1810387
1.182257
1.1832073
1.1839153
1.184407
1.184708
1.1848425
1.1848335
1.1847021
1.1844678
1.1841479
1.1837583
1.1833128
1.1828239
1.1823021
1.1817569
1.1811964
1.1806274
1.180056
1.1794871
1.1789248
1.1783727
1.1778336
1.1773096
1.1768027
1.1763141
1.1758448
1.1753956
1.1749667
1.1745584
1.1741705
1.1738029
1.1734551
1.1731268
1.1728173
1.1725258
1.1722516
1.1719937
1.1717512
1.1715232
1.1713084
1.1711059
1.1709144
1.1707331
1.1705609
1.1703956
1.170233
1.1700711
1.1699174
1.1697781
1.1696221
1.1693914
1.1691573
1.1691922
1.1693766
1.0634493
1.1017685
1.0881299
1.1037968
1.1029758
1.1112298
1.115686
1.1217238
1.1274386
1.1332677
1.1390515
1.1447518
1.1502999
1.1556329
1.1606901
1.1654177
1.1697718
1.1737197
1.1772414
1.1803291
1.1829861
1.1852256
1.1870683
1.1885408
1.1896735
1.1904989
1.19105
1.1913597
1.1914592
1.1913782
1.191144
1.1907814
1.1903129
1.1897584
1.1891357
1.1884602
1.1877455
1.1870031
1.1862432
1.1854742
1.1847035
1.1839371
1.1831802
1.1824369
1.1817107
1.1810043
1.18032
1.1796593
1.1790236
1.1784136
1.1778299
1.1772727
1.176742
1.1762376
1.1757591
1.175306
1.1748776
1.1744733
1.1740922
1.1737335
1.1733961
1.1730791
1.1727813
1.1725017
1.1722391
1.1719923
1.1717602
1.1715416
1.1713357
1.1711415
1.1709562
1.170776
1.170601
1.1704398
1.1702926
1.170119
1.1698722
1.1696597
1.1697458
1.1699194
1.0707219
1.1097361
1.096997
1.1133755
1.1139844
1.1227848
1.1285114
1.1353414
1.1419202
1.1484682
1.1548368
1.1609537
1.1667348
1.1721091
1.1770192
1.1814246
1.1853022
1.1886458
1.1914643
1.193779
1.1956205
1.1970263
1.1980376
1.198697
1.1990474
1.1991297
1.1989828
1.1986422
1.1981405
1.1975066
1.1967663
1.1959421
1.1950536
1.1941179
1.1931495
1.1921609
1.1911625
1.1901632
1.1891705
1.1881905
1.1872282
1.1862878
1.1853725
1.1844849
1.183627
1.1828003
1.1820057
1.1812439
1.1805151
1.1798195
1.1791568
1.1785265
1.1779282
1.177361
1.1768242
1.1763169
1.1758381
1.1753867
1.1749618
1.1745621
1.1741866
1.173834
1.1735032
1.1731929
1.1729018
1.1726287
1.1723723
1.1721316
1.171906
1.171694
1.1714928
1.1712993
1.1711162
1.1709515
1.1707987
1.1706121
1.1703605
1.1701768
1.1703051
1.1704656
1.0795365
1.1194813
1.1082491
1.1253586
1.1278374
1.1373201
1.1444404
1.1521621
1.159552
1.166673
1.1733736
1.1795652
1.1851706
1.190139
1.1944448
1.1980859
1.2010805
1.2034627
1.205278
1.2065791
1.2074221
1.2078636
1.2079586
1.2077587
1.2073114
1.2066597
1.2058416
1.2048908
1.2038363
1.2027034
1.2015135
1.200285
1.1990331
1.1977709
1.1965092
1.1952569
1.1940214
1.1928087
1.1916234
1.1904696
1.1893502
1.1882674
1.1872228
1.1862177
1.1852526
1.1843281
1.1834439
1.1825999
1.1817957
1.1810305
1.1803036
1.1796139
1.1789606
1.1783424
1.1777582
1.1772067
1.1766868
1.1761971
1.1757364
1.1753034
1.1748968
1.1745153
1.1741576
1.1738224
1.1735083
1.173214
1.1729383
1.1726803
1.1724393
1.1722135
1.1720001
1.1717975
1.1716102
1.1714445
1.1712874
1.171094
1.170852
1.1707048
1.1708556
1.170979
1.0906298
1.131913
1.122785
1.1406851
1.1454782
1.1557238
1.1641686
1.1726592
1.1805412
1.1877904
1.1942829
1.1999584
1.2047889
1.2087809
1.2119681
1.2144047
1.2161584
1.2173037
1.2179176
1.2180751
1.2178469
1.2172978
1.2164858
1.2154623
1.2142716
1.2129521
1.2115364
1.2100519
1.2085217
1.2069651
1.2053981
1.2038337
1.2022827
1.2007538
1.1992541
1.197789
1.1963629
1.1949792
1.1936404
1.1923482
1.1911039
1.1899081
1.1887611
1.1876628
1.1866129
1.1856108
1.1846557
1.1837465
1.1828824
1.1820619
1.1812839
1.180547
1.1798498
1.1791909
1.1785687
1.177982
1.1774291
1.1769087
1.1764193
1.1759596
1.1755281
1.1751235
1.1747444
1.1743894
1.1740572
1.1737463
1.1734557
1.1731845
1.1729317
1.1726955
1.1724734
1.1722654
1.1720769
1.1719112
1.1717507
1.1715561
1.1713343
1.1712262
1.1713792
1.1714452
1.1055552
1.1481234
1.141872
1.1604178
1.1678675
1.1787618
1.1880514
1.1967448
1.2043971
1.2109861
1.2164768
1.2208931
1.2242941
1.2267659
1.2284091
1.2293306
1.2296361
1.2294255
1.2287898
1.2278101
1.2265568
1.2250906
1.2234627
1.221716
1.2198864
1.2180033
1.2160908
1.2141687
1.2122529
1.2103562
1.2084889
1.2066591
1.204873
1.2031356
1.2014504
1.1998201
1.1982465
1.1967307
1.1952733
1.1938744
1.1925337
1.1912508
1.1900248
1.1888546
1.1877391
1.186677
1.1856668
1.1847071
1.1837962
1.1829327
1.1821148
1.1813408
1.1806092
1.1799182
1.1792663
1.1786516
1.1780728
1.1775281
1.1770161
1.1765353
1.1760842
1.1756613
1.1752654
1.174895
1.1745486
1.174225
1.1739232
1.1736422
1.1733808
1.1731372
1.1729093
1.1726988
1.1725108
1.1723454
1.1721823
1.1719902
1.1717911
1.1717154
1.1718596
1.1718818
1.125793
1.1694049
1.1669343
1.1855732
1.1953863
1.2063955
1.2155104
1.2233246
1.2296734
1.2346235
1.2382701
1.2407503
1.2422161
1.2428221
1.242715
1.2420284
1.2408796
1.2393696
1.2375834
1.2355916
1.2334522
1.2312127
1.228911
1.2265779
1.224238
1.2219104
1.2196105
1.2173503
1.2151388
1.212983
1.2108882
1.2088581
1.2068952
1.2050014
1.2031773
1.2014235
1.1997396
1.1981251
1.196579
1.1951003
1.1936875
1.1923392
1.1910537
1.1898293
1.1886642
1.1875566
1.1865045
1.1855062
1.1845596
1.183663
1.1828143
1.1820117
1.1812535
1.1805376
1.1798624
1.179226
1.1786268
1.1780632
1.1775334
1.1770361
1.1765696
1.1761326
1.1757235
1.1753412
1.174984
1.1746509
1.1743407
1.1740526
1.1737852
1.1735365
1.1733055
1.1730945
1.1729078
1.1727425
1.172578
1.1723915
1.1722152
1.1721662
1.1723024
1.1722968
1.1539314
1.1965505
1.1990705
1.2170424
1.227226
1.2370255
1.244569
1.2502517
1.2542008
1.256654
1.2578459
1.2580071
1.2573445
1.2560384
1.2542403
1.2520751
1.249644
1.2470278
1.2442907
1.2414831
1.2386443
1.2358049
1.2329885
1.2302128
1.2274916
1.224835
1.2222503
1.2197428
1.2173162
1.2149726
1.2127132
1.2105386
1.2084483
1.2064418
1.2045178
1.2026748
1.2009113
1.1992254
1.1976151
1.1960783
1.1946129
1.1932166
1.1918874
1.190623
1.1894211
1.1882795
1.1871961
1.1861687
1.1851951
1.1842733
1.1834012
1.1825767
1.1817978
1.1810627
1.1803694
1.1797161
1.1791011
1.1785226
1.177979
1.1774687
1.1769902
1.1765421
1.1761228
1.1757312
1.1753657
1.1750254
1.1747091
1.1744158
1.1741441
1.1738923
1.1736601
1.1734499
1.1732645
1.1730989
1.1729347
1.1727586
1.1726063
1.1725718
1.172683
1.1726681
1.1925469
1.2313596
1.2370841
1.2523035
1.2613699
1.2682301
1.2725777
1.274958
1.2757297
1.2752563
1.2738354
1.271713
1.2690847
1.2661033
1.2628869
1.2595255
1.2560873
1.2526235
1.2491725
1.2457626
1.2424145
1.2391432
1.2359593
1.2328701
1.2298804
1.226993
1.2242092
1.2215293
1.2189527
1.2164783
1.2141043
1.2118288
1.2096494
1.2075638
1.2055693
1.2036634
1.2018433
1.2001064
1.1984498
1.196871
1.1953672
1.1939359
1.1925743
1.19128
1.1900504
1.1888832
1.1877758
1.186726
1.1857314
1.1847899
1.1838992
1.1830573
1.1822621
1.1815115
1.1808037
1.1801367
1.1795088
1.1789182
1.1783633
1.1778424
1.177354
1.1768967
1.176469
1.1760697
1.1756975
1.1753513
1.17503
1.1747325
1.1744574
1.1742035
1.173971
1.1737619
1.1735772
1.1734109
1.1732484
1.1730849
1.1729551
1.1729273
1.1730021
1.1729622
1.239836
1.2721954
1.2792995
1.2890358
1.2939018
1.2962174
1.2963696
1.2950041
1.2925519
1.2893563
1.2856683
1.2816727
1.2775029
1.2732549
1.2689971
1.2647778
1.2606307
1.2565792
1.2526387
1.2488194
1.2451273
1.2415656
1.2381354
1.2348362
1.2316666
1.2286243
1.2257065
1.2229101
1.2202317
1.2176677
1.2152147
1.2128691
1.2106272
1.2084855
1.2064405
1.2044888
1.2026271
1.200852
1.1991606
1.1975495
1.1960159
1.1945567
1.1931693
1.1918508
1.1905984
1.1894098
1.1882822
1.1872133
1.1862007
1.1852421
1.1843352
1.1834779
1.1826681
1.1819037
1.1811827
1.1805033
1.1798636
1.179262
1.1786967
1.178166
1.1776686
1.1772028
1.1767674
1.1763611
1.1759825
1.1756307
1.1753046
1.175003
1.1747247
1.1744689
1.1742359
1.174027
1.1738421
1.1736758
1.1735189
1.1733713
1.1732575
1.1732172
1.1732441
1.1732085
1.2935899
1.3141336
1.3186528
1.3210025
1.3202087
1.3175715
1.3137013
1.309085
1.3040418
1.2987878
1.2934661
1.288171
1.2829637
1.2778833
1.2729537
1.2681891
1.2635967
1.259179
1.2549357
1.2508643
1.2469611
1.2432215
1.2396403
1.2362123
1.2329321
1.2297941
1.2267931
1.2239239
1.2211813
1.2185606
1.2160568
1.2136657
1.2113826
1.2092036
1.2071244
1.2051414
1.2032507
1.2014489
1.1997323
1.1980978
1.1965422
1.1950623
1.1936553
1.1923181
1.1910482
1.1898427
1.1886991
1.1876149
1.1865877
1.1856152
1.184695
1.1838249
1.183003
1.182227
1.181495
1.1808051
1.1801556
1.1795446
1.1789704
1.1784315
1.1779263
1.1774533
1.1770113
1.1765988
1.1762148
1.1758582
1.1755278
1.1752225
1.1749413
1.1746835
1.1744494
1.1742393
1.1740524
1.1738851
1.1737329
1.173598
1.1734958
1.1734472
1.1734448
1.1734148
1.3461565
1.3494412
1.3482234
1.3437843
1.337983
1.3314422
1.3246233
1.3177665
1.3110173
1.3044543
1.2981201
1.2920347
1.2862051
1.2806303
1.2753048
1.2702205
1.265368
1.2607372
1.2563181
1.2521007
1.2480755
1.2442332
1.2405651
1.2370631
1.2337194
1.2305267
1.2274782
1.2245674
1.2217883
1.2191351
1.2166026
1.2141855
1.2118791
1.2096788
1.2075802
1.2055792
1.203672
1.2018546
1.2001236
1.1984755
1.196907
1.195415
1.1939963
1.1926481
1.1913675
1.1901518
1.1889984
1.1879048
1.1868685
1.1858872
1.1849586
1.1840804
1.1832506
1.1824671
1.1817279
1.181031
1.1803748
1.1797574
1.1791772
1.1786326
1.1781219
1.1776438
1.1771969
1.1767799
1.1763918
1.1760313
1.1756974
1.1753891
1.1751056
1.1748463
1.174611
1.1743995
1.1742108
1.174043
1.1738948
1.1737684
1.1736704
1.1736073
1.1735751
1.1735496
1.3800139
1.3724777
1.3649799
1.3567604
1.3482205
1.3397724
1.3315813
1.3237212
1.3162203
1.3090819
1.3022974
1.2958523
1.2897294
1.2839109
1.2783791
1.2731171
1.2681091
1.2633402
1.2587966
1.2544657
1.2503358
1.2463961
1.2426366
1.2390482
1.2356223
1.2323512
1.2292274
1.2262443
1.2233954
1.2206747
1.2180768
1.2155964
1.2132285
1.2109686
1.2088121
1.206755
1.2047931
1.2029228
1.2011404
1.1994425
1.1978257
1.1962869
1.194823
1.193431
1.1921082
1.1908517
1.1896591
1.1885276
1.1874549
1.1864386
1.1854764
1.1845661
1.1837055
1.1828926
1.1821253
1.1814018
1.1807202
1.1800788
1.1794758
1.1789096
1.1783787
1.1778816
1.1774169
1.1769834
1.1765798
1.1762051
1.1758582
1.1755379
1.1752437
1.174975
1.1747312
1.1745119
1.1743161
1.1741433
1.1739938
1.1738692
1.1737699
1.1736949
1.1736443
1.1736238
1.1641446
1.1685714
1.1830154
1.1947947
1.2002535
1.2015114
1.2015812
1.2012548
1.2012871
1.2010006
1.2007508
1.2001916
1.1996047
1.1989571
1.1982698
1.1975436
1.1967816
1.1959895
1.1951723
1.194334
1.1934786
1.1926096
1.1917302
1.1908433
1.1899514
1.189057
1.1881622
1.187269
1.1863792
1.1854944
1.1846164
1.1837465
1.1828862
1.1820367
1.1811994
1.1803755
1.1795662
1.1787727
1.177996
1.1772374
1.1764979
1.1757786
1.1750806
1.174405
1.1737527
1.1731248
1.1725223
1.1719459
1.1713967
1.1708754
1.1703826
1.1699191
1.1694852
1.1690813
1.1687076
1.1683641
1.1680507
1.1677669
1.1675122
1.1672858
1.1670863
1.1669122
1.1667621
1.1666337
1.1665256
1.1664332
1.166358
1.1662862
1.1662371
1.1661585
1.1661439
1.1660072
1.1660669
1.1657723
1.166002
1.1653968
1.1659669
1.1649226
1.1659434
1.1643224
1.159853
1.1706371
1.1867875
1.195052
1.1972968
1.1972043
1.1966781
1.1964284
1.196109
1.1958041
1.1954076
1.1950121
1.1945676
1.1940887
1.1935702
1.1930199
1.1924387
1.1918296
1.191195
1.1905371
1.1898582
1.1891607
1.1884468
1.1877186
1.1869784
1.1862284
1.1854705
1.1847069
1.1839396
1.1831704
1.1824013
1.1816341
1.1808706
1.1801125
1.1793614
1.1786191
1.177887
1.1771668
1.1764598
1.1757677
1.1750917
1.1744334
1.173794
1.1731749
1.1725772
1.1720023
1.1714513
1.1709251
1.1704249
1.1699515
1.1695057
1.1690881
1.1686993
1.1683396
1.1680093
1.1677082
1.1674363
1.1671931
1.1669779
1.1667898
1.1666275
1.1664893
1.1663736
1.1662783
1.1662015
1.166139
1.1660915
1.1660468
1.1660211
1.1659683
1.1659705
1.1658597
1.1659272
1.1656636
1.1658993
1.1653256
1.1658916
1.1648646
1.1659229
1.1642562
1.1603217
1.1736395
1.1852444
1.1915912
1.1925513
1.1920718
1.1915622
1.1912997
1.1910038
1.1907196
1.1903861
1.1900494
1.1896777
1.1892935
1.1888823
1.1884516
1.1879982
1.1875239
1.187029
1.1865142
1.1859805
1.1854289
1.1848606
1.1842769
1.1836791
1.1830686
1.182447
1.1818158
1.1811768
1.1805314
1.1798816
1.1792289
1.1785752
1.1779223
1.1772718
1.1766256
1.1759855
1.175353
1.1747301
1.1741183
1.1735193
1.1729348
1.1723663
1.1718153
1.1712834
1.170772
1.1702822
1.1698155
1.1693729
1.1689555
1.1685641
1.1681995
1.1678623
1.1675528
1.1672713
1.1670178
1.166792
1.1665935
1.1664217
1.1662754
1.1661534
1.1660538
1.1659751
1.1659149
1.1658712
1.1658402
1.1658219
1.1658052
1.1658041
1.1657772
1.165798
1.1657119
1.1657902
1.1655553
1.1657955
1.1652526
1.1658174
1.164808
1.1658993
1.1641952
1.1580014
1.1722557
1.1828837
1.1875704
1.1873941
1.1870085
1.1865644
1.1863653
1.1860472
1.1857954
1.1854823
1.1851992
1.184884
1.1845727
1.1842408
1.1839005
1.1835449
1.1831765
1.1827938
1.1823967
1.1819851
1.181559
1.1811185
1.180664
1.1801962
1.1797155
1.1792229
1.1787194
1.178206
1.177684
1.1771548
1.1766197
1.1760803
1.1755381
1.1749949
1.1744524
1.1739122
1.1733761
1.172846
1.1723235
1.1718106
1.1713088
1.1708201
1.1703461
1.1698883
1.1694484
1.1690279
1.1686281
1.1682503
1.1678956
1.167565
1.1672594
1.1669793
1.1667253
1.1664975
1.166296
1.1661205
1.1659706
1.1658455
1.1657442
1.1656651
1.1656066
1.1655669
1.1655438
1.1655349
1.1655368
1.1655488
1.1655611
1.1655855
1.1655847
1.1656254
1.1655633
1.1656544
1.1654467
1.1656936
1.1651791
1.165746
1.1647532
1.1658735
1.1641397
1.1523331
1.1686337
1.1784538
1.1819799
1.18143
1.1813469
1.1809852
1.1809253
1.1806821
1.1805485
1.1803265
1.1801523
1.1799345
1.1797301
1.1795033
1.179272
1.1790261
1.1787698
1.1785008
1.1782191
1.1779245
1.1776167
1.1772958
1.1769618
1.176615
1.1762558
1.1758845
1.1755019
1.1751086
1.1747055
1.1742937
1.1738742
1.1734484
1.1730175
1.172583
1.1721465
1.1717095
1.1712738
1.170841
1.170413
1.1699916
1.1695785
1.1691756
1.1687846
1.1684072
1.1680451
1.1676999
1.1673731
1.1670659
1.1667796
1.1665153
1.1662739
1.166056
1.165862
1.1656923
1.1655469
1.1654255
1.1653275
1.1652523
1.1651987
1.1651652
1.1651501
1.1651514
1.1651669
1.1651944
1.1652303
1.1652737
1.1653157
1.1653665
1.1653919
1.1654536
1.1654155
1.1655204
1.165339
1.1655929
1.1651059
1.1656763
1.1647004
1.165846
1.1640889
1.1463192
1.1650734
1.1735244
1.1764188
1.1757162
1.1758898
1.1755723
1.1756507
1.1754724
1.1754509
1.1753101
1.1752377
1.1751094
1.1750032
1.1748713
1.174738
1.1745898
1.1744328
1.1742644
1.1740849
1.1738941
1.1736918
1.1734778
1.1732521
1.1730148
1.1727659
1.1725056
1.1722344
1.1719526
1.1716609
1.1713599
1.1710505
1.1707337
1.1704106
1.1700825
1.1697505
1.1694162
1.1690812
1.168747
1.1684153
1.1680879
1.1677665
1.1674528
1.1671487
1.1668559
1.166576
1.1663106
1.1660613
1.1658294
1.1656161
1.1654225
1.1652496
1.165098
1.1649682
1.1648604
1.1647746
1.1647104
1.1646675
1.164645
1.1646416
1.1646559
1.1646861
1.1647302
1.1647859
1.1648509
1.1649219
1.1649977
1.16507
1.1651477
1.1651997
1.1652828
1.165269
1.1653888
1.1652325
1.1654941
1.1650337
1.1656087
1.1646496
1.1658168
1.1640422
1.1410993
1.1616887
1.1686555
1.1712541
1.1704505
1.1708262
1.1705163
1.1707051
1.1705656
1.1706324
1.1705538
1.1705681
1.1705143
1.1704856
1.170427
1.1703726
1.1703046
1.170231
1.1701482
1.1700566
1.1699558
1.1698454
1.169725
1.1695947
1.1694541
1.1693033
1.1691424
1.1689714
1.1687907
1.1686006
1.1684016
1.1681944
1.1679796
1.1677582
1.1675312
1.1672997
1.167065
1.1668284
1.1665914
1.1663555
1.1661223
1.1658934
1.1656706
1.1654554
1.1652495
1.1650546
1.1648721
1.1647036
1.1645504
1.1644136
1.1642944
1.1641935
1.1641117
1.1640493
1.1640066
1.1639834
1.1639795
1.1639942
1.1640268
1.1640759
1.1641399
1.164217
1.1643053
1.1644025
1.1645062
1.1646131
1.1647219
1.1648252
1.1649301
1.165009
1.1651133
1.1651247
1.1652602
1.165128
1.1653976
1.1649633
1.1655431
1.1646012
1.1657868
1.1639991
1.1362456
1.1586567
1.1640956