/*--------------------------------*- C++ -*----------------------------------*\
  =========                 |
  \\      /  F ield         | OpenFOAM: The Open Source CFD Toolbox
   \\    /   O peration     | Website:  https://openfoam.org
    \\  /    A nd           | Version:  12
     \\/     M anipulation  |
\*---------------------------------------------------------------------------*/
FoamFile
{
    format      ascii;
    class       volVectorField;
    location    "0.119";
    object      U;
}
// * * * * * * * * * * * * * * * * * * * * * * * * * * * * * * * * * * * * * //

dimensions      [0 1 -1 0 0 0 0];

internalField   nonuniform List<vector> 
16000
(
(215.05755 -3.1425814e-17 -8.3534414)
(251.91844 0 5.3629288)
(238.00369 0 -7.5451281)
(245.70156 4.9737619e-17 3.7779866)
(241.02585 -4.9093564e-17 -5.9314422)
(243.22476 0 1.7512451)
(241.43591 0 -4.3080644)
(241.93927 8.4032923e-17 -0.02465994)
(241.10158 -7.9837826e-17 -3.144003)
(240.97979 0 -1.2586744)
(240.46734 7.2138806e-17 -2.5507508)
(240.12062 -2.0552344e-16 -1.971408)
(239.67809 1.3008361e-16 -2.4076328)
(239.25043 -1.2373821e-16 -2.3437561)
(238.79482 1.1740361e-16 -2.5030438)
(238.32543 -3.4825828e-18 -2.5732676)
(237.8375 -3.3082943e-18 -2.6748186)
(237.33196 -9.7622258e-17 -2.76555)
(236.80825 1.9126268e-16 -2.8579272)
(236.26624 -9.074668e-17 -2.9479848)
(235.70578 1.726098e-16 -3.0361064)
(235.12679 -1.6362035e-16 -3.1215939)
(234.52929 0 -3.2039496)
(233.91337 1.5230095e-16 -3.2825917)
(233.27922 -4.1235879e-18 -3.3569307)
(232.62714 -2.6581059e-16 -3.4263454)
(231.95755 1.2598485e-16 -3.4902076)
(231.27097 0 -3.5478766)
(230.56807 0 -3.5987151)
(229.84963 2.1878589e-16 -3.6420944)
(229.1166 -2.0385135e-16 -3.6774079)
(228.37003 0 -3.7040801)
(227.61113 0 -3.7215772)
(226.84122 0 -3.7294216)
(226.06177 5.1426319e-18 -3.7272016)
(225.27436 1.5606777e-16 -3.7145834)
(224.48066 -1.4286819e-16 -3.6913218)
(223.68247 -1.3992456e-16 -3.6572685)
(222.88163 1.238959e-16 -3.6123807)
(222.08007 0 -3.5567289)
(221.27974 -1.1857449e-16 -3.4904977)
(220.4826 1.1192211e-16 -3.4139899)
(219.69063 -2.1210697e-16 -3.327624)
(218.90574 2.0011948e-16 -3.2319303)
(218.12983 -1.9544026e-16 -3.1275446)
(217.36469 3.578203e-16 -3.0151968)
(216.61203 5.6024902e-18 -2.8957)
(215.87343 2.9417569e-19 -2.7699348)
(215.15035 -1.5060802e-16 -2.6388333)
(214.44409 1.4243746e-16 -2.5033618)
(213.75579 -1.258178e-16 -2.3645031)
(213.08641 0 -2.2232382)
(212.43673 7.4774558e-18 -2.08053)
(211.80734 0 -1.9373061)
(211.19866 6.6538767e-18 -1.7944443)
(210.61091 2.0718916e-16 -1.6527618)
(210.04414 -3.7869145e-16 -1.5130046)
(209.49823 1.0938208e-17 -1.3758388)
(208.97291 1.6827685e-16 -1.2418433)
(208.46768 -1.4894477e-16 -1.1115201)
(207.98185 1.4029896e-16 -0.98527291)
(207.5146 -8.827942e-18 -0.86345626)
(207.06499 0 -0.74633899)
(206.63185 0 -0.63411158)
(206.21385 -1.1124731e-16 -0.52690436)
(205.80954 1.1192832e-16 -0.42477825)
(205.41739 -9.917646e-17 -0.32772906)
(205.03569 1.9358841e-16 -0.23569311)
(204.66259 -1.8892459e-16 -0.14856362)
(204.29604 8.3753775e-17 -0.066200118)
(203.93396 5.2886294e-18 0.011539876)
(203.57445 0 0.084652304)
(203.21606 4.7546852e-18 0.15301329)
(202.85804 -4.5162228e-18 0.2168027)
(202.49951 0 0.27634032)
(202.14493 -3.3771215e-17 0.32648356)
(201.73333 6.2498368e-17 0.35897718)
(201.52205 -3.1759664e-17 0.49004402)
(200.78121 0 0.21629581)
(200.97859 0 1.0263275)
(216.3719 0 -11.168438)
(253.55504 -3.7298688e-18 3.323755)
(238.99026 -1.1987082e-16 -10.466926)
(247.16205 1.1051941e-16 1.6922036)
(242.13136 0 -8.7925933)
(244.562 1.0168201e-16 -0.40456308)
(242.5686 -1.8776609e-16 -7.0517152)
(243.16093 -1.0177731e-19 -2.3025215)
(242.23178 8.4618688e-17 -5.7318272)
(242.11093 0 -3.6535514)
(241.55771 -1.5284904e-16 -5.0233207)
(241.18218 1.4951524e-16 -4.4110471)
(240.70774 1.4220185e-16 -4.8336149)
(240.24583 -2.617735e-16 -4.770255)
(239.75586 1.2033863e-16 -4.9093643)
(239.25025 1.1063128e-17 -4.9721293)
(238.72514 1.1568548e-16 -5.0580281)
(238.18113 -1.0303152e-16 -5.1349518)
(237.61782 0 -5.2112129)
(237.03511 0 -5.2841157)
(236.43293 5.6851762e-18 -5.3535418)
(235.8113 -1.7834955e-16 -5.4187831)
(235.17033 3.3818404e-16 -5.4792077)
(234.51025 -3.1600621e-16 -5.5341343)
(233.83139 1.4283221e-16 -5.5828678)
(233.13423 0 -5.6246989)
(232.41934 1.2457199e-16 -5.6589102)
(231.68745 -1.335792e-16 -5.6847914)
(230.93944 0 -5.7016465)
(230.17632 3.5298211e-18 -5.7088055)
(229.39924 -1.3389068e-17 -5.7056356)
(228.60951 0 -5.6915572)
(227.80859 0 -5.6660512)
(226.99803 -1.7084658e-16 -5.6286791)
(226.17956 3.392429e-16 -5.5790911)
(225.35497 -1.6290174e-16 -5.5170395)
(224.52619 -1.5929719e-16 -5.4423915)
(223.69519 1.4579953e-16 -5.3551352)
(222.86401 -1.122953e-16 -5.2553893)
(222.03474 -2.8367405e-19 -5.1434071)
(221.20944 -2.6531007e-19 -5.0195779)
(220.39017 2.3307896e-16 -4.8844263)
(219.57895 -1.0996981e-16 -4.7386069)
(218.77772 0 -4.5828961)
(217.98833 2.0261947e-16 -4.4181818)
(217.21253 1.1947471e-17 -4.2454489)
(216.4519 -5.1275373e-18 -4.0657619)
(215.7079 -1.6473453e-16 -3.8802469)
(214.98183 0 -3.6900716)
(214.27478 -1.4672566e-16 -3.4964241)
(213.58768 -8.8666982e-18 -3.3004937)
(212.92128 2.6041159e-16 -3.103449)
(212.27611 -1.3023776e-16 -2.9064204)
(211.65254 0 -2.7104822)
(211.05074 -2.0405324e-17 -2.5166379)
(210.47072 -2.1143912e-16 -2.3258094)
(209.9123 3.6166735e-16 -2.1388267)
(209.37516 -2.1550696e-16 -1.9564209)
(208.85886 0 -1.7792186)
(208.36275 -1.7097421e-16 -1.6077532)
(207.88602 1.79668e-16 -1.4424416)
(207.42772 2.6712624e-17 -1.2836319)
(206.98682 0 -1.1315885)
(206.56207 -1.4202558e-16 -0.98647862)
(206.15209 7.330086e-18 -0.8484027)
(205.75535 1.1181348e-16 -0.7173837)
(205.37024 -1.9754501e-17 -0.59337026)
(204.99505 9.3082146e-17 -0.47624423)
(204.62789 -1.0521474e-16 -0.36583612)
(204.26673 5.5132389e-18 -0.26193971)
(203.90943 -5.2019474e-18 -0.16438051)
(203.55402 0 -0.073181033)
(203.19908 -4.6411417e-18 0.011642701)
(202.84435 4.3896322e-18 0.090708224)
(202.48893 8.3130677e-18 0.16306453)
(202.12558 9.849768e-19 0.22150912)
(201.75752 0 0.28532959)
(201.4412 3.024032e-17 0.37543788)
(200.87237 -5.7581498e-17 0.1847465)
(200.87528 2.5864845e-17 0.90949361)
(217.54891 0 -14.05585)
(255.03813 -1.2268524e-16 1.0833614)
(239.95956 2.5016797e-16 -13.47151)
(248.41994 -2.234299e-16 -0.55581468)
(243.12859 1.1034434e-16 -11.724229)
(245.69566 -3.2674508e-18 -2.7482237)
(243.57503 9.9449407e-17 -9.8396526)
(244.19329 -9.4188152e-17 -4.7747857)
(243.2075 -5.5911775e-18 -8.3816908)
(243.06347 -5.3087861e-18 -6.2122621)
(242.4751 -1.0084741e-17 -7.5930045)
(242.06376 1.3913619e-16 -6.9861822)
(241.55402 -1.4103489e-16 -7.3775387)
(241.05379 1.3841546e-16 -7.3210354)
(240.52489 -1.1890716e-16 -7.438749)
(239.97871 -1.5584282e-17 -7.4933618)
(239.41177 0 -7.5635727)
(238.82466 -1.2509486e-20 -7.6255552)
(238.21707 -2.2666363e-16 -7.6846468)
(237.589 -3.6507632e-19 -7.7388206)
(236.94048 1.7373172e-16 -7.787644)
(236.27169 1.7064918e-17 -7.8303238)
(235.58287 -2.1584772e-17 -7.8661074)
(234.87442 0 -7.8942088)
(234.14686 7.5664084e-21 -7.9138362)
(233.40085 -1.6569096e-16 -7.9241949)
(232.63721 1.480275e-16 -7.924499)
(231.85689 8.2617708e-18 -7.9139794)
(231.06102 0 -7.8919025)
(230.25087 -7.411786e-18 -7.8575772)
(229.42789 -8.0459544e-22 -7.8103749)
(228.59367 -1.9950517e-16 -7.7497417)
(227.74993 2.0092802e-16 -7.6752133)
(226.89855 1.1905243e-17 -7.586434)
(226.04151 -1.8023617e-16 -7.4831652)
(225.18089 1.4875132e-16 -7.3653022)
(224.31883 -1.8124649e-16 -7.2328827)
(223.45756 1.5191834e-16 -7.0860961)
(222.59929 -1.4383949e-16 -6.925286)
(221.74624 1.3556228e-16 -6.7509546)
(220.90059 1.6028098e-17 -6.5637596)
(220.06447 0 -6.3645062)
(219.23991 1.9993615e-16 -6.1541398)
(218.4288 -2.4200246e-16 -5.9337307)
(217.63292 0 -5.704458)
(216.85388 1.7960495e-16 -5.4675912)
(216.0931 -1.5760998e-16 -5.2244661)
(215.35183 1.7004718e-16 -4.9764639)
(214.63111 -1.7986422e-16 -4.7249861)
(213.9318 0 -4.4714325)
(213.25454 1.7735203e-16 -4.2171783)
(212.59978 -1.3328741e-16 -3.9635514)
(211.96777 0 -3.7118146)
(211.35857 0 -3.4631493)
(210.77208 1.2487848e-16 -3.21864)
(210.20802 -2.0855213e-16 -2.9792671)
(209.66598 1.2242378e-16 -2.7458978)
(209.14541 1.8423782e-16 -2.5192819)
(208.64564 1.9578345e-19 -2.3000487)
(208.16586 1.7401764e-19 -2.0887177)
(207.70512 -3.2427331e-16 -1.8856844)
(207.26234 8.9492292e-17 -1.691253)
(206.83638 0 -1.5056503)
(206.42593 1.4222668e-16 -1.3289942)
(206.02953 -1.6314638e-16 -1.161331)
(205.6456 1.1150691e-16 -1.0026288)
(205.27249 1.3159366e-17 -0.85277817)
(204.90844 -8.6040179e-17 -0.71159982)
(204.55157 1.1554008e-17 -0.57885641)
(204.19987 2.1727157e-17 -0.45428125)
(203.85124 -1.0217249e-16 -0.33768686)
(203.5037 9.6090743e-17 -0.22908735)
(203.15597 -7.2396229e-17 -0.12833304)
(202.80785 1.3636545e-16 -0.034897043)
(202.45736 -5.6229264e-17 0.049053561)
(202.09928 -6.0662013e-17 0.12033302)
(201.74711 5.0117496e-17 0.20065986)
(201.39027 0 0.2672929)
(200.91161 3.2068025e-18 0.15437783)
(200.81058 -1.2161161e-17 0.78430007)
(218.5684 0 -17.012527)
(256.37212 0 -1.2922939)
(240.71181 0 -16.61025)
(249.50264 1.0677522e-16 -2.9096115)
(243.94347 -1.2397806e-16 -14.784323)
(246.66561 -2.2080923e-16 -5.2092751)
(244.40301 2.1000687e-16 -12.744879)
(245.04972 -1.2438267e-17 -7.3737965)
(243.99982 5.9229183e-18 -11.141479)
(243.82844 -1.7416936e-16 -8.9019587)
(243.20023 1.7051074e-16 -10.273606)
(242.74751 1.0133509e-17 -9.6862391)
(242.19755 -1.5387492e-16 -10.038378)
(241.65365 1.3669111e-16 -9.9902977)
(241.0807 -1.399219e-20 -10.085322)
(240.48878 -8.1972502e-18 -10.129805)
(239.875 0 -10.182711)
(239.2399 -7.4002165e-18 -10.227297)
(238.5833 -2.1064551e-16 -10.266567)
(237.90532 2.1269556e-16 -10.298943)
(237.20615 1.2625383e-17 -10.323762)
(236.48607 -1.1969884e-17 -10.340143)
(235.74555 2.1569212e-16 -10.347234)
(234.98515 -1.7181084e-16 -10.344157)
(234.20563 1.0188889e-17 -10.33003)
(233.40788 1.9319129e-16 -10.303988)
(232.59299 -1.2779738e-16 -10.265181)
(231.7622 0 -10.212802)
(230.91694 1.4766297e-16 -10.146092)
(230.05883 -1.2394628e-16 -10.064371)
(229.18961 2.4979238e-16 -9.9670398)
(228.31123 -1.3346482e-17 -9.8536126)
(227.42575 -2.0981945e-16 -9.7237257)
(226.53536 1.7402233e-16 -9.5771576)
(225.64234 -1.8746832e-16 -9.41384)
(224.74906 -2.8829482e-20 -9.2338735)
(223.85792 2.0956538e-16 -9.0375329)
(222.97132 -3.1626731e-16 -8.8252726)
(222.09165 9.3083941e-17 -8.5977279)
(221.22124 3.5239765e-17 -8.3557101)
(220.36232 -4.9830532e-17 -8.1002007)
(219.51701 0 -7.8323356)
(218.68727 -8.8664111e-17 -7.553391)
(217.87489 1.3886737e-16 -7.2647609)
(217.08146 -2.0967054e-16 -6.9679357)
(216.30838 1.9700673e-16 -6.6644781)
(215.55681 -2.0895059e-16 -6.3559932)
(214.82772 3.9289205e-16 -6.0441044)
(214.12182 -3.0789564e-16 -5.7304265)
(213.43963 3.0874642e-16 -5.4165401)
(212.78144 -1.4491605e-16 -5.1039687)
(212.14736 1.3640606e-16 -4.794158)
(211.53728 -9.5891923e-17 -4.4884566)
(210.95096 3.0067196e-17 -4.1881046)
(210.38796 0 -3.8942186)
(209.84773 0 -3.6077886)
(209.32956 0 -3.3296718)
(208.83268 2.3273995e-17 -3.060592)
(208.3562 0 -2.801139)
(207.89915 -1.6379796e-16 -2.5517813)
(207.46041 1.9174944e-16 -2.31286)
(207.03882 -1.0792393e-16 -2.0846074)
(206.63314 -1.1497132e-19 -1.8671842)
(206.24198 2.5249183e-16 -1.66064)
(205.86384 2.9653189e-17 -1.46495)
(205.49712 -1.3848069e-16 -1.2800147)
(205.1401 5.1930976e-17 -1.1056597)
(204.79102 -1.4588793e-16 -0.94164036)
(204.44801 -4.5583628e-17 -0.78765307)
(204.1091 -6.4076611e-17 -0.64338107)
(203.77225 -6.0085738e-17 -0.50862344)
(203.43554 5.6307069e-17 -0.38334998)
(203.09779 0 -0.26732174)
(202.75852 0 -0.16038778)
(202.41554 -1.5518226e-17 -0.064887878)
(202.06708 0 0.019990324)
(201.72165 6.854063e-18 0.10977144)
(201.35385 5.1611263e-17 0.16691688)
(200.93132 -7.2886484e-17 0.12090703)
(200.74785 -1.3887458e-20 0.65669732)
(219.41223 0 -20.166878)
(257.53568 -8.8271983e-18 -3.7447898)
(241.3397 2.6697461e-16 -19.885675)
(250.36392 -2.4937785e-16 -5.3895098)
(244.52437 2.5446305e-16 -17.960258)
(247.43412 -2.3281378e-16 -7.8234182)
(245.03231 -2.2192835e-16 -15.756297)
(245.69625 2.1008504e-16 -10.130915)
(244.585 0 -14.004502)
(244.37559 0 -11.741539)
(243.70533 1.8004285e-16 -13.068449)
(243.20447 -1.7056562e-16 -12.518956)
(242.60957 -1.0132878e-17 -12.822105)
(242.0168 2.882034e-17 -12.781698)
(241.39485 -9.120684e-18 -12.851972)
(240.75236 3.4591671e-17 -12.88259)
(240.08699 0 -12.915253)
(239.39922 0 -12.938698)
(238.68903 -2.362328e-16 -12.954325)
(237.95665 2.095064e-16 -12.960778)
(237.20241 0 -12.95721)
(236.42682 0 -12.942637)
(235.63054 -1.9061854e-16 -12.916076)
(234.8144 3.6073863e-16 -12.876544)
(233.97943 -1.7061704e-16 -12.823063)
(233.12687 -2.0213171e-17 -12.754684)
(232.25813 -3.8282403e-17 -12.670505)
(231.37483 -1.4505552e-16 -12.56969)
(230.47879 1.1976588e-16 -12.451493)
(229.57202 0 -12.31527)
(228.65667 -3.0672764e-17 -12.160513)
(227.73507 0 -11.98686)
(226.80967 0 -11.794116)
(225.883 2.0706148e-16 -11.582273)
(224.95769 -2.194694e-16 -11.351514)
(224.03636 2.302271e-17 -11.102227)
(223.12164 -2.1723048e-17 -10.83501)
(222.21611 -4.1065642e-17 -10.550666)
(221.32225 -8.3298241e-20 -10.250198)
(220.44244 7.9125615e-20 -9.9347982)
(219.57887 -7.4666479e-20 -9.6058316)
(218.73356 0 -9.2648126)
(217.9083 -1.2190134e-16 -8.9133851)
(217.10467 1.1447147e-16 -8.5532897)
(216.32397 0 -8.1863359)
(215.56728 -5.0733779e-17 -7.8143753)
(214.83542 1.906852e-16 -7.4392644)
(214.12893 -2.2353889e-16 -7.0628406)
(213.44815 -2.1030054e-16 -6.686892)
(212.79317 1.5767177e-16 -6.3131334)
(212.1639 1.1119932e-16 -5.9431833)
(211.56001 -1.388047e-16 -5.5785474)
(210.98105 -3.2543026e-17 -5.2206007)
(210.42638 -2.1377908e-16 -4.870581)
(209.89525 1.1433719e-16 -4.5295775)
(209.38678 -1.0723425e-16 -4.1985323)
(208.90003 1.0030126e-16 -3.8782388)
(208.43396 2.3500223e-16 -3.569344)
(207.98749 -1.7576213e-16 -3.2723532)
(207.55948 0 -2.9876433)
(207.14869 -3.8462429e-17 -2.7154633)
(206.75386 -7.1994683e-17 -2.4559483)
(206.37367 1.3452341e-16 -2.2091625)
(206.0067 1.258571e-16 -1.9750679)
(205.65142 -2.3519538e-16 -1.7535517)
(205.3062 8.2373662e-17 -1.5444351)
(204.96933 5.1348159e-17 -1.3474706)
(204.63902 9.599336e-17 -1.1623451)
(204.31343 1.3457374e-16 -0.98869156)
(203.99067 2.3749348e-20 -0.82614909)
(203.66879 0 -0.67448911)
(203.34598 0 -0.5336214)
(203.0211 -3.424456e-17 -0.40332886)
(202.69333 9.6077536e-17 -0.28383377)
(202.36101 -8.9855258e-17 -0.17690859)
(202.02442 -8.4107195e-17 -0.079364089)
(201.68537 5.2481808e-17 0.017231371)
(201.31808 0 0.072952823)
(200.93298 4.6082311e-17 0.083188249)
(200.69934 2.5091476e-20 0.53041608)
(220.05904 0 -23.493316)
(258.50164 1.9259897e-20 -6.2742403)
(241.77379 9.0850632e-18 -23.257368)
(251.05908 2.8883441e-16 -8.0076447)
(244.94816 3.3216042e-19 -21.239858)
(247.97261 -5.0661178e-16 -10.588328)
(245.41832 -3.2237522e-19 -18.862892)
(246.10351 4.5692141e-16 -13.050329)
(244.93243 -2.1022737e-16 -16.968279)
(244.67771 -1.2469813e-17 -14.730241)
(243.96388 1.1843747e-17 -15.976339)
(243.40976 -1.7983678e-16 -15.477525)
(242.76615 1.9159445e-16 -15.723763)
(242.12026 -1.8204493e-16 -15.687023)
(241.44493 3.0665748e-16 -15.730262)
(240.74729 -3.0896663e-16 -15.742528)
(240.02556 1.3770291e-16 -15.751514)
(239.28021 0 -15.74978)
(238.5114 0 -15.737598)
(237.71957 1.4668183e-17 -15.713621)
(236.9053 -2.7811309e-17 -15.67679)
(236.06937 0 -15.62596)
(235.21277 1.9971154e-16 -15.559999)
(234.3367 4.7004439e-19 -15.477799)
(233.4426 -3.5741779e-16 -15.378286)
(232.53212 1.6888136e-16 -15.260448)
(231.60713 1.9982104e-17 -15.123365)
(230.66972 0 -14.966218)
(229.72218 -1.789936e-16 -14.788328)
(228.76699 1.3497319e-16 -14.589173)
(227.80679 -2.2381653e-16 -14.368409)
(226.84433 2.1066999e-16 -14.125896)
(225.88247 -2.2799539e-16 -13.861707)
(224.92411 2.1460868e-16 -13.57615)
(223.97218 7.6075408e-17 -13.269767)
(223.02954 0 -12.94334)
(222.09898 0 -12.597887)
(221.18318 4.2400648e-17 -12.234652)
(220.28463 3.9935505e-17 -11.855087)
(219.4056 -3.759812e-17 -11.46083)
(218.54816 3.5382675e-17 -11.053683)
(217.71408 6.675045e-17 -10.635574)
(216.90486 -6.2696823e-17 -10.208531)
(216.12172 3.5348142e-16 -9.7746425)
(215.36556 -2.7650277e-16 -9.3360226)
(214.637 5.1898105e-17 -8.89478)
(213.9364 -4.8829967e-17 -8.4529809)
(213.26383 0 -8.0126223)
(212.61914 2.1462172e-16 -7.5756033)
(212.00195 -1.6075429e-16 -7.143705)
(211.41169 0 -6.7185694)
(210.84762 0 -6.3016889)
(210.30887 1.322686e-16 -5.8943931)
(209.79444 -6.1820923e-17 -5.4978472)
(209.30324 0 -5.1130481)
(208.83412 -1.6242962e-16 -4.7408283)
(208.38585 1.0110945e-16 -4.3818616)
(207.9572 1.4191626e-16 -4.0366689)
(207.54691 -1.7653334e-16 -3.7056266)
(207.15369 1.6500349e-16 -3.3889838)
(206.7762 -1.5391309e-16 -3.0868633)
(206.41312 6.3134895e-20 -2.7992786)
(206.06308 0 -2.5261753)
(205.72465 6.2559255e-17 -2.2674103)
(205.39631 -2.916694e-16 -2.0227705)
(205.07642 1.6312373e-16 -1.7919885)
(204.76329 0 -1.5747387)
(204.45514 -1.4182594e-16 -1.3706387)
(204.15018 8.8099022e-17 -1.1792628)
(203.84659 1.232422e-16 -1.0002067)
(203.54257 3.3356778e-20 -0.83319624)
(203.23647 -7.1328074e-17 -0.67808653)
(202.92709 9.9751636e-17 -0.53475856)
(202.61339 -1.5495372e-16 -0.40365601)
(202.29443 8.6662267e-17 -0.28570915)
(201.97134 2.6921988e-17 -0.17686517)
(201.6409 5.0245145e-17 -0.074491054)
(201.28124 0 -0.014600886)
(200.92375 -4.3750547e-17 0.039338604)
(200.65341 2.0385424e-17 0.40741107)
(220.49216 0 -26.988397)
(259.26209 9.8228764e-18 -8.9088473)
(242.00865 -3.0628938e-16 -26.753028)
(251.56999 2.5010161e-16 -10.7677)
(245.17706 2.5688987e-16 -24.61853)
(248.27001 -5.0104293e-16 -13.507901)
(245.60173 2.3046474e-16 -22.052211)
(246.25407 2.3332724e-16 -16.132034)
(245.0395 -2.2112627e-16 -20.018113)
(244.72324 3.9359739e-17 -17.855647)
(243.965 0 -18.985797)
(243.35219 0 -18.546774)
(242.65495 -2.2385831e-17 -18.732396)
(241.95015 -1.6995207e-16 -18.695041)
(241.21517 1.4064922e-16 -18.710481)
(240.45579 1.9079022e-17 -18.700825)
(239.67087 -3.6165926e-17 -18.683113)
(238.86103 3.0856694e-16 -18.65228)
(238.02675 -2.2675605e-16 -18.607798)
(237.16878 2.4611484e-16 -18.548211)
(236.28808 -2.0338145e-16 -18.472252)
(235.38586 2.7574089e-17 -18.378622)
(234.46354 1.5665787e-16 -18.266057)
(233.52284 -1.9703703e-16 -18.133361)
(232.56569 0 -17.97941)
(231.5943 0 -17.803194)
(230.6111 0 -17.603843)
(229.61875 -1.973343e-16 -17.380652)
(228.62011 1.8589237e-16 -17.133107)
(227.61818 -3.5221641e-17 -16.860914)
(226.61611 0 -16.564022)
(225.61713 -2.8234801e-16 -16.242638)
(224.62448 2.3598681e-16 -15.897236)
(223.64141 -5.5814175e-17 -15.528568)
(222.67105 1.5784357e-16 -15.137666)
(221.71645 -4.9051328e-17 -14.725822)
(220.78044 -1.8605287e-16 -14.294583)
(219.86564 2.194776e-16 -13.845723)
(218.97441 -1.6477215e-16 -13.381213)
(218.1088 7.7719024e-17 -12.903194)
(217.27053 -7.2930057e-17 -12.413932)
(216.46098 1.3708649e-16 -11.915777)
(215.68121 -6.4238443e-17 -11.411132)
(214.93189 -2.4176302e-16 -10.902401)
(214.21342 5.0978983e-16 -10.391955)
(213.52583 -2.1231974e-16 -9.882098)
(212.8689 -1.4961565e-16 -9.3750327)
(212.24216 9.3025382e-17 -8.8728327)
(211.64489 8.7499544e-17 -8.3774222)
(211.0762 -1.6369076e-16 -7.8905584)
(210.53504 1.5294014e-16 -7.4138191)
(210.02022 0 -6.9485971)
(209.53047 1.3386192e-16 -6.4960958)
(209.06445 -1.8749541e-16 -6.0573329)
(208.62075 5.8427831e-17 -5.6331441)
(208.19795 5.4454594e-17 -5.2241922)
(207.79463 0 -4.8309779)
(207.40936 0 -4.4538498)
(207.04075 0 -4.093017)
(206.68741 0 -3.7485684)
(206.34795 0 -3.4204746)
(206.02098 -7.1540098e-17 -3.1086071)
(205.70516 0 -2.8127778)
(205.39906 -5.1468524e-20 -2.5327255)
(205.10119 2.3099597e-16 -2.2681296)
(204.80998 -2.1488498e-16 -2.0186285)
(204.52374 -1.0002611e-16 -1.7838162)
(204.24075 -1.8598329e-16 -1.5632429)
(203.95926 2.5924597e-16 -1.3564292)
(203.67757 4.0094065e-20 -1.162924)
(203.39404 7.4665538e-17 -0.98239369)
(203.10718 0 -0.81465673)
(202.81574 0 -0.65971354)
(202.51857 0 -0.5180307)
(202.21542 -1.114272e-16 -0.38973102)
(201.90739 0 -0.27109034)
(201.58816 -9.6258955e-17 -0.1632697)
(201.24105 1.341859e-16 -0.094784214)
(200.905 8.3165517e-17 -0.013812719)
(200.60871 -1.9289858e-17 0.28935211)
(220.71495 0 -30.660163)
(259.82292 0 -11.651876)
(242.05004 3.2225096e-16 -30.380172)
(251.89997 1.933287e-17 -13.685582)
(245.2215 -2.6966702e-16 -28.106586)
(248.3838 0 -16.6045)
(245.58804 1.6157654e-17 -25.320339)
(246.27817 -3.0627029e-17 -19.367895)
(244.9018 0 -23.133425)
(244.51436 1.9305936e-16 -21.100701)
(243.70485 -4.1797116e-16 -22.092459)
(243.02299 1.9791593e-16 -21.720865)
(242.26245 2.3490396e-17 -21.847859)
(241.48898 0 -21.805342)
(240.68453 2.1078567e-17 -21.792111)
(239.8538 -3.4000339e-16 -21.756181)
(238.99628 7.4958772e-17 -21.707241)
(238.11289 2.5056695e-16 -21.641632)
(237.20451 2.3795553e-16 -21.558328)
(236.27234 -2.5666902e-16 -21.455757)
(235.31783 0 -21.332484)
(234.34273 -2.8798791e-16 -21.187102)
(233.34907 2.4452137e-16 -21.01827)
(232.33917 -2.0609687e-16 -20.824766)
(231.31561 1.9425121e-16 -20.605505)
(230.28128 -1.8408711e-16 -20.359568)
(229.23926 3.4727198e-16 -20.086255)
(228.19288 -1.6387522e-16 -19.785094)
(227.1456 1.5498457e-16 -19.455885)
(226.10102 -2.9219126e-16 -19.098714)
(225.0628 1.3752386e-16 -18.713979)
(224.03458 1.2987869e-16 -18.302399)
(223.01995 -2.4504466e-16 -17.865006)
(222.02238 5.689538e-17 -17.403153)
(221.04513 -5.7111498e-19 -16.918495)
(220.09123 2.5493766e-16 -16.412953)
(219.16339 0 -15.888701)
(218.26399 1.9082794e-19 -15.348119)
(217.39503 0 -14.793744)
(216.55813 -7.957531e-17 -14.228235)
(215.75447 -1.4954586e-16 -13.654317)
(214.98485 7.0210113e-17 -13.074733)
(214.24966 0 -12.492204)
(213.54894 -6.1867763e-17 -11.909377)
(212.88237 2.8957724e-16 -11.328791)
(212.24934 -3.2510228e-16 -10.752843)
(211.64895 -3.0461174e-16 -10.183765)
(211.08012 2.8441685e-16 -9.6235975)
(210.54154 -1.7749063e-16 -9.0741776)
(210.0318 0 -8.5371329)
(209.54937 0 -8.0138759)
(209.09264 7.2435958e-17 -7.5056069)
(208.65997 6.7599326e-17 -7.0133197)
(208.24972 1.2598408e-16 -6.5378104)
(207.86022 -5.874619e-17 -6.0796892)
(207.48986 -1.0943215e-16 -5.6393943)
(207.13704 -2.040665e-16 -5.2172076)
(206.80021 -9.519738e-17 -4.8132683)
(206.4779 1.7674771e-16 -4.4275882)
(206.16867 0 -4.0600728)
(205.8711 -7.6552836e-17 -3.7105225)
(205.58383 -1.4229784e-16 -3.378655)
(205.30553 1.3220649e-16 -3.0641408)
(205.03485 6.1324057e-17 -2.7665946)
(204.77035 5.7032526e-17 -2.4855861)
(204.51053 0 -2.2206591)
(204.25379 1.9661917e-16 -1.9713285)
(203.99845 1.8244421e-16 -1.7370818)
(203.74283 -2.5387476e-16 -1.5173899)
(203.48535 7.8510865e-17 -1.3117501)
(203.22454 -7.2777682e-17 -1.1197651)
(202.9591 -4.3729201e-20 -0.94123863)
(202.68775 2.5012311e-16 -0.77625735)
(202.40938 -2.3180397e-16 -0.62512728)
(202.12414 5.366483e-17 -0.48740567)
(201.83248 1.4926271e-16 -0.36050652)
(201.52677 -4.6104461e-17 -0.24711)
(201.19682 -4.270574e-17 -0.16472148)
(200.87921 0 -0.066251762)
(200.56079 3.6591238e-17 0.17725691)
(220.73773 3.919008e-16 -34.51862)
(260.18919 5.4061599e-19 -14.510608)
(241.87674 -3.5918908e-16 -34.154591)
(252.04308 0 -16.767103)
(245.00567 0 -31.671377)
(248.16376 -2.6798812e-16 -19.874406)
(245.26912 2.7110292e-16 -28.643559)
(245.79205 6.429842e-17 -22.764201)
(244.49235 -2.440471e-16 -26.348153)
(244.02724 2.3083656e-16 -24.490685)
(243.15599 -2.4670854e-16 -25.322958)
(242.3923 2.0736104e-16 -25.014513)
(241.55643 -4.919285e-17 -25.082479)
(240.70263 -4.6647569e-17 -25.025299)
(239.81725 -1.7676709e-16 -24.978431)
(238.90411 1.6696101e-16 -24.90853)
(237.96343 -3.5654791e-16 -24.820448)
(236.99649 5.9933339e-16 -24.711224)
(236.00473 -2.8317723e-16 -24.57944)
(234.98994 -2.6868424e-16 -24.423389)
(233.95424 2.533738e-16 -24.241503)
(232.90006 -3.0170879e-17 -24.032307)
(231.83019 -2.2712649e-16 -23.794459)
(230.74771 2.1395638e-16 -23.52681)
(229.65603 2.5344913e-16 -23.228426)
(228.55877 -1.4291547e-16 -22.898628)
(227.45983 0 -22.537043)
(226.36321 2.5557757e-16 -22.143616)
(225.27305 -3.210127e-16 -21.718649)
(224.1935 1.1295492e-16 -21.262812)
(223.12866 -2.8556602e-16 -20.777148)
(222.08252 2.011939e-16 -20.263075)
(221.05885 -6.3392966e-17 -19.72237)
(220.06116 2.3823213e-16 -19.157135)
(219.09261 -2.2346755e-16 -18.56978)
(218.15599 -2.1060995e-16 -17.962963)
(217.25364 1.9740032e-16 -17.339549)
(216.38743 -4.6299368e-17 -16.702556)
(215.55874 0 -16.055089)
(214.76848 8.1924964e-17 -15.400293)
(214.0171 -7.6468737e-17 -14.74129)
(213.30457 0 -14.081126)
(212.63048 1.3464351e-16 -13.422728)
(211.99404 -6.2982903e-17 -12.768862)
(211.39414 -1.7660572e-16 -12.122098)
(210.82943 5.5086314e-16 -11.484789)
(210.29832 -2.0624244e-16 -10.859052)
(209.79907 9.6196593e-17 -10.246761)
(209.32983 -2.6972453e-16 -9.6495416)
(208.88867 -1.8247529e-19 -9.0687737)
(208.47365 1.5638893e-16 -8.5056015)
(208.0828 -1.4589128e-16 -7.9609421)
(207.71419 -6.7895913e-17 -7.4355015)
(207.36593 -6.3243785e-17 -6.9297893)
(207.03618 -1.1808193e-16 -6.4441369)
(206.7232 2.1929423e-16 -5.9787157)
(206.4253 0 -5.5335555)
(206.14087 9.4767503e-17 -5.1085612)
(205.86842 -3.5262127e-16 -4.7035295)
(205.60651 2.4541683e-16 -4.318171)
(205.35377 7.5951155e-17 -3.9521081)
(205.10887 1.410921e-16 -3.604902)
(204.87057 1.310864e-16 -3.2760831)
(204.63758 -1.2129501e-16 -2.9651427)
(204.40861 -1.1240391e-16 -2.6715449)
(204.18225 -3.1267709e-16 -2.3947427)
(203.95698 -4.0139718e-20 -2.1341777)
(203.73123 -8.9358765e-17 -1.889281)
(203.50338 0 -1.6594774)
(203.27195 -2.2970866e-16 -1.4442105)
(203.03569 7.0830071e-17 -1.2430267)
(202.79345 0 -1.0557318)
(202.544 1.2117477e-16 -0.88241854)
(202.28641 0 -0.72310524)
(202.02086 1.0351411e-16 -0.57718042)
(201.74664 -1.4344265e-16 -0.44362095)
(201.45652 1.3254469e-16 -0.32451007)
(201.14735 -8.1624898e-17 -0.22608788)
(200.84659 7.5381172e-17 -0.11676879)
(200.51031 0 0.071909479)
(220.54891 -4.117105e-16 -38.570671)
(260.34889 3.6374644e-16 -17.50272)
(241.45341 -3.3323034e-16 -38.106153)
(251.93519 3.313734e-16 -20.024893)
(244.50618 3.1731854e-16 -35.295595)
(247.71347 -1.8040557e-17 -23.329222)
(244.70662 -2.8412454e-16 -32.048454)
(245.17523 -2.6971474e-16 -26.351938)
(243.79027 2.8707474e-16 -29.682165)
(243.21756 0 -28.02744)
(242.27411 2.8644786e-17 -28.684859)
(241.416 0 -28.427443)
(240.49212 -1.2883278e-16 -28.435903)
(239.54572 2.4325519e-16 -28.352462)
(238.56723 0 -28.264174)
(237.56004 0 -28.150044)
(236.52513 0 -28.011889)
(235.46443 3.9174464e-17 -27.847028)
(234.38012 0 -27.653752)
(233.27478 -2.4501329e-16 -27.43026)
(232.15138 3.3011502e-16 -27.174921)
(231.01329 1.2490956e-16 -26.886305)
(229.86421 1.7711575e-16 -26.563193)
(228.70821 -2.7819855e-16 -26.204669)
(227.5496 -5.2426205e-17 -25.81014)
(226.39292 -2.4809797e-16 -25.379383)
(225.24286 1.8672578e-16 -24.91258)
(224.10418 -2.2054076e-16 -24.410345)
(222.98159 8.2517402e-17 -23.87373)
(221.87972 7.8014079e-17 -23.304229)
(220.80295 0 -22.703766)
(219.75539 2.7752618e-16 -22.074662)
(218.74074 -2.6065265e-16 -21.419609)
(217.76227 0 -20.741603)
(216.82274 -2.3042873e-16 -20.043905)
(215.92434 2.1583215e-16 -19.329963)
(215.06868 -1.0170882e-16 -18.603345)
(214.25682 1.9042513e-16 -17.867672)
(213.48922 -2.6756223e-16 -17.126546)
(212.76582 1.2699186e-19 -16.383486)
(212.08605 -1.5633033e-16 -15.641872)
(211.44891 -7.3163086e-17 -14.904895)
(210.85303 -1.3731192e-16 -14.175513)
(210.2967 2.5597831e-16 -13.45643)
(209.77798 -1.194554e-16 -12.75007)
(209.29475 0 -12.058567)
(208.84475 -3.7565723e-19 -11.383766)
(208.42565 9.7177044e-17 -10.727226)
(208.03511 0 -10.090231)
(207.67078 8.4522969e-17 -9.4738019)
(207.33039 7.9026356e-17 -8.8787204)
(207.01172 -7.3375993e-17 -8.305544)
(206.71262 2.7318612e-16 -7.7546283)
(206.43109 -2.5396269e-16 -7.2261494)
(206.1652 -1.1811189e-16 -6.720124)
(205.91314 -1.0972448e-16 -6.2364319)
(205.67324 1.0188287e-16 -5.7748342)
(205.4439 1.8899456e-16 -5.3349923)
(205.22367 -3.5057521e-16 -4.9164845)
(205.01118 4.0629207e-16 -4.518827)
(204.80512 -1.5054603e-16 -4.1414683)
(204.60429 1.395407e-16 -3.7838199)
(204.40753 -1.2917376e-16 -3.4452815)
(204.2137 2.3922735e-16 -3.1252291)
(204.02162 -3.3208881e-16 -2.8230306)
(203.83004 2.0471494e-16 -2.5380571)
(203.63757 -7.5942901e-20 -2.269686)
(203.44273 8.7499155e-17 -2.0173001)
(203.24399 0 -1.7802808)
(203.03998 0 -1.5580211)
(202.82961 0 -1.3500334)
(202.61188 -1.2715446e-16 -1.1561258)
(202.38578 1.246297e-20 -0.97628663)
(202.15059 0 -0.81020619)
(201.90614 0 -0.65756186)
(201.65029 9.1945742e-17 -0.51889613)
(201.37782 -1.6942631e-16 -0.3938331)
(201.09228 0 -0.27948288)
(200.80721 0 -0.16586044)
(200.45691 -1.3197252e-16 -0.026216446)
(220.11571 2.7786394e-17 -42.825731)
(260.26605 -7.875536e-16 -20.650575)
(240.75258 3.4863175e-16 -42.200099)
(251.30737 -2.1781113e-17 -23.464513)
(243.69288 3.7401439e-16 -39.039148)
(246.93106 -3.5271352e-16 -27.007296)
(243.83733 0 -35.569835)
(244.17418 -3.1771096e-16 -30.131824)
(242.73761 2.3356146e-16 -33.131412)
(242.0411 2.2183471e-16 -31.703506)
(241.01193 -2.3945346e-16 -32.18085)
(240.04531 0 -31.955587)
(239.01898 1.8821536e-19 -31.902362)
(237.9664 0 -31.778803)
(236.88162 3.8569263e-16 -31.637679)
(235.76803 -7.2860697e-16 -31.465637)
(234.62759 3.439792e-16 -31.26267)
(233.4631 -4.0633981e-17 -31.026199)
(232.27775 -3.8609352e-17 -30.754344)
(231.0752 3.6693102e-17 -30.445294)
(229.85954 -6.8527807e-17 -30.097516)
(228.6353 -3.2462069e-16 -29.70978)
(227.40734 3.05526e-16 -29.281226)
(226.18082 5.7596239e-17 -28.811427)
(224.96113 -2.7293999e-16 -28.300411)
(223.75372 -6.9490919e-19 -27.748725)
(222.56408 2.898909e-16 -27.157427)
(221.39759 -1.8194594e-16 -26.528108)
(220.25941 -6.07829e-19 -25.862871)
(219.15435 0 -25.164307)
(218.08681 0 -24.435452)
(217.06063 -7.1590524e-17 -23.679726)
(216.07906 1.3403042e-16 -22.90087)
(215.14471 0 -22.102862)
(214.25946 -1.1845901e-16 -21.289836)
(213.4245 2.2165764e-16 -20.465996)
(212.64034 -1.0384339e-16 -19.635523)
(211.90681 -1.9460742e-16 -18.802506)