/*--------------------------------*- C++ -*----------------------------------*\
  =========                 |
  \\      /  F ield         | OpenFOAM: The Open Source CFD Toolbox
   \\    /   O peration     | Website:  https://openfoam.org
    \\  /    A nd           | Version:  12
     \\/     M anipulation  |
\*---------------------------------------------------------------------------*/
FoamFile
{
    format      ascii;
    class       volScalarField;
    location    "0.006";
    object      nut;
}
// * * * * * * * * * * * * * * * * * * * * * * * * * * * * * * * * * * * * * //

dimensions      [0 2 -1 0 0 0 0];

internalField   nonuniform List<scalar> 
16000
(
4.8727571e-07
9.6684675e-06
1.5663915e-05
2.3126079e-05
1.7671226e-05
2.3391764e-05
1.7092287e-05
2.2755095e-05
1.824317e-05
2.4108013e-05
2.0865952e-05
2.3765676e-05
2.203328e-05
2.2484542e-05
2.1887492e-05
2.1817421e-05
2.1683197e-05
2.1695382e-05
2.1776939e-05
2.1941204e-05
2.2182728e-05
2.2501179e-05
2.2895795e-05
2.3369001e-05
2.3925234e-05
2.4573302e-05
2.5324777e-05
2.6194071e-05
2.7199051e-05
2.8357661e-05
2.9687439e-05
3.12118e-05
3.2960338e-05
3.4969312e-05
3.7283543e-05
3.995665e-05
4.3052451e-05
4.6646548e-05
5.0831943e-05
5.5722433e-05
6.1447882e-05
6.8156676e-05
7.6033036e-05
8.5295998e-05
9.619314e-05
0.00010900173
0.000124041
0.00014166239
0.00016224555
0.00018618943
0.00021389528
0.00024573486
0.00028200324
0.00032288818
0.00036845974
0.00041870597
0.00047361586
0.00053332282
0.00059829945
0.00066954593
0.00074872731
0.00083831442
0.00094177825
0.0010043937
0.0010052095
0.0010059905
0.0010066601
0.0010072489
0.001007772
0.001008209
0.0010085268
0.0010087311
0.0010089178
0.0010093046
0.0010102244
0.0010116998
0.001012996
0.0010128651
0.0010108125
0.0010075532
4.3923546e-07
9.1622571e-06
1.8922768e-05
2.0737034e-05
1.6064276e-05
2.129278e-05
1.5269189e-05
2.0352573e-05
1.623525e-05
2.1915181e-05
1.916625e-05
2.1987806e-05
2.0531205e-05
2.0826346e-05
2.0324138e-05
2.0201039e-05
2.0076174e-05
2.0066433e-05
2.0130637e-05
2.0269295e-05
2.0480145e-05
2.0761999e-05
2.1113615e-05
2.1536606e-05
2.203411e-05
2.26131e-05
2.3283661e-05
2.4058111e-05
2.4952176e-05
2.5983263e-05
2.7166675e-05
2.8522657e-05
3.0076955e-05
3.1860794e-05
3.3912806e-05
3.6278949e-05
3.9013789e-05
4.2180844e-05
4.585713e-05
5.0138679e-05
5.5135806e-05
6.0968979e-05
6.7786731e-05
7.5766666e-05
8.510862e-05
9.6030382e-05
0.00010878465
0.00012365175
0.00014093839
0.00016097493
0.00018411271
0.00021072037
0.00024117134
0.00027584709
0.00031514549
0.00035951157
0.0004094895
0.0004658002
0.00052944404
0.0006018017
0.00068471749
0.00078059233
0.00089253293
0.0010047952
0.0010056128
0.0010063855
0.0010070484
0.0010076345
0.0010081601
0.0010085981
0.0010089073
0.0010090978
0.0010093021
0.0010097673
0.0010107843
0.0010122572
0.0010133645
0.0010129226
0.001010389
0.0010068047
3.9536425e-07
8.8411269e-06
1.79736e-05
1.9882481e-05
1.455376e-05
1.8923785e-05
1.3641793e-05
1.7903152e-05
1.465491e-05
1.9491911e-05
1.7609186e-05
1.9829153e-05
1.8763917e-05
1.8843935e-05
1.8440364e-05
1.828151e-05
1.8162139e-05
1.8135571e-05
1.8180304e-05
1.8291859e-05
1.8468877e-05
1.871033e-05
1.9014747e-05
1.9383056e-05
1.9817737e-05
2.0324581e-05
2.0911299e-05
2.1589141e-05
2.237191e-05
2.3274252e-05
2.4311307e-05
2.5500205e-05
2.6863575e-05
2.8428564e-05
3.0228905e-05
3.2304497e-05
3.4702932e-05
3.7479203e-05
4.0698752e-05
4.4444038e-05
4.8812704e-05
5.3908115e-05
5.9856731e-05
6.6811632e-05
7.4948725e-05
8.4457215e-05
9.5560642e-05
0.00010851323
0.00012360157
0.00014114633
0.00016150528
0.00018508182
0.00021232355
0.00024373626
0.00027989628
0.00032147758
0.00036929003
0.0004243315
0.00048785551
0.00056144112
0.00064704507
0.00074703832
0.00086426526
0.0010020632
0.0010060722
0.0010068213
0.0010074662
0.0010080415
0.0010085613
0.0010089917
0.0010092888
0.0010094729
0.0010097077
0.0010102619
0.0010113723
0.0010128157
0.0010136669
0.0010127531
0.0010098031
0.0010059962
3.5576874e-07
8.6483828e-06
1.7174499e-05
2.0617781e-05
1.5406265e-05
1.6871773e-05
1.2201081e-05
1.573231e-05
1.3251604e-05
1.7379029e-05
1.616809e-05
1.7801731e-05
1.7050006e-05
1.695508e-05
1.6623492e-05
1.644383e-05
1.6326799e-05
1.6287735e-05
1.6316234e-05
1.6405482e-05
1.6554522e-05
1.6762598e-05
1.7028349e-05
1.7351958e-05
1.7735537e-05
1.8184918e-05
1.8704424e-05
1.9305225e-05
1.9999331e-05
2.0800953e-05
2.1723314e-05
2.2782017e-05
2.3997651e-05
2.539462e-05
2.7003513e-05
2.8860394e-05
3.1008626e-05
3.3498445e-05
3.6388595e-05
3.9752925e-05
4.3682989e-05
4.8273851e-05
5.364088e-05
5.9924926e-05
6.7293765e-05
7.5926461e-05
8.60374e-05
9.7875553e-05
0.00011172742
0.00012792205
0.00014683466
0.00016890277
0.00019462681
0.00022458852
0.00025946371
0.00030004813
0.00034728904
0.0004023221
0.00046651421
0.0005415157
0.00062930396
0.00073219973
0.00085285395
0.00099417574
0.0010065506
0.0010072732
0.0010078992
0.0010084631
0.0010089752
0.0010093951
0.0010096792
0.0010098612
0.0010101378
0.0010107969
0.0010120007
0.0010133801
0.0010138623
0.0010124053
0.0010090729
0.0010051924
3.1477998e-07
8.5481232e-06
1.6622394e-05
1.9905567e-05
1.5452018e-05
1.4960443e-05
1.2836238e-05
1.452945e-05
1.3218486e-05
1.5363973e-05
1.4820407e-05
1.590997e-05
1.5387073e-05
1.5167986e-05
1.4886981e-05
1.4703056e-05
1.4590129e-05
1.4545874e-05
1.4564684e-05
1.4639295e-05
1.4768762e-05
1.4952543e-05
1.5189574e-05
1.5480124e-05
1.5824998e-05
1.6230693e-05
1.6700805e-05
1.7244232e-05
1.7872008e-05
1.8597793e-05
1.9434274e-05
2.0395745e-05
2.1501489e-05
2.2774103e-05
2.4242212e-05
2.5939508e-05
2.7906789e-05
3.019176e-05
3.2849609e-05
3.5948229e-05
3.9576394e-05
4.3825538e-05
4.8805715e-05
5.4650758e-05
6.152698e-05
6.9610871e-05
7.9114941e-05
9.0289787e-05
0.00010342744
0.00011886954
0.00013700892
0.00015831207
0.00018331881
0.00021266355
0.00024708649
0.00028745794
0.00033480595
0.00039034273
0.00045548827
0.00053190298
0.00062152788
0.0007266118
0.0008496708
0.00099329824
0.0010070516
0.0010077453
0.0010083514
0.0010089022
0.0010094029
0.0010098075
0.0010100775
0.0010102659
0.0010106024
0.001011385
0.0010126684
0.001013922
0.0010139496
0.001011867
0.0010082125
0.0010043832
2.8555694e-07
8.4945543e-06
1.6163422e-05
1.8210059e-05
1.3517112e-05
1.3021403e-05
1.0580318e-05
1.2335179e-05
1.1087707e-05
1.3767454e-05
1.3564419e-05
1.417193e-05
1.3797406e-05
1.3512796e-05
1.3269234e-05
1.3094836e-05
1.2990561e-05
1.294831e-05
1.2964425e-05
1.3031952e-05
1.3149926e-05
1.3318086e-05
1.3534906e-05
1.3803358e-05
1.412193e-05
1.4495953e-05
1.493032e-05
1.5432614e-05
1.6012706e-05
1.6683741e-05
1.7458253e-05
1.8349724e-05
1.937667e-05
2.056056e-05
2.1928874e-05
2.3513937e-05
2.5355105e-05
2.7498934e-05
2.9999339e-05
3.2920284e-05
3.634939e-05
4.0377477e-05
4.5113342e-05
5.0686521e-05
5.7265632e-05
6.5029027e-05
7.419124e-05
8.5008168e-05
9.7779653e-05
0.00011286176
0.00013066372
0.00015167676
0.00017647145
0.00020572062
0.0002402088
0.00028085235
0.00032872389
0.00038507268
0.00045133824
0.00052916744
0.00062044872
0.00072735973
0.00085232843
0.00099770032
0.00100757
0.0010082342
0.0010088204
0.0010093568
0.0010098414
0.0010102258
0.0010104823
0.0010106924
0.0010111158
0.0010120394
0.0010133666
0.0010144069
0.0010139354
0.0010111196
0.0010072475
0.0010035917
2.6234504e-07
8.4624381e-06
1.561421e-05
1.6181791e-05
1.1271706e-05
1.1663048e-05
8.9049396e-06
1.092647e-05
1.0142354e-05
1.2269018e-05
1.2379624e-05
1.2585539e-05
1.2301273e-05
1.1997076e-05
1.1783259e-05
1.1626301e-05
1.1534321e-05
1.1498898e-05
1.151713e-05
1.1582828e-05
1.1694609e-05
1.1853808e-05
1.2058542e-05
1.223396e-05
1.2524617e-05
1.2868978e-05
1.3270823e-05
1.3737068e-05
1.4276416e-05
1.4901309e-05
1.5624205e-05
1.645791e-05
1.7420398e-05
1.8532238e-05
1.9820135e-05
2.1315521e-05
2.3056839e-05
2.5089996e-05
2.7468981e-05
3.0490641e-05
3.3791779e-05
3.7681333e-05
4.2269802e-05
4.7684082e-05
5.4096581e-05
6.1690373e-05
7.0684288e-05
8.1341538e-05
9.3970567e-05
0.00010894307
0.00012668341
0.00014770474
0.00017260259
0.00020207964
0.00023695353
0.00027817159
0.0003268312
0.0003841968
0.00045171267
0.0005310168
0.00062396814
0.00073269265
0.00085951705
0.001006509
0.0010081041
0.0010087385
0.0010093049
0.0010098246
0.0010102876
0.0010106475
0.0010108967
0.0010111524
0.0010116951
0.0010127621
0.0010140656
0.0010147283
0.0010135388
0.0010101704
0.0010062145
0.0010028349
2.3592742e-07
8.423447e-06
1.5004047e-05
1.4559326e-05
9.3239796e-06
1.0406311e-05
7.9947934e-06
9.7170009e-06
9.3587199e-06
1.0969749e-05
1.1244509e-05
1.115194e-05
1.0915009e-05
1.0622681e-05
1.0433985e-05
1.0297407e-05
1.0219493e-05
1.0193309e-05
1.0152149e-05
1.020326e-05
1.0301481e-05
1.0446378e-05
1.0636255e-05
1.0869906e-05
1.1151413e-05
1.1483389e-05
1.1869665e-05
1.2316992e-05
1.2833503e-05
1.343127e-05
1.4123136e-05
1.4921638e-05
1.5844685e-05
1.6912449e-05
1.8151452e-05
1.959286e-05
2.1274977e-05
2.3243782e-05
2.5554249e-05
2.827183e-05
3.147437e-05
3.5259558e-05
3.9741727e-05
4.543297e-05
5.1775854e-05
5.9311883e-05
6.8266055e-05
7.8910165e-05
9.1561625e-05
0.00010660913
0.00012449153
0.00014574226
0.0001709786
0.00020092786
0.00023643472
0.00027847091
0.00032815047
0.00038674429
0.00045569708
0.00053665344
0.00063148379
0.00074227913
0.00087117642
0.0010079923
0.0010086509
0.001009256
0.0010098019
0.0010103016
0.001010737
0.0010110718
0.0010113283
0.0010116631
0.0010123557
0.0010135401
0.0010147186
0.0010148549
0.001012871
0.0010090427
0.0010051561
0.0010021236
2.1553705e-07
8.3797152e-06
1.30296e-05
1.2414802e-05
7.8324301e-06
9.2529974e-06
7.2408825e-06
8.6823714e-06
8.6764966e-06
9.8114164e-06
1.0148134e-05
9.8606453e-06
9.6460558e-06
9.3820824e-06
9.2157711e-06
9.0342696e-06
8.9460064e-06
8.914607e-06
8.932545e-06
8.9964205e-06
9.1021866e-06
9.2502288e-06
9.4399847e-06
9.6707423e-06
9.9462355e-06
1.0269864e-05
1.0645502e-05
1.107991e-05
1.1580852e-05
1.2160018e-05
1.2830729e-05
1.3605474e-05
1.4502344e-05
1.554134e-05
1.6749089e-05
1.8156888e-05
1.9803327e-05
2.1734948e-05
2.4007505e-05
2.6687335e-05
2.9854725e-05
3.3607896e-05
3.8067197e-05
4.3364964e-05
4.966927e-05
5.7184028e-05
6.6732505e-05
7.7481537e-05
9.0288797e-05
0.00010556148
0.00012375325
0.00014541785
0.00017119327
0.00020182938
0.00023819582
0.00028128763
0.00033223581
0.00039231969
0.00046298878
0.00054590805
0.00064298363
0.00075625086
0.00088752623
0.0010085782
0.0010092077
0.0010097839
0.0010103077
0.0010107824
0.0010111856
0.0010115012
0.0010117912
0.0010122441
0.0010131047
0.0010143384
0.0010152811
0.0010147324
0.0010118894
0.0010077819
0.0010041153
0.0010014784
1.9811271e-07
8.3384106e-06
1.0670235e-05
1.0423946e-05
6.9698565e-06
8.224157e-06
6.5875813e-06
7.7791544e-06
8.0876775e-06
8.7772892e-06
9.0811129e-06
8.696715e-06
8.4916572e-06
8.1794021e-06
8.0026882e-06
7.8874855e-06
7.8298943e-06
7.8215428e-06
7.8564458e-06
7.9320575e-06
8.0453312e-06
8.1972122e-06
8.3881637e-06
8.6177713e-06
8.8900439e-06
9.2088012e-06
9.5780467e-06
1.0004706e-05
1.0496318e-05
1.1064216e-05
1.1722241e-05
1.2483117e-05
1.3365293e-05
1.4388809e-05
1.558064e-05
1.6972533e-05
1.8603714e-05
2.0521714e-05
2.2783888e-05
2.5458532e-05
2.8627881e-05
3.2392051e-05
3.6877437e-05
4.2219866e-05
4.8593964e-05
5.6210714e-05
6.5321951e-05
7.620496e-05
9.0024169e-05
0.00010566094
0.00012431975
0.00014657561
0.00017308877
0.0002046323
0.00024210149
0.00028651621
0.00033902837
0.00040093517
0.00047370365
0.00055902299
0.000658806
0.00077494511
0.00090883116
0.0010091705
0.001009771
0.0010103185
0.0010108168
0.001011261
0.0010116317
0.0010119443
0.0010123055
0.0010129129
0.0010139308
0.0010150957
0.0010155848
0.0010141926
0.001010626
0.0010064515
0.0010031363
0.0010008909
1.8235985e-07
8.2895594e-06
8.7540589e-06
9.2433843e-06
6.2407628e-06
7.3078135e-06
6.0195243e-06
6.9981018e-06
7.5417837e-06
7.8344011e-06
8.040933e-06
7.5567972e-06
7.3095966e-06
7.0890589e-06
6.9559507e-06
6.8766129e-06
6.8458582e-06
6.8578978e-06
6.9078934e-06
6.9945524e-06
7.1155293e-06
7.2721593e-06
7.4658524e-06
7.6965838e-06
7.9684503e-06
8.2857337e-06
8.6527129e-06
9.0765436e-06
9.5647446e-06
1.0128354e-05
1.0723088e-05
1.1469885e-05
1.2337811e-05
1.3346897e-05
1.4524438e-05
1.5902646e-05
1.7521426e-05
1.9429343e-05
2.1685462e-05
2.4360302e-05
2.7539058e-05
3.1576405e-05
3.6135188e-05
4.1578911e-05
4.8088112e-05
5.588111e-05
6.522535e-05
7.6413751e-05
8.9806043e-05
0.00010583435
0.00012614821
0.00014918245
0.00017664793
0.0002093437
0.00024819323
0.00029424382
0.00034867289
0.000412808
0.00048815082
0.00057640038
0.00067937753
0.00079868653
0.00093526997
0.0010097652
0.0010103367
0.0010108549
0.0010113227
0.001011732
0.0010120779
0.001012417
0.001012895
0.0010136802
0.0010147968
0.0010157794
0.0010156127
0.0010132178
0.0010091378
0.0010051207
0.0010022596
0.0010004191
1.6849704e-07
8.2248059e-06
7.1986696e-06
8.1475324e-06
5.5871075e-06
6.4856961e-06
5.5244408e-06
6.3074436e-06
6.9969173e-06
6.955852e-06
6.9098112e-06
6.4967209e-06
6.2950501e-06
6.1308059e-06
6.0355473e-06
5.9867749e-06
5.9795343e-06
6.0098929e-06
6.074037e-06
6.1716042e-06
6.3009554e-06
6.4636585e-06
6.6619138e-06
6.8962131e-06
7.1707461e-06
7.4558245e-06
7.8177214e-06
8.2366684e-06
8.7200955e-06
9.2786703e-06
9.9251118e-06
1.0676041e-05
1.15497e-05
1.2566509e-05
1.3754542e-05
1.5147013e-05
1.6785178e-05
1.8719317e-05
2.1011099e-05
2.3734285e-05
2.6978302e-05
3.0853238e-05
3.5490905e-05
4.1044199e-05
4.7701437e-05
5.6179607e-05
6.5849374e-05
7.7450204e-05
9.1355838e-05
0.00010802426
0.00012798422
0.00015328438
0.00018194381
0.00021607116
0.00025662144
0.0003046731
0.00036143362
0.00042827101
0.00050672932
0.00059847144
0.00070508207
0.00082772442
0.00096702452
0.0010103576
0.0010108993
0.0010113859
0.0010118182
0.0010121932
0.0010125341
0.0010129424
0.0010135793
0.0010145375
0.0010156183
0.001016197
0.0010151228
0.0010118367
0.0010075175
0.0010038581
0.0010014741
0.0010001645
1.5617897e-07
8.1453652e-06
5.9188722e-06
7.1597847e-06
4.9903379e-06
5.7444732e-06
5.0983162e-06
5.6869995e-06
6.3544327e-06
5.9576958e-06
5.8884851e-06
5.5681787e-06
5.4081652e-06
5.2900008e-06
5.2274759e-06
5.2054052e-06
5.2193639e-06
5.2668346e-06
5.3448379e-06
5.45372e-06
5.5925633e-06
5.7630783e-06
5.9411876e-06
6.1756879e-06
6.4506295e-06
6.7696765e-06
7.1393891e-06
7.5666203e-06
8.059065e-06
8.6276897e-06
9.2854983e-06
1.0049039e-05
1.0938118e-05
1.1973812e-05
1.3185181e-05
1.4606752e-05
1.6281599e-05
1.8262138e-05
2.0613259e-05
2.3412874e-05
2.6754677e-05
3.0753619e-05
3.5552591e-05
4.1311972e-05
4.8230963e-05
5.655103e-05
6.6563275e-05
7.8603861e-05
9.3892776e-05
0.00011136516
0.00013230851
0.0001573747
0.00018910402
0.00022498241
0.00026760012
0.00031807243
0.00037764213
0.00044771683
0.00052985935
0.00062561145
0.00073618019
0.00086222711
0.0010045915
0.0010109417
0.0010114513
0.0010119027
0.0010122972
0.0010126484
0.0010130189
0.0010135473
0.0010143661
0.0010154438
0.0010163521
0.0010162816
0.0010141273
0.0010101303
0.0010058783
0.0010027198
0.0010008048
0.0010000497
1.4524101e-07
8.0278886e-06
4.8891331e-06
6.2703336e-06
4.4518003e-06
5.0795111e-06
4.7345039e-06
5.0557933e-06
5.5603666e-06
5.0940838e-06
4.9910778e-06
4.7547439e-06
4.6332797e-06
4.5538727e-06
4.520515e-06
4.522654e-06
4.5565037e-06
4.6205928e-06
4.7127296e-06
4.8147706e-06
4.9584063e-06
5.1338999e-06
5.343272e-06
5.5891905e-06
5.8755763e-06
6.2065101e-06
6.5884938e-06
7.0291083e-06
7.5363479e-06
8.1214503e-06
8.7976836e-06
9.5820174e-06
1.0444939e-05
1.149922e-05
1.273367e-05
1.4184128e-05
1.5895729e-05
1.7923131e-05
2.0334566e-05
2.3212729e-05
2.6656756e-05
3.1026179e-05
3.6035859e-05
4.2061472e-05
4.9314065e-05
5.8047616e-05
6.8576374e-05
8.1261414e-05
9.6525126e-05
0.00011592589
0.00013807273
0.0001645969
0.0001962854
0.00023628345
0.00028138451
0.0003347524
0.00039767081
0.00047156502
0.00055794299
0.00065810222
0.00077279163
0.00090244239
0.0010109876
0.00101151
0.0010119839
0.0010123967
0.0010127581
0.0010131114
0.0010135597
0.0010142546
0.0010152472
0.0010162901
0.0010167943
0.0010157585
0.0010126051
0.0010082295
0.0010043304
0.0010017521
0.0010002628
0.0010000039
1.3550307e-07
7.7740546e-06
4.103612e-06
5.473479e-06
3.9689935e-06
4.487043e-06
4.4125451e-06
4.3720973e-06
4.7639348e-06
4.3240069e-06
4.2103291e-06
4.0441393e-06
3.9592022e-06
3.9136172e-06
3.9069202e-06
3.931568e-06
3.984507e-06
4.0483474e-06
4.1494077e-06
4.2792611e-06
4.4386402e-06
4.6288821e-06
4.8527244e-06
5.1130451e-06
5.4143907e-06
5.7611548e-06
6.1599656e-06
6.5976501e-06
7.1193715e-06
7.7205032e-06
8.4145322e-06
9.2186569e-06
1.0153761e-05
1.1245975e-05
1.2526022e-05
1.4031594e-05
1.5810863e-05
1.7921711e-05
2.0436592e-05
2.3444503e-05
2.705166e-05
3.1390225e-05
3.6616319e-05
4.2918255e-05
5.0522335e-05
6.020477e-05
7.1365532e-05
8.4832504e-05
0.00010106157
0.00012058768
0.00014538853
0.00017366416
0.00020745405
0.00024769293
0.00029826068
0.00035505659
0.00042191923
0.00050024031
0.0005913448
0.00069614491
0.00081504411
0.00094916007
0.0010115622
0.0010120536
0.0010124879
0.0010128629
0.0010132082
0.0010136055
0.0010141864
0.0010150632
0.0010161523
0.0010169989
0.0010167914
0.0010146529
0.0010106738
0.001006304
0.0010029638
0.0010009674
0.00100004
0.00099998195
1.2690107e-07
7.3536825e-06
3.6147652e-06
4.7632788e-06
3.5343645e-06
3.9596933e-06
3.9085424e-06
3.7538121e-06
3.9986789e-06
3.6428775e-06
3.538988e-06
3.4294007e-06
3.3785722e-06
3.3629536e-06
3.380678e-06
3.4135258e-06
3.4786096e-06
3.5717608e-06
3.6921446e-06
3.8399169e-06
4.0164332e-06
4.2235666e-06
4.4645064e-06
4.7424557e-06
5.0501181e-06
5.4127696e-06
5.828372e-06
6.3046486e-06
6.8513544e-06
7.4800532e-06
8.2047895e-06
9.0437589e-06
1.0019078e-05
1.1158331e-05
1.2495122e-05
1.4069284e-05
1.5932692e-05
1.8147323e-05
2.0790283e-05
2.3958322e-05
2.7764523e-05
3.2351314e-05
3.7890053e-05
4.4582742e-05
5.2675872e-05
6.2463345e-05
7.495939e-05
8.9364445e-05
0.00010674465
0.00012768598
0.000152844
0.0001847352
0.00022101326
0.0002642015
0.00031538916
0.00037935526
0.00045080105
0.00053414656
0.00063036823
0.00073993272
0.00086344209
0.0010042304
0.0010121104
0.0010125639
0.0010129563
0.0010133034
0.0010136664
0.0010141593
0.0010149142
0.0010159545
0.0010169882
0.001017395
0.0010161579
0.0010129347
0.0010085158
0.001004515
0.0010018355
0.0010003078
0.00099995307
0.00099997374
1.1953882e-07
7.0179871e-06
3.1868195e-06
4.12389e-06
3.1472571e-06
3.340633e-06
3.4653331e-06
3.1896556e-06
3.3063922e-06
3.0507239e-06
2.9690064e-06
2.9044639e-06
2.8845174e-06
2.8956977e-06
2.9209906e-06
2.9822164e-06
3.0704893e-06
3.1846026e-06
3.3246095e-06
3.4913966e-06
3.6868793e-06
3.9132331e-06
4.1655431e-06
4.4613596e-06
4.7995284e-06
5.1855352e-06
5.625981e-06
6.1289914e-06
6.7046523e-06
7.3654956e-06
8.1262412e-06
9.0061805e-06
1.0028852e-05
1.1223785e-05
1.2570978e-05
1.4212527e-05
1.615919e-05
1.8477859e-05
2.138236e-05
2.4741871e-05
2.8786679e-05
3.3670078e-05
3.9580615e-05
4.6737681e-05
5.5408354e-05
6.5915026e-05
7.8640472e-05
9.4036146e-05
0.00011364225
0.00013625109
0.00016343765
0.00019602666
0.00023717504
0.00028381961
0.00033904344
0.00040803952
0.0004847245
0.00057362292
0.00067522827
0.00078980218
0.00091929125
0.0010121562
0.0010126218
0.0010130327
0.0010133879
0.0010137309
0.0010141602
0.0010148058
0.0010157407
0.0010168195
0.00101758
0.0010171807
0.0010148336
0.0010107684
0.00100636
0.0010029769
0.0010009704
0.0010000164
0.00099993387
0.00099997218
1.1355018e-07
5.7103095e-06
2.814518e-06
3.5401673e-06
2.8122686e-06
2.7707913e-06
3.0269227e-06
2.6810082e-06
2.7098528e-06
2.5435785e-06
2.4896517e-06
2.4618758e-06
2.4624272e-06
2.4909451e-06
2.5500682e-06
2.6358069e-06
2.7462928e-06
2.8813295e-06
3.0417255e-06
3.2288194e-06
3.4396745e-06
3.6853526e-06
3.9658001e-06
4.2849569e-06
4.6475436e-06
5.0593097e-06
5.5272719e-06
6.0600065e-06
6.6680779e-06
7.347602e-06
8.1432853e-06
9.0627119e-06
1.0130873e-05
1.1378979e-05
1.2845892e-05
1.4579931e-05
1.6640348e-05
1.910072e-05
2.2051408e-05
2.5602736e-05
2.9890015e-05
3.5334123e-05
4.1678468e-05
4.9378754e-05
5.8725555e-05
7.0071568e-05
8.3837176e-05
0.0001005204
0.00012181733
0.00014637467
0.0001759312
0.00021137186
0.00025615541
0.00030682513
0.00036674032
0.00043714632
0.00052405276
0.0006188935
0.00072608135
0.00084649247
0.00098504755
0.0010126552
0.0010130848
0.0010134552
0.0010137898
0.0010141715
0.0010147226
0.001015542
0.0010165988
0.001017552
0.0010178022
0.0010163183
0.0010128733
0.0010084012
0.0010044126
0.0010017534
0.0010002767
0.00099990888
0.00099992817
0.00099997325
1.0816277e-07
4.2350411e-06
2.4607828e-06
2.999706e-06
2.3876612e-06
2.2943198e-06
2.5678566e-06
2.2282138e-06
2.2108883e-06
2.1148718e-06
2.0912395e-06
2.0883977e-06
2.1164797e-06
2.1748683e-06
2.2595825e-06
2.3683375e-06
2.5004772e-06
2.6564931e-06
2.8349681e-06
3.0419085e-06
3.2782682e-06
3.546827e-06
3.8509769e-06
4.1948642e-06
4.5835125e-06
5.0230043e-06
5.5207517e-06
6.0760962e-06
6.7159093e-06
7.4473367e-06
8.2876603e-06
9.2583256e-06
1.0386338e-05
1.1705545e-05
1.3258251e-05
1.5096951e-05
1.728653e-05
1.9907171e-05
2.3057859e-05
2.6860276e-05
3.1463547e-05
3.7049139e-05
4.4168332e-05
5.2493686e-05
6.2620992e-05
7.4938267e-05
8.9908655e-05
0.00010808217
0.00013010547
0.00015813859
0.00019044358
0.00022919274
0.00027545316
0.00033349429
0.00039881268
0.00047527172
0.00056904017
0.00067005878
0.00078323843
0.00091160047
0.001012669
0.0010131045
0.0010134933
0.0010138345
0.0010141823
0.001014653
0.0010153699
0.0010163521
0.001017392
0.0010180167
0.0010173084
0.0010147156
0.001010503
0.0010061129
0.0010027988
0.0010008714
0.00099997208
0.00099989918
0.00099993001
0.0009999751
1.0288123e-07
3.4770688e-06
2.1088831e-06
2.502279e-06
2.0399086e-06
1.8950615e-06
2.0967583e-06
1.8307026e-06
1.8033602e-06
1.7611995e-06
1.7636575e-06
1.791235e-06
1.8504735e-06
1.9352166e-06
2.0431491e-06
2.1734284e-06
2.3263077e-06
2.5009425e-06
2.7020623e-06
2.9307633e-06
3.189538e-06
3.481415e-06
3.8100294e-06
4.1797459e-06
4.5958352e-06
5.0646969e-06
5.5875706e-06
6.1843481e-06
6.8624639e-06
7.6366604e-06
8.5255059e-06
9.5521963e-06
1.0745912e-05
1.2143321e-05
1.3790514e-05
1.5745056e-05
1.8078178e-05
2.0877782e-05
2.4252615e-05
2.833617e-05
3.3292735e-05
3.9611705e-05
4.7021825e-05
5.6054882e-05
6.7069942e-05
8.0496321e-05
9.684691e-05
0.00011673035
0.0001421706
0.00017160026
0.00020706739
0.00024962141
0.00030041142
0.0003640689
0.00043553781
0.00051870715
0.00061971787
0.00072711914
0.00084751182
0.00098789193
0.0010130942
0.0010134951
0.0010138472
0.0010141828
0.0010145924
0.0010152042
0.0010160915
0.0010171459
0.0010179699
0.0010179262
0.0010161482
0.0010125351
0.0010080235
0.0010041254
0.0010015709
0.001000192
0.0009998747
0.00099989754
0.0009999342
0.00099997705
9.8941155e-08
2.7875428e-06
1.8011858e-06
2.0015018e-06
1.7524246e-06
1.5533928e-06
1.6610006e-06
1.493448e-06
1.4813923e-06
1.4820646e-06
1.5109942e-06
1.5711017e-06
1.6565857e-06
1.7640434e-06
1.8926106e-06
2.0425349e-06
2.2137915e-06
2.4094805e-06
2.6311801e-06
2.8812089e-06
3.1623391e-06
3.4778222e-06
3.8314826e-06
4.2278728e-06
4.6724847e-06
5.1683119e-06
5.7290922e-06
6.3625677e-06
7.0812573e-06
7.900916e-06
8.8415855e-06
9.9283597e-06
1.1192877e-05
1.2674904e-05
1.442447e-05
1.6504471e-05
1.8993472e-05
2.1987816e-05
2.5607548e-05
2.9999942e-05
3.5582496e-05
4.2158289e-05
5.0190282e-05
6.0010158e-05
7.2016855e-05
8.6690051e-05
0.00010460186
0.00012643085
0.00015435308
0.00018675127
0.00022582948
0.00027272636
0.00032868539
0.00039867381
0.0004770051
0.00056736338
0.0006757519
0.00079004992
0.00092046385
0.0010130616
0.0010134635
0.0010138249
0.0010141562
0.0010145235
0.0010150454
0.0010158286
0.0010168426
0.0010177988
0.001018238
0.0010171804
0.00097698413
0.0009655689
0.0010057324
0.0010025406
0.0010007352
0.0009999197
0.00099987351
0.00099990201
0.00099993877
0.00099997886
9.6622494e-08
2.1732492e-06
1.5338695e-06
1.525005e-06
1.4875203e-06
1.2615898e-06
1.3050183e-06
1.2235736e-06
1.2389422e-06
1.2701317e-06
1.3319532e-06
1.4177329e-06
1.5245363e-06
1.6510981e-06
1.7977209e-06
1.9654511e-06
2.1551849e-06
2.3699051e-06
2.6114762e-06
2.8824776e-06
3.185873e-06
3.5250884e-06
3.9041192e-06
4.3276976e-06
4.8015209e-06
5.3325622e-06
5.9294684e-06
6.603043e-06
7.3580445e-06
8.2253272e-06
9.2204416e-06
1.0370547e-05
1.170997e-05
1.3281918e-05
1.5140606e-05
1.7426478e-05
2.0100947e-05
2.332617e-05
2.7235045e-05
3.1991599e-05
3.779763e-05
4.4900414e-05
5.3603284e-05
6.4275404e-05
7.7364091e-05
9.3408471e-05
0.00011305233
0.00013825876
0.00016772218
0.00020346998
0.00024663174
0.00029844915
0.00036367296
0.00043728947
0.00052308394
0.00062084524
0.00073667574
0.00085942952
0.0010047591
0.0010133967
0.0010137658
0.0010140983
0.0010144382
0.0010148847
0.0010155577
0.0010164915
0.0010175263
0.0010182515
0.0010178524
0.0010033813
0.00084294683
0.00100763
0.0010038286
0.0010013915
0.001000107
0.00099985023
0.00099987545
0.00099990801
0.00099994306
0.00099998044
9.6678163e-08
1.6511319e-06
1.3078073e-06
1.1601108e-06
1.2206588e-06
1.0171779e-06
1.042849e-06
1.0235329e-06
1.0670825e-06
1.1274393e-06
1.2131101e-06
1.3184079e-06
1.4423348e-06
1.5850939e-06
1.7477938e-06
1.9319851e-06
2.1392555e-06
2.3722224e-06
2.6331348e-06
2.9247349e-06
3.2501329e-06
3.6129047e-06
4.0172147e-06
4.4679946e-06
4.9711863e-06
5.5340717e-06
6.1657094e-06
6.8774852e-06
7.6838004e-06
8.602949e-06
9.6581596e-06
1.0878977e-05
1.2302786e-05
1.397679e-05
1.5960328e-05
1.8327777e-05
2.1172164e-05
2.4609845e-05
2.8785582e-05
3.3879415e-05
4.0114512e-05
4.7765874e-05
5.7169447e-05
6.8738478e-05
8.2974671e-05
0.0001013211
0.0001229951
0.00014955665
0.00018200682
0.00022147774
0.0002692229
0.00032968254
0.00039863091
0.00047987504
0.00057365678
0.00068552196
0.00080283789
0.000937537
0.0010133057
0.0010136709
0.0010140029
0.0010143265
0.0010147142
0.001015278
0.0010161095
0.0010171507
0.0010180348
0.0010182607
0.0010169563
0.00079018736
0.00081923382
0.0010054726
0.0010023605
0.0010006443
0.00099987926
0.00099985334
0.00099988163
0.00099991388
0.00099994681
0.00099998179
9.9899775e-08
1.2236059e-06
1.1201548e-06
8.9335783e-07
1.0653557e-06
8.1508051e-07
8.6245528e-07
8.8758648e-07
9.5371236e-07
1.0369918e-06
1.1400176e-06
1.2604261e-06
1.3986607e-06
1.5557789e-06
1.7333174e-06
1.9330715e-06
2.1570807e-06
2.4074842e-06
2.6870301e-06
2.9985047e-06
3.345156e-06
3.730718e-06
4.1595426e-06
4.6367882e-06
5.1686752e-06
5.7628339e-06
6.428771e-06
7.1785078e-06
8.0273013e-06
8.9946262e-06
1.0105259e-05
1.1390812e-05
1.2891365e-05
1.4657613e-05
1.675341e-05
1.9258988e-05
2.2274869e-05
2.5926755e-05
3.037155e-05
3.580485e-05
4.2763275e-05
5.1029226e-05
6.1215242e-05
7.3784398e-05
8.9302828e-05
0.00010845877
0.00013208026
0.00016114675
0.000196788
0.00024254036
0.00029573669
0.00035986186
0.00043642998
0.00052626343
0.00063474484
0.00074871065
0.00087578581
0.0010131979
0.0010135459
0.0010138766
0.0010141821
0.0010145224
0.0010149999
0.0010157149
0.0010166711
0.0010176757
0.0010183721
0.0010177657
0.00081067241
0.00070883884
0.0008688952
0.0010037563
0.0010013366
0.001000076
0.00099982947
0.00099985739
0.00099988845
0.00099991904
0.00099994998
0.00099998294
1.0637841e-07
9.4618614e-07
9.5603643e-07
7.5586126e-07
7.5943582e-07
6.9583703e-07
7.4136681e-07
8.0140984e-07
8.8464444e-07
9.8397096e-07
1.1001343e-06
1.2331122e-06
1.3840365e-06
1.5543038e-06
1.7455979e-06
1.9598043e-06
2.199035e-06
2.4656521e-06
2.7623093e-06
3.0920052e-06
3.4581561e-06
3.8646988e-06
4.3162313e-06
4.8182148e-06
5.3772512e-06
5.9993163e-06
6.6975587e-06
7.4833213e-06
8.380354e-06
9.3975556e-06
1.0566566e-05
1.1921307e-05
1.3504789e-05
1.5371412e-05
1.7589755e-05
2.0246037e-05
2.3448438e-05
2.7332502e-05
3.2067879e-05
3.7866845e-05
4.4994869e-05
5.378352e-05
6.4645623e-05
7.8091246e-05
9.4751284e-05
0.00011539592
0.00014221202
0.00017402032
0.00021314535
0.00026105781
0.00031946763
0.00039027773
0.00047511218
0.0005796138
0.00069153328
0.00081412816
0.00095396588
0.0010134082
0.001013732
0.0010140253
0.0010143212
0.0010147078
0.0010152968
0.0010161457
0.0010172003
0.0010180891
0.0010182439
0.00092899089
0.00066929608
0.00069548242
0.00097992507
0.0010024692
0.0010006922
0.00099986682
0.00099983454
0.00099986402
0.00099989467
0.00099992325
0.00099995264
0.00099998391
1.208012e-07
9.4509152e-07
7.9733953e-07
5.6039741e-07
6.0375944e-07
6.0687649e-07
6.7044397e-07
7.4912575e-07
8.4580866e-07
9.5730876e-07
1.0846859e-06
1.2288304e-06
1.3911156e-06
1.5730507e-06
1.7763713e-06
2.0030207e-06
2.2551816e-06
2.5353086e-06
2.8461699e-06
3.190901e-06
3.5730768e-06
3.9968141e-06
4.4669154e-06
4.989074e-06
5.5701633e-06
6.2186354e-06
6.945054e-06
7.7627896e-06
8.6889108e-06
9.7452665e-06
1.0959799e-05
1.2368198e-05
1.401581e-05
1.5960079e-05
1.82735e-05
2.104733e-05
2.4396222e-05
2.8464021e-05
3.3431114e-05
3.9523768e-05
4.7025997e-05
5.6700756e-05
6.8270231e-05
8.2626232e-05
0.00010046481
0.00012263705
0.00015016226
0.00018422616
0.00022618525
0.00027762617
0.0003405092
0.00042096247
0.00051367963
0.00062126816
0.00074033517
0.00087091904
0.0010132826
0.0010135853
0.001013875
0.001014139
0.0010144385
0.0010148893
0.0010156143
0.0010062868
0.0010175694
0.0010183501
0.0010178369
0.00071900748
0.00060981509
0.00072184359
0.0010042388
0.0010015626
0.001000207
0.0009998096
0.00099983869
0.00099987072
0.0009998996
0.00099992662
0.00099995481
0.00099998469
1.1046918e-07
6.0680724e-07
6.3183311e-07
4.6415957e-07
5.0673688e-07
5.5243119e-07
6.3093775e-07
7.2316029e-07
8.3048742e-07
9.5231053e-07
1.0897706e-06
1.2439962e-06
1.4163975e-06
1.6085528e-06
1.8222512e-06
2.059509e-06
2.3225977e-06
2.6140469e-06
2.9367866e-06
3.2940699e-06
3.6896239e-06
4.1277375e-06
4.6134093e-06
5.1525583e-06
5.7523232e-06
6.4214754e-06
7.1709744e-06
8.0146998e-06
8.9776985e-06
1.0071464e-05
1.1330192e-05
1.2791378e-05
1.4502661e-05
1.6524416e-05
1.8932888e-05
2.182416e-05
2.5319069e-05
2.9569443e-05
3.4766036e-05
4.1148683e-05
4.90192e-05
5.8757494e-05
7.0841387e-05
8.5872453e-05
0.00010460125
0.00012794941
0.00015701054
0.00019472541
0.00023940778
0.00029411703
0.00036100283
0.00044265362
0.00054088619
0.00065423617
0.00077872162
0.00091681138
0.0010134447
0.0010137319
0.001013994
0.0010142478
0.0010145678
0.0010150732
0.00098530724