/*--------------------------------*- C++ -*----------------------------------*\
  =========                 |
  \\      /  F ield         | OpenFOAM: The Open Source CFD Toolbox
   \\    /   O peration     | Website:  https://openfoam.org
    \\  /    A nd           | Version:  12
     \\/     M anipulation  |
\*---------------------------------------------------------------------------*/
FoamFile
{
    format      ascii;
    class       volScalarField;
    location    "0.006";
    object      p;
}
// * * * * * * * * * * * * * * * * * * * * * * * * * * * * * * * * * * * * * //

dimensions      [1 -1 -2 0 0 0 0];

internalField   nonuniform List<scalar> 
16000
(
86673.982
86803.676
86814.383
86951.439
86978.402
87106.581
87159.094
87276.524
87352.756
87465.072
87559.608
87672.572
87781.361
87899.344
88019.586
88145.543
88275.884
88411.215
88551.426
88696.611
88846.788
89001.969
89162.137
89327.257
89497.263
89672.064
89851.534
90035.519
90223.828
90416.235
90612.48
90812.262
91015.244
91221.052
91429.279
91639.482
91851.195
92063.927
92277.169
92490.406
92703.12
92914.801
93124.959
93333.133
93538.902
93741.9
93941.833
94138.488
94331.76
94521.659
94708.337
94892.103
95073.442
95253.035
95431.771
95610.749
95791.263
95974.779
96162.874
96357.164
96559.188
96770.295
96991.521
97223.485
97466.327
97719.875
97984.35
98261.547
98554.879
98865.502
99185.421
99501.027
99827.422
100251.06
100903.76
101792.28
102629.4
102938.61
102451.04
101719.28
86250.659
86397.822
86406.172
86555.73
86585.289
86724.874
86780.701
86910.051
86991.055
87114.414
87216.369
87339.317
87457.484
87585.429
87716.012
87852.538
87993.838
88140.404
88292.166
88449.192
88611.491
88779.06
88951.87
89129.864
89312.952
89501.013
89693.892
89891.397
90093.299
90299.329
90509.18
90722.506
90938.922
91158.007
91379.309
91602.349
91826.626
92051.627
92276.828
92501.712
92725.769
92948.512
93169.487
93388.284
93604.546
93817.988
94028.401
94235.669
94439.779
94640.837
94839.074
95034.86
95228.712
95421.291
95613.407
95805.996
96000.11
96196.871
96397.432
96602.913
96814.342
97032.595
97258.359
97492.099
97734.088
97984.69
98245.109
98518.181
98807.344
99111.972
99422.873
99731.54
100066.37
100521.26
101211.27
102096.64
102861.28
103005
102376.75
101542.36
85962.13
86125.107
86133.715
86296.414
86326.487
86480.755
86539.348
86682.041
86769.024
86903.829
87014.605
87148.038
87276.614
87415.21
87556.943
87704.796
87857.816
88016.386
88180.47
88350.113
88525.313
88706.046
88892.257
89083.856
89280.717
89482.677
89689.53
89901.033
90116.898
90336.794
90560.346
90787.143
91016.732
91248.631
91482.329
91717.295
91952.987
92188.859
92424.367
92658.984
92892.207
93123.567
93352.644
93579.074
93802.564
94022.899
94239.948
94453.674
94664.144
94871.534
95076.133
95278.346
95478.691
95677.793
95876.373
96075.229
96275.216
96477.217
96682.11
96890.734
97103.865
97322.208
97546.395
97776.989
98014.563
98260.057
98515.474
98784.187
99069.014
99367.441
99669.949
99974.3
100321.11
100810.06
101537.28
102413.68
103080.06
103030.1
102253.74
101352.36
85785.747
85960.345
85970.325
86148.576
86178.69
86349.404
86410.752
86568.271
86661.544
86808.469
86928.635
87073.033
87212.77
87362.687
87516.385
87676.435
87842.107
88013.676
88191.118
88374.448
88563.634
88758.614
88959.285
89165.508
89377.098
89593.827
89815.42
90041.555
90271.864
90505.93
90743.295
90983.46
91225.892
91470.031
91715.297
91961.099
92206.847
92451.956
92695.861
92938.028
93177.96
93415.213
93649.404
93880.225
94107.446
94330.928
94550.618
94766.562
94978.902
95187.879
95393.838
95597.215
95798.535
95998.399
96197.468
96396.452
96596.091
96797.136
97000.332
97206.408
97416.081
97630.066
97849.092
98073.905
98305.4
98545.023
98795.35
99059.857
99340.251
99632.135
99926.539
100228.78
100592.1
101120.53
101884.33
102738.6
103269.53
103001.04
102083.25
101153.18
85690.713
85881.388
85889.22
86087.257
86117.389
86306.875
86370.142
86542.775
86642.471
86801.916
86932.508
87088.619
87240.785
87403.201
87570.192
87743.831
87923.58
88109.607
88301.873
88500.344
88704.936
88915.528
89131.953
89353.998
89581.397
89813.835
90050.944
90292.302
90537.438
90785.831
91036.919
91290.104
91544.76
91800.241
92055.892
92311.061
92565.107
92817.414
93067.405
93314.547
93558.369
93798.466
94034.511
94266.266
94493.584
94716.413
94934.797
95148.871
95358.866
95565.102
95767.987
95968.004
96165.703
96361.689
96556.608
96751.137
96945.973
97141.824
97339.41
97539.459
97742.732
97950.037
98162.228
98380.228
98605.21
98839.049
99084.699
99345.319
99621.037
99905.635
100192.03
100495.43
100882.5
101458.36
102254.15
103060.87
103407.68
102906.31
101870.19
100952.18
85651.451
85860.674
85866.619
86087.217
86116.048
86325.895
86391.41
86581.079
86689.432
86863.311
87006.721
87176.299
87342.993
87519.836
87702.054
87891.216
88086.938
88289.291
88498.197
88713.557
88935.222
89162.992
89396.614
89635.778
89880.116
90129.201
90382.545
90639.607
90899.791
91162.454
91426.917
91692.472
91958.39
92223.938
92488.388
92751.031
93011.189
93268.232
93521.59
93770.761
94015.322
94254.938
94489.368
94718.471
94942.208
95160.64
95373.925
95582.313
95786.137
95985.815
96181.833
96374.741
96565.139
96753.664
96940.984
97127.789
97314.787
97502.705
97692.295
97884.348
98079.706
98279.274
98484.004
98694.953
98913.545
99142.034
99383.534
99640.396
99910.715
100186.93
100466.11
100776.45
101197.68
101828.11
102642.49
103364.31
103477.92
102737.16
101624.38
100758.35
85656.486
85886.953
85890.915
86136.603
86163.078
86395.687
86465.929
86675.289
86794.433
86984.197
87142.846
87327.686
87511.12
87704.524
87904.095
88110.917
88324.698
88545.412
88772.919
89007.039
89247.534
89494.101
89746.374
90003.921
90266.242
90532.768
90802.87
91075.859
91350.997
91627.502
91904.567
92181.365
92457.069
92730.862
93001.956
93269.607
93533.127
93791.904
94045.41
94293.21
94534.974
94770.476
94999.599
95222.336
95438.79
95649.163
95853.752
96052.94
96247.186
96437.017
96623.017
96805.816
96986.082
97164.507
97341.803
97518.701
97695.95
97874.326
98054.641
98237.76
98424.598
98616.117
98813.321
99017.385
99230.002
99453.748
99691.575
99944.422
100208.08
100474.99
100749.7
101076.33
101544.37
102231.3
103038.3
103623.67
103454.37
102497
101359.46
100579.79
85698.707
85954.288
85955.409
86229.035
86254.613
86514.321
86590.677
86821.574
86954.184
87161.562
87338.281
87540.463
87743.009
87955.307
88174.494
88401.24
88635.288
88876.511
89124.679
89379.506
89640.627
89907.608
90179.931
90457.006
90738.165
91022.669
91309.716
91598.447
91887.961
92177.328
92465.606
92751.857
93035.165
93314.655
93589.509
93858.987
94122.434
94379.303
94629.162
94871.699
95106.723
95334.169
95554.09
95766.653
95972.135
96170.911
96363.439
96550.251
96731.943
96909.16
97082.593
97252.96
97421.002
97587.473
97753.139
97918.779
98085.191
98253.206
98423.696
98597.582
98775.813
98959.354
99149.239
99346.801
99554.047
99773.733
100008.15
100256.17
100511.59
100769.35
101045.65
101401.62
101928.64
102662.9
103423.52
103799.23
103325.84
102194.91
101091.06
100423.13
85777.443
86062.195
86059.112
86366.813
86392.027
86682.261
86766.578
87021.168
87170.321
87396.841
87594.547
87816.294
88040.386
88274.095
88515.367
88764.52
89021.264
89285.34
89556.388
89833.967
90117.546
90406.508
90700.144
90997.66
91298.184
91600.77
91904.414
92208.068
92510.659
92811.107
93108.348
93401.354
93689.157
93970.868
94245.692
94512.95
94772.09
95022.696
95264.5
95497.375
95721.334
95936.522
96143.208
96341.773
96532.697
96716.545
96893.95
97065.6
97232.228
97394.598
97553.498
97709.732
97864.107
98017.434
98170.522
98324.193
98479.287
98636.679
98797.281
98962.028
99131.853
99307.695
99490.651
99682.297
99884.956
100101.24
100332.06
100573.87
100819.68
101070.88
101359.18
101760.01
102353.89
103110.43
103773.26
103872.49
103083.09
101848.84
100834.6
100292.98
85895.638
86214.04
86207.157
86554.345
86579.515
86902.517
86996.817
87276.389
87445.645
87692.894
87914.818
88158.923
88407.444
88665.592
88931.891
89206.35
89488.563
89778.098
90074.408
90376.847
90684.662
90997
91312.908
91631.342
91951.182
92271.245
92590.306
92907.12
93220.45
93529.087
93831.883
94127.772
94415.797
94695.124
94965.067
95225.095
95474.841
95714.112
95942.877
96161.269
96369.563
96568.165
96757.595
96938.472
97111.495
97277.423
97437.06
97591.242
97740.824
97886.672
98029.657
98170.647
98310.5
98450.06
98590.167
98731.663
98875.416
99022.324
99173.302
99329.255
99491.057
99659.642
99836.267
100022.84
100221.84
100435.12
100661.5
100895.3
101131.48
101382.55
101697.91
102158.66
102816.62
103551.71
104044.2
103798.86
102738.03
101483.19
100603.85
100190.88
86051.512
86409.374
86399.635
86788.862
86815.923
87174.663
87283.089
87589.524
87783.956
88054.55
88304.718
88574.941
88851.464
89137.684
89432.463
89735.517
90046.261
90364.03
90688.026
91017.331
91350.901
91687.58
92026.111
92365.153
92703.305
93039.128
93371.178
93698.034
94018.33
94330.789
94634.25
94927.7
95210.291
95481.36
95740.438
95987.253
96221.733
96443.996
96654.336
96853.205
97041.188
97218.983
97387.378
97547.231
97699.45
97844.973
97984.753
98119.745
98250.899
98379.154
98505.434
98630.642
98755.657
98881.336
99008.521
99138.058
99270.816
99407.687
99549.55
99697.236
99851.563
100013.54
100184.72
100367.32
100563.55
100773.7
100994.06
101218.37
101447.82
101710.14
102070.89
102602.23
103301.98
103958.61
104193.13
103567.87
102312.95
101124.89
100409.37
100115.89
86245.645
86649.739
86636.832
87073.101
87105.45
87503.55
87631.928
87967.563
88193.334
88490.789
88773.657
89074.443
89383.063
89701.435
90028.533
90363.763
90706.264
91055.05
91408.976
91766.754
92126.967
92488.086
92848.498
93206.531
93560.494
93908.707
94249.545
94581.47
94903.078
95213.129
95510.581
95794.611
96064.632
96320.294
96561.486
96788.323
97001.13
97200.424
97386.882
97561.315
97724.636
97877.833
98021.946
98158.047
98287.219
98410.539
98529.065
98643.832
98755.841
98866.066
98975.447
99084.887
99195.258
99307.399
99422.132
99540.284
99662.702
99790.236
99923.69
100063.81
100211.42
100367.75
100534.69
100714.53
100908.46
101114.5
101326.91
101541.92
101772.27
102062.7
102486.36
103088.76
103780.53
104286.37
104167.16
103184.96
101844.6
100799.11
100257.14
100065.01
86481.861
86940.606
86924.982
87415.059
87456.603
87898.111
88053.494
88420.812
88684.654
89013.396
89333.786
89670.258
90015.7
90370.84
90734.521
91105.729
91483.189
91865.46
92250.931
92637.849
93024.343
93408.463
93788.213
94161.597
94526.668
94881.57
95224.596
95554.229
95869.186
96168.45
96451.29
96717.27
96966.249
97198.358
97413.982
97613.733
97798.411
97968.978
98126.512
98272.178
98407.189
98532.785
98650.208
98760.688
98865.423
98965.571
99062.243
99156.497
99249.343
99341.742
99434.611
99528.822
99625.206
99724.563
99827.676
99935.331
100048.32
100167.42
100293.35
100426.82
100568.76
100720.73
100884.88
101062.94
101254.22
101454.29
101657.5
101867.12
102111.76
102451.13
102948
103599.77
104220.55
104475.51
103933.02
102682.42
101377.22
100525.32
100148.35
100033.44
86766.648
87290.024
87272.847
87824.014
87880.08
88368.401
88559.39
88961.283
89270.613
89636.611
90000.294
90378.619
90766.491
91163.582
91568.323
91979.121
92394.127
92811.318
93228.514
93643.421
94053.673
94456.878
94850.686
95232.842
95601.258
95954.069
96289.696
96606.882
96904.727
97182.699
97440.629
97678.692
97897.372
98097.424
98279.827
98445.74
98596.457
98733.365
98857.905
98971.531
99075.688
99171.788
99261.197
99345.224
99425.112
99502.032
99577.083
99651.297
99725.64
99801.024
99878.304
99958.291
100041.76
100129.44
100222.08
100320.38
100425.06
100536.81
100656.26
100784.22
100921.87
101071.06
101233.78
101410.37
101597.61
101789.58
101984.77
102198.84
102476.87
102884.63
103455.32
104100.35
104557.98
104454.96
103501.34
102112.64
100952.77
100315.06
100077.62
100015.54
87105.174
87705.895
87689.175
88308.894
88386.435
88925.211
89162.93
89604.464
89968.114
90379.574
90793.715
91221.016
91657.408
92101.533
92551.174
93004.013
93457.495
93908.909
94355.425
94794.158
95222.242
95636.909
96035.582
96415.953
96776.067
97114.374
97429.777
97721.637
97989.777
98234.446
98456.279
98656.239
98835.556
98995.663
99138.138
99264.654
99376.929
99476.688
99565.628
99645.389
99717.538
99783.559
99844.847
99902.703
99958.338
100012.87
100067.33
100122.67
100179.79
100239.5
100302.57
100369.73
100441.68
100519.09
100602.63
100692.92
100790.57
100896.16
101010.39
101134.26
101269.3
101417.33
101579.38
101753.68
101934.83
102118.03
102311.01
102546.14
102880.41
103364.96
103977.55
104545.56
104747.78
104182.47
102915.96
101541.89
100602.06
100170.37
100036.42
100006.39
87502.355
88195.322
88180.977
88879.11
88990.252
89585.697
89884.616
90374.046
90802.119
91268.769
91741.089
92224.319
92714.605
93209.535
93706.054
94200.957
94690.832
95172.159
95641.401
96095.118
96530.087
96943.424
97332.69
97695.974
98031.94
98339.85
98619.545
98871.408
99096.298
99295.472
99470.506
99623.203
99755.523
99869.51
99967.232
100050.74
100122.04
100183.05
100235.56
100281.28
100321.77
100358.48
100392.73
100425.75
100458.65
100492.42
100528
100566.23
100607.88
100653.67
100704.26
100760.29
100822.38
100891.12
100967.1
101050.83
101142.8
101243.58
101354.04
101475.53
101609.73
101757.8
101918.84
102088.82
102262.12
102439.8
102643.46
102920.73
103328.43
103883.6
104481.21
104854.55
104674.14
103677.91
102250.58
101031.39
100341.35
100081.72
100015.04
100002.24
87967.893
88771.132
88765.413
89557.551
89717.881
90379.377
90755.538
91302.69
91804.964
92336.405
92873.916
93418.7
93966.41
94513.389
95055.441
95588.219
96107.291
96608.307
97087.182
97540.259
97964.47
98357.441
98717.563
99044.006
99336.693
99596.227
99823.805
100021.1
100190.17
100333.31
100452.97
100551.69
100631.98
100696.3
100747.01
100786.34
100816.38
100839.07
100856.16
100869.27
100879.85
100889.23
100898.58
100908.98
100921.39
100936.66
100955.59
100978.88
101007.18
101041.08
101081.14
101127.92
101181.94
101243.71
101313.72
101392.37
101480.09
101577.56
101685.93
101806.84
101941.67
102090.03
102248.44
102411.56
102577.76
102759.06
102992.95
103335.87
103823.04
104401.79
104888.76
104988.47
104320.99
103002.91
101595.14
100622.11
100171.01
100034.21
100005.25
100000.61
88524.638
89465.044
89477.514
90380.558
90605.912
91342.315
91812.247
92427.574
93012.985
93618.217
94226.811
94836.605
95441.942
96037.463
96617.479
97176.395
97708.932
98210.389
98676.857
99105.376
99494.02
99841.902
100149.12
100416.64
100646.17
100839.98
101000.77
101131.52
101235.32
101315.33
101374.61
101416.14
101442.7
101456.9
101461.14
101457.62
101448.31
101435
101419.28
101402.58
101386.15
101371.12
101358.47
101349.1
101343.78
101343.21
101348.03
101358.79
101376.02
101400.21
101431.8
101471.26
101519.05
101575.56
101641.16
101716.18
101801.13
101896.94
102005.06
102127.01
102263.05
102410.55
102564.03
102719.46
102883.94
103085.62
103373.29
103792.37
104335.8
104877.63
105146.91
104816.68
103721.07
102257.3
101027.23
100331.27
100074.01
100012.06
100001.41
100000.08
89200.393
90311.594
90350.913
91383.829
91693.542
92512.615
93094.766
93791.431
94469.02
95155.968
95838.708
96511.684
97167.167
97797.869
98396.828
98957.896
99476.036
99947.537
100370.11
100742.89
101066.31
101341.91
101572.15
101760.19
101909.61
102024.28
102108.16
102165.16
102199.07
102213.45
102211.63
102196.62
102171.2
102137.82
102098.7
102055.79
102010.83
101965.33
101920.63
101877.88
101838.09
101802.17
101770.89
101744.93
101724.89
101711.31
101704.67
101705.39
101713.87
101730.49
101755.64
101789.69
101832.99
101885.83
101948.48
102021.31
102105.04
102200.94
102310.52
102434.47
102571
102715.2
102861.77
103012.85
103188.51
103431.15
103791.2
104284.55
104830.92
105215.72
105168.07
104352.99
102964.14
101550.69
100590.6
100152.82
100026.91
100003.22
100000.15
99999.951
90019.409
91337.143
91420.388
92601.771
93028.921
93942.188
94657.135
95450.868
96227.397
96997.758
97747.941
98468.995
99151.384
99786.957
100369.13
100893.23
101356.58
101758.47
102099.9
102383.37
102612.45
102791.53
102925.45
103019.29
103078.1
103106.8
103110.02
103092.05
103056.83
103007.87
102948.31
102880.93
102808.15
102732.11
102654.65
102577.37
102501.65
102428.69
102359.51
102294.97
102235.85
102182.8
102136.39
102097.1
102065.37
102041.57
102026.04
102019.09
102021.02
102032.13
102052.73
102083.1
102123.5
102174.1
102235.14
102307.18
102391.28
102488.94
102601.16
102726.91
102861.93
103000.23
103140.43
103295.87
103501.81
103807.42
104243.94
104772.99
105241.63
105392.24
104877.02
103662.67
102171.66
100965.12
100296.38
100059.07
100007.48
100000.3
99999.856
99999.957
91016.616
92592.952
92754.279
94100.809
94688.988
95711.435
96575.191
97475.71
98345.345
99182.332
99971.249
100701.52
101364.32
101953.72
102466.69
102902.91
103264.4
103555.08
103780.23
103946
104058.98
104125.85
104153.13
104146.96
104113.05
104056.53
103982.03
103893.6
103794.8
103688.71
103577.98
103464.89
103351.36
103239.06
103129.38
103023.53
102922.51
102827.15
102738.19
102656.23
102581.78
102515.28
102457.11
102407.59
102366.98
102335.55
102313.5
102301.04
102298.41
102305.84
102323.56
102351.77
102390.59
102440.18
102500.87
102573.53
102659.57
102760.27
102875.3
103001.21
103131.86
103263.18
103402.4
103577.09
103833.63
104214.67
104712.55
105218.83
105502.92
105285.78
104314.14
102858.58
101458.67
100535.3
100126.95
100017.96
100000.81
99999.589
99999.868
99999.987
92272.535
94175.297
94457.959
95989.083
96784.109
97923.763
98931.305
99923.704
100850.66
101703.93
102470.27
103142.33
103716.73
104194
104577.87
104874.52
105091.76
105238.3
105323.15
105355.18
105342.78
105293.67
105214.82
105112.38
104991.72
104857.48
104713.64
104563.56
104410.09
104255.62
104102.14
103951.31
103804.52
103662.93
103527.48
103398.96
103278.04
103165.23
103060.99
102965.68
102879.61
102803.03
102736.16
102679.16
102632.19
102595.38
102568.86
102552.77
102547.28
102552.58
102568.82
102596.09
102634.44
102684.06
102745.58
102820.23
102909.48
103013.68
103130.38
103253.71
103377.65
103504.11
103653.13
103866.16
104190.66
104642
105155.88
105546.76
105576.43
104892.63
103575.9
102069.43
100895.29
100259.73
100044.08
100002.87
99999.079
99999.601
99999.947
100000
93915.311
96221.484
96678.316
98392.1
99428.362
100671.08
101771.61
102791.58
103694.24
104473.73
105126.1
105653.61
106062.82
106363.48
106567.24
106686.54
106733.82
106720.87
106658.56
106556.55
106423.35
106266.23
106091.4
105904.09
105708.65
105508.7
105307.22
105106.66
104909
104715.88
104528.6
104348.23
104175.63
104011.49
103856.36
103710.67
103574.79
103448.97
103333.45
103228.38
103133.92
103050.15
102977.17
102915.02
102863.77
102823.46
102794.15
102775.97
102769.02
102773.45
102789.29
102816.55
102855.26
102905.82
102969.24
103047
103140.08
103247.1
103363.08
103480.96
103598.08
103726.46
103899.96
104167.17
104563.23
105061.54
105530.17
105739
105378.77
104289.16
102786.39
101396.73
100497.84
100107.82
100010.49
99998.474
99998.949
99999.795
99999.997
100000.01
96131.09
98889.256
99580.8
101429.72
102671.13
103958.78
105039.2
105963.05
106717.73
107309.03
107747.85
108049.71
108232.19
108313.33
108310.45
108239.39
108114.21
107947.01
107748.05
107525.89
107287.59
107038.91
106784.51
106528.18
106272.93
106021.17
105774.82
105535.38
105304.03
105081.69
104869.08
104666.73
104475.05
104294.36
104124.89
103966.78
103820.16
103685.08
103561.61
103449.75
103349.53
103260.92
103183.91
103118.47
103064.57
103022.21
102991.43
102972.3
102964.94
102969.37
102985.55
103013.39
103053.04
103105.22
103171.34
103252.83
103349.43
103457.43
103569.72
103680.25
103793.33
103933.6
104147.05
104480.78
104938.95
105441.37
105786.44
105738.12
104958.89
103583.32
102059.67
100885.54
100249.52
100035.75
99999.014
99997.648
99999.315
99999.956
100000.01
100000
99168.291
102291.81
103283.23
105195.42
106476.12
107619.7
108518.58
109197.24
109673.1
109972.29
110122.17
110149.64
110079.24
109932.48
109727.58
109479.62
109200.89
108901.25
108588.54
108268.93
107947.27
107627.31
107311.98
107003.51
106703.61
106413.57
106134.36
105866.68
105611.03
105367.76
105137.1
104919.18
104714.08
104521.8
104342.34
104175.65
104021.65
103880.27
103751.45
103635.09
103531.12
103439.43
103359.94
103292.54
103237.17
103193.77
103162.37
103143.04
103135.85
103140.75
103157.58
103186.25
103227.1
103281.25
103350.39
103435.43
103534.32
103640.83
103746.93
103850.58
103966.35
104131.08
104394.11
104788.76
105285.01
105742.42
105930.57
105535.09
104415.63
102889.43
101468.57
100531.96
100112.05
100006.53
99995.893
99998.06
99999.718
100000.02
100000.01
100000
103281.42
106612.84
107801.76
109456.57
110558.83
111373.76
111900.18
112191.66
112291.8
112242.72
112080.01
111833.24
111526.09
111177.21
110801.03
110408.6
110008.32
109606.52
109207.93
108816.06
108433.5
108062.13
107703.29
107357.93
107026.66
106709.91
106407.88
106120.67
105848.29
105590.65
105347.62
105119.07
104904.81
104704.66
104518.42
104345.9
104186.93
104041.33
103908.94
103789.63
103683.23
103589.61
103508.61
103440.08
103383.9
103339.99
103308.38
103289.11
103282.21
103287.59
103305.03
103334.52
103376.66
103432.89
103504.89
103592.69
103692.41
103795.84
103895.21
103994.01
104118.24
104316.75
104637.62
105084.19
105583.09
105946.8
105935.16
105204.04
103851.12
102293.21
101033.77
100309.15
100043.33
99995.933
99995.457
99998.742
99999.954
100000.04
100000.01
100000
108404.97
111698.42
112792.64
113896.93
114498.18
114780.64
114807.18
114649.47
114360.27
113981.01
113542.47
113067.33
112572.1
112068.65
111565.46
111068.54
110582.09
110109
109651.25
109210.09
108786.3
108380.32
107992.3
107622.25
107270.03
106935.41
106618.1
106317.79
106034.13
105766.76
105515.32
105279.48
105058.89
104853.24
104662.23
104485.58
104323.05
104174.39
104039.43
103917.96
103809.82
103714.81
103632.75
103563.43
103506.69
103462.42
103430.6
103411.28
103404.46
103410.03
103427.87
103458.22
103501.95
103560.57
103635.15
103724.43
103823.05
103922.51
104017.4
104117.01
104255.04
104485.3
104853.77
105338.43
105810.01
106064.95
105830.67
104845.73
103357.89
101840.92
100740.68
100179.97
100011.86
99992.342
99995.97
99999.345
100000.06
100000.04
100000
99999.999
114489.76
116946.95
117545.4
117824.17
117737.39
117422.74
116957.61
116401.08
115792.77
115159.53
114519.22
113883.59
113260.3
112654.22
112068.37
111504.49
110963.5
110445.74
109951.16
109479.49
109030.28
108603
108197.05
107811.81
107446.67
107101
106774.21
106465.72
106174.96
105901.42
105644.6
105404.04
105179.31
104970.02
104775.81
104596.35
104431.36
104280.58
104143.8
104020.81
103911.42
103815.42
103732.58
103662.67
103605.46
103560.78
103528.57
103508.86
103501.66
103506.84
103524.56
103555.41
103600.66
103661.72
103738.64
103828.17
103923.27
104016.27
104106.07
104208.61
104362.81
104619.88
105015.92
105514.81
105951.22
106105.17
105680.91
104542.71
103000.28
101546.47
100565.21
100110.9
99997.79
99991.148
99996.586
99999.723
100000.1
100000.03
100000
99999.999
120964.93
121398.86
121190.15
120659.88
119952.73
119156.39
118325.5
117491.05
116671.12
115875.73
115110.22
114377.12
113677.29
113010.61
112376.4
111773.63
111201.14
110657.69
110142.03
109652.96
109189.3
108749.95
108333.87
107940.08
107567.68
107215.82
106883.72
106570.65
106275.92
105998.92
105739.07
105495.83
105268.73
105057.33
104861.22
104680.04
104513.49
104361.31
104223.24
104099.09
103988.62
103891.62
103807.82
103736.93
103678.69
103632.89
103599.4
103578.15
103569.28
103572.71
103588.91
103618.6
103663.33
103724.58
103801.22
103888.04
103977.41
104062.19
104144.13
104244.8
104407.69
104682.98
105096.17
105598.65
106011.63
106103.08
105584.25
104384.97
102830.48
101414.11
100487.92
100079.97
99991.049
99990.534
99997.043
99999.938
100000.12
100000.03
99999.999
99999.999
124745.32
124138.22
123249.88
122229.22
121177.92
120138.85
119134.12
118172.8
117258.32
116390.96
115569.53
114792.1
114056.44
113360.25
112701.28
112077.39
111486.56
110926.95
110396.84
109894.66
109418.97
108968.46
108541.93
108138.29
107756.52
107395.7
107055
106733.63
106430.88
106146.1
105878.69
105628.11
105393.85
105175.48
104972.58
104784.79
104611.82
104453.38
104309.25
104179.22
104063.07
103960.59
103871.5
103795.53
103732.42
103681.97
103644.09
103618.73
103605.88
103605.73
103618.91
103646.53
103689.86
103749.83
103824.74
103910.06
103998.75
104081.31
104160.83
104262.85
104432.58
104718.27
105143.29
105670.02
106104.65
106205.08
105690.48
104477.8
102895.68
101447.05
100495.58
100076.57
99987.887
99989.706
99997.091
100000.04
100000.14
100000.03
99999.998
99999.999
105464.96
105374.21
105309.88
105233.79
105132.85
105020.84
104891.21
104756.58
104611.68
104469.28
104324.47
104180.66
104035.36
103890.78
103746.04
103602.02
103458.67
103316.27
103175.03
103035.11
102896.69
102759.89
102624.84
102491.64
102360.4
102231.21
102104.14
101979.27
101856.67
101736.37
101618.41
101502.81
101389.6
101278.8
101170.44
101064.56
100961.22
100860.47
100762.32
100666.78
100573.79
100483.26
100395.15
100309.5
100226.48
100146.38
100069.51
99996.143
99926.418
99860.397
99798.092
99739.51
99684.649
99633.478
99585.917
99541.834
99501.066
99463.448
99428.842
99397.178
99368.49
99342.924
99320.476
99300.196
99278.854
99250.202
99208.268
99157.429
99119.587
99113.794
99109.606
99026.164
98794.862
98421.492
98009.762
97815.738
98130.61
99170.795
100010.16
101491.51
103889.17
103860.46
103824.35
103786.43
103737.71
103688.5
103625.72
103563.48
103490.83
103417.74
103336.63
103254.61
103166.96
103077.64
102984.6
102889.53
102792.07
102692.74
102591.76
102489.4
102385.92
102281.56
102176.57
102071.2
101965.66
101860.18
101754.97
101650.23
101546.14
101442.87
101340.56
101239.37
101139.43
101040.89
100943.89
100848.55
100754.99
100663.3
100573.54
100485.73
100399.88
100315.99
100234.16
100154.57
100077.53
100003.38
99932.428
99864.89
99800.872
99740.413
99683.526
99630.22
99580.483
99534.265
99491.469
99451.969
99415.634
99382.352
99352.055
99324.741
99300.457
99279.187
99260.396
99242.155
99220.242
99188.734
99144.985
99098.953
99073.665
99076.544
99058.259
98933.341
98663.325
98293.089
97932.053
97809.261
98197.865
99264.129
100118.58
101575.92
102631.82
102620.38
102608.53
102595.69
102574.93
102558.79
102530.63
102506.92
102472.31
102439.98
102398.79
102357.92
102310.25
102261.15
102207.14
102150.47
102090.21
102026.94
101960.71
101891.76
101820.3
101746.54
101670.69
101592.99
101513.68
101432.99
101351.15
101268.38
101184.91
101100.96
101016.75
100932.48
100848.37
100764.63
100681.44
100598.98
100517.42
100436.88
100357.46
100279.25
100202.36
100126.92
100053.17
99981.44
99912.096
99845.499
99781.919
99721.524
99664.396
99610.574
99560.086
99512.945
99469.135
99428.601
99391.258
99357.012
99325.781
99297.511
99272.183
99249.794
99230.274
99213.249
99197.49
99180.174
99156.72
99122.723
99079.749
99042.158
99030.18
99035.883
98993.609
98823.829
98524.176
98171.079
97869.503
97817.958
98275.312
99363.37
100227.96
101659.31
101674.27
101673.8
101672.03
101672.03
101663.74
101662.36
101648.92
101642.64
101625.57
101613.3
101592.01
101573.15
101547.51
101521.88
101491.57
101459.39
101423.87
101385.6
101344.37
101300.33
101253.56
101204.15
101152.21
101097.88
101041.31
100982.66
100922.1
100859.83
100796.02
100730.89
100664.64
100597.49
100529.65
100461.32
100392.71
100324
100255.38
100187
100119.01
100051.58
99984.93
99919.322
99855.107
99792.683
99732.435
99674.684
99619.652
99567.473
99518.222
99471.954
99428.712
99388.518
99351.359
99317.196
99285.974
99257.643
99232.17
99209.532
99189.699
99172.568
99157.803
99144.532
99130.835
99113.361
99088.04
99053.06
99014.315
98988.233
98988.098
98988.443
98912.836
98698.19
98381.021
98058.865
97822.63
97843.208
98360.107
99469.88
100339.51
101740.55
100888.55
100893.74
100895.76
100902.14
100899.26
100906.49
100901.3
100905.21
100897.84
100897.52
100887.73
100882.36
100870.29
100859.39
100844.04
100827.77
100808.66
100787.45
100763.67
100737.43
100708.72
100677.55
100643.96
100607.98
100569.69
100529.17
100486.51
100441.84
100395.3
100347.02
100297.17
100245.93
100193.45
100139.92
100085.52
100030.43
99974.815
99918.877
99862.817
99806.875
99751.35
99696.596
99643.013
99590.996
99540.889
99492.953
99447.364
99404.238
99363.661
99325.705
99290.428
99257.861
99228.006
99200.848
99176.37
99154.558
99135.398
99118.847
99104.781
99092.888
99082.464
99072.116
99059.449
99041.199
99014.714
98981.418
98950.671
98937.65
98944.986
98930.53
98813.708
98558.011
98238.265
97960.292
97793.788
97882.831
98451.636
99583.985
100453.73
101818.23
100225.12
100234.46
100237.89
100248.72
100248.94
100259.85
100257.5
100267.07
100264.06
100270.6
100267.03
100270.1
100266.54
100265.55
100259.93
100253.7
100244.97
100234.87
100222.82
100208.88
100192.96
100175.01
100155
100132.92
100108.77
100082.57
100054.36
100024.2
99992.156
99958.315
99922.775
99885.648
99847.058
99807.139
99766.041
99723.927
99680.976
99637.396
99593.429
99549.365
99505.542
99462.335
99420.118
99379.233
99339.951
99302.474
99266.948
99233.485
99202.185
99173.133
99146.396
99122.015
99100.012
99080.395
99063.172
99048.334
99035.838
99025.553
99017.185
99010.135
99003.324
98994.984
98982.662
98963.891
98938.16
98910.037
98890.446
98889.809
98897.069
98857.126
98694.789
98406.829
98100.441
97878.249
97780.319
97935.168
98551.195
99704.914
100570.67
101893.27
99645.213
99657.848
99660.742
99674.364
99675.399
99689.771
99689.761
99702.986
99702.806
99713.687
99713.9
99721.144
99720.83
99724.505
99723.794
99724.455
99722.976
99720.622
99716.741
99711.45
99704.663
99696.316
99686.366
99674.773
99661.508
99646.552
99629.898
99611.552
99591.533
99569.873
99546.619
99521.835
99495.603
99468.024
99439.221
99409.344
99378.57
99347.113
99315.227
99283.209
99251.381
99220.073
99189.591
99160.193
99132.081
99105.412
99080.315
99056.904
99035.284
99015.546
98997.76
98981.974
98968.22
98956.518
98946.867
98939.222
98933.459
98929.3
98926.232
98923.381
98919.404
98912.466
98900.574
98882.682
98860.673
98841.287
98834.355
98842.219
98839.748
98764.154
98555.88
98249.017
97972.46
97815.385
97782.219
97999.312
98659.64
99831.853
100690.09
101967.53
99124.845
99138.871
99140.557
99155.321
99156.056
99171.741
99171.585
99186.787