/*--------------------------------*- C++ -*----------------------------------*\
  =========                 |
  \\      /  F ield         | OpenFOAM: The Open Source CFD Toolbox
   \\    /   O peration     | Website:  https://openfoam.org
    \\  /    A nd           | Version:  12
     \\/     M anipulation  |
\*---------------------------------------------------------------------------*/
FoamFile
{
    format      ascii;
    class       surfaceScalarField;
    location    "0.006";
    object      phi;
}
// * * * * * * * * * * * * * * * * * * * * * * * * * * * * * * * * * * * * * //

dimensions      [1 0 -1 0 0 0 0];

internalField   nonuniform List<scalar> 
31760
(
-0.00065538421
-0.05124704
0.051882588
-0.0016207158
-0.063801343
0.064738045
-0.0026343984
-0.062735057
0.063720444
-0.0036746626
-0.068189959
0.069198323
-0.0047689337
-0.069937056
0.070999389
-0.0058913016
-0.074138355
0.075227251
-0.0070868651
-0.077072917
0.078233152
-0.0083181644
-0.081045479
0.082238683
-0.0096133829
-0.084655204
0.085911182
-0.010965172
-0.088744213
0.090054443
-0.01237386
-0.092854385
0.094219518
-0.013849931
-0.097239028
0.098669483
-0.015388806
-0.10178843
0.10327951
-0.016998542
-0.10656391
0.10812366
-0.018679108
-0.11155477
0.11318305
-0.020435345
-0.11677792
0.11847955
-0.022270176
-0.12224155
0.12401933
-0.024186924
-0.1279572
0.12981439
-0.026189011
-0.13393588
0.13587575
-0.028279882
-0.14018871
0.1422146
-0.030463045
-0.14672788
0.14884311
-0.032742198
-0.15356501
0.15577314
-0.035120905
-0.16071331
0.16301769
-0.037602942
-0.168186
0.17059026
-0.040191224
-0.1759972
0.17850405
-0.042890229
-0.18416061
0.18677438
-0.045703862
-0.1926922
0.19541665
-0.04863558
-0.20160838
0.20444687
-0.051689036
-0.21092609
0.2138822
-0.054868453
-0.22066349
0.22374141
-0.058177419
-0.23083972
0.23404302
-0.061619529
-0.24147477
0.24480708
-0.065197893
-0.2525903
0.25605475
-0.068915788
-0.26420743
0.26780738
-0.072775427
-0.27635017
0.28008793
-0.076778638
-0.28904252
0.2929201
-0.080926932
-0.3023099
0.30632905
-0.085220972
-0.31617961
0.32034135
-0.089660815
-0.3306792
0.3349841
-0.09424541
-0.3458397
0.35028741
-0.098973049
-0.36169246
0.36628216
-0.10384058
-0.37827079
0.38300049
-0.10884365
-0.39561032
0.40047711
-0.11397669
-0.41374842
0.41874855
-0.11923216
-0.43272502
0.4378532
-0.12460106
-0.45258121
0.45783123
-0.13007178
-0.47336123
0.47872491
-0.13563104
-0.49511042
0.50057868
-0.14126255
-0.51787747
0.52343907
-0.14694679
-0.54171235
0.54735383
-0.15266105
-0.56666744
0.57237329
-0.15837959
-0.59279845
0.59855149
-0.16407211
-0.6201631
0.62594292
-0.16970354
-0.64882197
0.65460491
-0.17523365
-0.67883798
0.68459675
-0.18061477
-0.71027731
0.71597864
-0.18579295
-0.74320761
0.74881305
-0.19070674
-0.77769929
0.78316353
-0.19528564
-0.81382657
0.81909506
-0.19945169
-0.85166752
0.85667721
-0.20311833
-0.8913054
0.89598248
-0.20619145
-0.93282936
0.93708918
-0.20856832
-0.97633632
0.98008153
-0.21013741
-1.0219315
1.0250517
-0.21077758
-1.0697269
1.0720985
-0.21035673
-1.1198434
1.1213321
-0.20872428
-1.172409
1.1728698
-0.20570951
-1.2275563
1.2268403
-0.20111223
-1.2854328
1.2833697
-0.19473945
-1.3462049
1.342597
-0.18645151
-1.4100556
1.4046901
-0.17609178
-1.4771479
1.4698312
-0.16307485
-1.5476082
1.5381458
-0.14610882
-1.6216696
1.6097954
-0.12377445
-1.6999368
1.6852347
-0.096723924
-1.7831621
1.7652835
-0.068562532
-1.8713454
1.850243
-0.043795796
-1.9631661
1.9386038
-0.021526216
-2.0579104
2.0293281
-2.156608
2.1226658
-0.00065401173
-0.050592486
-0.0015153921
-0.062945977
-0.0024359721
-0.061819702
-0.0034143859
-0.067218534
-0.0044012832
-0.068957643
-0.0054608278
-0.073084846
-0.0065409621
-0.075999067
-0.0076967884
-0.079897955
-0.0088818613
-0.083477544
-0.01013959
-0.087494444
-0.01144124
-0.091560988
-0.012810154
-0.095878568
-0.014237348
-0.10036993
-0.015731759
-0.10507832
-0.017294004
-0.11000152
-0.018928383
-0.11515261
-0.020637379
-0.12054174
-0.02242488
-0.12617894
-0.0242943
-0.13207579
-0.026249247
-0.13824316
-0.028293442
-0.14469319
-0.030430059
-0.15143798
-0.03266315
-0.15848994
-0.034996262
-0.16586272
-0.037434104
-0.17356933
-0.039979383
-0.18162539
-0.042636774
-0.19004493
-0.045410033
-0.19884519
-0.048303575
-0.20804245
-0.051321168
-0.21765543
-0.054467175
-0.22770267
-0.057745242
-0.23820483
-0.061159002
-0.24918355
-0.064711733
-0.26066025
-0.068406108
-0.2726595
-0.072244641
-0.28520539
-0.076228653
-0.29832444
-0.080359786
-0.3120435
-0.084637516
-0.32639214
-0.089061581
-0.34140096
-0.093630499
-0.35710229
-0.098341262
-0.37353074
-0.10318953
-0.39072297
-0.10817015
-0.40871683
-0.1132759
-0.42755391
-0.11849791
-0.44727649
-0.12382542
-0.46793012
-0.12924492
-0.48956229
-0.13474081
-0.51222309
-0.14029464
-0.53596454
-0.14588464
-0.5608415
-0.15148576
-0.58691203
-0.15706913
-0.61423673
-0.1626019
-0.64287921
-0.16804624
-0.67290656
-0.1733586
-0.70438996
-0.17848963
-0.73740242
-0.18338341
-0.77202097
-0.18797682
-0.80832758
-0.19220005
-0.84640809
-0.19597554
-0.88635502
-0.1992187
-0.92826639
-0.20183706
-0.97224893
-0.20373079
-1.0184167
-0.20478857
-1.0668929
-0.20488701
-1.1178066
-0.20387858
-1.1712995
-0.20159376
-1.2275124
-0.19784863
-1.2866092
-0.19248629
-1.3487732
-0.18539647
-1.4141908
-0.17636269
-1.4830256
-0.16467691
-1.5554409
-0.14897879
-1.6317639
-0.12814187
-1.7126462
-0.1033686
-1.7986999
-0.078727227
-1.8897497
-0.058731422
-1.9847765
-0.041391528
-2.0832771
-2.1869495
-0.00060377029
-0.049973263
-0.0013968851
-0.062141826
-0.0022057635
-0.060997675
-0.0031179821
-0.066295267
-0.0040277662
-0.068035303
-0.0050105701
-0.072088377
-0.006000257
-0.074995217
-0.0070692895
-0.078814655
-0.0081604628
-0.082370483
-0.0093248356
-0.086313058
-0.010529825
-0.090338085
-0.011798931
-0.094590429
-0.013123945
-0.099024759
-0.014512997
-0.10366783
-0.015967019
-0.10852474
-0.017489653
-0.11360575
-0.019084409
-0.11892125
-0.020754269
-0.12448168
-0.022503601
-0.13029734
-0.024335204
-0.13638056
-0.026253585
-0.14274187
-0.028262183
-0.14939435
-0.030364838
-0.15635007
-0.032566211
-0.16362179
-0.034869517
-0.17122401
-0.037279865
-0.17917037
-0.039800699
-0.18747658
-0.042437088
-0.19615818
-0.045192715
-0.20523283
-0.048072891
-0.21471755
-0.051081006
-0.22463278
-0.054221679
-0.23499788
-0.057499044
-0.24583495
-0.060916071
-0.25716651
-0.064476591
-0.26901621
-0.068182931
-0.28140956
-0.072037428
-0.29437298
-0.076040634
-0.30793497
-0.080193567
-0.32212453
-0.084495679
-0.33697361
-0.088945129
-0.35251569
-0.09353968
-0.36878552
-0.09827575
-0.38582084
-0.10314755
-0.40366139
-0.10814863
-0.4223491
-0.11327034
-0.441928
-0.11850259
-0.4624447
-0.12383227
-0.4839492
-0.12924518
-0.50649212
-0.13472353
-0.53012854
-0.14024645
-0.5549158
-0.1457912
-0.58091316
-0.15133057
-0.60818511
-0.15683407
-0.63679797
-0.16226712
-0.6668225
-0.16759028
-0.69833441
-0.17275919
-0.73141148
-0.17772283
-0.76613764
-0.18242584
-0.80259958
-0.18680492
-0.8408917
-0.19079084
-0.88111309
-0.19430635
-0.92337026
-0.19726791
-0.96777633
-0.19958312
-1.0144537
-0.20114922
-1.0635334
-0.20184747
-1.1151545
-0.20154199
-1.1694644
-0.20006918
-1.2266222
-0.1972629
-1.2868064
-0.19299949
-1.3502053
-0.18716728
-1.4170197
-0.17948354
-1.4874138
-0.16912854
-1.5616055
-0.15474596
-1.6399832
-0.13556998
-1.7231919
-0.11333844
-1.8117143
-0.092772951
-1.9053432
-0.077912664
-2.0033192
-0.065450578
-2.1054406
-2.2135742
-0.00056110971
-0.049386966
-0.0012933013
-0.061387145
-0.0020272808
-0.06023853
-0.0028587371
-0.065438959
-0.003679851
-0.067186815
-0.0045917253
-0.071150326
-0.0054993196
-0.074060618
-0.0064917204
-0.077792529
-0.0074998797
-0.081330777
-0.0085809516
-0.085198549
-0.0097001313
-0.089183753
-0.010880434
-0.093373072
-0.012114339
-0.097751844
-0.01340894
-0.10233205
-0.014766022
-0.10712423
-0.01618934
-0.11213654
-0.017682314
-0.1173798
-0.01924835
-0.12286437
-0.020891051
-0.12860042
-0.022614787
-0.13459943
-0.02442283
-0.14087309
-0.026320235
-0.14743264
-0.028310954
-0.15429129
-0.030398938
-0.16146175
-0.032589337
-0.16895732
-0.034886056
-0.17679286
-0.037294146
-0.18498289
-0.039817965
-0.19354362
-0.042463073
-0.20249148
-0.045232978
-0.21184547
-0.048133047
-0.22162416
-0.051167893
-0.23184757
-0.054341496
-0.2425384
-0.057657976
-0.25371896
-0.061120945
-0.26541336
-0.064732965
-0.27764805
-0.068496284
-0.2904497
-0.072412752
-0.30384708
-0.076482594
-0.3178707
-0.080705661
-0.33255273
-0.08508111
-0.34792718
-0.089605952
-0.36403075
-0.094276971
-0.38090116
-0.099089249
-0.39857959
-0.10403615
-0.41710937
-0.10911025
-0.43653499
-0.11430071
-0.45690615
-0.11959714
-0.47827202
-0.1249849
-0.50068708
-0.13044806
-0.52420729
-0.13596811
-0.54889214
-0.141523
-0.57480398
-0.14708846
-0.60200912
-0.15263708
-0.63057667
-0.15813664
-0.6605819
-0.16355285
-0.69210239
-0.1688453
-0.72522197
-0.17396923
-0.76002892
-0.17887474
-0.79661512
-0.1835059
-0.83508103
-0.18780022
-0.87553202
-0.19168771
-0.91808154
-0.19509137
-0.96284867
-0.19792593
-1.0099622
-0.20009598
-1.0595599
-0.20149231
-1.1117871
-0.20197788
-1.1668083
-0.20140959
-1.2247844
-0.19964221
-1.2859168
-0.19657749
-1.3503943
-0.19209839
-1.4184309
-0.18582548
-1.4902167
-0.1768497
-1.5659931
-0.16383218
-1.6462024
-0.14647662
-1.731433
-0.12714309
-1.8221141
-0.11123194
-1.9180543
-0.10183149
-2.0187266
-0.094216815
-2.1242575
-2.236387
-0.00051393252
-0.048842937
-0.0012017627
-0.06067099
-0.0018667382
-0.0595422
-0.0026274871
-0.064646195
-0.003364793
-0.066415169
-0.0042060318
-0.070275565
-0.0050414916
-0.073187385
-0.0059750121
-0.076818215
-0.0069148351
-0.080350365
-0.0079213505
-0.084149605
-0.0089638032
-0.088096612
-0.010063958
-0.092225803
-0.011216241
-0.096549903
-0.012426859
-0.10106902
-0.013698354
-0.10579743
-0.015033977
-0.11074249
-0.016437696
-0.11591436
-0.017913443
-0.12132335
-0.019465123
-0.12697973
-0.021096894
-0.13289466
-0.022813625
-0.13907915
-0.024618734
-0.14554585
-0.026517809
-0.15230581
-0.028515427
-0.15937271
-0.030616124
-0.1667599
-0.03282513
-0.17448149
-0.035147655
-0.18255204
-0.037588634
-0.19098796
-0.040153068
-0.1998056
-0.042846256
-0.2090236
-0.045673251
-0.21866073
-0.048638719
-0.22873735
-0.051747246
-0.23927617
-0.055003383
-0.25029947
-0.058410461
-0.26183249
-0.061971645
-0.2739018
-0.065689436
-0.28653463
-0.069565621
-0.29976037
-0.073600751
-0.31361064
-0.077794916
-0.32811797
-0.082146703
-0.3433177
-0.086654469
-0.35924661
-0.09131436
-0.37594441
-0.09612197
-0.39345259
-0.10107193
-0.41181519
-0.10615614
-0.43107915
-0.11136602
-0.45129438
-0.11669076
-0.47251198
-0.12211764
-0.49478806
-0.12763266
-0.51817953
-0.13321843
-0.54274896
-0.138856
-0.56855993
-0.14452325
-0.59568158
-0.15019523
-0.62418556
-0.15584452
-0.65414934
-0.16143969
-0.68565427
-0.16694509
-0.71878819
-0.17232191
-0.7536423
-0.17752518
-0.79031428
-0.18250575
-0.82890818
-0.18720739
-0.86953553
-0.19156726
-0.9123152
-0.19551436
-0.95737273
-0.19897034
-1.0048418
-0.20184648
-1.0548659
-0.2040372
-1.1075993
-0.20542306
-1.1632112
-0.20586512
-1.2218842
-0.20525748
-1.2838155
-0.20350548
-1.3492237
-0.20047543
-1.4183132
-0.19569044
-1.4913043
-0.18813234
-1.5684644
-0.17656112
-1.6502541
-0.16126636
-1.7372184
-0.14529351
-1.8298051
-0.13474538
-1.9278936
-0.13115523
-2.0309809
-0.12817966
-2.1395776
-2.2552106
-0.00045881316
-0.048351963
-0.0011038137
-0.059995022
-0.0017090686
-0.058903298
-0.0024095393
-0.063910502
-0.0030914279
-0.065696786
-0.0038945489
-0.069434313
-0.0046723342
-0.072370121
-0.0055415944
-0.075907484
-0.0064133899
-0.079434018
-0.0073513373
-0.083164652
-0.0083250786
-0.087073338
-0.0093541682
-0.091144454
-0.010435366
-0.095413592
-0.011573598
-0.099872601
-0.012771942
-0.10453766
-0.014034441
-0.10941507
-0.015364825
-0.11451539
-0.016767108
-0.11984855
-0.018245967
-0.12542421
-0.019805486
-0.13125405
-0.021450874
-0.13734802
-0.023186968
-0.14371906
-0.025018948
-0.15037791
-0.026951878
-0.15733832
-0.028991345
-0.16461313
-0.031143079
-0.17221625
-0.033411778
-0.18016328
-0.035803686
-0.18846903
-0.038324101
-0.19715077
-0.040978416
-0.206227
-0.04377229
-0.21571616
-0.04671039
-0.22563954
-0.049798226
-0.23601894
-0.053039205
-0.24687868
-0.05643791
-0.25824276
-0.059997678
-0.27013892
-0.063720636
-0.2825955
-0.067608571
-0.29564216
-0.071662727
-0.30931094
-0.075882758
-0.32363586
-0.080268051
-0.3386524
-0.084816007
-0.35439916
-0.089524183
-0.37091553
-0.094388474
-0.38824443
-0.099402789
-0.40643168
-0.1045608
-0.4255242
-0.10985526
-0.4455726
-0.11527555
-0.46663108
-0.12081164
-0.48875495
-0.12644966
-0.51200468
-0.13217607
-0.53644224
-0.13797348
-0.56213479
-0.14382281
-0.58915281
-0.14970239
-0.6175702
-0.15558785
-0.64746683
-0.16145191
-0.67892656
-0.16726471
-0.71203946
-0.17299104
-0.74690157
-0.17859212
-0.78361339
-0.18402359
-0.82228357
-0.18923671
-0.86302668
-0.19417507
-0.9059677
-0.19877502
-0.95123748
-0.20296406
-0.99897544
-0.20665931
-1.0493301
-0.20976283
-1.1024626
-0.21216229
-1.1585502
-0.21374777
-1.2177829
-0.21442578
-1.2803773
-0.21412979
-1.3465495
-0.21266441
-1.4165234
-0.20943305
-1.4905277
-0.20333124
-1.5688502
-0.19333614
-1.6519649
-0.18044239
-1.7403985
-0.16866585
-1.8346323
-0.16421953
-1.9345968
-0.16649713
-2.0398976
-0.1678406
-2.1511988
-2.2698357
-0.00040723692
-0.047912033
-0.0010187473
-0.059351669
-0.0015719359
-0.058315682
-0.0022422365
-0.063204411
-0.0028783395
-0.065023056
-0.0036442212
-0.068628708
-0.0043639709
-0.071608667
-0.005173265
-0.075053756
-0.0059878358
-0.078573058
-0.0068687014
-0.082234905
-0.0077867791
-0.086103741
-0.0087579779
-0.090118906
-0.0097818388
-0.094332401
-0.010862451
-0.098731465
-0.012003902
-0.10333231
-0.013209709
-0.10814177
-0.014484817
-0.11316899
-0.015833365
-0.11842465
-0.017260248
-0.1239177
-0.01877089
-0.12965923
-0.020369965
-0.13565996
-0.022063669
-0.14193126
-0.023857231
-0.14848486
-0.02575629
-0.15533405
-0.027767158
-0.16249102
-0.029895385
-0.16997039
-0.032147783
-0.1777865
-0.034529824
-0.18595544
-0.037047184
-0.19449427
-0.03970641
-0.20342053
-0.042512505
-0.21275419
-0.045471058
-0.22251585
-0.048586783
-0.23272817
-0.051864817
-0.24341493
-0.055308231
-0.25460217
-0.05892063
-0.26631698
-0.062704978
-0.2785883
-0.066662689
-0.29144722
-0.070794486
-0.3049264
-0.075100485
-0.31906032
-0.079579996
-0.33388518
-0.084231012
-0.34944074
-0.089051097
-0.36576668
-0.094036076
-0.38290745
-0.099181832
-0.4009086
-0.10448242
-0.41981869
-0.10993076
-0.43968923
-0.11551945
-0.46057453
-0.12123831
-0.48253243
-0.12707735
-0.50562297
-0.13302359
-0.52991086
-0.13906321
-0.55546377
-0.1451805
-0.58235374
-0.15135666
-0.61065734
-0.15757137
-0.64045553
-0.16380112
-0.67183484
-0.17002039
-0.7048868
-0.17619955
-0.73971085
-0.18230472
-0.77641076
-0.18829793
-0.81509801
-0.19413534
-0.85589147
-0.19976836
-0.89891917
-0.20514033
-0.94431791
-0.21018584
-0.99223218
-0.21482798
-1.0428157
-0.21897545
-1.0962361
-0.22252888
-1.1526773
-0.22540054
-1.2123366
-0.2275273
-1.2754435
-0.22883229
-1.3422199
-0.22904724
-1.412892
-0.2274295
-1.4877057
-0.22282936
-1.5669647
-0.21464968
-1.6511427
-0.20474617
-1.7408285
-0.19815493
-1.836465
-0.20043094
-1.9380146
-0.20844066
-2.0452625
-0.21371244
-2.1588769
-2.2800239
-0.00035750377
-0.047522088
-0.00094377778
-0.058733564
-0.0014477419
-0.057777312
-0.0021186058
-0.062498676
-0.0027093916
-0.064394611
-0.0034237059
-0.067874892
-0.0040902501
-0.070900162
-0.0048583716
-0.074241648
-0.0056303934
-0.077754626
-0.00646503
-0.081351339
-0.0073401626
-0.085177046
-0.0082674359
-0.089137236
-0.0092492516
-0.093293225
-0.010289106
-0.097631068
-0.011391503
-0.10216603
-0.012561052
-0.10690476
-0.013801816
-0.11185699
-0.015119811
-0.1170314
-0.016519963
-0.12243804
-0.018007983
-0.12808717
-0.019589772
-0.13398935
-0.021271337
-0.1401558
-0.023058996
-0.14659795
-0.024959933
-0.15332818
-0.026979578
-0.16036045
-0.029125307
-0.16770738
-0.031403161
-0.17538464
-0.033819838
-0.18340764
-0.036381725
-0.19179369
-0.039094757
-0.20056075
-0.041964565
-0.20972903
-0.044996794
-0.21931907
-0.048196497
-0.22935403
-0.051567652
-0.23985873
-0.055114399
-0.25085897
-0.058840089
-0.26238256
-0.062746669
-0.27445974
-0.06683604
-0.28712157
-0.071109052
-0.30040164
-0.075565651
-0.31433526
-0.080204937
-0.32895933
-0.085026035
-0.34431349
-0.090025885
-0.36043943
-0.095201786
-0.37738108
-0.10054994
-0.39518488
-0.10606554
-0.41390021
-0.11174325
-0.43357886
-0.11757679
-0.45427591
-0.12355868
-0.47605014
-0.12968046
-0.49896231
-0.13593272
-0.52307782
-0.14230381
-0.54846621
-0.14878121
-0.57519996
-0.15535007
-0.60335753
-0.16199384
-0.63302098
-0.16869371
-0.66427853
-0.17542784
-0.69722401
-0.182172
-0.73195835
-0.18889811
-0.76858811
-0.1955734
-0.80722801
-0.20216066
-0.84799973
-0.20861778
-0.89103441
-0.21489579
-0.93647323
-0.22093662
-0.98446527
-0.22666864
-1.0351708
-0.23201014
-1.0887615
-0.23687738
-1.1454289
-0.24120615
-1.2053779
-0.24495906
-1.2688407
-0.24803291
-1.3360436
-0.25002856
-1.407228
-0.25008032
-1.4826309
-0.24707825
-1.5625982
-0.24115614
-1.6476026
-0.23491744
-1.7383389
-0.23459308
-1.8351842
-0.2441206
-1.9379967
-0.25751354
-2.0468221
-0.26636534
-2.1623166
-2.2854813
-0.00031049381
-0.047180004
-0.00088081007
-0.058132205
-0.0013389268
-0.057285503
-0.0020016249
-0.061801085
-0.0025453428
-0.063813929
-0.0032323004
-0.067149125
-0.0038671606
-0.070224371
-0.0046012254
-0.073464502
-0.0053445115
-0.076965956
-0.0061473829
-0.080500642
-0.0069956269
-0.084278416
-0.0078962872
-0.088183447
-0.0088541312
-0.09227937
-0.0098726633
-0.096553442
-0.010957016
-0.10101933
-0.012112058
-0.10568391
-0.013343541
-0.11055603
-0.014656928
-0.11564463
-0.016058315
-0.12095914
-0.017554513
-0.12650908
-0.019151622
-0.13230571
-0.020857166
-0.13835879
-0.022677523
-0.14468092
-0.024620023
-0.15128349
-0.026692165
-0.15818027
-0.028900608
-0.16538472
-0.031252729
-0.17291175
-0.033755208
-0.18077743
-0.036414295
-0.18899948
-0.039236578
-0.19759546
-0.042227915
-0.20658627
-0.045393162
-0.21599338
-0.048737009
-0.22584007
-0.052264064
-0.23615116
-0.055977797
-0.24695353
-0.059880726
-0.25827585
-0.063975412
-0.27014825
-0.068263289
-0.2826028
-0.072744842
-0.29567395
-0.077420451
-0.309397
-0.082289289
-0.32380996
-0.087350076
-0.33895278
-0.092601432
-0.35486711
-0.098041438
-0.37159724
-0.10366698
-0.38919062
-0.109475
-0.40769636
-0.11546159
-0.4271669
-0.12162246
-0.44765747
-0.12795269
-0.46922722
-0.134446
-0.49193799
-0.14109588
-0.51585507
-0.14789438
-0.54104907
-0.154832
-0.56759353
-0.16189829
-0.5955673
-0.16908035
-0.62505425
-0.17636378
-0.6561434
-0.18373127
-0.68893068
-0.19116428
-0.72351727
-0.19863975
-0.76001303
-0.20613102
-0.79853485
-0.21360747
-0.83920666
-0.22103351
-0.88216256
-0.22836774
-0.9275465
-0.23555824
-0.97551256
-0.24254195
-1.0262251
-0.24924741
-1.0798624
-0.25561367
-1.13662
-0.26160132
-1.1967116
-0.26717851
-1.2603672
-0.27217067
-1.3278195
-0.27603948
-1.3993055
-0.27782625
-1.4750764
-0.27664623
-1.5555175
-0.27358634
-1.6411295
-0.27221385
-1.7325853
-0.27930889
-1.830428
-0.29604182
-1.9342482
-0.31423595
-2.0442567
-0.32641894
-2.1611889
-2.2858602
-0.00027344798
-0.046876338
-0.00084069399
-0.057535196
-0.0012670697
-0.056826782
-0.0019041034
-0.06113059
-0.0024160178
-0.063266446
-0.0030858999
-0.066442002
-0.003704159
-0.069566774
-0.0044185728
-0.072708714
-0.0051496179
-0.076191322
-0.0059364904
-0.079667839
-0.0067744358
-0.08339208
-0.0076665674
-0.087240294
-0.0086198604
-0.091272291
-0.009638289
-0.095478273
-0.010727665
-0.099870104
-0.011893792
-0.1044546
-0.01314299
-0.10924014
-0.014481998
-0.1142352
-0.015917681
-0.11944909
-0.017456792
-0.12489139
-0.019107975
-0.1305715
-0.02087768
-0.13650135
-0.022774728
-0.14269113
-0.024806317
-0.14915386
-0.026980152
-0.15590277
-0.029304145
-0.1629511
-0.031785485
-0.17031445
-0.034430886
-0.17800935
-0.037247462
-0.18605307
-0.040240883
-0.19446457
-0.043416427
-0.20326509
-0.04677942
-0.212476
-0.050333977
-0.22212171
-0.054083977
-0.23222723
-0.058032384
-0.24282026
-0.062181652
-0.25392992
-0.066533591
-0.26558688
-0.071089374
-0.27782375
-0.075850085
-0.29067496
-0.080815605
-0.30417691
-0.085985901
-0.31836741
-0.091360644
-0.33328658
-0.096939043
-0.34897638
-0.10271966
-0.36548157
-0.10870168
-0.38284878
-0.11488376
-0.40112743
-0.12126381
-0.42037048
-0.12783996
-0.44063272
-0.13460977
-0.46197356
-0.14157044
-0.48445491
-0.14871778
-0.50814305
-0.15604806
-0.53310773
-0.16355527
-0.55942421
-0.17123269
-0.58717143
-0.17907224
-0.61643391
-0.18706376
-0.64730201
-0.19519558
-0.67987231
-0.20345332
-0.71424762
-0.21182045
-0.75053865
-0.22027692
-0.7888643
-0.22879794
-0.82935153
-0.23735509
-0.87213567
-0.2459131
-0.91736345
-0.25442785
-0.96519162
-0.26284465
-1.0157897
-0.27110883
-1.0693409
-0.27918409
-1.1260454
-0.28705531
-1.1861199
-0.294661
-1.2497977
-0.30172579
-1.3173034
-0.30754624
-1.3888758
-0.31117337
-1.4647943
-0.31225469
-1.5454621
-0.31277175
-1.6315246
-0.31768157
-1.7236099
-0.33322684
-1.8219676
-0.35678217
-1.9264214
-0.37911616
-2.0372093
-0.39457594
-2.1550953
-2.2807746
-0.00024124587
-0.046606488
-0.0008144943
-0.056933733
-0.0012220567
-0.056388521
-0.0018471404
-0.060473769
-0.0023427813
-0.062737022
-0.0030045082
-0.065744901
-0.0036187315
-0.068915188
-0.004324232
-0.071963907
-0.0050573475
-0.07541679
-0.0058440231
-0.078837524
-0.0066887963
-0.082501324
-0.0075922213
-0.086288391
-0.0085627314
-0.090250672
-0.0096052214
-0.094381873
-0.010726424
-0.098692033
-0.011933093
-0.10318792
-0.013232465
-0.10787742
-0.014631901
-0.11276887
-0.016139863
-0.11787048
-0.017764275
-0.12319234
-0.019513397
-0.12874352
-0.021396084
-0.1345353
-0.023420398
-0.1405787
-0.025594911
-0.14688617
-0.027928157
-0.15347098
-0.030427313
-0.16034769
-0.033099937
-0.16753151
-0.035952999
-0.17503951
-0.038992896
-0.18288951
-0.042224481
-0.19110195
-0.045653765
-0.19969688
-0.049284194
-0.20869816
-0.053120119
-0.21812923
-0.05716391
-0.22801701
-0.061417963
-0.23838911
-0.065884757
-0.24927448
-0.070565699
-0.26070476
-0.075461713
-0.27271294
-0.080573798
-0.28533326
-0.085902881
-0.29860208
-0.091449449
-0.31255754
-0.097214099
-0.32723952
-0.10319711
-0.34269015
-0.10939947
-0.35895329
-0.11582172
-0.3760758
-0.1224642
-0.39410708
-0.12932831
-0.41309882
-0.13641401
-0.43310693
-0.14372245
-0.45418936
-0.15125372
-0.47640874
-0.15900792
-0.49983091
-0.1669837
-0.52452661
-0.17517995
-0.55057025
-0.18359435
-0.57804132
-0.19222293
-0.60702524
-0.20106069
-0.63761263
-0.21010117
-0.66990059
-0.21933547
-0.7039933
-0.22875274
-0.74000198
-0.23833914
-0.77804696
-0.24807829
-0.81825576
-0.25794721
-0.86076726
-0.26791681
-0.90572921
-0.27795003
-0.95330037
-0.2880057
-1.0036533
-0.29805119
-1.0569761
-0.30807792
-1.1134719
-0.31807436
-1.1733613
-0.32791669
-1.2368726
-0.33718252
-1.3042276
-0.345049
-1.3756684
-0.35072457
-1.4515089
-0.35484538
-1.532178
-0.36019134
-1.618344
-0.37282068
-1.7108156
-0.39715882
-1.809446
-0.42680547
-1.9141318
-0.45271797
-2.0252618
-0.47162447
-2.1436021
-2.269769
-0.00021343917
-0.046366163
-0.00080225985
-0.056318364
-0.0011997566
-0.055962105
-0.0018329921
-0.059810625
-0.0023268748
-0.062211292
-0.0029900071
-0.065048429
-0.0036152435
-0.068254735
-0.0043256695
-0.071216424
-0.0050780043
-0.074625405
-0.0058839619
-0.077990413
-0.0067564999
-0.081585417
-0.0076950827
-0.085304082
-0.0087091759
-0.089188369
-0.0098048382
-0.093235356
-0.010989782
-0.097453442
-0.012271885
-0.10184919
-0.013659597
-0.10642995
-0.015161737
-0.11120362
-0.016786929
-0.11617863
-0.018545071
-0.12136378
-0.02044491
-0.12676925
-0.022496008
-0.13240553
-0.024707046
-0.13828447
-0.02708693
-0.14441829
-0.029643929
-0.15082087
-0.032385803
-0.15750727
-0.035319205
-0.16449376
-0.038450857
-0.17179732
-0.041785761
-0.17943744
-0.045329416
-0.18743404
-0.049085119
-0.19580927
-0.053056485
-0.20458664
-0.057246299
-0.21379036
-0.061656626
-0.22344799
-0.066289419
-0.23358717
-0.071146372
-0.24423702
-0.076228586
-0.25542968
-0.081537835
-0.26719735
-0.087075263
-0.27957478
-0.092842658
-0.29259758
-0.098841819
-0.30630375
-0.10507483
-0.32073277
-0.11154436
-0.33592601
-0.11825292
-0.35192729
-0.12520338
-0.36878288
-0.13239949
-0.38654111
-0.13984458
-0.40525378
-0.14754255
-0.42497596
-0.15549703
-0.44576553
-0.16371201
-0.4676844
-0.17219101
-0.49079846
-0.18093787
-0.51517759
-0.18995498
-0.54089701
-0.19924457
-0.56803567
-0.20880739
-0.59667963
-0.21864427
-0.6269187
-0.22875331
-0.65885174
-0.23913184
-0.6925826
-0.24977522
-0.72822294
-0.2606766
-0.76589341
-0.27182536
-0.80572279
-0.28320614
-0.84785094
-0.294796
-0.89242764
-0.30656691
-0.93961261
-0.31849545
-0.98957986
-0.33057631
-1.0425214
-0.34282041
-1.0986425
-0.35519294
-1.1581637
-0.36746255
-1.2213046
-0.37903551
-1.2882955
-0.38911603
-1.3593701
-0.39727635
-1.4348816
-0.4051857
-1.5154126
-0.41696481
-1.601592
-0.4390825
-1.6939652
-0.47177597
-1.7924433
-0.50649428
-1.8969241
-0.53568608
-2.0079387
-0.55848072
-2.1262129
-2.2523369
-0.00019036402
-0.046150632
-0.00080683148
-0.05567703
-0.0012033893
-0.055538428
-0.0018530088
-0.059132965
-0.0023599824
-0.061674453
-0.0030371243
-0.064340013
-0.0036917665
-0.067567054
-0.004425146
-0.070448272
-0.0052170225
-0.07379688
-0.0060662977
-0.077102513
-0.0069919016
-0.080619105
-0.0079939333
-0.084259129
-0.0090826268
-0.088054418
-0.01026568
-0.092004565
-0.011552127
-0.096116633
-0.012951277
-0.1003969
-0.014472861
-0.10485226
-0.016126948
-0.10949029
-0.017923758
-0.11431924
-0.019873151
-0.11934827
-0.021985427
-0.12458709
-0.024270045
-0.13004701
-0.026736013
-0.13574032
-0.029392272
-0.1416793
-0.032246308
-0.14787926
-0.03530506
-0.15435575
-0.038575315
-0.16112519
-0.042061484
-0.16820689
-0.045768277
-0.17562
-0.049699074
-0.18338572
-0.053856717
-0.19152668
-0.058243669
-0.20006669
-0.062860731
-0.20903158
-0.067710567
-0.21844695
-0.072794063
-0.22834217
-0.078112603
-0.23874575
-0.08366845
-0.24968884
-0.089463189
-0.2612042
-0.095500183
-0.27332468
-0.10178227
-0.28608631
-0.10831298
-0.29952627
-0.11509655
-0.31368319
-0.1221381
-0.32859737
-0.12944272
-0.34431247
-0.13701638
-0.36087366
-0.14486565
-0.37832841
-0.1529972
-0.39672815
-0.16141818
-0.41612713
-0.17013643
-0.43658223
-0.17915937
-0.45815534
-0.18849509
-0.48091126
-0.1981505
-0.50492047
-0.20813377
-0.53025628
-0.21845113
-0.55699877
-0.22910937
-0.58523265
-0.24011337
-0.61504874
-0.25146843
-0.64654468
-0.26317767
-0.67982533
-0.27524263
-0.7150022
-0.28766325
-0.75219501
-0.30043476
-0.7915339
-0.31354863
-0.83315831
-0.32699089
-0.87721906
-0.34074642
-0.92387713
-0.3548132
-0.97330826
-0.36921512
-1.0257027
-0.38396288
-1.0812693
-0.39895155
-1.1402247
-0.41380918
-1.2027813
-0.42782895
-1.2691652
-0.44036251
-1.3396614
-0.45196489
-1.4146395
-0.46518253
-1.4946655
-0.48499659
-1.5805638
-0.51722079
-1.6726127
-0.557429
-1.7704675
-0.59625594
-1.8742833
-0.62877881
-1.9847134
-0.65617736
-2.1023888
-2.2279221
-0.00017469026
-0.045952472
-0.0008338706
-0.054994643
-0.0012354885
-0.055111481
-0.0019147658
-0.0584275
-0.0024519184
-0.061109399
-0.0031587725
-0.063603933
-0.0038644213
-0.066830528
-0.0046425272
-0.069637659
-0.0054970633
-0.072908079
-0.0064166693
-0.076146792
-0.0074244404
-0.079573267
-0.0085226368
-0.083120797
-0.0097225996
-0.086812137
-0.01103409
-0.09064844
-0.012467648
-0.094635988
-0.014034292
-0.098780562
-0.015745088
-0.10308901
-0.01761118
-0.10756881
-0.019643576
-0.11222834
-0.021852936
-0.11707707
-0.024249189
-0.12212546
-0.026842043
-0.127385
-0.029640408
-0.13286877
-0.032651506
-0.1385907
-0.035882482
-0.14456615
-0.039338896
-0.15081225
-0.043025154
-0.15734653
-0.046945093
-0.16418881
-0.051101315
-0.17135944
-0.055495614
-0.17888037
-0.060129173
-0.18677479
-0.065003498
-0.19506613
-0.070119461
-0.20378076
-0.075478246
-0.21294394
-0.081081747
-0.22258421
-0.08693202
-0.23272983
-0.093031855
-0.24341111
-0.099385568
-0.25465914
-0.10599668
-0.26650747
-0.11287123
-0.27898946
-0.12001493
-0.29214251
-0.12743569
-0.30600289
-0.13514027
-0.32061184
-0.14313751
-0.33601076
-0.15143712
-0.35224374
-0.16004816
-0.36935859
-0.16898139
-0.38740478
-0.17824796
-0.40643579
-0.18785894
-0.42650825
-0.19782653
-0.44768247
-0.20816239
-0.47002334
-0.21887946
-0.49359945
-0.22998905
-0.51848505
-0.24150315
-0.54475869
-0.25343371
-0.57250419
-0.26579181
-0.60181248
-0.27858809
-0.63278075
-0.29183347
-0.66551245
-0.30553613
-0.70011969
-0.31970094
-0.73672193
-0.33432975
-0.77544803
-0.34942166
-0.81643674
-0.36497489
-0.85983897
-0.38099243
-0.90581806
-0.39749855
-0.954549
-0.41453503
-1.0062161
-0.43207468
-1.0610353
-0.44989666
-1.1192135
-0.46748658
-1.1809595
-0.48418416
-1.246505
-0.49975331
-1.3161266
-0.51564851
-1.3903501
-0.53570569
-1.4697964
-0.56593035
-1.5550943
-0.60792969
-1.6462082
-0.65428025
-1.7429579
-0.69659998
-1.8456591
-0.73292367
-1.9549906
-0.76587905
-2.0715549
-2.1959107
-0.00016563923
-0.045764987
-0.00088660937
-0.054252053
-0.0012996345
-0.054674859
-0.0020248907
-0.057677835
-0.0026130759
-0.060495211
-0.0033661918
-0.062823568
-0.0041447266
-0.066023212
-0.0049912837
-0.068760796
-0.005933464
-0.071933959
-0.0069543395
-0.075092254
-0.0080792232
-0.078412907
-0.0093138375
-0.081848783
-0.010670963
-0.085415583
-0.012162323
-0.0891155
-0.013800178
-0.092954275
-0.015596742
-0.096937719
-0.017564181
-0.10107272
-0.019714217
-0.10536719
-0.022058166
-0.10982989
-0.024606553
-0.11447107
-0.027369154
-0.11930192
-0.030354356
-0.1243353
-0.03356944
-0.12958536
-0.03702084
-0.13506688
-0.04071287
-0.14079728
-0.044649461
-0.14679405
-0.048832374
-0.15307685
-0.053263307
-0.15966553
-0.057943169
-0.16658116
-0.062872139
-0.17384638
-0.068050902
-0.18148381
-0.073479727
-0.18951723
-0.07916015
-0.19797169
-0.085093736
-0.20687235
-0.091283658
-0.21624605
-0.097733136
-0.2261209
-0.1044476
-0.23652487
-0.11143235
-0.24748905
-0.11869537
-0.25904419
-0.12624402
-0.27122416
-0.13408863
-0.28406321
-0.14223827
-0.29759872
-0.15070482
-0.31186895
-0.15950054
-0.32691468
-0.16863775
-0.34277969
-0.17813019
-0.35951014
-0.18799218
-0.37715456