/*--------------------------------*- C++ -*----------------------------------*\
  =========                 |
  \\      /  F ield         | OpenFOAM: The Open Source CFD Toolbox
   \\    /   O peration     | Website:  https://openfoam.org
    \\  /    A nd           | Version:  12
     \\/     M anipulation  |
\*---------------------------------------------------------------------------*/
FoamFile
{
    format      ascii;
    class       volScalarField;
    location    "500";
    object      alphat;
}
// * * * * * * * * * * * * * * * * * * * * * * * * * * * * * * * * * * * * * //

dimensions      [1 -1 -1 0 0 0 0];

internalField   nonuniform List<scalar> 
16200
(
0.0004856586216
0.001649475401
0.002746450452
0.003606362998
0.003887836787
0.003443371179
0.0025486926
0.001410819758
0.0007185904809
0.0002185840446
6.763010698e-06
2.748818544e-06
2.490160826e-06
2.441591285e-06
1.92049179e-06
1.653370368e-06
1.441159932e-06
1.292491833e-06
1.197329567e-06
1.137260396e-06
1.104192796e-06
1.094861656e-06
1.105955032e-06
1.13546191e-06
1.182919843e-06
1.249694194e-06
1.339388156e-06
1.458580081e-06
1.618308238e-06
1.836971735e-06
2.145684698e-06
2.598478711e-06
3.292304011e-06
4.408756054e-06
6.307620608e-06
9.739287257e-06
1.63280089e-05
2.966470243e-05
5.779703114e-05
0.000118958207
0.0002549330985
0.0005623618305
0.0011647749
0.001165998245
0.001166210198
0.001165539601
0.001164586894
0.001164327675
0.001164332683
0.001164421821
0.001164525031
0.001164619248
0.001164700564
0.001164772809
0.001164842175
0.001164918178
0.001165008451
0.001165135485
0.001165299776
0.001165579803
0.0004748494076
0.001600262687
0.002635685277
0.003396816431
0.003516471649
0.002956086548
0.002077693745
0.001035985259
0.000571050776
4.76575993e-05
2.833384213e-06
2.296975968e-06
2.090855252e-06
2.056547148e-06
1.70612417e-06
1.465301979e-06
1.273877035e-06
1.139964035e-06
1.056162645e-06
1.004679512e-06
9.778229962e-07
9.722813553e-07
9.848765714e-07
1.013640643e-06
1.05812905e-06
1.119620271e-06
1.201532287e-06
1.310145598e-06
1.455973784e-06
1.656298489e-06
1.939795542e-06
2.355532413e-06
2.991009215e-06
4.009823272e-06
5.735700651e-06
8.843118391e-06
1.479096981e-05
2.680411507e-05
5.210484067e-05
0.0001070483601
0.0002290904958
0.0005048396896
0.001136235381
0.001165857028
0.001166120161
0.001165566789
0.001164597634
0.001164332274
0.001164336377
0.001164426837
0.001164532007
0.00116462806
0.001164710853
0.001164783962
0.001164853937
0.001164929543
0.001165019634
0.001165145288
0.001165309537
0.001165592921
0.000465597593
0.001554626994
0.002530125813
0.003192025519
0.003152939662
0.002502060833
0.001618885725
0.0007598725602
0.000390466426
1.492120723e-05
2.168781747e-06
1.923153009e-06
1.755794189e-06
1.722301308e-06
1.504510252e-06
1.289384996e-06
1.118721853e-06
9.99467312e-07
9.266060114e-07
8.831404998e-07
8.618080052e-07
8.59235707e-07
8.723533491e-07
8.992499192e-07
9.395561117e-07
9.946047445e-07
1.067848493e-06
1.165553085e-06
1.29802999e-06
1.481807315e-06
1.743581985e-06
2.128138508e-06
2.714693621e-06
3.651166356e-06
5.230205296e-06
8.060868097e-06
1.345855633e-05
2.432576541e-05
4.714605676e-05
9.656190206e-05
0.0002060069833
0.0004526052186
0.001015769379
0.001165783966
0.001166061685
0.001165598948
0.001164618083
0.0011643459
0.001164346995
0.001164436666
0.001164542096
0.001164638764
0.00116472219
0.001164795687
0.001164865906
0.001164941101
0.001165030888
0.00116515537
0.001165319591
0.00116560645
0.0004586121925
0.001512665381
0.00242665868
0.002958501138
0.002784549145
0.002087805615
0.001160003341
0.0005599802662
0.0001987644855
5.757178236e-06
1.804139086e-06
1.625254664e-06
1.488757873e-06
1.456555593e-06
1.328393651e-06
1.135444907e-06
9.829457243e-07
8.767174118e-07
8.134448842e-07
7.76928549e-07
7.602332264e-07
7.599244076e-07
7.730663778e-07
7.979402693e-07
8.344260394e-07
8.841102133e-07
9.506762055e-07
1.040571221e-06
1.164118539e-06
1.337387169e-06
1.585646121e-06
1.950538774e-06
2.50530392e-06
3.386882323e-06
4.866779387e-06
7.510289045e-06
1.253783371e-05
2.263976787e-05
4.381686531e-05
8.959566347e-05
0.0001908005594
0.0004184123064
0.0009372964886
0.001165791892
0.001166047235
0.001165635593
0.00116465042
0.00116437137
0.001164367134
0.001164453418
0.001164556903
0.00116465253
0.001164735401
0.001164808526
0.001164878463
0.00116495307
0.001165042353
0.001165165765
0.00116532981
0.001165619671
0.0004524449561
0.001473340126
0.002325900955
0.002722591653
0.002425829503
0.00172909969
0.0008300768751
0.0004290153144
4.943845975e-05
2.13694369e-06
1.519466976e-06
1.376580104e-06
1.265654201e-06
1.235809682e-06
1.168185354e-06
9.96043935e-07
8.606435595e-07
7.667183449e-07
7.122279166e-07
6.818303162e-07
6.689905648e-07
6.703465987e-07
6.832359495e-07
7.062777844e-07
7.396925327e-07
7.85382473e-07
8.473192978e-07
9.321860513e-07
1.050358234e-06
1.217516764e-06
1.457739143e-06
1.810120583e-06
2.343115555e-06
3.185013419e-06
4.590935431e-06
7.092508461e-06
1.183673551e-05
2.134829537e-05
4.124682665e-05
8.416798005e-05
0.0001788337098
0.0003912280759
0.0008742935574
0.001165861606
0.001166067001
0.001165676302
0.001164692042
0.001164405941
0.00116439452
0.001164475382
0.001164575211
0.001164668512
0.001164749928
0.001164822107
0.001164891388
0.001164965288
0.001165053979
0.00116517644
0.001165340301
0.001165632987
0.0004467654227
0.001435732245
0.002225443235
0.002484796849
0.002076017459
0.001369957963
0.0006159356897
0.0003011715929
1.760764665e-05
1.576403783e-06
1.288413956e-06
1.171962516e-06
1.08153658e-06
1.053907046e-06
1.024940678e-06
8.712971658e-07
7.511751719e-07
6.683660511e-07
6.216444601e-07
5.965912865e-07
5.871300562e-07
5.900600226e-07
6.03031799e-07
6.25013328e-07
6.565596396e-07
6.999249228e-07
7.594434772e-07
8.420889616e-07
9.583129837e-07
1.123502084e-06
1.360869377e-06
1.707691981e-06
2.228998483e-06
3.046968766e-06
4.405494239e-06
6.813579457e-06
1.136885982e-05
2.048348453e-05
3.951478732e-05
8.047704181e-05
0.0001706078009
0.0003723228923
0.0008299673619
0.001165983171
0.001166117208
0.001165718043
0.001164740748
0.001164448186
0.00116442829
0.001164502063
0.001164596754
0.00116468658
0.001164765716
0.001164836411
0.001164904694
0.00116497776
0.001165065788
0.001165187393
0.001165351057
0.001165646317
0.0004410609726
0.0013988523
0.002123214757
0.002235497455
0.001742833145
0.001003946045
0.0004615999331
0.0001814755986
6.464805473e-06
1.301739435e-06
1.096415921e-06
1.000068484e-06
9.257905338e-07
9.003009189e-07
8.944062246e-07
7.578930692e-07
6.520664431e-07
5.799601142e-07
5.407274332e-07
5.209103157e-07
5.148855206e-07
5.196336786e-07
5.331344795e-07
5.547476085e-07
5.8543338e-07
6.276993574e-07
6.866426941e-07
7.693207907e-07
8.862090624e-07
1.052439899e-06
1.29115617e-06
1.637604776e-06
2.154769771e-06
2.960568426e-06
4.291371266e-06
6.641506511e-06
1.107646918e-05
1.993357001e-05
3.839120121e-05
7.802967358e-05
0.0001650282914
0.0003592133565
0.0007985941135
0.001166142861
0.001166191084
0.001165759677
0.00116479451
0.001164496274
0.001164467063
0.001164532507
0.001164620907
0.001164706341
0.001164782535
0.001164851304
0.001164918318
0.001164990448
0.001165077779
0.001165198621
0.001165362103
0.001165659725
0.0004345918516
0.001361080656
0.002016217908
0.001978835373
0.001442516391
0.0007274525867
0.0003569315882
6.469596814e-05
2.45715591e-06
1.095658392e-06
9.334039558e-07
8.534855594e-07
7.925375121e-07
7.696851632e-07
7.763634249e-07
6.561792801e-07
5.64025675e-07
5.023532832e-07
4.703753371e-07
4.55601112e-07
4.528671438e-07
4.593954328e-07
4.735781416e-07
4.952727889e-07
5.257695552e-07
5.685583129e-07
6.285341891e-07
7.131219873e-07
8.328285366e-07
1.002679439e-06
1.244983432e-06
1.595853288e-06
2.115340129e-06
2.919150747e-06
4.239355776e-06
6.562553617e-06
1.093725394e-05
1.965918574e-05
3.780154928e-05
7.667681008e-05
0.0001617844432
0.0003512320837
0.0007787091996
0.001166328793
0.001166282496
0.001165799822
0.001164851391
0.001164548534
0.001164509609
0.001164565882
0.001164647137
0.001164727471
0.001164800198
0.001164866689
0.001164932217
0.001165003331
0.001165089953
0.001165210122
0.001165373449
0.001165673215
0.0004273666713
0.001320410228
0.001883330388
0.001719383923
0.001165359355
0.0005393299239
0.0002720027711
3.443133482e-05
1.479116236e-06
9.275042966e-07
7.981886456e-07
7.311877188e-07
6.810649463e-07
6.608573177e-07
6.728877811e-07
5.675220462e-07
4.878113069e-07
4.357373074e-07
4.103092103e-07
3.999983577e-07
4.001420017e-07
4.082886501e-07
4.231091235e-07
4.454189054e-07
4.769449186e-07
5.211958689e-07
5.835015036e-07
6.714191185e-07
7.955213633e-07
9.708768385e-07
1.219794654e-06
1.578023981e-06
2.105084611e-06
2.915208533e-06
4.238776201e-06
6.560317652e-06
1.092373153e-05
1.961025198e-05
3.764779503e-05
7.621557007e-05
0.0001604392701
0.0003474110646
0.0007681261431
0.001166530117
0.001166385414
0.001165837853
0.001164909831
0.001164603461
0.001164554758
0.001164601365
0.001164674903
0.001164749636
0.001164818509
0.001164882458
0.001164946344
0.001165016388
0.001165102311
0.001165221899
0.001165385108
0.001165686809
0.0004191631948
0.001276293873
0.001730374666
0.001463474167
0.0008625972906
0.0004048183889
0.0001923353632
1.808633626e-05
1.131773474e-06
7.88847476e-07
6.84978447e-07
6.285259372e-07
5.871558285e-07
5.695242733e-07
5.822844748e-07
4.90256122e-07
4.217809129e-07
3.78462716e-07
3.588990783e-07
3.52540545e-07
3.552712018e-07
3.648203273e-07
3.810458479e-07
4.045672923e-07
4.377231834e-07
4.843613019e-07
5.499989414e-07
6.423110798e-07
7.720085224e-07
9.543580612e-07
1.211903775e-06
1.580418171e-06
2.119470037e-06
2.942927686e-06
4.281714023e-06
6.623159519e-06
1.101721656e-05
1.975395889e-05
3.786758745e-05
7.651978802e-05
0.0001607254463
0.0003471650001
0.000765534078
0.001166737847
0.001166494507
0.001165873376
0.00116496855
0.001164659769
0.001164601488
0.001164638227
0.001164703722
0.001164772531
0.001164837293
0.001164898517
0.001164960655
0.001165029602
0.001165114854
0.001165233958
0.001165397086
0.001165700514
0.0004098500095
0.001228257131
0.001565065389
0.001220107616
0.0006235560793
0.0003098253362
0.0001262388552
1.201606083e-05
9.265271312e-07
6.721873186e-07
5.888091945e-07
5.409268681e-07
5.066323001e-07
4.913428473e-07
5.019947723e-07
4.221924729e-07
3.641311004e-07
3.290420869e-07
3.149355914e-07
3.122409565e-07
3.171543538e-07
3.286738773e-07
3.464141907e-07
3.716412913e-07
4.070621951e-07
4.567762999e-07
5.264693509e-07
6.239625463e-07
7.601784171e-07
9.507128314e-07
1.218537209e-06
1.599767448e-06
2.154496649e-06
2.997181418e-06
4.361206718e-06
6.740904534e-06
1.120148659e-05
2.006197998e-05
3.840725577e-05
7.748093028e-05
0.0001624127678
0.0003499888253
0.0007697987621
0.001166944783
0.00116660519
0.001165906291
0.001165026579
0.001164716406
0.001164648932
0.001164675836
0.001164733166
0.001164795887
0.001164856389
0.00116491478
0.001164975113
0.001165042959
0.001165127586
0.001165246307
0.001165409391
0.001165714342
0.0003992145351
0.00117543275
0.001394555494
0.0009794955301
0.0004683361512
0.0002423754006
6.034901427e-05
6.554873742e-06
7.540497883e-07
5.745473313e-07
5.068203454e-07
4.659240316e-07
4.372438791e-07
4.241001998e-07
4.311278141e-07
3.626028809e-07
3.142643338e-07
2.869151053e-07
2.778630817e-07
2.782683214e-07
2.857305793e-07
2.990055225e-07
3.184271111e-07
3.457334129e-07
3.838918291e-07
4.371805979e-07
5.114514252e-07
6.147176306e-07
7.581794629e-07
9.578642522e-07
1.237330158e-06
1.633305233e-06
2.206811074e-06
3.073728484e-06
4.471603027e-06
6.905491849e-06
1.146402008e-05
2.051296582e-05
3.922710744e-05
7.901981085e-05
0.0001653347508
0.0003555191443
0.0007801061593
0.001167145462
0.001166713697
0.001165936633
0.001165083197
0.001164772542
0.001164696383
0.001164713665
0.001164762873
0.001164819472
0.001164875658
0.001164931173
0.001164989685
0.001165056448
0.00116514051
0.001165258949
0.001165422028
0.001165728299
0.0003869670716
0.001115636907
0.001218077175
0.0007434712878
0.0003610958475
0.0001869140147
3.021352711e-05
3.282080973e-06
6.139000791e-07
4.918805936e-07
4.365852308e-07
4.018584888e-07
3.779548656e-07
3.669653856e-07
3.698264007e-07
3.115215555e-07
2.720322358e-07
2.516794479e-07
2.470578427e-07
2.503765476e-07
2.600031112e-07
2.749855569e-07
2.962516222e-07
3.259203555e-07
3.671670297e-07
4.244051028e-07
5.036436321e-07
6.131322239e-07
7.644139085e-07
9.740283218e-07
1.266252741e-06
1.678656438e-06
2.273541309e-06
3.168957764e-06
4.608143671e-06
7.110240049e-06
1.179462708e-05
2.108984083e-05
4.029583314e-05
8.107458125e-05
0.0001693621771
0.0003634748778
0.0007958275009
0.001167335943
0.001166817047
0.001165964534
0.001165137897
0.001164827545
0.001164743284
0.001164751288
0.001164792544
0.001164843092
0.001164894986
0.001164947634
0.001165004343
0.001165070061
0.001165153628
0.001165271875
0.001165435005
0.001165742392
0.0003734905348
0.001047937803
0.001039658601
0.0005564698471
0.0002840745716
0.0001404223236
1.843287727e-05
1.817342708e-06
5.071284789e-07
4.219290946e-07
3.777439381e-07
3.480686332e-07
3.280072093e-07
3.188642402e-07
3.173994918e-07
2.68183416e-07
2.36650644e-07
2.225070917e-07
2.213357605e-07
2.27554123e-07
2.390522765e-07
2.557795672e-07
2.790820215e-07
3.113554994e-07
3.55955913e-07
4.174219693e-07
5.019172522e-07
6.179617577e-07
7.775065419e-07
9.97671103e-07
1.303638475e-06
1.733786188e-06
2.352241975e-06
3.279825998e-06
4.766880486e-06
7.349724211e-06
1.218523771e-05
2.177940926e-05
4.158973331e-05
8.359914723e-05
0.0001743997485
0.0003736500122
0.0008165033486
0.001167513563
0.001166912978
0.001165990157
0.001165190345
0.001164880953
0.001164789211
0.001164788372
0.001164821944
0.001164866591
0.001164914277
0.001164964113
0.001165019065
0.001165083793
0.001165166945
0.001165285079
0.001165448322
0.001165756624
0.0003597576014
0.0009746529285
0.0008469777943
0.0004294656365
0.0002310143244
0.0001021279953
1.297113334e-05
1.059208189e-06
4.233140967e-07
3.622564999e-07
3.269385844e-07
3.019580761e-07
2.849935792e-07
2.775156286e-07
2.721175758e-07
2.312597039e-07
2.070606687e-07
1.984688229e-07
2.005782352e-07
2.089747251e-07
2.221689408e-07
2.407020888e-07
2.662257415e-07
3.01318543e-07
3.494673359e-07
4.153440356e-07
5.05292899e-07
6.281291989e-07
7.962672557e-07
1.027466081e-06
1.347809047e-06
1.796945274e-06
2.440825427e-06
3.403761448e-06
4.944526777e-06
7.619521176e-06
1.262943555e-05
2.257144725e-05
4.309086359e-05
8.655923239e-05
0.0001803774874
0.0003858944258
0.0008418002086
0.001167676687
0.001166999851
0.001166013681
0.001165240337
0.001164932448
0.001164833857
0.001164824666
0.001164850887
0.001164889845
0.001164933456
0.001164980567
0.001165033835
0.00116509764
0.001165180463
0.001165298558
0.001165461972
0.001165770999
0.0003463464076
0.0008937814425
0.0006902501367
0.0003528503275
0.0001953719455
5.714302017e-05
8.271046518e-06
6.689049288e-07
3.557473885e-07
3.104328715e-07
2.819191436e-07
2.61439173e-07
2.475058589e-07
2.417285281e-07
2.331575526e-07
2.000742525e-07
1.826079576e-07
1.785257702e-07
1.837575975e-07
1.939876039e-07
2.088110286e-07
2.292291201e-07
2.57119323e-07
2.951892775e-07
3.470065514e-07
4.173872945e-07
5.129046244e-07
6.426897615e-07
8.196567859e-07
1.062259383e-06
1.397564208e-06
1.866632932e-06
2.537518267e-06
3.538606903e-06
5.138372929e-06
7.916070269e-06
1.312220753e-05
2.345822402e-05
4.47860686e-05
8.993034309e-05
0.0001872463125
0.0004001040434
0.0008714882788
0.001167824476
0.001167076552
0.00116603528
0.001165287771
0.001164981826
0.001164877006
0.00116485999
0.001164879237
0.001164912759
0.001164952463
0.001164996967
0.001165048638
0.001165111601
0.001165194186
0.001165312314
0.001165475937
0.001165785513
0.0003358440337
0.0008044353453
0.0005642467866
0.0002981587297
0.0001647915764
3.187295998e-05
3.994891209e-06
4.633733139e-07
3.016255573e-07
2.666338946e-07
2.435280007e-07
2.265161972e-07
2.153978614e-07
2.111773625e-07
2.001162016e-07
1.741255259e-07
1.627026544e-07
1.627609307e-07
1.702263557e-07
1.820711353e-07
1.985339194e-07
2.209242144e-07
2.512878652e-07
2.92402121e-07
3.479339176e-07
4.228500251e-07
5.239873335e-07
6.608160719e-07
8.46771334e-07
1.101060557e-06
1.451786553e-06
1.941574616e-06
2.640830856e-06
3.682574342e-06
5.346214162e-06
8.236550362e-06
1.365972148e-05
2.443407562e-05
4.66661226e-05
9.369596091e-05
0.0001949741077
0.000416212068
0.0009054215329
0.001167956679
0.001167142394
0.001166055119
0.001165332625
0.001165028974
0.001164918524
0.001164894219
0.001164906897
0.001164935266
0.001164971257
0.001165013288
0.001165063467
0.001165125676
0.001165208111
0.001165326344
0.001165490208
0.001165800166
0.0003314389494
0.0007096656966
0.0004706600146
0.0002516108194
0.0001348399413
1.922121052e-05
1.941298786e-06
3.42982844e-07
2.575878864e-07
2.297633488e-07
2.108211753e-07
1.966234194e-07
1.876094037e-07
1.849604168e-07
1.722261145e-07
1.527770863e-07
1.464114131e-07
1.501979943e-07
1.594787104e-07
1.72824692e-07
1.909514384e-07
2.153771324e-07
2.482625494e-07
2.92413661e-07
3.516528637e-07
4.311012952e-07
5.378649586e-07
6.817818679e-07
8.768260437e-07
1.142994677e-06
1.509525899e-06
2.020699978e-06
2.749528582e-06
3.834204446e-06
5.56628916e-06
8.578779517e-06
1.423914954e-05
2.549507274e-05
4.872506659e-05
9.784615383e-05
0.0002035427082
0.0004341822744
0.0009435225685
0.001168073473
0.001167197024
0.00116607335
0.001165374929
0.001165073847
0.001164958335
0.001164927275
0.0011649338
0.001164957317
0.001164989804
0.001165029515
0.001165078315
0.001165139864
0.001165222241
0.001165340644
0.001165504777
0.001165814951
0.0003362184513
0.0006139871168
0.0003867220909
0.0002172255948
0.0001073229883
1.278600339e-05
9.567591523e-07
2.685943863e-07
2.204239063e-07
1.979210121e-07
1.823758327e-07
1.706592386e-07
1.635176737e-07
1.623746781e-07
1.489838629e-07
1.35605876e-07
1.339254426e-07
1.403253087e-07
1.5111798e-07
1.659004476e-07
1.857043499e-07
2.121846983e-07
2.475709179e-07
2.947290231e-07
3.576381475e-07
4.415898744e-07
5.539523944e-07
7.049610172e-07
9.09147747e-07
1.187346403e-06
1.569989344e-06
2.103126767e-06
2.86260701e-06
3.992329392e-06
5.797224041e-06
8.941127208e-06
1.48585219e-05
2.663875974e-05
5.095971065e-05
0.0001023765724
0.0002129457765
0.0004540043677
0.0009857722797
0.001168175323
0.00116724034
0.001166090115
0.001165414755
0.001165116452
0.001164996409
0.001164959116
0.001164959907
0.001164978879
0.001165008085
0.001165045635
0.001165093178
0.001165154165
0.00116523658
0.001165355217
0.001165519632
0.001165829867
0.0003515596763
0.0005251328377
0.0003319077612
0.000195656899
6.29643994e-05
8.789405403e-06
5.028329533e-07
2.1870853e-07
1.889168924e-07
1.705977902e-07
1.579302616e-07
1.484389165e-07
1.430285569e-07
1.432675765e-07
1.301148089e-07
1.222243578e-07
1.243772854e-07
1.32691783e-07
1.447841987e-07
1.609557583e-07
1.824330124e-07
2.109496484e-07
2.487830735e-07
2.989148094e-07
3.654330336e-07
4.538315521e-07
5.717406548e-07
7.298155434e-07
9.431700113e-07
1.233512056e-06
1.632528214e-06
2.188144821e-06
2.979270921e-06
4.156043839e-06
6.037989693e-06
9.322446566e-06
1.55166101e-05
2.786393657e-05
5.336919787e-05
0.0001072875274
0.0002231867878
0.0004756894806
0.001032199943
0.001168262885
0.001167272421
0.001166105542
0.001165452199
0.001165156833
0.001165032753
0.001164989729
0.001164985197
0.001164999935
0.001165026086
0.001165061642
0.001165108053
0.001165168579
0.001165251134
0.001165370071
0.001165534748
0.001165844909
0.0003754489294
0.0004952713259
0.0002944718027
0.0001784556412
3.407685791e-05
3.682449512e-06
2.969352366e-07
1.832651888e-07
1.628463539e-07
1.477817458e-07
1.374433493e-07
1.298303505e-07
1.260020022e-07
1.272932088e-07
1.151936945e-07
1.119261274e-07
1.171368039e-07
1.268731836e-07
1.401435363e-07
1.576772042e-07
1.808108868e-07
2.113247691e-07
2.515516281e-07
3.045960556e-07
3.746442244e-07
4.674096191e-07
5.907969551e-07
7.558955204e-07
9.784258857e-07
1.281003854e-06
1.696627328e-06
2.275199782e-06
3.09891126e-06
4.324673217e-06
6.287857856e-06
9.72201076e-06
1.621282799e-05
2.917049144e-05
5.595469658e-05
0.0001125833857
0.0002342777666
0.000499267422
0.001082876986
0.001168336929
0.001167293463
0.001166119753
0.001165487376
0.00116519506
0.001165067396
0.00116501912
0.001165009666
0.001165020477
0.001165043799
0.001165077531
0.001165122939
0.001165183108
0.001165265904
0.001165385204
0.001165550091
0.001165860066
0.0004041505743
0.000438560277
0.0002683527508
0.000160444704
1.871876924e-05
1.426626524e-06
2.029183614e-07
1.564794707e-07
1.412876818e-07
1.287690509e-07
1.202693018e-07
1.143124429e-07
1.117947087e-07
1.131834195e-07
1.036488906e-07
1.044011379e-07
1.116455467e-07
1.225166266e-07
1.369125517e-07
1.557936281e-07
1.805526679e-07
2.130126407e-07
2.555708849e-07
3.114392383e-07
3.849273498e-07
4.819680241e-07
6.107572915e-07
7.828294948e-07
1.014535964e-06
1.329431872e-06
1.761881348e-06
2.363862501e-06
3.22106577e-06
4.497722691e-06
6.546332854e-06
1.013941698e-05
1.694708634e-05
3.055916191e-05
5.871897633e-05
0.0001182717642
0.0002462376751
0.0005247832676
0.001137908174
0.001168398284
0.001167303728
0.001166132858
0.00116552041
0.001165231219
0.001165100388
0.001165047311
0.00116503332
0.001165040504
0.001165061224
0.001165093302
0.001165137835
0.001165197752
0.001165280891
0.001165400581
0.001165565662
0.001165875313
0.0004387757676
0.0004095991464
0.0002575527833
0.0001397966428
1.104390046e-05
5.204695143e-07
1.582723936e-07
1.34969636e-07
1.23039885e-07
1.126116349e-07
1.057542477e-07
1.012060936e-07
9.975935552e-08
9.976931493e-08
9.49396483e-08
9.885605359e-08
1.075008715e-07
1.193659919e-07
1.34864551e-07
1.550689475e-07
1.814057391e-07
2.157466615e-07
2.605581806e-07
3.191540615e-07
3.95987046e-07
4.972101761e-07
6.31324368e-07
8.103204403e-07
1.051203504e-06
1.37849805e-06
1.827987718e-06
2.453820758e-06
3.345409141e-06
4.674864814e-06
6.813134951e-06
1.057456155e-05
1.771975104e-05
3.203145564e-05
6.166624292e-05
0.0001243631632
0.0002590915678
0.0005522953735
0.001169465254
0.001168447805
0.0011673035
0.001166144959
0.001165551428
0.001165265406
0.001165131788
0.001165074334
0.001165056173
0.001165060021
0.001165078361
0.001165108953
0.00116515274
0.001165212511
0.001165296091
0.00116541617
0.001165581514
0.001165890626
0.0004764273504
0.0004020213724
0.0002560053149
9.512881898e-05
5.502927471e-06
2.155678934e-07
1.32714379e-07
1.169642135e-07
1.073413565e-07
9.895469363e-08
9.332545818e-08
8.999945316e-08
8.962747098e-08
8.929470317e-08
8.857095356e-08
9.471378589e-08
1.044356832e-07
1.172268119e-07
1.338023891e-07
1.552881074e-07
1.831405025e-07
2.192871103e-07
2.66265598e-07
3.274944497e-07
4.07578508e-07
5.128959113e-07
6.522636401e-07
8.381406523e-07
1.088207983e-06
1.427988476e-06
1.894737507e-06
2.54486835e-06
3.47173965e-06
4.855922394e-06
7.088177158e-06
1.102760561e-05
1.853158706e-05
3.358954823e-05
6.480193268e-05
0.0001308705276
0.0002728696181
0.0005818731941
0.001169550782
0.001168486352
0.001167293045
0.001166156152
0.001165580555
0.001165297721
0.001165161661
0.001165100226
0.001165078247
0.001165079038
0.001165095213
0.001165124487
0.001165167652
0.001165227383
0.001165311498
0.001165431957
0.001165597663
0.001165905981
0.0005335085411
0.0004111307642
0.0002600864277
4.695222133e-05
1.502641445e-06
1.359462126e-07
1.143489094e-07
1.020733215e-07
9.417118858e-08
8.721133928e-08
8.272863084e-08
8.059346753e-08
8.129188502e-08
8.14725706e-08
8.404282169e-08
9.168454144e-08
1.022629475e-07
1.159345656e-07
1.335475201e-07
1.562578503e-07
1.855562735e-07
2.234288386e-07
2.724876941e-07
3.362578105e-07
4.19503717e-07
5.288334654e-07
6.733910634e-07
8.661148108e-07
1.125382661e-06
1.477744797e-06
1.96197978e-06
2.636861304e-06
3.599925364e-06
5.040801835e-06
7.371480106e-06
1.149886074e-05
1.938359335e-05
3.523602609e-05
6.813228488e-05
0.0001378084914
0.0002876057208
0.0006135946261
0.00116962242
0.001168514779
0.001167272578
0.001166166522
0.001165607915
0.001165328265
0.001165190076
0.001165125031
0.001165099562
0.001165097565
0.001165111785
0.001165139903
0.00116518257
0.001165242367
0.001165327105
0.001165447926
0.001165614101
0.001165921356
0.0005897106373
0.0004114806101
0.0002579888021
2.231637879e-05
3.65737494e-07
1.115483641e-07
9.988409303e-08
8.971772091e-08
8.30243364e-08
7.728530847e-08
7.387669474e-08
7.289087129e-08
7.462494511e-08
7.590573095e-08
8.086180653e-08
8.950475255e-08
1.008259863e-07
1.153350236e-07
1.339345674e-07
1.578051166e-07
1.884796464e-07
2.27998492e-07
2.790540377e-07
3.452794452e-07
4.316055315e-07
5.448742972e-07
6.945678531e-07
8.941148402e-07
1.162609726e-06
1.527659564e-06
2.029617193e-06
2.729713476e-06
3.72989928e-06
5.229486712e-06
7.66316205e-06
1.198877144e-05
2.027696859e-05
3.697381414e-05
7.166417865e-05
0.0001451929994
0.0003033366031
0.0006475439536
0.00116968124
0.001168533931
0.001167242231
0.001166176149
0.001165633624
0.001165357138
0.001165217103
0.001165148791
0.001165120146
0.001165115616
0.001165128083
0.001165155203
0.00116519749
0.001165257459
0.001165342899
0.00116546406
0.001165630824
0.00116593672
0.0006457187642
0.0004073008219
0.0002462697785
1.128875269e-05
1.479839215e-07
9.696274051e-08
8.784696504e-08
7.938920636e-08
7.366243098e-08
6.897346213e-08
6.659534137e-08
6.672445498e-08
6.943468087e-08
7.208815008e-08
7.861988137e-08
8.798555145e-08
9.998665744e-08
1.152869604e-07
1.348171481e-07
1.597832311e-07
1.917652966e-07
2.328549364e-07
2.858288814e-07
3.544318394e-07
4.437664292e-07
5.609131142e-07
7.157012761e-07
9.22061802e-07
1.199824337e-06
1.577682902e-06
2.097616042e-06
2.823410351e-06
3.861677561e-06
5.422061022e-06
7.963467904e-06
1.249795091e-05
2.121315432e-05
3.88062213e-05
7.540515965e-05
0.0001530412451
0.0003201014758
0.0006838106435
0.001169728233
0.001168544659
0.001167208417
0.001166185103
0.001165657791
0.001165384433
0.001165242811
0.00116517155
0.001165140023
0.001165133203
0.001165144112
0.001165170386
0.001165212409
0.001165272657
0.001165358866
0.001165480346
0.001165647824
0.001165952033
0.0006797430549
0.0004020953212
0.0002218233411
6.739786774e-06
1.120903162e-07
8.51939783e-08
7.778460404e-08
7.069639557e-08
6.577585029e-08
6.20442043e-08
6.069687477e-08
6.190026596e-08
6.54966731e-08
6.950902646e-08
7.703752637e-08
8.698936508e-08
9.962424034e-08
1.156677436e-07
1.360718725e-07
1.620717426e-07
1.952942367e-07
2.378845607e-07
2.927043244e-07
3.636155282e-07
4.558958671e-07
5.768703985e-07
7.367225099e-07
9.498980139e-07
1.236980466e-06
1.627780952e-06
2.165955781e-06
2.917947784e-06
3.99528469e-06
5.61861612e-06
8.272649019e-06
1.30270161e-05
2.21935912e-05
4.073655235e-05
7.936277939e-05
0.0001613704892
0.0003379398278
0.0007224850828
0.001169764309
0.001168547571
0.001167176696
0.001166193448
0.00116568052
0.001165410242
0.001165267264
0.001165193352
0.001165159219
0.001165150342
0.001165159879
0.001165185453
0.001165227322
0.001165287953
0.00116537499
0.001165496765
0.001165665088
0.001165967255
0.0006778870258
0.0004032069632
0.000186367603
2.650758036e-06
9.298807917e-08
7.544853547e-08
6.931269833e-08
6.333332312e-08
5.912123427e-08
5.631692366e-08
5.601264455e-08
5.821230092e-08
6.257402632e-08
6.775036654e-08
7.593577082e-08
8.640480065e-08
9.963176733e-08
1.163708606e-07
1.375952583e-07
1.64572227e-07
1.989717574e-07
2.429998376e-07
2.996014205e-07
3.727617224e-07
4.679355613e-07
5.926991734e-07
7.575963195e-07
9.775998079e-07
1.274066839e-06
1.677955417e-06
2.234652503e-06
3.013359979e-06
4.130786271e-06
5.819288795e-06
8.591007361e-06
1.357663921e-05
2.321977698e-05
4.276816492e-05
8.354462056e-05
0.0001701979541
0.0003568909286
0.0007636569928
0.001169790307
0.001168543035
0.001167146959
0.00116620124
0.001165701903
0.001165434648
0.001165290526
0.001165214238
0.001165177759
0.001165167043
0.001165175387
0.001165200401
0.001165242224
0.001165303341
0.001165391247
0.001165513302
0.001165682599
0.001165982341
0.0006712426686
0.0004075350645
0.0001013229636
9.106867639e-07
8.025869567e-08
6.738585788e-08
6.219586339e-08
5.71120108e-08
5.354793516e-08
5.167126424e-08
5.238719663e-08
5.545523216e-08
6.024253736e-08
6.653180891e-08
7.520057593e-08
8.614237894e-08
9.992079865e-08
1.173094444e-07
1.393041182e-07
1.672055105e-07
2.02723201e-07
2.481324094e-07
3.064599833e-07
3.818182902e-07
4.798423291e-07
6.083644014e-07
7.782966159e-07
1.005149606e-06
1.311074614e-06
1.728206399e-06
2.303715961e-06
3.109669304e-06
4.268229606e-06
6.024188555e-06
8.918801026e-06
1.414741433e-05
2.429306113e-05
4.490412477e-05
8.795767985e-05
0.0001795396614
0.000376991552
0.000807410821
0.001169807013
0.001168531371
0.001167119101
0.001166208531
0.001165722029
0.001165457731
0.001165312657
0.001165234248
0.001165195668
0.001165183321
0.001165190641
0.001165215228
0.001165257107
0.001165318811
0.001165407615
0.001165529937
0.001165700337
0.001165997244
0.0006587515644
0.0004083666989
5.630034468e-05
3.476691844e-07
7.084777951e-08
6.069081622e-08
5.619895048e-08
5.184884883e-08
4.891943173e-08
4.798464829e-08
4.964334725e-08
5.342320247e-08
5.869076287e-08
6.568065036e-08
7.474731195e-08
8.612532816e-08
1.0041627e-07
1.184115423e-07
1.411307103e-07
1.699071902e-07
2.064925245e-07
2.532335258e-07
3.132401019e-07
3.907532884e-07
4.915936293e-07
6.238521804e-07
7.988184197e-07
1.032551614e-06
1.348017227e-06
1.778557119e-06
2.373179983e-06
3.206923405e-06
4.407688536e-06
6.233451264e-06
9.256308401e-06
1.473993456e-05
2.541473549e-05
4.714730116e-05
9.260842207e-05
0.0001894102987
0.0003982752245
0.0008538232749
0.001169815165
0.00116851283
0.001167093022
0.001166215365
0.001165740976
0.001165479565
0.001165333711
0.00116525342
0.001165212966
0.001165199186
0.001165205645
0.00116522993
0.001165271963
0.001165334352
0.001165424063
0.001165546655
0.001165718269
0.00116601192
0.0006400410508
0.0003992445336
2.748755997e-05
1.571141317e-07
6.335956153e-08
5.514532772e-08
5.117281888e-08
4.742240388e-08
4.513729396e-08
4.513279237e-08
4.760175147e-08
5.193532438e-08
5.764474698e-08
6.509335502e-08
7.451029828e-08
8.62912782e-08
1.01058509e-07
1.196213429e-07
1.430234791e-07
1.726301117e-07
2.102419715e-07