/*--------------------------------*- C++ -*----------------------------------*\
  =========                 |
  \\      /  F ield         | OpenFOAM: The Open Source CFD Toolbox
   \\    /   O peration     | Website:  https://openfoam.org
    \\  /    A nd           | Version:  12
     \\/     M anipulation  |
\*---------------------------------------------------------------------------*/
FoamFile
{
    format      ascii;
    class       volScalarField;
    location    "500";
    object      nut;
}
// * * * * * * * * * * * * * * * * * * * * * * * * * * * * * * * * * * * * * //

dimensions      [0 2 -1 0 0 0 0];

internalField   nonuniform List<scalar> 
16200
(
0.0005087378692
0.001727669122
0.00287480925
0.003769846641
0.004053793498
0.003572557166
0.002616943389
0.001420455289
0.0007144470101
0.0002168026621
6.705166084e-06
2.724914558e-06
2.466824522e-06
2.416838267e-06
1.899041071e-06
1.632891878e-06
1.421226959e-06
1.272378653e-06
1.176235921e-06
1.11445954e-06
1.078899995e-06
1.066128162e-06
1.07264608e-06
1.096192886e-06
1.135966236e-06
1.192856711e-06
1.269791816e-06
1.372365437e-06
1.510131725e-06
1.699147363e-06
1.966641384e-06
2.359871149e-06
2.963423998e-06
3.935279042e-06
5.58765132e-06
8.57026017e-06
1.428648731e-05
2.583290522e-05
5.013797772e-05
0.000102879316
0.0002199513662
0.00048431342
0.001002217051
0.001002260437
0.001001702202
0.001000588307
0.0009993807172
0.0009988786532
0.0009986829585
0.0009986167742
0.0009986037769
0.0009986124592
0.0009986311021
0.000998656929
0.0009986912908
0.0009987387379
0.000998805459
0.000998903708
0.0009990481807
0.0009992766154
0.0005016937951
0.001690315322
0.002781729717
0.003579169096
0.00369378007
0.003085828084
0.002140775684
0.001045878782
0.0005716110867
4.762861034e-05
2.831198765e-06
2.293758294e-06
2.086295332e-06
2.050037149e-06
1.698893174e-06
1.457059052e-06
1.264615777e-06
1.129438899e-06
1.043954411e-06
9.90308878e-07
9.606896697e-07
9.515973804e-07
9.596452627e-07
9.826067085e-07
1.019702322e-06
1.071758105e-06
1.141558237e-06
1.234464462e-06
1.35960848e-06
1.532102511e-06
1.777056971e-06
2.137378114e-06
2.689374607e-06
3.575310066e-06
5.076016096e-06
7.775351373e-06
1.293366238e-05
2.333170907e-05
4.518728799e-05
9.256331089e-05
0.0001976357968
0.0004347532477
0.0009771810325
0.001002141294
0.001001631853
0.001000619398
0.0009993965236
0.0009988874328
0.0009986892648
0.0009986228017
0.0009986104216
0.0009986199566
0.0009986393906
0.0009986657596
0.0009987004146
0.0009987476951
0.0009988140832
0.0009989116565
0.0009990562214
0.0009992883057
0.0004953838675
0.00165341762
0.002688108295
0.003384612398
0.003330593426
0.002622479024
0.001669015512
0.0007691176913
0.0003930419122
1.500823828e-05
2.180366773e-06
1.931927324e-06
1.762257085e-06
1.72673598e-06
1.506566013e-06
1.289137038e-06
1.116438578e-06
9.952247655e-07
9.2025379e-07
8.743692211e-07
8.501438213e-07
8.440042194e-07
8.526632243e-07
8.739557597e-07
9.071939381e-07
9.532870578e-07
1.01509551e-06
1.098021774e-06
1.211072542e-06
1.368732661e-06
1.594376097e-06
1.927118333e-06
2.435963909e-06
3.249434844e-06
4.621256926e-06
7.078447715e-06
1.175708724e-05
2.115955951e-05
4.086714941e-05
8.346939407e-05
0.0001776861794
0.000389722638
0.0008735136544
0.001002049845
0.001001568575
0.001000641995
0.000999412701
0.0009988990816
0.0009986985716
0.0009986312271
0.0009986187531
0.0009986285378
0.0009986483109
0.0009986749322
0.0009987096955
0.0009987567731
0.0009988227927
0.000998919763
0.000999064297
0.0009992993917
0.0004907139874
0.001617622789
0.002591652555
0.003151980001
0.002952967408
0.002192752587
0.001194172853
0.0005681512827
0.0002010038039
5.816961492e-06
1.822445883e-06
1.640302955e-06
1.501051574e-06
1.466765175e-06
1.33588519e-06
1.13985252e-06
9.847135067e-07
8.761213613e-07
8.105086281e-07
7.714483167e-07
7.518124248e-07
7.479587527e-07
7.567331547e-07
7.76169632e-07
8.058434515e-07
8.469376102e-07
9.02567717e-07
9.783449305e-07
1.083321617e-06
1.231585815e-06
1.445227102e-06
1.760543596e-06
2.241228326e-06
3.006134008e-06
4.2904765e-06
6.583130513e-06
1.093771905e-05
1.967309873e-05
3.795405353e-05
7.740937065e-05
0.0001645156897
0.000360201963
0.0008059175097
0.001001972897
0.001001504074
0.001000641107
0.0009994201639
0.0009989079204
0.0009987072221
0.0009986396423
0.0009986271654
0.0009986371277
0.0009986571485
0.0009986839747
0.0009987188369
0.0009987657768
0.0009988315056
0.0009989280009
0.0009990725558
0.000999310506
0.0004861626572
0.001581944918
0.00249335221
0.002909928541
0.002577759081
0.001815065902
0.0008525091389
0.0004362247223
5.015813102e-05
2.167425163e-06
1.540161485e-06
1.393946961e-06
1.280183959e-06
1.248259581e-06
1.178143184e-06
1.002567831e-06
8.642689193e-07
7.678210063e-07
7.109207092e-07
6.779602721e-07
6.621974688e-07
6.600617834e-07
6.686767557e-07
6.864241163e-07
7.132326406e-07
7.506151209e-07
8.019867267e-07
8.73200171e-07
9.733655206e-07
1.116210348e-06
1.322728336e-06
1.626912491e-06
2.088187522e-06
2.817762824e-06
4.036468368e-06
6.20375587e-06
1.030936373e-05
1.852857374e-05
3.569697082e-05
7.267572444e-05
0.0001541329917
0.0003367046579
0.0007516041519
0.001001912768
0.001001443082
0.001000625524
0.0009994230272
0.0009989159852
0.0009987162993
0.0009986486716
0.0009986360466
0.0009986459801
0.0009986660764
0.0009986930033
0.0009987279198
0.0009987747559
0.0009988402523
0.0009989363822
0.0009990809851
0.0009993215296
0.0004814127814
0.001545615397
0.002391163289
0.002660257071
0.002206536174
0.001433264702
0.0006312839733
0.0003067054392
1.791301584e-05
1.602651197e-06
1.308759525e-06
1.1891504e-06
1.096013367e-06
1.066354073e-06
1.035252696e-06
8.781369803e-07
7.551057243e-07
6.69788828e-07
6.206929119e-07
5.931198886e-07
5.807830188e-07
5.802779632e-07
5.89050617e-07
6.058429257e-07
6.30928419e-07
6.661757291e-07
7.153554462e-07
7.845925451e-07
8.830528485e-07
1.024167536e-06
1.228115805e-06
1.527230779e-06
1.977864372e-06
2.685799539e-06
3.861948774e-06
5.94588587e-06
9.884205799e-06
1.775436814e-05
3.416492746e-05
6.944094622e-05
0.0001469726607
0.0003203285941
0.0007133389583
0.001001866203
0.001001385485
0.001000594411
0.0009994203458
0.0009989225239
0.000998725272
0.0009986579612
0.0009986451709
0.0009986549561
0.0009986750138
0.0009987019729
0.0009987369237
0.000998783698
0.0009988490342
0.0009989449102
0.0009990896139
0.0009993325435
0.0004759647673
0.001507801136
0.002283336839
0.002393673469
0.001849346857
0.001044527727
0.0004721947684
0.0001849153541
6.581955863e-06
1.324758808e-06
1.114718286e-06
1.015498781e-06
9.387343802e-07
9.112935493e-07
9.035510035e-07
7.637571569e-07
6.551920515e-07
5.80718682e-07
5.392171679e-07
5.169594951e-07
5.081192867e-07
5.094847259e-07
5.188440149e-07
5.353416753e-07
5.596596741e-07
5.939193732e-07
6.426123195e-07
7.119201184e-07
8.11000321e-07
9.530159111e-07
1.15804554e-06
1.456567098e-06
1.903090039e-06
2.599583939e-06
3.750259211e-06
5.781678472e-06
9.612151558e-06
1.72537701e-05
3.31597438e-05
6.72800321e-05
0.0001420927963
0.000308938987
0.0006862055257
0.001001831095
0.001001332033
0.001000551187
0.0009994132856
0.0009989278709
0.0009987341981
0.0009986674966
0.0009986545184
0.0009986640476
0.0009986839653
0.0009987108949
0.0009987458643
0.0009987926161
0.0009988578634
0.0009989535919
0.0009990984502
0.000999343548
0.0004690192067
0.001466824912
0.002166926633
0.002115400786
0.001524366805
0.0007517784416
0.0003643549024
6.586477646e-05
2.501713488e-06
1.114651881e-06
9.48525019e-07
8.660934533e-07
8.029423331e-07
7.782505617e-07
7.832489287e-07
6.60160909e-07
5.655814186e-07
5.017769614e-07
4.676825706e-07
4.505678878e-07
4.450834598e-07
4.48275405e-07
4.583585766e-07
4.749806033e-07
4.991532118e-07
5.339310883e-07
5.835903523e-07
6.546293697e-07
7.561971257e-07
9.01321292e-07
1.109297371e-06
1.411350251e-06
1.859339172e-06
2.553219119e-06
3.693288159e-06
5.699098049e-06
9.473743995e-06
1.699259028e-05
3.261693345e-05
6.606436567e-05
0.0001392258933
0.0003019622432
0.0006689464943
0.001001804638
0.001001282492
0.001000498034
0.0009994023995
0.000998932031
0.0009987429445
0.0009986771459
0.0009986639948
0.0009986731984
0.0009986929039
0.0009987197615
0.0009987547453
0.0009988015166
0.000998866749
0.0009989624333
0.0009991075056
0.0009993545649
0.000460558724
0.001420570392
0.00201960039
0.001831587147
0.001222820758
0.0005535068841
0.0002769746893
3.502666553e-05
1.503708297e-06
9.418505126e-07
8.095122582e-07
7.403913927e-07
6.883784915e-07
6.664738357e-07
6.768928167e-07
5.691245305e-07
4.873889892e-07
4.3346895e-07
4.060942892e-07
3.935436819e-07
3.909927391e-07
3.958335853e-07
4.06578219e-07
4.238143761e-07
4.489689375e-07
4.850983996e-07
5.368637936e-07
6.108509996e-07
7.162324156e-07
8.660407209e-07
1.07954224e-06
1.387605789e-06
1.841582488e-06
2.540040039e-06
3.681622514e-06
5.68375826e-06
9.444997522e-06
1.692730339e-05
3.245158699e-05
6.561872179e-05
0.0001379953446
0.0002985654371
0.0006596826808
0.001001784302
0.001001236424
0.001000437678
0.0009993885492
0.0009989351787
0.0009987514705
0.000998686828
0.000998673534
0.0009986823689
0.0009987018129
0.0009987285712
0.0009987635746
0.0009988104093
0.0009988757011
0.0009989714412
0.0009991167869
0.0009993656042
0.0004504363444
0.001368812242
0.001848584366
0.001550667042
0.0008966365395
0.0004127423349
0.0001952844023
1.834802093e-05
1.147212415e-06
7.985283697e-07
6.923949283e-07
6.342079572e-07
5.912485884e-07
5.720740595e-07
5.832325713e-07
4.893531852e-07
4.192813012e-07
3.744065557e-07
3.530519575e-07
3.445322293e-07
3.445973103e-07
3.508473513e-07
3.629633481e-07
3.813466127e-07
4.080026737e-07
4.462875133e-07
5.010067463e-07
5.788202723e-07
6.889941215e-07
8.447114026e-07
1.065422499e-06
1.381985678e-06
1.845751042e-06
2.554866829e-06
3.708253342e-06
5.725415668e-06
9.509550794e-06
1.702931125e-05
3.260957427e-05
6.58339359e-05
0.0001381704605
0.0002982444968
0.0006572867988
0.001001767761
0.001001193095
0.001000372471
0.0009993724847
0.0009989374597
0.0009987597295
0.0009986964607
0.0009986830695
0.0009986915184
0.0009987106743
0.0009987373218
0.0009987723591
0.000998819304
0.0009988847297
0.0009989806228
0.0009991263002
0.0009993766761
0.0004387012394
0.00131165316
0.001663333218
0.001283279878
0.000641309861
0.00031399157
0.0001276707307
1.214220025e-05
9.35290748e-07
6.775184293e-07
5.925222449e-07
5.432610471e-07
5.076473467e-07
4.909652473e-07
5.000117582e-07
4.189017526e-07
3.596494225e-07
3.232567842e-07
3.074746675e-07
3.026583871e-07
3.049069218e-07
3.130763209e-07
3.266262603e-07
3.465811811e-07
3.752806725e-07
4.162914593e-07
4.745461941e-07
5.568088683e-07
6.725107359e-07
8.351069202e-07
1.064404737e-06
1.391535331e-06
1.868261389e-06
2.59313968e-06
3.767024958e-06
5.815120485e-06
9.653199873e-06
1.727391724e-05
3.304428162e-05
6.661605508e-05
0.0001395524927
0.0003005642646
0.0006607830909
0.001001753058
0.001001151653
0.00100030454
0.000999354925
0.0009989390406
0.0009987677013
0.000998705982
0.0009986925473
0.0009987006138
0.0009987194741
0.0009987460131
0.0009987811069
0.000998828211
0.0009988938453
0.0009989899857
0.0009991360492
0.0009993877871
0.0004252129444
0.001248538119
0.001472520662
0.001020258376
0.0004765443592
0.000244121431
6.073674756e-05
6.591466021e-06
7.572803226e-07
5.760463124e-07
5.072166644e-07
4.652523436e-07
4.354804638e-07
4.210761703e-07
4.265151625e-07
3.571756972e-07
3.079920868e-07
2.795251912e-07
2.688556395e-07
2.671423761e-07
2.718828473e-07
2.817206787e-07
2.968192318e-07
3.186476479e-07
3.497714981e-07
3.938974351e-07
4.560853084e-07
5.43250246e-07
6.650523487e-07
8.353123558e-07
1.074335696e-06
1.413762309e-06
1.906117992e-06
2.651093908e-06
3.852945361e-06
5.945781216e-06
9.86497151e-06
1.764248426e-05
3.372118981e-05
6.789644916e-05
0.0001419975646
0.0003052114065
0.0006694708761
0.001001738612
0.001001111204
0.001000235636
0.0009993364839
0.0009989400741
0.0009987753765
0.0009987153428
0.0009987019235
0.0009987096278
0.0009987282015
0.0009987546464
0.0009987898264
0.000998837141
0.0009989030582
0.0009989995361
0.0009991460364
0.0009993989425
0.0004097298323
0.001177386287
0.001276103813
0.0007653811463
0.0003638861305
0.0001872408992
3.023702574e-05
3.281206336e-06
6.127417692e-07
4.900403313e-07
4.340530123e-07
3.98527806e-07
3.737267239e-07
3.615954998e-07
3.629443853e-07
3.042539685e-07
2.641918328e-07
2.428312446e-07
2.365916043e-07
2.377412493e-07
2.44551555e-07
2.559703807e-07
2.727281618e-07
2.966427082e-07
3.304549192e-07
3.779722037e-07
4.443770917e-07
5.367806243e-07
6.65132892e-07
8.436925297e-07
1.093378544e-06
1.44653913e-06
1.956767538e-06
2.725535563e-06
3.961820104e-06
6.111526549e-06
1.013593767e-05
1.812010046e-05
3.461305203e-05
6.962147448e-05
0.0001453939277
0.0003119434233
0.0006828086927
0.001001723204
0.001001070877
0.001000167152
0.0009993176737
0.0009989406999
0.0009987827572
0.0009987245084
0.0009987111649
0.0009987185401
0.0009987368497
0.0009987632248
0.000998798527
0.0009988461051
0.0009989123783
0.0009990092781
0.0009991562631
0.0009994101456
0.000392674366
0.001097321255
0.001078621729
0.0005653365701
0.0002834731972
0.0001396650409
1.831892943e-05
1.803847217e-06
5.024542314e-07
4.171833783e-07
3.72632655e-07
3.424020596e-07
3.216167729e-07
3.114428168e-07
3.086221452e-07
2.593825452e-07
2.274700269e-07
2.123520306e-07
2.095233501e-07
2.134559155e-07
2.220069037e-07
2.349998392e-07
2.535538781e-07
2.797285073e-07
3.164153363e-07
3.675183451e-07
4.383437452e-07
5.362323723e-07
6.714836783e-07
8.588531026e-07
1.120033704e-06
1.488054619e-06
2.01804678e-06
2.813782515e-06
4.090177155e-06
6.307593608e-06
1.045902688e-05
1.86952325e-05
3.56992195e-05
7.17511027e-05
0.0001496590771
0.0003205824195
0.0007004006257
0.00100170594
0.001001029878
0.001000100137
0.0009992989006
0.0009989410382
0.0009987898527
0.0009987334558
0.000998720248
0.0009987273369
0.000998745415
0.0009987717532
0.0009988072182
0.0009988551141
0.0009989218152
0.000999019214
0.0009991667291
0.0009994213982
0.0003752197468
0.001011423428
0.0008685068735
0.0004303588571
0.000228387561
0.0001007884051
1.278906521e-05
1.04282686e-06
4.159397313e-07
3.551424798e-07
3.196907995e-07
2.943506164e-07
2.768075593e-07
2.683891982e-07
2.618607518e-07
2.212426761e-07
1.967531978e-07
1.871335963e-07
1.874813411e-07
1.934566443e-07
2.035385017e-07
2.181209481e-07
2.386001464e-07
2.671849986e-07
3.068733193e-07
3.616789045e-07
4.370581974e-07
5.406054113e-07
6.830181405e-07
8.795995223e-07
1.152810893e-06
1.53676154e-06
2.088117647e-06
2.913575834e-06
4.235132236e-06
6.53010249e-06
1.082861555e-05
1.935893597e-05
3.696403606e-05
7.425552355e-05
0.0001547323461
0.0003309986142
0.0007219590358
0.0010016862
0.001000987511
0.001000035346
0.0009992804745
0.0009989411896
0.0009987966773
0.0009987421723
0.0009987291577
0.0009987360096
0.0009987538973
0.0009987802378
0.0009988159102
0.000998864179
0.000998931378
0.0009990293466
0.0009991774314
0.0009994327002
0.0003581035189
0.0009181857911
0.000698521828
0.0003490795802
0.0001915471517
5.592086851e-05
8.086539275e-06
6.52734028e-07
3.463767192e-07
3.01492353e-07
2.730045797e-07
2.522955403e-07
2.378861881e-07
2.312302104e-07
2.218075346e-07
1.891185527e-07
1.713443582e-07
1.661276207e-07
1.694257786e-07
1.770724426e-07
1.885902953e-07
2.047970042e-07
2.272934099e-07
2.583909643e-07
3.011492695e-07
3.597056245e-07
4.397117448e-07
5.490335696e-07
6.987980014e-07
9.049022149e-07
1.190646061e-06
1.591339501e-06
2.165424801e-06
3.023025723e-06
4.394311071e-06
6.775930934e-06
1.124030666e-05
2.010443593e-05
3.839599757e-05
7.711338289e-05
0.000160571088
0.0003431018651
0.0007472854294
0.001001663583
0.001000943191
0.0009999732853
0.0009992626222
0.0009989412359
0.0009988032485
0.000998750653
0.0009987378863
0.0009987445549
0.0009987622991
0.0009987886861
0.0009988246133
0.0009988733106
0.0009989410751
0.0009990396788
0.0009991883639
0.00099944405
0.0003439297769
0.0008170433878
0.000562861575
0.0002912890086
0.0001600051408
3.09000573e-05
3.868369447e-06
4.477092494e-07
2.907286378e-07
2.562794172e-07
2.333119976e-07
2.161800983e-07
2.046511648e-07
1.995944309e-07
1.880030408e-07
1.624521442e-07
1.506018809e-07
1.493356384e-07
1.546902379e-07
1.637661319e-07
1.766954216e-07
1.94575951e-07
2.191491948e-07
2.527873487e-07
2.986282258e-07
3.609394276e-07
4.456002221e-07
5.607677176e-07
7.180154231e-07
9.338838812e-07
1.232556019e-06
1.650671459e-06
2.248665183e-06
3.140568344e-06
4.565782982e-06
7.042603994e-06
1.169073309e-05
2.092675387e-05
3.998700466e-05
8.031021784e-05
0.0001671472835
0.000356834117
0.0007762533328
0.00100163786
0.001000896447
0.000999914266
0.0009992455014
0.0009989412421
0.0009988095857
0.0009987588994
0.0009987464319
0.0009987529733
0.0009987706249
0.0009987971062
0.0009988333378
0.0009988825191
0.0009989509137
0.0009990502129
0.0009991995196
0.0009994554444
0.000335769376
0.00071157566
0.0004624171931
0.0002426537987
0.0001295829122
1.844328291e-05
1.860085916e-06
3.278247461e-07
2.455615822e-07
2.183573196e-07
1.996370158e-07
1.854048918e-07
1.760372421e-07
1.725639135e-07
1.596332368e-07
1.405504608e-07
1.335697846e-07
1.357712375e-07
1.427486052e-07
1.531183439e-07
1.674533842e-07
1.870358936e-07
2.137018017e-07
2.498502188e-07
2.987484665e-07
3.647977117e-07
4.541100857e-07
5.751576293e-07
7.399746393e-07
9.657747097e-07
1.277707807e-06
1.713821424e-06
2.336760117e-06
3.264927859e-06
4.748004887e-06
7.328204237e-06
1.217740172e-05
2.182241694e-05
4.173178609e-05
8.383725408e-05
0.0001744449384
0.0003721636255
0.0008087952613
0.001001608928
0.001000846908
0.0009998584493
0.0009992292152
0.0009989412593
0.000998815709
0.0009987669181
0.000998754797
0.0009987612686
0.0009987788813
0.000998805507
0.0009988420937
0.000998891814
0.0009989609001
0.0009990609498
0.000999210892
0.000999466879
0.0003365083249
0.0006070875297
0.0003741837634
0.0002071378225
0.0001020227656
1.213372179e-05
9.064691994e-07
2.537744276e-07
2.076637264e-07
1.858241116e-07
1.705496321e-07
1.5885033e-07
1.513857764e-07
1.493986586e-07
1.36114336e-07
1.229114498e-07
1.2032988e-07
1.248980377e-07
1.33185906e-07
1.447659952e-07
1.604954514e-07
1.817744032e-07
2.104963109e-07
2.491117277e-07
3.010232298e-07
3.707785121e-07
4.647161657e-07
5.91647298e-07
7.640822017e-07
9.999465891e-07
1.325407322e-06
1.780018108e-06
2.428831637e-06
3.395082191e-06
4.939770774e-06
7.63129366e-06
1.269856453e-05
2.278922961e-05
4.362746557e-05
8.769053548e-05
0.0001824582491
0.0003890809545
0.0008448938305
0.001001576778
0.001000794292
0.0009998058864
0.0009992138245
0.0009989413267
0.0009988216388
0.0009987747188
0.000998762988
0.000998769447
0.0009987870758
0.0009988138979
0.0009988508909
0.000998901204
0.0009989710405
0.0009990718902
0.0009992224728
0.0009994783488
0.0003471339596
0.0005114403446
0.0003163633891
0.0001842669622
5.916613438e-05
8.244453929e-06
4.706462236e-07
2.040882154e-07
1.757282937e-07
1.580871283e-07
1.45709406e-07
1.362570074e-07
1.30526741e-07
1.298795802e-07
1.170765392e-07
1.090687217e-07
1.099993392e-07
1.162510601e-07
1.256324248e-07
1.383608635e-07
1.554632812e-07
1.784063726e-07
2.09125939e-07
2.501683846e-07
3.050353197e-07
3.784464006e-07
4.769656958e-07
6.097616897e-07
7.898400541e-07
1.035870011e-06
1.375086216e-06
1.848639514e-06
2.524182938e-06
3.530236553e-06
5.140173417e-06
7.950853614e-06
1.325311606e-05
2.382608334e-05
4.567318303e-05
9.18701263e-05
0.000191189863
0.0004075951
0.0008845732304
0.001001541467
0.001000738388
0.0009997565495
0.0009991993588
0.000998941474
0.0009988273948
0.0009987823139
0.0009987710136
0.0009987775165
0.0009987952171
0.000998822288
0.0009988597387
0.0009989106971
0.0009989813409
0.0009990830356
0.0009992342507
0.0009994898478
0.0003652199052
0.0004745649337
0.0002764737524
0.000165900183
3.16200265e-05
3.409900535e-06
2.742736553e-07
1.687338557e-07
1.494123333e-07
1.350308016e-07
1.249892094e-07
1.174210279e-07
1.132510868e-07
1.136136747e-07
1.020158203e-07
9.828492592e-08
1.019416183e-07
1.09403219e-07
1.197531998e-07
1.335907962e-07
1.520378822e-07
1.766004229e-07
2.09262801e-07
2.526761544e-07
3.104296296e-07
3.874297594e-07
4.904755268e-07
6.291041727e-07
8.168373075e-07
1.073115983e-06
1.426291333e-06
1.919197824e-06
2.622277555e-06
3.669795191e-06
5.348565496e-06
8.286228769e-06
1.384050658e-05
2.493281036e-05
4.786982685e-05
9.637958693e-05
0.0002006497871
0.0004277311162
0.0009278938611
0.001001503096
0.001000679036
0.0009997103582
0.0009991858247
0.0009989417236
0.0009988329963
0.0009987897173
0.0009987788841
0.000998785486
0.000998803314
0.0009988306865
0.0009988686457
0.0009989203005
0.000998991806
0.0009990943856
0.0009992462108
0.0009995013685
0.000386865163
0.0004130021185
0.0002478691217
0.0001471311719
1.713620907e-05
1.302959689e-06
1.84810074e-07
1.420305712e-07
1.277577949e-07
1.159208664e-07
1.077196987e-07
1.017904533e-07
9.8899125e-08
9.940177776e-08
9.030549108e-08
9.019166942e-08
9.560838187e-08
1.040063518e-07
1.152668663e-07
1.301894678e-07
1.499453426e-07
1.760770481e-07
2.10625357e-07
2.563333541e-07
3.16898195e-07
3.974126397e-07
5.049238917e-07
6.493468382e-07
8.447389311e-07
1.111339825e-06
1.478663928e-06
1.991312816e-06
2.722705318e-06
3.813317281e-06
5.564500615e-06
8.637044132e-06
1.446061641e-05
2.610997735e-05
5.021966783e-05
0.0001012252795
0.0002108539999
0.0004495271831
0.0009749447745
0.001001461803
0.001000616105
0.0009996671978
0.0009991732127
0.0009989420922
0.0009988384614
0.0009987969434
0.0009987866111
0.0009987933655
0.0009988113756
0.0009988391021
0.0009988776196
0.0009989300204
0.0009990024386
0.0009991059338
0.0009992583408
0.0009995129003
0.0004129688585
0.0003789658344
0.0002342279597
0.0001263958767
9.968002815e-06
4.685596955e-07
1.420475727e-07
1.206948547e-07
1.095798813e-07
9.981712001e-08
9.323385148e-08
8.868101102e-08
8.682161593e-08
8.618666272e-08
8.136185384e-08
8.401785878e-08
9.060792147e-08
9.980733406e-08
1.119492499e-07
1.279288645e-07
1.489476208e-07
1.765901351e-07
2.129572115e-07
2.608797739e-07
3.241781762e-07
4.081319293e-07
5.200471988e-07
6.702259568e-07
8.732807625e-07
1.150275431e-06
1.531933156e-06
2.064704369e-06
2.825173516e-06
3.96050591e-06
5.787718474e-06
9.003182967e-06
1.511371907e-05
2.735881607e-05
5.272621573e-05
0.0001064160497
0.0002218237217
0.0004730328948
0.001002114862
0.001001417747
0.001000549476
0.0009996269335
0.0009991615023
0.0009989425918
0.0009988438072
0.0009988040072
0.0009987942065
0.000998801165
0.000998819411
0.0009988475428
0.0009988866674
0.0009989398617
0.00099901324
0.0009991176692
0.0009992706387
0.0009995244306
0.000440637787
0.0003653601432
0.0002293042238
8.47741917e-05
4.895461732e-06
1.911854823e-07
1.173157343e-07
1.029925344e-07
9.41074487e-08
8.631869063e-08
8.094772366e-08
7.757008142e-08
7.671553502e-08
7.586281124e-08
7.466221978e-08
7.921342592e-08
8.667960926e-08
9.661410009e-08
1.096093317e-07
1.266058912e-07
1.488325419e-07
1.779217534e-07
2.160358054e-07
2.660956589e-07
3.320515501e-07
4.193735553e-07
5.356357428e-07
6.915369647e-07
9.022635529e-07
1.189728361e-06
1.585908008e-06
2.139182941e-06
2.929495267e-06
4.11119316e-06
6.01812467e-06
9.384756938e-06
1.58004326e-05
2.868113471e-05
5.539404132e-05
0.000111962849
0.0002335845759
0.000498307384
0.001002085936
0.001001371111
0.001000479018
0.0009995894205
0.0009991506659
0.0009989432308
0.0009988490493
0.0009988109231
0.0009988016824
0.0009988088943
0.0009988274286
0.0009988560163
0.000998895795
0.0009989498283
0.00099902421
0.0009991295829
0.0009992831023
0.0009995359466
0.0004847896292
0.0003673141251
0.0002293015843
4.121911919e-05
1.316685852e-06
1.187078363e-07
9.95034286e-08
8.845509533e-08
8.123041701e-08
7.483123366e-08
7.056948928e-08
6.830636898e-08
6.842245122e-08
6.807647543e-08
6.970505411e-08
7.549465586e-08
8.364000666e-08
9.426597431e-08
1.080773906e-07
1.260412975e-07
1.494168152e-07
1.798866661e-07
2.196768487e-07
2.717997013e-07
3.403409105e-07
4.309650636e-07
5.515230118e-07
7.131200266e-07
9.315340243e-07
1.229551765e-06
1.640447286e-06
2.214612572e-06
3.035543929e-06
4.265283428e-06
6.255718088e-06
9.78200827e-06
1.652157809e-05
3.007909741e-05
5.822840937e-05
0.000117878085
0.0002461653899
0.0005254170399
0.001002053662
0.001001322101
0.001000404572
0.0009995545112
0.0009991406717
0.0009989440148
0.0009988542024
0.0009988177052
0.0009988090503
0.0009988165631
0.0009988354365
0.000998864529
0.0009989050071
0.000998959923
0.0009990353466
0.0009991416664
0.0009992957202
0.0009995474351
0.0005261462074
0.0003611577277
0.0002238037203
1.928725883e-05
3.154465524e-07
9.584530583e-08
8.551000508e-08
7.647469495e-08
7.042899505e-08
6.520655405e-08
6.196128537e-08
6.074372432e-08
6.177070506e-08
6.239796599e-08
6.60213891e-08
7.261323367e-08
8.133760649e-08
9.261605313e-08
1.071995293e-07
1.260768218e-07
1.505432468e-07
1.823287553e-07
2.237272202e-07
2.778436156e-07
3.489040097e-07
4.427709192e-07
5.675810706e-07
7.348555982e-07
9.609807185e-07
1.269642425e-06
1.69545586e-06
2.290907139e-06
3.143248935e-06
4.422747891e-06
6.500582263e-06
1.019529462e-05
1.727815009e-05
3.15551619e-05
6.123513843e-05
0.0001241752975
0.0002595974311
0.0005544337465
0.001002018238
0.001001270952
0.001000325922
0.0009995220593
0.0009991314854
0.0009989449473
0.0009988592792
0.0009988243669
0.0009988163214
0.0009988241804
0.000998843442
0.0009988730866
0.0009989143071
0.0009989701467
0.0009990466461
0.0009991539097
0.0009993084788
0.0009995588814
0.000565366621
0.0003508690431
0.0002101220893
9.59895232e-06
1.255094216e-07
8.194252044e-08
7.395547473e-08
6.653799376e-08
6.14352288e-08
5.721234229e-08
5.491589197e-08
5.468162349e-08
5.654125517e-08
5.833145191e-08
6.323686133e-08
7.039239029e-08
7.964111514e-08
9.153236393e-08
1.068411361e-07
1.265785996e-07
1.520801914e-07
1.85120265e-07
2.280637382e-07
2.841108242e-07
3.576321821e-07
4.546921116e-07
5.837208961e-07
7.566657388e-07
9.905371419e-07
1.30994613e-06
1.750892902e-06
2.368041778e-06
3.252610992e-06
4.583643967e-06
6.752909739e-06
1.062511914e-05
1.807135293e-05
3.311211771e-05
6.442062256e-05
0.0001308691031
0.0002739141067
0.0005854338474
0.001001979852
0.001001217937
0.001000248205
0.000999491923
0.0009991230715
0.0009989460299
0.0009988642915
0.0009988309202
0.0009988235062
0.0009988317543
0.0009988514512
0.0009988816934
0.0009989236973
0.0009989804995
0.000999058103
0.0009991663016
0.0009993213639
0.0009995702682
0.0005839184924
0.0003398657109
0.000186110161
5.636261976e-06
9.348298323e-08
7.079092893e-08
6.438036964e-08
5.825070983e-08
5.393047695e-08
5.059963859e-08
4.922115303e-08
4.990469901e-08
5.249809043e-08
5.540501108e-08
6.109891639e-08
6.870322728e-08
7.843724782e-08
9.090136579e-08
1.06889071e-07
1.274366114e-07
1.539192919e-07
1.881573578e-07
2.325871836e-07
2.905087532e-07
3.664398762e-07
4.666518156e-07
5.998742025e-07
7.784911534e-07
1.020153508e-06
1.350423123e-06
1.806729711e-06
2.446001465e-06
3.363638987e-06
4.748036564e-06
7.012900015e-06
1.107199009e-05
1.890239274e-05
3.475275447e-05
6.77912663e-05
0.0001379741843
0.0002891490747
0.0006184944935
0.00100193868
0.001001163159
0.001000175957
0.0009994639665
0.0009991153943
0.0009989472624
0.0009988692494
0.0009988373765
0.0009988306142
0.0009988392923
0.0009988594698
0.0009988903529
0.0009989331786
0.0009989909794
0.0009990697097
0.0009991788295
0.0009993343594
0.0009995815771
0.000571228929
0.0003345465335
0.0001537277862
2.179638937e-06
7.624406457e-08
6.163390318e-08
5.639759652e-08
5.130338104e-08
4.766200957e-08
4.516964348e-08
4.468818669e-08
4.619751358e-08
4.940699623e-08
5.324632116e-08
5.944608176e-08
6.74420182e-08
7.762694879e-08
9.062519751e-08
1.072484581e-07
1.285603865e-07
1.559733301e-07
1.913585886e-07
2.372229086e-07
2.969707767e-07
3.752688159e-07
4.786008264e-07
6.160013044e-07
8.003016473e-07
1.049809893e-06
1.391064323e-06
1.862969305e-06
2.524804469e-06
3.476377592e-06
4.916030235e-06
7.280796945e-06
1.153646448e-05
1.977252677e-05
3.64799105e-05
7.135350611e-05
0.0001455051989
0.0003053358179
0.0006536922848
0.001001894894
0.00100110655
0.001000108818
0.0009994380611
0.0009991084185
0.0009989486438
0.0009988741617
0.0009988437457
0.0009988376538
0.0009988468007
0.000998867502
0.000998899067
0.0009989427503
0.0009990015833
0.0009990814566
0.0009991914791
0.0009993474476
0.0009995927885
0.00055482764
0.0003320252026
8.21656713e-05
7.362454206e-07
6.469584141e-08
5.412021525e-08
4.975729144e-08
4.549415954e-08
4.246101775e-08
4.077885644e-08
4.114662439e-08
4.33558408e-08
4.689986857e-08
5.16096591e-08
5.817382602e-08
6.652517987e-08
7.712815606e-08
9.062355104e-08
1.0784224e-07
1.298763213e-07
1.581723436e-07
1.946589906e-07
2.419123905e-07
3.034447466e-07
3.84073985e-07
4.905007029e-07
6.320710493e-07
8.220730748e-07
1.079489413e-06
1.431860338e-06
1.919610406e-06
2.60446012e-06
3.590857067e-06
5.087707537e-06
7.556808415e-06
1.201903451e-05
2.068288807e-05
3.829617811e-05
7.511328246e-05
0.0001534757853
0.0003225056948
0.0006910993241
0.001001848671
0.001001048036
0.001000046456
0.0009994140856
0.0009991021095
0.0009989501717
0.0009988790361
0.0009988500369
0.0009988446326
0.000998854285
0.000998875551
0.0009989078365
0.0009989524105
0.0009990123058
0.0009990933317
0.0009992042347
0.0009993606091
0.0009996038816
0.0005341684961
0.0003267942243
4.488739669e-05
2.763698638e-07
5.615400217e-08
4.793296537e-08
4.421920013e-08
4.063224323e-08
3.81761436e-08
3.728790494e-08
3.841775675e-08
4.118591053e-08
4.509923526e-08
5.03437636e-08
5.720378698e-08
6.588121545e-08
7.687114596e-08
9.082944163e-08
1.086069616e-07
1.313238354e-07
1.604622142e-07
1.980101964e-07
2.466142745e-07
3.098956803e-07
3.928279768e-07
5.023310887e-07
6.480704503e-07
8.438001025e-07
1.109194498e-06
1.47282187e-06
1.976672716e-06
2.68499982e-06
3.707130905e-06
5.263174251e-06
7.841160619e-06
1.252019293e-05
2.163456256e-05
4.020398488e-05
7.907608601e-05
0.0001618984482
0.0003406872969
0.0007307811062
0.001001800191
0.00100098751
0.000999988562
0.0009993919255
0.0009990964335
0.0009989518427
0.0009988838787
0.0009988562577
0.0009988515568
0.0009988617494
0.0009988836188
0.0009989166606
0.0009989621556
0.0009990231403