/*--------------------------------*- C++ -*----------------------------------*\
  =========                 |
  \\      /  F ield         | OpenFOAM: The Open Source CFD Toolbox
   \\    /   O peration     | Website:  https://openfoam.org
    \\  /    A nd           | Version:  12
     \\/     M anipulation  |
\*---------------------------------------------------------------------------*/
FoamFile
{
    format      ascii;
    class       volScalarField;
    location    "500";
    object      omega;
}
// * * * * * * * * * * * * * * * * * * * * * * * * * * * * * * * * * * * * * //

dimensions      [0 0 -1 0 0 0 0];

internalField   nonuniform List<scalar> 
16200
(
707441.9071
279522.3022
157966.8852
109259.3242
84888.09329
69100.83788
54620.92577
33724.49886
8090.901836
805.9196956
317.0318124
198.4870392
128.6051638
86.31608645
61.79888155
46.23068531
34.71582574
26.29773589
20.19636385
15.6393251
12.20111005
9.603187476
7.632592018
6.129009407
4.973515722
4.077863579
3.377688656
2.826310145
2.390142286
2.045530398
1.775370022
1.565785436
1.404091637
1.279388046
1.184101545
1.113391889
1.063550682
1.030685776
1.010500118
0.998898562
0.9926266719
0.9894650691
0.9880704764
0.9876635216
0.9872015742
0.9863098509
0.9853478113
0.9849361261
0.9847700695
0.9847183574
0.9847298871
0.9847915907
0.9849104109
0.9851068832
0.9854144325
0.9858835284
0.9865889217
0.987649279
0.9892603329
0.9918113877
741710.4396
294041.6896
166187.3517
115095.5645
89354.19906
71828.14756
54420.51518
27404.15639
4294.985617
605.0570902
320.626497
202.3875316
131.1193517
87.7784989
62.49505587
46.67792838
34.9602811
26.39687617
20.22015116
15.62269081
12.1625997
9.555373493
7.583094298
6.082041879
4.931285299
4.041282244
3.346899651
2.800979622
2.369585985
2.028942559
1.762130771
1.555645835
1.396963859
1.274947396
1.181732283
1.112365019
1.063241968
1.030681868
1.01058376
0.9989790103
0.9926754852
0.9894766454
0.98803781
0.9876118062
0.9871925101
0.9863845838
0.9854164281
0.985005502
0.9848440469
0.9847987482
0.9848172133
0.984885475
0.9850097425
0.9852097968
0.9855184055
0.9859853374
0.9866855918
0.9877394561
0.9893506555
0.991939174
774558.1295
308264.0635
174337.8977
120932.3617
93565.24482
74038.7439
52424.02697
19888.57502
2256.708966
547.9299086
325.5681378
205.8548093
133.3198307
89.04523668
63.07156975
47.02794971
35.12645478
26.43279066
20.19274482
15.5656913
12.09270094
9.483288424
7.514779071
6.020327505
4.877335986
3.995262268
3.308442842
2.769428945
2.344044597
2.008420824
1.745805204
1.54307273
1.387926093
1.269048099
1.178306724
1.110628166
1.062498647
1.030440998
1.010557121
0.9990215544
0.9927234919
0.9895054105
0.9880376262
0.9875785412
0.9871856446
0.9864492062
0.9854815021
0.9850729909
0.9849159967
0.9848764672
0.9849012405
0.9849756619
0.9851052905
0.9853092138
0.9856195413
0.9860853863
0.9867818113
0.9878305326
0.9894422474
0.9920652519
805264.1552
321748.0137
182293.7431
126698.408
97231.28401
75800.18187
47874.64135
12610.38213
1351.40141
535.0045671
329.4592763
208.5607175
135.0351005
90.01966443
63.48343753
47.25038881
35.19406819
26.39176004
20.10522047
15.46200373
11.9868328
9.383460818
7.424863174
5.941516326
4.809614267
3.937990404
3.26073373
2.730312159
2.312428765
1.983143867
1.725826069
1.527704257
1.376754591
1.261543664
1.173715514
1.108089723
1.061240885
1.029894917
1.010364124
0.998981877
0.9927364807
0.989524273
0.9880404987
0.987553796
0.9871748607
0.9864924259
0.9855363392
0.9851345571
0.984983464
0.9849500334
0.9849811053
0.985061682
0.985196833
0.9854050531
0.9857178353
0.9861836872
0.9868776353
0.9879226208
0.9895354849
0.9921904581
833725.395
334589.9791
189972.0192
132299.7848
100652.4529
75767.41918
39377.23953
7004.805548
1027.179502
534.7537281
332.2836473
210.5304967
136.2696566
90.69571537
63.72928303
47.34195507
35.15973902
26.27101701
19.95616486
15.31070365
11.84441701
9.255480138
7.312991849
5.84528557
4.727854232
3.869297844
3.203731201
2.683728008
2.274972154
1.953459694
1.702618135
1.509988348
1.363865619
1.252780477
1.168220718
1.104932273
1.059586917
1.029115363
1.010046007
0.9988827364
0.9927266436
0.9895396053
0.9880497951
0.9875396298
0.9871641061
0.9865213481
0.9855844498
0.9851921214
0.9850476472
0.9850202986
0.9850574763
0.985144089
0.9852848359
0.9854976968
0.9858135894
0.9862804577
0.9869732168
0.9880158524
0.9896305702
0.992314985
859616.346
346774.9292
197342.7734
137486.2731
103517.6173
73213.55657
30260.36243
4053.395803
929.6579315
536.563292
333.9004674
211.6995906
136.9832289
91.0460522
63.79515896
47.29161542
35.01532939
26.06523768
19.74214928
15.10933995
11.66360479
9.097857486
7.177935512
5.730654383
4.631334424
3.788727733
3.137232305
2.629697237
2.231871227
1.919681079
1.676548539
1.490287965
1.349571905
1.242996131
1.161982195
1.101250833
1.057585642
1.028122645
1.009607661
0.9987219812
0.9926893683
0.9895464623
0.9880611776
0.9875337641
0.9871535544
0.9865356013
0.985625402
0.9852454219
0.9851084722
0.985087338
0.9851305319
0.9852231218
0.9853695643
0.985587404
0.9859070346
0.986375879
0.9870686942
0.9881103444
0.9897276973
0.9924391315
882622.7272
358409.9113
204534.1746
141978.2489
105961.7178
67620.88267
21535.43224
2642.530007
898.1765698
536.7589367
334.2855057
212.0618096
137.1718089
91.06412643
63.67736489
47.09484744
34.7564021
25.77107206
19.46072739
14.85599433
11.44294575
8.909537465
7.018983466
5.597227756
4.519947379
3.696436722
3.06162916
2.568795458
2.183807749
1.882512302
1.648277052
1.469174848
1.334334626
1.232536526
1.15524065
1.097200646
1.055329589
1.026967395
1.009074181
0.9985105027
0.9926283101
0.9895450981
0.9880734299
0.9875347872
0.9871440265
0.9865380886
0.9856603779
0.9852950174
0.9851663017
0.9851514711
0.9852005935
0.9852991083
0.9854513415
0.9856744761
0.9859984342
0.9864701594
0.9871642204
0.9882062111
0.9898270104
0.9925630919
902348.7303
369633.5886
211683.3284
146219.3379
106625.7851
57339.94034
13986.19607
2008.07321
883.1293223
535.3734574
333.510292
211.6446994
136.8435504
90.7475283
63.37057976
46.74483093
34.37644666
25.38400097
19.10913997
14.54912512
11.1817415
8.690324239
6.836234508
5.445319292
4.394205697
3.592757234
2.977466201
2.501730247
2.131551179
1.84268546
1.618541742
1.447232594
1.318593654
1.22171667
1.148208593
1.092915737
1.05289713
1.02569158
1.008465666
0.9982563949
0.9925455588
0.9895348722
0.9880847671
0.987540729
0.9871355632
0.986530739
0.9856900652
0.9853411911
0.9852213297
0.9852129071
0.9852679081
0.9853723256
0.9855304574
0.9857591948
0.9860880423
0.986563506
0.9872599495
0.9883035602
0.9899286267
0.992687041
918489.4728
380754.5965
218679.137
150041.3975
103745.8733
45221.84146
8898.699728
1721.459378
877.3276215
532.3930072
331.6010875
210.4524992
135.9956624
90.09068319
62.86704637
46.23445972
33.87018273
24.90171564
18.68708197
14.18948683
10.88115374
8.441405561
6.630805226
5.276046923
4.254753066
3.479272863
2.886427055
2.430121124
2.07652344
1.801342881
1.588014099
1.425040029
1.302766447
1.210829744
1.141084071
1.088523116
1.05036472
1.024337902
1.007803925
0.9979695349
0.9924447038
0.9895162935
0.9880942303
0.9875498135
0.9871280299
0.9865158814
0.9857153717
0.9853843383
0.9852738028
0.9852718763
0.9853327278
0.985443049
0.9856071983
0.98584184
0.9861761138
0.98665613
0.9873560381
0.9884024954
0.9900326354
0.9928111129
931190.8922
391928.1275
225008.5658
153742.243
96799.76431
34213.70143
5923.850848
1578.280162
869.1286986
527.6694685
328.5296662
208.4747815
134.6263723
89.09352641
62.16190179
45.56013133
33.2357927
24.32494866
18.19648306
13.77935271
10.5433169
8.16465317
6.403576633
5.090279976
4.103836001
3.357975423
2.790435367
2.355669668
2.020104064
1.759528344
1.557524091
1.403100802
1.287199604
1.200113437
1.134026998
1.084126244
1.04779564
1.022942446
1.007107859
0.9976587922
0.992329186
0.9894900604
0.9881011702
0.9875604079
0.9871210446
0.9864955433
0.9857371016
0.9854248139
0.9853239448
0.9853285902
0.9853952871
0.9855115381
0.9856818376
0.9859226821
0.9862628982
0.9867482408
0.9874526426
0.9885031156
0.9901391033
0.9929354145
940673.4403
403185.2451
230734.5309
156639.0022
84083.13413
24437.73127
4279.435691
1496.797095
858.7732014
521.3542899
324.3822767
205.7578042
132.761549
87.77021388
61.25556355
44.72158692
32.4737429
23.65610177
17.64033197
13.32169938
10.17089422
7.861378926
6.157329757
4.891143813
3.944114278
3.231434214
2.691770083
2.280223175
1.96366917
1.718196324
1.5277012
1.381820613
1.272160717
1.189748371
1.127159848
1.079806159
1.045240939
1.021535299
1.006393854
0.9973322654
0.9922024524
0.9894571671
0.9881053364
0.9875711524
0.9871141218
0.986471561
0.9857560184
0.9854629717
0.9853719824
0.9853832584
0.9854558139
0.9855780431
0.9857546386
0.9860019833
0.9863486395
0.9868400454
0.9875499178
0.9886055146
0.9902480763
0.9930600253
946917.6366
414382.858
236374.503
154506.6481
69349.30235
16688.78767
3378.304165
1442.051011
844.9116295
513.4437997
319.1802147
202.3196755
130.4148353
86.12983243
60.14446017
43.71615814
31.58371646
22.89808579
17.02251782
12.82050188
9.766055386
7.535372016
5.895472535
4.682116084
3.778957751
3.102643306
2.592862258
2.205593372
1.908465633
1.678148153
1.499036107
1.361494501
1.257835144
1.179857758
1.120567524
1.075620949
1.04273864
1.020139748
1.005675099
0.9969967771
0.9920676081
0.9894186724
0.9881067321
0.9875809628
0.987106725
0.9864454641
0.9857727892
0.985499139
0.985418134
0.9854360842
0.9855145278
0.9856428037
0.985825854
0.986079996
0.9864335737
0.9869317454
0.9876480143
0.9887097787
0.9903595818
0.9931850011
949892.0757
425218.6471
242189.6341
146635.4773
55864.31807
11781.34194
2882.134571
1399.162888
827.4750506
504.0478434
312.9837451
198.1932743
127.6034369
84.1823689
58.82371012
42.54104138
30.5669487
22.05628726
16.34906789
12.27985451
9.33429218
7.191234491
5.622480735
4.467537799
3.612246705
2.974746045
2.496045513
2.133384954
1.855519109
1.639995683
1.471874599
1.34231356
1.244335564
1.170515526
1.114302903
1.071609009
1.040315415
1.018773019
1.004961837
0.9966579084
0.9919273708
0.989375636
0.9881055501
0.9875890265
0.9870983276
0.9864184939
0.9857879883
0.9855336179
0.9854626118
0.9854872662
0.9855716407
0.9857060502
0.9858957259
0.9861569626
0.9865179286
0.9870235362
0.9877470775
0.9888159857
0.9904736305
0.9933103766
949780.4125
434710.6187
249744.5466
132520.6589
43137.44653
8655.928898
2592.130145
1359.677103
807.4821533
492.5233919
305.8335514
193.4050356
124.3454695
81.94210354
57.2914542
41.19755346
29.4293614
21.13992947
15.62817947
11.70705725
8.881683
6.834624712
5.343822975
4.252329293
3.447957183
2.850658754
2.403299301
2.064856357
1.805577889
1.604151084
1.446426666
1.32437904
1.231714752
1.161755743
1.108392873
1.067792479
1.037988337
1.017447041
1.00426163
0.9963200306
0.991784019
0.9893290444
0.9881020945
0.9875947712
0.9870884474
0.9863916136
0.9858020947
0.9855666817
0.9855056186
0.9855369971
0.9856273576
0.9857680032
0.9859644855
0.9862331147
0.9866019223
0.9871156056
0.9878472461
0.9889242048
0.990590217
0.993436167
947119.9167
442923.5524
251846.3274
114214.4955
32072.25537
6672.521438
2398.931408
1317.935803
785.0372625
479.0368097
297.5108182
188.0062042
120.6782188
79.43459642
55.55180954
39.69233199
28.18191513
20.16179834
14.8663712
11.11002823
8.41501692
6.472205279
5.065688226
4.041481193
3.289659676
2.732731752
2.316074145
2.00085306
1.75910349
1.570841828
1.422850492
1.307721325
1.219980211
1.153582816
1.102844859
1.064181084
1.035766941
1.016169462
1.003579795
0.995986454
0.9916394108
0.989279782
0.9880967284
0.9875978269
0.9870766693
0.9863655458
0.9858155009
0.9855985757
0.985547348
0.9855854635
0.9856818753
0.9858288734
0.9860323531
0.9863086728
0.9866857627
0.9872081324
0.987948651
0.9890344968
0.9907093203
0.9935623691
942543.0032
447508.3304
243973.5687
98373.00154
24058.19679
5435.955667
2262.26789
1276.330218
761.0115739
464.3338385
288.1113693
181.9700829
116.6378301
76.68106223
53.60604748
38.03216948
26.83794693
19.13664571
14.07616859
10.49731019
7.94213614
6.111538238
4.794347912
3.839383917
3.14010214
2.622563539
2.235241188
1.941817338
1.716299143
1.540136216
1.401080649
1.292318734
1.209107511
1.145980471
1.097652525
1.060775515
1.033655096
1.014944593
1.002919831
0.9956595899
0.991495021
0.9892286157
0.9880898332
0.9875979854
0.987062655
0.9863408113
0.9858285238
0.9856295183
0.985587983
0.9856328448
0.9857353831
0.9858888623
0.9860995382
0.9863838464
0.9867696469
0.9873012859
0.988051414
0.9891469136
0.9908309031
0.9936889634
936956.5264
446166.2222
227283.9431
82448.06564
18237.54531
4666.103364
2157.601808
1234.435457
735.5955236
448.5147522
277.9088347
175.2276302
112.2128774
73.69684015
51.45522959
36.2277079
25.41537143
18.07323724
13.26894539
9.878391205
7.472307739
5.760571257
4.535298577
3.649311871
3.001052962
2.521015246
2.161160045
1.887858323
1.677164553
1.511990891
1.381059464
1.278114741
1.199051793
1.138919339
1.09280061
1.057570357
1.031652661
1.013774283
1.002283837
0.9953411255
0.9913519955
0.9891761963
0.9880817833
0.9875951631
0.9870461441
0.98631777
0.9858414163
0.9856597043
0.9856276963
0.985679313
0.9857880617
0.9859481607
0.9861662387
0.986458833
0.9868537608
0.9873952246
0.9881556463
0.9892614965
0.9909549149
0.9938159144
931678.1575
437812.447
202601.0031
65964.79621
13966.38548
4141.834224
2061.899721
1190.553271
708.4305653
431.4883036
266.902083
167.9429234
107.355245
70.50338999
49.10575255
34.29611904
23.93673305
16.99542143
12.45619931
9.263993266
7.01557574
5.426407904
4.292535549
3.473251387
2.873370367
2.428340942
2.09379863
1.838841533
1.641554472
1.48631237
1.362687387
1.265031253
1.189756246
1.132362456
1.088268454
1.054556261
1.029756754
1.012658604
1.001672857
0.9950321741
0.9912112029
0.9891230646
0.9880729314
0.987589368
0.987026947
0.9862966566
0.9858543799
0.9856893069
0.9856666501
0.9857250319
0.9858400828
0.9860069499
0.9862326416
0.9865338182
0.986938278
0.9874900954
0.9882614483
0.989378275
0.9910812923
0.9939431724
927739.2684
422975.3822
177192.1578
52231.50899
10971.96753
3775.652307
1970.297459
1144.937859
679.9850966
413.5394588
255.2583501
160.2160627
102.1870279
67.11885232
46.57005723
32.26191859
22.41543929
15.92215617
11.65045734
8.66641705
6.58135852
5.114208435
4.068400703
3.312085761
2.757215254
2.344366364
2.032866502
1.794479626
1.609247142
1.462891029
1.345841635
1.252979577
1.181158868
1.126269601
1.084032814
1.051721721
1.027962804
1.011596444
1.001087185
0.9947334168
0.9910732895
0.9890696645
0.988063602
0.987580674
0.9870049358
0.9862776124
0.985867574
0.9857184806
0.9857049963
0.9857701569
0.9858916093
0.9860654003
0.9862989222
0.9866089756
0.9870233602
0.9875860333
0.9883689088
0.989497267
0.9912099586
0.9940706746
924724.9125
403144.3495
159030.1453
41469.75659
8909.49231
3509.375821
1883.456715
1096.73798
650.5300311
394.8110017
243.0552594
152.0971584
96.76717093
63.5799982
43.86657512
30.15823658
20.89117136
14.86241065
10.86571499
8.097978366
6.176576269
4.826812551
3.863802457
3.165858964
2.65225167
2.26863328
1.977916028
1.754398369
1.579944301
1.441532572
1.330388493
1.241867185
1.173196461
1.120599841
1.08006954
1.049054161
1.02626524
1.010585902
1.000526574
0.9944452058
0.9909387216
0.989016353
0.9880540908
0.9875691992
0.9869800298
0.9862607104
0.9858811258
0.9857473637
0.9857428766
0.9858148347
0.985942795
0.9861236723
0.9863652445
0.9866844668
0.9871091563
0.9876831606
0.9884781048
0.9896184783
0.9913408215
0.9941983459
920644.5216
380317.3434
142763.1547
32795.83191
7482.446797
3300.224091
1798.916374
1047.382831
620.1791839
375.3886051
230.3654515
143.6498486
91.20548501
59.91413958
41.03239467
28.03022953
19.39642496
13.83037272
10.11734459
7.568559183
5.80502507
4.56523293
3.678665221
3.034063772
2.557839505
2.200527179
1.928426711
1.718194558
1.553354107
1.422037154
1.316193904
1.231603527
1.165808031
1.115313695
1.076355024
1.046540904
1.024658098
1.009624652
0.9999904382
0.9941676646
0.9908078296
0.9889634137
0.9880446689
0.9875550928
0.9869521819
0.9862459754
0.9858951369
0.9857760803
0.9857804229
0.9858592033
0.9859937839
0.9861819156
0.9864317606
0.9867604405
0.9871958023
0.9877815862
0.9885890993
0.9897419005
0.9914737741
0.9943260991
915675.5555
352089.2747
123695.6582
25558.82562
6463.284092
3114.838496
1715.247473
996.996901
589.1502788
355.4528053
217.3270258
135.068676
85.55779287
56.16837607
38.12306495
25.91637144
17.96010018
12.84297018
9.419146066
7.083691971
5.467851205
4.329190951
3.512229677
2.915822165
2.473155382
2.139354892
1.883853505
1.685458535
1.529188315
1.40420956
1.303128617
1.222102568
1.158936159
1.110374004
1.072866817
1.04416962
1.023135333
1.008710146
0.9994779741
0.993900751
0.9906808371
0.9889110663
0.9880355894
0.9875385238
0.9869213631
0.9862333992
0.9859096894
0.985804742
0.9858177579
0.9859033916
0.9860447106
0.9862402694
0.9864986114
0.9868370333
0.9872834208
0.9878814053
0.9887019406
0.9898675068
0.9916086984
0.9944538341
908223.9894
329843.8076
106466.151
19875.06181
5751.944366
2949.944473
1632.020726
946.4649761
557.9758806
335.3201249
204.3272385
126.4831515
79.82742967
52.36689928
35.20881453
23.88153074
16.60548666
11.91728782
8.780052802
6.644976901
5.164486467
4.117575049
3.363300023
2.810042014
2.397292175
2.084405535
1.843661822
1.655802101
1.507174832
1.387866397
1.291071947
1.213284666
1.152528004
1.105746562
1.069584101
1.041928681
1.021691075
1.007839778
0.9989882572
0.9936443126
0.990557889
0.9888594739
0.9880270951
0.9875196761
0.9868875466
0.9862229522
0.9859248502
0.9858334495
0.9858549946
0.9859475195
0.9860957002
0.9862988622
0.9865659256
0.9869143685
0.9873721206
0.9879826986
0.9888166614
0.9899952523
0.9917454722
0.9945814402
897055.82
318359.2481
89614.58337
15592.69867
5269.924755
2801.820499
1548.833526
896.7295233
527.1370284
315.8208236
191.370321
117.8179978
74.08203482
48.49271158
32.36848276
21.9744829
15.34988526
11.06734475
8.203165121
6.251476768
4.893302392
3.928739554
3.230424409
2.71553457
2.329328044
2.034989124
1.807348558
1.628866142
1.48706393
1.372839635
1.279913561
1.205077363
1.146535675
1.101400367
1.066487893
1.039807344
1.020319779
1.007010996
0.9985203134
0.9933981268
0.990439072
0.9888087499
0.9880177261
0.9874987462
0.9868506927
0.9862145909
0.9859406741
0.9858622935
0.9858922376
0.9859916979
0.9861468679
0.9863578116
0.9866338201
0.9869925565
0.9874619961
0.9880855316
0.9889332785
0.9901250787
0.9918839602
0.9947087976
881473.6322
314305.5485
72984.80458
12706.91183
4951.080859
2667.121449
1469.649089
849.5614592
497.6436935
296.2480395
178.3373958
109.1611066
68.4039663
44.64294471
29.6801101
20.21719057
14.20463464
10.30045852
7.687445198
5.90086185
4.652045773
3.760752684
3.112051279
2.63110929
2.268378863
1.990463657
1.774455029
1.604327339
1.468631942
1.358978808
1.269554688
1.197415962
1.140916514
1.097307802
1.063561215
1.037795907
1.019016349
1.006221388
0.9980731771
0.9931619348
0.9903244341
0.98875903
0.9880057154
0.9874759447
0.986810733
0.9862082644
0.9859572064
0.9858913554
0.9859295821
0.9860360285
0.9861983187
0.9864172241
0.9867023995
0.9870716939
0.987553127
0.9881899534
0.989051791
0.9902569116
0.992024007
0.9948357774
861556.4049
299077.186
57057.0288
10874.59711
4707.397786
2532.944386
1396.620945
803.4885243
468.125681
276.6292212
165.3180796
100.6199781
62.89046417
40.93034208
27.20346152
18.62663088
13.17521813
9.616592219
7.229435922
5.589902818
4.438057777
3.611532996
3.006610377
2.555613233
2.213614617
1.950239464
1.744566198
1.581895838
1.451679065
1.346149387
1.25990691
1.190242608
1.135632445
1.093444224
1.060788868
1.035885606
1.01777611
1.005468689
0.9976459043
0.992935454
0.9902139919
0.9887104881
0.9879912572
0.9874515002
0.9867675535
0.9862039175
0.9859744848
0.9859207084
0.9859671149
0.9860806038
0.986250148
0.9864771952
0.9867717557
0.9871518634
0.9876455772
0.9882959966
0.9891721802
0.9903906594
0.9921654428
0.994962242
837534.1945
274794.6357
43118.50419
9725.540962
4489.920737
2407.648185
1324.427186
757.8166102
438.7281595
257.1023018
152.4675668
92.34176282
57.65018759
37.46149891
24.97071757
17.20667303
12.25750596
9.011322043
6.824593214
5.314967808
4.248561911
3.479018475
2.912605368
2.487978638
2.164282163
1.913789141
1.717314474
1.561316472
1.436029777
1.334233049
1.250892332
1.183506346
1.130649973
1.089787967
1.058157456
1.034068664
1.016594861
1.004750825
0.9972376038
0.9927183975
0.9901077395
0.9886632697
0.9879745353
0.9874256663
0.9867251817
0.9862014932
0.9859925401
0.9859504176
0.9860049141
0.9861255071
0.9863024405
0.9865378087
0.9868419678
0.9872331333
0.9877393949
0.9884036761
0.9892944085
0.9905262121
0.992308084
0.9950880451
809916.6916
242973.7538
32230.02673
9062.729108
4290.510774
2285.280535
1253.766992
712.9711077
409.7083411
237.8773907
139.9954428
84.48908847
52.78007865
34.30920854
22.98798109
15.95164705
11.44727274
8.478232272
6.467866921
5.072291424
4.080815782
3.361246092
2.828649981
2.427236007
2.119707484
1.880645528
1.692376489
1.542365729
1.421530559
1.323126193
1.242442644
1.177162484
1.125939752
1.086320074
1.055655249
1.03233823
1.015468857
1.004065915
0.9968474466
0.9925104829
0.9900056564
0.9886175022
0.9879557217
0.9873985633
0.9866871772
0.9862009346
0.9860113974
0.9859805404
0.9860430495
0.9861708123
0.9863552708
0.9865991368
0.9869131017
0.9873155569
0.9878346115
0.9885129887
0.9894184188
0.9906634414
0.9924517332
0.9952130327
778802.8619
206045.5569
24947.9005
8607.75501
4094.921842
2166.910364
1185.08526
669.2133808
381.2596721
219.1697426
128.1193849
77.19831209
48.3436904
31.50162612
21.24381556
14.84967506
10.73604742
8.01009401
6.154021437
4.858147749
3.93219854
3.256390003
2.753480228
2.372514322
2.07929129
1.850396324
1.669468237
1.524847899
1.408047128
1.312738101
1.234497939
1.171171819
1.121476081
1.083023966
1.053271977
1.030688274
1.014394765
1.003412259
0.9964746653
0.9923114354
0.9899077113
0.9885733041
0.9879349809
0.9873701737
0.986653301
0.986202185
0.9860310764
0.9860111268
0.9860815821
0.9862165838
0.9864087029
0.9866612397
0.9869852096
0.9873991718
0.9879312409
0.9886239118
0.9895441334
0.9908021997
0.9925961788
0.9953370448
743833.9958
168227.8563
20659.14717
8195.989957
3898.559523
2053.754359
1118.993082
626.8884176
353.6491392
201.2662531
117.0625964
70.57089582
44.37402808
29.0356851
19.71991909
13.88685797
10.11397616
7.599798517
5.87809393
4.669101246
3.800343613
3.162828932
2.685987742
2.323056693
2.042516062
1.822686986
1.648346191
1.508595452
1.395464617
1.302991137
1.227006911
1.16550078
1.117236977
1.0798855
1.050998885
1.029113632
1.013369701
1.002788361
0.9961185714
0.9921209989
0.9898138694
0.9885307966
0.9879124776
0.98734047
0.9866233303
0.9862051886
0.9860515915
0.9860422192
0.9861205643
0.9862628762
0.9864627896
0.986724165
0.9870583294
0.9874839995
0.988029279
0.9887364031
0.9896714531
0.9909423198
0.9927411958
0.9954599151
704659.1546
134492.6836
17947.28814
7795.859085
3712.700998
1946.076988
1055.652326
586.1296193
327.0820756
184.4290185
106.9741606
64.64577947
40.84902384
26.88633141
18.39335404
13.04762365
9.570531594
7.240210291
5.635262869
4.501897062
3.68305253
3.079078737
2.625168974
2.27818295
2.008919205
1.797201694
1.628793957
1.493459775
1.383681213
1.293816459
1.219924025
1.160119575
1.113202978
1.076892188
1.048828244
1.02760972
1.012391076
1.00219286
0.995778524
0.9919389234
0.9897240875
0.9884901106
0.9878883785
0.9873093992
0.9865970574
0.9862098903
0.9860729524
0.9860738528
0.98616004
0.9863097345
0.9865175724
0.9867879473
0.9871324843
0.9875700448
0.9881287028
0.9888503992
0.9898002573
0.9910836153
0.9928865452
0.9955814728
661700.1948
105334.2145
16289.78182
7434.49497
3537.953903
1844.496584
995.3739042
547.1586531
301.8527562
168.9175505
97.94033665
59.42436665
37.76374124
25.02179286
17.24135853
12.31702143
9.095840694
6.924784551
5.421178898
4.353636955
3.578389978
3.003843058
2.570152447
2.237304602
1.978101552
1.773668396
1.610625387
1.479313194
1.372609552
1.285155051
1.213210278
1.155002715
1.109357479
1.074033423
1.046753502
1.026172635
1.011456663
1.001624565
0.9954539517
0.9917649767
0.98963832
0.9884513997
0.9878628583
0.9872768685
0.9865742885
0.9862162353
0.9860951635
0.9861060552
0.9862000437
0.9863571928
0.986573081
0.9868526076
0.9872076813
0.987657294
0.9882294687
0.9889658143
0.9899304017
0.9912258791
0.9930319728
0.9957015422
615049.2289
81107.56291
15191.43077
7113.583997
3374.743547
1749.52766
938.4419441
510.1972272
278.272073
154.9066636
89.97225863
54.87122873
35.08675298
23.40822817
16.24192389
11.68095914
8.680793831
6.647590015
5.231956667
4.221761444
3.484663269
2.935995637
2.520184814
2.199914808
1.949720307
1.751854038
1.593681385
1.466046865
1.362175358
1.276956877
1.206832695
1.150128723
1.105686564
1.071300377
1.044769227
1.024799132
1.010564585
1.00108246
0.995144357
0.9915989487
0.9895565189
0.9884148525
0.9878361087
0.9872427274
0.986554843
0.9862241683
0.9861182227
0.9861388443
0.9862405988
0.9864052722
0.9866293297
0.9869181492
0.9872839076
0.9877457105
0.9883315078
0.9890825344
0.9900617134
0.9913688779
0.9931772038
0.9958199412
564324.4441
62208.94353
14505.39702
6830.739938
3223.773446
1661.582721
885.1060046
475.4726049
256.6159681
142.461222
83.02275471
50.92811347
32.77407267
22.01290553
15.37459334
11.12656023
8.317188956
6.403351107
5.064173985
4.104033929
3.400401201
2.874561322
2.474615405
2.165576738
1.923480379
1.731558233
1.577825324
1.453567462
1.352315059
1.269179193
1.200763157
1.145479314
1.10217843
1.068685596
1.042870834
1.023486444
1.009713219
1.000565646
0.9948492893
0.9914406374
0.9894786232
0.988380704
0.987808349
0.9872067441
0.98653855
0.986233633
0.9861421226
0.9861722308
0.9862817193
0.9864539834
0.9866863206
0.9869845615
0.9873611341
0.9878352397
0.9884347307
0.9892004238
0.9901939979
0.9915123601
0.9933219521
0.9959364938
508047.2956
49308.31298
14182.97193
6557.540592
3085.32345
1580.674737
835.4016038
443.1216534
237.0249458
131.5281194
76.9969968
47.52110599
30.77610732
20.80401119
14.61992041
10.64175671
7.997430614
6.187229614
4.914716526
3.998431665
3.324278133
2.818663846
2.432860677
2.133899334
1.899117912
1.712602062
1.562935454
1.441792028
1.342972333
1.261784267
1.194976928
1.141038462
1.098822792
1.066182633
1.041054369
1.022232168
1.00890113
1.000073315
0.9945683342
0.9912898457
0.9894045506
0.9883492498
0.9877798452
0.9871685784
0.9865252478
0.9862445726
0.9861668502
0.9862062174
0.9863234098
0.9865033253
0.9867440426
0.9870518183
0.9874393139
0.9879258063
0.9885390259
0.9893193222
0.9903270368
0.991656054
0.9934659207
0.9960510243
445323.3611
40939.86113
14030.69232
6287.097404
2958.98051
1506.595713
789.281349
413.2568605
219.5287678
121.9963483
71.78774965
44.57812617
29.04741322
19.75392102
13.96118896
10.21625439
7.715082232
5.995147577
4.780970942
3.903263056
3.255188195
2.767573943
2.394436133
2.104558425
1.876414731
1.694838015
1.548911755
1.430652719
1.334101361
1.254741597
1.189454142
1.136793373
1.09561151
1.063786434
1.039316735
1.021034396
1.008127148
0.9996047885
0.9943011344
0.9911463913
0.9893341878
0.9883208666
0.9877509396
0.9871277455
0.9865147821
0.9862569278
0.986192386
0.9862407972
0.9863656635
0.9865532841
0.9868024693
0.9871198759
0.9875183802
0.9880173131
0.988644257
0.9894390433
0.9904605869
0.991799668
0.9936088031
0.9961633514
374653.4497
35672.04485
13948.04477
6046.379117
2845.542264
1439.571183
746.8562396
386.0157328
204.0744776
113.7278174
67.28824088
42.03267309
27.54759639
18.8385774
13.38389483
9.841149633
7.464592063
5.823595618
4.660691947
3.817075433
3.192182447
2.720666463
2.358926792
2.077276204
1.855184182
1.67814017
1.535669137
1.420092106
1.325663629
1.248025767
1.184178395
1.132733571
1.092537996
1.061492968
1.037655472
1.019891587
1.007390304
0.9991594905
0.9940473783
0.9910101038
0.9892673675
0.9882960322
0.9877220966
0.9870835676
0.9865070052
0.9862706372
0.9862187036
0.9862759542
0.9864084619
0.9866038317
0.9868615582
0.9871886722
0.9875982445
0.9881096385
0.9887502615
0.9895593726
0.9905943782
0.9919428894
0.9937502808
0.9962732886
293292.4306
32422.11323
13877.21446
5831.965967
2743.818106
1378.941479
707.7975668
361.2753608
190.4535185
106.5237944
63.37954341
39.81724561
26.23790271
18.03540565
12.87460866
9.508287732
7.240920523
5.669411719
4.551868579
3.738574277
3.134419474
2.677389872
2.325968238
2.051810132
1.835264406
1.662400225
1.52313512
1.410061836
1.317627154
1.241616015
1.179136534
1.128850824
1.089597212
1.05929924
1.036068785
1.018802599
1.006689852
0.9987369653
0.9938068153
0.9908808387
0.9892038381
0.9882739281
0.9876939756
0.9870405891
0.9865017743
0.9862856336
0.9862457654
0.9863116572
0.9864517686
0.9866549192
0.9869212424
0.9872581167
0.9876787867
0.9882026253
0.9888568374
0.9896800537
0.9907281004
0.9920853693
0.993890006
0.9963806418
194490.4239
30654.40297
13785.48302
5645.544336
2654.616013
1324.899509
672.1246306
338.9983391
178.4029966
100.2475821
59.9741019
37.88068022
25.08820544
17.32677071
12.42278197
9.211235944
7.040078744
5.530086022
4.452900716
3.666728871
3.081228817
2.63730437
2.29526972
2.027967895
1.816527483
1.647533102
1.511253225
1.400524648
1.309967656
1.235496887
1.174318968
1.125139241
1.086785644
1.057203231
1.034555458
1.017766615
1.006025219
0.9983368409
0.9935792334
0.9907584747
0.9891433433
0.9882516406
0.9876670002
0.9870025685
0.9864989499
0.9863018468
0.9862735269
0.986347866
0.9864955357
0.9867064845
0.9869814395
0.9873281012
0.9877598662
0.9882960941
0.988963759
0.9898008065
0.9908614232
0.9922267419
0.9940276244
0.9964852317
62120.43629
30055.03137
13564.40546
5485.011731
2577.055699
1276.834278
638.1425651
318.3461613
167.7471094
94.73737745
56.9803056
36.17252842
24.07000546
16.69623294
12.01869123
8.944119164
6.858450899
5.403356995
4.362354395
3.60062168
3.032016636
2.600022051
2.266576264
2.005582668
1.798863338
1.63346635
1.499975965
1.391449691
1.302665411
1.22965611
1.169718279
1.12159439
1.08410075
1.055203536
1.033114648
1.016783025
1.005395941
0.9979588034
0.9933644509
0.9906429206
0.9890858611
0.988229331
0.9876412834
0.9869692271
0.986498395
0.9863192021
0.9863019353
0.986384529
0.986539702
0.9867584491
0.9870420486
0.9873984964
0.9878413189