/*--------------------------------*- C++ -*----------------------------------*\
  =========                 |
  \\      /  F ield         | OpenFOAM: The Open Source CFD Toolbox
   \\    /   O peration     | Website:  https://openfoam.org
    \\  /    A nd           | Version:  12
     \\/     M anipulation  |
\*---------------------------------------------------------------------------*/
FoamFile
{
    format      ascii;
    class       surfaceScalarField;
    location    "500";
    object      phi;
}
// * * * * * * * * * * * * * * * * * * * * * * * * * * * * * * * * * * * * * //

dimensions      [1 0 -1 0 0 0 0];

internalField   nonuniform List<scalar> 
32120
(
-0.0006361756825
-0.04556498486
0.04620116055
-0.001435107226
-0.06474112823
0.06554006068
-0.002422963933
-0.08416141832
0.08514927565
-0.0036149348
-0.1069433451
0.1081353166
-0.004938192728
-0.1349951535
0.1363184123
-0.006188065724
-0.1707206138
0.171970488
-0.007293968143
-0.216942302
0.2180482062
-0.01011472235
-0.2735853864
0.2764061435
-0.01763371176
-0.3323588069
0.3398778008
-0.02795743796
-0.3963069767
0.4066307092
-0.04026723026
-0.4717058115
0.4840156118
-0.05487819777
-0.5615694068
0.5761803839
-0.07224539613
-0.6684672949
0.6858345045
-0.09289058928
-0.7957511232
0.8163963294
-0.1174264721
-0.9472109326
0.9717468305
-0.1465870253
-1.127486924
1.156647494
-0.1812384442
-1.341997333
1.376648771
-0.222415316
-1.597242054
1.638418947
-0.2713445584
-1.90089361
1.949822876
-0.329490415
-2.262080987
2.32022687
-0.3985960699
-2.691601826
2.760707507
-0.4807447001
-3.202240078
3.284388737
-0.5784294021
-3.809092737
3.906777466
-0.6946453417
-4.529959765
4.646175735
-0.8330028817
-5.385770305
5.524127869
-0.9978678923
-6.401079949
6.565944986
-1.19453104
-7.604637181
7.801300345
-1.429401874
-9.030064098
9.264934948
-1.7102108
-10.71672499
10.99753393
-2.046178794
-12.71091513
13.04688315
-2.448109981
-15.06754142
15.46947264
-2.928402807
-17.85243007
18.33272295
-3.501062661
-21.14525456
21.71791448
-4.181862121
-25.04290702
25.72370654
-4.988779072
-29.66310363
30.47002064
-5.942701038
-35.14818799
36.10211002
-7.068295773
-41.6692955
42.79489029
-8.394844423
-49.43119631
50.75774504
-9.956933246
-58.67809121
60.24018009
-11.79490639
-69.7006814
71.53865465
-13.95510684
-82.84478566
85.00498614
-16.48986342
-98.52190442
101.0566611
-19.45715662
-117.2220826
120.1893758
-22.91976967
-139.5295653
142.9921784
-26.94359297
-166.1417437
170.1655669
-31.5945944
-197.8920989
202.5431003
-36.93371867
-235.7779305
241.1170547
-43.00867772
-280.9939929
287.068952
-49.84112008
-334.9733955
341.8058378
-57.40702041
-399.437544
407.0034444
-65.60717501
-476.4573749
484.6575295
-74.22336168
-568.5288076
577.1449943
-82.85376091
-678.6662052
687.2966044
-90.81854202
-810.5187411
818.4835222
-97.0226342
-968.5163207
974.7204129
-99.75697742
-1158.053329
1160.787672
-96.41242242
-1385.723731
1382.379176
-83.06675933
-1659.623316
1646.277653
-53.89453618
-1989.71438
1960.542157
-2388.382021
2334.808918
-0.000563640424
-0.04500134402
-0.001283335902
-0.06402143189
-0.002164897768
-0.08327985576
-0.003208529644
-0.1058997125
-0.004344021453
-0.1338596607
-0.005404806181
-0.1696598275
-0.006420414414
-0.2159266911
-0.01021652057
-0.269789276
-0.01759045793
-0.3249848636
-0.02675306387
-0.3871443631
-0.0376459811
-0.460812885
-0.05060979664
-0.5486055804
-0.06603167986
-0.653045399
-0.08438195178
-0.7774008367
-0.1062116443
-0.9253812234
-0.1321836226
-1.101514927
-0.1630793146
-1.31110162
-0.1998335872
-1.560487758
-0.2435553273
-1.857171845
-0.2955694797
-2.210066807
-0.3574567414
-2.629714536
-0.4311134319
-3.128583357
-0.518821575
-3.721384566
-0.6233391432
-4.425442166
-0.7480118585
-5.261097567
-0.8969132997
-6.252178482
-1.075015641
-7.426534825
-1.288381799
-8.816697921
-1.544347241
-10.46075951
-1.851637533
-12.40362478
-2.220374389
-14.69880448
-2.661990829
-17.41081349
-3.189174323
-20.61807097
-3.816013711
-24.41606741
-4.558456998
-28.9206603
-5.435040083
-34.27160452
-6.467745241
-40.63659033
-7.68280799
-48.21613299
-9.111372527
-57.24952672
-10.78992378
-68.0221295
-12.76051186
-80.87419766
-15.07073085
-96.21168492
-17.77340068
-114.5194129
-20.92577009
-136.3771956
-24.58795914
-162.4795547
-28.82019593
-193.6598618
-33.6781834
-230.9199428
-39.20564715
-275.4665289
-45.42270041
-328.756342
-52.30805632
-392.552188
-59.77226811
-468.9931629
-67.61794709
-560.6831285
-75.48119699
-670.8029551
-82.74592049
-803.2540174
-88.41929248
-962.8429486
-90.95144405
-1155.521177
-87.97572541
-1388.69945
-75.93418916
-1671.664852
-49.54151652
-2016.107053
-2436.905255
-0.0004456709392
-0.04455567253
-0.0009984850499
-0.06346861667
-0.001659284376
-0.08261905552
-0.002394102685
-0.1051648931
-0.003087944956
-0.1331658169
-0.003602200088
-0.1691455701
-0.004277435752
-0.2152514518
-0.008314534378
-0.2657521719
-0.01502445559
-0.3182749348
-0.0231894105
-0.3789793986
-0.03289331928
-0.4511089648
-0.04444037259
-0.5370585137
-0.05817575725
-0.639309999
-0.07451947519
-0.7610571012
-0.09396104673
-0.9059396319
-0.1170915235
-1.078384428
-0.144607659
-1.28358546
-0.1773457503
-1.52774964
-0.2163016109
-1.818215956
-0.2626716736
-2.163696714
-0.3178922785
-2.574493902
-0.3836972344
-3.06277837
-0.4621854907
-3.642896284
-0.5559103148
-4.331717314
-0.667994656
-5.149013208
-0.802279875
-6.117893244
-0.9635006122
-7.265314082
-1.157463382
-8.622735144
-1.391180577
-10.2270423
-1.672902678
-12.12190265
-2.012020575
-14.35968656
-2.418905201
-17.0039288
-2.904848416
-20.13212773
-3.482271898
-23.83864384
-4.165251796
-28.23768039
-4.970266087
-33.46659011
-5.91700264
-39.68985378
-7.029091434
-47.10404404
-8.334681697
-55.94393648
-9.86683413
-66.4899769
-11.66372323
-79.07730861
-13.76862412
-94.10678389
-16.22962152
-112.0584156
-19.09887968
-133.5079374
-22.43122744
-159.147207
-26.28164196
-189.8094472
-30.7010491
-226.5005357
-35.72957153
-270.4380065
-41.3859884
-323.0999252
-47.65161866
-386.2865577
-54.44607943
-462.1987022
-61.59124274
-553.5379652
-68.75814383
-663.6360541
-75.38934289
-796.6228184
-80.58601858
-957.646273
-82.9445665
-1153.162629
-80.32107755
-1391.322939
-69.49198934
-1682.493941
-45.66781347
-2039.931229
-2480.774718
-0.0003413944715
-0.04421427748
-0.000750007432
-0.06306000254
-0.001222087124
-0.08214697485
-0.001688892349
-0.1046980867
-0.001978183964
-0.1328765237
-0.001964234451
-0.169159517
-0.002829970914
-0.2143857113
-0.006993446715
-0.2615886901
-0.013020109
-0.3122482644
-0.02023285107
-0.3717666466
-0.0288051152
-0.4425366889
-0.03900747648
-0.5268561388
-0.05114288611
-0.6271745737
-0.06558507016
-0.7466148992
-0.08276855851
-0.8887561234
-0.1032210956
-1.057931868
-0.1275665232
-1.259240008
-0.1565568578
-1.498759278
-0.1910911307
-1.783681655
-0.2322534893
-2.122534326
-0.2813505729
-2.52539679
-0.3399673005
-3.004161613
-0.4100374396
-3.572826121
-0.4939407496
-4.247813978
-0.5946298188
-5.048324126
-0.7157843615
-5.996738687
-0.8619762398
-7.1191222
-1.03881099
-8.445900396
-1.252990852
-10.01286244
-1.512246427
-11.86264705
-1.825145545
-14.04678741
-2.200907059
-16.62816725
-2.649405613
-19.68362915
-3.181486988
-23.30656241
-3.809559931
-27.60960742
-4.548329582
-32.72782039
-5.415522967
-38.82266038
-6.432518745
-46.08704816
-7.624838042
-54.75161718
-9.022486585
-65.09232824
-10.66014287
-77.43965234
-12.57715485
-92.18977183
-14.81728391
-109.8182866
-17.42804949
-130.8971718
-20.45944612
-156.1158104
-23.96166709
-186.3072262
-27.98130424
-222.4808986
-32.5552397
-265.8640709
-37.70111211
-317.9540528
-43.40273925
-380.5849305
-49.58818464
-456.0132568
-56.0971442
-547.0290056
-62.63288604
-657.1003123
-68.69201547
-790.5636889
-73.46221381
-952.8760747
-75.67436617
-1150.950477
-73.38927489
-1393.60803
-63.69056697
-1692.192649
-42.24414178
-2061.377654
-2520.34946
-0.0002403004316
-0.04397397631
-0.0004999782181
-0.06280032354
-0.0007739140816
-0.08187303792
-0.0009702865558
-0.104501713
-0.0008735436532
-0.1329732647
-0.0003439956545
-0.1696890621
-0.001579441636
-0.2131502607
-0.005584890339
-0.2575832348
-0.01089121642
-0.3069419299
-0.01721234504
-0.3654455078
-0.02473109883
-0.4350179232
-0.03368580663
-0.5179014172
-0.044343753
-0.6165166115
-0.05703784387
-0.7339207904
-0.07215422866
-0.8736397186
-0.09016348112
-1.039922593
-0.1116224262
-1.237781039
-0.1372033238
-1.473178355
-0.1677120164
-1.753172936
-0.2041244006
-2.086121914
-0.2476267348
-2.48189443
-0.2996762956
-2.952112024
-0.3620816125
-3.510420784
-0.4371076521
-4.172787916
-0.5276049121
-4.957826855
-0.6371561123
-5.887187477
-0.7702179589
-6.98606035
-0.9322104946
-8.283907862
-1.12949126
-9.815581663
-1.369181418
-11.62295687
-1.658914845
-13.75705395
-2.006691221
-16.28039083
-2.421002355
-19.26931798
-2.911264932
-22.8162998
-3.488452369
-27.03241996
-4.165773852
-32.05049885
-4.959291841
-38.02914237
-5.888438342
-45.15790159
-6.97641967
-53.66363583
-8.250513429
-63.8182344
-9.742241406
-75.94792437
-11.48738423
-90.44462895
-13.52576288
-107.779908
-15.90065816
-128.5222764
-18.65765684
-153.3588117
-21.84260188
-183.1222811
-25.4981613
-218.8253392
-29.65831637
-261.7039158
-34.33975132
-313.2726178
-39.52869503
-375.3959868
-45.16110364
-450.3808482
-51.09320052
-541.0969088
-57.05807227
-651.1354405
-62.60213177
-785.0196294
-66.99277859
-948.4854279
-69.08466593
-1148.858589
-67.12690559
-1395.565791
-58.48553473
-1700.834019
-39.24498062
-2080.618209
-2555.954578
-0.0001551970544
-0.04381877847
-0.0002802150766
-0.06267530427
-0.000367238809
-0.08178601307
-0.0002953909671
-0.1045735594
0.0001661213652
-0.133434775
0.0009679693013
-0.1704909068
-0.0005593292213
-0.2116229573
-0.00414395836
-0.2539985989
-0.008792237095
-0.3022936427
-0.01432328074
-0.359914454
-0.02090375357
-0.4284374386
-0.02874368176
-0.5100614755
-0.03807625692
-0.6071840209
-0.04919452492
-0.7228025049
-0.0624375679
-0.8603966562
-0.07821995344
-1.024140186
-0.09703416001
-1.21896681
-0.1194781913
-1.450734299
-0.146276047
-1.726375056
-0.1783158367
-2.054082098
-0.2166950808
-2.443515163
-0.2627863553
-2.906020725
-0.318322398
-3.454884723
-0.3855030447
-4.105607249
-0.4671213434
-4.876208547
-0.5666979411
-5.787610874
-0.6885902343
-6.864168054
-0.8380111468
-8.134486945
-1.020894662
-9.632698137
-1.24363271
-11.4002188
-1.512825717
-13.48786092
-1.835245239
-15.95797128
-2.218108545
-18.88645465
-2.66960339
-22.36480492
-3.199510201
-26.50251312
-3.819791839
-31.43021718
-4.545091431
-37.30384275
-5.39314099
-44.30985197
-6.385091073
-52.67168573
-7.545770654
-62.65755476
-8.903849734
-74.58984527
-10.49187199
-88.85660665
-12.34607496
-105.925705
-14.50588171
-126.3624697
-17.01287469
-150.8518187
-19.90895263
-180.2262032
-23.23324632
-215.5010455
-27.01715513
-257.920007
-31.27659486
-309.0131781
-36.00013317
-370.6724485
-41.13113633
-445.249845
-46.54119871
-535.6868464
-51.99098655
-645.6856527
-57.07296357
-779.9376524
-61.12803613
-944.4303553
-63.12488777
-1146.861738
-61.48601867
-1397.20466
-53.8373133
-1708.482725
-36.64817134
-2097.80735
-2587.883873
-8.44792467e-05
-0.04373429852
-8.74262177e-05
-0.06267235628
1.036197401e-05
-0.08188380032
0.0003727127174
-0.104935909
0.001246328816
-0.1343083893
0.001950935018
-0.1711955102
0.0002722938178
-0.209944312
-0.003033628505
-0.250692671
-0.007061843575
-0.2982654208
-0.01185406957
-0.35512222
-0.01755346517
-0.4227380337
-0.02434365847
-0.5032712715
-0.03242633865
-0.5991013285
-0.04205755622
-0.7131712736
-0.05353448816
-0.848919709
-0.06722302101
-1.010451637
-0.083562413
-1.2026274
-0.1030925058
-1.431204187
-0.1264770541
-1.702990489
-0.154544165
-2.026014967
-0.1883339602
-2.40972535
-0.2291652416
-2.865189423
-0.2787235452
-3.405326406
-0.3391721488
-4.04515863
-0.4132780026
-4.802102687
-0.5045256951
-5.696363179
-0.6171692852
-6.751524459
-0.7561521972
-7.995504025
-0.9268656038
-9.461984712
-1.134847154
-11.19223723
-1.385612346
-13.23709569
-1.68477386
-15.65880973
-2.038449782
-18.5327787
-2.453826322
-21.94942835
-2.93972104
-26.01661838
-3.507060573
-30.86287761
-4.169264027
-36.64163927
-4.942559911
-43.53655605
-5.84625766
-51.76798796
-6.902977048
-61.60083532
-8.138808738
-73.35401357
-9.583360353
-87.412055
-11.26961765
-104.2394477
-13.23350539
-124.3985819
-15.51297622
-148.5723479
-18.14636785
-177.5928115
-21.16963761
-212.4777757
-24.61190968
-254.4777349
-28.48850752
-305.1365803
-32.79029618
-366.3706598
-37.46761916
-440.572522
-42.40640147
-530.748064
-47.39291554
-640.6991386
-52.06221546
-775.2683525
-55.82309742
-940.6694734
-57.74946594
-1144.935369
-56.42360202
-1398.530524
-49.71074291
-1715.195584
-34.43471328
-2113.08338
-2616.402246
-2.485625004e-05
-0.04370944158
8.288170697e-05
-0.06278009324
0.0003693008062
-0.08217021846
0.001033435536
-0.1056000425
0.002322865947
-0.1355978179
0.002728838721
-0.1716014801
0.0007805342346
-0.2079960034
-0.00216215676
-0.2477499748
-0.005577299212
-0.294850272
-0.009649594675
-0.351049917
-0.01449888036
-0.4178887394
-0.02028600875
-0.4974841332
-0.02718659184
-0.5922007343
-0.03542578591
-0.7049320671
-0.04526692053
-0.8390785608
-0.05703682576
-0.9986817166
-0.07113323785
-1.188530972
-0.08805102196
-1.414286386
-0.1084081836
-1.682633311
-0.1329876997
-2.001435433
-0.1627893034
-2.379923732
-0.1991007105
-2.828878
-0.2435908282
-3.360836278
-0.2984228417
-3.990326604
-0.3663715134
-4.73415401
-0.4508959508
-5.611838741
-0.5561012931
-6.64631911
-0.6865481003
-7.865057203
-0.8469438264
-9.301588965
-1.041882351
-10.99729867
-1.275821143
-13.00315687
-1.553361078
-15.38126977
-1.87973769
-18.20640206
-2.261360117
-21.5678059
-2.706278606
-25.57169986
-3.224548191
-30.344608
-3.828513175
-36.03767427
-4.533054024
-42.83201516
-5.355816713
-50.94522525
-6.317422515
-60.63922948
-7.44162478
-72.22981129
-8.7553745
-86.09830525
-10.2887131
-102.7061091
-12.07440087
-122.6128941
-14.147115
-146.4996338
-16.5419922
-175.1979343
-19.29216198
-209.7276059
-22.42476253
-251.3451343
-25.95470696
-301.6066358
-29.87512702
-362.4502397
-34.14297446
-436.3046746
-38.65758031
-526.2334582
-43.22902462
-636.1276943
-47.53185771
-770.9655194
-51.03768819
-937.1636429
-52.91760238
-1143.055455
-51.90136021
-1399.546766
-46.07489337
-1721.022051
-32.58865348
-2126.56962
-2641.747928
2.746469471e-05
-0.04373690576
0.0002469836685
-0.06299961136
0.0007324221986
-0.08265565618
0.001691405624
-0.1065590248
0.003232530141
-0.1371389408
0.003344827532
-0.1717137751
0.001384621074
-0.2060357937
-0.001051809487
-0.2453135401
-0.003933590214
-0.2919684862
-0.007374942874
-0.3476085585
-0.01147527705
-0.4137883984
-0.01637487305
-0.4925845295
-0.02222710279
-0.5863484957
-0.02923120779
-0.6979279522
-0.03762341477
-0.8306863429
-0.04769967579
-0.9886054435
-0.05982560144
-1.176405034
-0.07446142194
-1.399650552
-0.09218991776
-1.664904802
-0.1137615231
-1.979863813
-0.1401554666
-2.353529777
-0.1726611623
-2.796372291
-0.21297434
-3.320523093
-0.26329805
-3.940002886
-0.3264283019
-4.671023752
-0.405762832
-5.532504207
-0.5051570622
-6.546924872
-0.6286436957
-7.741570552
-0.7801283629
-9.150104273
-0.9632464035
-10.8141806
-1.181510431
-12.78489281
-1.43871162
-15.12406855
-1.739425916
-17.90568773
-2.089479818
-21.21775197
-2.496307672
-25.16487198
-2.969212911
-29.87170274
-3.519577261
-35.4873099
-4.161058496
-42.1905339
-4.909791492
-50.19649223
-5.784583948
-59.764437
-6.807075357
-71.20731986
-8.001813586
-84.903567
-9.396183951
-101.3117387
-11.02009409
-120.988984
-12.90527977
-144.6144481
-15.08401623
-173.0191978
-17.58693021
-207.2246919
-20.43945581
-248.4926087
-23.65627106
-298.3898205
-27.23277132
-358.8737395
-31.13219828
-432.4052476
-35.26646541
-522.0991911
-39.46786976
-631.9262899
-43.4476414
-766.9857477
-46.73561721
-933.8756671
-48.59280205
-1141.19827
-47.88526104
-1400.254307
-42.9026784
-1726.004633
-31.09689283
-2138.375406
-2664.134405
8.070390911e-05
-0.04381760918
0.0004239819904
-0.06334288853
0.001125064107
-0.08335673743
0.002409699933
-0.1078436595
0.003923782023
-0.1386530212
0.003423510851
-0.1712135015
0.001782185274
-0.2043944649
-0.0002302518236
-0.2433010989
-0.002618187362
-0.2895805458
-0.005477151826
-0.3447495883
-0.008891166893
-0.4103743768
-0.01298315886
-0.48849253
-0.01788846147
-0.5814431847
-0.02378411572
-0.6920322885
-0.03088306268
-0.8235873858
-0.03945536713
-0.9800331279
-0.04984114741
-1.166019242
-0.06247699223
-1.387014695
-0.07792814611
-1.649453637
-0.09693874159
-1.960853205
-0.1204987058
-2.329969803
-0.1499307312
-2.766940255
-0.1869874042
-3.283466416
-0.2339284319
-3.893061854
-0.2935460556
-4.611406123
-0.3690882684
-5.456961989
-0.4640236696
-6.451989459
-0.5817237402
-7.623870463
-0.7252405879
-9.006587401
-0.8973261483
-10.64209502
-1.10072847
-12.58149046
-1.338648909
-14.88614808
-1.615202405
-17.62913421
-1.935782146
-20.89717221
-2.307312248
-24.79334186
-2.738428755
-29.44058621
-3.239636268
-34.98610237
-3.823474518
-41.60669562
-4.504701274
-49.51526546
-5.300479983
-58.96865826
-6.230538894
-70.27726094
-7.317260615
-83.81684526
-8.585640455
-100.0433589
-10.0630283
-119.5115961
-11.77852914
-142.8989472
-13.76187894
-171.035848
-16.04151333
-204.9450575
-18.64142864
-245.8926934
-21.5762507
-295.4549985
-24.8436489
-355.6063413
-28.41288735
-428.8360091
-32.20774482
-518.3043336
-36.08129538
-628.0527394
-39.77894509
-763.288098
-42.88460982
-930.7700024
-44.74266739
-1139.340213
-44.34532322
-1400.651651
-40.17069468
-1730.179262
-29.94906703
-2148.597033
-2683.752242
0.0001358740031
-0.0439534827
0.0006111738262
-0.06381818744
0.001528571665
-0.08427413437
0.003143462437
-0.1094585491
0.004446254696
-0.1399558117
0.003678967246
-0.1704462116
0.002291248132
-0.2030067426
0.0006368149979
-0.2416466619
-0.00132988913
-0.287613837
-0.003693116416
-0.3423863556
-0.006523649632
-0.4075438373
-0.009927253224
-0.4850889193
-0.01402107243
-0.5773493576
-0.01895972895
-0.6870936233
-0.02493449498
-0.8176126103
-0.03219682616
-0.9727707864
-0.04107124254
-1.157144815
-0.05198710366
-1.376098822
-0.0655205042
-1.635920226
-0.08244378383
-1.943929915
-0.1037904333
-2.308623147
-0.1309370311
-2.739793649
-0.1656958411
-3.248707602
-0.2103658178
-3.848391876
-0.2676721342
-4.554099802
-0.3405898346
-5.384044279
-0.432061958
-6.360517322
-0.5447188734
-7.511213528
-0.6807941624
-8.870512087
-0.8423080805
-10.48058107
-1.031455348
-12.39234317
-1.251050306
-14.6665531
-1.504900738
-17.37528376
-1.798067924
-20.604005
-2.137033662
-24.4543761
-2.529824755
-29.0477951
-2.986137694
-34.52978941
-3.517486099
-41.07534719
-4.137373556
-48.89537799
-4.861473942
-58.24455785
-5.707793746
-69.43094112
-6.696771061
-82.82786793
-7.851260847
-98.8888691
-9.196329547
-118.1665274
-10.75874832
-141.3365284
-12.56601566
-169.2285807
-14.64467102
-202.8664021
-17.01753695
-243.5198275
-19.69936435
-292.7731711
-22.69013198
-352.6155736
-25.96490557
-425.5612356
-29.45869715
-514.810542
-33.04409593
-624.4673406
-36.49843619
-759.8337578
-39.45597519
-927.8124634
-41.33853361
-1137.457654
-41.2553217
-1400.734863
-37.85897432
-1733.575609
-29.1374366
-2157.318571
-2700.770683
0.0001825774837
-0.04413605963
0.0007935721919
-0.06442918106
0.001922719517
-0.08540328061
0.003738803755
-0.1112746319
0.004606970847
-0.1408239768
0.003862902995
-0.169702141
0.002730949509
-0.2018747855
0.001387636105
-0.2403033441
-0.0002103965153
-0.2860157993
-0.002132468109
-0.3404642781
-0.004438821083
-0.4052374776
-0.007221267432
-0.4823064654
-0.01058545621
-0.5739851605
-0.01467404575
-0.6830050246
-0.01967015611
-0.8126164903
-0.02581629549
-0.9666246368
-0.03343581734
-1.149525283
-0.0429645168
-1.366570112
-0.05500341939
-1.623881315
-0.07036649803
-1.928566827
-0.09015586496
-2.288833774
-0.1158230803
-2.714126427
-0.1492290007
-3.215301678
-0.1926542945
-3.804966581
-0.2486559189
-4.498098174
-0.3198045866
-5.312895603
-0.4084154684
-6.271906426
-0.516375424
-7.403253553
-0.645216475
-8.741671012
-0.7964224315
-10.32937509
-0.9718391701
-12.21692641
-1.174055182
-14.46433706
-1.406674849
-17.14266407
-1.674487853
-20.33619197
-1.983574324
-24.14528962
-2.34139501
-28.6899744
-2.756897759
-34.11428665
-3.240655563
-40.59158937
-3.805032201
-48.33100134
-4.464358622
-57.58523141
-5.235095463
-68.66020427
-6.135941962
-81.92702141
-7.187848104
-97.83696294
-8.413856512
-116.940519
-9.838680129
-139.9117048
-11.48786942
-167.5793914
-13.38635238
-200.9679192
-15.55602821
-241.3501516
-18.01195856
-290.3172407
-20.75648202
-349.8710501
-23.77029171
-422.5474259
-26.99909734
-511.5817363
-30.33386849
-621.1325694
-33.58186769
-756.5857585
-36.42436764
-924.9699634
-38.35528815
-1135.526734
-38.59258364
-1400.497568
-35.95082146
-1736.217371
-28.65679629
-2164.612596
-2715.339055
0.0002371834864
-0.04437324256
0.00100534132
-0.06519733795
0.002386943221
-0.08678488153
0.004237807094
-0.1131254945
0.004552574137
-0.141138742
0.003854179315
-0.1690037438
0.002998734091
-0.2010193373
0.001981908312
-0.2392865148
0.000760171375
-0.2847940581
-0.0007263434307
-0.3389777584
-0.002533066605
-0.4034307489
-0.004745673991
-0.4800938518
-0.00746576088
-0.5712650667
-0.01083151264
-0.6796392653
-0.0150242111
-0.8084237839
-0.02028543356
-0.9613634059
-0.02694705563
-1.142863653
-0.03546585803
-1.358051301
-0.04647097098
-1.612876195
-0.06082977886
-1.914208011
-0.07972514333
-2.269938405
-0.1046933126
-2.689158254
-0.1376191659
-3.182375821
-0.1806699331
-3.76191581
-0.2361077286
-4.442660373
-0.3059911834
-5.243012137
-0.3919710281
-6.185926567
-0.495269864
-7.299954698
-0.6168906343
-8.620050219
-0.7579817889
-10.18828391
-0.9202088242
-12.05469935
-1.106044653
-14.27850121
-1.31894923
-16.92975947
-1.563471101
-20.09167008
-1.845313781
-23.86344692
-2.171407559
-28.3638806
-2.550008291
-33.73568591
-2.990829995
-40.15076765
-3.505205672
-47.81662566
-4.106261952
-56.98417511
-4.809078924
-67.95738729
-5.630812881
-81.10528744
-6.590727415
-96.8770484
-7.710084777
-115.8211616
-9.011804538
-138.609985
-10.51976338
-166.0714325
-12.2575487
-199.2301338
-14.24638521
-239.3613151
-16.50183153
-288.0617943
-19.02865673
-347.3442249
-21.81305222
-419.7630304
-24.81095789
-508.5838307
-27.93075952
-618.0127678
-31.00786849
-753.5086496
-33.76756809
-922.2102638
-35.77111407
-1133.523188
-36.33774918
-1399.930932
-34.43264314
-1738.122478
-28.50442836
-2170.540811
-2727.588096
0.0002933543909
-0.04466659628
0.001221624329
-0.06612560675
0.002845059733
-0.08840831572
0.004575753787
-0.1148561869
0.004637858332
-0.1412008444
0.004120607492
-0.1684864901
0.003479623323
-0.2003783497
0.002706576325
-0.2385134637
0.00176592858
-0.2838534057
0.0006048737237
-0.3378166981
-0.0008266166164
-0.4019992525
-0.002607030246
-0.4783134314
-0.004833690117
-0.5690383997
-0.007641049379
-0.6768318984
-0.01121309466
-0.8048517309
-0.01580497256
-0.9567715199
-0.02177460436
-1.136894014
-0.02962186799
-1.35020403
-0.04003550509
-1.602462552
-0.05395690871
-1.900286601
-0.07262524074
-2.251270069
-0.09762883532
-2.664154656
-0.130821019
-3.149183634
-0.1741476022
-3.718589224
-0.2294557228
-4.387352248
-0.2982343238
-5.174233527
-0.3815122634
-6.102648613
-0.4799914108
-7.201475534
-0.5943375579
-8.505704051
-0.7255371392
-10.0570843
-0.8751941012
-11.90504236
-1.045728231
-14.10796706
-1.240481105
-16.73500658
-1.463772915
-19.86837826
-1.72094861
-23.60627121
-2.018442586
-28.06638661
-2.36387438
-33.39025411
-2.766179346
-39.74846266
-3.23576592
-47.34703907
-3.784685923
-56.43525509
-4.426798095
-67.31527511
-5.177897212
-80.35418831
-6.055768844
-95.99917676
-7.080127721
-114.7968027
-8.272347976
-137.4177648
-9.654895845
-164.6888846
-11.25028059
-197.6347491
-13.07929648
-237.5322992
-15.15818963
-285.9829012
-17.49425001
-345.0081645
-20.07907765
-417.1782027
-22.87846258
-505.7844457
-25.81736333
-615.0738671
-28.75775409
-750.5682588
-31.4663063
-919.5017116
-33.56731226
-1131.422182
-34.47462573
-1399.023619
-33.29382081
-1739.303282
-28.68000317
-2175.154629
-2737.631057
0.0003677991026
-0.0450343949
0.001471620237
-0.06722942707
0.003238136086
-0.0901748307
0.004613657866
-0.1162317075
0.004542314877
-0.1411294999
0.004141201247
-0.1680853746
0.003670960659
-0.1999081068
0.003096790899
-0.2379392912
0.002391868786
-0.2831484804
0.001509211041
-0.3369340367
0.0004016004911
-0.4008916378
-0.001006220879
-0.4769056054
-0.002814984728
-0.5672296308
-0.005167358706
-0.6744795189
-0.008265386742
-0.8017536971
-0.01239342498
-0.9526434756
-0.0179509423
-1.131336491
-0.02549092078
-1.342664045
-0.03577222201
-1.592181246
-0.04980916588
-1.886249652
-0.06889486143
-2.23218437
-0.09458592497
-2.63846359
-0.1286086869
-3.115160867
-0.1725944202
-3.674603484
-0.2278957975
-4.332050863
-0.2954396826
-5.106689632
-0.3757471461
-6.022341136
-0.4691748912
-7.108047773
-0.5762262419
-8.39865268
-0.6978527968
-9.935457729
-0.8356664144
-11.76722872
-0.9920595067
-13.95157394
-1.170260851
-16.55680522
-1.374367858
-19.66427124
-1.609384413
-23.37125464
-1.881284642
-27.79448637
-2.197109346
-33.07442939
-2.565094421
-39.38047757
-2.994825695
-46.91730779
-3.497406046
-55.93267473
-4.085622571
-66.72705857
-4.77408091
-79.66572996
-5.579288395
-95.19396927
-6.519627328
-113.8564638
-7.615169191
-136.3222229
-8.887220217
-163.4168336
-10.35746794
-196.1645013
-12.04651465
-235.8432525
-13.97149341
-284.0579224
-16.14232398
-342.837334
-18.55596707
-414.7645596
-21.18775974
-503.152653
-23.97849187
-612.2831349
-26.81536347
-747.7313872
-29.5040568
-916.8130183
-31.72811481
-1129.198124
-32.99002468
-1397.761709
-32.52658522
-1739.766722
-29.18559098
-2178.495623
-2745.564729
0.0004810631804
-0.04551545749
0.001765184809
-0.06851354759
0.003548168174
-0.09195781287
0.004365754766
-0.1170492926
0.004245193583
-0.1410089367
0.003993348629
-0.1678335272
0.003702160597
-0.1996169159
0.003327594327
-0.2375647215
0.002847347135
-0.2826682293
0.002214959897
-0.3363016451
0.001378744622
-0.4000554177
0.0002587051764
-0.4757855607
-0.001256484045
-0.565714436
-0.003324835863
-0.6724111612
-0.00617114253
-0.7989073847
-0.01011356857
-0.9487010437
-0.01559755245
-1.125852502
-0.02323814006
-1.335023452
-0.03386246533
-1.581556916
-0.04854317026
-1.871568943
-0.06859756171
-2.212129975
-0.09548751815
-2.611573631
-0.1306784743
-3.079969909
-0.1754239104
-3.629858044
-0.2305647624
-4.276910004
-0.2965428227
-5.040711563
-0.3735287631
-5.945355182
-0.4617038276
-7.019872694
-0.5615430255
-8.298813465
-0.6740408888
-9.822959847
-0.8008463894
-11.64042321
-0.9443274761
-13.80809284
-1.107596759
-16.39353592
-1.294533268
-19.47733472
-1.5098202
-23.1559677
-1.759010689
-27.54529587
-2.048625192
-32.78481489
-2.386278948
-39.04282381
-2.780834118
-46.52275262
-3.242566547
-55.47094228
-3.783331748
-66.18629337
-4.416713811
-79.03234789
-5.158126523
-94.45255655
-6.024833353
-112.9897569
-7.035828972
-135.3112273
-8.211504892
-162.2411577
-9.572976269
-194.8030299
-11.1408933
-234.2753355
-12.93347919
-282.2653365
-14.96341283
-340.8074003
-17.23300936
-412.4949631
-19.72690704
-500.6587554
-22.40113992
-609.608902
-25.1669308
-744.9655963
-27.86693981
-914.1130093
-30.24056255
-1126.824501
-31.87361274
-1396.128659
-32.1259237
-1739.514411
-30.02556166
-2180.595985
-2751.470333
0.000647556476
-0.04616301357
0.00207590524
-0.06994189543
0.003779231064
-0.09366113773
0.004369906365
-0.1176399667
0.004312268908
-0.1409512977
0.004165314679
-0.1676865711
0.003991117723
-0.1994427167
0.00374216658
-0.2373157677
0.003395283241
-0.2823213429
0.002902309677
-0.3358086681
0.002205552338
-0.3993586565
0.001217256172
-0.4747972603
-0.0001859269085
-0.5643112483
-0.002180104959
-0.6704169783
-0.005018553399
-0.7960689314
-0.009058328664
-0.9446612634
-0.01480174894
-1.120109077
-0.02293622672
-1.32688897
-0.0343571376
-1.570136002
-0.05016489334
-1.855761183
-0.07162076707
-2.190674095
-0.1000162536
-2.583178139
-0.1364703117
-3.043515845
-0.1818162389
-3.584512109
-0.236440753
-4.222285482
-0.3004299908
-4.976722316
-0.373765591
-5.87201957
-0.4565903971
-6.937047874
-0.5494372676
-8.205966578
-0.6533794181
-9.71901768
-0.7701063575
-11.52369625
-0.901952596
-13.67624659
-1.05190984
-16.24357866
-1.223646949
-19.3055976
-1.421550928
-22.95806371
-1.650796149
-27.31605064
-1.91744264
-32.51816839
-2.228563126
-38.73170331
-2.592392592
-46.15892314
-3.018495169
-55.0448397
-3.517932069
-65.68685646
-4.103423244
-78.44685671
-4.789469585
-93.7665102
-5.592415809
-112.1868107
-6.530402334
-134.3732407
-7.623142209
-161.1484178
-8.891423281
-193.5347489
-10.3561844
-232.8105743
-12.03695195
-280.584569
-13.94931242
-338.8950398
-16.10096643
-410.3433091
-18.48569066
-498.2740311
-21.07425465
-607.020338
-23.80091343
-742.2389375
-26.54350248
-911.3704203
-29.09432129
-1124.273682
-31.11778662
-1394.105194
-32.0894526
-1738.542745
-31.20661648
-2181.478821
-2755.414296
0.0008711613411
-0.04703417431
0.002370754538
-0.07144148746
0.003914807922
-0.09520518986
0.004333088885
-0.1180582461
0.004284252142
-0.140902459
0.004193454065
-0.1675957707
0.004077018888
-0.1993262787
0.003888837775
-0.2371275835
0.00360345094
-0.2820359525
0.003169787137
-0.3353750003
0.002522180911
-0.398711046
0.001561432218
-0.473836507
0.0001441392187
-0.5628939506
-0.001935506687
-0.6683373275
-0.004973335467
-0.7930310979
-0.009382026926
-0.9402525672
-0.01572668284
-1.113764417
-0.02474948265
-1.317866165
-0.03738364578
-1.557501834
-0.05470424407
-1.838440579
-0.0778379166
-2.167540417
-0.1078150589
-2.553200991
-0.1453909954
-3.005939905
-0.1909794164
-3.538923684
-0.2446292679
-4.168635625
-0.3062169721
-4.915134604
-0.3756704828
-5.802566048
-0.4531880826
-6.859530262
-0.5394040324
-8.119750614
-0.6354767576
-9.62294494
-0.7431254024
-11.41604759
-0.8646399364
-13.55473204
-1.002889573
-16.10532902
-1.161346077
-19.14714108
-1.344129323
-22.77528046
-1.556079783
-27.10410017
-1.802858256
-32.27138991
-2.091071645
-38.44348991
-2.428422259
-45.82157253
-2.823873034
-54.64938891
-3.287824492
-65.222905
-3.83228195
-77.90239924
-4.471006755
-93.12778539
-5.219620487
-111.438197
-6.095623618
-133.4972376
-7.118284034