/*--------------------------------*- C++ -*----------------------------------*\
  =========                 |
  \\      /  F ield         | OpenFOAM: The Open Source CFD Toolbox
   \\    /   O peration     | Website:  https://openfoam.org
    \\  /    A nd           | Version:  12
     \\/     M anipulation  |
\*---------------------------------------------------------------------------*/
FoamFile
{
    format      ascii;
    class       volScalarField;
    location    "500";
    object      rho;
}
// * * * * * * * * * * * * * * * * * * * * * * * * * * * * * * * * * * * * * //

dimensions      [1 -3 0 0 0 0 0];

internalField   nonuniform List<scalar> 
16200
(
0.9545977728
0.9547210489
0.9553287656
0.9566062478
0.9590167473
0.9637762216
0.9738408568
0.9930943668
1.00572464
1.007559319
1.007997985
1.008607417
1.009303127
1.01017202
1.011208026
1.012463381
1.013958809
1.015745752
1.017866725
1.020381506
1.023349672
1.026840087
1.030925436
1.035682017
1.041182418
1.047489291
1.054643531
1.062648376
1.071449498
1.080914473
1.090821286
1.100868429
1.110711728
1.120018895
1.128520078
1.136038429
1.142493434
1.147887734
1.15228482
1.155788147
1.158521839
1.160615605
1.162193366
1.163365916
1.164227463
1.164854718
1.165308171
1.165634176
1.165867622
1.166034244
1.166152874
1.166237168
1.166296892
1.166339124
1.16636849
1.166389206
1.166401697
1.166414154
1.166409956
1.16642352
0.946453466
0.946698529
0.9474691496
0.9490141216
0.9519398781
0.9578741796
0.9704331855
0.9904099142
0.9988994678
1.000032023
1.0005496
1.001236893
1.002028824
1.00301192
1.004180241
1.005590967
1.007267687
1.00926652
1.011634737
1.014438042
1.017742834
1.021624795
1.026162947
1.031438697
1.037527181
1.044489384
1.052357155
1.06111296
1.070665295
1.080828016
1.091317394
1.101779188
1.111844069
1.121190838
1.129591483
1.136925693
1.143167116
1.14835923
1.152588682
1.155967084
1.158615785
1.160656886
1.162205065
1.163363175
1.164219194
1.164845662
1.165300457
1.165628508
1.165863937
1.16603221
1.166152085
1.166237225
1.166297507
1.166339972
1.166369607
1.166390121
1.166402819
1.166414685
1.166410337
1.166423002
0.9398305951
0.9402181931
0.941191894
0.9430517496
0.9465877885
0.9539845616
0.969801789
0.9878273395
0.9932211512
0.9939414266
0.9945231401
0.9952931618
0.9961775618
0.9972714845
0.9985706888
1.000137483
1.001999763
1.004219217
1.006848982
1.009960914
1.013628004
1.017931766
1.02295651
1.028787688
1.035501845
1.043155147
1.051763438
1.061276295
1.071549893
1.082331308
1.093270943
1.103971102
1.114057378
1.123242785
1.13135917
1.138351946
1.144251045
1.149137975
1.153118931
1.156309556
1.158825503
1.160778277
1.162271034
1.163396392
1.164234268
1.164851476
1.165302043
1.165628545
1.165863692
1.166032204
1.166152449
1.166237915
1.166298435
1.166340995
1.166370749
1.166391089
1.166403913
1.166415311
1.166410971
1.1664236
0.9345376736
0.9350766619
0.9362908218
0.9385506804
0.9428794751
0.9520309267
0.971195402
0.985489474
0.9884896283
0.9891319092
0.9897977265
0.9906615951
0.9916559399
0.9928811691
0.9943354352
0.9960858584
0.9981648463
1.000639053
1.003567131
1.007026561
1.011097183
1.01586754
1.021429005
1.027871947
1.035271842
1.043672405
1.053060253
1.063334936
1.074283177
1.085574965
1.096798258
1.107530034
1.117417056
1.126230665
1.133877656
1.140374364
1.145805142
1.150284954
1.153934794
1.156870709
1.159200102
1.161021937
1.16242622
1.163493716
1.164294792
1.164889122
1.165325702
1.165643734
1.165873761
1.166039153
1.166157451
1.166241665
1.166301339
1.166343288
1.166372643
1.166392555
1.166405214
1.166416097
1.166411556
1.166423857
0.9306010323
0.9313001136
0.9327870464
0.9355458665
0.9409615653
0.9525158904
0.9735082059
0.9833002913
0.9849640432
0.9856479707
0.9864049567
0.9873757697
0.9884945676
0.9898667264
0.9914934351
0.9934463435
0.995763062
0.9985160673
1.001771273
1.005613931
1.010133206
1.015426256
1.021590518
1.028716158
1.036867883
1.046063131
1.056242459
1.067237828
1.078753497
1.090381779
1.101664902
1.112184306
1.121639041
1.129880604
1.136899179
1.142779798
1.147653416
1.151659812
1.154927654
1.157568693
1.159679277
1.161344281
1.162639569
1.163633269
1.164385459
1.164947947
1.165364029
1.165668949
1.165890598
1.16605061
1.166165416
1.166247331
1.166305458
1.166346341
1.166374975
1.166394301
1.166406638
1.166416995
1.166412215
1.166424315
0.9279874257
0.9288527522
0.9306330458
0.9339585704
0.9407367803
0.9556483087
0.9754961181
0.9816993344
0.9826767929
0.9834436087
0.9842961482
0.9853816577
0.9866354063
0.9881675187
0.9899839793
0.9921619453
0.9947463303
0.9978172101
1.001449746
1.005737983
1.010779397
1.01667598
1.023524209
1.031404733
1.040360439
1.050369123
1.061308954
1.072928453
1.084842986
1.096578658
1.107661072
1.117712089
1.126511973
1.134006542
1.140269422
1.145445858
1.14970215
1.153192912
1.156047237
1.158368271
1.160239082
1.161729553
1.162901058
1.163808896
1.16450263
1.165025889
1.165415918
1.165703638
1.165913957
1.166066494
1.166176341
1.166254945
1.166310831
1.166350188
1.166377782
1.166396345
1.166408205
1.166418002
1.166412905
1.166424798
0.9266269499
0.927684346
0.9298054369
0.9338223345
0.9422809887
0.9609620719
0.9773804918
0.9810622634
0.981594574
0.9824625116
0.983426291
0.9846453433
0.986058732
0.9877809185
0.9898243673
0.9922721256
0.9951770992
0.9986267426
1.002704319
1.00751013
1.013146495
1.01971533
1.027306578
1.035984006
1.045758206
1.056552283
1.068163805
1.080244792
1.092326079
1.103893854
1.114496274
1.123831785
1.131783082
1.138394198
1.143813929
1.148234377
1.15184408
1.154802328
1.157231983
1.159223972
1.160846546
1.162154291
1.163194287
1.164009324
1.164638665
1.165117834
1.165477979
1.165745573
1.165942387
1.166085864
1.166189623
1.166264122
1.166317221
1.166354683
1.166380982
1.166398633
1.166409898
1.166419104
1.166413645
1.166425369
0.9265580476
0.9278459969
0.9303764033
0.9353385944
0.9461720393
0.9674621939
0.979450873
0.9812878035
0.9818152832
0.9828065988
0.9839072365
0.9852886485
0.9868947296
0.9888442034
0.9911564073
0.9939198009
0.9971945671
1.001073826
1.005647648
1.011020137
1.017296771
1.024578232
1.032944064
1.042432003
1.053003751
1.064506304
1.076638719
1.088953702
1.100918416
1.112019356
1.121869922
1.130274207
1.137226696
1.142863
1.147392414
1.151038138
1.153997962
1.15642686
1.158436127
1.160101939
1.161476979
1.162600789
1.163506787
1.164225929
1.164787701
1.165219862
1.165547628
1.165793074
1.165974808
1.166108039
1.166204837
1.166274603
1.166324474
1.166359734
1.166384528
1.166401137
1.16641171
1.166420293
1.166414429
1.166426009
0.9278938104
0.9294249896
0.9324387826
0.9386290384
0.9528335139
0.9741958809
0.9818369262
0.982701059
0.9834993019
0.9846149987
0.9858620505
0.9874173037
0.9892310403
0.9914252493
0.9940270128
0.9971300932
1.000802269
1.005142824
1.010248403
1.016226687
1.023183943
1.031213921
1.040376289
1.05066729
1.061977285
1.074054288
1.086490149
1.098754064
1.110287979
1.120626151
1.129484779
1.136790002
1.14264465
1.147260803
1.150890056
1.153770849
1.156098756
1.158017283
1.159622396
1.160974084
1.162109434
1.163053649
1.163827429
1.164450804
1.164944217
1.165328178
1.165622296
1.165844429
1.166010095
1.166132289
1.166221518
1.166286098
1.166332411
1.166365239
1.166388362
1.166403825
1.166413628
1.166421563
1.166415262
1.166426726
0.9305382248
0.9323381634
0.9359606852
0.9436531921
0.9618578728
0.9806248898
0.9846813423
0.9855642771
0.9864656605
0.9877233164
0.9891370114
0.9908864689
0.9929291521
0.9953900015
0.998305359
1.001775723
1.005878226
1.010719682
1.016405377
1.023044906
1.030737797
1.039557059
1.049524279
1.060574319
1.072506185
1.08495509
1.097413342
1.109302111
1.120088073
1.129397979
1.137075695
1.14317099
1.147880696
1.151473168
1.154223507
1.156371269
1.158100727
1.159538892
1.160764191
1.161819997
1.162728362
1.163501177
1.164147563
1.16467767
1.165103737
1.165439649
1.165699829
1.165898178
1.166047278
1.166157978
1.166239258
1.166298351
1.166340878
1.166371103
1.166392435
1.166406669
1.166415642
1.166422913
1.166416143
1.166427517
0.9342081274
0.9363460722
0.9408260561
0.9506497696
0.9721453377
0.9865709023
0.9885884254
0.9895141392
0.9905681207
0.9919830565
0.9935836047
0.995550723
0.9978516736
1.000614727
1.003886714
1.007773514
1.012361354
1.017762949
1.024089053
1.031446144
1.03991904
1.04954586
1.060287451
1.071993163
1.084357431
1.096906486
1.109059487
1.120238311
1.129985795
1.138054444
1.144424214
1.149256694
1.152821268
1.155420887
1.157337102
1.158799287
1.159973985
1.160968708
1.161843488
1.162625442
1.163322574
1.163934699
1.164460588
1.164901602
1.165262663
1.165551699
1.165778417
1.165953075
1.16608551
1.166184546
1.166257692
1.166311128
1.166349729
1.166377241
1.166396697
1.166409642
1.166417744
1.166424343
1.166417077
1.166428385
0.9388385187
0.9413751388
0.9469586724
0.9599015352
0.9826332251
0.9927115988
0.9934135463
0.9944551369
0.9956650577
0.997258904
0.99907739
1.001302325
1.003912813
1.007040533
1.010740217
1.01511512
1.020262607
1.026295707
1.033318178
1.041426082
1.050683671
1.061085648
1.072512445
1.084701789
1.097237274
1.109560845
1.121062566
1.13121759
1.139687708
1.146367898
1.151366584
1.154935842
1.157393335
1.159056398
1.16019916
1.161032708
1.161701955
1.162293624
1.162849543
1.16338151
1.163884736
1.164348281
1.164761811
1.165118981
1.165418273
1.165662329
1.165856623
1.166008107
1.166124095
1.166211521
1.166276507
1.16632423
1.16635884
1.166383578
1.166401107
1.16641272
1.166419925
1.166425846
1.166418066
1.16642933
0.9444318203
0.9474839654
0.9544346917
0.9712275711
0.9922476178
0.9981665724
0.9991811031
1.000423168
1.001823874
1.003635839
1.005713591
1.008238409
1.011200319
1.014733
1.018901013
1.023817542
1.029579158
1.036295773
1.044052928
1.052928044
1.062941901
1.074030287
1.085983434
1.098416405
1.110806371
1.122551397
1.133068974
1.141935052
1.148956739
1.154170559
1.157793409
1.160141812
1.1615583
1.162357771
1.162796785
1.16306309
1.163278183
1.163508034
1.163777193
1.164083431
1.164410548
1.164738186
1.165048106
1.165327286
1.165568597
1.165770042
1.165933342
1.166062478
1.166162471
1.166238516
1.166295445
1.166337486
1.166368101
1.166390047
1.166405625
1.166415883
1.166422175
1.16642741
1.166419114
1.166430355
0.9511399195
0.9549299697
0.9637850505
0.9842013255
1.0020162
1.005333897
1.006202751
1.007639083
1.009236431
1.011273409
1.013617805
1.016451352
1.01977685
1.023731162
1.028389356
1.033867138
1.040263353
1.047680309
1.056195904
1.065838375
1.076552044
1.088186211
1.100434207
1.112808592
1.124703813
1.13552098
1.144763777
1.152143833
1.157619794
1.161353724
1.163643946
1.164845156
1.165304729
1.165322511
1.165130962
1.164892012
1.164703575
1.16461182
1.164625407
1.164729551
1.164898053
1.165102415
1.165317615
1.165524896
1.165712297
1.16587378
1.166007763
1.166115586
1.166200203
1.166265226
1.166314294
1.166350755
1.166377423
1.166396591
1.166410219
1.166419112
1.166424487
1.166429026
1.166420224
1.166431462
0.9587933308
0.9635829818
0.975113741
0.9978359567
1.011423758
1.013241989
1.014219232
1.015852231
1.017657605
1.01994076
1.022581104
1.025760862
1.029495405
1.033922793
1.039125524
1.045217796
1.052292428
1.060433731
1.069683931
1.08002155
1.09132678
1.103310961
1.115561283
1.127527501
1.138571716
1.148146898
1.155889552
1.161663615
1.165566883
1.167861068
1.168897216
1.169044913
1.168640964
1.167961739
1.167212156
1.166527814
1.165984002
1.16560861
1.165396028
1.165320438
1.165347001
1.165440264
1.165569442
1.165710904
1.165848546
1.16597284
1.166079322
1.166166995
1.166236966
1.166291413
1.166332888
1.166363923
1.166386728
1.166403163
1.166414859
1.166422391
1.166426855
1.166430689
1.166421392
1.166432654
0.9671765904
0.9733646772
0.9880700281
1.010759913
1.019925872
1.021853498
1.023044608
1.024919108
1.026991403
1.029583679
1.032584761
1.036176697
1.04038461
1.045344142
1.051140068
1.05787928
1.065644433
1.074495781
1.08443114
1.095353525
1.107038855
1.119111754
1.131031319
1.142219865
1.152078807
1.160160493
1.166256671
1.170380501
1.172743971
1.173678675
1.173562101
1.172760204
1.171588563
1.170295305
1.169056742
1.167983009
1.167128424
1.166504409
1.166092779
1.165858156
1.165758326
1.165751959
1.165803412
1.165884937
1.16597691
1.166066805
1.166147654
1.166216405
1.166272524
1.166316901
1.166351099
1.1663769
1.166395956
1.166409722
1.16641952
1.166425707
1.16642927
1.166432394
1.166422607
1.16643393
0.9765030188
0.9845182107
1.002394383
1.023522985
1.02986775
1.031512916
1.032948073
1.035078991
1.037437796
1.040359274
1.043744803
1.047773544
1.05248094
1.058000272
1.0644139
1.071813119
1.08026119
1.089775437
1.100292265
1.111625458
1.123439238
1.135255732
1.146492008
1.156549775
1.164943609
1.171360735
1.175744966
1.178240205
1.179142372
1.178824182
1.177668054
1.176023004
1.174176983
1.172347968
1.170684288
1.169272335
1.168147475
1.167306567
1.166720497
1.166345707
1.166133748
1.166038362
1.166019852
1.166047015
1.166097251
1.166155474
1.166212548
1.166263627
1.16630672
1.166341565
1.166368831
1.166389616
1.166405058
1.166416236
1.166424182
1.166429047
1.166431723
1.166434139
1.166423866
1.166435292
0.9871191972
0.9972707835
1.017770889
1.036869324
1.040540595
1.042212352
1.043895461
1.046285557
1.0489432
1.052209285
1.055998388
1.06048781
1.065721429
1.071826541
1.078880155
1.08695215
1.096058574
1.106148031
1.117079799
1.128575783
1.140198923
1.151399553
1.16159339
1.170223716
1.176952952
1.181618403
1.184297354
1.185236898
1.184786886
1.183336494
1.181257119
1.178872356
1.176439516
1.174146581
1.172115583
1.170411359
1.169052455
1.168023031
1.167284581
1.166786612
1.166475449
1.166300744
1.166219432
1.166197434
1.166209649
1.166238811
1.166273917
1.166308556
1.166339453
1.166365318
1.166386014
1.166402018
1.166413995
1.166422677
1.166428825
1.166432399
1.166434208
1.166435917
1.166425172
1.16643674
0.9991566384
1.011326271
1.033476627
1.048674534
1.051957095
1.053785922
1.055739168
1.058423935
1.061426476
1.065087517
1.06933442
1.074337468
1.080142875
1.08686245
1.094553831
1.103248646
1.112913979
1.12342909
1.134543527
1.14589204
1.156969318
1.167195694
1.176026107
1.183015716
1.187968613
1.190870907
1.191908518
1.191400688
1.189724733
1.187267169
1.184377744
1.181350115
1.178410428
1.175718155
1.173371314
1.171415533
1.16985464
1.168661831
1.167790598
1.167184611
1.166785857
1.166540609
1.166403035
1.166336673
1.16631433
1.166316894
1.16633176
1.166351154
1.166370672
1.166388108
1.166402602
1.166414067
1.166422735
1.166429023
1.166433436
1.166435753
1.166436723
1.166437732
1.166426521
1.166438278
1.012765725
1.02675022
1.049132488
1.061805292
1.064249082
1.066368434
1.068636642
1.071658444
1.075051288
1.079148579
1.083887263
1.08942492
1.095803881
1.103112735
1.111381015
1.1205934
1.130652853
1.141356633
1.152371412
1.163230833
1.173405418
1.182335404
1.189555375
1.194775888
1.19792081
1.199110571
1.198611598
1.196785566
1.194016092
1.190673655
1.187080224
1.18349798
1.180123032
1.177088598
1.174471203
1.172299594
1.17056484
1.169230742
1.168244017
1.16754346
1.167067474
1.166759573
1.166571662
1.166465322
1.166411619
1.166389883
1.166386139
1.166391429
1.166400358
1.166409907
1.166418565
1.166425735
1.166431258
1.166435256
1.166438
1.1664391
1.166439265
1.166439587
1.166427901
1.166439907
1.028017832
1.043610693
1.06507013
1.07566361
1.077760678
1.080199826
1.082784887
1.086149273
1.089935825
1.094464802
1.099681999
1.105727052
1.112633603
1.120460237
1.129198751
1.138775203
1.149018119
1.159638201
1.170221179
1.180250249
1.189198266
1.196574727
1.202031101
1.205424031
1.206797274
1.20637156
1.204465818
1.201459433
1.197726965
1.193614554
1.189413715
1.185355656
1.18160856
1.178282004
1.175433543
1.173077231
1.171193148
1.169737085
1.168650053
1.167866794
1.167322775
1.166959274
1.166726365
1.166584031
1.166501899
1.166457992
1.166437162
1.166429427
1.166428521
1.166430705
1.166433885
1.166437005
1.166439544
1.166441361
1.166442505
1.166442433
1.166441833
1.166441484
1.166429296
1.166441627
1.044684862
1.061860159
1.08262112
1.090479024
1.092418293
1.095174386
1.098071552
1.101772442
1.105944602
1.110890071
1.116562362
1.123077786
1.130453953
1.138709608
1.147785997
1.157538785
1.167715553
1.177946696
1.187760299
1.196640262
1.204093924
1.20973867
1.213357851
1.214940944
1.214630576
1.212716446
1.209545432
1.20549608
1.200923888
1.196146353
1.191424303
1.186959735
1.182895521
1.179320262
1.176274945
1.173760905
1.171748798
1.17018761
1.169013561
1.168158041
1.167554132
1.167141314
1.166868195
1.166693472
1.166585586
1.166521465
1.166484962
1.166465213
1.166455187
1.166450506
1.166448556
1.166447863
1.166447582
1.166447328
1.166446942
1.166445745
1.166444421
1.166443393
1.166430719
1.166443424
1.06249231
1.080822108
1.09956942
1.106030354
1.108000642
1.111065066
1.114280669
1.11832445
1.122888653
1.128248407
1.134362025
1.141312929
1.149091326
1.157664036
1.166909949
1.176609167
1.186434151
1.19595665
1.204685387
1.212140543
1.217905741
1.221724191
1.223508171
1.223356105
1.221484691
1.218224596
1.213931212
1.208969616
1.203670571
1.198321555
1.193154025
1.188343225
1.184009472
1.180222959
1.177010281
1.174361809
1.17224013
1.170588456
1.169338996
1.168420381
1.167763769
1.167307218
1.166998176
1.166794312
1.166663101
1.166580558
1.166529691
1.16649887
1.166480397
1.166469325
1.166462578
1.166458303
1.166455361
1.166453145
1.166451301
1.16644903
1.166447026
1.166445297
1.166432227
1.166445287
1.081225152
1.100341004
1.11643749
1.122209866
1.124360219
1.127748491
1.131311935
1.135720376
1.140693246
1.146466229
1.152995432
1.160321299
1.168394914
1.177123103
1.186318481
1.195691225
1.20485676
1.213359848
1.22072903
1.226554224
1.230519269
1.232494733
1.232506071
1.230733444
1.227442603
1.222982876
1.217704315
1.211950794
1.206025913
1.200187707
1.194640469
1.189535425
1.184973027
1.181007418
1.177652734
1.174889899
1.172674599
1.170945147
1.169630396
1.168656722
1.167953747
1.167458417
1.16711728
1.166887199
1.166734863
1.166635536
1.166571507
1.166530489
1.166504197
1.166487184
1.166475957
1.166468324
1.166462876
1.166458805
1.166455574
1.166452282
1.166449641
1.16644719
1.166433839
1.166447211
1.100497394
1.119286216
1.134248622
1.139175481
1.141612362
1.145327834
1.149256058
1.154026851
1.159390337
1.165532183
1.172397788
1.179978794
1.188179754
1.19684529
1.205725614
1.214475552
1.222679503
1.229889637
1.23568797
1.23975607
1.241889053
1.242069191
1.240413873
1.23715824
1.232596156
1.227078853
1.220942185
1.21450482
1.208042989
1.201787045
1.195916743
1.190562031
1.185805993
1.181688826
1.178213889
1.175353963
1.173058818
1.171262611
1.169891393
1.1688697
1.168125949
1.167596232
1.167226418
1.166972744
1.166801275
1.166686656
1.16661057
1.166560163
1.16652664
1.166504109
1.166488703
1.166477924
1.166470121
1.166464302
1.166459753
1.166455497
1.166452261
1.166449067
1.16643556
1.166449187
1.120812839
1.139331773
1.152738569
1.157149409
1.159904318
1.163908158
1.16817077
1.173251659
1.17893199
1.185343383
1.192412178
1.200076539
1.208190649
1.216539636
1.224822236
1.232659507
1.239634491
1.245338027
1.249429311
1.251690848
1.252026946
1.250506693
1.247317256
1.24272592
1.23703834
1.230596187
1.2237161
1.216690256
1.209768723
1.203156557
1.197011687
1.191445378
1.186525593
1.182280415
1.178703873
1.175761714
1.173398623
1.171545222
1.170125228
1.169061688
1.168282083
1.167721874
1.167326429
1.16705152
1.166862718
1.166734165
1.166647037
1.166587989
1.166547781
1.166520127
1.166500828
1.166487107
1.166477094
1.16646963
1.166463833
1.166458669
1.166454878
1.166450923
1.166437402
1.166451201
1.14211789
1.160823593
1.172020785
1.176098719
1.179146721
1.183380914
1.187919574
1.193235771
1.19913294
1.205685687
1.212793738
1.220340242
1.228129691
1.235897324
1.243308493
1.249976536
1.255511617
1.259566865
1.261891047
1.262366494
1.260988102
1.25789286
1.253314454
1.247534439
1.240858631
1.233612173
1.226090175
1.218558859
1.211244136
1.204328367
1.197950278
1.192204802
1.187146752
1.182793684
1.17913152
1.176119907
1.173699148
1.171796852
1.170334788
1.16923481
1.16842369
1.167836442
1.167418087
1.167124058
1.166919552
1.166778301
1.166681058
1.166614059
1.166567674
1.166535269
1.166512345
1.166495876
1.166483794
1.166474783
1.166467806
1.166461796
1.166457485
1.166452756
1.166439373
1.166453233
1.164096897
1.183091438
1.191879774
1.195804586
1.199124709
1.203545009
1.208296275
1.213761963
1.219758786
1.226302354
1.233263052
1.240472338
1.247692352
1.254624037
1.260921687
1.26621674
1.270169015
1.27250749
1.273072119
1.271833657
1.268856449
1.264327387
1.25850713
1.251678472
1.244139838
1.236196244
1.228120912
1.220155675
1.212504664
1.205330122
1.198753984
1.192856936
1.187682346
1.183238583
1.179504503
1.176434439
1.173964898
1.172020913
1.170522632
1.169390961
1.168552154
1.167940931
1.167502093
1.167190847
1.166972107
1.166819285
1.166712777
1.166638465
1.166586374
1.166549564
1.166523269
1.166504237
1.166490218
1.166479757
1.166471666
1.166464873
1.166460073
1.166454565
1.166441479
1.166455265
1.186708619
1.205225394
1.212305392
1.216161241
1.219697538
1.224231497
1.229100312
1.234599337
1.240552042
1.246914128
1.253525194
1.260172948
1.266589512
1.272460683
1.277452102
1.281234508
1.283531215
1.284150756
1.283017431
1.280173156
1.275731204
1.269914036
1.262993816
1.25524561
1.246956303
1.238409448
1.229857335
1.221519467
1.213580663
1.206185468
1.199441178
1.193416046
1.188143446
1.183623703
1.179829478
1.176710447
1.174199816
1.172220407
1.170691023
1.169531826
1.168668714
1.168036237
1.167579088
1.167252334
1.167020693
1.166857323
1.166742331
1.166661291
1.166603933
1.166563043
1.166533615
1.166512194
1.166496368
1.166484549
1.166475409
1.166467897
1.166462632
1.166456348
1.166443725
1.166457275
1.209814537
1.227413921
1.233149072
1.236965839
1.240646319
1.245210591
1.250090055
1.255490071
1.261239024
1.267236016
1.273292925
1.279165788
1.284573006
1.289204725
1.292756684
1.294952853
1.295584938
1.294536846
1.291804898
1.287483137
1.281718096
1.274754928
1.266866664
1.25831502
1.249373722
1.24030492
1.231341702
1.222683477
1.214498105
1.206914636
1.200027604
1.19389439
1.188539603
1.183956487
1.180112235
1.17695242
1.174407362
1.172397983
1.170841968
1.169658909
1.16877448
1.16812317
1.167649649
1.167308927
1.16706559
1.166892608
1.166769846
1.16668262
1.166620402
1.166575735
1.166543399
1.166519754
1.166502243
1.166489154
1.166479029
1.166470864
1.166465151
1.166458107
1.166446111
1.166459241
1.233221322
1.249606234
1.254255597
1.258029673
1.261764421
1.266261358
1.271028302
1.276177804
1.28154759
1.286992089
1.292301652
1.297213693
1.301448693
1.304717702
1.306759062
1.307356153
1.306366764
1.303740944
1.299532226
1.293869128
1.286922299
1.278946427
1.270209436
1.260956928
1.251449401
1.241928552
1.232610266
1.223676131
1.215279182
1.207534931
1.200526765
1.194302517
1.18887907
1.184243389
1.180357815
1.177164286
1.17459058
1.172555979
1.170977245
1.169773547
1.168870444
1.168202455
1.167714302
1.167360998
1.167107059
1.166925316
1.166795441
1.16670253
1.16663583
1.166587668
1.166552636
1.166526924
1.166507845
1.16649357
1.166482523
1.16647377
1.166467617
1.166459845
1.166448631
1.166461141
1.256674052
1.271604987
1.275435745
1.279138133
1.282824433
1.28712084
1.291632584
1.296386214
1.301207491
1.305926502
1.310324562
1.314132151
1.317084372
1.318925307
1.319442265
1.318477729
1.315948477
1.31185912
1.306305791
1.299437763
1.291443202
1.28257608
1.273096251
1.263232452
1.253232583
1.243319492
1.233693839
1.224521559
1.215942749
1.20806109
1.200950198
1.194649479
1.189168959
1.18449
1.180570609
1.177349477
1.174752138
1.172696455
1.17109843
1.16987693
1.168957495
1.168274747
1.167773519
1.167408885
1.167145338
1.166955612
1.166819227
1.166721093
1.166650261
1.166598871
1.16656134
1.166533709
1.166513176
1.166497794
1.166485889
1.166476613
1.166470018
1.166461568
1.166451271
1.166462957
1.280101632
1.29336308
1.296410723
1.299987946
1.303518947
1.307502356
1.31162164
1.315831415
1.319969072
1.323822037
1.327183903
1.329792629
1.331405819
1.331807251
1.33083425
1.328383568
1.324421477
1.318995398
1.312231459
1.304290535
1.29537058
1.285720932
1.275591195
1.265193803
1.25476503
1.244510789
1.234618411
1.225240129
1.216504765
1.208505639
1.201307756
1.194943046
1.189415406
1.18470117
1.180754441
1.177510999
1.174894385
1.172821232
1.17120692
1.169970121
1.16903643
1.168340634
1.167827732
1.167452898
1.167180644
1.166983647
1.166841306
1.166738378
1.166663742
1.16660937
1.166569527
1.166540119
1.166518235
1.166501822
1.166489124
1.166479386
1.166472343
1.166463283
1.166454002
1.166464683
1.303139026
1.31447722
1.317010174
1.320324049
1.323587417
1.32714781
1.330755142
1.334300986
1.337631625
1.340521362
1.342767874
1.344132004
1.344399241
1.343394361
1.341001791
1.337165152
1.331890536
1.325257529
1.317412279
1.308520591
1.298785385
1.288449074
1.277750167
1.26688602
1.256082579
1.245530746
1.235406236
1.225849323
1.216978974
1.208879411
1.201608003
1.195190005
1.1896238
1.184881174
1.180912699
1.177651527
1.17501942
1.172931943
1.171303975
1.170054077
1.169107971
1.168400655
1.167877334
1.167493322
1.167213182
1.167009564
1.166861778
1.166754451
1.166676314
1.166619193
1.166577213
1.16654616
1.166523027
1.166505654
1.166492226
1.166482084
1.166474582
1.166464996
1.166456787
1.166466355
1.325327667
1.334734773
1.336904131
1.339879024
1.342787004
1.345829948
1.348825614
1.351614851
1.354054678
1.355922227
1.357019978
1.357138431
1.356094138
1.353750195
1.350032669
1.344924194
1.33846173
1.330748375
1.321942673
1.312210809
1.301757975
1.290818895
1.279620656
1.268347029
1.257215333
1.246403131
1.236076025
1.226363883
1.217377022
1.209191634
1.201858279
1.195396211
1.189798816
1.185033747
1.181048357
1.177773419
1.175129101
1.173030041
1.17139072
1.170129664
1.169172771
1.168455299
1.167922687
1.167530419
1.16724314
1.167033497
1.166880735
1.166769374
1.166688019
1.166628364
1.166584413
1.16655184
1.166527554
1.166509288
1.166495197
1.166484701
1.166476725
1.166466713
1.166459598
1.166467983
1.346580324
1.354069781
1.355915755
1.358447994
1.360909389
1.363356563
1.36566657
1.36763994
1.369146995
1.369972489
1.369929518
1.36883999
1.36655055
1.362958489
1.358024993
1.351764358
1.344237047
1.335562856
1.325907188
1.315433859
1.304349318
1.292880487
1.281243089
1.269609134
1.258188977
1.247148277
1.236643863
1.226796557
1.217709038
1.209450389
1.202065046
1.195566845
1.189944613
1.185162223
1.181164082
1.177878797
1.175225106
1.173116843
1.171468178
1.170197668
1.169231431
1.168505014
1.167964125
1.167564435
1.167270694
1.167055571
1.166898265
1.166783209
1.166698897
1.166636912
1.166591143
1.16655717
1.166531819
1.166512724
1.166498037
1.16648723
1.166478764
1.166468445
1.16646241
1.166469562
1.366432264
1.37219118
1.373761042
1.375810062
1.377776087
1.379584244
1.38116924
1.382304012
1.382873617
1.382674152
1.381533004
1.37930097
1.375853931
1.371117903
1.365082774
1.357788368
1.349312709
1.339787376
1.329380783
1.318253269
1.306612006
1.294676552
1.282651624
1.270699851
1.259025365
1.247783523
1.23712353
1.227158325
1.217983806
1.209662727
1.202233986
1.195706491
1.190064889
1.185269581
1.181262266
1.177969572
1.175308953
1.173193543
1.171537281
1.170258807
1.169284498
1.168550216
1.168001957
1.167595597
1.167296012
1.167075906
1.166914452
1.166796013
1.166708989
1.166644861
1.166597419
1.166562158
1.166535826
1.166515963
1.166500748
1.166489661
1.166480695
1.166470204
1.166465195
1.166471086
1.384859718
1.38906745
1.390325827
1.391840558
1.393270704
1.394420723
1.395272509
1.395580467
1.395241662
1.394064436
1.391893644
1.388604358
1.384099519
1.378329348
1.371306572
1.363091647
1.353775475
1.343498074
1.332428449
1.32072369
1.308590929
1.296243311
1.283875361
1.271642744
1.259743232
1.24832383
1.237526999
1.227458799
1.21820907
1.209834911
1.202370173
1.19581927
1.190162987
1.185358526
1.181345087
1.178047491
1.17538203
1.173261238
1.171598888
1.170313747
1.169332483
1.168591292
1.168036473
1.167624121
1.16731925
1.167094616
1.166929379
1.166807844
1.166718334
1.166652238
1.166603259
1.166566815
1.166539579
1.166519009
1.166503332
1.166491985
1.166482518
1.166471997
1.16646789
1.166472586
1.401502734
1.404448907
1.405411863
1.406404161
1.407306802
1.407821764
1.40796741
1.407490135
1.406297803
1.404213025
1.401095774
1.396845099
1.391386796
1.384691889
1.376791002
1.367760931
1.35770233
1.346761295
1.335106478
1.322891814
1.31032427
1.297611726
1.284939553
1.272457863
1.260358682
1.248782141
1.237864711
1.227706434
1.218391704
1.209972544
1.202478189
1.195908923
1.19024196
1.185431543
1.181414558
1.178114172
1.175445631
1.173320954
1.171653804
1.170363117
1.169375871
1.168628613
1.168067953
1.167650216
1.167340564
1.167111813
1.166943125
1.16681876
1.166726972
1.16665907
1.166608681
1.166571152
1.166543084
1.166521865
1.16650579
1.166494193
1.166484239
1.166473812
1.166470447
1.166474129
1.416309819
1.41829166
1.418974757
1.419481091
1.419882762
1.419805892
1.419292007
1.418089214
1.416114397
1.41320443
1.409232946
1.404120929
1.397813428
1.390299123
1.381622654
1.371873874
1.361161085
1.349635295
1.337464105
1.324797773
1.311844943
1.298808966
1.285866632
1.273162517
1.260885826
1.24916991
1.238145987
1.227908842
1.218537947
1.210080755
1.202562246
1.195978912
1.190304645
1.185490945
1.181472558
1.178171132
1.175500971
1.173373656
1.171702792
1.170407512
1.169415123
1.168662531
1.168096666
1.167674084
1.167360102
1.167127609
1.166955772
1.166828819
1.166734944
1.166665387
1.166613704
1.166575181
1.166546347
1.166524536
1.166508125
1.166496276
1.16648586
1.16647562
1.166472928
1.166475727
1.429315898
1.430627449
1.431042942
1.431109512
1.431044595
1.43042877
1.429314838
1.427457404
1.424780056
1.421132045
1.416402507
1.410528089
1.403471952
1.39523709
1.385879492
1.37549907
1.364211118
1.352170839
1.339543755
1.326476096
1.313181511
1.299858682
1.286675708
1.273771947
1.261337188
1.249497408
1.238379263
1.22807298
1.218653548
1.210164298
1.202626279
1.196032484
1.190353712
1.185538919
1.181520866
1.17821981
1.175549208
1.173420267
1.17174658
1.170447502
1.169450682
1.16869339
1.168122872
1.167695922
1.167378014
1.167142112
1.1669674
1.166838079
1.166742292