/*--------------------------------*- C++ -*----------------------------------*\
  =========                 |
  \\      /  F ield         | OpenFOAM: The Open Source CFD Toolbox
   \\    /   O peration     | Website:  https://openfoam.org
    \\  /    A nd           | Version:  12
     \\/     M anipulation  |
\*---------------------------------------------------------------------------*/
FoamFile
{
    format      ascii;
    class       volVectorField;
    location    "500";
    object      U;
}
// * * * * * * * * * * * * * * * * * * * * * * * * * * * * * * * * * * * * * //

dimensions      [0 1 -1 0 0 0 0];

internalField   nonuniform List<vector> 
16200
(
(182.6782537 -7.326585551e-17 -1.490439844)
(217.7609911 3.540517124e-17 -1.413721708)
(237.4688474 -2.460678566e-20 -1.585921624)
(252.9520505 0 -1.755101224)
(267.2696963 0 -1.940152692)
(282.0912201 -2.523000293e-17 -2.163471552)
(297.6082223 2.88426447e-17 -2.473344757)
(310.2110859 6.233337275e-17 -2.850076182)
(314.0986246 -1.21544755e-16 -2.98836448)
(314.111424 1.089349645e-16 -2.970146928)
(313.7894652 -4.644010012e-17 -3.033475767)
(313.4850935 0 -3.018213393)
(313.1103038 0 -3.090585932)
(312.6982031 -5.406138934e-17 -3.102301737)
(312.2136775 4.513154887e-17 -3.173945733)
(311.6600162 0 -3.219510275)
(311.0155943 0 -3.300847203)
(310.2695255 8.27387822e-19 -3.381255741)
(309.4017835 4.479597614e-17 -3.48654852)
(308.3932675 -3.637841387e-17 -3.605175955)
(307.2205544 0 -3.746698534)
(305.8582599 -2.512427855e-17 -3.908596084)
(304.2783749 2.248603579e-17 -4.09323547)
(302.4512876 3.826938666e-17 -4.298156208)
(300.3472181 -3.215158211e-17 -4.519210372)
(297.9388278 -2.749444187e-17 -4.747205703)
(295.2052399 2.311929076e-17 -4.967235266)
(292.137943 0 -5.157021028)
(288.7486171 0 -5.286795668)
(285.0777239 5.778861384e-17 -5.321534521)
(281.20069 -3.642489725e-17 -5.227435407)
(277.2268554 -1.04785649e-17 -4.982172422)
(273.2881268 0 -4.585178193)
(269.5192436 -4.613086641e-17 -4.062179678)
(266.0368619 5.179988188e-17 -3.460541335)
(262.9246955 -8.911187804e-17 -2.837204521)
(260.2284038 7.513060001e-17 -2.244731095)
(257.958276 0 -1.721088043)
(256.0965527 0 -1.285830055)
(254.6060028 0 -0.9420364875)
(253.4382177 7.76064583e-17 -0.6814688328)
(252.5407535 -1.310994297e-16 -0.4901688332)
(251.8624258 1.103119565e-16 -0.3528894369)
(251.3569218 0 -0.2557439436)
(250.9845364 1.568206521e-16 -0.1873968365)
(250.7127618 -1.319467556e-16 -0.1392360382)
(250.5158304 -4.389859382e-20 -0.1050304002)
(250.3739139 1.871441679e-16 -0.08042463869)
(250.2720427 -3.153417243e-16 -0.06243792049)
(250.1991248 2.65604508e-16 -0.04905027992)
(250.1470202 2.239073025e-16 -0.03889626557)
(250.109806 3.777526851e-16 -0.03104850442)
(250.0832027 -3.188388711e-16 -0.0248686218)
(250.0640674 8.082313776e-16 -0.01991810638)
(250.0502058 -4.557912032e-16 -0.01589766162)
(250.0396853 0 -0.01259420521)
(250.0318803 1.638506771e-16 -0.009818841016)
(250.0249508 0 -0.007574853522)
(250.020042 -4.753417603e-16 -0.004669752208)
(250.012769 -3.971148223e-19 -0.005558704292)
(186.4151773 -1.547948582e-16 -4.124859946)
(222.4949743 1.515038455e-16 -4.374064332)
(242.7326289 -5.478963529e-17 -4.862528074)
(258.6436009 -4.907969242e-17 -5.245659467)
(273.4591905 5.054890634e-17 -5.630523703)
(288.8853054 0 -6.066286967)
(304.5209061 0 -6.61703966)
(314.892513 6.71884227e-17 -7.056511665)
(316.9884135 -6.291627681e-17 -7.15450901)
(316.8483199 0 -7.123235829)
(316.5065334 0 -7.199802035)
(316.1806311 0 -7.17461568)
(315.7790454 -6.700964883e-17 -7.252258639)
(315.3358677 5.592636244e-17 -7.257991479)
(314.8126259 -1.435172663e-18 -7.328918546)
(314.2124752 -1.202851306e-18 -7.369137927)
(313.5116934 0 -7.44474521)
(312.6978029 -2.551137154e-18 -7.516481835)
(311.7486633 0 -7.609983404)
(310.6428509 1.191526104e-18 -7.712890496)
(309.3544745 4.04963929e-18 -7.833395413)
(307.8555392 -2.922703132e-17 -7.967748957)
(306.1155876 -1.763106543e-17 -8.116095909)
(304.1029313 3.905441297e-17 -8.273355336)
(301.7865509 0 -8.431717963)
(299.13942 7.041339533e-18 -8.577423962)
(296.1437019 -1.197780083e-17 -8.689783313)
(292.7982967 0 -8.739671708)
(289.1283045 -3.502435079e-17 -8.69016977)
(285.1938979 1.462257296e-17 -8.500823725)
(281.0937643 -3.81225928e-17 -8.137121693)
(276.9579071 1.084817015e-17 -7.583213642)
(272.9291799 -3.71536391e-17 -6.852244007)
(269.1395639 -1.582591432e-17 -5.988000582)
(265.6907098 0 -5.055960844)
(262.644866 4.615281678e-17 -4.127649643)
(260.0264695 -3.890455148e-17 -3.265108197)
(257.8296001 0 -2.510827034)
(256.0272423 1.123708918e-16 -1.884918825)
(254.579072 -9.502110934e-17 -1.388191401)
(253.4379748 8.026168986e-17 -1.008291846)
(252.5548136 2.708835545e-16 -0.7261906923)
(251.8822738 -1.139732865e-16 -0.5213291615)
(251.3773411 0 -0.3748222497)
(251.0028165 4.854795014e-16 -0.2709698361)
(250.7278093 -5.445555526e-16 -0.1975751093)
(250.5275186 -3.436352211e-16 -0.1455953271)
(250.3825825 3.85476645e-16 -0.1085479304)
(250.2782231 0 -0.08188855201)
(250.2033615 -2.7281407e-16 -0.06247082567)
(250.1498013 2.295483848e-16 -0.04813093286)
(250.1115412 5.796467996e-16 -0.03738032552)
(250.0842053 3.253790293e-16 -0.02918908672)
(250.0646062 -2.740728374e-16 -0.02284083003)
(250.0504142 9.239891275e-16 -0.01785590497)
(250.039787 -7.793058217e-16 -0.01387086223)
(250.0317774 -4.933753364e-16 -0.01064509028)
(250.0249228 5.558564392e-16 -0.008110998568)
(250.0199124 1.058114313e-15 -0.004904834991)
(250.0122611 9.803911172e-17 -0.005689267845)
(190.0177233 -1.600119691e-19 -6.839516619)
(227.0901338 1.626887684e-16 -7.585135337)
(247.8609271 -2.377441457e-16 -8.375222224)
(264.2280843 1.079570226e-16 -8.998897541)
(279.5882326 1.131186884e-16 -9.615758737)
(295.5490058 -2.552763129e-16 -10.30147879)
(310.8636671 2.832325218e-16 -11.1055273)
(318.4821982 3.685735475e-19 -11.52161146)
(319.2931164 -2.656032105e-16 -11.59977657)
(319.0419163 1.158200552e-16 -11.55073103)
(318.6804957 0 -11.63567517)
(318.3286322 7.948216266e-17 -11.59546993)
(317.8923436 -6.627406085e-17 -11.67268293)
(317.4092807 -2.639001074e-18 -11.66775631)
(316.8376698 4.872119803e-17 -11.73157597)
(316.1803214 3.806081734e-18 -11.76123203)
(315.4114738 -3.316289025e-17 -11.82510062)
(314.5168962 1.750788914e-18 -11.88303636)
(313.4723024 -4.70599914e-17 -11.95961431)
(312.2538313 3.698052068e-17 -12.04212111)
(310.8330418 -2.103019306e-20 -12.1367366)
(309.1792265 -2.12297186e-17 -12.23806778)
(307.2593507 1.775764889e-17 -12.3432919)
(305.0395665 0 -12.44393302)
(302.4878336 -4.293016703e-17 -12.52748024)
(299.5784976 7.087886579e-18 -12.5741311)
(296.2993239 3.725849573e-17 -12.55549976)
(292.6611358 2.15048791e-17 -12.43376233)
(288.7085672 1.854806313e-17 -12.16420754)
(284.5276031 -1.501534203e-17 -11.70291769)
(280.2436895 1.792068534e-19 -11.01988506)
(276.0062874 -4.510581007e-17 -10.11311838)
(271.9633526 3.839588647e-17 -9.016369515)
(268.2359322 -9.875052403e-17 -7.795239998)
(264.9031055 2.78056348e-17 -6.532877902)
(262.0005227 0 -5.311651432)
(259.5287884 -8.092986038e-17 -4.197907902)
(257.465022 -6.870459205e-17 -3.233800436)
(255.7729616 -1.737344265e-20 -2.436487428)
(254.4096782 4.913900115e-17 -1.802606851)
(253.3298903 -8.269988411e-17 -1.315160264)
(252.4886012 -6.980185572e-17 -0.9503935056)
(251.8432451 2.352973423e-16 -0.6831870269)
(251.3551453 2.973026953e-16 -0.4904749801)
(250.9905889 -1.666371095e-16 -0.352897788)
(250.7212247 2.804014471e-16 -0.2552020511)
(250.5239875 5.892266528e-16 -0.1858936526)
(250.3806228 -3.961833518e-16 -0.1365895313)
(250.2770318 6.657986221e-16 -0.1013146911)
(250.2025252 -2.796989507e-16 -0.07586990456)
(250.1491243 -4.699221897e-16 -0.05732917996)
(250.110942 1.973399581e-16 -0.04366028547)
(250.0836571 -6.630695629e-16 -0.03344727049)
(250.0641193 0 -0.02570081734)
(250.0499789 -1.871170351e-15 -0.01975359624)
(250.0394649 7.858400854e-16 -0.01509827802)
(250.0314717 3.300422633e-16 -0.01142922266)
(250.0247673 -1.386142384e-16 -0.00860871501)
(250.0198545 -9.315492331e-16 -0.005095690789)
(250.0122668 0 -0.005811586606)
(193.3246913 -3.462443164e-16 -9.67012931)
(231.2955457 -1.705053662e-19 -11.01431215)
(252.56294 0 -12.10108372)
(269.4373438 1.164943822e-19 -12.98804592)
(285.4290651 -1.271617774e-16 -13.86397075)
(301.7869045 1.43372669e-16 -14.82523132)
(315.8949807 -3.025279589e-19 -15.81149362)
(320.8043591 -6.010927257e-19 -16.11288326)
(320.9325486 1.07346096e-18 -16.1859611)
(320.6499957 1.169511019e-16 -16.11633982)
(320.2645516 -9.861398785e-17 -16.21106198)
(319.883306 1.290863532e-18 -16.15742768)
(319.4092228 -6.887256792e-17 -16.23451672)
(318.8822439 5.933579101e-17 -16.22092299)
(318.2573802 4.831411527e-17 -16.27833992)
(317.5367009 -4.296542767e-17 -16.2989582)
(316.6923604 -4.242244319e-18 -16.35158172)
(315.7081013 0 -16.39581063)
(314.5573735 0 -16.45415896)
(313.2136898 0 -16.51341895)
(311.6458766 -3.863668613e-17 -16.57730738)
(309.8203005 1.435295512e-17 -16.63860493)
(307.7012518 3.683445452e-17 -16.69122368)
(305.253111 -2.065460181e-17 -16.72260766)
(302.4442507 2.64576075e-17 -16.71426125)
(299.2534311 1.498658979e-17 -16.63857132)
(295.6789438 -2.570905793e-17 -16.45781952)
(291.7500101 2.163345641e-17 -16.1249618)
(287.5374586 -1.859829239e-17 -15.58931552)
(283.1573161 -2.8528169e-19 -14.80841452)
(278.7607405 2.70411714e-17 -13.76401223)
(274.5095208 4.652814985e-17 -12.47507865)
(270.5459148 0 -11.00007527)
(266.9696744 6.78407862e-17 -9.426198334)
(263.8305415 0 -7.850516424)
(261.1350991 0 -6.360936991)
(258.8608449 2.088116624e-16 -5.023067393)
(256.9701028 3.526576821e-17 -3.87495625)
(255.4196968 2.396032372e-16 -2.928567163)
(254.1659701 5.063882123e-17 -2.175446803)
(253.1668165 5.549304413e-16 -1.593972202)
(252.3823659 -2.158473413e-16 -1.156228)
(251.7755744 -1.212213641e-16 -0.8333212711)
(251.3127893 -9.176262646e-16 -0.5987933485)
(250.9643844 -1.57118122e-19 -0.4303025352)
(250.7050836 7.2035038e-16 -0.3100613876)
(250.5140022 6.05184733e-16 -0.2244997873)
(250.3743549 -1.117829503e-15 -0.1635896789)
(250.2729958 -5.117738095e-16 -0.1200907208)
(250.1998319 2.862646857e-16 -0.08885462947)
(250.1472509 -1.200372745e-15 -0.06625652026)
(250.1095824 0 -0.04975826773)
(250.0826357 1.349474155e-15 -0.03757998413)
(250.0633391 1.130416824e-15 -0.0284735267)
(250.0493734 9.464273226e-16 -0.0215891971)
(250.0390314 0 -0.01628339319)
(250.031113 6.621715267e-16 -0.01218072094)
(250.0245542 6.915474552e-17 -0.009089255297)
(250.0197343 -2.078030726e-15 -0.005290748186)
(250.0121059 3.174844395e-15 -0.005929379725)
(196.3640059 -7.334152631e-16 -12.66714442)
(235.2003381 3.753562682e-16 -14.63322832)
(256.9434278 -1.412782762e-16 -16.03751508)
(274.3354178 -6.203290654e-22 -17.2118417)
(290.9997721 0 -18.37543789)
(307.6187066 3.143482162e-19 -19.6357162)
(319.2612686 3.03158637e-21 -20.66713204)
(322.1589645 0 -20.8311792)
(321.996416 -2.22633564e-18 -20.91837206)
(321.6929885 -1.19694791e-16 -20.82841183)
(321.2767196 1.005834541e-16 -20.93189248)
(320.8605075 0 -20.86531528)
(320.3422742 -7.255273175e-17 -20.94039728)
(319.7638869 -1.9695986e-18 -20.91770679)
(319.0773772 4.620720874e-17 -20.96600952)
(318.2836495 -8.298837977e-17 -20.97509615)
(317.3527658 7.38644418e-17 -21.01232667)
(316.2660688 3.659710905e-18 -21.03805297)
(314.9944365 0 -21.07220646)
(313.5082771 4.174915046e-17 -21.10141626)
(311.7732501 -4.38236279e-17 -21.12676134)
(309.7526164 3.728881983e-17 -21.13871943)
(307.4084895 -3.766119815e-17 -21.12673739)
(304.7051233 0 -21.0722619)
(301.6144354 -1.814982143e-17 -20.94860892)
(298.1243712 0 -20.71849935)
(294.2500547 2.658046989e-17 -20.33414776)
(290.0461611 -2.237016894e-17 -19.74057125)
(285.6153757 0 -18.88540156)
(281.1048221 0 -17.73497244)
(276.6856552 0 -16.291219)
(272.5207352 0 -14.60023853)
(268.7341173 0 -12.74675499)
(265.394902 1.058295003e-16 -10.8365661)
(262.5192831 -1.496960711e-16 -8.975068469)
(260.0850212 1.018047539e-16 -7.249778072)
(258.049268 -1.721075622e-16 -5.720757601)
(256.3628896 -1.825574332e-16 -4.418768064)
(254.9786331 -9.220966457e-17 -3.348896647)
(253.8540423 -1.560318999e-16 -2.497059598)
(252.9513588 -5.70452069e-16 -1.837232922)
(252.2365159 -2.95797033e-16 -1.337990481)
(251.6784435 4.359253076e-16 -0.9674888786)
(251.2488888 8.377027973e-16 -0.6966926041)
(250.9226704 -7.040605031e-16 -0.5009881088)
(250.6779387 -7.3909882e-16 -0.3606192049)
(250.4963111 -8.685217148e-16 -0.2603600357)
(250.362756 1.040850882e-15 -0.1888349551)
(250.2653137 1.221784045e-15 -0.1377400212)
(250.1946742 -1.462602684e-16 -0.1011105573)
(250.1437323 1.347239915e-15 -0.07470818119)
(250.1071398 -1.84498303e-15 -0.05554273878)
(250.0809132 -2.914368261e-15 -0.04150427961)
(250.0621107 -1.002693729e-15 -0.03110745549)
(250.0484924 0 -0.02333216519)
(250.0384224 1.595125128e-15 -0.01740859455)
(250.0306648 -4.980886488e-16 -0.0128909915)
(250.0242757 -2.070573021e-16 -0.009542362174)
(250.0195965 1.832985441e-15 -0.005477779078)
(250.0119803 -3.034124136e-15 -0.006042369213)
(199.0900417 1.892847233e-19 -15.81548823)
(238.7674274 0 -18.43549081)
(260.9745891 1.507987692e-19 -20.1760895)
(278.8937283 -1.451062472e-19 -21.66270239)
(296.1968711 -3.140491698e-19 -23.14223088)
(312.7478922 0 -24.69589778)
(321.4405239 7.077357342e-19 -25.62998094)
(322.8273337 -1.313160272e-18 -25.67208965)
(322.4812005 1.143097618e-18 -25.77268173)
(322.1581337 -9.623614392e-19 -25.66115995)
(321.7057282 0 -25.77017437)
(321.2496697 8.586639172e-17 -25.68934459)
(320.6818834 -7.171340362e-17 -25.75782951)
(320.0452793 6.211403903e-17 -25.72350629)
(319.2891036 -5.038925585e-17 -25.75828408)
(318.4124014 5.299559434e-18 -25.75234252)
(317.3829032 0 -25.76998912)
(316.1789561 -6.392172384e-17 -25.77318456)
(314.7684651 5.04524494e-17 -25.77857982)
(313.1184606 -1.069243325e-17 -25.77214992)
(311.1916344 9.021924468e-18 -25.75111303)
(308.9490837 0 -25.70195834)
(306.3526735 0 -25.6077577)
(303.3695727 0 -25.44216723)
(299.9794658 0 -25.16903729)
(296.1850531 -6.429172232e-17 -24.74090507)
(292.0251285 -3.597696221e-19 -24.10084244)
(287.586466 -2.342325666e-17 -23.18947922)
(283.0066566 2.453889505e-19 -21.95970163)
(278.4599883 1.696217744e-17 -20.39574476)
(274.1264892 -2.945379274e-17 -18.52758981)
(270.1556555 1.253161963e-16 -16.43167287)
(266.641071 -8.566149176e-17 -14.21665752)
(263.614592 -7.247482684e-17 -12.00093635)
(261.0581428 1.232401611e-16 -9.891338769)
(258.9238029 -1.045953467e-16 -7.969250244)
(257.1529673 0 -6.285371141)
(255.6893216 -1.881825446e-16 -4.8611305)
(254.484723 -2.856640854e-16 -3.693978408)
(253.4998819 1.069585653e-16 -2.764249276)
(252.7024253 9.838214528e-20 -2.042030864)
(252.064541 2.65711798e-16 -1.493126438)
(251.5613147 -5.108991673e-16 -1.083551545)
(251.1699879 4.296786353e-16 -0.7824629313)
(250.8699241 1.443063132e-15 -0.5636427145)
(250.6428274 1.514333479e-16 -0.4059048841)
(250.4729634 -1.269503293e-16 -0.2927788653)
(250.3472025 0 -0.211841084)
(250.2549071 -1.60464253e-15 -0.1539344133)
(250.1876665 1.492045033e-16 -0.1124212415)
(250.1389761 2.246159282e-15 -0.08254551496)
(250.1038825 3.1276318e-15 -0.06092784604)
(250.0786642 4.1764447e-15 -0.04516925406)
(250.0605474 0 -0.03357384516)
(250.0474049 0 -0.02496773134)
(250.037683 -1.605613167e-15 -0.01846700135)
(250.0301463 1.664868349e-16 -0.01355845634)
(250.0239433 -2.756070935e-16 -0.009969253099)
(250.0194251 -1.820456294e-15 -0.005659029767)
(250.0118127 -5.849473187e-18 -0.006151931322)
(201.4489119 -2.008901089e-19 -19.1034644)
(241.9659835 2.177598371e-16 -22.4062745)
(264.6483001 -3.393488067e-16 -24.50863171)
(283.1528439 1.652770735e-16 -26.33741368)
(301.0299998 3.526661627e-19 -28.16951769)
(316.6654651 1.928446231e-16 -29.9296368)
(322.5051629 -1.912705704e-16 -30.6619614)
(323.0023589 1.360958606e-18 -30.60394372)
(322.3880691 -1.483258732e-16 -30.71055952)
(322.0400972 1.252184512e-16 -30.5745206)
(321.5464312 -1.636279656e-18 -30.68626453)
(321.043799 0 -30.59273796)
(320.4187181 -1.091381411e-21 -30.6530001)
(319.7141029 -3.845499683e-18 -30.6077945)
(318.8766655 3.225374957e-18 -30.62802413)
(317.9029306 3.260888816e-17 -30.60660411)
(316.7582648 -3.641571886e-17 -30.60292976)
(315.4178251 0 -30.58063967)
(313.8467499 6.501913697e-18 -30.55187804)
(312.0092179 -3.305806431e-17 -30.50083115)
(309.8659587 3.693378733e-17 -30.41945928)
(307.377451 1.57787585e-17 -30.28886067)
(304.5075285 0 -30.08465156)
(301.229484 -2.281511398e-17 -29.77191503)
(297.5354676 0 -29.30459921)
(293.4494178 -3.293953193e-19 -28.62528593)
(289.0411475 2.812195831e-17 -27.67020958)
(284.4346577 4.813007463e-17 -26.3816499)
(279.8010316 -4.121094697e-17 -24.72715763)
(275.3318174 0 -22.71833739)
(271.200517 0 -20.41853185)
(267.5283998 8.695790439e-19 -17.93355036)
(264.3692445 -6.286642088e-19 -15.38997771)
(261.7152834 3.761066504e-17 -12.91091146)
(259.5170341 -1.592913303e-16 -10.59766107)
(257.7062021 -2.701991002e-17 -8.520762554)
(256.213887 2.055373826e-16 -6.719055614)
(254.9809593 -2.70849962e-16 -5.203735639)
(253.9613079 2.602619533e-16 -3.964646958)
(253.1204392 2.753148886e-17 -2.977040887)
(252.4320828 -9.244426034e-17 -2.207820004)
(251.8748547 3.887063629e-17 -1.620786112)
(251.4299329 6.545653539e-17 -1.180571594)
(251.0799309 -9.342731078e-16 -0.8552197922)
(250.8086697 -7.382093221e-16 -0.6175079217)
(250.6013786 0 -0.4453100955)
(250.4449936 1.03813497e-15 -0.3212924055)
(250.3283413 0 -0.2322684538)
(250.2421744 0 -0.1684337746)
(250.1790504 0 -0.122622229)
(250.1331258 -4.189828165e-15 -0.08965937215)
(250.0998941 -1.588577687e-15 -0.06584353501)
(250.0759353 -2.823082908e-15 -0.04853165736)
(250.0586748 -2.494861234e-15 -0.03584713586)
(250.0461229 -1.827721719e-15 -0.02648180936)
(250.03682 0 -0.01945134748)
(250.0295587 0 -0.0141805575)
(250.0235607 1.376021398e-16 -0.0103680147)
(250.0192276 1.809382943e-15 -0.005833643244)
(250.0116292 -1.156407272e-17 -0.006257981437)
(203.3574167 2.130644036e-19 -22.55124025)
(244.7353262 0 -26.52325917)
(267.9462962 1.821124006e-19 -29.0358953)
(287.120298 -4.523623371e-22 -31.24170862)
(305.4633128 -2.003751754e-16 -33.46870386)
(318.9543975 2.095856461e-16 -35.24360271)
(322.6359027 0 -35.72548739)
(322.1516854 0 -35.59010377)
(321.7028554 1.515090746e-16 -35.71369053)
(321.3219782 2.042532493e-19 -35.55970244)
(320.7795234 -1.065988524e-16 -35.67305323)
(320.2211105 0 -35.56918367)
(319.5286803 2.337668014e-18 -35.6196475)
(318.7441275 6.684267985e-17 -35.56347106)
(317.8121291 -5.598724326e-17 -35.56628092)
(316.7262703 5.542376138e-18 -35.52556053)
(315.4498058 -4.687193145e-18 -35.49405831)
(313.9548219 7.907605324e-18 -35.43692502)
(312.2041177 -5.339501971e-17 -35.36093267)
(310.1596262 -3.735529112e-19 -35.24778747)
(307.7810163 8.584807923e-17 -35.08354791)
(305.0295635 -4.830218303e-17 -34.84301678)
(301.8734616 0 -34.49328227)
(298.296239 -2.601028416e-19 -33.98967632)
(294.3089543 1.983029695e-17 -33.27572709)
(289.9649125 3.398917555e-17 -32.28546194)
(285.3717715 0 -30.95326418)
(280.6917765 0 -29.23223701)
(276.1215363 -2.15909776e-17 -27.11544563)
(271.8542596 1.820035011e-17 -24.64945211)
(268.0397232 0 -21.93182887)
(264.7586041 -1.333079187e-16 -19.09224877)
(262.0202446 1.360922229e-16 -16.26650128)
(259.7793272 -1.923265174e-17 -13.57403402)
(257.9607044 -6.089947276e-19 -11.10471599)
(256.4822328 -2.220801306e-16 -8.915069939)
(255.2702752 -4.451107272e-16 -7.031001209)
(254.2668425 4.142171807e-16 -5.453605567)
(253.4302553 -3.331023872e-17 -4.165786876)
(252.7319999 0 -3.138530203)
(252.1522903 -4.735777169e-17 -2.336359703)
(251.6760984 -5.97354779e-16 -1.72182291)
(251.2904369 0 -1.258845119)
(250.9830065 0 -0.9149538313)
(250.7418569 -7.543013995e-16 -0.6624335577)
(250.5555918 0 -0.4786411718)
(250.4137395 -9.266950962e-16 -0.3457144752)
(250.3070567 1.661920507e-15 -0.2499603603)
(250.2276936 -9.262522816e-17 -0.1811165428)
(250.1691987 -2.397674933e-15 -0.1316246823)
(250.126419 2.193250314e-15 -0.0959879774)
(250.0953232 -3.546066479e-15 -0.07024883366)
(250.0728179 0 -0.05156563142)
(250.0565479 2.373441168e-15 -0.03791188007)
(250.0446779 5.897785755e-15 -0.02786586422)
(250.0358518 0 -0.02035727635)
(250.0289097 1.673179677e-16 -0.01475607776)
(250.0231332 -1.374308181e-16 -0.01073809613)
(250.0190028 1.799631323e-15 -0.006001650165)
(250.0114206 5.871405528e-15 -0.006360778086)
(204.7477637 -9.25772514e-16 -26.11698821)
(247.012145 2.5462231e-16 -30.77655388)
(270.8630251 -2.006494943e-19 -33.74858695)
(290.7470996 4.016846048e-19 -36.37070169)
(309.204956 4.275359751e-19 -38.99844505)
(319.8817295 -2.214838767e-16 -40.54552019)
(321.1751705 2.06778488e-16 -40.81221022)
(320.9380041 0 -40.64078789)
(320.4144063 1.544558799e-16 -40.79370048)
(319.9916043 2.329832971e-19 -40.61798799)
(319.3945042 -1.070285786e-16 -40.72638727)
(318.7727212 0 -40.60947807)
(318.0048224 2.397208552e-18 -40.64327628)
(317.130596 0 -40.57063431)
(316.0932357 -1.888590921e-20 -40.54797494)
(314.8829716 0 -40.47874412)
(313.4610847 -3.845175127e-17 -40.40767243)
(311.7965347 -1.597194274e-19 -40.30112492)
(309.8499274 2.04073233e-17 -40.15988355)
(307.5814079 4.646996667e-17 -39.96242503)
(304.9507822 -4.878133942e-17 -39.6880849)
(301.9225955 -1.676590846e-17 -39.30402705)
(298.4736256 -2.854572607e-17 -38.76721749)
(294.603985 2.399705099e-17 -38.02184722)
(290.3518889 2.081648156e-17 -37.00152502)
(285.8080685 1.811279272e-17 -35.63613109)
(281.1212599 0 -33.86712329)
(276.4860618 -5.224895458e-17 -31.66986255)
(272.1097144 8.939496709e-17 -29.07253571)
(268.1682849 5.728193439e-17 -26.15984176)
(264.7723503 1.462659132e-16 -23.05914938)
(261.9545958 1.107380397e-16 -19.91484614)
(259.6806318 0 -16.86219908)
(257.873395 0 -14.00962)
(256.4395105 1.005130375e-16 -11.43140095)
(255.2896939 2.553710398e-16 -9.16860377)
(254.3505522 1.917693966e-16 -7.234389542)
(253.5684182 3.236599019e-16 -5.620668208)
(252.9077621 5.465607012e-16 -4.304474565)
(252.3467431 4.601809977e-16 -3.253503691)
(251.872116 -4.839869661e-17 -2.430719672)
(251.4749308 6.911320228e-16 -1.798095522)
(251.1476369 -1.093357837e-15 -1.319424567)
(250.8826299 -5.73557876e-17 -0.9622112546)
(250.6718691 8.173390448e-16 -0.6986673179)
(250.5071034 -8.058648209e-17 -0.5059823777)
(250.3803071 6.742861354e-17 -0.3660484477)
(250.2840853 -3.609272121e-15 -0.2648864507)
(250.2119477 0 -0.1919434841)
(250.1584233 2.514868843e-15 -0.1393921524)
(250.1190535 -2.09508829e-15 -0.1015020387)
(250.0902929 6.97012914e-15 -0.07412230181)
(250.0693864 -1.808381485e-16 -0.05425662125)
(250.0542105 -2.247274133e-15 -0.03975888341)
(250.0430941 -3.838469909e-15 -0.02911455283)
(250.034792 -3.367819466e-15 -0.02118189779)
(250.0282048 0 -0.01528423327)
(250.022664 0 -0.01107891294)
(250.0187525 -3.582152957e-15 -0.006162861595)
(250.0111904 -5.806314834e-15 -0.006460180804)
(205.6622195 6.49604861e-20 -29.78606384)
(248.8903853 -2.768717916e-16 -35.17900271)
(273.4799768 0 -38.66160364)
(294.0344312 4.501112056e-19 -41.7494637)
(311.8281913 -9.379169963e-19 -44.6815024)
(319.7782543 0 -45.82377977)
(319.5097619 -2.134165929e-16 -45.9697475)
(319.1132658 1.851248952e-16 -45.74802123)
(318.5589249 -1.248361348e-18 -45.90358901)
(318.0875351 0 -45.708436)
(317.4291578 3.480487712e-18 -45.80691559)
(316.7354377 9.317927623e-17 -45.67573109)
(315.8829641 -2.173744584e-18 -45.68690085)
(314.9082317 2.588791892e-19 -45.59235846)
(313.7534057 -5.860042288e-17 -45.53615357)
(312.4048751 0 -45.42871844)
(310.8219286 4.888593094e-18 -45.30585089)
(308.9703362 -8.256261347e-18 -45.1345599)
(306.8088907 -2.817229653e-17 -44.90868585)
(304.2971387 1.168722311e-17 -44.60177998)
(301.3975354 2.029392869e-17 -44.18477909)
(298.0822372 1.661783583e-20 -43.61572741)
(294.343025 0 -42.84084276)
(290.2046924 2.516398568e-17 -41.7936745)
(285.7406738 3.893985071e-19 -40.40109174)
(281.0838204 -1.819503564e-17 -38.59678174)
(276.420725 0 -36.34121411)
(271.9649477 1.073677488e-16 -33.64312352)
(267.9147778 -1.142931276e-16 -30.57114761)
(264.410989 -5.847013142e-17 -27.24544053)
(261.5143559 -1.328849429e-16 -23.81413261)
(259.208238 1.51516404e-17 -20.42538108)
(257.4199056 -3.611552681e-17 -17.20494608)
(256.0487114 -3.066501817e-16 -14.24479562)
(254.9909213 -2.935683224e-16 -11.60155975)
(254.1561814 -1.895735369e-16 -9.300941812)
(253.4753453 3.688863883e-16 -7.344502014)
(252.9013406 3.522457745e-16 -5.716366895)
(252.4058247 -1.133329646e-15 -4.388967222)
(251.9738755 -4.399800552e-16 -3.327712385)
(251.59858 -2.466708666e-17 -2.494767513)
(251.2766387 -4.149707509e-17 -1.852114568)
(251.0054504 1.114250986e-15 -1.363881702)
(250.7816527 9.058448275e-16 -0.997939554)
(250.6007448 4.896319077e-17 -0.7267575202)
(250.4573451 0 -0.5276365982)
(250.3456851 -2.195853627e-15 -0.3824523186)
(250.2600985 1.834696054e-15 -0.2771228968)
(250.1953855 -9.570905691e-17 -0.2009469129)
(250.1470191 -1.007727916e-20 -0.1459350239)
(250.1112195 1.990685595e-16 -0.1062020855)
(250.0849231 -3.638734389e-15 -0.07746089975)
(250.0657147 0 -0.05660100163)
(250.0517067 2.570268151e-15 -0.04138514938)
(250.0413966 -1.247051616e-16 -0.03022580539)
(250.0336547 3.281507477e-15 -0.02192391622)
(250.0274497 -2.689037559e-15 -0.0157648288)
(250.0221554 0 -0.01139019968)
(250.018477 3.567236795e-15 -0.006317128392)
(250.0109377 5.759108171e-15 -0.006555979596)
(206.1692132 -5.225030606e-16 -33.56311261)
(250.4702559 -3.021980468e-16 -39.74223565)
(275.8762889 2.522271768e-16 -43.790275)
(297.0633702 -4.949485932e-19 -47.40042367)
(313.0089182 -2.575544135e-16 -50.3597305)
(317.4151172 4.87094106e-16 -51.00728688)
(317.1729478 -2.184905288e-16 -51.13318065)
(316.7766512 1.476931451e-18 -50.89999971)
(316.172434 -1.585299179e-16 -51.06285946)
(315.6445911 -3.038284288e-19 -50.8427048)
(314.9172014 1.094766946e-16 -50.92066702)
(314.1414114 -9.807753103e-17 -50.768678)
(313.1931664 7.961538075e-17 -50.74657434)
(312.1043821 0 -50.61969466)
(310.816529 -4.960750711e-17 -50.51745244)
(309.3118696 9.526916884e-17 -50.35775525)
(307.5480457 -2.995859071e-17 -50.16665526)
(305.4884062 3.414898193e-17 -49.91053191)
(303.0915349 -2.866318346e-17 -49.57481911)
(300.3189531 -2.473344516e-17 -49.12591392)
(297.1395019 2.0638426e-17 -48.52447298)
(293.5382962 1.784103759e-17 -47.71826599)
(289.529496 0 -46.64362605)
(285.1710446 0 -45.22707759)
(280.5774597 -4.383134417e-17 -43.39564283)
(275.922438 -3.817380526e-17 -41.09738944)
(271.4196201 0 -38.32402018)
(267.2825403 -1.109553878e-16 -35.12547694)
(263.6801509 -9.53870866e-17 -31.61008136)
(260.7040889 2.027088722e-17 -27.92517379)
(258.3613369 1.209558482e-16 -24.2279275)
(256.5902672 -1.015619354e-16 -20.65963131)
(255.2883935 -1.857317256e-16 -17.32962501)
(254.3404745 3.124267869e-16 -14.31043073)
(253.639671 2.816049235e-16 -11.64082773)
(253.0994781 2.376839062e-16 -9.332441706)
(252.6578616 -4.259543964e-16 -7.376964659)
(252.2757298 -3.166415709e-16 -5.752358631)
(251.9323648 5.687505766e-16 -4.427735447)
(251.6196487 -2.993357407e-17 -3.367154663)
(251.3365962 8.303001456e-16 -2.532641789)
(251.0850361 4.226392074e-17 -1.886661338)
(250.8667859 2.163554503e-20 -1.394037047)
(250.6822496 -9.810428587e-16 -1.023299562)
(250.5300771 -4.982754011e-17 -0.7474253321)
(250.4074608 -1.378122236e-20 -0.5440402691)
(250.3106794 4.496945889e-15 -0.3951831742)
(250.2356538 0 -0.2868168191)
(250.1783854 -9.710930106e-17 -0.2082083112)
(250.1352383 1.617131677e-16 -0.1512966914)
(250.1030816 2.083651933e-15 -0.1101100996)
(250.0793188 0 -0.08027503197)
(250.0618678 0 -0.05860322229)
(250.0490754 -1.524741738e-16 -0.04279228262)
(250.0396076 4.142536019e-15 -0.03119998102)
(250.0324521 1.030081154e-16 -0.02258320966)
(250.0266499 2.610436811e-15 -0.01619806511)
(250.0216099 -1.096767811e-15 -0.01167183782)
(250.018177 -1.777166988e-15 -0.006464198322)
(250.0106629 -5.739975257e-15 -0.006647788164)
(206.2759281 0 -37.44823464)
(251.7895996 6.424416936e-19 -44.47482523)
(278.0111144 0 -49.14660069)
(299.5740683 -2.781651219e-16 -53.29727879)
(312.9361452 7.771615837e-19 -56.02220466)
(314.9992357 5.051063878e-16 -56.25838144)
(314.3404095 -2.234754434e-16 -56.36930838)
(313.9221516 -1.925546781e-16 -56.08306191)
(313.2624444 -2.911533284e-18 -56.24653129)
(312.6696292 1.395022373e-16 -56.00244244)
(311.8645752 0 -56.05127797)
(310.9950986 1.00057903e-16 -55.87335978)
(309.9378625 -8.639808636e-17 -55.80944269)
(308.7192776 6.873047705e-17 -55.64067128)
(307.2807722 -5.034936086e-17 -55.47927246)
(305.6007358 0 -55.25002128)
(303.6361267 -1.024734542e-17 -54.9684062)
(301.3494709 -3.504939254e-17 -54.59874483)
(298.7015417 -3.117456832e-19 -54.11750575)
(295.6592378 6.273646245e-17 -53.48323547)
(292.2025009 -2.124073637e-17 -52.64571867)
(288.3355955 -1.809814753e-17 -51.54177178)
(284.1025171 1.569786136e-17 -50.09932048)
(279.6013435 -1.321191435e-17 -48.24429849)
(274.9894232 6.909876086e-17 -45.91493734)
(270.4728627 -2.005198168e-17 -43.08562995)
(266.2746486 -8.435496332e-17 -39.78855298)
(262.5870846 8.542907307e-17 -36.11700202)
(259.5326889 7.267052653e-17 -32.21206359)
(257.146796 -1.049823028e-17 -28.23616185)
(255.385246 -1.052591439e-16 -24.34346221)
(254.1499278 -1.199255498e-16 -20.65976437)
(253.3185815 1.890620174e-16 -17.27379323)
(252.769883 1.711911562e-16 -14.23791806)
(252.3998597 0 -11.57434754)
(252.1294177 0 -9.282646718)
(251.9054055 -4.09686062e-16 -7.346627546)
(251.6973369 3.447919353e-16 -5.739710324)
(251.4920852 5.981564577e-16 -4.428874002)
(251.2879613 -5.028316877e-16 -3.377638133)
(251.08938 -1.612389988e-15 -2.548425528)
(250.902731 6.6630972e-16 -1.904546663)
(250.7337114 1.189939419e-15 -1.411784825)
(250.5860204 -3.021025842e-17 -1.039541112)
(250.4610737 0 -0.7614785527)
(250.3583413 4.234196937e-17 -0.555705045)
(250.2759325 -2.299381585e-15 -0.4045586788)
(250.2112052 5.905060175e-17 -0.2941614655)
(250.1612618 -4.920263467e-17 -0.2138427176)
(250.123294 0 -0.1555439921)
(250.0947813 0 -0.1132638128)
(250.0735715 1.127140952e-16 -0.08258525866)
(250.0579033 2.981971145e-15 -0.06027398384)