/*--------------------------------*- C++ -*----------------------------------*\
  =========                 |
  \\      /  F ield         | OpenFOAM: The Open Source CFD Toolbox
   \\    /   O peration     | Website:  https://openfoam.org
    \\  /    A nd           | Version:  12
     \\/     M anipulation  |
\*---------------------------------------------------------------------------*/
FoamFile
{
    format      ascii;
    class       volScalarField;
    location    "0.129";
    object      k;
}
// * * * * * * * * * * * * * * * * * * * * * * * * * * * * * * * * * * * * * //

dimensions      [0 2 -2 0 0 0 0];

internalField   nonuniform List<scalar> 
16000
(
0.049498701
0.021608249
0.022478285
0.0165498
0.014037672
0.012706655
0.01191646
0.011443729
0.011123352
0.010907668
0.010748575
0.010630139
0.01053774
0.010464627
0.010405771
0.010358018
0.010319014
0.010287087
0.010261034
0.010239689
0.010221978
0.01020759
0.010196042
0.010186758
0.010179495
0.010173911
0.010169821
0.010167054
0.01016547
0.010164936
0.01016533
0.010166548
0.010168507
0.01017114
0.010174385
0.010178186
0.010182486
0.010187228
0.010192355
0.010197813
0.010203537
0.01020946
0.010215515
0.010221634
0.010227741
0.010233765
0.010239643
0.010245327
0.01025077
0.010255928
0.010260753
0.010265194
0.010269196
0.010272707
0.010275679
0.010278074
0.010279854
0.010280983
0.010281411
0.010281069
0.010279851
0.010277617
0.010274226
0.010269518
0.010263312
0.010255403
0.01024552
0.010233278
0.010218096
0.010199051
0.010175123
0.010146458
0.010116873
0.010094843
0.010078134
0.010066403
0.010060015
0.010063953
0.010057576
0.010082107
0.045364206
0.020445827
0.021033804
0.016000992
0.013691368
0.012503072
0.011753119
0.011326411
0.011022038
0.010823681
0.010674917
0.010565275
0.010479305
0.010411691
0.010357353
0.010313476
0.010277807
0.010248766
0.010225263
0.010206292
0.010190688
0.010178183
0.010168413
0.010160765
0.010155044
0.010150904
0.010148165
0.010146664
0.010146268
0.010146852
0.010148296
0.010150497
0.010153372
0.010156849
0.01016087
0.010165376
0.010170312
0.010175621
0.010181249
0.01018714
0.010193236
0.01019947
0.010205778
0.010212095
0.010218351
0.010224474
0.010230403
0.01023609
0.010241492
0.01024657
0.010251282
0.010255582
0.01025942
0.010262746
0.010265514
0.010267686
0.010269228
0.010270106
0.010270274
0.010269673
0.010268207
0.010265744
0.010262146
0.010257244
0.010250848
0.010242742
0.010232652
0.010220229
0.010205003
0.010186219
0.010162877
0.01013512
0.01010693
0.010085922
0.010070074
0.010058868
0.010053341
0.010054275
0.010058418
0.010085879
0.041972775
0.0196268
0.019701833
0.015435822
0.013337259
0.01227523
0.011584031
0.011199407
0.010918524
0.010738426
0.01060088
0.010500476
0.01042142
0.010359592
0.010310071
0.010270303
0.010238194
0.010212246
0.010191454
0.010174996
0.010161648
0.01015115
0.010143267
0.010137352
0.010133258
0.01013064
0.010129325
0.010129158
0.010130009
0.010131761
0.010134299
0.01013752
0.010141339
0.010145684
0.010150494
0.010155711
0.010161281
0.010167146
0.010173251
0.010179543
0.010185966
0.010192457
0.010198952
0.010205391
0.01021171
0.010217838
0.010223717
0.010229301
0.010234551
0.010239433
0.010243911
0.010247946
0.010251492
0.010254505
0.010256941
0.010258764
0.010259943
0.010260445
0.010260231
0.010259245
0.0102574
0.010254576
0.010250635
0.010245407
0.010238693
0.010230263
0.010219844
0.010207116
0.010191704
0.010173019
0.010150098
0.010123041
0.010096512
0.010076728
0.010061903
0.010051582
0.010046355
0.010045981
0.010054484
0.010080416
0.038923461
0.01907353
0.018553288
0.014929647
0.013016769
0.012069313
0.011429223
0.011083471
0.010823487
0.010659955
0.010533122
0.010441261
0.010368803
0.010312444
0.010267527
0.010231694
0.01020301
0.010180058
0.01016188
0.010147863
0.010136726
0.010128189
0.010122154
0.010117941
0.010115442
0.010114319
0.010114403
0.010115544
0.010117614
0.010120503
0.0101241
0.0101283
0.010133018
0.010138179
0.010143719
0.010149581
0.010155709
0.010162048
0.010168541
0.010175137
0.010181783
0.01018842
0.010194988
0.01020143
0.010207687
0.010213696
0.010219399
0.010224754
0.010229727
0.010234289
0.010238411
0.01024206
0.010245199
0.010247786
0.010249782
0.010251151
0.010251867
0.010251899
0.010251211
0.010249752
0.010247444
0.010244174
0.010239808
0.010234177
0.010227073
0.010218255
0.010207454
0.010194387
0.010178759
0.010160145
0.010137637
0.010111106
0.010086242
0.010067682
0.010053925
0.010044485
0.010039354
0.01003869
0.010049492
0.010068665
0.036308743
0.018763591
0.017567331
0.014460582
0.012718418
0.011874588
0.011284045
0.010974147
0.010734755
0.01058674
0.010470412
0.010386701
0.010320701
0.010269654
0.010229244
0.010197268
0.010171954
0.010151973
0.010136374
0.010124773
0.010115847
0.010109272
0.010105078
0.010102579
0.010101664
0.010102037
0.010103518
0.010105962
0.010109242
0.010113252
0.010117882
0.01012303
0.010128605
0.010134531
0.010140742
0.010147179
0.010153786
0.010160508
0.010167291
0.010174084
0.010180838
0.010187499
0.010194012
0.010200324
0.010206385
0.010212137
0.010217527
0.010222516
0.010227076
0.010231185
0.01023482
0.010237957
0.010240564
0.010242605
0.010244044
0.010244851
0.010244997
0.010244458
0.0102432
0.010241175
0.010238312
0.010234506
0.010229627
0.010223505
0.010215931
0.010206657
0.01019542
0.010181971
0.010166085
0.010147472
0.010125356
0.010099372
0.010076204
0.010058899
0.010046246
0.010037661
0.010032639
0.010032021
0.01004319
0.010058201
0.0333084
0.018695319
0.016837387
0.014030746
0.012443853
0.011693446
0.011149846
0.010872824
0.010653236
0.010519516
0.010413373
0.010337349
0.010277598
0.010231666
0.010195628
0.010167406
0.010145384
0.010128336
0.010115277
0.010106059
0.010099336
0.010094754
0.010092368
0.010091631
0.010092258
0.01009412
0.01009699
0.010100722
0.010105191
0.010110289
0.01011591
0.01012195
0.010128318
0.010134932
0.010141726
0.010148638
0.010155613
0.010162598
0.01016954
0.010176393
0.010183111
0.010189647
0.010195952
0.01020198
0.010207689
0.01021303
0.010217956
0.010222433
0.010226438
0.010229955
0.01023297
0.010235466
0.010237419
0.010238799
0.010239574
0.010239713
0.010239194
0.010237993
0.010236078
0.010233405
0.010229908
0.010225488
0.010220019
0.010213333
0.010205222
0.010195439
0.01018373
0.010169878
0.010153706
0.010135027
0.010113282
0.010087928
0.010066472
0.010050449
0.010038909
0.010031143
0.010026287
0.010025748
0.010036507
0.010047522
0.030572832
0.018795548
0.016319495
0.013636716
0.012190843
0.011525196
0.011026389
0.010779346
0.010578829
0.010458216
0.010361912
0.010293174
0.010239479
0.01019851
0.010166744
0.010142214
0.010123441
0.010109322
0.010098798
0.010091953
0.010087427
0.010084996
0.010084312
0.010085536
0.010087536
0.010090882
0.010095129
0.010100128
0.010105751
0.01011189
0.010118441
0.010125297
0.010132365
0.010139562
0.010146821
0.010154077
0.010161278
0.010168373
0.010175316
0.010182062
0.010188572
0.010194809
0.010200733
0.010206304
0.010211491
0.010216253
0.010220555
0.010224365
0.010227668
0.010230455
0.010232719
0.01023445
0.010235631
0.01023624
0.010236246
0.010235624
0.01023435
0.010232402
0.010229753
0.01022636
0.010222158
0.010217056
0.010210931
0.010203618
0.010194913
0.01018458
0.010172375
0.010158107
0.010141631
0.010122814
0.010101398
0.010076898
0.010057154
0.010042434
0.010031991
0.010025013
0.010020401
0.010019876
0.010029459
0.010035791
0.029045551
0.018979556
0.015898931
0.013276001
0.011957927
0.0113696
0.010913102
0.010693565
0.010511187
0.010402719
0.010315952
0.010254207
0.010206429
0.010170336
0.010142789
0.010121931
0.010106398
0.010095228
0.010087269
0.010082777
0.010080394
0.010080701
0.010081278
0.010083953
0.010087869
0.010092681
0.010098276
0.0101045
0.010111219
0.010118323
0.010125707
0.010133267
0.010140907
0.010148543
0.010156106
0.010163536
0.010170782
0.010177797
0.010184543
0.010190984
0.010197087
0.010202826
0.010208173
0.010213098
0.010217578
0.010221588
0.010225099
0.010228088
0.010230544
0.010232466
0.010233852
0.010234702
0.010235004
0.010234741
0.010233889
0.010232421
0.010230315
0.010227551
0.010224102
0.010219927
0.010214964
0.010209125
0.010202291
0.010194302
0.010184963
0.010174051
0.010161338
0.010146648
0.010129861
0.010110851
0.010089671
0.010066356
0.010048316
0.010034911
0.010025536
0.010019315
0.010015017
0.010014388
0.010022387
0.010024653
0.026845121
0.019167591
0.015408183
0.012945382
0.011743467
0.011225853
0.010809324
0.01061473
0.010450366
0.010353259
0.010275723
0.010220747
0.010178768
0.010147492
0.010124135
0.010106951
0.010094666
0.010086462
0.010081141
0.01007884
0.010078164
0.010080426
0.010083775
0.01008821
0.010093641
0.010099894
0.010106783
0.010114154
0.010121872
0.010129821
0.010137899
0.010146001
0.010154035
0.010161914
0.010169575
0.010176961
0.010184025
0.010190731
0.010197049
0.010202953
0.010208424
0.010213445
0.010218003
0.010222081
0.010225667
0.010228747
0.010231304
0.010233322
0.010234795
0.010235728
0.010236125
0.01023599
0.010235319
0.010234101
0.010232313
0.01022993
0.010226931
0.010223294
0.010218994
0.010213991
0.010208224
0.010201608
0.010194029
0.010185331
0.01017533
0.010163822
0.010150596
0.010135483
0.010118389
0.01009917
0.010078062
0.010056377
0.010040021
0.010027932
0.010019584
0.010014088
0.010010175
0.010009377
0.010015808
0.010016415
0.025137417
0.019339781
0.014734773
0.012642095
0.011547409
0.01109438
0.010715888
0.010543922
0.010396929
0.010310281
0.010241652
0.010193255
0.010156963
0.010130458
0.010111274
0.010097775
0.010088763
0.010083485
0.010080992
0.010078653
0.01008357
0.010087116
0.010092164
0.010098301
0.010105278
0.010112891
0.010120971
0.010129362
0.010137925
0.010146543
0.010155113
0.010163536
0.010171723
0.010179594
0.010187088
0.010194159
0.010200771
0.010206898
0.010212522
0.010217633
0.010222225
0.010226298
0.01022985
0.010232879
0.010235385
0.010237368
0.010238819
0.010239731
0.010240101
0.010239938
0.010239251
0.010238049
0.010236332
0.010234092
0.010231311
0.010227963
0.010224025
0.010219476
0.01021429
0.010208428
0.01020183
0.010194412
0.010186066
0.010176644
0.010165969
0.010153859
0.010140122
0.010124585
0.010107188
0.010087815
0.010066602
0.010047014
0.010032313
0.010021527
0.010014159
0.01000936
0.01000593
0.010004995
0.010009879
0.010009783
0.023648874
0.019482312
0.014194079
0.012364009
0.011370248
0.010975542
0.010633301
0.010481801
0.010351047
0.010274178
0.010214155
0.010172212
0.010141522
0.010119772
0.010104761
0.010094971
0.010089286
0.010086682
0.010087505
0.010090524
0.010094254
0.010100082
0.01010699
0.010114754
0.010123155
0.010131993
0.010141095
0.010150307
0.010159487
0.01016852
0.010177305
0.010185753
0.010193783
0.010201325
0.010208332
0.010214769
0.010220614
0.010225859
0.010230502
0.010234549
0.010238011
0.010240903
0.010243239
0.01024503
0.01024629
0.010247026
0.010247241
0.010246935
0.010246107
0.010244767
0.010242927
0.010240597
0.010237783
0.010234479
0.010230667
0.010226323
0.010221422
0.010215939
0.01020985
0.010203113
0.010195672
0.010187443
0.010178325
0.010168177
0.010156833
0.010144124
0.010129879
0.010113927
0.01009622
0.010076815
0.010055761
0.010038314
0.010025226
0.010015712
0.010009273
0.010005145
0.010002308
0.010001402
0.010004717
0.010003639
0.022274546
0.019612285
0.013724928
0.012111323
0.011211895
0.010868978
0.010561354
0.010428089
0.010313052
0.010245424
0.010193731
0.010158169
0.010133029
0.010116043
0.010105228
0.010099175
0.010096899
0.010097675
0.010100685
0.010105649
0.010112336
0.010120055
0.01012868
0.010137927
0.010147572
0.010157412
0.010167277
0.010177015
0.010186489
0.010195589
0.010204223
0.010212316
0.010219805
0.010226637
0.010232782
0.010238224
0.010242962
0.010247006
0.010250374
0.010253091
0.010255183
0.010256682
0.010257615
0.010258007
0.010257881
0.010257254
0.010256136
0.01025453
0.01025244
0.010249871
0.010246837
0.010243349
0.010239413
0.010235025
0.010230169
0.01022482
0.010218949
0.01021253
0.010205534
0.010197925
0.010189643
0.010180608
0.010170726
0.010159865
0.010147868
0.01013457
0.010119828
0.010103485
0.010085466
0.010066089
0.010045851
0.010030332
0.010018782
0.010010491
0.010004939
0.010001444
0.009999244
0.0099986236
0.010000804
0.0099990452
0.021043956
0.019699606
0.013294809
0.011884011
0.011071916
0.010774695
0.010500176
0.010383371
0.010283289
0.010224541
0.010180956
0.010151762
0.010132164
0.010119974
0.010113397
0.010111124
0.010112212
0.010115957
0.010121815
0.01012927
0.010137904
0.010147456
0.010157601
0.010168082
0.010178673
0.010189174
0.010199422
0.010209273
0.010218602
0.010227316
0.010235338
0.010242618
0.010249116
0.010254807
0.010259684
0.010263755
0.010267043
0.010269577
0.010271397
0.010272544
0.010273061
0.010272992
0.010272376
0.01027125
0.010269641
0.010267574
0.010265063
0.010262116
0.010258733
0.010254919
0.010250682
0.010246032
0.010240975
0.010235508
0.010229616
0.010223273
0.010216446
0.010209104
0.010201218
0.010192749
0.010183643
0.010173822
0.010163195
0.010151642
0.010139015
0.010125154
0.010109927
0.01009323
0.010074949
0.010055527
0.0100369
0.01002312
0.010013
0.010005864
0.010001168
0.0099982604
0.0099966198
0.0099965038
0.0099982612
0.0099962786
0.019934974
0.019705496
0.012904743
0.01168007
0.010949542
0.010692724
0.010449876
0.010347981
0.010262226
0.010212178
0.010176561
0.010153769
0.010139744
0.010132404
0.01013011
0.010131642
0.010136114
0.010142851
0.010151285
0.010160971
0.010171527
0.010182605
0.010193931
0.010205246
0.010216333
0.010227004
0.010237107
0.010246522
0.010255149
0.01026292
0.01026979
0.010275739
0.010280761
0.010284864
0.01028807
0.010290414
0.010291939
0.010292698
0.010292745
0.010292137
0.010290929
0.010289174
0.010286919
0.010284205
0.010281067
0.01027753
0.01027361
0.010269317
0.010264649
0.010259605
0.010254187
0.010248401
0.010242251
0.010235733
0.010228833
0.010221525
0.010213771
0.010205537
0.010196789
0.01018749
0.010177587
0.010167008
0.010155664
0.010143446
0.010130219
0.01011583
0.010100146
0.010083122
0.010064722
0.01004519
0.010028923
0.010016719
0.010007891
0.010001828
0.0099979724
0.0099956177
0.0099943451
0.0099947395
0.0099970032
0.0099950778
0.018935926
0.019490115
0.012552702
0.011498441
0.010844557
0.010623292
0.010410758
0.010322587
0.010250585
0.010209236
0.010181505
0.010165186
0.010156787
0.01015434
0.010156338
0.010161634
0.010169383
0.010178933
0.010189744
0.010201359
0.010213401
0.010225545
0.010237515
0.01024907
0.010260015
0.010270187
0.010279467
0.010287769
0.010295037
0.010301242
0.010306381
0.010310472
0.010313547
0.01031565
0.010316832
0.010317151
0.010316672
0.010315461
0.010313585
0.010311111
0.010308098
0.010304606
0.010300683
0.010296372
0.01029171
0.01028672
0.010281419
0.010275813
0.010269899
0.010263671
0.010257123
0.010250252
0.010243058
0.010235538
0.010227677
0.010219447
0.010210812
0.010201729
0.01019216
0.010182068
0.010171405
0.010160104
0.010148078
0.010135226
0.010121429
0.010106556
0.01009047
0.01007313
0.010054804
0.010036244
0.010021899
0.01001115
0.010003467
0.0099983758
0.0099953393
0.0099935385
0.0099924935
0.0099931778
0.0099963408
0.0099949333
0.01803186
0.018639534
0.012235974
0.011338406
0.010757217
0.010566805
0.010383371
0.010308148
0.010249433
0.010216886
0.01019702
0.010187236
0.01018448
0.0101869
0.010193094
0.010201982
0.010212747
0.010224753
0.010237474
0.010250463
0.010263355
0.010275841
0.010287675
0.010298652
0.01030862
0.010317467
0.010325124
0.010331561
0.010336775
0.01034079
0.010343649
0.01034541
0.010346143
0.010345922
0.010344822
0.010342919
0.010340291
0.010337013
0.010333156
0.010328789
0.010323971
0.010318759
0.010313203
0.010307341
0.010301208
0.010294825
0.010288206
0.010281355
0.010274264
0.010266923
0.010259315
0.010251431
0.010243264
0.010234806
0.010226043
0.01021695
0.010207488
0.01019761
0.010187271
0.010176433
0.010165051
0.010153067
0.010140397
0.010126947
0.010112615
0.010097295
0.010080887
0.010063316
0.010044945
0.010028434
0.010015832
0.01000641
0.0099997379
0.0099955024
0.0099932297
0.0099919935
0.0099912288
0.0099922366
0.0099961022
0.0099967074
0.017214647
0.017281606
0.011956671
0.011199706
0.010686597
0.010524196
0.010368768
0.010306082
0.010260219
0.010236603
0.010224558
0.010221292
0.010224085
0.010231194
0.0102413
0.010253375
0.010266624
0.010280427
0.010294279
0.010307757
0.010320536
0.010332353
0.01034302
0.010352402
0.010360416
0.010367025
0.01037223
0.010376064
0.010378588
0.010379877
0.010380017
0.010379102
0.010377228
0.010374491
0.010370981
0.010366782
0.010361976
0.010356637
0.010350834
0.01034463
0.010338079
0.010331233
0.010324134
0.010316815
0.010309306
0.010301625
0.010293782
0.010285776
0.010277598
0.01026923
0.010260652
0.010251842
0.010242784
0.010233466
0.010223873
0.010213982
0.010203755
0.010193142
0.010182093
0.010170561
0.010158505
0.010145876
0.010132603
0.010118598
0.010103771
0.010088033
0.010071343
0.010053794
0.01003591
0.010021661
0.010010668
0.010002467
0.0099967079
0.0099932162
0.0099916157
0.0099909213
0.0099904332
0.0099918057
0.009996173
0.0099977471
0.016480178
0.016419432
0.011720886
0.011082738
0.010633596
0.01049686
0.010368451
0.010318073
0.010284643
0.010270021
0.010265672
0.010268755
0.010276797
0.010288147
0.010301549
0.010316022
0.010330804
0.01034531
0.010359093
0.010371799
0.010383181
0.010393069
0.01040137
0.010408049
0.010413117
0.01041662
0.010418639
0.010419271
0.010418629
0.010416829
0.01041399
0.010410227
0.01040565
0.010400361
0.010394454
0.010388011
0.010381109
0.010373812
0.010366182
0.01035827
0.010350121
0.010341776
0.010333268
0.010324624
0.010315864
0.010307004
0.010298049
0.010288996
0.010279833
0.010270538
0.010261084
0.010251442
0.010241587
0.010231497
0.010221153
0.010210534
0.010199607
0.010188323
0.010176625
0.010164457
0.010151777
0.010138546
0.010124708
0.010110188
0.010094911
0.010078809
0.010061848
0.010044354
0.010028238
0.010015834
0.010006317
0.0099992518
0.0099943472
0.0099915114
0.0099904599
0.0099902431
0.009990034
0.0099918489
0.0099960588
0.0099984816
0.015820534
0.015417595
0.011519555
0.01098802
0.010599169
0.010486494
0.010384062
0.01034603
0.010324622
0.010318927
0.010321957
0.010330905
0.010343486
0.010358131
0.010373659
0.010389164
0.010403967
0.010417583
0.010429683
0.010440043
0.010448547
0.01045516
0.01045991
0.010462872
0.010464157
0.010463892
0.01046222
0.010459288
0.010455241
0.01045022
0.010444354
0.010437763
0.010430557
0.010422831
0.010414669
0.010406144
0.010397319
0.010388245
0.01037897
0.010369531
0.010359961
0.010350289
0.010340535
0.01033072
0.010320856
0.010310951
0.010301008
0.010291022
0.010280979
0.010270857
0.010260625
0.010250248
0.01023969
0.010228919
0.010217911
0.01020664
0.010195078
0.010183183
0.010170897
0.010158156
0.010144909
0.01013112
0.010116755
0.010101758
0.010086061
0.010069643
0.010052601
0.01003545
0.010021675
0.010010883
0.010002677
0.0099966492
0.0099925587
0.0099903239
0.0099896865
0.0099898019
0.0099897145
0.0099919766
0.0099961348
0.0099990559
0.015230052
0.014738434
0.011355107
0.010916244
0.010584362
0.010495306
0.010417796
0.010392315
0.010382395
0.01038517
0.010394746
0.010408411
0.01042407
0.010440279
0.010456002
0.010470502
0.010483276
0.010494022
0.010502601
0.010508972
0.010513182
0.01051534
0.010515596
0.010514125
0.010511111
0.010506739
0.010501186
0.010494619
0.010487195
0.010479052
0.010470314
0.010461089
0.010451471
0.010441539
0.010431362
0.010420995
0.010410484
0.010399864
0.010389165
0.010378411
0.010367621
0.010356811
0.010345991
0.01033517
0.010324354
0.010313544
0.010302741
0.010291938
0.010281121
0.010270268
0.010259349
0.010248325
0.010237154
0.010225794
0.010214208
0.010202365
0.010190237
0.010177787
0.010164968
0.010151716
0.010137967
0.010123677
0.010108822
0.010093381
0.010077306
0.010060573
0.01004354
0.010028094
0.010016076
0.010006723
0.0099996492
0.0099945334
0.0099911921
0.009989519
0.0099891832
0.0099894371
0.0099896509
0.0099921106
0.0099963794
0.0099996055
0.014703087
0.01398635
0.011224189
0.010870042
0.010591024
0.010526646
0.010472711
0.010459652
0.010460061
0.01046991
0.010484155
0.010500301
0.010516534
0.010531671
0.010544955
0.010555934
0.010564382
0.010570246
0.010573611
0.010574627
0.010573496
0.010570444
0.010565707
0.010559518
0.010552097
0.010543645
0.010534343
0.010524351
0.010513808
0.010502836
0.010491536
0.010479994
0.01046828
0.010456452
0.010444556
0.01043263
0.010420699
0.010408785
0.0103969
0.010385053
0.010373251
0.010361496
0.010349788
0.010338128
0.010326513
0.010314939
0.010303402
0.010291894
0.010280403
0.010268908
0.010257382
0.010245788
0.010234082
0.010222214
0.010210135
0.010197803
0.01018518
0.010172236
0.010158932
0.01014522
0.010131038
0.010116321
0.010101025
0.01008515
0.010068738
0.010051898
0.010035171
0.010021899
0.010011385
0.010003266
0.0099971608
0.0099928186
0.0099901242
0.0099889582
0.0099889059
0.0099892642
0.0099897635
0.009992306
0.0099965843
0.0099998352
0.01423932
0.013404791
0.011131492
0.01085413
0.010623051
0.010584581
0.010551922
0.010549886
0.010558078
0.010572061
0.010587665
0.010602826
0.0106162
0.010627039
0.010634992
0.010639975
0.010642074
0.010641491
0.010638499
0.010633394
0.010626474
0.010618027
0.010608316
0.010597581
0.010586032
0.010573851
0.010561195
0.010548194
0.010534955
0.01052157
0.01050811
0.010494633
0.010481185
0.010467799
0.010454501
0.010441307
0.010428228
0.010415269
0.010402428
0.010389703
0.010377088
0.010364573
0.010352151
0.010339811
0.010327545
0.010315344
0.010303197
0.010291094
0.010279024
0.010266969
0.010254907
0.010242806
0.010230624
0.01021831
0.010205809
0.010193065
0.010180028
0.010166659
0.010152926
0.010138795
0.010124225
0.010109157
0.010093519
0.01007726
0.010060443
0.010043522
0.010028454
0.010016703
0.010007497
0.010000428
0.0099951537
0.0099914719
0.009989309
0.009988529
0.0099886943
0.0099891995
0.0099900711
0.0099926155
0.0099967455
0.0099999158
0.013844162
0.012942901
0.011079491
0.010873618
0.01070528
0.010672157
0.010656494
0.010661819
0.01067328
0.010686764
0.010699192
0.01070917
0.010716002
0.010719481
0.010719692
0.010716893
0.010711426
0.010703664
0.010693982
0.010682733
0.010670232
0.010656757
0.010642546
0.0106278
0.010612687
0.010597347
0.010581891
0.01056641
0.010550976
0.010535643
0.010520454
0.010505438
0.010490617
0.010476004
0.010461605
0.010447419
0.010433444
0.010419669
0.010406084
0.010392676
0.010379428
0.010366323
0.010353345
0.010340475
0.010327698
0.010314998
0.010302361
0.010289773
0.010277221
0.010264688
0.010252157
0.0102396
0.010226984
0.010214262
0.010201383
0.010188284
0.010174908
0.010161199
0.010147114
0.010132618
0.010117686
0.010102285
0.010086378
0.010069928
0.010053007
0.010036256
0.010023013
0.010012484
0.010004332
0.0099981303
0.0099935668
0.0099904571
0.009988728
0.0099881821
0.0099884849
0.0099891325
0.0099903003
0.0099930004
0.0099969623
0.010000013
0.013526842
0.012571251
0.011072288
0.010928511
0.010807506
0.01078863
0.01078272
0.010789237
0.010797785
0.010805216
0.010809696
0.010810644
0.010808029
0.010802118
0.010793327
0.010782118
0.010768946
0.010754229
0.010738334
0.010721577
0.010704223
0.010686486
0.010668541
0.010650529
0.010632559
0.010614717
0.010597069
0.010579663
0.010562535
0.010545709
0.010529198
0.01051301
0.010497146
0.010481601
0.010466367
0.010451431
0.010436776
0.010422386
0.01040824
0.010394316
0.010380592
0.010367044
0.010353649
0.010340382
0.010327223
0.010314148
0.010301139
0.010288176
0.010275243
0.010262321
0.010249394
0.010236438
0.010223425
0.01021032
0.010197078
0.010183646
0.010169969
0.010155987
0.010141641
0.01012688
0.010111659
0.010095941
0.010079713
0.010063021
0.010046182
0.010030732
0.010018723
0.010009209
0.010001872
0.0099963442
0.0099923477
0.009989713
0.0099883413
0.0099879405
0.0099882835
0.0099890021
0.0099904274
0.0099933183
0.0099971956
0.010000042
0.013304185
0.012301693
0.011112738
0.011025319
0.010940043
0.010925475
0.010920449
0.010920805
0.010920083
0.01091652
0.010909467
0.010899054
0.010885711
0.010869961
0.010852329
0.010833292
0.010813262
0.010792579
0.01077152
0.010750305
0.010729105
0.010708053
0.010687247
0.010666762
0.010646651
0.010626948
0.010607679
0.010588856
0.010570485
0.010552564
0.010535085
0.010518039
0.01050141
0.010485181
0.010469333
0.010453843
0.010438688
0.010423843
0.010409283
0.01039498
0.010380907
0.010367036
0.01035334
0.01033979
0.010326359
0.010313021
0.010299751
0.010286525
0.01027332
0.010260114
0.010246884
0.010233607
0.010220257
0.010206804
0.010193214
0.010179447
0.010165461
0.010151208
0.010136636
0.010121688
0.010106303
0.01009042
0.010074003
0.010057134
0.010040409
0.010026566
0.010015517
0.010006829
0.010000128
0.0099951072
0.009991526
0.0099892315
0.0099881108
0.0099878114
0.009988175
0.0099889405
0.0099905104
0.0099934928
0.009997368
0.010000078
0.013176053
0.012133027
0.011206241
0.011152941
0.011087627
0.01106921
0.011055308
0.011042825
0.01102817
0.01101085
0.010990995
0.010969073
0.010945615
0.010921115
0.010895989
0.010870575
0.010845137
0.010819874
0.010794937
0.010770432
0.010746436
0.010723
0.010700155
0.010677919
0.010656297
0.010635287
0.01061488
0.010595062
0.010575816
0.010557122
0.010538957
0.010521299
0.010504121
0.010487399
0.010471104
0.010455209
0.010439686
0.010424506
0.01040964
0.010395057
0.010380727
0.010366622
0.01035271
0.010338961
0.010325346
0.010311836
0.0102984
0.010285012
0.010271642
0.010258262
0.010244843
0.010231357
0.010217773
0.010204058
0.010190181
0.010176109
0.010161811
0.010147252
0.0101324
0.010117214
0.010101652
0.010085669
0.010069243
0.010052482
0.010036087
0.010023422
0.010013195
0.010005186
0.0099990134
0.0099944039
0.0099911431
0.0099890771
0.0099880621
0.0099877794
0.0099881894
0.0099890149
0.0099906174
0.0099933966
0.0099969403
0.009999642
0.013109781
0.012060971
0.011363749
0.011294858
0.011233746
0.011201081
0.01117144
0.011142591
0.011112834
0.011082179
0.011050891
0.011019335
0.010987837
0.010956663
0.010926009
0.010896016
0.010866776
0.01083835
0.010810768
0.010784045
0.010758177
0.010733153
0.010708953
0.010685554
0.010662928
0.010641045
0.010619874
0.010599383
0.01057954
0.010560313
0.010541671
0.01052358
0.010506009
0.010488927
0.010472303
0.010456106
0.010440303
0.010424865
0.01040976
0.010394958
0.010380428
0.010366138
0.010352059
0.01033816
0.010324411
0.010310781
0.010297241
0.01028376
0.010270306
0.010256848
0.01024335
0.010229779
0.010216095
0.010202261
0.010188238
0.01017399
0.010159481
0.010144677
0.010129547
0.010114057
0.010098174
0.010081875
0.0100652
0.010048453
0.010033092
0.010021131
0.010011537
0.010004049
0.0099983075
0.0099940487
0.0099910627
0.0099891881
0.0099882759
0.0099880304
0.0099883897
0.0099892221
0.0099907221
0.0099931559
0.0099963213
0.0099991565
0.013117956
0.01202004
0.011518205
0.011427259
0.011354633
0.011303528
0.011256781
0.011212899
0.011170581
0.011129639
0.011090018
0.011051742
0.011014826
0.010979275
0.010945071
0.010912184
0.010880573
0.010850192
0.010820988
0.010792908
0.010765899
0.010739908
0.010714881
0.010690769
0.010667523
0.010645096
0.010623443
0.010602522
0.010582291
0.010562712
0.010543746
0.010525357
0.010507508
0.010490167
0.010473299
0.010456871
0.010440851
0.010425207
0.010409908
0.010394923
0.010380222
0.010365774
0.010351548
0.010337517
0.01032365
0.010309918
0.010296292
0.010282742
0.010269237
0.010255744
0.010242229
0.010228653
0.010214977
0.010201159
0.010187156
0.010172926
0.010158427
0.010143616
0.010128449
0.010112878
0.010096856
0.010080352
0.010063424
0.010046513
0.010031641
0.01001999
0.010010687
0.010003453
0.0099979408
0.0099938873
0.0099910771
0.0099893338
0.0099884969
0.0099883117
0.0099887331
0.0099896753
0.0099912248
0.0099934715
0.0099962367
0.0099989085
0.013209598
0.01204482
0.011634031
0.011523548
0.011435523
0.011368512
0.011308875
0.011254682
0.011204291
0.011157046
0.011112501
0.01107036
0.011030393
0.010992414
0.010956265
0.010921807
0.010888917
0.010857484
0.010827409
0.010798602
0.010770978
0.010744463
0.010718986
0.010694482
0.010670892
0.010648158
0.010626229
0.010605056
0.010584593
0.010564797
0.010545627
0.010527044
0.01050901
0.010491489
0.010474447
0.01045785
0.010441665
0.010425859
0.010410402
0.010395263
0.010380411
0.010365816
0.01035145
0.010337285
0.010323291
0.010309441
0.010295707
0.01028206
0.010268472
0.010254911
0.010241345
0.010227738
0.010214053
0.010200251
0.010186293
0.010172139
0.010157752
0.010143091
0.010128114
0.010112775
0.010097024
0.010080821
0.010064194
0.010047476
0.010032306
0.010020516
0.010011085
0.010003761
0.009998187
0.0099940981
0.0099912701
0.0099895173
0.0099886735
0.0099884553
0.009988908
0.0099898943
0.0099914219
0.009993473
0.0099959568
0.0099986615
0.013334385
0.012101305
0.011694647
0.011572169
0.011473929
0.01139861
0.011332892
0.011274204
0.011220485
0.011170748
0.011124314
0.011080725
0.011039634
0.011000772
0.010963919
0.010928891
0.010895533
0.01086371
0.010833303
0.010804208
0.010776331
0.010749588
0.010723903
0.010699206
0.010675434
0.010652526
0.01063043
0.010609093
0.010588469
0.010568514
0.010549185
0.010530443
0.010512249
0.010494567
0.010477363
0.010460602
0.010444252
0.010428279
0.010412654
0.010397345
0.010382321
0.010367555
0.010353015
0.010338675
0.010324506
0.010310481
0.010296571
0.010282748
0.010268984
0.010255247
0.010241506
0.010227725
0.010213868
0.010199895
0.01018577
0.010171454
0.01015691
0.010142099
0.010126982
0.010111514
0.010095647
0.010079348
0.010062671
0.010046049
0.010031532
0.010020073
0.010010899
0.010003742
0.0099982783
0.009994249
0.0099914306
0.0099896467
0.0099887773
0.0099885618
0.0099890408
0.009990028
0.00999153
0.0099934449
0.0099957583
0.0099984866
66.048189
360.38171
121.22412
14.632431
0.40420942
0.021417037
0.020126156
0.019820017
0.019559011
0.01850507
0.017169014
0.015980794
0.015078838
0.014506626
0.014100225
0.013714909
0.013339531
0.013006714
0.012727412
0.012493822
0.012295277
0.012124054
0.011975004
0.011844323
0.011728954
0.011626406
0.01153469
0.011452213
0.01137772
0.011310223
0.011248903
0.011193046
0.011142031
0.011095331
0.011052536
0.011013309
0.010977367
0.010944456
0.010914342
0.010886815
0.010861689
0.010838784
0.01081792
0.010798923
0.010781634
0.010765887
0.010751522
0.010738386
0.010726348
0.010715289
0.010705097
0.010695656