/*--------------------------------*- C++ -*----------------------------------*\
  =========                 |
  \\      /  F ield         | OpenFOAM: The Open Source CFD Toolbox
   \\    /   O peration     | Website:  https://openfoam.org
    \\  /    A nd           | Version:  12
     \\/     M anipulation  |
\*---------------------------------------------------------------------------*/
FoamFile
{
    format      ascii;
    class       volScalarField;
    location    "0.129";
    object      omega;
}
// * * * * * * * * * * * * * * * * * * * * * * * * * * * * * * * * * * * * * //

dimensions      [0 0 -1 0 0 0 0];

internalField   nonuniform List<scalar> 
16000
(
1089.1882
2186.1203
1072.4715
644.22936
454.68797
316.15238
239.91595
181.08429
145.88883
118.09772
100.35076
85.878442
75.168737
66.214545
58.912244
52.758772
47.564882
43.135153
39.329092
36.034671
33.167578
30.656888
28.444231
26.483031
24.735751
23.17321
21.771232
20.511148
19.377137
18.354765
17.430977
16.595468
15.840035
15.157732
14.542629
13.989218
13.492313
13.047021
12.649246
12.295536
11.982012
11.704591
11.460301
11.24644
11.059939
10.897679
10.757234
10.636308
10.532693
10.444296
10.369245
10.305902
10.252748
10.208442
10.171814
10.141964
10.118315
10.10069
10.089502
10.085348
10.085371
10.084585
10.083201
10.081318
10.078835
10.075695
10.071836
10.067186
10.061596
10.054721
10.046065
10.035415
10.023981
10.0159
10.01008
10.006212
10.004157
10.006644
10.011475
10.029909
1130.7972
2177.81
1061.1274
644.59607
454.7949
319.02566
240.95684
182.88246
146.70408
119.11847
100.88395
86.435281
75.522731
66.521984
59.13369
52.930444
47.689919
43.225621
39.392455
36.076546
33.192796
30.669965
28.448744
26.481854
24.730716
23.165778
21.762167
20.500861
19.36612
18.343754
17.420444
16.58553
15.830664
15.14879
14.534011
13.980887
13.484341
13.03942
12.641841
12.288272
11.975126
11.698103
11.454076
11.24046
11.054365
10.892519
10.752457
10.631898
10.52866
10.440648
10.365955
10.302955
10.250124
10.206126
10.169765
10.1401
10.116502
10.098674
10.086772
10.081411
10.081107
10.080304
10.078858
10.076923
10.0744
10.071229
10.067342
10.062666
10.057081
10.050284
10.041778
10.031409
10.020478
10.01275
10.007283
10.003728
10.00222
10.00347
10.011261
10.030761
1170.8083
2179.4679
1049.8769
640.97817
451.41607
319.26568
239.84718
183.06441
146.24754
119.26904
100.72377
86.441864
75.415361
66.420423
58.999438
52.785024
47.53397
43.064785
39.230662
35.916042
33.035461
30.517764
28.303092
26.34394
24.600942
23.044461
21.649164
20.395758
19.268527
18.253637
17.337705
16.509807
15.761521
15.085701
14.476493
13.928506
13.436801
12.996469
12.60305
12.253187
11.943672
11.67009
11.429132
11.218238
11.034771
10.875352
10.737467
10.618855
10.517372
10.430951
10.357661
10.295904
10.244163
10.201125
10.165597
10.136615
10.113528
10.096002
10.084037
10.077973
10.077204
10.076309
10.074748
10.072708
10.070091
10.066837
10.062874
10.058125
10.052482
10.045689
10.037254
10.02706
10.016766
10.009493
10.004447
10.001328
10.00015
10.00114
10.009905
10.027037
1209.0367
2188.0259
1039.9993
637.50933
447.62388
319.29925
238.43726
183.08496
145.64951
119.31814
100.51202
86.386355
75.266884
66.271683
58.824975
52.601118
47.342798
42.871144
39.03852
35.727483
32.852089
30.341411
28.134991
26.18524
24.451923
22.90537
21.519816
20.275674
19.157166
18.15086
17.24339
16.423546
15.682844
15.014022
14.411275
13.869243
13.383113
12.948082
12.559539
12.21397
11.90861
11.638988
11.401607
11.193832
11.013348
10.856687
10.721275
10.604861
10.505336
10.420685
10.348948
10.288557
10.238003
10.196003
10.161371
10.133128
10.110593
10.093404
10.081487
10.074994
10.073661
10.072625
10.070919
10.068741
10.066001
10.062636
10.058571
10.053724
10.047994
10.041176
10.032801
10.022702
10.01307
10.006272
10.001675
9.9989926
9.9980387
9.9990717
10.008172
10.022083
1245.3
2206.4935
1031.6011
633.7961
443.08713
318.59066
236.34742
182.61883
144.67504
119.08937
100.11273
86.154599
74.979881
65.99115
58.535935
52.313543
47.058865
42.593727
38.770637
35.470341
32.606365
30.10823
27.914918
25.978955
24.259303
22.726335
21.35392
20.122229
19.01532
18.020197
17.12364
16.314151
15.583217
14.923439
14.329075
13.794776
13.315842
12.887623
12.505444
12.165474
11.865421
11.60084
11.368084
11.164302
10.987571
10.834369
10.702052
10.58838
10.491267
10.408784
10.338933
10.280192
10.23106
10.190289
10.156716
10.129355
10.107499
10.090763
10.079042
10.072392
10.070476
10.069242
10.067355
10.065005
10.062108
10.058599
10.054404
10.049433
10.043584
10.036699
10.028376
10.018382
10.009442
10.00315
9.9990234
9.9967623
9.9960102
9.997227
10.006045
10.017893
1279.4553
2232.4151
1027.929
630.81307
439.0894
317.25707
233.78216
181.74519
143.42885
118.62098
99.570254
85.768707
74.57374
65.596025
58.146791
51.935498
46.693679
42.242767
38.436002
35.152581
32.305374
29.824561
27.648588
25.730122
24.027639
22.511491
21.155233
19.938855
18.846159
17.864572
16.98116
16.18412
15.464948
14.816087
14.23186
13.70693
13.236678
12.816621
12.442159
12.10902
11.815309
11.556706
11.329518
11.130511
10.958199
10.809061
10.680372
10.569909
10.475586
10.395602
10.327913
10.271052
10.223531
10.184139
10.15175
10.125378
10.104298
10.0881
10.076653
10.069951
10.067606
10.066122
10.064024
10.061471
10.058388
10.054709
10.050359
10.045245
10.039255
10.032268
10.023991
10.01414
10.005917
10.000159
9.9965126
9.994657
9.9941122
9.9955576
10.003806
10.013207
1311.4624
2263.4208
1028.1143
627.98929
435.14136
315.28578
231.12707
180.49932
142.01235
117.91589
98.893693
85.227513
74.044739
65.084247
57.654389
51.464053
46.244209
41.815341
38.031568
34.771268
31.946332
29.487789
27.333671
25.436114
23.754495
22.258621
20.921741
19.723753
18.648109
17.682611
16.814762
16.032437
15.327186
14.691262
14.119063
13.605261
13.1453
12.73484
12.369496
12.044656
11.758379
11.506696
11.286037
11.092636
10.925404
10.780926
10.656389
10.549595
10.458424
10.381253
10.315983
10.261219
10.215484
10.17761
10.146516
10.12123
10.101012
10.085427
10.07433
10.067678
10.065015
10.063238
10.060902
10.058119
10.054824
10.05095
10.046423
10.04115
10.035007
10.027884
10.019644
10.010042
10.002548
9.997348
9.9941801
9.9927172
9.9923939
9.9940066
10.001492
10.009541
1341.4309
2297.0045
1029.8281
624.85128
431.27085
312.66709
228.47623
179.0216
140.49159
116.99529
98.100024
84.539629
73.39403
64.457906
57.058863
50.898681
45.709385
41.310282
37.555281
34.324259
31.527169
29.095902
26.968512
25.093375
23.436458
21.964542
20.65051
19.474261
18.418806
17.47222
16.622611
15.857505
15.168566
14.547812
13.989725
13.488984
13.041093
12.641804
12.287006
11.972683
11.694982
11.451135
11.237937
11.051086
10.889564
10.750293
10.630405
10.527709
10.440011
10.365931
10.303304
10.25082
10.20702
10.170779
10.141069
10.116946
10.097661
10.082753
10.07206
10.065529
10.062655
10.060554
10.057954
10.054919
10.051392
10.047303
10.04258
10.037135
10.030837
10.023556
10.01532
10.00613
9.999369
9.994745
9.992048
9.9909649
9.990901
9.9926403
9.9992916
10.005859
1369.4557
2330.9829
1028.3387
620.93881
426.4843
309.34723
224.93783
177.14908
138.64478
115.89011
97.184949
83.704176
72.614614
63.712328
56.355234
50.233701
45.083558
40.722523
36.999142
33.803518
31.040183
28.641539
26.546627
24.702717
23.074903
21.631065
20.343632
19.192647
18.160656
17.23586
16.407169
15.661759
14.991479
14.388064
13.846092
13.360248
12.926097
12.539483
12.196357
11.892686
11.624869
11.389855
11.185043
11.006217
10.851024
10.717455
10.602748
10.504542
10.420607
10.349852
10.290053
10.239998
10.198253
10.163732
10.135474
10.112569
10.094271
10.080092
10.069841
10.063478
10.060476
10.058028
10.055145
10.051842
10.048065
10.043748
10.038816
10.033187
10.026737
10.019299
10.010999
10.002442
9.9964116
9.9923764
9.9901378
9.9894167
9.9896543
9.9914774
9.9973084
10.002825
1395.6337
2363.7404
1019.6508
615.9426
419.99159
305.58406
220.56761
174.80408
136.74231
114.60325
96.138234
82.715942
71.698484
62.839573
55.535511
49.456292
44.352874
40.038775
36.361557
33.209951
30.487938
28.128352
26.071499
24.263236
22.669204
21.257706
20.000782
18.878755
17.873695
16.973736
16.168704
15.445578
14.796413
14.212598
13.688815
13.219753
12.801032
12.428591
12.098541
11.806914
11.550028
11.324693
11.128831
10.95793
10.809772
10.68237
10.573708
10.480352
10.400488
10.333243
10.276423
10.228905
10.189302
10.156561
10.129792
10.108138
10.090861
10.077451
10.067673
10.061497
10.058425
10.05562
10.052439
10.048855
10.044818
10.040262
10.035113
10.029291
10.022695
10.015136
10.006691
9.9990091
9.9936977
9.9902571
9.9884642
9.9880806
9.9886551
9.9905634
9.9955628
10.000234
1420.0825
2394.5847
1010.7661
609.87903
411.84909
301.42126
215.93964
172.26202
134.74271
113.13525
94.947042
81.567945
70.634025
61.819162
54.577214
48.561629
43.518708
39.263114
35.640612
32.541734
29.868589
27.554669
25.541982
23.775072
22.219749
20.845006
19.622711
18.533516
17.559048
16.68717
15.908317
15.210113
14.584582
14.02267
13.519168
13.068767
12.667147
12.310319
11.994569
11.716021
11.471082
11.256357
11.070148
10.907906
10.767258
10.646187
10.543236
10.455089
10.379884
10.316288
10.262603
10.217699
10.180291
10.149359
10.124092
10.103696
10.087451
10.074836
10.065559
10.05957
10.056446
10.053284
10.049798
10.045926
10.041623
10.036825
10.031457
10.025436
10.018689
10.011087
10.002607
9.9958536
9.9912429
9.9883928
9.9870374
9.9869636
9.9878688
9.9898957
9.9941407
9.998031
1442.9273
2424.525
997.35556
602.28089
402.3061
296.85007
211.13936
169.46421
132.71857
111.49212
93.584214
80.229937
69.383573
60.644721
53.483971
47.546466
42.577339
38.392168
34.834852
31.7977
29.181856
26.920618
24.958338
23.238619
21.727335
20.393582
19.21024
18.157951
17.217909
16.377698
15.626261
14.955645
14.356325
13.81868
13.337598
12.907757
12.524919
12.18514
11.884918
11.62049
11.388392
11.185804
11.009742
10.856571
10.723878
10.609518
10.512507
10.429606
10.358742
10.298929
10.248729
10.206526
10.171341
10.142222
10.118439
10.099283
10.08406
10.072248
10.063498
10.057686
10.054487
10.050979
10.047184
10.043024
10.038454
10.033413
10.02783
10.021616
10.014702
10.00711
9.9989311
9.9930025
9.9890569
9.9867793
9.9858604
9.986074
9.9872631
9.9894592
9.9931658
9.9965477
1464.4775
2452.7318
980.04114
593.76556
392.2464
291.86844
206.26915
166.46791
130.64401
109.65205
91.984691
78.685355
67.952299
59.31031
52.249349
46.407114
41.526203
37.424191
33.943101
30.977299
28.427558
26.226655
24.320853
22.654526
21.193199
19.903003
18.763071
17.751952
16.850275
16.045871
15.327643
14.687215
14.116519
13.605337
13.148595
12.74094
12.378266
12.05664
11.772816
11.523234
11.304342
11.113244
10.947836
10.804126
10.679748
10.572822
10.481747
10.404215
10.337925
10.281792
10.234694
10.195468
10.162554
10.135238
10.112899
10.09494
10.080704
10.069679
10.061485
10.055854
10.052498
10.048664
10.044563
10.040118
10.035286
10.030006
10.024213
10.017824
10.010748
10.003124
9.9956616
9.9904852
9.9871481
9.9854066
9.9849276
9.9854175
9.9868112
9.9892172
9.992687
9.9957692
1484.9704
2475.5118
958.5655
584.69542
381.7425
286.52942
201.41531
163.28013
128.44801
107.5201
90.132783
76.923502
66.327529
57.807783
50.867325
45.138817
40.361998
36.356967
32.964362
30.079589
27.605559
25.473597
23.628116
22.021482
20.616862
19.37967
18.288209
17.322867
16.463679
15.698562
15.016237
14.408518
13.868254
13.38542
12.954668
12.570536
12.229154
11.926553
11.659726
11.42547
11.220322
11.041259
10.88655
10.752371
10.636249
10.536126
10.451003
10.378798
10.317492
10.265161
10.221048
10.184387
10.153967
10.128479
10.107534
10.090707
10.077406
10.06712
10.059495
10.054095
10.050442
10.046303
10.041902
10.037181
10.032094
10.026585
10.020587
10.014043
10.006871
9.999148
9.9928023
9.988323
9.9855277
9.9842647
9.9842224
9.9849927
9.9865028
9.9890968
9.9927388
9.995611
1504.6636
2488.2456
932.97171
574.97654
370.86077
280.86553
196.65272
159.82199
126.01038
105.10375
88.001306
74.926765
64.496922
56.127135
49.330631
43.736605
39.081916
35.188206
31.897982
29.101468
26.712998
24.659829
22.888554
21.34932
20.008064
18.829333
17.791486
16.875922
16.063046
15.340625
14.697173
14.124433
13.614623
13.16149
12.757981
12.398335
12.079053
11.796113
11.54665
11.327955
11.136685
10.970547
10.826458
10.701715
10.593951
10.500825
10.421448
10.354192
10.297255
10.249122
10.208012
10.173719
10.145415
10.121957
10.102394
10.086619
10.074192
10.064572
10.057476
10.052404
10.048295
10.043865
10.039178
10.03419
10.028861
10.023136
10.016947
10.010248
10.003096
9.9957662
9.9903289
9.9865254
9.9842117
9.9833491
9.983718
9.9847832
9.9863727
9.9890432
9.9930691
9.9959846
1523.7772
2480.7815
903.63035
564.65627
359.64818
274.88255
191.97551
155.96645
123.25392
102.35835
85.560745
72.672616
62.444609
54.257398
47.631985
42.195019
37.683267
33.912027
30.739567
28.051662
25.762274
23.798722
22.110137
20.646226
19.374674
18.260507
17.28127
16.417364
15.65386
14.976794
14.374324
13.838793
13.362667
12.939763
12.564093
12.229288
11.932337
11.669236
11.437051
11.233796
11.055853
10.901279
10.767711
10.652179
10.552624
10.467016
10.393319
10.330833
10.27787
10.233413
10.195643
10.163645
10.137214
10.115499
10.097485
10.082706
10.071086
10.062059
10.055368
10.050542
10.046048
10.041332
10.036372
10.031132
10.025571
10.019645
10.013296
10.006461
9.9992749
9.9928497
9.9882372
9.9850794
9.9832161
9.9826646
9.983387
9.9847398
9.986458
9.9891693
9.9934908
9.9966616
1542.481
2432.9392
871.97614
553.76665
348.16221
268.49343
187.07417
151.68635
120.06527
99.236374
82.777665
70.136602
60.154904
52.189103
45.764904
40.504677
36.158644
32.540036
29.505356
26.941189
24.764784
22.902226
21.305447
19.924634
18.726331
17.681474
16.765538
15.959167
15.24715
14.617268
14.057013
13.559266
13.116827
12.724004
12.375837
12.065666
11.790742
11.547349
11.332203
11.144042
10.979222
10.83581
10.712209
10.605428
10.513377
10.434391
10.366774
10.308898
10.259645
10.218505
10.183669
10.154218
10.129497
10.109322
10.092657
10.078979
10.068099
10.059622
10.053226
10.048528
10.043691
10.038695
10.033477
10.028001
10.022224
10.016106
10.009618
10.002759
9.9957371
9.9903674
9.9864956
9.9839446
9.9825431
9.9822215
9.9832168
9.9848008
9.9866971
9.9894565
9.993793
9.9972289
1560.6447
2396.946
840.05388
542.25298
336.40613
261.15694
182.02303
146.87898
116.33083
95.680139
79.617315
67.294895
57.612649
49.914103
43.717051
38.677179
34.52946
31.087526
28.211812
25.788431
23.738203
21.987697
20.487789
19.197149
18.080279
17.108352
16.258142
15.51072
14.850957
14.268438
13.750551
13.290481
12.88148
12.517947
12.195105
11.908826
11.655121
11.430884
11.233258
11.059525
10.907397
10.774587
10.660266
10.561761
10.476801
10.403844
10.341404
10.288113
10.242728
10.204588
10.172419
10.145213
10.122334
10.103499
10.088063
10.075409
10.065218
10.057281
10.051114
10.046357
10.041231
10.035965
10.030498
10.024801
10.018826
10.012534
10.005909
9.9990758
9.9928181
9.9882827
9.9850784
9.98306
9.9821227
9.9820409
9.9832047
9.9849183
9.986962
9.9898314
9.9940386
9.9977445
1577.8111
2355.4808
807.22379
529.77959
324.27796
252.63894
176.62904
141.42968
111.94247
91.629006
76.04654
64.126927
54.799331
47.418058
41.513625
36.734813
32.819516
29.580724
26.884067
24.617436
22.701371
21.072801
19.680472
18.484071
17.450818
16.55338
15.769487
15.081158
14.473079
13.935389
13.458803
13.035228
12.658536
12.32367
12.026314
11.762543
11.528825
11.322138
11.139919
10.979883
10.839957
10.718093
10.612354
10.521471
10.443104
10.375771
10.318106
10.268913
10.227116
10.191738
10.161984
10.136862
10.115723
10.09807
10.083686
10.071888
10.062412
10.055005
10.049113
10.044055
10.038689
10.033166
10.02746
10.021548
10.01539
10.008955
10.002262
9.9955492
9.9903769
9.9865788
9.9839712
9.9823848
9.9817873
9.982209
9.9833553
9.98511
9.9872125
9.9902236
9.9943368
9.9981652
1593.3122
2287.7571
772.74125
515.84352
311.01656
242.79149
170.57815
135.19977
106.8004
87.024575
72.03975
60.613574
51.7322
44.748524
39.190711
34.71605
31.066619
28.054394
25.549796
23.453093
21.684954
20.183916
18.902081
17.801598
16.852025
16.028111
15.30868
14.676147
14.118712
13.625487
13.188061
12.799099
12.452823
12.144595
11.870671
11.627757
11.412653
11.222427
11.054682
10.907173
10.778051
10.665702
10.568722
10.484742
10.412389
10.350197
10.296877
10.251312
10.21254
10.180009
10.152381
10.129083
10.10948
10.093083
10.079629
10.068567
10.05966
10.052691
10.047051
10.041674
10.036096
10.030339
10.024404
10.018281
10.011947
10.005381
9.9987029
9.992721
9.9883379
9.9852031
9.9831462
9.9820101
9.9816632
9.9823704
9.983656
9.9853979
9.9874956
9.9905973
9.994694
9.9985263
1606.0634
2219.1307
735.70085
499.87178
296.9685
231.42135
163.40023
128.02294
100.82828
81.837028
67.591057
56.795487
48.47267
41.964057
36.80749
32.673517
29.316789
26.545471
24.249475
22.329896
20.712977
19.341307
18.169949
17.163773
16.295079
15.541313
14.882028
14.303804
13.793647
13.341601
12.940523
12.583639
12.265615
11.982088
11.729618
11.505496
11.307252
11.131922
10.977413
10.841544
10.722456
10.619191
10.529357
10.451676
10.384709
10.327158
10.277801
10.235607
10.199717
10.169388
10.143681
10.121989
10.103755
10.088503
10.07589
10.06548
10.057032
10.050362
10.044888
10.039259
10.033493
10.027536
10.021392
10.015061
10.008559
10.001927
9.9953927
9.990408
9.9866925
9.9841105
9.9825129
9.9817868
9.9816348
9.9826344
9.9840313
9.9857782
9.9878702
9.9909675
9.9949806
9.9987073
1613.2765
2135.8623
695.87276
480.16582
281.87662
218.20995
154.62052
119.76192
94.02577
76.113384
62.783849
52.780153
45.117086
39.150711
34.437786
30.668346
27.615523
25.100312
23.016239
21.274628
19.807218
18.561676
17.497
16.581008
15.788339
15.098901
14.496465
13.967419
13.500738
13.086236
12.718032
12.390137
12.097735
11.836795
11.60396
11.396612
11.213374
11.051232
10.908407
10.783061
10.673384
10.577642
10.494405
10.422309
10.360097
10.306632
10.260813
10.221523
10.188287
10.159949
10.135908
10.115587
10.098521
10.084318
10.072455
10.062645
10.054612
10.048126
10.042681
10.03686
10.030926
10.024807
10.018498
10.011984
10.005295
9.9986221
9.9928135
9.9885251
9.9854077
9.9832925
9.9820487
9.981613
9.981968
9.9829267
9.9844344
9.9862042
9.9883288
9.9913944
9.9952711
9.9988347
1609.8008
2033.7088
652.74256
454.42478
265.56243
202.80856
143.9976
110.44086
86.54322
69.981058
57.803331
48.714751
41.784665
36.40379
32.158903
28.764521
26.016272
23.755984
21.879617
20.309421
18.984091
17.857038
16.891801
16.05966
15.337854
14.708325
14.156664
13.67107
13.241773
12.860857
12.521781
12.219453
11.949612
11.708753
11.493906
11.302526
11.132424
10.981785
10.848868
10.732117
10.630055
10.541163
10.463758
10.396657
10.338634
10.288663
10.246075
10.209511
10.178265
10.151688
10.129127
10.109986
10.093984
10.080525
10.069306
10.060019
10.052425
10.04612
10.040491
10.034543
10.028459
10.022198
10.015761
10.009148
10.002399
9.9957941
9.990793
9.9870528
9.984427
9.9827263
9.9818178
9.9815463
9.9821709
9.9832676
9.9848218
9.9866229
9.9888026
9.991836
9.9955479
9.9989467
1589.475
1902.9211
606.52265
421.97484
248.02948
185.01057
131.75228
100.38445
78.729504
63.764845
52.870303
44.764652
38.598768
33.816578
30.042513
27.018296
24.562679
22.544692
20.863208
19.451536
18.256078
17.236207
16.360201
15.602955
14.944349
14.368199
13.86166
13.414815
13.018987
12.667209
12.353465
12.07326
11.822776
11.598897
11.398998
11.220828
11.062405
10.921949
10.797833
10.688558
10.592817
10.50978
10.437435
10.374711
10.320495
10.273775
10.23364
10.199258
10.16977
10.144616
10.123386
10.105331
10.090061
10.077224
10.066506
10.057665
10.050333
10.044182
10.038402
10.032366
10.026175
10.019794
10.013228
10.006511
9.9997951
9.9937558
9.9892837
9.9859802
9.9837143
9.9823323
9.9817089
9.9815644
9.9823931
9.9835716
9.9851564
9.9869907
9.9892411
9.9922646
9.9958314
9.9990231
1543.4763
1743.2225
558.37806
383.60781
230.21021
165.0906
118.56871
90.21559
71.040989
57.788708
48.2094
41.090031
35.67633
31.473854
28.149889
25.476537
23.294751
21.491605
19.98515
18.714097
17.632803
16.706301
15.907379
15.214503
14.610323
14.080535
13.612644
13.198683
12.830936
12.503941
12.211695
11.95026
11.716213
11.506758
11.31953
11.152499
11.003879
10.872058
10.755556
10.652994
10.563079
10.484587
10.416338
10.357041
10.305723
10.261415
10.223304
10.190838
10.162957
10.139122
10.118794
10.101525
10.086892
10.074528
10.064233
10.055616
10.04845
10.042365
10.036459
10.030361
10.024116
10.017687
10.011063
10.004289
9.9976382
9.9923154
9.9882639
9.9853102
9.983298
9.9821147
9.9817024
9.9818226
9.9825891
9.9838243
9.9854079
9.9872634
9.9895609
9.9925674
9.9960439
9.9990806
1463.5915
1580.7647
509.28815
344.12177
206.25331
145.79162
105.38735
80.621671
63.933876
52.366651
44.036458
37.846299
33.128175
29.451625
26.529552
24.166643
22.22691
20.613761
19.257393
18.106614
17.122217
16.274355
15.539651
14.899564
14.339157
13.846258
13.410842
13.024608
12.68082
12.373869
12.09911
11.852887
11.63213
11.434306
11.257267
11.099157
10.958332
10.833293
10.722646
10.625077
10.53936
10.464412
10.399522
10.343081
10.294227
10.252047
10.215728
10.184534
10.1578
10.134882
10.115296
10.098613
10.084547
10.072601
10.062522
10.054056
10.04695
10.040841
10.03479
10.028595
10.022281
10.015826
10.009227
10.002533
9.996055
9.991272
9.9876056
9.9849701
9.9832006
9.9821817
9.9818245
9.982074
9.9828579
9.9840866
9.985642
9.9874889
9.9897608
9.9926338
9.9959227
9.9989154
1351.587
1493.4676
463.15027
296.72058
182.42148
127.66502
93.467367
72.124479
57.782466
47.792443
40.569699
35.184967
31.05812
27.820296
25.22843
23.117866
21.373956
19.914724
18.679349
17.625502
16.719402
15.935313
15.252919
14.655975
14.131309
13.668155
13.257606
12.892331
12.566381
12.275276
12.014089
11.77963
11.569085
11.380147
11.210853
11.059506
10.924598
10.804755
10.698694
10.605197
10.523093
10.451233
10.388492
10.333938
10.286623
10.245702
10.210403
10.180065
10.15422
10.132029
10.113059
10.096866
10.083077
10.071372
10.061463
10.053098
10.046023
10.039868
10.033678
10.027346
10.020886
10.014296
10.007602
10.000947
9.9949652
9.9905049
9.9871358
9.9847429
9.9831761
9.9823303
9.9820746
9.9824003
9.9832089
9.9844252
9.9859661
9.9878098
9.990042
9.9927613
9.9958358
9.9987747
1218.9631
1251.4985
422.97117
254.44248
160.25219
112.54486
83.601312
65.261239
52.919741
44.266389
37.962605
33.219984
29.55157
26.64737
24.302615
22.377986
20.776016
19.426849
18.279292
17.295024
16.444924
15.706325
15.061281
14.495297
13.996472
13.554907
13.162558
12.812669
12.499669
12.218955
11.966759
11.739938
11.535908
11.352504
11.187889
11.040467
10.908817
10.791642
10.687732
10.595955
10.515289
10.445003
10.383538
10.330057
10.283642
10.243473
10.208792
10.178918
10.153239
10.13122
10.112374
10.09628
10.08257
10.070921
10.061054
10.052719
10.045661
10.039509
10.033304
10.026932
10.02041
10.013728
10.006927
10.000208
9.9944558
9.9901474
9.9869205
9.9846531
9.9832012
9.9824695
9.982278
9.9826644
9.9835006
9.9847274
9.9862817
9.9881447
9.9903503
9.9929289
9.9957908
9.9986636
1099.6588
1113.5909
390.30492
223.72313
143.66407
101.41952
76.292379
60.261281
49.442804
41.791544
36.160979
31.884045
28.54505
25.879005
23.709634
21.916199
20.413638
19.140593
18.051845
17.113408
16.299239
15.588999
14.966512
14.418788
13.93568
13.50685
13.125032
12.783846
12.478049
12.203282
11.95595
11.733091
11.532252
11.351388
11.188761
11.042867
10.912361
10.796014
10.692674
10.60124
10.520657
10.44991
10.388038
10.334105
10.287242
10.246637
10.211544
10.181285
10.15525
10.132894
10.113737
10.097354
10.083375
10.071478
10.06138
10.052831
10.045588
10.039318
10.033229
10.026943
10.020533
10.013975
10.007299
10.000665
9.9947889
9.9904252
9.9871493
9.9848491
9.9833767
9.9826346
9.9824396
9.9828183
9.9836438
9.9848643
9.986429
9.9883106
9.9904981
9.9929766
9.9956968
9.9985654
1044.8533
1072.4637
366.04919
206.63873
132.79259
93.864917
70.843532
56.285793
46.479382
39.534033
34.407074
30.494711
27.427131
24.967557
22.958422
21.291411
19.889983
18.698758
17.676831
16.793415
16.024907
15.35286
14.762568
14.242063
13.781436
13.372392
13.007905
12.682057
12.389876
12.127216
11.890638
11.677302
11.48486
11.311358
11.155149
11.014809
10.88908
10.776814
10.676937
10.588427
10.510297
10.441596
10.381408
10.32886
10.283126
10.243434
10.209075
10.179401
10.153826
10.131826
10.112938
10.096753
10.082912
10.071101
10.061048
10.052509
10.045245
10.038929
10.032772
10.026429
10.019964
10.013359
10.006656
10.000057
9.994461
9.9902397
9.987074
9.9848431
9.9834139
9.9826951
9.9825073
9.982881
9.9836943
9.9849064
9.9864754
9.9883668
9.9905416
9.9929616
9.9956079
9.9984897
31315.611
78978.469
36903.693
10672.538
1404.869
611.52082
434.34579
350.72719
290.57832
236.38907
192.5908
159.30572
134.69611
116.44356
102.39953
90.919096
81.202906
72.910864
65.807975
59.681409
54.354029
49.690017
45.584206
41.951094
38.725279
35.842209
33.25645
30.927963
28.824845
26.921918
25.197704
23.63306
22.211273
20.917635
19.740597
18.670446
17.698435
16.816812
16.018502
15.297064
14.646885
14.062397
13.538531
13.070716
12.654462
12.285526
11.960075
11.674077
11.42385
11.20604
11.01737
10.854719
10.715107
10.596005
10.494899
10.409576
10.339759
10.285212
10.246085
10.225114
10.218089
10.215597
10.212754
10.209019
10.204738
10.199925
10.194322
10.186459
10.175354
10.162446
10.143263
10.12397
10.088276
10.072907
10.046638
10.051726
10.007029
10.023315
9.9815756
10.002011
19972.451
59263.036
24501.236
5061.1103
971.21226
528.97367
397.99045
321.5513
264.1698
212.84282
174.5294
145.68799
124.62388
108.83785
96.372722
85.916051
77.001402
69.383752
62.836322
57.160583
52.202189
47.844612
43.995502
40.578768
37.532458
34.803444
32.350253
30.135433
28.130833
26.313815
24.664556
23.165316
21.800706
20.55719
19.424439
18.393466
17.456107
16.605162
15.833995
15.136582
14.507678
13.941949
13.434635
12.981406
12.577946
12.220216
11.904555
11.62704
11.384162
11.172698
10.989473
10.83147
10.695814
10.580086
10.481853
10.39887
10.330529
10.277278
10.239365
10.219617
10.213176
10.210819
10.207985
10.204299
10.200086
10.195339
10.189975
10.182795
10.172367
10.159875
10.141256
10.122068
10.087452
10.072423
10.046485
10.052053
10.00809
10.024905
9.9824677
10.002866
28264.465
35206.523
13441.383
2538.6048
835.54392
499.12837
387.97418
306.26844
250.75533
201.26037
166.75208
139.59363
120.05659
105.16115
93.272064
83.225163
74.686875
67.392084
61.111194
55.657521
50.887639
46.691962
42.982413
39.686203
36.742464
34.103904
31.730339
29.585262
27.642586
25.880597
24.280176
22.824267
21.498168
20.288942
19.186957
18.183537
17.270847
16.442002
15.690604
15.01088
14.397799
13.846153
13.351387
12.909314
12.515724
12.166714
11.858736
11.58793
11.350916
11.144556
10.965745
10.811543
10.679167
10.566289
10.470402
10.389445
10.322314
10.270062
10.233079
10.214266
10.208259
10.206023
10.203221
10.1996
10.195461
10.190784
10.18547
10.178972
10.169267
10.15723
10.139212
10.120162
10.086629
10.072031
10.046243
10.052163
10.009132
10.026459
9.9833489
10.003725
35768.143
23922.793
8321.1655
1540.8408
753.99709
475.90447
375.57815
290.33512
239.55402
190.59087
159.7193
133.68048
115.71992
101.62498
90.309953
80.668156
72.494153
65.500768
59.469571
54.224863
49.632186
45.588368
42.009602
38.826408
35.981205
33.426108
31.127191
29.048064
27.164237
25.4547
23.901013
22.486743
21.197814
20.021832
18.94982
17.973341
17.084875
16.277817
15.545982
14.883826
14.286516
13.748945
13.266765
12.835912
12.452273
12.112078
11.811882
11.547884
11.316836
11.115677
10.94137
10.791057
10.662109
10.552061
10.458593
10.379699
10.313988
10.26276
10.22674
10.208877
10.203314
10.201202
10.198437
10.194887
10.190828
10.186225
10.180982
10.174908
10.165961
10.154411
10.137021
10.11811
10.085685
10.0716
10.045908
10.052054
10.010178
10.02798
9.9842352
10.004724
40261.976
20403.278
5858.951
1225.2282
719.85707
458.3817
365.86515
277.90323
231.40099
182.44173
154.73849
129.08669
112.44848
98.817294
87.929104
78.587009
70.696805
63.934546
58.097067
53.016197
48.564021
44.641831
41.168754
38.077701
35.31305
32.829528
30.591237
28.567712
26.733965
25.069397
23.556081
22.17805
20.921717
19.775105
18.729781
17.777429
16.9108
16.123506
15.409521
14.763489
14.180731
13.656213
13.185769
12.765423
12.391145
12.05928
11.766467
11.508953
11.283611
11.087443
10.917479
10.77094
10.645283
10.537998
10.44689
10.370017
10.305821
10.25556
10.220465
10.203389
10.198355
10.196363
10.193645
10.190172
10.186197
10.181672
10.176504
10.170637
10.162475
10.151446
10.13471
10.115931
10.08469
10.070808
10.045465
10.051655
10.011217
10.029439
9.9851259
10.0059
43047.896
19042.496
4507.7771
1153.6113
699.5396
440.07235
358.37311
268.11485
225.15894
175.93347
150.83097
125.19968
109.74612
96.396931
85.878513
76.781429
69.12954
62.558958
56.884402
51.942349
47.610032
43.792156
40.410177
37.398943
34.704568
32.283139
30.098805
28.124448
26.335128
24.710715
23.233644
21.888319
20.661564
19.54175
18.520917
17.590798
16.744402
15.975508
15.278218
14.647343
14.078323
13.566177
13.10691
12.696609
12.331312
12.007471
11.721794
11.470567
11.250778
11.059486
10.89379
10.751021
10.628514
10.52395
10.435179
10.360306
10.297746
10.248414
10.214226
10.197955
10.193399
10.191512
10.188847
10.185459
10.181572
10.177128
10.172037
10.166208
10.158802
10.148328
10.132266
10.113634
10.083611
10.069554
10.044929
10.050938
10.012211
10.030835
9.9860245
10.00703
45257.865
17138.611
3618.9451
1103.0422
684.33414
427.45306
352.47458
260.25512
220.32082
170.7512
147.7221
121.93073
107.50582
94.309038
84.11116
75.212355
67.759832
61.348504
55.810999
50.986491
46.756395
43.028008
39.724624
36.782633
34.149524
31.782643
29.647455
27.715386
25.965355
24.376803
22.932289
21.616495
20.416586
19.32122
18.322853
17.413209
16.585545
15.833762
15.152069
14.535418
13.979347
13.478911
13.030269
12.629551
12.272857
11.956731
11.677935
11.432792
11.218403
11.031882
10.870435
10.731229
10.611829
10.509949
10.423484
10.350592
10.289758
10.241333
10.208033
10.192599
10.188444
10.186653
10.18405
10.180752
10.176955
10.172595
10.167583
10.161839
10.154945
10.145061
10.129689
10.11125
10.082375
10.068169
10.044325
10.050061
10.013147
10.032174
9.9869296
10.00789
46889.839
14503.291
3049.107