/*--------------------------------*- C++ -*----------------------------------*\
  =========                 |
  \\      /  F ield         | OpenFOAM: The Open Source CFD Toolbox
   \\    /   O peration     | Website:  https://openfoam.org
    \\  /    A nd           | Version:  12
     \\/     M anipulation  |
\*---------------------------------------------------------------------------*/
FoamFile
{
    format      ascii;
    class       volScalarField;
    location    "0.129";
    object      p;
}
// * * * * * * * * * * * * * * * * * * * * * * * * * * * * * * * * * * * * * //

dimensions      [1 -1 -2 0 0 0 0];

internalField   nonuniform List<scalar> 
16000
(
89809.51
89935.091
89946.844
90080.879
90106.891
90233.862
90284.079
90400.422
90473.892
90584.555
90676.216
90786.746
90892.416
91007.206
91123.859
91245.931
91372.039
91502.783
91638.039
91777.895
91922.357
92071.43
92225.094
92383.306
92545.997
92713.071
92884.4
93059.829
93239.166
93422.188
93608.637
93798.22
93990.612
94185.454
94382.353
94580.892
94780.624
94981.083
95181.781
95382.221
95581.897
95780.299
95976.922
96171.272
96362.868
96551.249
96735.982
96916.661
97092.914
97264.407
97430.844
97591.97
97747.57
97897.47
98041.536
98179.672
98311.823
98437.966
98558.113
98672.307
98780.62
98883.144
98979.994
99071.301
99157.207
99237.859
99313.408
99384.002
99449.787
99510.907
99567.513
99619.777
99667.903
99712.133
99752.72
99790.106
99825.784
99847.676
99910.146
99864.424
89443.058
89585.491
89594.731
89740.81
89768.455
89906.328
89958.912
90086.516
90163.783
90284.535
90382.547
90501.977
90615.911
90739.508
90865.36
90996.851
91132.785
91273.643
91419.345
91569.946
91725.439
91885.803
92050.988
92220.918
92395.485
92574.549
92757.937
92945.442
93136.819
93331.786
93530.027
93731.185
93934.872
94140.664
94348.106
94556.719
94765.998
94975.42
95184.451
95392.551
95599.179
95803.802
96005.899
96204.969
96400.537
96592.157
96779.421
96961.955
97139.432
97311.564
97478.11
97638.87
97793.69
97942.456
98085.093
98221.565
98351.868
98476.031
98594.112
98706.194
98812.385
98912.807
99007.602
99096.924
99180.935
99259.801
99333.688
99402.759
99467.166
99527.058
99582.579
99633.876
99681.108
99724.485
99764.291
99800.919
99833.508
99863.23
99904.911
99882.453
89107.809
89265.647
89274.802
89434.072
89461.694
89613.252
89667.428
89807.291
89889.354
90020.551
90126.271
90255.222
90378.669
90512.073
90648.311
90790.413
90937.39
91089.6
91246.978
91409.535
91577.237
91750.026
91927.813
92110.479
92297.87
92489.795
92686.027
92886.297
93090.299
93297.684
93508.064
93721.012
93936.066
94152.729
94370.476
94588.759
94807.01
95024.652
95241.104
95455.785
95668.128
95877.585
96083.631
96285.773
96483.556
96676.569
96864.444
97046.861
97223.551
97394.293
97558.916
97717.294
97869.344
98015.027
98154.339
98287.308
98413.995
98534.484
98648.882
98757.317
98859.933
98956.884
99048.333
99134.456
99215.43
99291.434
99362.647
99429.24
99491.374
99549.2
99602.862
99652.483
99698.192
99740.2
99778.729
99813.721
99845.047
99876.318
99905.424
99901.523
88806.873
88975.456
88985.642
89160.203
89187.308
89355.043
89411.432
89565.55
89653.389
89796.593
89911.524
90051.373
90185.971
90330.656
90478.807
90632.999
90792.449
90957.394
91127.77
91303.553
91484.678
91671.049
91862.537
92058.975
92260.156
92465.83
92675.703
92889.434
93106.639
93326.887
93549.706
93774.582
94000.967
94228.28
94455.918
94683.258
94909.669
95134.518
95357.182
95577.052
95793.544
96006.109
96214.237
96417.464
96615.377
96807.617
96993.882
97173.926
97347.561
97514.65
97675.11
97828.902
97976.033
98116.546
98250.516
98378.047
98499.266
98614.319
98723.364
98826.574
98924.129
99016.213
99103.011
99184.714
99261.511
99333.587
99401.125
99464.3
99523.273
99578.199
99629.215
99676.425
99719.95
99759.999
99796.609
99829.539
99859.833
99889.544
99910.93
99920.309
88543.96
88727.412
88734.371
88927.616
88953.654
89139.774
89198.341
89368.575
89463.485
89620.132
89746.08
89898.043
90045.331
90202.558
90363.876
90531.362
90704.446
90883.275
91067.787
91257.929
91453.599
91654.66
91860.929
92072.174
92288.117
92508.426
92732.719
92960.562
93191.468
93424.906
93660.299
93897.032
94134.457
94371.9
94608.672
94844.078
95077.426
95308.037
95535.257
95758.466
95977.085
96190.588
96398.504
96600.425
96796.006
96984.971
97167.108
97342.267
97510.363
97671.365
97825.29
97972.205
98112.212
98245.446
98372.068
98492.258
98606.212
98714.136
98816.24
98912.737
99003.842
99089.765
99170.708
99246.873
99318.454
99385.637
99448.602
99507.518
99562.542
99613.825
99661.488
99705.622
99746.359
99783.873
99817.977
99848.559
99877.482
99904.126
99920.003
99939.849
88323.897
88524.922
88529.755
88743.992
88768.921
88975.409
89036.258
89224.308
89327.523
89498.396
89636.624
89801.235
89962.145
90132.752
90308.187
90490.039
90677.915
90871.88
91071.847
91277.707
91489.298
91706.408
91928.769
92156.057
92387.889
92623.825
92863.365
93105.954
93350.981
93597.792
93845.686
94093.933
94341.776
94588.445
94833.168
95075.184
95313.752
95548.168
95777.771
96001.956
96220.18
96431.973
96636.936
96834.751
97025.176
97208.043
97383.261
97550.803
97710.704
97863.056
98007.995
98145.696
98276.366
98400.234
98517.548
98628.562
98733.538
98832.736
98926.413
99014.818
99098.194
99176.77
99250.761
99320.373
99385.8
99447.222
99504.81
99558.72
99609.098
99656.079
99699.764
99740.232
99777.631
99812.058
99843.133
99871.093
99898.149
99920.744
99932.25
99961.033
88147.199
88369.026
88371.088
88609.876
88633.81
88864.42
88928.464
89135.902
89247.443
89431.881
89583.301
89761.161
89937.019
90122.505
90313.732
90511.787
90716.359
90927.405
91144.771
91368.259
91597.612
91832.511
92072.573
92317.349
92566.323
92818.914
93074.478
93332.31
93591.657
93851.717
94111.659
94370.625
94627.752
94882.178
95133.064
95379.601
95621.029
95856.648
96085.828
96308.018
96522.754
96729.663
96928.461
97118.957
97301.047
97474.709
97639.995
97797.025
97945.973
98087.064
98220.56
98346.75
98465.943
98578.461
98684.63
98784.774
98879.21
98968.246
99052.174
99131.271
99205.798
99275.997
99342.087
99404.272
99462.739
99517.658
99569.183
99617.452
99662.593
99704.719
99743.9
99780.21
99813.803
99844.655
99872.263
99897.371
99922.063
99939.873
99947.743
99984.574
88007.997
88254.255
88252.036
88520.405
88541.232
88798.565
88865.71
89092.16
89215.258
89415.672
89583.934
89777.857
89971.672
90174.943
90384.745
90601.74
90825.651
91056.333
91293.538
91536.961
91786.222
92040.866
92300.363
92564.105
92831.41
93101.525
93373.631
93646.853
93920.269
94192.925
94463.847
94732.06
94996.604
95256.548
95511.013
95759.184
96000.321
96233.778
96459.007
96675.564
96883.116
97081.437
97270.407
97450.004
97620.298
97781.44
97933.652
98077.213
98212.45
98339.723
98459.417
98571.933
98677.673
98777.042
98870.43
98958.219
99040.768
99118.417
99191.484
99260.26
99325.016
99385.992
99443.407
99497.455
99548.31
99596.124
99641.031
99683.147
99722.578
99759.401
99793.659
99825.425
99854.834
99881.701
99905.514
99927.603
99949.447
99961.915
99966.935
100011.07
87904.347
88178.852
88172.237
88477.269
88492.217
88778.152
88850.574
89098.891
89238.714
89457.616
89646.387
89859.292
90074.127
90298.281
90529.658
90768.57
91014.709
91267.803
91527.477
91793.276
92064.656
92340.985
92621.544
92905.523
93192.035
93480.12
93768.757
94056.875
94343.377
94627.151
94907.095
95182.133
95451.243
95713.467
95967.936
96213.884
96450.659
96677.733
96894.707
97101.311
97297.404
97482.962
97658.076
97822.933
97977.808
98123.047
98259.053
98386.27
98505.174
98616.255
98720.011
98816.936
98907.512
98992.205
99071.457
99145.683
99215.272
99280.578
99341.928
99399.615
99453.906
99505.034
99553.203
99598.592
99641.354
99681.621
99719.501
99755.086
99788.453
99819.644
99848.674
99875.618
99900.558
99923.127
99942.947
99961.925
99980.415
99987.073
99990.075
100041.19
87838.827
88146.324
88136.588
88478.536
88492.61
88810.639
88894.376
89167.894
89327.592
89566.969
89779.88
90014.961
90254.076
90502.51
90758.761
91022.831
91294.308
91572.753
91857.609
92148.223
92443.833
92743.575
93046.484
93351.504
93657.498
93963.264
94267.555
94569.099
94866.625
95158.883
95444.674
95722.872
95992.447
96252.486
96502.21
96740.984
96968.33
97183.924
97387.597
97579.325
97759.222
97927.521
98084.561
98230.769
98366.637
98492.714
98609.578
98717.832
98818.08
98910.926
98996.955
99076.733
99150.796
99219.647
99283.756
99343.552
99399.43
99451.744
99500.812
99546.916
99590.305
99631.195
99669.767
99706.177
99740.554
99773.002
99803.603
99832.423
99859.505
99884.854
99908.468
99930.422
99950.697
99968.768
99984.547
100000.37
100014.96
100015.52
100017.55
100075.47
87818.068
88164.773
88151.098
88533.401
88551.33
88905.691
89004.384
89305.001
89490.271
89752.98
89994.264
90255.466
90522.604
90799.132
91083.906
91376.645
91676.762
91983.592
92296.331
92614.053
92935.708
93260.128
93586.042
93912.092
94236.855
94558.867
94876.65
95188.746
95493.74
95790.299
96077.194
96353.332
96617.776
96869.761
97108.711
97334.237
97546.138
97744.392
97929.145
98100.687
98259.44
98405.927
98540.758
98664.599
98778.161
98882.174
98977.373
99064.488
99144.224
99217.263
99284.248
99345.782
99402.427
99454.696
99503.058
99547.937
99589.712
99628.717
99665.248
99699.563
99731.882
99762.391
99791.244
99818.567
99844.459
99868.995
99892.229
99914.197
99934.908
99954.332
99972.464
99989.362
100004.87
100018.37
100030.21
100042.87
100053.01
100047.55
100049.9
100113.79
87850.811
88244.154
88226.576
88656.706
88679.543
89073.428
89191.561
89521.119
89737.705
90027.062
90301.084
90592.894
90892.254
91201.122
91518.464
91843.687
92175.929
92514.201
92857.352
93204.085
93552.971
93902.466
94250.934
94596.678
94937.974
95273.1
95600.382
95918.226
96225.159
96519.862
96801.204
97068.26
97320.334
97556.96
97777.904
97983.151
98172.891
98347.495
98507.487
98653.52
98786.342
98906.774
99015.68
99113.95
99202.472
99282.123
99353.752
99418.172
99476.147
99528.396
99575.579
99618.304
99657.123
99692.532
99724.977
99754.85
99782.498
99808.219
99832.273
99854.879
99876.224
99896.455
99915.692
99934.028
99951.527
99968.234
99984.174
99999.352
100013.74
100027.29
100039.99
100051.87
100062.6
100071.59
100079.72
100089.18
100094.46
100083.65
100087.58
100155.67
87938.123
88386.939
88366.032
88850.658
88881.861
89319.08
89464.208
89825.289
90080.302
90401.068
90712.952
91040.806
91377.412
91723.531
92078.002
92439.815
92807.693
93180.191
93555.689
93932.419
94308.488
94681.917
95050.674
95412.72
95766.05
96108.749
96439.033
96755.305
97056.188
97340.562
97607.584
97856.701
98087.646
98300.424
98495.292
98672.727
98833.395
98978.111
99107.806
99223.488
99326.217
99417.071
99497.125
99567.431
99629.003
99682.805
99729.743
99770.659
99806.327
99837.457
99864.689
99888.598
99909.697
99928.44
99945.224
99960.394
99974.246
99987.032
99998.963
100010.22
100020.93
100031.21
100041.15
100050.79
100060.17
100069.3
100078.17
100086.76
100095.01
100102.85
100110.3
100117.28
100123.32
100128
100132.74
100138.96
100139.1
100124.21
100130.94
100200.67
88085.091
88599.767
88576.144
89122.676
89168.567
89653.056
89834.446
90230.397
90531.609
90890.099
91245.892
91616.245
91996.006
92384.878
92781.294
93183.663
93590.127
93998.649
94407.029
94812.939
95213.971
95607.684
95991.662
96363.579
96721.263
97062.757
97386.379
97690.765
97974.899
98238.129
98480.159
98701.039
98901.124
99081.043
99241.65
99383.976
99509.184
99618.524
99713.294
99794.808
99864.361
99923.215
99972.576
100013.58
100047.3
100074.7
100096.7
100114.11
100127.65
100138
100145.73
100151.36
100155.33
100158.04
100159.82
100160.94
100161.65
100162.14
100162.57
100163.06
100163.7
100164.57
100165.71
100167.12
100168.8
100170.75
100172.92
100175.26
100177.67
100180.1
100182.55
100184.85
100186.4
100187.1
100188.81
100191.72
100186.54
100168.85
100179.84
100248.36
88298.341
88891.787
88867.316
89484.193
89551.978
90087.782
90316.66
90752.653
91109.035
91513.713
91920.874
92341.211
92770.621
93207.758
93650.397
94096.204
94542.599
94986.834
95426.031
95857.244
96277.532
96684.042
97074.096
97445.281
97795.526
98123.161
98426.965
98706.177
98960.491
99190.033
99395.311
99577.169
99736.715
99875.27
99994.297
100095.35
100180.03
100249.94
100306.64
100351.63
100386.35
100412.14
100430.24
100441.78
100447.8
100449.23
100446.91
100441.57
100433.87
100424.38
100413.61
100401.97
100389.83
100377.51
100365.26
100353.29
100341.78
100330.85
100320.6
100311.12
100302.44
100294.59
100287.57
100281.35
100275.91
100271.2
100267.15
100263.67
100260.66
100258.07
100255.88
100253.78
100251.15
100248.31
100247.36
100246.9
100236.3
100216.89
100233.38
100297.99
88584.195
89271.751
89249.275
89946.042
90046.978
90639.932
90930.929
91415.483
91837.532
92298.669
92765.477
93243.321
93728.303
94217.999
94709.322
95199.027
95683.644
96159.583
96623.218
97071.003
97499.6
97905.997
98287.62
98642.422
98968.932
99266.28
99534.18
99772.893
99983.159
100166.12
100323.25
100456.23
100566.94
100657.31
100729.33
100784.93
100826.01
100854.36
100871.68
100879.53
100879.35
100872.44
100859.99
100843.04
100822.53
100799.29
100774.03
100747.39
100719.91
100692.04
100664.19
100636.69
100609.79
100583.74
100558.7
100534.82
100512.2
100490.9
100470.97
100452.45
100435.32
100419.56
100405.14
100392.01
100380.1
100369.33
100359.63
100350.86
100342.93
100335.8
100329.37
100323.23
100316.83
100310.96
100307.66
100303.82
100288.1
100267.58
100289.98
100350.63
88950.083
89750.065
89735.087
90526.773
90677.842
91337.963
91708.169
92252.105
92750.401
93278.346
93812.466
94354.028
94898.637
95442.598
95981.651
96511.367
97027.205
97524.694
97999.602
98448.123
98867.029
99253.79
99606.645
99924.624
100207.52
100455.81
100670.59
100853.43
101006.29
101131.37
101231.05
101307.78
101363.99
101402.07
101424.28
101432.77
101429.52
101416.35
101394.93
101366.73
101333.08
101295.16
101254.01
101210.53
101165.51
101119.61
101073.43
101027.44
100982.07
100937.66
100894.48
100852.77
100812.7
100774.4
100737.98
100703.51
100671.01
100640.51
100612
100585.44
100560.81
100538.04
100517.05
100497.77
100480.11
100463.97
100449.23
100435.77
100423.48
100412.31
100402.11
100392.36
100382.7
100374.34
100368.93
100361.8
100341.85
100320.76
100348.73
100406.63
89415.556
90354.052
90357.948
91264.311
91483.092
92220.632
92687.331
93301.8
93885.836
94490.109
95097.912
95707.094
96311.92
96906.933
97486.315
98044.317
98575.486
99074.935
99538.569
99963.246
100346.87
100688.4
100987.8
101245.92
101464.38
101645.35
101791.47
101905.63
101990.89
102050.31
102086.92
102103.62
102103.15
102088.04
102060.61
102022.96
101976.98
101924.36
101866.56
101804.89
101740.48
101674.3
101607.19
101539.87
101472.94
101406.91
101342.21
101279.17
101218.09
101159.17
101102.59
101048.48
100996.92
100947.97
100901.65
100857.97
100816.9
100778.4
100742.43
100708.9
100677.75
100648.87
100622.18
100597.56
100574.9
100554.08
100534.97
100517.42
100501.36
100486.71
100473.21
100460.32
100447.98
100437.67
100430.31
100419.96
100397.01
100377.17
100409.88
100463.62
90013.07
91127.643
91160.722
92200.323
92505.462
93328.286
93910.149
94608.632
95287.868
95976.869
96661.847
97337.149
97994.874
98627.539
99227.963
99789.773
100307.71
100777.85
101197.71
101566.28
101883.82
102151.81
102372.6
102549.27
102685.39
102784.76
102851.31
102888.93
102901.36
102892.12
102864.49
102821.47
102765.73
102699.7
102625.51
102545.01
102459.85
102371.43
102280.96
102189.49
102097.88
102006.89
101917.12
101829.09
101743.22
101659.84
101579.22
101501.57
101427.05
101355.75
101287.74
101223.07
101161.74
101103.73
101048.99
100997.48
100949.12
100903.82
100861.5
100822.04
100785.34
100751.27
100719.71
100690.54
100663.62
100638.82
100615.99
100594.99
100575.74
100558.14
100541.84
100526.34
100511.91
100500.13
100490.95
100477.55
100452.81
100436.26
100472.84
100519.57
90771.921
92098.64
92175.399
93367.424
93792.628
94712.631
95431.093
96230.084
97011.904
97787.798
98543.458
99269.694
99956.687
100596.01
101180.8
101706.15
102169.18
102568.99
102906.48
103184.03
103405.16
103574.21
103696.03
103775.66
103818.17
103828.47
103811.18
103770.59
103710.59
103634.68
103545.97
103447.19
103340.71
103228.58
103112.57
102994.19
102874.71
102755.21
102636.59
102519.58
102404.82
102292.78
102183.88
102078.42
101976.66
101878.76
101784.85
101695.01
101609.28
101527.67
101450.16
101376.7
101307.24
101241.68
101179.94
101121.91
101067.48
101016.51
100968.9
100924.49
100883.16
100844.75
100809.14
100776.17
100745.71
100717.59
100691.66
100667.8
100645.94
100625.89
100607.26
100589.7
100573.76
100560.89
100550.01
100534
100508.73
100496.47
100535.13
100572.67
91721.538
93313.348
93470.159
94831.942
95422.664
96455.778
97327.775
98237.657
99116.466
99962.315
100759.39
101496.75
102165.26
102758.71
103273.83
103710.14
104069.55
104355.91
104574.47
104731.38
104833.26
104886.82
104898.61
104874.82
104821.16
104742.8
104644.36
104529.88
104402.91
104266.49
104123.24
103975.37
103824.77
103673
103521.37
103370.98
103222.71
103077.29
102935.31
102797.22
102663.4
102534.11
102409.55
102289.86
102175.14
102065.41
101960.68
101860.92
101766.09
101676.09
101590.85
101510.24
101434.15
101362.45
101294.99
101231.64
101172.24
101116.64
101064.69
101016.24
100971.11
100929.16
100890.22
100854.15
100820.78
100789.96
100761.52
100735.36
100711.38
100689.35
100668.86
100649.74
100632.77
100619.04
100606.59
100588.67
100564.03
100555.67
100593.62
100622.33
92944.787
94871.628
95153.108
96705.244
97508.778
98663.688
99684.404
100690.05
101629.27
102493.46
103268.97
103948.13
104527.3
105006.85
105390.45
105684.26
105896.1
106034.74
106109.29
106128.67
106101.38
106035.2
105937.16
105813.47
105669.51
105509.96
105338.77
105159.29
104974.36
104786.3
104597.07
104408.26
104221.19
104036.9
103856.26
103679.93
103508.45
103342.22
103181.54
103026.63
102877.62
102734.61
102597.61
102466.63
102341.62
102222.5
102109.18
102001.55
101899.47
101802.8
101711.39
101625.08
101543.69
101467.07
101395.04
101327.42
101264.03
101204.71
101149.27
101097.55
101049.37
101004.56
100962.95
100924.38
100888.69
100855.69
100825.26
100797.29
100771.64
100748.02
100726.09
100705.87
100688.24
100673.79
100659.91
100640.7
100617.42
100612.19
100647.68
100669.39
94573.258
96914.059
97374.875
99115.753
100167.24
101429.48
102547.02
103582.49
104498.34
105288.38
105948.37
106480.44
106891.15
107190.3
107389.64
107501.76
107539.25
107514.07
107437.21
107318.46
107166.41
106988.44
106790.8
106578.74
106356.65
106128.12
105896.13
105663.07
105430.91
105201.21
104975.21
104753.9
104538.06
104328.25
104124.93
103928.41
103738.9
103556.54
103381.39
103213.47
103052.73
102899.11
102752.49
102612.77
102479.79
102353.39
102233.4
102119.63
102011.9
101910.02
101813.78
101722.99
101637.44
101556.94
101481.29
101410.29
101343.74
101281.46
101223.25
101168.94
101118.32
101071.24
101027.51
100986.96
100949.42
100914.72
100882.74
100853.36
100826.39
100801.55
100778.56
100757.63
100739.57
100724.45
100709.29
100689.41
100668.17
100665.78
100697.76
100712.13
96797.056
99601.807
100304.14
102185.21
103447.44
104756.86
105855.35
106793.86
107559.41
108157.73
108599.8
108901.31
109080.1
109154.47
109142
109058.79
108919.09
108735.2
108517.51
108274.7
108013.88
107740.88
107460.4
107176.21
106891.32
106608.1
106328.43
106053.77
105785.22
105523.65
105269.67
105023.75
104786.19
104557.17
104336.82
104125.14
103922.12
103727.67
103541.67
103363.98
103194.42
103032.81
102878.95
102732.62
102593.6
102461.66
102336.58
102218.12
102106.06
102000.16
101900.18
101805.92
101717.13
101633.61
101555.12
101481.47
101412.44
101347.83
101287.43
101231.06
101178.53
101129.65
101084.24
101042.13
101003.14
100967.11
100933.93
100903.44
100875.46
100849.68
100825.96
100804.6
100786.24
100770.42
100754.17
100734.3
100715.66
100715.5
100742.34
100749.01
99868.78
103049.59
104058.64
106005.85
107309.78
108473.42
109387.16
110075.67
110556.56
110856.39
111002.96
111023.64
110943.41
110784.14
110564.37
110299.42
110001.76
109681.4
109346.27
109002.6
108655.28
108308.07
107963.88
107624.91
107292.85
106968.92
106654.02
106348.78
106053.65
105768.87
105494.58
105230.81
104977.53
104734.62
104501.93
104279.29
104066.47
103863.23
103669.33
103484.51
103308.49
103141.01
102981.79
102830.56
102687.03
102550.95
102422.04
102300.03
102184.67
102075.7
101972.86
101875.91
101784.61
101698.73
101618.03
101542.29
101471.3
101404.84
101342.72
101284.72
101230.66
101180.35
101133.61
101090.25
101050.12
101013.05
100978.91
100947.56
100918.77
100892.3
100868.08
100846.45
100827.76
100811.23
100794.23
100775.02
100759.04
100759.92
100780.67
100780.82
104046.86
107441.46
108653.3
110339.42
111461.87
112290.43
112823.93
113116.87
113213.67
113157.23
112983.86
112723.66
112400.76
112034.13
111638.44
111224.91
110802.05
110376.25
109952.27
109533.64
109122.92
108721.96
108332.06
107954.1
107588.65
107236.04
106896.41
106569.77
106256.03
105955.02
105666.52
105390.25
105125.93
104873.24
104631.84
104401.41
104181.59
103972.06
103772.45
103582.45
103401.7
103229.89
103066.69
102911.78
102764.86
102625.62
102493.76
102369.01
102251.07
102139.68
102034.57
101935.48
101842.16
101754.37
101671.87
101594.42
101521.82
101453.85
101390.29
101330.94
101275.61
101224.11
101176.26
101131.87
101090.78
101052.84
101017.91
100985.83
100956.38
100929.37
100904.8
100882.91
100863.82
100846.64
100829.41
100811.48
100797.73
100797.73
100811.11
100807.75
109261.46
112619.79
113735.95
114860.84
115471.92
115756.71
115779.41
115613.14
115311.74
114917.46
114461.68
113967.53
113451.78
112926.51
112400.31
111879.25
111367.55
110868.1
110382.83
109912.96
109459.23
109021.98
108601.33
108197.18
107809.31
107437.41
107081.11
106739.99
106413.6
106101.49
105803.19
105518.24
105246.18
104986.56
104738.93
104502.85
104277.91
104063.68
103859.78
103665.82
103481.41
103306.2
103139.83
102981.96
102832.26
102690.4
102556.08
102429
102308.85
102195.37
102088.28
101987.31
101892.2
101802.7
101718.58
101639.6
101565.54
101496.18
101431.32
101370.73
101314.24
101261.65
101212.77
101167.44
101125.48
101086.74
101051.08
101018.33
100988.29
100960.83
100935.93
100913.73
100894.15
100876.46
100859.43
100842.99
100830.63
100828.21
100834.53
100829.33
115463.29
117969.64
118579.75
118861.82
118769.91
118444.44
117964.47
117390.33
116762.44
116108.19
115445.76
114787.12
114140
113509.34
112898.13
112308.09
111740.09
111194.39
110670.89
110169.23
109688.88
109229.22
108789.57
108369.21
107967.44
107583.53
107216.78
106866.52
106532.09
106212.85
105908.2
105617.56
105340.35
105076.06
104824.16
104584.16
104355.6
104138.03
103931
103734.11
103546.96
103369.16
103200.35
103040.16
102888.26
102744.3
102607.99
102478.99
102357.03
102241.8
102133.04
102030.47
101933.83
101842.88
101757.36
101677.05
101601.72
101531.15
101465.14
101403.47
101345.96
101292.4
101242.63
101196.45
101153.72
101114.27
101077.96
101044.6
101014.05
100986.19
100960.97
100938.39
100918.3
100900.21
100883.51
100868.46
100857.06
100851.95
100851.59
100845.27
122070.62
122511.84
122296.55
121751.77
121025.52
120207.37
119353.15
118494.49
117649.83
116829.35
116038.45
115279.65
114553.77
113860.63
113199.43
112569.08
111968.3
111395.77
110850.14
110330.09
109834.36
109361.75
108911.12
108481.39
108071.55
107680.67
107307.85
106952.26
106613.11
106289.68
105981.27
105687.22
105406.93
105139.81
104885.31
104642.91
104412.11
104192.43
103983.43
103784.67
103595.74
103416.25
103245.82
103084.08
102930.68
102785.29
102647.59
102517.26
102394.01
102277.54
102167.57
102063.83
101966.07
101874.02
101787.46
101706.13
101629.82
101558.32
101491.4
101428.87
101370.53
101316.19
101265.67
101218.79
101175.4
101135.33
101098.43
101064.54
101033.52
101005.27
100979.69
100956.68
100936.09
100917.67
100901.3
100887.19
100875.96
100868.11
100862.78
100856.86
125930.96
125309.35
124399.47
123353.55
122275.59
121209.43
120177.63
119189.45
118248.33
117354.52
116506.73
115702.93
114940.78
114217.86
113531.8
112880.33
112261.33
111672.83
111113.01
110580.19
110072.84
109589.53
109128.96
108689.93
108271.33
107872.13
107491.38
107128.2
106781.76
106451.31
106136.12
105835.52
105548.89
105275.62
105015.15
104766.96
104530.54
104305.41
104091.12
103887.22
103693.32
103509
103333.89
103167.63
103009.86
102860.25
102718.47
102584.2
102457.16
102337.04
102223.56
102116.46
102015.47
101920.34
101830.82
101746.68
101667.69
101593.63
101524.3
101459.48
101398.97
101342.59
101290.16
101241.5
101196.44
101154.81
101116.47
101081.27
101049.06
101019.75
100993.2
100969.26
100947.78
100928.74
100912.23
100898.31
100886.69
100876.76
100868.53
100863.32
103957.17
103930.5
103978.71
104026.97
104062.62
104072.33
104054.88
104025.35
103989.9
103945.15
103886.71
103815.16
103734.35
103649.13
103560.23
103467.74
103371.97
103273.41
103172.49
103069.59
102965.07
102859.27
102752.53
102645.13
102537.35
102429.44
102321.63
102214.14
102107.17
102000.92
101895.56
101791.27
101688.21
101586.53
101486.39
101387.94
101291.31
101196.65
101104.11
101013.8
100925.89
100840.49
100757.75
100677.79
100600.74
100526.73
100455.89
100388.33
100324.17
100263.5
100206.42
100153.01
100103.35
100057.47
100015.43
99977.236
99942.88
99912.338
99885.566
99862.493
99843.029
99827.058
99814.449
99805.033
99798.67
99795.068
99794.245
99795.41
99799.554
99803.766
99813.166
99816.99
99834.577
99831.88
99864.82
99841.943
99903.148
99846.385
99947.937
99849.388
103318.93
103312.8
103326.61
103342.69
103341.34
103333.85
103322.82
103305.11
103275.74
103240.65
103198.67
103151.59
103098.65
103040.99
102978.65
102912.3
102842.17
102768.61
102691.93
102612.44
102530.45
102446.23
102360.08
102272.28
102183.08
102092.77
102001.58
101909.77
101817.59
101725.26
101633
101541.05
101449.61
101358.89
101269.09
101180.41
101093.05
101007.18
100922.99
100840.66
100760.37
100682.28
100606.57
100533.38
100462.89
100395.25
100330.58
100269.04
100210.75
100155.83
100104.37
100056.48
100012.21
99971.636
99934.782
99901.664
99872.271
99846.572
99824.512
99806.013
99790.973
99779.266
99770.75
99765.253
99762.614
99762.561
99765.058
99769.413
99776.415
99783.545
99795.195
99801.913
99820.836
99821.161
99854.164
99835.286
99895.478
99841.679
99944.401
99844.512
102902.8
102887.18
102858.52
102828.43
102799.05
102771.63
102739.62
102708.29
102673.33
102637.86
102598.42
102557.62
102513.26
102466.82
102417.33
102365.33
102310.63
102253.4
102193.68
102131.57
102067.21
102000.71
101932.23
101861.93
101789.97
101716.53
101641.79
101565.96
101489.24
101411.81
101333.91
101255.73
101177.49
101099.4
101021.68
100944.54
100868.2
100792.87
100718.76
100646.07
100575
100505.77
100438.55
100373.55
100310.93
100250.88
100193.57
100139.15
100087.76
100039.54
99994.601
99953.046
99914.953
99880.383
99849.372
99821.934
99798.057
99777.702
99760.811
99747.297
99737.049
99729.936
99725.805
99724.479
99725.788
99729.469
99735.453
99743.119
99753.115
99763.206
99777.261
99786.798
99807.308
99810.34
99843.909
99828.46
99888.099
99837.066
99940.897
99839.948
102310
102287.37
102258.8
102227.32
102196.07
102168.32
102136.18
102106.95
102073.6
102042.22
102007.34
101973.22
101936.33
101899.06
101859.68
101819
101776.53
101732.41
101686.54
101638.88
101589.46
101538.27
101485.35
101430.75
101374.55
101316.84
101257.72
101197.31
101135.76
101073.21
101009.84
100945.82
100881.33
100816.57
100751.75
100687.07
100622.74
100558.98
100496.01
100434.04
100373.3
100314
100256.35
100200.57
100146.85
100095.38
100046.36
99999.953
99956.325
99915.62
99877.966
99843.471
99812.224
99784.289
99759.705
99738.488
99720.623
99706.068
99694.759
99686.604
99681.485
99679.263
99679.78
99682.855
99688.311
99695.893
99705.509
99716.597
99729.695
99742.798
99759.368
99771.692
99793.967
99799.486
99833.935
99821.521
99881.209
99832.579
99937.497
99835.7
101586.28
101570.45
101554.97
101536.67
101516.42
101500.44
101478.59
101461.09
101438.2
101418.59
101394.52
101372.26
101346.79
101321.81
101294.73
101266.82
101237.32
101206.49
101174.17
101140.32
101104.93
101067.96
101029.44
100989.36
100947.75
100904.67
100860.17
100814.33
100767.25
100719.03
100669.8
100619.69
100568.86
100517.48
100465.72
100413.78
100361.85
100310.14
100258.86
100208.23
100158.47
100109.8
100062.44
100016.61
99972.519
99930.377
99890.379
99852.711
99817.543
99785.031
99755.311
99728.497
99704.684
99683.94
99666.305
99651.793
99640.388
99632.046
99626.696
99624.241
99624.556
99627.498
99632.903
99640.586
99650.367
99661.999
99675.373
99689.98
99706.268
99722.431
99741.59
99756.699
99780.808
99788.734
99824.227
99814.538
99874.665
99828.215
99934.188
99831.756
100874.02
100867.98
100863.75
100858.62
100849.44
100845.46
100834.16
100828.75
100816.49
100808.79
100795.45
100784.9
100770.44
100757.1
100741.48
100725.36
100707.64
100688.79
100668.61
100647.1
100624.23
100599.99
100574.35
100547.33
100518.91
100489.12
100457.99
100425.57
100391.91
100357.08
100321.18
100284.31
100246.59
100208.16
100169.18
100129.8
100090.2
100050.58
100011.13
99972.052
99933.567
99895.888
99859.232
99823.816
99789.854
99757.555
99727.117
99698.731
99672.571
99648.794
99627.539
99608.925
99593.045
99579.967
99569.732
99562.35
99557.801
99556.036
99556.979
99560.526
99566.548
99574.894
99585.397
99597.871
99612.131
99627.942
99645.179
99663.386
99682.93
99702.194
99723.991
99741.874
99767.818
99778.172
99814.788
99807.618
99868.312
99824.013
99930.828
99828.136
100230
100230.25
100231.29
100234.5
100232.42
100237.05
100232.94
100236.47
100231.71
100233.11
100228.14
100227.46
100222.09
100218
100211.36
100204.76
100196.76
100187.96
100178.09
100167.14
100155.1
100141.89
100127.52
100111.94
100095.16
100077.17
100057.98
100037.6
100016.09
99993.473
99969.826
99945.224
99919.763
99893.552
99866.717
99839.399
99811.751
99783.941
99756.147
99728.557
99701.367
99674.779
99648.997
99624.23
99600.682
99578.555
99558.043
99539.328
99522.582
99507.957
99495.589
99485.592
99478.056
99473.043
99470.589
99470.698
99473.343
99478.47
99485.995
99495.806
99507.769
99521.728
99537.51
99554.928
99573.797
99593.891
99615.077
99636.945
99659.793
99682.182
99706.646
99727.263
99755.126
99767.904
99805.627
99800.914
99862.132
99820.023
99927.416
99824.856
99651.93
99657.106
99661.149
99669.405