/*--------------------------------*- C++ -*----------------------------------*\
  =========                 |
  \\      /  F ield         | OpenFOAM: The Open Source CFD Toolbox
   \\    /   O peration     | Website:  https://openfoam.org
    \\  /    A nd           | Version:  12
     \\/     M anipulation  |
\*---------------------------------------------------------------------------*/
FoamFile
{
    format      ascii;
    class       volScalarField;
    location    "0.129";
    object      rho;
}
// * * * * * * * * * * * * * * * * * * * * * * * * * * * * * * * * * * * * * //

dimensions      [1 -3 0 0 0 0 0];

internalField   nonuniform List<scalar> 
16000
(
1.0584303
1.0909947
1.0789601
1.0871403
1.0833189
1.086742
1.0857686
1.0875823
1.0877302
1.088934
1.0895829
1.0905937
1.0914682
1.0924615
1.093454
1.0944985
1.0955751
1.0966915
1.0978459
1.0990391
1.1002711
1.101542
1.1028515
1.1041991
1.1055843
1.1070062
1.1084636
1.1099551
1.1114791
1.1130336
1.1146163
1.1162248
1.1178563
1.1195075
1.1211753
1.1228559
1.1245456
1.1262404
1.1279363
1.1296288
1.1313138
1.1329869
1.1346439
1.1362806
1.1378928
1.1394768
1.1410289
1.1425456
1.1440239
1.1454609
1.1468542
1.1482017
1.1495014
1.150752
1.1519524
1.1531016
1.1541991
1.1552446
1.1562381
1.1571795
1.1580694
1.158908
1.159696
1.160434
1.1611225
1.161762
1.1623529
1.1628953
1.1633896
1.1638367
1.1642373
1.1645925
1.1649025
1.1651673
1.1653866
1.1655643
1.1657098
1.1657259
1.1660467
1.1653518
1.0551888
1.0882676
1.0756175
1.0843585
1.0803126
1.0840033
1.0829302
1.084915
1.085057
1.086363
1.087064
1.08815
1.0890987
1.0901665
1.0912396
1.0923652
1.0935269
1.0947308
1.0959755
1.0972616
1.098589
1.0999574
1.1013664
1.1028153
1.104303
1.1058283
1.1073896
1.1089853
1.110613
1.1122704
1.1139546
1.1156627
1.1173913
1.1191367
1.120895
1.1226622
1.124434
1.1262058
1.1279732
1.1297315
1.1314762
1.1332027
1.1349067
1.136584
1.1382304
1.1398423
1.1414162
1.142949
1.1444379
1.1458806
1.1472751
1.1486196
1.149913
1.1511542
1.1523426
1.1534779
1.1545599
1.1555888
1.1565649
1.1574887
1.1583608
1.1591818
1.1599527
1.1606743
1.1613473
1.1619723
1.1625498
1.1630801
1.1635635
1.1640006
1.1643922
1.1647393
1.1650419
1.1652997
1.1655125
1.1656827
1.1658015
1.1658787
1.1660232
1.1655049
1.0522584
1.0857888
1.0727116
1.0818112
1.077623
1.081515
1.0804127
1.0825169
1.0827003
1.0840894
1.0848641
1.0860268
1.0870612
1.0882119
1.0893755
1.0905924
1.0918496
1.0931513
1.0944967
1.0958859
1.0973183
1.0987936
1.1003108
1.101869
1.1034666
1.105102
1.1067732
1.1084779
1.1102134
1.1119767
1.1137644
1.1155729
1.1173981
1.1192359
1.1210818
1.1229311
1.1247789
1.1266204
1.1284506
1.1302647
1.1320577
1.1338252
1.1355626
1.1372658
1.138931
1.1405548
1.142134
1.143666
1.1451486
1.1465798
1.1479584
1.1492833
1.1505538
1.1517695
1.1529305
1.1540368
1.1550891
1.1560877
1.1570335
1.1579274
1.1587702
1.1595628
1.1603064
1.161002
1.1616504
1.1622524
1.1628087
1.1633194
1.1637849
1.1642058
1.1645827
1.1649164
1.1652069
1.1654541
1.1656571
1.1658136
1.1659221
1.1660111
1.1660435
1.1656874
1.0496443
1.0835501
1.0700921
1.0795165
1.075194
1.0793182
1.0781929
1.080435
1.0806695
1.082155
1.0830178
1.0842691
1.0854038
1.0866507
1.0879183
1.0892396
1.0906047
1.0920164
1.0934738
1.0949768
1.0965247
1.0981166
1.0997514
1.1014275
1.1031432
1.1048962
1.106684
1.1085036
1.1103517
1.1122246
1.1141182
1.1160282
1.1179498
1.1198781
1.121808
1.1237341
1.1256511
1.1275537
1.1294365
1.1312944
1.1331226
1.1349163
1.1366713
1.1383836
1.1400499
1.1416672
1.1432329
1.1447449
1.1462018
1.1476024
1.148946
1.1502325
1.1514617
1.1526342
1.1537505
1.1548115
1.1558181
1.1567715
1.1576728
1.1585232
1.1593239
1.1600763
1.1607814
1.1614405
1.1620546
1.1626245
1.1631509
1.1636341
1.1640743
1.1644718
1.1648274
1.1651415
1.1654144
1.165646
1.1658338
1.1659733
1.1660736
1.1661472
1.1661099
1.1658725
1.0473901
1.0816811
1.0678261
1.077548
1.0730847
1.0774814
1.0763463
1.0787319
1.0790382
1.0806276
1.0815972
1.0829468
1.0841951
1.0855489
1.0869307
1.0883663
1.0898487
1.0913796
1.0929582
1.0945842
1.0962565
1.097974
1.099735
1.1015375
1.1033791
1.1052568
1.1071673
1.109107
1.1110715
1.1130564
1.1150567
1.1170672
1.1190823
1.1210963
1.1231033
1.1250975
1.1270729
1.1290239
1.1309449
1.1328308
1.1346766
1.1364779
1.1382308
1.1399319
1.1415783
1.1431677
1.1446985
1.1461692
1.1475794
1.1489287
1.1502174
1.1514461
1.1526156
1.1537271
1.1547819
1.1557815
1.1567274
1.1576213
1.1584648
1.1592593
1.1600065
1.1607077
1.1613644
1.1619777
1.1625488
1.1630787
1.1635678
1.1640165
1.1644249
1.1647931
1.1651217
1.1654108
1.1656612
1.1658728
1.1660407
1.1661614
1.1662509
1.1662969
1.1662089
1.1660705
1.0455414
1.0802018
1.0660011
1.0760292
1.0714723
1.0760786
1.074932
1.0774818
1.0778756
1.0795744
1.0806626
1.0821137
1.0834823
1.0849493
1.0864523
1.0880106
1.0896195
1.0912797
1.0929903
1.0947505
1.0965586
1.098413
1.1003111
1.1022502
1.1042268
1.1062374
1.1082774
1.1103421
1.1124264
1.1145245
1.1166305
1.1187382
1.1208411
1.1229328
1.1250067
1.1270562
1.1290753
1.1310579
1.1329985
1.134892
1.1367339
1.1385203
1.1402478
1.1419138
1.1435163
1.145054
1.1465261
1.1479324
1.1492734
1.1505498
1.1517628
1.152914
1.154005
1.1550379
1.1560147
1.1569375
1.1578083
1.1586293
1.1594024
1.1601295
1.1608124
1.1614526
1.1620515
1.1626106
1.163131
1.1636134
1.1640586
1.1644666
1.1648375
1.1651711
1.1654676
1.1657271
1.1659506
1.1661376
1.1662814
1.1663815
1.1664566
1.1664664
1.166339
1.1662896
1.0440951
1.0791197
1.0646067
1.0749725
1.0703248
1.075135
1.0740345
1.0767136
1.0772116
1.0789959
1.0802095
1.0817661
1.0832653
1.0848582
1.0864965
1.0881932
1.0899447
1.0917508
1.0936099
1.0955204
1.0974799
1.0994856
1.1015342
1.1036219
1.105744
1.1078957
1.1100714
1.1122651
1.1144702
1.1166801
1.1188875
1.1210853
1.1232661
1.1254226
1.1275477
1.1296346
1.131677
1.1336689
1.135605
1.1374809
1.1392925
1.1410369
1.1427116
1.1443153
1.1458469
1.1473065
1.1486945
1.150012
1.1512605
1.1524419
1.1535586
1.1546129
1.1556075
1.1565451
1.1574285
1.1582602
1.1590429
1.1597789
1.1604707
1.1611202
1.1617294
1.1622999
1.1628333
1.1633309
1.1637938
1.1642227
1.1646182
1.1649803
1.1653089
1.1656036
1.1658639
1.1660899
1.1662828
1.1664412
1.1665576
1.1666359
1.1666927
1.1666601
1.1665012
1.1665365
1.0429906
1.078377
1.0635767
1.0743249
1.0695793
1.0746142
1.0735429
1.0764162
1.0769398
1.0788391
1.0802121
1.0819006
1.0835569
1.0853016
1.0870993
1.0889581
1.0908748
1.0928484
1.0948766
1.0969568
1.0990855
1.101259
1.1034724
1.1057208
1.107998
1.1102978
1.112613
1.1149363
1.1172598
1.1195753
1.1218747
1.1241496
1.1263919
1.1285939
1.130748
1.1328475
1.1348862
1.1368586
1.1387603
1.1405874
1.1423374
1.1440084
1.1455994
1.1471103
1.1485418
1.1498953
1.1511727
1.1523764
1.1535092
1.1545742
1.1555747
1.156514
1.1573956
1.1582228
1.158999
1.1597273
1.1604105
1.1610514
1.1616525
1.162216
1.1627439
1.1632378
1.1636992
1.1641295
1.1645295
1.1648999
1.1652412
1.1655533
1.1658357
1.1660879
1.1663088
1.1664984
1.1666579
1.1667845
1.166871
1.1669267
1.1669616
1.1668821
1.1667006
1.1668171
1.0422231
1.0779604
1.0628959
1.0741065
1.0691769
1.0743775
1.0733957
1.076309
1.0771413
1.0791837
1.0807465
1.0825917
1.0844299
1.0863526
1.0883347
1.0903803
1.0924864
1.0946507
1.0968698
1.0991399
1.1014562
1.1038132
1.1062047
1.1086239
1.1110631
1.1135141
1.1159682
1.1184163
1.1208492
1.1232573
1.1256314
1.1279625
1.1302418
1.1324614
1.1346139
1.136693
1.1386933
1.1406104
1.1424409
1.1441828
1.1458348
1.1473971
1.1488703
1.1502561
1.151557
1.1527759
1.1539164
1.1549821
1.1559772
1.1569059
1.1577722
1.1585805
1.1593348
1.160039
1.1606968
1.1613115
1.1618864
1.1624242
1.1629276
1.1633987
1.1638395
1.1642516
1.1646364
1.164995
1.1653283
1.1656367
1.1659204
1.1661794
1.166413
1.1666201
1.1667994
1.1669508
1.1670747
1.1671672
1.1672225
1.1672555
1.1672646
1.1671345
1.1669395
1.1671382
1.0418264
1.0779052
1.0626033
1.0742379
1.0691701
1.0746282
1.0737917
1.0769027
1.0779175
1.0801078
1.0818898
1.0839195
1.0859665
1.0880958
1.0902897
1.0925493
1.0948705
1.0972499
1.0996823
1.1021623
1.1046832
1.1072378
1.1098176
1.1124136
1.1150163
1.1176153
1.1202002
1.12276
1.1252841
1.127762
1.1301835
1.1325391
1.1348203
1.1370194
1.1391298
1.1411465
1.1430653
1.1448837
1.1466005
1.1482154
1.1497296
1.1511452
1.1524651
1.1536929
1.1548331
1.1558901
1.1568691
1.157775
1.158613
1.1593883
1.1601057
1.1607701
1.1613859
1.1619573
1.1624883
1.1629824
1.1634427
1.1638722
1.1642732
1.1646479
1.1649982
1.1653254
1.1656307
1.1659151
1.1661793
1.1664235
1.1666478
1.1668519
1.1670349
1.1671954
1.167332
1.1674441
1.1675314
1.1675882
1.1676125
1.1676231
1.1676023
1.1674195
1.167222
1.167505
1.0418667
1.0782805
1.06275
1.0745793
1.0696518
1.075397
1.074768
1.0780374
1.0793243
1.0816896
1.0837255
1.0859739
1.0882605
1.0906283
1.0930643
1.0955668
1.0981304
1.1007497
1.1034174
1.1061259
1.108866
1.1116278
1.1144005
1.1171726
1.1199318
1.1226659
1.1253624
1.128009
1.1305936
1.1331052
1.1355334
1.1378691
1.1401044
1.1422331
1.1442503
1.1461529
1.1479394
1.1496098
1.1511653
1.1526086
1.1539433
1.155174
1.1563059
1.1573448
1.1582966
1.1591676
1.1599641
1.1606921
1.1613577
1.1619667
1.1625243
1.1630358
1.1635057
1.1639384
1.1643377
1.1647072
1.1650499
1.1653685
1.1656651
1.1659419
1.1662003
1.1664415
1.1666666
1.1668761
1.1670704
1.1672498
1.167414
1.1675626
1.1676946
1.1678082
1.1679018
1.1679747
1.1680249
1.168046
1.1680405
1.1680291
1.1679741
1.1677405
1.1675535
1.167917
1.0424254
1.0791592
1.0634354
1.0755607
1.0707995
1.0767856
1.0764133
1.0798601
1.0814589
1.0840275
1.0863512
1.0888564
1.0914168
1.0940582
1.0967696
1.0995464
1.1023809
1.1052649
1.1081885
1.1111405
1.1141088
1.1170803
1.120041
1.1229767
1.1258728
1.1287147
1.1314883
1.1341802
1.136778
1.1392708
1.141649
1.143905
1.1460331
1.1480294
1.1498922
1.1516215
1.1532191
1.1546883
1.1560336
1.1572606
1.1583759
1.1593863
1.1602994
1.1611226
1.1618636
1.1625296
1.1631279
1.1636654
1.1641484
1.1645831
1.1649749
1.1653289
1.1656498
1.1659417
1.1662082
1.1664525
1.1666775
1.1668856
1.1670786
1.1672582
1.1674257
1.167582
1.1677277
1.1678633
1.1679889
1.1681043
1.1682093
1.1683031
1.1683846
1.1684518
1.1685034
1.168538
1.1685515
1.168538
1.1685052
1.168472
1.1683797
1.1681033
1.1679391
1.16837
1.0434981
1.0805479
1.0646575
1.0772018
1.0726004
1.078828
1.0787926
1.0824317
1.0844043
1.0872184
1.0898707
1.0926787
1.0955543
1.09851
1.1015342
1.104619
1.1077531
1.1109243
1.1141187
1.1173215
1.1205163
1.1236867
1.1268153
1.1298851
1.132879
1.135781
1.1385761
1.1412509
1.1437939
1.1461958
1.1484497
1.1505511
1.1524978
1.1542903
1.1559307
1.1574234
1.1587742
1.15999
1.1610789
1.1620495
1.1629108
1.1636719
1.1643421
1.1649302
1.1654446
1.1658937
1.166285
1.1666255
1.1669218
1.1671797
1.1674048
1.1676017
1.1677747
1.1679276
1.1680636
1.1681856
1.1682959
1.1683965
1.168489
1.1685746
1.1686543
1.1687286
1.1687979
1.1688622
1.1689214
1.1689752
1.169023
1.1690639
1.1690966
1.1691193
1.1691306
1.1691284
1.1691068
1.1690611
1.1690045
1.1689492
1.1688176
1.1685123
1.1683845
1.1688574
1.0451376
1.0824975
1.0664764
1.079465
1.0751375
1.081617
1.0820086
1.085865
1.0882731
1.0913879
1.0944167
1.0975817
1.1008212
1.1041365
1.1075132
1.1109382
1.1143953
1.1178675
1.1213359
1.1247811
1.1281825
1.1315198
1.1347724
1.1379208
1.1409468
1.143834
1.1465683
1.1491384
1.1515359
1.1537554
1.1557949
1.1576548
1.1593385
1.1608515
1.1622012
1.1633965
1.1644473
1.1653644
1.1661588
1.1668416
1.1674238
1.1679161
1.1683286
1.1686709
1.168952
1.1691801
1.1693627
1.1695067
1.1696182
1.1697027
1.1697651
1.1698097
1.1698401
1.1698596
1.1698708
1.1698761
1.1698774
1.1698762
1.1698735
1.1698703
1.169867
1.1698639
1.169861
1.1698581
1.1698548
1.1698505
1.1698444
1.1698355
1.1698222
1.169803
1.1697766
1.1697398
1.1696855
1.1696114
1.1695348
1.1694571
1.1692846
1.1689643
1.1688899
1.1693754
1.0474045
1.0850672
1.0690019
1.0824786
1.0785108
1.0852536
1.0861767
1.0902926
1.0932072
1.0966968
1.1001627
1.1037473
1.1074041
1.1111241
1.1148878
1.1186755
1.1224652
1.1262341
1.1299575
1.133611
1.1371695
1.1406092
1.1439076
1.1470443
1.150002
1.152767
1.155329
1.1576819
1.1598235
1.1617552
1.1634814
1.1650097
1.1663496
1.1675125
1.1685109
1.1693581
1.1700676
1.170653
1.1711275
1.1715038
1.171794
1.1720093
1.1721602
1.1722561
1.1723058
1.172317
1.1722967
1.1722511
1.1721856
1.172105
1.1720134
1.1719144
1.171811
1.1717057
1.1716007
1.1714976
1.1713977
1.1713021
1.1712114
1.171126
1.1710462
1.1709717
1.1709023
1.1708375
1.1707765
1.1707187
1.1706629
1.170608
1.1705524
1.1704949
1.170434
1.1703656
1.1702817
1.170184
1.1700917
1.1699913
1.1697768
1.1694531
1.1694481
1.1699157
1.0503566
1.0882897
1.0723603
1.0863139
1.0828417
1.0898735
1.0914608
1.0959104
1.0994145
1.103368
1.1073378
1.1114039
1.1155256
1.1196842
1.1238532
1.1280053
1.1321115
1.1361414
1.1400647
1.1438514
1.1474734
1.1509054
1.154126
1.1571181
1.1598695
1.1623732
1.1646274
1.1666344
1.168401
1.1699372
1.1712555
1.1723707
1.1732986
1.1740556
1.1746586
1.175124
1.1754678
1.175705
1.17585
1.1759157
1.1759143
1.1758567
1.1757527
1.1756111
1.1754398
1.1752456
1.1750346
1.1748119
1.174582
1.1743488
1.1741155
1.173885
1.1736593
1.1734403
1.1732295
1.173028
1.1728365
1.1726555
1.1724852
1.1723257
1.1721767
1.1720378
1.1719084
1.1717878
1.1716749
1.1715688
1.1714684
1.1713722
1.1712787
1.1711869
1.1710953
1.1709984
1.1708892
1.1707734
1.1706692
1.1705464
1.1702926
1.1699714
1.1700439
1.1704845
1.0540631
1.0921731
1.076679
1.0911193
1.0883333
1.0957197
1.0981206
1.1029985
1.1071724
1.111677
1.1162109
1.1208077
1.1254254
1.1300344
1.1345984
1.1390805
1.1434424
1.1476463
1.1516567
1.1554415
1.1589737
1.1622324
1.1652029
1.1678776
1.1702553
1.1723405
1.1741429
1.1756762
1.1769572
1.1780049
1.1788395
1.1794816
1.1799521
1.1802708
1.1804569
1.1805284
1.1805019
1.1803927
1.1802146
1.17998
1.1797
1.1793845
1.1790419
1.1786799
1.178305
1.1779228
1.1775381
1.1771551
1.176777
1.1764068
1.1760467
1.1756987
1.1753641
1.1750441
1.1747395
1.1744508
1.1741781
1.1739216
1.173681
1.173456
1.173246
1.1730502
1.1728679
1.172698
1.1725395
1.1723911
1.1722514
1.1721191
1.1719926
1.1718712
1.1717527
1.171631
1.1715013
1.1713729
1.1712603
1.1711172
1.1708328
1.1705165
1.170662
1.1710963
1.0587113
1.0968605
1.0821864
1.0972211
1.0953171
1.103121
1.1064779
1.1118793
1.1167911
1.1219251
1.1270723
1.13223
1.1373467
1.1423772
1.1472724
1.1519838
1.1564654
1.1606762
1.1645817
1.1681559
1.1713816
1.1742508
1.1767637
1.1789284
1.1807588
1.1822742
1.1834969
1.1844518
1.1851647
1.1856616
1.185968
1.1861083
1.1861053
1.1859804
1.185753
1.1854405
1.1850587
1.1846215
1.1841414
1.183629
1.1830939
1.182544
1.1819863
1.1814269
1.1808707
1.1803219
1.1797841
1.1792601
1.1787522
1.1782622
1.1777916
1.1773414
1.1769123
1.1765047
1.1761188
1.1757546
1.1754117
1.1750899
1.1747885
1.1745069
1.1742442
1.1739994
1.1737715
1.1735592
1.1733614
1.1731767
1.1730035
1.1728404
1.1726862
1.1725399
1.1723987
1.1722564
1.1721111
1.1719754
1.1718567
1.1716955
1.1713936
1.1710988
1.1713044
1.1717269
1.0645836
1.1029222
1.0892811
1.104958
1.1041389
1.1124002
1.1168604
1.1229036
1.1286231
1.134457
1.1402454
1.1459502
1.1515026
1.1568398
1.161901
1.1666327
1.1709906
1.1749424
1.1784679
1.1815593
1.1842202
1.1864635
1.1883102
1.1897868
1.1909238
1.1917535
1.1923093
1.1926238
1.1927286
1.192653
1.1924245
1.1920681
1.1916061
1.1910587
1.1904434
1.1897758
1.1890695
1.1883361
1.1875858
1.1868269
1.186067
1.1853121
1.1845673
1.1838369
1.1831244
1.1824325
1.1817636
1.1811192
1.1805006
1.1799088
1.1793444
1.1788075
1.1782982
1.1778164
1.1773617
1.1769335
1.1765313
1.1761542
1.1758015
1.175472
1.1751648
1.1748787
1.1746123
1.1743644
1.1741337
1.1739187
1.1737176
1.1735292
1.1733524
1.1731859
1.1730261
1.1728677
1.1727121
1.1725733
1.1724497
1.1722731
1.1719676
1.1717158
1.1719697
1.1723462
1.0718701
1.1109046
1.0981635
1.114553
1.1151643
1.1239718
1.129703
1.1365385
1.1431221
1.1496751
1.1560482
1.1621697
1.167955
1.1733335
1.1782477
1.182657
1.1865385
1.1898859
1.1927082
1.1950266
1.196872
1.1982818
1.199297
1.1999607
1.2003154
1.2004024
1.2002603
1.1999249
1.1994286
1.1988005
1.1980663
1.1972487
1.1963673
1.195439
1.1944786
1.1934984
1.1925091
1.1915195
1.190537
1.1895679
1.1886172
1.1876891
1.1867868
1.1859131
1.1850698
1.1842586
1.1834804
1.182736
1.1820256
1.1813493
1.180707
1.1800983
1.1795226
1.1789794
1.1784677
1.1779866
1.1775353
1.1771125
1.1767173
1.1763483
1.1760043
1.175684
1.175386
1.175109
1.1748514
1.1746116
1.1743881
1.1741796
1.1739851
1.1738028
1.1736287
1.1734588
1.1732977
1.1731586
1.1730307
1.1728431
1.1725477
1.1723528
1.1726396
1.1729358
1.080698
1.120664
1.1094306
1.1265512
1.1290332
1.1385228
1.1456483
1.1533755
1.1607704
1.1678964
1.1746018
1.1807979
1.1864075
1.1913801
1.1956899
1.1993349
1.2023333
1.2047192
1.2065382
1.2078431
1.20869
1.2091355
1.2092346
1.209039
1.2085962
1.2079492
1.2071363
1.2061908
1.2051421
1.2040154
1.202832
1.2016104
1.200366
1.1991118
1.1978586
1.1966154
1.1953895
1.1941871
1.1930128
1.1918706
1.1907635
1.1896938
1.1886632
1.1876728
1.1867234
1.1858153
1.1849486
1.184123
1.1833382
1.1825936
1.1818882
1.1812214
1.180592
1.1799989
1.179441
1.1789172
1.178426
1.1779662
1.1775365
1.1771356
1.1767619
1.1764141
1.1760907
1.1757902
1.1755112
1.1752519
1.175011
1.1747871
1.1745792
1.1743851
1.1742005
1.1740236
1.173861
1.1737232
1.1735912
1.1733979
1.1731239
1.1729844
1.1732806
1.1734912
1.0918038
1.1331091
1.1239807
1.1418919
1.1466893
1.1569419
1.1653923
1.1738887
1.1817759
1.1890301
1.1955274
1.2012074
1.2060421
1.2100381
1.2132292
1.2156695
1.2174268
1.2185758
1.2191934
1.2193546
1.2191302
1.218585
1.2177773
1.2167581
1.2155721
1.2142576
1.2128471
1.2113682
1.2098441
1.208294
1.2067339
1.2051769
1.2036338
1.2021134
1.2006227
1.1991672
1.1977514
1.1963786
1.1950514
1.1937716
1.1925404
1.1913585
1.1902263
1.1891436
1.1881102
1.1871256
1.1861889
1.1852993
1.1844556
1.1836567
1.1829015
1.1821885
1.1815164
1.1808838
1.1802893
1.1797313
1.1792085
1.1787193
1.1782623
1.177836
1.1774388
1.1770692
1.1767258
1.1764071
1.1761114
1.1758372
1.1755831
1.175348
1.1751306
1.174928
1.1747366
1.1745565
1.1743955
1.1742595
1.1741237
1.1739293
1.173682
1.1735897
1.1738801
1.1740301
1.1067415
1.1493327
1.143082
1.1616389
1.1690942
1.1799956
1.1892913
1.1979906
1.2056482
1.2122423
1.2177375
1.2221581
1.2255631
1.2280386
1.2296854
1.2306104
1.2309193
1.2307121
1.2300799
1.2291038
1.2278543
1.2263921
1.2247684
1.2230262
1.2212014
1.2193234
1.2174164
1.2155002
1.2135907
1.2117009
1.2098409
1.2080189
1.2062412
1.2045127
1.202837
1.2012169
1.1996541
1.1981498
1.1967047
1.1953189
1.1939921
1.1927239
1.1915134
1.1903596
1.1892615
1.1882178
1.187227
1.1862877
1.1853984
1.1845575
1.1837634
1.1830145
1.1823091
1.1816457
1.1810224
1.1804378
1.1798902
1.179378
1.1788997
1.1784535
1.178038
1.1776516
1.1772928
1.1769601
1.1766518
1.1763665
1.1761029
1.1758599
1.1756358
1.1754276
1.1752327
1.1750527
1.1748951
1.1747608
1.1746218
1.1744311
1.1742153
1.1741653
1.1744387
1.1745349
1.1269921
1.1706282
1.1681597
1.18681
1.1966297
1.2076463
1.2167675
1.2245875
1.2309414
1.2358961
1.2395469
1.2420309
1.2435002
1.2441095
1.2440056
1.2433221
1.2421764
1.2406696
1.2388867
1.2368984
1.2347628
1.2325271
1.2302298
1.2279013
1.2255662
1.223244
1.2209499
1.2186958
1.2164909
1.2143423
1.2122551
1.2102332
1.2082791
1.2063946
1.2045807
1.2028375
1.201165
1.1995626
1.1980295
1.1965644
1.1951662
1.1938332
1.192564
1.1913569
1.19021
1.1891216
1.1880898
1.1871128
1.1861887
1.1853157
1.1844918
1.1837153
1.1829843
1.182297
1.1816517
1.1810464
1.1804797
1.1799497
1.1794548
1.1789934
1.1785638
1.1781645
1.177794
1.1774506
1.177133
1.1768396
1.1765693
1.1763208
1.1760924
1.175881
1.1756851
1.1755074
1.1753538
1.1752205
1.1750793
1.1748979
1.1747181
1.1747031
1.1749425
1.174982
1.1551454
1.1977896
1.2003142
1.2182972
1.2284882
1.2382948
1.2458443
1.2515321
1.2554857
1.2579427
1.259138
1.2593022
1.2586425
1.2573391
1.2555437
1.2533812
1.2509529
1.2483397
1.2456057
1.2428015
1.2399665
1.2371311
1.234319
1.231548
1.2288319
1.2261808
1.2236021
1.221101
1.2186813
1.2163451
1.2140938
1.2119277
1.2098466
1.2078499
1.2059363
1.2041046
1.202353
1.2006797
1.1990828
1.1975603
1.19611
1.1947298
1.1934176
1.1921711
1.1909881
1.1898666
1.1888042
1.187799
1.1868487
1.1859514
1.185105
1.1843074
1.1835568
1.1828512
1.1821888
1.1815677
1.1809861
1.1804424
1.1799347
1.1794615
1.1790211
1.178612
1.1782325
1.1778812
1.1775566
1.1772573
1.1769822
1.17673
1.1764987
1.1762858
1.1760907
1.1759163
1.1757661
1.1756331
1.1754923
1.1753252
1.1751806
1.1751887
1.1753864
1.1753775
1.1937811
1.2326179
1.2383492
1.2535788
1.2626523
1.2695186
1.273871
1.2762552
1.2770303
1.2765596
1.2751411
1.2730209
1.2703947
1.2674155
1.2642013
1.2608423
1.2574067
1.2539457
1.2504978
1.2470912
1.2437468
1.2404796
1.2373001
1.2342158
1.2312313
1.2283495
1.2255719
1.2228987
1.2203293
1.2178626
1.2154969
1.2132303
1.2110604
1.208985
1.2070014
1.2051071
1.2032994
1.2015755
1.1999329
1.1983689
1.1968808
1.195466
1.194122
1.1928462
1.1916362
1.1904896
1.1894039
1.188377
1.1874065
1.1864902
1.1856261
1.1848119
1.1840457
1.1833255
1.1826494
1.1820155
1.1814219
1.180867
1.180349
1.1798662
1.1794171
1.1789999
1.1786133
1.1782556
1.1779255
1.1776216
1.1773428
1.1770876
1.1768542
1.1766407
1.176447
1.1762755
1.1761274
1.1759949
1.1758588
1.1757116
1.1755975
1.1756079
1.1757453
1.175723
1.2410956
1.2734767
1.2805884
1.2903327
1.2952043
1.297524
1.2976792
1.2963161
1.2938657
1.2906717
1.2869852
1.282991
1.2788228
1.2745764
1.2703205
1.2661033
1.2619586
1.2579097
1.2539722
1.2501563
1.2464679
1.2429103
1.2394846
1.2361904
1.2330262
1.2299897
1.2270783
1.2242887
1.2216177
1.2190618
1.2166173
1.2142808
1.2120487
1.2099175
1.2078837
1.205944
1.2040949
1.2023334
1.2006562
1.1990603
1.1975428
1.1961007
1.1947313
1.1934318
1.1921995
1.191032
1.1899268
1.1888813
1.1878934
1.1869606
1.1860809
1.185252
1.1844719
1.1837385
1.18305
1.1824044
1.1817999
1.1812347
1.1807072
1.1802156
1.1797583
1.1793337
1.1789404
1.1785768
1.1782415
1.1779334
1.177651
1.177393
1.1771576
1.1769437
1.1767511
1.1765811
1.1764333
1.1763011
1.1761725
1.1760458
1.1759532
1.1759511
1.176033
1.1760067
1.294879
1.3154392
1.3199651
1.3223194
1.3215284
1.3188929
1.3150239
1.3104083
1.3053657
1.3001123
1.2947913
1.2894971
1.2842909
1.2792118
1.2742839
1.2695213
1.2649311
1.260516
1.2562757
1.2522077
1.2483082
1.2445727
1.2409962
1.2375732
1.2342985
1.2311665
1.2281721
1.2253098
1.2225749
1.2199622
1.2174673
1.2150855
1.2128125
1.2106442
1.2085765
1.2066056
1.2047279
1.2029398
1.2012379
1.1996189
1.1980797
1.1966172
1.1952285
1.1939108
1.1926612
1.1914773
1.1903564
1.1892961
1.188294
1.1873478
1.1864552
1.1856141
1.1848223
1.1840779
1.1833789
1.1827234
1.1821096
1.1815357
1.181
1.1805008
1.1800365
1.1796055
1.1792064
1.1788377
1.1784979
1.1781859
1.1779004
1.1776398
1.1774029
1.1771886
1.1769966
1.1768269
1.1766783
1.1765463
1.1764252
1.1763166
1.176239
1.1762183
1.1762433
1.1762147
1.3474746
1.3507673
1.349554
1.3451159
1.3393149
1.3327738
1.3259545
1.3190974
1.312348
1.305785
1.299451
1.2933662
1.2875374
1.2819638
1.2766398
1.2715573
1.2667071
1.2620789
1.2576628
1.2534489
1.2494274
1.2455894
1.241926
1.2384292
1.2350911
1.2319045
1.2288627
1.2259591
1.2231877
1.2205429
1.2180193
1.2156118
1.2133156
1.2111262
1.2090393
1.2070508
1.2051567
1.2033533
1.2016372
1.2000048
1.1984529
1.1969784
1.1955783
1.1942497
1.1929898
1.1917959
1.1906655
1.189596
1.188585
1.1876302
1.1867294
1.1858804
1.1850811
1.1843294
1.1836234
1.1829612
1.182341
1.1817611
1.1812196
1.180715
1.1802457
1.17981
1.1794066
1.1790339
1.1786907
1.1783756
1.1780874
1.1778246
1.1775862
1.1773712
1.1771789
1.1770085
1.1768585
1.1767269
1.1766125
1.176517
1.1764464
1.1764056
1.1763879
1.176365
1.3813529
1.3738161
1.3663205
1.3580997
1.3495586
1.3411092
1.3329169
1.3250557
1.3175541
1.3104152
1.3036306
1.2971857
1.2910634
1.2852458
1.2797154
1.2744551
1.2694491
1.2646826
1.2601418
1.2558141
1.2516879
1.2477522
1.2439973
1.2404138
1.2369935
1.2337283
1.230611
1.2276349
1.2247936
1.2220811
1.219492
1.217021
1.2146632
1.212414
1.2102691
1.2082242
1.2062754
1.2044189
1.2026513
1.200969
1.1993687
1.1978474
1.196402
1.1950296
1.1937274
1.1924927
1.191323
1.1902157
1.1891683
1.1881787
1.1872444
1.1863634
1.1855335
1.1847526
1.1840188
1.1833302
1.182685
1.1820813
1.1815175
1.1809919
1.1805028
1.1800487
1.1796281
1.1792396
1.1788818
1.1785533
1.1782528
1.177979
1.177731
1.1775077
1.177308
1.1771307
1.1769745
1.1768391
1.1767256
1.1766346
1.1765633
1.1765064
1.1764638
1.1764479
1.163466
1.1680588
1.182571
1.1943684
1.1998351
1.2010956
1.2011659
1.2008374
1.2008703
1.2005819
1.200326
1.1997716
1.1991808
1.1985381
1.1978522
1.1971262
1.1963646
1.1955729
1.1947562
1.1939185
1.1930638
1.1921955
1.1913169
1.1904308
1.1895399
1.1886465
1.1877528
1.1868607
1.1859722
1.1850889
1.1842123
1.1833441
1.1824855
1.1816379
1.1808026
1.1799809
1.1791739
1.1783829
1.1776091
1.1768534
1.1761172
1.1754015
1.1747074
1.174036
1.1733883
1.1727654
1.1721683
1.1715979
1.171055
1.1705406
1.1700552
1.1695996
1.1691741
1.1687791
1.1684149
1.1680814
1.1677785
1.1675059
1.1672631
1.1670494
1.1668638
1.1667048
1.1665713
1.1664612
1.1663729
1.1663031
1.1662511
1.1662092
1.1661857
1.1661547
1.1661612
1.1661086
1.1661662
1.1660293
1.1661905
1.1658394
1.1662038
1.1655128
1.1662157
1.1650354
1.159252
1.1701652
1.1863634
1.1946414
1.1968929
1.196803
1.1962752
1.1960259
1.1957078
1.1954042
1.1950104
1.194615
1.194172
1.1936931
1.1931751
1.1926255
1.1920452
1.191437
1.1908032
1.1901461
1.1894682
1.1887716
1.1880586
1.1873315
1.1865923
1.1858434
1.1850867
1.1843243
1.1835583
1.1827905
1.1820229
1.1812574
1.1804956
1.1797393
1.1789902
1.17825
1.1775203
1.1768025
1.1760983
1.1754091
1.1747364
1.1740815
1.173446
1.172831
1.172238
1.171668
1.1711223
1.170602
1.1701082
1.1696416
1.1692031
1.1687935
1.168413
1.1680623
1.1677414
1.1674503
1.1671889
1.1669568
1.1667535
1.1665782
1.1664296
1.1663064
1.1662072
1.1661301
1.1660731
1.166033
1.1660089
1.1659938
1.1659944
1.1659879
1.1660132
1.165985
1.1660534
1.1659422
1.1661026
1.1657879
1.1661439
1.1654787
1.166189
1.165001
1.1598223
1.1732053
1.1848454
1.1911971
1.192163
1.191685
1.1911792
1.1909182
1.1906247
1.1903421
1.1900102
1.1896747
1.1893043
1.1889213
1.1885115
1.1880819
1.1876295
1.1871563
1.1866623
1.1861485
1.1856158
1.1850652
1.1844979
1.1839153
1.1833185
1.1827092
1.1820888
1.1814589
1.1808211
1.1801772
1.1795289
1.1788778
1.1782259
1.1775747
1.1769262
1.1762821
1.1756442
1.1750143
1.174394
1.1737851
1.1731893
1.1726083
1.1720435
1.1714967
1.1709693
1.1704628
1.1699784
1.1695175
1.1690813
1.1686707
1.1682866
1.1679299
1.167601
1.1673005
1.1670284
1.1667849
1.1665697
1.1663823
1.1662224
1.1660888
1.1659805
1.1658959
1.1658335
1.1657914
1.1657675
1.1657589
1.1657641
1.1657768
1.1658025
1.1658209
1.1658662
1.1658619
1.1659431
1.1658551
1.1660195
1.1657353
1.1660861
1.1654453
1.1661626
1.1649691
1.1575676
1.171863
1.1825131
1.187206
1.1870382
1.186652
1.1862109
1.186012
1.1856965
1.1854457
1.1851343
1.1848519
1.184538
1.1842275
1.1838967
1.1835572
1.1832026
1.1828351
1.1824533
1.182057
1.1816463
1.1812211
1.1807816
1.1803282
1.1798614
1.1793819
1.1788905
1.1783882
1.1778762
1.1773556
1.1768278
1.1762943
1.1757566
1.1752163
1.174675
1.1741345
1.1735966
1.1730629
1.1725354
1.1720159
1.1715061
1.1710078
1.1705228
1.1700529
1.1695996
1.1691646
1.1687494
1.1683554
1.1679839
1.167636
1.1673128
1.167015
1.1667434
1.1664983
1.16628
1.1660885
1.1659235
1.1657848
1.1656716
1.165583
1.1655176
1.165474
1.1654507
1.1654456
1.1654565
1.1654807
1.1655163
1.1655578
1.1656095
1.1656532
1.1657195
1.1657387
1.1658342
1.1657675
1.1659385
1.1656814
1.1660327
1.1654132
1.1661379
1.16494
1.1519636
1.1682777
1.1781143
1.1816447
1.1811059
1.1810203
1.1806621
1.1806015
1.1803608
1.1802275
1.1800069
1.1798328
1.1796161
1.1794122
1.1791862
1.1789555
1.1787104
1.1784548
1.1781865
1.1779056
1.1776118
1.1773049
1.1769849
1.176652
1.1763063
1.1759481
1.175578
1.1751966
1.1748047
1.174403
1.1739927
1.1735748
1.1731506
1.1727215
1.1722889
1.1718545
1.1714197
1.1709864
1.1705562
1.1701311
1.1697128
1.1693031
1.1689039
1.168517
1.168144
1.1677868
1.1674469
1.1671258
1.1668249
1.1665455
1.1662885
1.166055
1.1658455
1.1656605
1.1655003
1.1653649
1.1652541
1.1651674
1.1651041
1.1650633
1.1650435
1.1650433
1.1650609
1.1650945
1.1651418
1.1652
1.1652672
1.1653382
1.1654166
1.1654861
1.1655739
1.1656166
1.1657271
1.1656809
1.1658601
1.1656266
1.1659823
1.165382
1.1661144
1.1649134
1.1459974
1.1647428
1.1732132
1.1761097
1.1754211
1.175591
1.1752774
1.1753543
1.1751786
1.175157
1.1750175
1.174945
1.1748177
1.1747117
1.1745805
1.1744478
1.1743003
1.174144
1.1739763
1.1737976
1.1736077
1.1734062
1.1731932
1.1729685
1.1727322
1.1724844
1.1722254
1.1719554
1.1716749
1.1713845
1.171085
1.1707772
1.1704621
1.1701407
1.1698144
1.1694845
1.1691524
1.1688198
1.1684882
1.1681593
1.167835
1.167517
1.167207
1.1669069
1.1666185
1.1663434
1.1660833
1.1658398
1.1656141
1.1654077
1.1652215
1.1650564
1.1649132
1.1647924
1.1646941
1.1646184
1.164565
1.1645334
1.1645228
1.1645324
1.1645605
1.1646056
1.1646661
1.1647399
1.1648248
1.164918
1.1650176
1.1651189
1.1652245
1.1653201
1.1654298
1.1654959
1.1656213
1.165596
1.165784
1.1655723
1.165933
1.1653523
1.1660903
1.1648896
1.1408169
1.1613909
1.1683833
1.1709748
1.170182
1.1705533
1.1702475
1.1704346
1.1702978
1.1703644
1.1702872
1.1703016
1.170249
1.1702206
1.1701627
1.1701089
1.1700418
1.1699689
1.1698869
1.1697961
1.1696961
1.1695865
1.1694671
1.1693377
1.1691982
1.1690485
1.1688887
1.1687189
1.1685395
1.1683507
1.1681531
1.1679474
1.1677343
1.1675146
1.1672895
1.16706
1.1668275
1.1665933
1.1663589
1.1661258
1.1658956
1.1656701
1.1654509
1.1652397
1.1650382
1.1648481
1.1646709
1.1645081
1.1643612
1.1642312
1.1641193
1.1640263
1.1639529
1.1638996
1.1638664
1.1638534
1.1638603
1.1638864
1.1639311
1.1639931
1.1640711
1.1641633
1.1642681
1.1643834
1.164507
1.1646362
1.164769
1.1649009
1.1650343
1.165156
1.165288
1.1653771
1.1655182
1.1655136
1.1657103
1.1655202
1.165885
1.1653245
1.1660653
1.1648687
1.1359987
1.1583864
1.1638615
1.1663275
1.1654249
1.1659596
1.1656295
1.165905