/*--------------------------------*- C++ -*----------------------------------*\
  =========                 |
  \\      /  F ield         | OpenFOAM: The Open Source CFD Toolbox
   \\    /   O peration     | Website:  https://openfoam.org
    \\  /    A nd           | Version:  12
     \\/     M anipulation  |
\*---------------------------------------------------------------------------*/
FoamFile
{
    format      ascii;
    class       volScalarField;
    location    "0.091";
    object      Ma;
}
// * * * * * * * * * * * * * * * * * * * * * * * * * * * * * * * * * * * * * //

dimensions      [];

internalField   nonuniform List<scalar> 
16000
(
0.6249111
0.74253168
0.69768671
0.72221196
0.7071785
0.71410652
0.70839779
0.70992025
0.70726812
0.70682601
0.70520181
0.70406763
0.70265379
0.70127439
0.69981306
0.69830552
0.69674061
0.69511988
0.69344214
0.69170692
0.68991384
0.68806277
0.68615382
0.6841874
0.6821642
0.68008529
0.67795208
0.67576636
0.67353034
0.67124665
0.66891834
0.6665489
0.66414222
0.66170264
0.65923487
0.656744
0.65423544
0.65171488
0.64918827
0.64666169
0.64414137
0.64163353
0.6391444
0.63668008
0.63424651
0.63184935
0.62949399
0.62718541
0.6249282
0.62272649
0.62058391
0.61850358
0.61648811
0.61453953
0.61265932
0.61084835
0.60910694
0.60743477
0.60583094
0.60429368
0.60282055
0.60140869
0.60005484
0.59875512
0.59750507
0.59629945
0.5951319
0.5939949
0.59288024
0.59177977
0.59068526
0.58958703
0.58847147
0.58731842
0.58610646
0.58484343
0.5835486
0.58207847
0.58094643
0.5793989
0.62944011
0.74778302
0.70121837
0.72689689
0.71105015
0.71843211
0.71228644
0.71392161
0.71109192
0.71057551
0.70886541
0.70761531
0.70611055
0.70461705
0.70304729
0.70142331
0.69973936
0.69799531
0.69619058
0.69432476
0.69239774
0.69040964
0.68836094
0.68625241
0.68408523
0.68186095
0.67958154
0.6772494
0.67486741
0.67243886
0.66996756
0.66745772
0.66491403
0.6623416
0.65974591
0.65713278
0.65450836
0.651879
0.64925122
0.64663164
0.64402687
0.64144348
0.63888785
0.63636617
0.6338843
0.63144772
0.62906149
0.6267302
0.6244579
0.62224812
0.62010381
0.6180274
0.61602071
0.61408502
0.61222106
0.610429
0.60870849
0.60705863
0.605478
0.60396449
0.60251529
0.60112722
0.59979675
0.5985198
0.59729177
0.59610731
0.59495995
0.59384196
0.59274469
0.59165933
0.59057729
0.58948923
0.58838176
0.58723374
0.58602674
0.58477019
0.58345204
0.58203148
0.58087112
0.57928684
0.63368587
0.75260229
0.70473961
0.730999
0.71469893
0.72218066
0.71587672
0.71740029
0.71451558
0.71384191
0.71206378
0.71067559
0.70906657
0.70744627
0.70575203
0.70399714
0.70217838
0.70029538
0.6983478
0.69633556
0.69425886
0.69211825
0.68991465
0.68764935
0.6853241
0.68294106
0.68050289
0.67801274
0.67547426
0.67289161
0.67026943
0.66761289
0.66492757
0.66221949
0.65949504
0.65676092
0.65402405
0.65129151
0.64857044
0.64586797
0.6431911
0.6405466
0.63794095
0.63538025
0.63287014
0.63041572
0.62802154
0.62569155
0.62342907
0.6212368
0.61911682
0.61707061
0.61509903
0.61320243
0.61138061
0.60963287
0.60795805
0.60635455
0.60482031
0.60335274
0.60194863
0.60060443
0.59931632
0.59807998
0.59689067
0.59574291
0.59463021
0.59354468
0.59247739
0.59141903
0.59036067
0.58929312
0.58820314
0.58706982
0.58587798
0.58463461
0.58331625
0.58193478
0.58078395
0.57915687
0.6375648
0.75700509
0.70784509
0.73458905
0.71788503
0.72547005
0.71900434
0.72039577
0.71744943
0.71659869
0.71473891
0.71319676
0.71146571
0.70970264
0.70786653
0.70596396
0.70399369
0.70195534
0.69984892
0.6976747
0.69543331
0.69312577
0.69075354
0.68831851
0.6858231
0.68327025
0.68066344
0.67800672
0.67530471
0.67256259
0.66978606
0.66698134
0.66415511
0.66131442
0.65846666
0.65561943
0.6527805
0.64995763
0.64715852
0.6443907
0.64166137
0.63897736
0.636345
0.63377007
0.63125771
0.62881239
0.62643786
0.62413717
0.62191267
0.61976599
0.61769811
0.61570938
0.61379958
0.61196793
0.61021324
0.60853383
0.6069277
0.60539246
0.60392542
0.60252347
0.60118298
0.59990006
0.5986706
0.59749009
0.59635364
0.59525576
0.59418995
0.59314836
0.59212181
0.59110058
0.59007542
0.58903721
0.58797286
0.58686246
0.58569351
0.58446848
0.58315993
0.58181773
0.58068524
0.57901675
0.64106665
0.76092219
0.71067453
0.73754678
0.72046153
0.72819905
0.72161908
0.72281883
0.71982917
0.71876657
0.71681417
0.7151003
0.71322847
0.71130683
0.70931166
0.70724518
0.70510716
0.70289741
0.70061623
0.69826429
0.69584269
0.69335304
0.69079746
0.68817865
0.68549992
0.68276519
0.67997903
0.67714667
0.67427394
0.67136728
0.66843368
0.66548064
0.66251607
0.65954818
0.65658544
0.6536364
0.65070958
0.64781337
0.64495588
0.64214481
0.63938736
0.63669011
0.63405894
0.63149898
0.62901456
0.62660915
0.62428543
0.62204526
0.6198897
0.6178191
0.61583313
0.61393086
0.6121108
0.61037101
0.60870919
0.60712267
0.60560854
0.60416366
0.60278467
0.60146795
0.6002095
0.59900509
0.59785035
0.59674062
0.5956709
0.59463574
0.59362874
0.59264216
0.59166677
0.59069258
0.58971005
0.58871004
0.58767965
0.58660067
0.5854629
0.58426293
0.58297313
0.58167751
0.58056934
0.57886522
0.64414502
0.76427535
0.7130478
0.74004702
0.72269563
0.73028852
0.72358486
0.72459073
0.72156456
0.7202728
0.71821515
0.7163184
0.71428951
0.71219609
0.71002639
0.70778031
0.70545806
0.70305981
0.70058635
0.69803892
0.69541939
0.69273022
0.68997454
0.68715616
0.68427965
0.68135026
0.67837401
0.67535758
0.67230836
0.66923431
0.66614394
0.6630462
0.65995034
0.65686583
0.65380216
0.65076874
0.64777474
0.64482892
0.64193951
0.63911407
0.63635942
0.63368149
0.6310853
0.62857491
0.62615344
0.623823
0.62158483
0.61943927
0.61738586
0.61542345
0.61355023
0.61176384
0.61006149
0.60844002
0.60689601
0.60542582
0.60402568
0.60269174
0.60142005
0.60020653
0.59904686
0.59793654
0.596871
0.59584547
0.59485493
0.59389399
0.59295645
0.59203479
0.59111988
0.5902016
0.58927026
0.58831653
0.58732784
0.5862884
0.58518967
0.58402108
0.58275859
0.58151755
0.58043303
0.5787034
0.64676871
0.76704325
0.71497175
0.74205321
0.72445777
0.73171696
0.72504736
0.72567351
0.72266058
0.72109442
0.71891689
0.71682627
0.7146205
0.71233702
0.70997164
0.7075238
0.70499425
0.70238394
0.6996945
0.69692818
0.69408798
0.69117763
0.68820167
0.68516546
0.68207517
0.67893782
0.67576118
0.6725538
0.66932485
0.6660841
0.66284173
0.65960826
0.65639432
0.65321052
0.65006726
0.64697458
0.64394195
0.64097813
0.63809104
0.63528762
0.63257377
0.62995427
0.62743278
0.62501181
0.62269277
0.62047606
0.61836109
0.61634643
0.61442986
0.61260856
0.61087913
0.60923777
0.60768036
0.60620255
0.60479989
0.60346785
0.60220192
0.60099764
0.59985058
0.59875631
0.59771027
0.5967078
0.59574423
0.59481472
0.5939143
0.59303772
0.59217903
0.59133104
0.59048486
0.58963045
0.58875799
0.58785788
0.58691813
0.58592596
0.58487361
0.58374262
0.58251666
0.58133747
0.58027371
0.57853355
0.64897439
0.76925302
0.71648354
0.74359157
0.72581558
0.73270159
0.72601675
0.72650635
0.72309878
0.72125228
0.71891978
0.71660977
0.71419337
0.71168852
0.70909511
0.70641332
0.70364463
0.70079113
0.6978556
0.69484168
0.6917539
0.68859767
0.68537937
0.68210631
0.67878675
0.67542982
0.67204547
0.66864439
0.66523783
0.6618375
0.65845536
0.65510343
0.65179359
0.64853737
0.64534572
0.64222885
0.63919602
0.63625541
0.63341399
0.63067743
0.62805009
0.62553496
0.62313372
0.62084683
0.61867355
0.61661214
0.61465992
0.61281345
0.61106863
0.60942089
0.60786527
0.60639655
0.60500939
0.60369839
0.6024582
0.60128357
0.60016941
0.59911081
0.59810304
0.59714146
0.5962214
0.59533816
0.59448707
0.59366335
0.59286211
0.59207831
0.59130633
0.59053937
0.58976892
0.5889852
0.58817832
0.58733829
0.58645405
0.58551624
0.58451667
0.58342924
0.5822495
0.58113796
0.58009046
0.57835848
0.65083016
0.77093571
0.7175429
0.74466092
0.7265155
0.73274924
0.72616155
0.72587046
0.72282406
0.72069658
0.71816033
0.71559531
0.71292653
0.71016121
0.70730096
0.70434723
0.70130256
0.69817043
0.69495526
0.69166252
0.68829872
0.68487151
0.68138961
0.67786283
0.67430196
0.67071871
0.66712557
0.66353565
0.65996243
0.6564196
0.65292078
0.64947928
0.64610785
0.64281843
0.63962192
0.63652798
0.63354492
0.6306795
0.62793692
0.62532079
0.62283312
0.62047445
0.61824388
0.61613929
0.61415743
0.61229411
0.6105444
0.60890274
0.60736318
0.60591944
0.60456514
0.60329383
0.60209911
0.60097477
0.59991478
0.59891341
0.5979652
0.59706502
0.596208
0.59538948
0.59460483
0.59384947
0.59311883
0.59240828
0.59171314
0.59102862
0.59034947
0.58966936
0.58898029
0.58827289
0.58753718
0.5867628
0.58593997
0.58506272
0.58412121
0.58308315
0.58195959
0.58091988
0.57988453
0.57817668
0.65233963
0.77206853
0.71807861
0.74507166
0.72649959
0.73230634
0.72570887
0.72502372
0.72178965
0.71931083
0.71652067
0.71366284
0.71069807
0.70762976
0.70446053
0.70119359
0.69783318
0.69438476
0.69085499
0.68725179
0.68358443
0.67986338
0.67610043
0.67230847
0.66850137
0.66469387
0.66090128
0.65713925
0.65342348
0.64976943
0.646192
0.64270523
0.63932203
0.6360539
0.63291074
0.62990066
0.62702991
0.62430283
0.62172185
0.61928757
0.61699892
0.61485326
0.61284664
0.61097396
0.60922922
0.60760571
0.60609621
0.6046932
0.603389
0.60217591
0.60104634
0.5999929
0.59900848
0.59808631
0.59721999
0.59640356
0.59563148
0.5948986
0.59420014
0.59353159
0.59288854
0.59226665
0.59166161
0.59106904
0.59048454
0.58990366
0.58932155
0.5887324
0.58812886
0.58750207
0.58684195
0.58613785
0.58538161
0.58457007
0.58369057
0.58270767
0.58165049
0.58068493
0.57965599
0.57798858
0.65344333
0.77255151
0.71801544
0.7439847
0.7257147
0.73092813
0.72447417
0.72320081
0.71983053
0.7169765
0.71387479
0.71067849
0.70736873
0.70394936
0.70042428
0.696799
0.69308022
0.68927615
0.68539658
0.68145279
0.67745761
0.6734253
0.66937141
0.66531258
0.66126626
0.65725048
0.65328346
0.64938326
0.64556742
0.64185255
0.63825402
0.63478558
0.6314591
0.62828436
0.62526888
0.62241787
0.61973423
0.61721863
0.61486971
0.61268419
0.6106572
0.60878251
0.60705277
0.60545982
0.60399492
0.60264899
0.6014128
0.60027713
0.59923297
0.59827155
0.5973845
0.59656386
0.59580218
0.59509247
0.59442832
0.59380382
0.59321358
0.59265271
0.59211671
0.5916014
0.59110274
0.59061675
0.59013952
0.58966704
0.58919526
0.58872012
0.58823723
0.58774135
0.58722587
0.58668251
0.58610111
0.58547098
0.58478569
0.58404371
0.58322892
0.58230714
0.5813265
0.58043525
0.57940547
0.57779454
0.65404915
0.7722179
0.71723943
0.74219121
0.72430447
0.72869318
0.7223053
0.72042412
0.71682367
0.71355452
0.71007791
0.70648868
0.70277831
0.69895344
0.6950202
0.69098732
0.68686504
0.68266556
0.67840291
0.67409297
0.66975322
0.6654026
0.66106118
0.65674984
0.65248987
0.64830255
0.64420864
0.64022797
0.63637895
0.63267812
0.6291398
0.6257758
0.6225952
0.61960423
0.61680632
0.61420216
0.61178993
0.6095655
0.60752281
0.60565411
0.60395039
0.60240166
0.6009973
0.59972629
0.59857753
0.59753999
0.5966029
0.59575592
0.59498917
0.59429334
0.59365976
0.59308035
0.5925477
0.59205503
0.59159618
0.5911656
0.59075833
0.5903699
0.58999631
0.58963383
0.58927896
0.58892821
0.58857812
0.58822516
0.58786573
0.58749619
0.58711265
0.58671049
0.58628391
0.58582522
0.58532431
0.58477082
0.58415992
0.58349
0.58274145
0.58188688
0.58099241
0.58017362
0.57913668
0.57759805
0.65409233
0.77099162
0.71561215
0.73968311
0.7220292
0.72542587
0.71907774
0.71653773
0.71262258
0.70888764
0.70496416
0.70091582
0.6967397
0.69244665
0.68804676
0.68355342
0.67898205
0.6743504
0.6696783
0.66498744
0.66030106
0.65564355
0.65103998
0.6465156
0.64209524
0.63780271
0.63366024
0.62968788
0.62590302
0.62231995
0.61894964
0.61579954
0.61287363
0.6101725
0.60769363
0.60543172
0.60337905
0.60152597
0.59986129
0.59837271
0.59704723
0.59587149
0.59483207
0.59391575
0.59310971
0.59240169
0.59178008
0.59123403
0.59075345
0.59032906
0.58995235
0.58961563
0.58931191
0.58903494
0.58877914
0.58853956
0.58831186
0.5880922
0.5878772
0.58766374
0.5874489
0.58722978
0.5870035
0.58676702
0.58651727
0.58625108
0.58596506
0.58565527
0.58531674
0.58494234
0.58452229
0.58404708
0.58351296
0.58291624
0.5822346
0.58145305
0.58065305
0.57990402
0.57885984
0.57740427
0.6535545
0.76877612
0.71306287
0.73608461
0.71874354
0.72103382
0.71464477
0.7113946
0.70705444
0.70278249
0.69832719
0.69373946
0.68902145
0.68418995
0.67926134
0.67425574
0.66919575
0.6641064
0.6590148
0.65394964
0.64894071
0.64401822
0.63921211
0.63455127
0.63006278
0.62577112
0.62169752
0.6178594
0.61427001
0.61093822
0.60786851
0.60506118
0.60251265
0.60021592
0.5981611
0.59633593
0.59472642
0.59331733
0.59209265
0.59103612
0.59013149
0.5893629
0.58871508
0.58817353
0.58772464
0.58735574
0.58705519
0.58681235
0.58661753
0.58646204
0.58633804
0.58623858
0.58615749
0.58608931
0.58602927
0.58597323
0.58591763
0.58585938
0.58579581
0.58572449
0.58564314
0.58554954
0.58544137
0.58531619
0.58517144
0.58500446
0.58481239
0.58459199
0.58433905
0.58404703
0.58370685
0.58331039
0.5828543
0.58233098
0.58171652
0.58101265
0.58031279
0.57963176
0.57859021
0.57719383
0.65237816
0.76540218
0.70953725
0.73131693
0.71429217
0.71534347
0.70880645
0.70477874
0.69988623
0.69498256
0.68989576
0.68467579
0.67933253
0.67389107
0.66837674
0.66281871
0.65724876
0.65170093
0.64621089
0.64081515
0.63555017
0.63045135
0.62555201
0.62088234
0.61646846
0.61233172
0.60848814
0.60494819
0.60171678
0.59879355
0.5961733
0.59384662
0.59180059
0.59001953
0.58848574
0.58718018
0.58608309
0.58517455
0.58443488
0.58384503
0.58338681
0.58304312
0.58279802
0.58263683
0.58254615
0.58251382
0.58252891
0.58258165
0.58266335
0.58276635
0.58288389
0.58301007
0.58313979
0.5832686
0.58339272
0.58350891
0.5836145
0.58370721
0.58378515
0.58384661
0.58388998
0.5839137
0.58391608
0.58389524
0.58384919
0.58377574
0.58367262
0.58353724
0.58336603
0.5831531
0.58289055
0.58257212
0.58219403
0.58174367
0.58119701
0.58057386
0.57997508
0.57935966
0.57832542
0.57699172
0.6505084
0.76063243
0.70507532
0.72518795
0.7084671
0.70813187
0.7012949
0.69639403
0.69080048
0.68514756
0.67931846
0.67336906
0.66732077
0.66120948
0.65507221
0.6489497
0.642885
0.63692271
0.63110776
0.62548406
0.62009312
0.61497254
0.61015479
0.60566618
0.60152613
0.59774689
0.59433358
0.5912846
0.58859227
0.58624375
0.58422193
0.5825065
0.58107488
0.57990313
0.57896672
0.57824119
0.57770264
0.5773282
0.57709624
0.57698662
0.57698076
0.57706173
0.57721419
0.57742436
0.57767997
0.57797017
0.57828539
0.57861727
0.57895853
0.57930289
0.57964494
0.57998006
0.58030434
0.58061449
0.58090777
0.58118193
0.58143518
0.58166611
0.58187358
0.5820566
0.58221426
0.58234562
0.5824496
0.5825249
0.58257003
0.58258332
0.58256305
0.58250723
0.58241279
0.58227457
0.58208634
0.58184385
0.58154226
0.58116382
0.58068615
0.58014542
0.57964334
0.57909094
0.57806874
0.57680786
0.64788835
0.75408256
0.69957915
0.71743658
0.70096241
0.69905444
0.69172405
0.68582831
0.67937455
0.67284526
0.66616507
0.65939971
0.65258653
0.64577587
0.63901999
0.63237408
0.62589429
0.61963589
0.61365129
0.607988
0.60268681
0.59778038
0.59329233
0.58923682
0.58561873
0.58243431
0.57967216
0.57731444
0.57533828
0.57371707
0.57242178
0.57142212
0.57068749
0.57018776
0.56989392
0.56977848
0.5698158
0.56998225
0.57025629
0.57061848
0.57105139
0.57153958
0.57206939
0.57262888
0.57320765
0.57379669
0.57438828
0.57497581
0.57555368
0.5761172
0.57666242
0.57718609
0.57768556
0.5781587
0.57860385
0.57901972
0.57940542
0.57976032
0.58008403
0.58037625
0.58063672
0.5808651
0.58106088
0.5812233
0.58135134
0.58144386
0.58149964
0.58151717
0.58149376
0.58142512
0.58130701
0.58113704
0.58090865
0.58060005
0.58019286
0.5797364
0.57932435
0.57882566
0.57781976
0.57664997
0.64438631
0.74508398
0.69242613
0.70761266
0.69132282
0.68763652
0.67958912
0.6725654
0.66509437
0.65756492
0.64994017
0.64230087
0.63470689
0.62722847
0.61993675
0.61290256
0.60619321
0.5998696
0.59398368
0.58857637
0.58367644
0.57930001
0.57545096
0.57212195
0.5692959
0.56694786
0.56504683
0.56355766
0.56244278
0.56166361
0.56118184
0.56096032
0.56096378
0.56115926
0.56151646
0.56200777
0.56260837
0.56329613
0.56405145
0.56485716
0.56569827
0.56656181
0.56743665
0.56831324
0.56918352
0.57004067
0.57087904
0.57169394
0.57248154
0.57323875
0.57396314
0.5746528
0.57530631
0.57592265
0.57650117
0.57704152
0.5775436
0.57800754
0.57843361
0.57882215
0.57917351
0.57948789
0.5797653
0.58000546
0.58020782
0.58037172
0.58049639
0.58058062
0.58062207
0.58061749
0.58056469
0.58046248
0.58030213
0.58005995
0.57972505
0.57935622
0.57902687
0.57856381
0.57757564
0.5765317
0.63971539
0.73361712
0.68318908
0.69515405
0.67896893
0.67331703
0.66428936
0.65598654
0.64734634
0.63871002
0.63008797
0.62158467
0.61328913
0.60529446
0.5976886
0.59055101
0.58394877
0.57793378
0.57254114
0.56778879
0.56367828
0.56019641
0.55731759
0.5550065
0.55322079
0.55191362
0.551036
0.55053861
0.5503733
0.55049422
0.55085853
0.55142684
0.55216343
0.55303632
0.5540171
0.55508083
0.55620572
0.55737293
0.55856626
0.55977187
0.56097803
0.56217487
0.56335414
0.56450903
0.56563395
0.56672439
0.56777677
0.5687883
0.56975687
0.57068095
0.57155951
0.57239189
0.57317781
0.57391727
0.57461051
0.57525801
0.57586041
0.5764185
0.57693314
0.57740522
0.57783563
0.57822507
0.578574
0.57888259
0.57915073
0.57937818
0.57956451
0.57970869
0.57980874
0.57986261
0.5798699
0.57982965
0.57973079
0.57955061
0.57928895
0.57901002
0.57875677
0.57831734
0.57735449
0.57644961
0.63351318
0.7207379
0.67130999
0.67947354
0.66318376
0.65537615
0.64505835
0.63530626
0.62537977
0.6156037
0.60604802
0.59684642
0.58811421
0.57995747
0.57246414
0.56570089
0.55971078
0.55451306
0.55010471
0.54646315
0.54354994
0.54131467
0.53969892
0.53863983
0.53807306
0.5379353
0.53816592
0.53870828
0.53951044
0.5405255
0.54171168
0.54303215
0.54445478
0.54595178
0.54749931
0.54907703
0.55066774
0.552257
0.55383278
0.5553851
0.55690583
0.55838836
0.55982743
0.5612189
0.56255961
0.56384724
0.56508016
0.56625732
0.56737817
0.56844259
0.56945078
0.5704032
0.57130057
0.57214375
0.57293378
0.57367185
0.57435922
0.57499723
0.57558727
0.57613071
0.57662889
0.57708293
0.57749371
0.57786179
0.57818751
0.57847096
0.57871194
0.57890951
0.57906211
0.57916896
0.57923091
0.57924622
0.57920187
0.57907876
0.57888863
0.57869658
0.57851325
0.57810299
0.5771916
0.57639573
0.62545425
0.70386275
0.65595723
0.65968769
0.64292609
0.63275756
0.62086615
0.60956158
0.59837891
0.58763767
0.57746403
0.56800777
0.55938529
0.5516839
0.54495669
0.53922326
0.53447235
0.53066647
0.52774761
0.52564327
0.52427212
0.52354904
0.52338909
0.52371056
0.52443699
0.52549848
0.52683224
0.52838274
0.53010148
0.53194656
0.53388211
0.53587768
0.53790763
0.53995051
0.54198852
0.54400701
0.54599402
0.54793989
0.54983691
0.55167902
0.55346156
0.55518104
0.55683496
0.55842165
0.55994013
0.56139
0.56277134
0.56408464
0.56533068
0.56651052
0.56762542
0.56867678
0.56966614
0.57059513
0.57146542
0.57227879
0.57303701
0.57374188
0.57439523
0.57499882
0.57555436
0.57606334
0.576527
0.57694628
0.5773219
0.57765428
0.57794328
0.57818807
0.57838762
0.57854226
0.57865332
0.57871763
0.57872121
0.57865059
0.57852786
0.57841367
0.57828968
0.57791423
0.57707402
0.57637037
0.61489518
0.68202541
0.63573898
0.63438295
0.61672364
0.60407476
0.59054033
0.57784682
0.5657778
0.55462941
0.54454266
0.53563792
0.52798063
0.5215892
0.51643812
0.51246615
0.50958531
0.5076902
0.50666643
0.50639764
0.50677088
0.50768024
0.50902915
0.51073147
0.51271168
0.51490456
0.51725446
0.51971439
0.52224501
0.5248137
0.52739357
0.52996268
0.53250325
0.53500099
0.53744459
0.5398252
0.54213599
0.54437186
0.54652914
0.5486053
0.55059878
0.55250883
0.55433533
0.55607871
0.55773982
0.5593199
0.56082043
0.56224314
0.56358993
0.56486282
0.56606392
0.5671954
0.56825946
0.56925832
0.57019419
0.57106931
0.57188585
0.572646
0.57335191
0.57400569
0.57460931
0.57516456
0.575673
0.57613595
0.57655446
0.57692917
0.57726006
0.57754645
0.57778793
0.57798551
0.57814016
0.578247
0.57829262
0.57827065
0.57821068
0.57816307
0.57808278
0.57773532
0.5769757
0.57640692
0.60068235
0.65312219
0.60873947
0.60180228
0.5829662
0.56794911
0.55318796
0.53980101
0.5277525
0.51725825
0.50839048
0.50116619
0.49553527
0.49139849
0.48862102
0.48704752
0.4865148
0.48686197
0.48793745
0.4896033
0.4917374
0.49423392
0.49700269
0.499968
0.50306703
0.50624815
0.50946934
0.51269669
0.51590307
0.51906696
0.5221715
0.52520364
0.52815346
0.53101356
0.53377864
0.53644508
0.53901063
0.54147412
0.54383529
0.54609458
0.54825302
0.55031208
0.55227358
0.55413962
0.55591255
0.55759486
0.55918917
0.56069817
0.56212463
0.56347132
0.56474102
0.56593647
0.56706041
0.56811551
0.56910441
0.57002968
0.57089384
0.57169933
0.5724486
0.57314396
0.57378762
0.57438162
0.57492778
0.57542773
0.5758828
0.57629383
0.57666096
0.57698387
0.57726277
0.57749888
0.57769201
0.57783565
0.57791829
0.57794105
0.57793773
0.57794508
0.57789679
0.57757756
0.57690918
0.57647537
0.5808512
0.614808
0.5727661
0.56014276
0.540628
0.52367552
0.50883356
0.49617174
0.48565738
0.47733321
0.47110191
0.46680402
0.46422876
0.46314244
0.46330758
0.46449798
0.46650783
0.46915638
0.47228908
0.47577665
0.47951267
0.48341083
0.48740192
0.49143099
0.49545486
0.49943996
0.50336043
0.50719666
0.51093402
0.51456183
0.51807258
0.52146125
0.5247248
0.52786173
0.5308718
0.53375568
0.53651482
0.53915122
0.54166731
0.54406588
0.54634994
0.54852267
0.55058738
0.55254748
0.5544064
0.55616761
0.55783455
0.55941067
0.56089937
0.56230397
0.56362774
0.56487389
0.56604552
0.56714565
0.56817724
0.56914311
0.57004603
0.57088867
0.57167364
0.57240344
0.57308044
0.57370686
0.57428475
0.57481596
0.57530206
0.57574405
0.57614233
0.57649713
0.57680924
0.57707973
0.57730699
0.57748346
0.5776002
0.57766413
0.57770875
0.57775615
0.57772881
0.57744292
0.57687601
0.57655838
0.55278633
0.56457705
0.52645095
0.50804994
0.48744062
0.47199127
0.45903416
0.44916801
0.44212842
0.43767279
0.43545537
0.4351133
0.43628951
0.43865815
0.44193514
0.44588174
0.45030273
0.45504183
0.45997602
0.46500984
0.47007009
0.47510133
0.48006208
0.48492179
0.48965834
0.49425619
0.4987048
0.50299749
0.50713054
0.51110245
0.51491342
0.51856492
0.52205939
0.52539994
0.52859019
0.53163413
0.53453598
0.5373001
0.53993096
0.54243302
0.54481078
0.54706866
0.54921107
0.55124232
0.55316665
0.55498822
0.55671107
0.55833917
0.55987636
0.56132639
0.56269286
0.56397928
0.56518904
0.56632542
0.56739158
0.56839055
0.56932527
0.57019856
0.57101317
0.57177172
0.57247671
0.57313048
0.57373525
0.57429305
0.57480556
0.57527396
0.575699
0.57608143
0.57642252
0.57672302
0.57698038
0.57718718
0.57733749
0.57744122
0.57752634
0.57759947
0.57758055
0.57732687
0.57686969
0.57669342
0.51237612
0.49986967
0.46271025
0.44484443
0.42745201
0.4152731
0.40697944
0.40235616
0.40075023
0.40157657
0.40426735
0.40833637
0.41338216
0.41908697
0.4252059
0.43155433
0.43799552
0.44442974
0.45078542
0.45701213
0.46307516
0.46895144
0.47462643
0.48009185
0.48534398
0.49038236
0.49520891
0.49982718
0.50424188
0.50845848
0.51248297
0.51632161
0.51998082
0.52346703
0.52678666
0.52994604
0.53295134
0.53580859
0.53852366
0.5411022
0.54354972
0.54587152
0.54807272
0.55015828
0.55213298
0.55400144
0.55576812
0.55743734
0.55901323
0.56049981
0.56190092
0.56322028
0.56446147
0.56562794
0.56672298
0.56774978
0.56871138
0.56961074
0.57045069
0.57123393
0.57196304
0.5726405
0.57326862
0.57384954
0.57438502
0.57487641
0.57532473
0.57573116
0.57609707
0.57642285
0.57670569
0.57693961
0.57712189
0.577263
0.577383
0.57747716
0.57747404
0.57727175
0.57691576
0.57676105
0.45071311
0.41820424
0.38855188
0.37373469
0.36291914
0.35812864
0.35756564
0.36031283
0.36538046
0.37201008
0.37961733
0.38777842
0.39619347
0.40465582
0.41302614
0.42121284
0.42915776
0.43682586
0.44419797
0.45126575
0.45802812
0.46448887
0.47065489
0.47653506
0.48213939
0.48747849
0.4925632
0.49740431
0.50201241
0.5063978
0.51057039
0.51453969
0.5183148
0.52190439
0.52531673
0.52855966
0.53164067
0.53456688
0.53734504
0.53998162
0.54248275
0.54485429
0.54710184
0.54923077
0.55124619
0.55315304
0.55495602
0.55665967
0.55826832
0.55978614
0.56121713
0.56256514
0.56383386
0.56502685
0.56614751
0.56719911
0.56818476
0.56910751
0.56997024
0.57077573
0.57152663
0.57222547
0.57287467
0.57347642
0.57403255
0.57454456
0.57501372
0.57544135
0.57582861
0.57617547
0.5764793
0.57673596
0.57694509
0.57711578
0.57726042
0.57736877
0.57738405
0.57723906
0.57698374
0.57688854
0.35514495
0.32171797
0.30413476
0.29966499
0.30104741
0.30730363
0.31645875
0.32724917
0.3388028
0.35056927
0.36221349
0.37353984
0.38444089
0.39486378
0.40478896
0.41421688
0.42315962
0.43163569
0.43966687
0.4472762
0.45448682
0.46132127
0.46780107
0.47394658
0.47977686
0.48530973
0.49056176
0.49554835
0.50028382
0.50478147
0.50905366
0.51311193
0.51696702
0.52062896
0.52410713
0.52741034
0.53054683
0.53352438
0.5363503
0.5390315
0.5415745
0.54398549
0.54627036
0.5484347
0.55048384
0.55242287
0.55425665
0.55598984
0.55762689
0.55917205
0.56062942
0.5620029
0.56329627
0.56451313
0.56565694
0.56673102
0.56773855
0.56868258
0.56956607
0.57039182
0.57116252
0.57188077
0.57254901
0.57316949
0.57374413
0.57427458
0.5747623
0.57520863
0.57561446
0.57597946
0.57630151
0.57657802
0.57680958
0.57700239
0.57716228
0.57727804
0.57731058
0.57722149
0.57705166
0.57697249
0.21626239
0.21498623
0.22036402
0.23374093
0.25101736
0.26937075
0.28759907
0.30505328
0.32150488
0.3368901
0.35123415
0.36459735
0.37705339
0.38867745
0.39954122
0.40971066
0.41924543
0.42819898
0.43661901
0.44454801
0.45202385
0.4590803
0.4657476
0.47205283
0.47802037
0.48367219
0.48902818
0.49410639
0.49892326
0.50349381
0.5078318
0.5119499
0.51585977
0.51957221
0.52309722
0.52644414
0.52962163
0.53263784
0.53550036
0.53821635
0.54079255
0.54323533
0.54555071
0.54774441
0.54982186
0.55178826
0.55364852
0.55540738
0.55706932
0.55863867
0.56011954
0.56151589
0.5628315
0.56407003
0.56523496
0.56632962
0.56735722
0.56832084
0.56922343
0.57006783
0.57085676
0.57159282
0.57227849
0.57291602
0.57350747
0.57405461
0.57455903
0.57502204
0.57544436
0.57582561
0.57616427
0.57645884
0.57670988
0.5769205
0.57709172
0.57721358
0.57726268
0.57722073
0.57711438
0.57703976
0.091809388
0.12166357
0.15902779
0.19262015
0.22270142
0.2491812
0.2726791
0.29366029
0.31254035
0.32964497
0.34523671
0.35952586
0.37268312
0.38484817
0.39613655
0.4066447
0.41645387
0.42563304
0.43424126
0.44232942
0.4499417
0.45711665
0.46388815
0.47028612
0.47633711
0.48206483
0.48749051
0.49263328
0.49751044
0.50213768
0.50652932
0.51069845
0.5146571
0.51841636
0.52198646
0.52537691
0.52859655
0.53165362
0.53455582
0.5373104
0.53992414
0.54240347
0.54475445
0.54698283
0.54909407
0.55109338
0.55298569
0.55477575
0.55646807
0.55806696
0.55957657
0.56100085
0.56234361
0.56360851
0.56479905
0.56591858
0.56697033
0.56795739
0.56888275
0.56974925
0.57055963
0.57131653
0.57202245
0.5726797
0.57329038
0.57385639
0.57437939
0.57486064
0.57530075
0.57569931
0.57605508
0.57636697
0.57663539
0.57686158
0.57704294
0.57716928
0.577231
0.57723271
0.57715161
0.57707816
0.010775441
0.29707902
0.47019814
0.51740009
0.52691711
0.5273831
0.52706399
0.52819111
0.52968253
0.5311647
0.53263909
0.53407957
0.53549614
0.53689892
0.53829823
0.53970373
0.54111721
0.54253905
0.54396886
0.54540564
0.54684798
0.5482941
0.54974203
0.55118969
0.55263494
0.55407565
0.5555097
0.556935
0.55834952
0.5597513
0.56113842
0.56250899
0.56386119
0.56519322
0.56650331
0.56778972
0.56905073
0.57028461
0.57148968
0.57266423
0.57380658
0.57491508
0.57598805
0.57702388
0.57802094
0.57897768
0.57989255
0.58076411
0.58159093
0.58237173
0.58310528
0.58379047
0.5844263
0.58501188
0.58554649
0.58602954
0.58646072
0.58683997
0.58716768
0.58744423
0.58766988
0.58784515
0.58797044
0.58804519
0.58806703
0.58803225
0.58793475
0.58777068
0.58753172
0.58722492
0.58683336
0.58639494
0.58583845
0.58529183
0.58450505
0.58390105
0.58274582
0.58216557
0.58034313
0.58007741
0.065072057
0.38430084
0.5200726
0.54472584
0.54548031
0.54363306
0.54279392
0.54294776
0.54315711
0.54346339
0.54385933
0.54441869
0.54509832
0.54586733
0.54669774
0.54758661
0.54852778
0.54951639
0.55054703
0.5516146
0.55271441
0.55384204
0.55499334
0.55616438
0.55735142
0.55855091
0.55975949
0.5609739
0.56219105
0.56340796
0.56462176
0.56582968
0.56702904
0.56821723
0.56939172
0.57055006
0.57168985
0.57280873
0.57390443
0.57497471
0.57601737
0.57703029
0.57801139
0.57895866
0.57987014
0.58074395
0.5815783
0.58237149
0.58312192
0.58382811
0.58448873
0.58510255
0.58566848
0.58618561
0.58665317
0.58707059
0.58743759
0.58775419
0.58802084
0.58823797
0.58840587
0.5885251
0.58859606
0.58861808
0.58858884
0.58850463
0.58835973
0.58815013
0.5878688
0.58752126
0.58709457
0.58662004
0.58603884
0.58545702
0.58465964
0.58400877
0.58285646
0.58222518
0.58041107
0.58010832
0.15011122
0.46458266
0.53954042
0.5521078
0.55067045
0.54973021
0.54974238
0.55029737
0.55071719
0.55123922
0.55174552
0.55231084
0.5528982
0.5535266
0.55418777
0.55488652
0.55561938
0.55638621
0.55718553
0.55801569
0.55887493
0.55976131
0.56067276
0.56160705
0.56256185
0.56353472
0.56452312
0.56552446
0.56653609
0.56755529
0.56857935
0.56960551
0.57063101
0.57165309
0.57266899
0.57367596
0.57467128
0.57565227
0.57661625
0.57756061
0.57848278
0.57938025
0.58025058
0.58109138
0.58190037
0.58267535
0.58341424
0.58411508
0.58477604
0.58539545
0.58597178
0.58650367
0.58698993
0.58742955
0.58782171
0.58816583
0.5884616
0.58870913
0.58890888
0.58906132
0.58916673
0.58922568
0.58923851
0.58920454
0.58912142
0.58898547
0.58879129
0.58853481
0.58820994
0.58782105
0.58735831
0.58684772
0.58624051
0.58562419
0.58481352
0.58411723
0.58296366
0.58228377
0.58047695
0.58013694
0.2315009
0.51110003
0.55320142
0.56048682
0.55781124
0.55802244
0.55809955
0.55868393
0.55896117
0.55940611
0.55978239
0.5602341
0.56069181
0.56118007
0.56168545
0.56221627
0.56277007
0.56334849
0.56395151
0.56457909
0.56523094
0.56590655
0.56660518
0.56732587
0.56806745
0.56882854
0.56960755
0.57040271
0.5712121
0.57203361
0.57286501
0.57370393
0.57454791
0.57539438
0.57624068
0.57708412
0.57792193
0.57875132
0.5795695
0.58037367
0.58116104
0.58192886
0.58267444
0.58339514
0.58408841
0.58475179
0.58538297
0.58597974
0.58654008
0.58706211
0.58754417
0.58798473
0.58838249
0.58873636