/*--------------------------------*- C++ -*----------------------------------*\
  =========                 |
  \\      /  F ield         | OpenFOAM: The Open Source CFD Toolbox
   \\    /   O peration     | Website:  https://openfoam.org
    \\  /    A nd           | Version:  12
     \\/     M anipulation  |
\*---------------------------------------------------------------------------*/
FoamFile
{
    format      ascii;
    class       volScalarField;
    location    "0.091";
    object      nut;
}
// * * * * * * * * * * * * * * * * * * * * * * * * * * * * * * * * * * * * * //

dimensions      [0 2 -1 0 0 0 0];

internalField   nonuniform List<scalar> 
16000
(
4.6133263e-07
9.9258205e-06
1.8130869e-05
2.3870951e-05
1.8355292e-05
2.5246988e-05
1.7762494e-05
2.4386765e-05
1.8912754e-05
2.617361e-05
2.1913102e-05
2.5864103e-05
2.351374e-05
2.4182517e-05
2.3344751e-05
2.3217984e-05
2.2970453e-05
2.2903693e-05
2.2913174e-05
2.3020879e-05
2.3218752e-05
2.350632e-05
2.3881059e-05
2.4343035e-05
2.489432e-05
2.5540901e-05
2.6290673e-05
2.715632e-05
2.815333e-05
2.9298404e-05
3.0609815e-05
3.2111808e-05
3.3835697e-05
3.58201e-05
3.8112574e-05
4.0769889e-05
4.3859716e-05
4.7462763e-05
5.1678956e-05
5.6632298e-05
6.2468586e-05
6.9359682e-05
7.7522553e-05
8.7223621e-05
9.8780726e-05
0.0001125756
0.00012908233
0.00014888002
0.00017267594
0.0002013352
0.00023592138
0.00027774595
0.00032842119
0.0003899335
0.00046473075
0.00055584317
0.00066703828
0.00080302548
0.00096971343
0.0010207548
0.0010205752
0.0010203794
0.0010201152
0.001019766
0.0010193227
0.0010187708
0.0010180965
0.0010172925
0.0010163571
0.0010152678
0.0010139498
0.0010123604
0.0010109671
0.0010099514
0.0010090902
0.0010082058
0.0010071264
0.0010054913
0.0010046543
0.0010048786
4.2469224e-07
9.4265716e-06
1.9848407e-05
2.1574291e-05
1.6571158e-05
2.2670538e-05
1.5792074e-05
2.1393326e-05
1.6748437e-05
2.3159774e-05
1.9881974e-05
2.3356325e-05
2.1543681e-05
2.1946082e-05
2.1292569e-05
2.1111932e-05
2.0906193e-05
2.0834631e-05
2.0845607e-05
2.0943914e-05
2.1126685e-05
2.1393057e-05
2.1741128e-05
2.2171073e-05
2.2684474e-05
2.3286959e-05
2.3985388e-05
2.4791192e-05
2.5719022e-05
2.6785176e-05
2.8006688e-05
2.9405742e-05
3.1011357e-05
3.2859319e-05
3.4994163e-05
3.7469311e-05
4.0348879e-05
4.3708814e-05
4.7642319e-05
5.22669e-05
5.7722812e-05
6.4172047e-05
7.1819053e-05
8.0917892e-05
9.1773931e-05
0.00010475017
0.00012029887
0.00013897436
0.00016145496
0.00018857059
0.00022134121
0.00026102715
0.00030917923
0.00036771135
0.00043898391
0.00052592082
0.00063215931
0.00076223829
0.00092184448
0.0010199783
0.0010198098
0.001019601
0.0010193301
0.0010189751
0.0010185283
0.0010179769
0.0010173078
0.001016513
0.0010155926
0.0010145347
0.0010132807
0.0010117838
0.0010104331
0.0010094349
0.0010085825
0.0010077078
0.0010065967
0.0010050643
0.0010041785
0.0010039312
3.7441418e-07
9.0377635e-06
1.8801907e-05
1.9693024e-05
1.4856091e-05
1.9985219e-05
1.4080289e-05
1.8616503e-05
1.5077763e-05
2.034093e-05
1.8151823e-05
2.0820329e-05
1.9543701e-05
1.9677457e-05
1.9175728e-05
1.8972222e-05
1.8799431e-05
1.8733251e-05
1.8747547e-05
1.8840718e-05
1.9011303e-05
1.925879e-05
1.9581586e-05
1.998014e-05
2.0455649e-05
2.1013537e-05
2.1659938e-05
2.2405204e-05
2.3262979e-05
2.4249132e-05
2.5379846e-05
2.6675646e-05
2.816361e-05
2.9877049e-05
3.1857766e-05
3.415605e-05
3.6832795e-05
3.996012e-05
4.3625472e-05
4.79397e-05
5.3038292e-05
5.9075404e-05
6.6244478e-05
7.4787676e-05
8.4999922e-05
9.7228438e-05
0.00011190646
0.00012956651
0.00015086143
0.00017659071
0.00020773587
0.00024551173
0.00029141376
0.00034728985
0.00041541979
0.00049862774
0.00060042784
0.00072520558
0.00087844338
0.0010192396
0.0010190841
0.0010188557
0.0010185699
0.001018201
0.0010177424
0.0010171833
0.001016512
0.0010157202
0.0010148084
0.0010137709
0.0010125626
0.0010111522
0.001009861
0.0010088914
0.001008054
0.0010071869
0.0010060639
0.0010046206
0.0010036974
0.0010033258
3.36076e-07
8.7459441e-06
1.7865849e-05
1.8321673e-05
1.3372137e-05
1.7662511e-05
1.2564215e-05
1.6283668e-05
1.3588912e-05
1.7945019e-05
1.6593597e-05
1.8571242e-05
1.7693678e-05
1.7629226e-05
1.724046e-05
1.7034557e-05
1.6890295e-05
1.6834317e-05
1.6854437e-05
1.6945853e-05
1.7107709e-05
1.7339902e-05
1.7641152e-05
1.8012297e-05
1.8454275e-05
1.8972435e-05
1.9572434e-05
2.0263772e-05
2.1059142e-05
2.197406e-05
2.3024147e-05
2.4228517e-05
2.5612675e-05
2.7207802e-05
2.9053393e-05
3.1197033e-05
3.3696823e-05
3.6621865e-05
4.0055001e-05
4.4100872e-05
4.8891249e-05
5.457429e-05
6.1334565e-05
6.9403644e-05
7.9068774e-05
9.0664924e-05
0.00010461015
0.0001214198
0.00014172681
0.00016630787
0.00019611471
0.00023232797
0.00027640129
0.00033013355
0.00039574495
0.0004759858
0.00057427855
0.0006948975
0.00084318614
0.0010185448
0.001018405
0.0010181529
0.0010178475
0.0010174604
0.0010169861
0.0010164154
0.0010157383
0.0010149466
0.0010140403
0.0010130187
0.0010118472
0.0010104987
0.0010092678
0.0010083285
0.001007509
0.0010066541
0.0010055399
0.0010041588
0.0010032427
0.0010026443
3.0969623e-07
8.5287649e-06
1.7047005e-05
1.833848e-05
1.3331046e-05
1.5635094e-05
1.1227931e-05
1.4279135e-05
1.2304352e-05
1.5873426e-05
1.5202608e-05
1.653892e-05
1.5959628e-05
1.5760341e-05
1.5455087e-05
1.526154e-05
1.5140954e-05
1.5096051e-05
1.5120972e-05
1.5210178e-05
1.5363026e-05
1.5579997e-05
1.5860167e-05
1.6204864e-05
1.661493e-05
1.7095705e-05
1.7652512e-05
1.8294181e-05
1.9032464e-05
1.9882487e-05
2.085949e-05
2.1981416e-05
2.3272463e-05
2.4761965e-05
2.6487423e-05
2.8494056e-05
3.0837451e-05
3.3584229e-05
3.6813746e-05
4.0624717e-05
4.5145732e-05
5.0520384e-05
5.6926253e-05
6.4584951e-05
7.3777748e-05
8.4829906e-05
9.8146776e-05
0.00011422944
0.00013369404
0.00015729907
0.00018597146
0.0002208639
0.00026339523
0.0003153237
0.00037882017
0.00045657324
0.00055192812
0.0006690641
0.00081320824
0.00099087208
0.0010177682
0.0010174889
0.0010171585
0.0010167488
0.0010162543
0.0010156676
0.0010149805
0.0010141853
0.0010132808
0.0010122698
0.0010111269
0.0010098284
0.0010086609
0.001007755
0.0010069556
0.0010061167
0.0010050286
0.0010037186
0.0010028043
0.0010020918
2.8172603e-07
8.3968196e-06
1.6392368e-05
1.813594e-05
1.3121852e-05
1.3855511e-05
1.0598496e-05
1.261914e-05
1.1373274e-05
1.4120849e-05
1.3980478e-05
1.4749818e-05
1.4370307e-05
1.4091132e-05
1.3839036e-05
1.3660665e-05
1.3555631e-05
1.3517864e-05
1.3544069e-05
1.3628914e-05
1.3771734e-05
1.3973514e-05
1.4233547e-05
1.4553523e-05
1.4934371e-05
1.538132e-05
1.5899445e-05
1.649705e-05
1.7184981e-05
1.7977935e-05
1.8890946e-05
1.9941003e-05
2.1151265e-05
2.254953e-05
2.4171653e-05
2.6060882e-05
2.8270664e-05
3.0865624e-05
3.392285e-05
3.7535936e-05
4.1830552e-05
4.6947234e-05
5.3058973e-05
6.0378356e-05
6.9182547e-05
7.9790104e-05
9.2596675e-05
0.00010809277
0.00012688155
0.00014970917
0.00017748399
0.00021133871
0.00025266673
0.00030319683
0.00036506486
0.00044091505
0.00053403626
0.0006485372
0.00078955871
0.00096350275
0.0010171684
0.0010168591
0.0010164994
0.0010160631
0.0010155449
0.0010149387
0.001014238
0.001013436
0.00101253
0.0010115251
0.0010104037
0.0010091421
0.0010080402
0.0010071714
0.0010063957
0.0010055781
0.0010045313
0.0010032994
0.0010023818
0.00100149
2.5137691e-07
8.324592e-06
1.5880375e-05
1.7175475e-05
1.3019357e-05
1.224352e-05
1.0656148e-05
1.1619351e-05
1.1009068e-05
1.2609936e-05
1.2880935e-05
1.3167338e-05
1.2893593e-05
1.25786e-05
1.2356752e-05
1.2193808e-05
1.2100157e-05
1.2068195e-05
1.209519e-05
1.2176343e-05
1.2310675e-05
1.2499592e-05
1.2742405e-05
1.2964296e-05
1.3310831e-05
1.3720619e-05
1.4198103e-05
1.4750867e-05
1.5388662e-05
1.6125427e-05
1.6975944e-05
1.7956274e-05
1.9088614e-05
2.0399285e-05
2.1922608e-05
2.3700017e-05
2.5782938e-05
2.823403e-05
3.1128854e-05
3.4817547e-05
3.8927217e-05
4.3834299e-05
4.9709634e-05
5.675803e-05
6.5253614e-05
7.5511174e-05
8.7919577e-05
0.00010296215
0.00012123236
0.00014346941
0.00017056862
0.0002036498
0.00024408919
0.00029359592
0.00035428321
0.0004287662
0.00052029559
0.00063293056
0.00077175095
0.00094308302
0.001016602
0.0010162599
0.0010158668
0.0010154006
0.0010148556
0.0010142269
0.0010135093
0.001012697
0.0010117863
0.0010107824
0.0010096771
0.0010084465
0.0010074115
0.0010065843
0.0010058365
0.0010050453
0.0010040547
0.0010029076
0.0010019841
0.001001073
2.3032949e-07
8.2840245e-06
1.5442887e-05
1.562466e-05
1.1955491e-05
1.0671924e-05
9.232251e-06
1.037686e-05
9.6800631e-06
1.1332911e-05
1.1773092e-05
1.1713184e-05
1.1482339e-05
1.1173279e-05
1.0975698e-05
1.0832526e-05
1.0752443e-05
1.072901e-05
1.0694326e-05
1.0758888e-05
1.0876655e-05
1.1048013e-05
1.1270865e-05
1.1545236e-05
1.1875397e-05
1.2264457e-05
1.2716957e-05
1.3240414e-05
1.3844027e-05
1.4541285e-05
1.5347148e-05
1.6277168e-05
1.735307e-05
1.8600228e-05
2.0052041e-05
2.1748769e-05
2.3740592e-05
2.6088913e-05
2.8868665e-05
3.2171095e-05
3.6107464e-05
4.0818693e-05
4.647529e-05
5.3724974e-05
6.1993218e-05
7.1996913e-05
8.4121424e-05
9.88462e-05
0.00011675838
0.00013859593
0.00016524685
0.00019782543
0.00023769956
0.00028656888
0.00034653686
0.00042020546
0.00051080624
0.00062237126
0.00075994573
0.0009298156
0.0010160638
0.0010156863
0.0010152568
0.0010147576
0.0010141834
0.0010135296
0.0010127922
0.0010119666
0.0010110479
0.0010100397
0.0010089453
0.0010077457
0.0010067787
0.0010059981
0.0010052837
0.0010045243
0.0010036017
0.0010025512
0.0010016285
0.0010007102
2.1207421e-07
8.2424843e-06
1.4988838e-05
1.3665598e-05
9.8315139e-06
9.4898135e-06
7.6134892e-06
8.8437111e-06
8.9976767e-06
1.0195554e-05
1.0644657e-05
1.0359013e-05
1.0148356e-05
9.8698433e-06
9.6966854e-06
9.5086975e-06
9.4191883e-06
9.3911269e-06
9.4166614e-06
9.4930144e-06
9.6160908e-06
9.7870432e-06
1.000547e-05
1.0271139e-05
1.0588223e-05
1.0960677e-05
1.1393122e-05
1.1893102e-05
1.2469437e-05
1.3135154e-05
1.3905478e-05
1.4795687e-05
1.5827314e-05
1.7025065e-05
1.8421754e-05
2.0056912e-05
2.1979937e-05
2.4251505e-05
2.694579e-05
3.015306e-05
3.3984683e-05
3.8579244e-05
4.4109596e-05
5.0776274e-05
5.8836508e-05
6.8610569e-05
8.1194439e-05
9.5736565e-05
0.0001134508
0.00013507927
0.0001615087
0.00019385521
0.00023348714
0.00028210493
0.00034181491
0.0004152218
0.00050555699
0.00061684766
0.0007541297
0.00092368149
0.0010155489
0.0010151336
0.0010146649
0.0010141305
0.0010135248
0.001012844
0.0010120846
0.0010112428
0.0010103132
0.001009296
0.0010082064
0.0010070459
0.001006147
0.0010054184
0.0010047441
0.0010040217
0.0010031742
0.0010022328
0.0010013383
0.0010004355
1.9454483e-07
8.200754e-06
1.3523542e-05
1.1893072e-05
7.9574792e-06
8.4222936e-06
6.7615736e-06
7.980316e-06
8.3299668e-06
9.1158855e-06
9.5211398e-06
9.1211682e-06
8.9179511e-06
8.5922214e-06
8.4101945e-06
8.2925111e-06
8.2357185e-06
8.2315747e-06
8.2742902e-06
8.3603342e-06
8.4900527e-06
8.6615635e-06
8.8768496e-06
9.1359757e-06
9.443339e-06
9.8032876e-06
1.0220584e-05
1.0702923e-05
1.1258884e-05
1.1901065e-05
1.264501e-05
1.3506024e-05
1.450567e-05
1.566826e-05
1.7026339e-05
1.861911e-05
2.049562e-05
2.2716341e-05
2.5355605e-05
2.85039e-05
3.227245e-05
3.6799137e-05
4.2259557e-05
4.885386e-05
5.6840906e-05
6.6542124e-05
7.8354103e-05
9.2742618e-05
0.00011130692
0.00013291832
0.00015935573
0.0001917443
0.00023146221
0.00028022121
0.00034014367
0.00041385331
0.00050460104
0.00061643258
0.00075440036
0.00092480595
0.0010150516
0.0010145965
0.0010140869
0.0010135153
0.0010128765
0.001012167
0.0010113837
0.0010105233
0.0010095807
0.0010085514
0.0010074585
0.0010063536
0.0010055222
0.00100485
0.0010042238
0.0010035443
0.0010027728
0.0010019497
0.0010011173
0.001000241
1.7957876e-07
8.1541508e-06
1.0743731e-05
9.8756913e-06
6.5300138e-06
7.4923683e-06
6.159255e-06
7.1657036e-06
7.7884177e-06
8.1333672e-06
8.415432e-06
7.9075914e-06
7.6586698e-06
7.4304858e-06
7.294567e-06
7.2146516e-06
7.185901e-06
7.2017925e-06
7.2598723e-06
7.3568042e-06
7.4908407e-06
7.664177e-06
7.8783085e-06
8.1337161e-06
8.4348842e-06
8.7865889e-06
9.1938546e-06
9.6645786e-06
1.0207297e-05
1.0834252e-05
1.1502027e-05
1.2334802e-05
1.3304097e-05
1.4433805e-05
1.5756196e-05
1.731017e-05
1.9144498e-05
2.1319495e-05
2.3909768e-05
2.7006302e-05
3.0721177e-05
3.5469374e-05
4.0916679e-05
4.7507014e-05
5.5501023e-05
6.5222538e-05
7.707809e-05
9.1542872e-05
0.00010921608
0.00013084459
0.0001587833
0.00019149166
0.00023162879
0.0002809288
0.00034154361
0.00041613318
0.00050798844
0.00062119858
0.0007608601
0.00093332705
0.0010145665
0.0010140696
0.0010135179
0.0010129078
0.0010122344
0.0010114949
0.0010106864
0.0010098054
0.001008848
0.0010078071
0.0010067014
0.001005676
0.0010049107
0.0010042978
0.0010037283
0.0010030997
0.0010023986
0.0010016948
0.0010009645
0.0010001127
1.6626126e-07
8.1065575e-06
8.473531e-06
8.3805917e-06
5.7314483e-06
6.6349749e-06
5.6504382e-06
6.4506813e-06
7.2382348e-06
7.2158389e-06
7.2157227e-06
6.7821506e-06
6.578285e-06
6.4092397e-06
6.3124574e-06
6.2637209e-06
6.2591899e-06
6.2940224e-06
6.3644663e-06
6.4707429e-06
6.6113872e-06
6.7880751e-06
7.0033336e-06
7.2581222e-06
7.5570074e-06
7.8710865e-06
8.2667133e-06
8.7250729e-06
9.2545603e-06
9.8669713e-06
1.0576514e-05
1.1401688e-05
1.2363355e-05
1.3485461e-05
1.4800549e-05
1.6347887e-05
1.8176792e-05
2.0348303e-05
2.2938423e-05
2.6039936e-05
2.9767397e-05
3.4263983e-05
3.9705155e-05
4.6301323e-05
5.4316877e-05
6.4637688e-05
7.6650038e-05
9.1324431e-05
0.00010926882
0.00013125051
0.00015820652
0.00019309323
0.00023398912
0.00028423856
0.00034603722
0.00042209965
0.00051577878
0.00063123438
0.00077363844
0.00094942633
0.001014088
0.0010135476
0.0010129533
0.0010123036
0.0010115947
0.001010824
0.0010099893
0.0010090866
0.0010081124
0.0010070642
0.0010059496
0.0010050209
0.0010043197
0.0010037662
0.001003261
0.0010026941
0.0010020548
0.0010014567
0.0010008746
0.001000044
1.5434686e-07
8.0485359e-06
6.7345474e-06
7.3503315e-06
5.1021843e-06
5.8627491e-06
5.2129895e-06
5.818503e-06
6.5822395e-06
6.1754478e-06
6.1319045e-06
5.7970396e-06
5.6345103e-06
5.5132836e-06
5.450024e-06
5.4287585e-06
5.4449793e-06
5.4963659e-06
5.5800406e-06
5.6963498e-06
5.8446359e-06
6.0268369e-06
6.2194134e-06
6.4711145e-06
6.7665076e-06
7.1097635e-06
7.5079433e-06
7.9686061e-06
8.5003597e-06
9.1151927e-06
9.8274528e-06
1.0655401e-05
1.1621118e-05
1.2748893e-05
1.4071793e-05
1.5629812e-05
1.747334e-05
1.966464e-05
2.2281803e-05
2.5420416e-05
2.919771e-05
3.3759799e-05
3.9290757e-05
4.6005836e-05
5.4177048e-05
6.4142813e-05
7.6323708e-05
9.1228242e-05
0.00011044683
0.00013297438
0.00016061596
0.0001945626
0.00023853629
0.00029015222
0.00035363758
0.00043178164
0.00052802328
0.0006466219
0.00079286267
0.00097329511
0.0010136108
0.0010130254
0.0010123883
0.0010116988
0.0010109538
0.0010101512
0.0010092895
0.0010083648
0.0010073721
0.0010063208
0.0010052376
0.0010043962
0.0010037566
0.0010032598
0.0010028225
0.0010023303
0.0010017489
0.001001224
0.0010008111
0.00099999403
1.4371307e-07
7.976868e-06
5.3957826e-06
6.414102e-06
4.5422437e-06
5.1766126e-06
4.8385553e-06
5.1740675e-06
5.7571734e-06
5.2709678e-06
5.1800392e-06
4.934523e-06
4.8108336e-06
4.7295463e-06
4.6959238e-06
4.6990061e-06
4.7350841e-06
4.8026575e-06
4.8996443e-06
5.0080689e-06
5.1598398e-06
5.3453639e-06
5.5669058e-06
5.8274264e-06
6.1312022e-06
6.4827882e-06
6.8891663e-06
7.3585202e-06
7.8996785e-06
8.5247846e-06
9.2482994e-06
1.0088697e-05
1.1018374e-05
1.2152721e-05
1.348425e-05
1.5053653e-05
1.6912593e-05
1.9124612e-05
2.176993e-05
2.4947439e-05
2.8778042e-05
3.3665692e-05
3.9338455e-05
4.6235441e-05
5.4637395e-05
6.4891592e-05
7.7437559e-05
9.2804786e-05
0.00011164161
0.0001359892
0.00016455014
0.00019964046
0.00024277262
0.0002986541
0.00036433891
0.00044518675
0.00054474992
0.00066741781
0.00081863309
0.0010051044
0.0010131298
0.0010124987
0.0010118191
0.00101109
0.0010103087
0.001009474
0.0010085847
0.0010076385
0.0010066286
0.0010055703
0.0010045695
0.0010038098
0.0010032288
0.0010027837
0.0010024115
0.0010020033
0.001001491
0.0010010101
0.0010007813
0.0010000794
1.3422388e-07
7.8467186e-06
4.3736575e-06
5.5808206e-06
4.0412214e-06
4.5653774e-06
4.509808e-06
4.4744166e-06
4.9241226e-06
4.4638563e-06
4.3544606e-06
4.1826151e-06
4.0958127e-06
4.0490458e-06
4.042371e-06
4.0680355e-06
4.1230092e-06
4.1898561e-06
4.2952596e-06
4.4307731e-06
4.5972534e-06
4.7962226e-06
5.0306358e-06
5.3036604e-06
5.6201399e-06
5.9848946e-06
6.4049704e-06
6.8681963e-06
7.4195137e-06
8.0554628e-06
8.790538e-06
9.6432181e-06
1.0636096e-05
1.1797568e-05
1.3161511e-05
1.4769894e-05
1.6676645e-05
1.8947602e-05
2.166604e-05
2.4935696e-05
2.8882809e-05
3.3666484e-05
3.9479168e-05
4.655793e-05
5.519491e-05
6.6301664e-05
7.9319814e-05
9.5276499e-05
0.00011485
0.00013887652
0.00016996725
0.00020648109
0.0002513775
0.00030659177
0.00037810092
0.00046228246
0.00056593966
0.00069362402
0.00085098268
0.0010132908
0.0010126408
0.0010119642
0.0010112431
0.0010104749
0.001009658
0.0010087917
0.0010078745
0.0010069064
0.0010058868
0.0010048234
0.0010039495
0.0010032677
0.0010027431
0.0010023449
0.0010020283
0.0010017003
0.0010012818
0.0010008794
0.0010006431
0.0010000941
1.2580145e-07
7.5232392e-06
3.664085e-06
4.8411242e-06
3.5948069e-06
4.0235736e-06
3.9966998e-06
3.8411346e-06
4.1212068e-06
3.7501211e-06
3.646617e-06
3.5335247e-06
3.48127e-06
3.4649621e-06
3.4829272e-06
3.516664e-06
3.5836871e-06
3.6797791e-06
3.8041455e-06
3.9570337e-06
4.1399299e-06
4.3548795e-06
4.6052594e-06
4.8945255e-06
5.2159737e-06
5.5946458e-06
6.0290795e-06
6.5274208e-06
7.0999136e-06
7.7587598e-06
8.5188196e-06
9.3993051e-06
1.0423716e-05
1.1621501e-05
1.302884e-05
1.4689206e-05
1.6659349e-05
1.9008136e-05
2.182217e-05
2.5211228e-05
2.9306438e-05
3.4274687e-05
4.0320666e-05
4.7691679e-05
5.6695823e-05
6.7711087e-05
8.1923751e-05
9.859587e-05
0.00011905452
0.00014418472
0.00017505135
0.00021501296
0.00026200569
0.00031981325
0.00039092843
0.00048297008
0.0005914942
0.00072514848
0.00088982534
0.0010128265
0.0010121405
0.0010114206
0.0010106594
0.0010098535
0.0010090019
0.0010081051
0.0010071616
0.0010061698
0.0010051481
0.0010041507
0.0010033788
0.0010027731
0.0010023035
0.0010019497
0.001001679
0.0010014134
0.0010010779
0.0010007534
0.0010005632
0.0010000784
1.1852284e-07
7.1140564e-06
3.2172285e-06
4.1851518e-06
3.1971589e-06
3.3938111e-06
3.5422314e-06
3.2608953e-06
3.3951378e-06
3.130111e-06
3.0474097e-06
2.9807304e-06
2.9598357e-06
2.9707259e-06
2.9961998e-06
3.0585971e-06
3.1488638e-06
3.2658146e-06
3.4095651e-06
3.5810942e-06
3.7824339e-06
4.0159114e-06
4.2769803e-06
4.5830655e-06
4.9333351e-06
5.3335019e-06
5.7904331e-06
6.3125589e-06
6.9103209e-06
7.5966832e-06
8.3869653e-06
9.3011777e-06
1.0363865e-05
1.1605919e-05
1.3009566e-05
1.471887e-05
1.6748826e-05
1.9171839e-05
2.2211219e-05
2.5744759e-05
3.0019118e-05
3.5208931e-05
4.1532244e-05
4.924931e-05
5.8683458e-05
7.0234864e-05
8.43943e-05
0.00010176376
0.00012418204
0.00015058691
0.00018303142
0.0002229132
0.00027452858
0.00033531984
0.000410114
0.00050705375
0.00062119563
0.00076175543
0.00093490613
0.0010123519
0.0010116289
0.0010108683
0.0010100692
0.0010092278
0.001008343
0.0010074162
0.0010064496
0.0010054398
0.001004402
0.0010035412
0.0010028607
0.0010023262
0.0010019106
0.0010016004
0.001001369
0.0010011489
0.0010008757
0.0010006267
0.0010004929
0.0010000989
1.1264942e-07
6.1596062e-06
2.8351909e-06
3.5897055e-06
2.8521064e-06
2.813269e-06
3.0901299e-06
2.7357212e-06
2.7719427e-06
2.6005792e-06
2.5454711e-06
2.5164007e-06
2.516227e-06
2.5446333e-06
2.6044104e-06
2.6914988e-06
2.8040201e-06
2.9418107e-06
3.1057394e-06
3.2972272e-06
3.5135167e-06
3.7656909e-06
4.0538514e-06
4.3820704e-06
4.7552128e-06
5.1791789e-06
5.6611432e-06
6.2098544e-06
6.8360705e-06
7.5366005e-06
8.3555936e-06
9.3013842e-06
1.0399499e-05
1.1681915e-05
1.3188626e-05
1.4969629e-05
1.7086731e-05
1.9617304e-05
2.2657341e-05
2.6325437e-05
3.0768832e-05
3.6429472e-05
4.3069231e-05
5.1180983e-05
6.1104401e-05
7.3261561e-05
8.8171322e-05
0.000106472
0.00013013145
0.00015796643
0.00019217969
0.00023424287
0.00028875075
0.00035288168
0.00043180159
0.00052893947
0.0006546629
0.00080300619
0.00098572009
0.0010118689
0.0010111083
0.0010103103
0.0010094758
0.0010086016
0.0010076861
0.0010067295
0.001005738
0.0010047298
0.0010037464
0.0010029915
0.0010023947
0.0010019254
0.001001562
0.0010012944
0.0010010978
0.0010009123
0.0010006875
0.0010005022
0.0010004077
0.0010001299
1.0776036e-07
4.2950537e-06
2.4890316e-06
3.0381026e-06
2.4197886e-06
2.3266755e-06
2.6169685e-06
2.2687224e-06
2.2535585e-06
2.1548241e-06
2.130183e-06
2.1263901e-06
2.1541133e-06
2.2127997e-06
2.2984085e-06
2.4086155e-06
2.5427613e-06
2.7013652e-06
2.883062e-06
3.0939437e-06
3.3350298e-06
3.6091815e-06
3.9198787e-06
4.2713517e-06
4.6686997e-06
5.1180653e-06
5.6269018e-06
6.1948914e-06
6.8483768e-06
7.5946967e-06
8.4510903e-06
9.4389654e-06
1.05853e-05
1.1923972e-05
1.3497447e-05
1.5358651e-05
1.7573361e-05
2.0223413e-05
2.3410613e-05
2.7261275e-05
3.19319e-05
3.7615417e-05
4.4881908e-05
5.3428851e-05
6.38915e-05
7.67156e-05
9.244953e-05
0.00011176912
0.00013550695
0.00016616571
0.00020230933
0.00024675534
0.00030143067
0.0003721685
0.00045559043
0.00055828412
0.00069130893
0.00084819975
0.0010121663
0.0010113807
0.0010105831
0.0010097511
0.001008884
0.0010079794
0.0010070364
0.0010060547
0.0010050368
0.0010040127
0.0010031712
0.0010025029
0.0010019784
0.0010015674
0.0010012533
0.001001027
0.0010008616
0.0010007022
0.0010005168
0.0010003922
0.0010003321
0.0010001396
1.0254991e-07
3.5422552e-06
2.1286096e-06
2.5311783e-06
2.065754e-06
1.9202333e-06
2.1317928e-06
1.8597156e-06
1.8322571e-06
1.7885969e-06
1.7902308e-06
1.8172805e-06
1.8765952e-06
1.9619083e-06
2.0708496e-06
2.2025469e-06
2.3572472e-06
2.5341015e-06
2.7379228e-06
2.9698301e-06
3.2323626e-06
3.5285969e-06
3.8622107e-06
4.2375943e-06
4.6600177e-06
5.1358402e-06
5.6664225e-06
6.2711817e-06
6.9574607e-06
7.7396912e-06
8.6360225e-06
9.6691085e-06
1.0867438e-05
1.2266825e-05
1.3912343e-05
1.586042e-05
1.8181113e-05
2.0961238e-05
2.4308758e-05
2.83571e-05
3.3271858e-05
3.9541987e-05
4.6912013e-05
5.5924708e-05
6.6964138e-05
8.0500954e-05
9.7114512e-05
0.0001175186
0.00014391382
0.00017498104
0.00021317344
0.00026014819
0.00031794407
0.00039273281
0.00048094082
0.00058954838
0.00073030078
0.00089631501
0.0010116973
0.00101089
0.001010059
0.0010091964
0.0010083
0.0010073674
0.0010063974
0.0010053942
0.0010043757
0.0010034089
0.0010026633
0.0010020724
0.0010016088
0.0010012486
0.0010009793
0.0010007912
0.0010006544
0.001000518
0.0010003662
0.0010002923
0.0010002712
0.0010001405
9.872386e-08
2.8286276e-06
1.8166111e-06
2.0231792e-06
1.7732352e-06
1.5727836e-06
1.6842662e-06
1.5134445e-06
1.5007451e-06
1.50064e-06
1.5289798e-06
1.5890252e-06
1.6748563e-06
1.7829866e-06
1.9125006e-06
2.0636163e-06
2.2362707e-06
2.4336108e-06
2.657211e-06
2.9094002e-06
3.1929616e-06
3.5111492e-06
3.8677737e-06
4.2673432e-06
4.7152604e-06
5.2144662e-06
5.7783253e-06
6.4142958e-06
7.1344277e-06
7.9538382e-06
8.8917112e-06
9.9720134e-06
1.1224912e-05
1.268828e-05
1.4409743e-05
1.6449192e-05
1.8881486e-05
2.1798517e-05
2.5315023e-05
2.9572231e-05
3.4973877e-05
4.1329276e-05
4.9090683e-05
5.8588192e-05
7.0226227e-05
8.4502539e-05
0.00010202877
0.00012355886
0.00015137316
0.00018415313
0.0002244604
0.00027404396
0.00033506172
0.00041398456
0.00050713416
0.00062185438
0.00077053758
0.00094599044
0.0010112292
0.0010104008
0.0010095421
0.0010086528
0.00100773
0.0010067728
0.0010057797
0.0010047539
0.0010037296
0.0010028918
0.0010022217
0.001001695
0.0010012828
0.0010009661
0.0010007363
0.0010005814
0.0010004691
0.001000355
0.0010002372
0.0010002049
0.0010002171
0.0010001333
9.6482892e-08
2.2059119e-06
1.5453756e-06
1.5405904e-06
1.5035806e-06
1.2758845e-06
1.3202115e-06
1.2371572e-06
1.2519988e-06
1.2827195e-06
1.344403e-06
1.4303798e-06
1.5376112e-06
1.6647591e-06
1.8120758e-06
1.9805711e-06
2.1710899e-06
2.3866335e-06
2.6290266e-06
2.9008189e-06
3.204936e-06
3.5447471e-06
3.9241628e-06
4.3477855e-06
4.8211196e-06
5.3508559e-06
5.9452413e-06
6.6145249e-06
7.3629817e-06
8.2200475e-06
9.2000922e-06
1.0328481e-05
1.1637178e-05
1.3166308e-05
1.4966097e-05
1.7169154e-05
1.9734754e-05
2.2814558e-05
2.6530686e-05
3.1033758e-05
3.6509224e-05
4.318505e-05
5.134272e-05
6.1328506e-05
7.3568551e-05
8.8587607e-05
0.00010703065
0.00013082459
0.00015888368
0.00019337524
0.00023579344
0.00028798092
0.00035554596
0.00043520378
0.00053328765
0.0006541202
0.00081065943
0.00099555221
0.0010107678
0.001009919
0.0010090382
0.0010081269
0.0010071813
0.0010062009
0.0010051897
0.0010041641
0.0010031997
0.0010024453
0.0010018416
0.0010013674
0.0010009985
0.0010007193
0.0010005229
0.0010003962
0.0010003039
0.00100021
0.001000125
0.0010001267
0.0010001656
0.0010001247
9.6615389e-08
1.6752112e-06
1.3165365e-06
1.1714102e-06
1.2324894e-06
1.0274479e-06
1.0530178e-06
1.0329367e-06
1.076194e-06
1.1363774e-06
1.2221505e-06
1.3277154e-06
1.4519802e-06
1.5950788e-06
1.758064e-06
1.9424336e-06
2.1497073e-06
2.3824679e-06
2.6428863e-06
2.9336217e-06
3.2576829e-06
3.6185145e-06
4.0201091e-06
4.4671657e-06
4.965311e-06
5.5213967e-06
6.1438976e-06
6.8434104e-06
7.6332728e-06
8.5303499e-06
9.555958e-06
1.0737094e-05
1.2107775e-05
1.3710776e-05
1.5599642e-05
1.7841167e-05
2.0518452e-05
2.3734874e-05
2.7618324e-05
3.2327066e-05
3.8056492e-05
4.5046825e-05
5.3591636e-05
6.4054315e-05
7.688079e-05
9.3387016e-05
0.00011286072
0.0001367787
0.00016617175
0.00020231097
0.00024676192
0.0003042855
0.0003720997
0.00045558132
0.00055840398
0.00069176678
0.00084910762
0.001011192
0.0010103239
0.0010094527
0.0010085528
0.0010076247
0.0010066632
0.0010056655
0.0010046362
0.0010036115
0.0010027607
0.00100207
0.0010015204
0.0010010885
0.0010007559
0.0010005094
0.0010003391
0.0010002356
0.00100016
0.001000085
0.0010000303
0.00100006
0.0010001229
0.0010001144
9.9925506e-08
1.2421873e-06
1.1270592e-06
9.0152328e-07
1.0744569e-06
8.2256495e-07
8.6956978e-07
8.9441825e-07
9.6048554e-07
1.0438103e-06
1.147016e-06
1.26762e-06
1.4059839e-06
1.5630935e-06
1.7404149e-06
1.9396648e-06
2.1627939e-06
2.4118287e-06
2.6894077e-06
2.9981651e-06
3.3411712e-06
3.7219405e-06
4.1445496e-06
4.613804e-06
5.1354668e-06
5.716568e-06
6.3658221e-06
7.0941967e-06
7.9155406e-06
8.8474425e-06
9.9121573e-06
1.1137942e-05
1.2560437e-05
1.4224481e-05
1.6186215e-05
1.8515695e-05
2.1299993e-05
2.464703e-05
2.8690244e-05
3.3594348e-05
3.9832648e-05
4.7174122e-05
5.6147248e-05
6.7132644e-05
8.0597599e-05
9.7116971e-05
0.00011739843
0.00014231332
0.00017293172
0.00021254636
0.00025919956
0.00031658715
0.00038721422
0.00047417963
0.00058698945
0.00072001902
0.00088402437
0.0010107951
0.0010099113
0.0010090178
0.001008098
0.0010071525
0.0010061782
0.0010051748
0.0010041521
0.001003169
0.001002397
0.0010017648
0.0010012596
0.0010008614
0.0010005571
0.0010003386
0.0010001876
0.0010000996
0.0010000377
0.00099998177
0.00099995519
0.0010000062
0.0010000872
0.001000097
1.0652071e-07
9.6041788e-07
9.6184307e-07
7.6246502e-07
7.6575353e-07
7.0143921e-07
7.4672308e-07
8.0675717e-07
8.9011271e-07
9.8959475e-07
1.1058976e-06
1.2389145e-06
1.3896982e-06
1.5595617e-06
1.7500952e-06
1.9630734e-06
2.2004783e-06
2.4645165e-06
2.7576581e-06
3.0826815e-06
3.4427389e-06
3.841445e-06
4.2830015e-06
4.7723743e-06
5.3155384e-06
5.9176773e-06
6.5909066e-06
7.3452047e-06
8.2023037e-06
9.1689586e-06
1.0273473e-05
1.154548e-05
1.3022326e-05
1.475093e-05
1.6789994e-05
1.9212662e-05
2.2109765e-05
2.5593794e-05
2.9803731e-05
3.4911017e-05
4.1126885e-05
4.8711382e-05
5.7984283e-05
6.9336956e-05
8.3252526e-05
0.0001003245
0.00012236305
0.00014830694
0.00018017915
0.00021935536
0.00026753179
0.00032680524
0.000399767
0.00049427765
0.00060580178
0.00074326488
0.00091280857
0.0010104453
0.0010095476
0.0010086358
0.0010076981
0.0010067337
0.0010057409
0.0010047239
0.0010037091
0.0010028216
0.0010021051
0.0010015237
0.0010010573
0.0010006866
0.0010004094
0.0010002048
0.001000071
0.00099998841
0.00099993373
0.00099989298
0.00099988962
0.00099995525
0.0010000491
0.0010000766
1.210904e-07
9.6547831e-07
8.0250604e-07
5.6520447e-07
6.0840681e-07
6.1129188e-07
6.7485269e-07
7.5370005e-07
8.5058469e-07
9.6224577e-07
1.0896636e-06
1.2336575e-06
1.3955155e-06
1.5766448e-06
1.7786606e-06
2.0033609e-06
2.2527547e-06
2.5290883e-06
2.8348811e-06
3.1729701e-06
3.546571e-06
3.9593649e-06
4.4156219e-06
4.9203785e-06
5.4796888e-06
6.1009696e-06
6.793457e-06
7.568793e-06
8.4417688e-06
9.4312127e-06
1.0561057e-05
1.1861677e-05
1.3371403e-05
1.5138403e-05
1.7222919e-05
1.9699977e-05
2.266269e-05
2.6226262e-05
3.0532893e-05
3.5757783e-05
4.2116627e-05
5.0232235e-05
5.9789991e-05
7.1487063e-05
8.5820094e-05
0.00010339882
0.00012497413
0.000151471
0.00018402955
0.00022405428
0.00027328286
0.00033694365
0.00041206265
0.00050456824
0.00061856189
0.00075913443
0.00093260002
0.0010101576
0.001009248
0.0010083228
0.0010073733
0.0010063984
0.0010053971
0.0010043758
0.0010033715
0.0010025521
0.00100188
0.0010013365
0.0010009001
0.0010005535
0.0010002995
0.0010001088
0.00099998353
0.00099990256
0.00099984956
0.00099981872
0.00099982987
0.00099990199
0.00099999978
0.0010000422
1.1101781e-07
6.232227e-07
6.3620676e-07
4.6802383e-07
5.1041392e-07
5.5617482e-07
6.3488893e-07
7.2738564e-07
8.3495513e-07
9.5692168e-07
1.0943555e-06
1.2483052e-06
1.4200853e-06
1.611157e-06
1.823168e-06
2.0579618e-06
2.3176017e-06
2.6043629e-06
2.9208761e-06
3.2700265e-06
3.6550984e-06
4.0798421e-06
4.5485987e-06
5.0664784e-06
5.6396166e-06
6.2755242e-06
6.9835541e-06
7.7755048e-06
8.6734977e-06
9.6856291e-06
1.0841199e-05
1.2171337e-05
1.3715269e-05
1.5522251e-05
1.7653818e-05
2.0186563e-05
2.321548e-05
2.6858061e-05
3.1259307e-05
3.6597861e-05
4.3093505e-05
5.1016281e-05
6.0697678e-05
7.2546212e-05
8.7063557e-05
0.0001048673
0.00012671799
0.00015490048
0.00018811611
0.00022893731
0.00027913551
0.00034089838
0.00041693464
0.00051060206
0.00062606873
0.00076851597
0.00094437757
0.0010099513
0.0010090305
0.001008092
0.0010071298
0.0010061435
0.0010051339
0.0010041122
0.0010031321
0.0010023588
0.00100172
0.0010012045
0.00100079
0.0010004587
0.00100022
0.0010000336
0.00099991454
0.00099984102