/*--------------------------------*- C++ -*----------------------------------*\
  =========                 |
  \\      /  F ield         | OpenFOAM: The Open Source CFD Toolbox
   \\    /   O peration     | Website:  https://openfoam.org
    \\  /    A nd           | Version:  12
     \\/     M anipulation  |
\*---------------------------------------------------------------------------*/
FoamFile
{
    format      ascii;
    class       volScalarField;
    location    "0.091";
    object      omega;
}
// * * * * * * * * * * * * * * * * * * * * * * * * * * * * * * * * * * * * * //

dimensions      [0 0 -1 0 0 0 0];

internalField   nonuniform List<scalar> 
16000
(
1088.5059
2189.3371
1076.3759
646.1652
456.20436
317.13244
240.83531
181.70791
146.45411
118.46958
100.68928
86.132185
75.397561
66.406203
59.081266
52.905989
47.694474
43.249483
39.430225
36.124309
33.247229
30.727852
28.507589
26.539707
24.786533
23.218779
21.812164
20.547932
19.410217
18.384553
17.457834
16.619698
15.861893
15.177438
14.560378
14.005185
13.506661
13.059892
12.660763
12.305814
11.99117
11.712735
11.467534
11.252879
11.065718
10.902922
10.762053
10.640794
10.53692
10.448326
10.373137
10.309726
10.256581
10.212358
10.175865
10.146179
10.122715
10.105343
10.094569
10.090942
10.091058
10.090238
10.088888
10.08703
10.084557
10.081362
10.077325
10.072375
10.06649
10.059518
10.050946
10.040566
10.032143
10.027142
10.023783
10.020623
10.016383
10.008561
10.009107
10.020227
1130.0584
2180.3792
1066.0225
646.2304
456.19806
319.95386
241.81966
183.46612
147.23779
119.47092
101.20271
86.676597
75.73871
66.703989
59.29367
53.06999
47.812627
43.33387
39.488172
36.16133
33.268061
30.736954
28.508486
26.535229
24.778478
23.20858
21.800565
20.535324
19.397067
18.371576
17.44549
16.608096
15.850998
15.167102
14.550486
13.995689
13.497622
13.051318
12.652472
12.297739
11.983538
11.705561
11.460671
11.246294
11.059563
10.897203
10.756735
10.63586
10.532379
10.444184
10.369362
10.306296
10.253471
10.209551
10.173323
10.143821
10.1204
10.102783
10.091206
10.086338
10.086217
10.085412
10.084026
10.082142
10.07966
10.07648
10.072488
10.067607
10.061835
10.055099
10.047012
10.037332
10.029219
10.024345
10.021063
10.018023
10.013623
10.006698
10.006575
10.013909
1170.0116
2181.6567
1053.6543
642.57411
452.7133
320.12336
240.65193
183.60958
146.74864
119.60207
101.02273
86.670845
75.618827
66.592715
59.15046
52.916825
47.64975
43.166874
39.320891
35.995912
33.106298
30.58075
28.359206
26.394018
24.6457
23.084521
21.685061
20.427941
19.29739
18.27955
17.361
16.530769
15.78039
15.102676
14.49175
13.9422
13.449071
13.007446
12.612843
12.26189
11.951383
11.676903
11.435132
11.223515
11.039436
10.879522
10.741249
10.622337
10.520624
10.434031
10.360619
10.298796
10.247056
10.204089
10.168685
10.13986
10.116943
10.099609
10.087904
10.082237
10.08172
10.080859
10.079384
10.077418
10.074865
10.071638
10.067634
10.062776
10.057068
10.050487
10.04275
10.033733
10.026073
10.021421
10.01827
10.01533
10.010937
10.00477
10.004186
10.010539
1208.1771
2189.6885
1043.6451
639.0105
448.83101
320.10859
239.1913
183.59807
146.1193
119.63399
100.79227
86.604251
75.458988
66.435173
58.967914
52.725929
47.452344
42.967692
39.123821
35.80295
32.918967
30.400823
28.187874
26.232384
24.494014
22.943
21.553498
20.305841
19.18419
18.17509
17.265145
16.443098
15.700425
15.029823
14.425464
13.881965
13.394498
12.958251
12.568598
12.222005
11.915708
11.645236
11.407085
11.198617
11.017542
10.8604
10.72461
10.607905
10.50816
10.423344
10.351486
10.291025
10.240463
10.19852
10.164001
10.135904
10.113529
10.096515
10.084812
10.078621
10.077589
10.076625
10.075027
10.072944
10.070287
10.066981
10.062935
10.058079
10.052413
10.045959
10.038509
10.029968
10.022774
10.018364
10.015374
10.012568
10.008329
10.002727
10.001927
10.006586
1244.3798
2207.7985
1034.8824
635.1834
444.19987
319.35016
237.05149
183.10002
145.11343
119.38824
100.37519
86.361854
75.161429
66.146317
58.671338
52.431815
47.162606
42.685114
38.851361
35.541731
32.669589
30.164351
27.964836
26.023413
24.298961
22.761754
21.385592
20.15057
19.040685
18.042913
17.14401
16.332438
15.599642
14.938188
14.342305
13.806627
13.326434
12.897068
12.513843
12.172908
11.871968
11.606578
11.37309
11.168643
10.991337
10.837664
10.704975
10.591017
10.493688
10.411043
10.341071
10.282254
10.233102
10.192373
10.158897
10.131667
10.109959
10.093385
10.081851
10.075439
10.073817
10.07269
10.070932
10.068694
10.065897
10.062475
10.058356
10.053475
10.047829
10.041466
10.034247
10.026098
10.019398
10.01526
10.012453
10.009805
10.005832
10.000883
9.9999507
10.003558
1278.4778
2233.4053
1030.6625
632.11733
440.09128
317.97121
234.43576
182.19647
143.83386
118.90365
99.816274
85.966038
74.745628
65.743422
58.275214
52.047687
46.792037
42.329367
38.512484
35.220204
32.365232
29.877657
27.695791
25.77213
24.06508
22.544901
21.18508
19.965542
18.870022
17.88592
17.00028
16.201264
15.48033
14.829884
14.244224
13.71799
13.24655
12.825409
12.449956
12.115904
11.82135
11.561976
11.334087
11.13444
10.961566
10.811964
10.682906
10.572159
10.47762
10.397474
10.329661
10.272716
10.225161
10.185795
10.153485
10.127229
10.106283
10.090232
10.078955
10.072462
10.070369
10.069022
10.067069
10.064644
10.061676
10.058111
10.053891
10.048962
10.043316
10.037016
10.029981
10.022129
10.015941
10.012105
10.009512
10.007055
10.00344
9.9992035
9.9981535
10.000615
1310.4233
2264.156
1030.5437
629.23131
436.06391
315.95771
231.71683
180.92224
142.3708
118.18248
99.124441
85.415391
74.207642
65.224289
57.776274
51.570539
46.337549
41.897482
38.10411
34.8354
32.003085
29.538099
27.378378
25.475874
23.789906
22.290193
20.94992
19.748927
18.670601
17.702711
16.832742
16.048536
15.341613
14.704186
14.13063
13.615594
13.154507
12.743018
12.376732
12.051025
11.763945
11.511522
11.290189
11.096172
10.928391
10.783451
10.658545
10.551466
10.460077
10.382742
10.317345
10.262488
10.216704
10.178838
10.147806
10.122619
10.10252
10.08707
10.076126
10.069654
10.067208
10.065592
10.063413
10.060772
10.057609
10.053877
10.049532
10.044533
10.038866
10.032597
10.025712
10.018114
10.012449
10.008944
10.006596
10.00437
10.001193
9.9977149
9.9967134
9.9980176
1340.3251
2297.5566
1032.0033
626.04297
432.12014
313.30045
229.0243
179.41607
140.83223
117.24753
98.316772
84.718483
73.548632
64.591063
57.17469
50.999878
45.798088
41.3883
37.624176
34.38516
31.581048
29.143639
27.010909
25.131058
23.46999
21.994414
20.677146
19.498035
18.440028
17.491165
16.639536
15.872638
15.182106
14.559923
14.000547
13.498635
13.049674
12.649407
12.29371
11.978559
11.700091
11.455533
11.241685
11.054238
10.892177
10.752446
10.632187
10.529201
10.441281
10.367033
10.304274
10.251689
10.207827
10.171575
10.14191
10.117871
10.098692
10.083906
10.073352
10.066979
10.064289
10.062365
10.059933
10.057052
10.053674
10.049757
10.045268
10.040179
10.03447
10.028198
10.021426
10.014087
10.00895
10.005803
10.003737
10.001786
9.9991131
9.9964099
9.9956066
9.9959762
1368.2844
2331.3804
1030.4423
622.08537
427.29537
309.9474
225.45666
177.52004
138.96429
116.12851
97.389463
83.874693
72.761724
63.839174
56.465519
50.330022
45.167983
40.79672
37.064634
33.861389
31.091363
28.686865
26.586849
24.738446
23.106674
21.659343
20.368821
19.215106
18.180683
17.253717
16.423098
15.675977
15.004178
14.399402
13.856202
13.369244
12.934074
12.546527
12.202543
11.898081
11.629528
11.393832
11.188389
11.008983
10.853263
10.719235
10.604152
10.50565
10.421486
10.350558
10.290623
10.240459
10.19864
10.164091
10.13586
10.113025
10.09482
10.080753
10.070631
10.064409
10.061563
10.059304
10.056596
10.053458
10.049849
10.045734
10.041087
10.03589
10.030123
10.023811
10.01711
10.010096
10.005483
10.00272
10.000973
9.9993433
9.9972209
9.9952858
9.9948205
9.9944209
1394.4005
2363.9901
1021.6
617.03842
420.76337
306.15867
221.05608
175.15002
137.03929
114.83017
96.332197
82.878873
71.838791
62.960583
55.64065
49.548031
44.433259
40.109353
36.423816
33.264932
30.536532
28.171372
26.109652
24.297101
22.699294
21.284462
20.024588
18.899955
17.892577
16.990549
16.183677
15.458915
14.8083
14.223186
13.698233
13.228108
12.808416
12.435084
12.104215
11.811829
11.554237
11.328244
11.131772
10.960307
10.811632
10.683771
10.574727
10.481066
10.400966
10.33354
10.276579
10.228947
10.189259
10.156474
10.129717
10.10812
10.090927
10.077618
10.067962
10.061917
10.05898
10.05637
10.05337
10.049961
10.04611
10.041788
10.036973
10.031654
10.025812
10.019441
10.012748
10.006189
10.002093
9.9997306
9.9983396
9.997078
9.9955245
9.9943302
9.9942811
9.993308
1418.7881
2394.6879
1012.6208
610.92117
412.58887
301.95615
216.39672
172.58938
135.02059
113.35172
95.131536
81.723684
70.767902
61.934571
54.677398
48.648958
43.595195
39.330232
35.699746
32.593913
29.914697
27.595454
25.578123
23.807123
22.248203
20.87028
19.645169
18.553488
17.576811
16.702964
15.922354
15.222587
14.595671
14.032519
13.527901
13.076486
12.673941
12.316262
11.999727
11.720451
11.474833
11.259475
11.072675
10.909883
10.768728
10.647201
10.543861
10.4554
10.379948
10.316164
10.262333
10.21731
10.179809
10.148821
10.123549
10.1032
10.087032
10.07451
10.065346
10.059484
10.056485
10.053521
10.050219
10.04653
10.042429
10.037893
10.032904
10.02745
10.021522
10.015092
10.008333
10.002417
9.9988281
9.9968762
9.9958723
9.9950192
9.9940224
9.9935259
9.9939762
9.9927375
1441.5687
2424.4679
999.09862
603.27507
403.00793
297.35068
211.56824
169.7745
132.9786
111.69869
93.759956
80.378668
69.511207
60.754678
53.57934
47.62952
42.650001
38.455951
34.890923
31.847139
29.225502
26.959195
24.992491
23.268875
21.754168
20.417388
19.231364
18.176706
17.234561
16.392479
15.639369
14.967264
14.366622
13.827795
13.345648
12.914842
12.531121
12.19053
11.889557
11.624431
11.39168
11.18848
11.011846
10.858139
10.724949
10.610135
10.51273
10.429503
10.358381
10.29837
10.248018
10.205694
10.170411
10.141225
10.117425
10.098306
10.083155
10.07143
10.062785
10.057101
10.054028
10.050714
10.047103
10.043131
10.038776
10.03402
10.028853
10.023257
10.017227
10.010768
10.003969
9.9988312
9.9957399
9.9941967
9.9936008
9.9931872
9.9927068
9.9928514
9.9938557
9.9927774
1463.0532
2452.5151
981.67692
594.69922
392.90856
292.34669
206.67046
166.76078
130.8888
109.84941
92.152273
78.82731
68.073905
59.414948
52.339985
46.486003
41.595057
37.484527
33.996116
31.02399
28.468739
26.263015
24.353007
22.682977
21.218402
19.925328
18.782851
17.769485
16.865813
16.059634
15.339822
14.69798
14.126026
13.61372
13.155964
12.747389
12.383874
12.061473
11.77693
11.526679
11.307159
11.11547
10.949508
10.805276
10.680409
10.573034
10.481559
10.40369
10.33713
10.280788
10.233531
10.194181
10.161168
10.13378
10.111412
10.09348
10.079315
10.068375
10.060276
10.054771
10.051557
10.047909
10.043988
10.03973
10.035119
10.030141
10.024792
10.019053
10.012905
10.006449
9.9999181
9.9954826
9.9928768
9.9917309
9.9915479
9.9915922
9.9915731
9.9922978
9.9939773
9.9934991
1483.4768
2475.1085
960.09263
585.57819
382.36765
286.98175
201.79217
163.55821
128.6795
107.70879
90.292606
77.058838
66.443215
57.907153
50.953221
45.213424
40.427038
36.413875
33.014279
30.123488
27.644228
25.507698
23.658225
22.048089
20.6404
19.400495
18.306633
17.33917
16.478099
15.711309
15.027488
14.418434
13.876977
13.393075
12.96136
12.576352
12.234169
11.930828
11.663312
11.428414
11.222661
11.043028
10.887782
10.753094
10.636493
10.535926
10.4504
10.377847
10.316256
10.263704
10.219423
10.182636
10.152118
10.126558
10.105575
10.088765
10.075533
10.065336
10.057799
10.052511
10.049031
10.045067
10.040838
10.036297
10.031431
10.026231
10.020695
10.014817
10.00856
10.002069
9.9961997
9.9924194
9.990282
9.9895148
9.9897301
9.9902349
9.9906377
9.9918496
9.9943281
9.9946361
1503.0983
2487.6
934.39083
575.80998
371.45267
281.29525
197.00704
160.08644
126.23004
105.28405
88.15356
75.055511
64.606685
56.221188
49.411734
43.80689
39.143043
35.241574
31.944711
29.142479
26.749068
24.691594
22.916569
21.374046
20.029912
18.84864
17.808546
16.890995
16.076354
15.352363
14.707508
14.133511
13.622573
13.168427
12.764004
12.403524
12.083478
11.79983
11.549707
11.330395
11.138541
10.971853
10.827243
10.702005
10.593773
10.500208
10.420427
10.352815
10.295578
10.24721
10.205921
10.171498
10.143098
10.119571
10.099967
10.0842
10.071836
10.062312
10.055307
10.050323
10.046424
10.042159
10.03763
10.032811
10.027693
10.022275
10.01655
10.010528
10.004218
9.997705
9.9928387
9.9896782
9.9879907
9.987582
9.9881626
9.9891014
9.9899256
9.9915463
9.9947976
9.9956599
1522.137
2479.6777
904.94182
565.44324
360.20942
275.29078
192.30945
156.21856
123.46285
102.53038
85.705458
72.794682
62.548326
54.345983
47.708127
42.260805
37.74033
33.961701
30.782963
28.089681
25.795665
23.828093
22.136016
20.669047
19.394821
18.278297
17.296977
16.43122
15.666072
14.987543
14.383762
13.847052
13.369865
12.946002
12.569463
12.233863
11.93618
11.672401
11.439581
11.235731
11.057226
10.902119
10.768047
10.652034
10.552021
10.465981
10.391883
10.329033
10.275758
10.231047
10.193086
10.16095
10.134425
10.112647
10.094595
10.079816
10.068251
10.059325
10.052747
10.048025
10.043726
10.039167
10.03435
10.029263
10.023899
10.018269
10.012366
10.006183
9.9998792
9.9938971
9.9898392
9.9872794
9.9860248
9.985957
9.9868607
9.9881744
9.989405
9.9913441
9.9950318
9.9969595
1540.7626
2431.167
873.18106
554.50983
348.69538
268.88198
187.38898
151.92695
120.26401
99.4
82.914664
70.251732
60.252309
52.271955
45.835833
40.565711
36.211412
32.585853
29.545302
26.97613
24.795442
22.929176
21.329183
19.945562
18.744796
17.697774
16.779921
15.971847
15.25831
14.627069
14.065591
13.566741
13.123302
12.72957
12.380575
12.069642
11.794016
11.549969
11.334211
11.145475
10.980111
10.836183
10.712093
10.604845
10.512349
10.43294
10.364926
10.306685
10.257108
10.215699
10.180653
10.151052
10.126234
10.106003
10.089309
10.07563
10.064793
10.056413
10.050148
10.04558
10.040933
10.036092
10.031004
10.025663
10.020063
10.014222
10.008161
10.001861
9.9954526
9.9905547
9.9872219
9.9852235
9.9843866
9.984643
9.9858207
9.9874239
9.9889965
9.9912478
9.9950768
9.9976798
1558.8433
2395.4374
841.17019
542.95544
336.91334
261.52716
182.32021
147.10846
116.51939
95.834975
79.746187
67.402645
57.703321
49.990844
43.782401
38.7332
34.577755
31.129368
28.248242
25.820273
23.766136
22.012258
20.509425
19.216234
18.097129
17.12323
16.27127
15.522286
14.861122
14.277344
13.758316
13.297211
12.887267
12.52287
12.199234
11.912224
11.65784
11.43297
11.234751
11.060459
10.907804
10.774494
10.659698
10.560741
10.47535
10.401981
10.339151
10.285497
10.239783
10.20136
10.168962
10.141588
10.118602
10.099712
10.084259
10.071614
10.061462
10.053608
10.047578
10.042994
10.038055
10.032949
10.027611
10.022036
10.016217
10.010163
10.003927
9.9976591
9.9916948
9.9876429
9.9849779
9.9834924
9.9830547
9.983618
9.9850153
9.9868072
9.9886433
9.9912137
9.9950383
9.9981069
1575.9198
2353.7428
808.256
530.44499
324.75997
252.99163
176.90967
141.64779
112.12033
91.774313
76.166603
64.226662
54.882696
47.488205
41.573107
36.785648
32.863259
29.618585
26.917023
24.646254
22.726667
21.095072
19.700119
18.501426
17.466157
16.566934
15.781448
15.09169
14.48232
13.943459
13.465807
13.041258
12.663671
12.32798
12.029861
11.765384
11.531008
11.323704
11.140908
10.980327
10.839887
10.717538
10.611337
10.520016
10.441233
10.373501
10.315459
10.26591
10.223785
10.188116
10.158116
10.132805
10.11154
10.093824
10.079429
10.067655
10.058228
10.050897
10.045125
10.040292
10.035117
10.029768
10.024202
10.018412
10.012398
10.006166
9.9997396
9.9933619
9.9885223
9.9851658
9.9830806
9.9820531
9.9819861
9.9828381
9.9844175
9.9863189
9.9883318
9.9912079
9.9950811
9.9984855
1591.3266
2286.0418
773.69631
516.47717
311.46954
243.12626
170.8426
135.40557
106.96645
87.15927
72.150106
60.704524
51.807731
44.8118
39.244212
34.761709
31.105905
28.088418
25.579442
23.479061
21.707796
20.204071
18.919901
17.817369
16.865984
16.040455
15.319575
14.68573
14.127101
13.632785
13.194359
12.804475
12.457347
12.148327
11.873665
11.630064
11.414317
11.22349
11.05518
10.907138
10.777513
10.664689
10.567262
10.482858
10.410103
10.347529
10.293847
10.247938
10.208846
10.176024
10.148141
10.124636
10.104883
10.088402
10.074928
10.063898
10.055062
10.04819
10.042682
10.037527
10.032151
10.026587
10.020818
10.014833
10.008631
10.002249
9.9958326
9.9899121
9.98583
9.98309
9.9814946
9.9808663
9.9811291
9.9822377
9.9839743
9.9859604
9.9881093
9.9912117
9.9951462
9.9986773
1603.9783
2217.3866
736.58263
500.47222
297.39647
231.73707
163.64772
128.21478
100.98105
81.959858
67.690764
56.877082
48.540155
42.020484
36.855185
32.714255
29.351907
26.575949
24.276101
22.353284
20.733608
19.359562
18.18613
17.178124
16.307799
15.552569
14.891957
14.312525
13.801259
13.348192
12.946168
12.588408
12.269567
11.985276
11.73209
11.507297
11.308423
11.132501
10.977435
10.841043
10.721462
10.617733
10.527462
10.449371
10.382016
10.324101
10.274398
10.231879
10.195684
10.165074
10.139114
10.117206
10.098802
10.083438
10.070778
10.060388
10.052017
10.045465
10.040144
10.034745
10.029193
10.023445
10.017497
10.011345
10.004987
9.9984512
9.9920077
9.9871037
9.9836105
9.9813707
9.980181
9.9798964
9.9804441
9.9817613
9.9836202
9.9856842
9.9879728
9.9912324
9.9952026
9.9987923
1611.0901
2134.1184
696.68285
480.73072
282.27801
218.50607
154.84899
119.93762
94.163691
76.223301
62.87237
52.852366
45.176791
39.200704
34.480144
30.704629
27.646903
25.127644
23.0402
21.295746
19.825906
18.578259
17.511735
16.594102
15.799958
15.109184
14.505527
13.97536
13.507644
13.092179
12.723078
12.394344
12.101155
11.839476
11.605944
11.397938
11.21408
11.051353
10.907978
10.782114
10.671952
10.575754
10.49209
10.419594
10.357009
10.303195
10.257051
10.217456
10.183937
10.155337
10.131057
10.110525
10.093282
10.078946
10.067003
10.057177
10.049199
10.042833
10.037564
10.031976
10.026279
10.020385
10.014284
10.007977
10.001501
9.9949917
9.9890385
9.9848029
9.9818296
9.9799823
9.9791129
9.9791148
9.9799107
9.9813896
9.983335
9.9854636
9.9878898
9.9912618
9.9952345
9.9988835
1607.5168
2032.0076
653.48118
454.95141
265.9355
203.08253
144.20433
110.59818
86.665231
70.077618
57.880975
48.778208
41.837319
36.448071
32.196586
28.796933
26.044416
23.780601
21.901279
20.328579
19.001096
17.872166
16.905271
16.071647
15.348498
14.717743
14.164952
13.678312
13.24804
12.866212
12.52628
12.223147
11.952545
11.710966
11.495439
11.303413
11.1327
10.981483
10.84802
10.730755
10.62821
10.538867
10.461043
10.393551
10.335166
10.28486
10.241965
10.205118
10.173612
10.146798
10.124023
10.104691
10.088524
10.07493
10.063612
10.054272
10.046681
10.040452
10.035012
10.029277
10.023444
10.017439
10.011237
10.004817
9.998222
9.9917389
9.9866948
9.9829825
9.9804513
9.9789265
9.9782999
9.9785101
9.9795165
9.9811167
9.9831251
9.9853131
9.987863
9.9913086
9.9952803
9.9989396
1587.0914
1901.354
607.18858
422.45979
248.37424
185.25859
131.93526
100.52224
78.835776
63.848904
52.938192
44.820466
38.645361
33.855988
30.076229
27.047431
24.588077
22.566999
20.88291
19.469017
18.271636
17.250078
16.372571
15.613973
14.954135
14.37685
13.869258
13.421431
13.024681
12.672036
12.357473
12.076491
11.82527
11.600691
11.400124
11.221319
11.062294
10.921264
10.796605
10.686819
10.590597
10.507112
10.43435
10.37124
10.31667
10.269627
10.229198
10.194552
10.164826
10.139459
10.118044
10.099827
10.084418
10.071466
10.060659
10.051759
10.044405
10.038283
10.03263
10.026752
10.020772
10.014646
10.008362
10.001917
9.9953881
9.9892409
9.9848227
9.981584
9.9794308
9.9781986
9.9777796
9.9781168
9.9792577
9.9809344
9.982984
9.9852411
9.9879087
9.9913868
9.9953268
9.9989337
1541.0109
1741.9986
558.97183
384.0508
230.51257
165.30759
118.72764
90.334715
71.133136
57.862036
48.269077
41.139446
35.717847
31.509178
28.180277
25.502928
23.317856
21.51197
20.003197
18.730154
17.647127
16.719092
15.918798
15.224678
14.619356
14.088512
13.619634
13.204744
12.836123
12.5083
12.215268
11.953083
11.718322
11.508184
11.320303
11.152649
11.003432
10.871044
10.754003
10.650932
10.560537
10.481596
10.412929
10.353248
10.301578
10.256951
10.218554
10.185835
10.157732
10.133705
10.113216
10.095812
10.08107
10.068622
10.058266
10.049611
10.042432
10.036368
10.030557
10.024558
10.018444
10.012179
10.005761
9.9992193
9.9927642
9.9873726
9.9833915
9.9805483
9.9787039
9.9777429
9.9774751
9.9779812
9.9791367
9.9808339
9.9828782
9.9851817
9.9879378
9.9914102
9.9952963
9.9988762
1461.0946
1580.2643
509.81839
344.51615
206.51923
145.9798
105.52382
80.724924
64.014469
52.431304
44.089431
37.890436
33.165478
29.483548
26.557166
24.190747
22.248107
20.632514
19.27406
18.121479
17.135499
16.286231
15.550259
14.909015
14.347541
13.853648
13.417301
13.030188
12.685566
12.377822
12.102307
11.85536
11.633911
11.435422
11.257745
11.099024
10.957612
10.832012
10.72083
10.622754
10.536557
10.461159
10.39585
10.339022
10.289814
10.247312
10.210708
10.179262
10.152312
10.129211
10.109477
10.092679
10.078528
10.066527
10.05642
10.04795
10.040867
10.034815
10.028886
10.022802
10.016603
10.010263
10.003779
9.9972069
9.9908364
9.9859838
9.9823626
9.9798337
9.9782414
9.9774829
9.9773319
9.9779444
9.9791293
9.980801
9.9828134
9.9851319
9.9879244
9.9913498
9.9951454
9.9986901
1349.13
1493.3277
463.6224
297.07085
182.64932
127.82655
93.58539
72.215185
57.854071
47.850319
40.617364
35.224894
31.092051
27.84949
25.253809
23.140116
21.393599
19.932158
18.69488
17.639377
16.731816
15.94642
15.262842
14.664812
14.139141
13.675047
13.263612
12.897498
12.57075
12.278884
12.01697
11.781811
11.570595
11.38101
11.211095
11.05915
10.923667
10.803272
10.696683
10.602684
10.520103
10.447794
10.384632
10.329687
10.282013
10.240765
10.205173
10.174577
10.14851
10.126135
10.107016
10.09071
10.076844
10.065097
10.055178
10.046834
10.039811
10.033748
10.027724
10.021555
10.015269
10.008848
10.002305
9.99573
9.9895446
9.9850447
9.9816701
9.9793444
9.9779156
9.9773096
9.9772387
9.9779563
9.979149
9.9808115
9.9828113
9.9851451
9.9879333
9.9912679
9.9949551
9.9985143
1216.6151
1252.6295
423.39931
254.75395
160.44684
112.68586
83.705794
65.342656
52.984528
44.319121
38.006323
33.256838
29.58307
26.674603
24.326381
22.398885
20.794506
19.443286
18.293956
17.308135
16.456658
15.716824
15.070656
14.50364
14.003856
13.561393
13.168196
12.817503
12.503737
12.22229
11.969391
11.741895
11.537215
11.353185
11.187965
11.039961
10.90775
10.790035
10.685607
10.593335
10.512199
10.441468
10.379584
10.325712
10.278935
10.238433
10.203452
10.17331
10.147399
10.125182
10.106177
10.08996
10.076164
10.064467
10.054588
10.046274
10.039272
10.033217
10.027185
10.020986
10.014654
10.008165
10.001545
9.9949352
9.988989
9.9846328
9.9813921
9.9791696
9.9778131
9.9772227
9.9771019
9.9780012
9.9791742
9.9808401
9.9828557
9.9852269
9.9880162
9.9912573
9.9948125
9.9983662
1097.4352
1113.9859
390.67785
224.0096
143.83644
101.54767
76.387947
60.336233
49.502773
41.84069
36.201974
31.918799
28.574894
25.904903
23.732299
21.936169
20.431328
19.156327
18.065881
17.125952
16.310457
15.599023
14.975451
14.426727
13.942693
13.512994
13.130357
12.788393
12.481856
12.206381
11.95837
11.734859
11.533393
11.351924
11.188715
11.042258
10.91121
10.794341
10.690499
10.598585
10.517544
10.446363
10.384079
10.329761
10.282538
10.241601
10.206205
10.175674
10.149399
10.126837
10.107509
10.090991
10.076913
10.064953
10.054828
10.046289
10.039091
10.032911
10.027001
10.020896
10.014688
10.008339
10.001864
9.9953556
9.9892669
9.984848
9.9815516
9.9792907
9.97791
9.9773213
9.9773354
9.9780158
9.9792002
9.9808401
9.9828695
9.9852764
9.9880749
9.9912532
9.9947143
9.9982727
1042.673
1073.332
366.38436
206.90964
132.95401
93.986955
70.934126
56.356547
46.535895
39.580408
34.445875
30.527702
27.455536
24.992256
22.980066
21.310493
19.906885
18.713778
17.69021
16.805344
16.035541
15.362327
14.77097
14.249483
13.787943
13.378043
13.012747
12.686132
12.393221
12.129863
11.892616
11.678638
11.48558
11.311486
11.154706
11.013818
10.887562
10.77479
10.674429
10.585457
10.506888
10.437772
10.377194
10.32428
10.278206
10.238203
10.203561
10.173633
10.147836
10.125647
10.106602
10.090295
10.076366
10.064502
10.05443
10.045904
10.038688
10.03246
10.026467
10.020292
10.014015
10.007607
10.001096
9.9946267
9.9888608
9.984606
9.9814337
9.9792461
9.9779031
9.97731
9.9771847
9.9780486
9.9791633
9.9807968
9.9828283
9.9852617
9.9880722
9.991216
9.9946299
9.9982127
31214.21
78927.706
36805.472
10608.512
1397.6511
615.04655
437.11795
353.17238
292.74631
238.22245
194.00257
160.41453
135.60567
117.24572
103.13496
91.5804
81.782574
73.42057
66.26305
60.091328
54.724395
50.025355
45.888607
42.228162
38.978174
36.073609
33.468641
31.122885
29.004133
27.086979
25.349794
23.77333
22.340758
21.037235
19.851076
18.772481
17.792643
16.903767
16.098743
15.371083
14.715129
14.125295
13.596494
13.124127
12.703676
12.330889
12.001934
11.712761
11.459663
11.239266
11.048277
10.883541
10.742047
10.621264
10.518677
10.432038
10.360201
10.303658
10.263006
10.242247
10.235396
10.232276
10.228421
10.223555
10.217989
10.21176
10.204909
10.19708
10.185977
10.171344
10.1519
10.125476
10.097915
10.078286
10.060595
10.054802
10.041324
10.058561
10.026177
10.063963
19994.391
59173.097
24433.322
5040.1401
976.07511
532.31038
400.62664
323.90489
266.20649
214.53137
175.77763
146.70191
125.47442
109.61266
97.08538
86.547544
77.551608
69.870973
63.274357
57.556231
52.560152
48.169233
44.29068
40.847881
37.778441
35.028803
32.557132
30.325642
28.305906
26.475083
24.813226
23.302494
21.927382
20.674218
19.532546
18.493305
17.548275
16.690218
15.912463
15.208939
14.574358
14.003374
13.491206
13.033497
12.625906
12.264388
11.945284
11.664651
11.418953
11.204953
11.019452
10.859403
10.721901
10.604528
10.504854
10.420627
10.350442
10.295233
10.255887
10.236461
10.230187
10.227193
10.223376
10.218603
10.213155
10.207055
10.200342
10.192953
10.182585
10.16851
10.149462
10.123099
10.09593
10.076377
10.059491
10.053755
10.041842
10.057952
10.027549
10.066191
28254.558
35176.619
13418.887
2535.0848
839.66041
502.39558
390.64837
308.63722
252.71507
202.86639
167.92081
140.58549
120.88329
105.92868
93.971364
83.838132
75.221198
67.867972
61.539783
56.044556
51.237875
47.00974
43.271514
39.949897
36.983577
34.32487
31.933234
29.771831
27.814315
26.038786
24.426004
22.958818
21.622407
20.403695
19.292931
18.281373
17.36113
16.525281
15.767395
15.081647
14.46297
13.906143
13.406592
12.960103
12.56244
12.209698
11.898333
11.624461
11.384677
11.175827
10.994784
10.838574
10.704389
10.589907
10.492615
10.410433
10.341723
10.287536
10.249209
10.230792
10.224965
10.222092
10.218341
10.213676
10.208353
10.202389
10.195819
10.188728
10.179126
10.165627
10.146987
10.120702
10.093927
10.074485
10.058465
10.052731
10.04247
10.057142
10.028489
10.068156
35677.464
23941.849
8319.2638
1546.3694
758.71022
479.17249
378.24048
292.68889
241.43885
192.12469
160.81575
134.65471
116.51818
102.3859
90.993076
81.262409
73.013098
65.965033
59.887978
54.602655
49.974134
45.898726
42.292037
39.084097
36.216892
33.642124
31.32556
29.230472
27.332127
25.609338
24.043557
22.618252
21.319225
20.133944
19.053322
18.068859
17.172981
16.35905
15.620847
14.952777
14.349971
13.807313
13.320435
12.885244
12.497606
12.153751
11.850238
11.58324
11.349482
11.145891
10.969405
10.817131
10.686424
10.574815
10.479987
10.39991
10.332875
10.279735
10.242469
10.224963
10.219706
10.216954
10.213276
10.208725
10.203533
10.197708
10.191283
10.184352
10.175506
10.162591
10.144358
10.11817
10.091819
10.072565
10.057424
10.051653
10.042915
10.056397
10.029553
10.069837
40136.557
20377.18
5862.0334
1234.2265
724.48082
461.51242
368.51848
280.24913
233.21342
183.91763
155.77975
130.05211
113.2205
99.574659
88.59521
79.164725
71.202604
64.388424
58.505947
53.385236
48.898031
44.944981
41.444629
38.329405
35.543259
33.040515
30.784947
28.7458
26.897841
25.220301
23.695152
22.306325
21.040109
19.884389
18.830629
17.870455
16.996563
16.202536
15.482312
14.830485
14.242341
13.712839
13.237793
12.813199
12.435005
12.099562
11.803511
11.54307
11.315086
11.116551
10.944467
10.796023
10.668659
10.559865
10.467447
10.389435
10.324163
10.272026
10.23579
10.219251
10.214438
10.21179
10.208196
10.203767
10.198711
10.193028
10.186751
10.179947
10.171751
10.159432
10.141612
10.115546
10.089648
10.070643
10.056369
10.050565
10.043112
10.055036
10.030613
10.071214
42911.234
19009.206
4521.8336
1162.8593
704.05116
443.24007
361.02898
270.44022
226.89769
177.36035
151.8262
126.15557
110.49154
97.149985
86.525617
77.343389
69.622611
63.002259
57.283455
52.302394
47.93586
44.087842
40.679227
37.644394
34.929028
32.48882
30.287588
28.297955
26.494735
24.857639
23.369003
22.01313
20.776716
19.647996
18.618912
17.681144
16.827647
16.052172
15.348785
14.712243
14.137958
13.620943
13.157181
12.74273
12.373612
12.046284
11.757456
11.503383
11.28103
11.087443
10.919694
10.775084
10.650927
10.544909
10.454883
10.378925
10.315445
10.264362
10.229145
10.213548
10.209149
10.206605
10.203103
10.198803
10.193887
10.18835
10.18222
10.175546
10.167855
10.156145
10.138744
10.112832
10.087417
10.06873
10.055319
10.0495
10.043104
10.052433
10.03143
10.072306
45119.825
17118.185
3639.5058
1112.4911
688.76053
430.61962
355.11149
262.55024
221.99718
172.13332
148.67613
122.87637
108.22499
95.05553
84.73778
75.758902
68.240099
61.780821
56.199854
51.337241
47.07376
43.315959
39.986585
37.021572
34.367981
31.98277
29.831087
27.884082
26.120469
24.51953
23.063728
21.737642
20.528306
19.424244
18.417824
17.500714
16.66612
15.907918
15.220279
14.598101
14.036896
13.531715
13.078695
12.673935
12.313521
11.994009
11.712159
11.464259
11.24739
11.058654
10.895229
10.754247
10.63326
10.529987
10.442327
10.368407
10.306696
10.256762
10.222544
10.207854
10.203844
10.201405
10.198003
10.193837
10.189064
10.183676
10.177694
10.171148
10.163819
10.152733
10.135762
10.110041
10.085143
10.066837
10.054285
10.048478
10.04302
10.050611
10.032046
10.073069
46755.437
14493.826
3073.5694
1081.1682
677.10347
420.40888
349.98323
256.05863