/*--------------------------------*- C++ -*----------------------------------*\
  =========                 |
  \\      /  F ield         | OpenFOAM: The Open Source CFD Toolbox
   \\    /   O peration     | Website:  https://openfoam.org
    \\  /    A nd           | Version:  12
     \\/     M anipulation  |
\*---------------------------------------------------------------------------*/
FoamFile
{
    format      ascii;
    class       surfaceScalarField;
    location    "0.091";
    object      phi;
}
// * * * * * * * * * * * * * * * * * * * * * * * * * * * * * * * * * * * * * //

dimensions      [1 0 -1 0 0 0 0];

internalField   nonuniform List<scalar> 
31760
(
-0.00063345294
-0.050908871
0.051543342
-0.0015925605
-0.064366526
0.065326299
-0.0025638149
-0.062998965
0.063968524
-0.0035792747
-0.068674315
0.06969079
-0.0046482322
-0.070345804
0.071415845
-0.0057459751
-0.074617026
0.075715871
-0.006912128
-0.077545912
0.078713241
-0.0081177629
-0.081557304
0.082764154
-0.0093823599
-0.085182477
0.086448347
-0.01070573
-0.089304271
0.090628969
-0.01208387
-0.093441691
0.094821215
-0.013528941
-0.097857336
0.099303851
-0.015035384
-0.10243716
0.10394511
-0.016611539
-0.10724372
0.10882144
-0.018256929
-0.11226562
0.11391264
-0.019976307
-0.11751958
0.11924065
-0.021772311
-0.12301365
0.12481141
-0.023648122
-0.12875928
0.13063691
-0.025606951
-0.13476748
0.1367282
-0.027652166
-0.14104954
0.14309671
-0.029787163
-0.14761786
0.14975488
-0.032015662
-0.15448444
0.15671502
-0.03434121
-0.16166287
0.16399057
-0.036767662
-0.16916689
0.17159556
-0.039297931
-0.17701104
0.17954361
-0.04193654
-0.18520947
0.18785045
-0.044687321
-0.19377844
0.19653167
-0.047553634
-0.20273462
0.20560345
-0.050538904
-0.21209495
0.21508281
-0.053647106
-0.22187757
0.22498842
-0.05688147
-0.23210148
0.23533854
-0.060245248
-0.24278655
0.24615308
-0.063741167
-0.25395436
0.25745307
-0.067372187
-0.26562613
0.26925997
-0.071140206
-0.27782605
0.2815969
-0.075046789
-0.29057852
0.29448794
-0.079093166
-0.30390941
0.3079586
-0.083279702
-0.31784658
0.3220359
-0.087606098
-0.33241821
0.33674734
-0.092070915
-0.34765595
0.35212344
-0.096672029
-0.3635918
0.36819552
-0.10140589
-0.38025979
0.38499616
-0.10626776
-0.39769628
0.40256055
-0.11125172
-0.41593945
0.42092567
-0.11634991
-0.43503002
0.44013032
-0.12155308
-0.45501004
0.46021515
-0.12684956
-0.47592487
0.48122312
-0.1322263
-0.49782138
0.50319975
-0.13766772
-0.5207502
0.5261931
-0.14315542
-0.5447637
0.5502528
-0.14866829
-0.56991694
0.57543119
-0.15418279
-0.59626865
0.60178459
-0.15967157
-0.62387989
0.62937024
-0.16510369
-0.65281504
0.65824899
-0.17044478
-0.68314143
0.68848472
-0.17565506
-0.71493051
0.72014351
-0.18069067
-0.74825628
0.75329522
-0.18550251
-0.78319638
0.78801221
-0.19003454
-0.81983245
0.82436912
-0.194225
-0.85824922
0.86244485
-0.19800426
-0.89853512
0.90231982
-0.20129501
-0.94078215
0.94407823
-0.20401044
-0.98508681
0.98780701
-0.20605376
-1.0315496
1.0335967
-0.20731657
-1.0802736
1.0815389
-0.20767808
-1.1313662
1.1317291
-0.20700176
-1.1849355
1.1842602
-0.20514158
-1.2410891
1.2392307
-0.20193046
-1.2999405
1.2967332
-0.19718232
-1.3616037
1.3568624
-0.1906974
-1.4261957
1.4197211
-0.18225885
-1.4938327
1.4854078
-0.17161574
-1.564628
1.5540021
-0.15850622
-1.6386729
1.6255849
-0.14262556
-1.7160569
1.7002032
-0.12362612
-1.796931
1.7779645
-0.10124238
-1.8814795
1.8591336
-0.074838063
-1.9697279
1.9433587
-0.044226897
-2.0625266
2.0319448
-2.159499
2.124158
-0.00062828805
-0.050279411
-0.0014924134
-0.063501424
-0.0023835952
-0.062107775
-0.0033376234
-0.067719147
-0.0043016947
-0.06938056
-0.0053434643
-0.07357406
-0.0063997239
-0.076488416
-0.0075360997
-0.080419658
-0.0086977842
-0.084019479
-0.0099337718
-0.088066926
-0.0112123
-0.092161757
-0.01255805
-0.096510129
-0.013960864
-0.10103284
-0.015429875
-0.10577314
-0.016965221
-0.11072865
-0.01857104
-0.11591207
-0.020249496
-0.12133344
-0.022004336
-0.12700262
-0.02383875
-0.13293118
-0.025756291
-0.13913004
-0.027760585
-0.14561153
-0.029854849
-0.15238806
-0.03204315
-0.15947237
-0.034329138
-0.16687862
-0.036717567
-0.17462025
-0.039211204
-0.18271338
-0.041814696
-0.19117242
-0.044531731
-0.20001497
-0.047366538
-0.20925746
-0.050322635
-0.21891871
-0.053404043
-0.22901723
-0.056614035
-0.23957366
-0.059955849
-0.25060959
-0.063432406
-0.26214656
-0.067046061
-0.27420934
-0.070799064
-0.28682243
-0.074692504
-0.30001285
-0.078727806
-0.31380814
-0.082904229
-0.32823864
-0.08722128
-0.34333576
-0.091677274
-0.35913269
-0.096269022
-0.37566497
-0.10099208
-0.3929702
-0.10584129
-0.4110873
-0.1108095
-0.43005898
-0.11588806
-0.44992876
-0.12106666
-0.47074367
-0.1263326
-0.49255297
-0.13167151
-0.51540891
-0.13706677
-0.53936615
-0.14249897
-0.5644825
-0.14794602
-0.59081934
-0.15338271
-0.61844087
-0.15878075
-0.64741447
-0.16410812
-0.67781123
-0.16932863
-0.70970675
-0.17440197
-0.74317913
-0.17928281
-0.77831108
-0.18392009
-0.81519002
-0.18825727
-0.85390629
-0.19223066
-0.89455552
-0.19576934
-0.93723711
-0.19879368
-0.98205634
-0.20121602
-1.0291217
-0.20293717
-1.0785477
-0.203848
-1.1304512
-0.20382262
-1.1849568
-0.20272526
-1.2421814
-0.20040488
-1.3022537
-0.19669365
-1.3653046
-0.19140987
-1.4314655
-0.18435008
-1.5008748
-0.17529104
-1.5736653
-0.1639838
-1.6499532
-0.15015467
-1.7298529
-0.13350124
-1.8135449
-0.11372153
-1.9012158
-0.090348584
-1.9930605
-0.063068099
-2.089774
-2.1910561
-0.00056749796
-0.049710936
-0.0013738286
-0.062694231
-0.0021792631
-0.061300291
-0.0030773403
-0.066820148
-0.0039638749
-0.068493011
-0.004937095
-0.072599798
-0.0059111388
-0.075513261
-0.0069687787
-0.079360861
-0.0080450041
-0.082942037
-0.009194003
-0.086916655
-0.010382325
-0.090972101
-0.011634355
-0.095256705
-0.012940912
-0.099724825
-0.014310322
-0.10440221
-0.015743211
-0.10929417
-0.017243152
-0.11441047
-0.018813466
-0.1197614
-0.020457072
-0.12535721
-0.022178211
-0.13120816
-0.023979672
-0.13732661
-0.025865908
-0.14372325
-0.027840406
-0.15041143
-0.029907005
-0.15740356
-0.03207045
-0.16471288
-0.034333967
-0.17235434
-0.036702721
-0.18034216
-0.039180112
-0.18869247
-0.041771155
-0.19742128
-0.044479349
-0.20654652
-0.047309781
-0.21608546
-0.050265498
-0.22605861
-0.053350757
-0.2364854
-0.056569292
-0.24738798
-0.059923712
-0.25878899
-0.063417525
-0.2707123
-0.067052815
-0.28318385
-0.070831729
-0.29623058
-0.074754693
-0.30988176
-0.07882263
-0.32416723
-0.083034933
-0.33911994
-0.087389727
-0.35477436
-0.09188481
-0.37116633
-0.096516724
-0.38833474
-0.10127993
-0.40632057
-0.10616837
-0.42516705
-0.11117401
-0.44491969
-0.11628755
-0.46562675
-0.12149705
-0.48734015
-0.12678995
-0.51011277
-0.13215058
-0.53400232
-0.13756079
-0.55906912
-0.14300124
-0.58537573
-0.14844868
-0.61299021
-0.1538773
-0.64198249
-0.15925806
-0.67242686
-0.16455823
-0.70440263
-0.16974142
-0.7379915
-0.17476574
-0.77328177
-0.17958597
-0.81036414
-0.18414993
-0.84933603
-0.18840049
-0.89029811
-0.19227298
-0.93335742
-0.19569618
-0.97862584
-0.19858965
-1.0262211
-0.2008639
-1.0762665
-0.20241806
-1.1288902
-0.20314389
-1.1842236
-0.20291502
-1.2424015
-0.20159177
-1.3035658
-0.19902699
-1.3678549
-0.19504992
-1.4354244
-0.18948226
-1.5064202
-0.18211607
-1.5810046
-0.17272785
-1.6593086
-0.16106318
-1.7414777
-0.14685313
-1.8277087
-0.12980369
-1.9182162
-0.10953714
-2.013282
-0.085705163
-2.1135699
-2.2187416
-0.00051210288
-0.04919789
-0.0012584427
-0.061947107
-0.0019885322
-0.060569521
-0.0028350648
-0.065972697
-0.003656438
-0.067670625
-0.0045639993
-0.071691201
-0.0054620625
-0.074614096
-0.0064472762
-0.078374501
-0.0074442531
-0.081943857
-0.0085133484
-0.085846302
-0.0096186653
-0.089865468
-0.010784796
-0.094089199
-0.012003599
-0.098504583
-0.013282389
-0.10312191
-0.014622813
-0.10795217
-0.016028622
-0.11300302
-0.017503098
-0.11828521
-0.019049599
-0.12380892
-0.02067158
-0.12958431
-0.022373367
-0.13562288
-0.024158107
-0.14193648
-0.02603084
-0.14853659
-0.027995444
-0.15543676
-0.030055878
-0.16265016
-0.032217265
-0.17019058
-0.034483517
-0.17807344
-0.036859632
-0.18631379
-0.039349904
-0.19492835
-0.041959736
-0.20393394
-0.044692426
-0.21334992
-0.047553044
-0.22319505
-0.050545883
-0.23348953
-0.05367456
-0.24425617
-0.056942877
-0.25551745
-0.060354151
-0.26729771
-0.063910744
-0.27962384
-0.067614772
-0.29252304
-0.071468046
-0.30602489
-0.075470813
-0.32016078
-0.079623015
-0.33496397
-0.083923949
-0.35046958
-0.088370843
-0.36671553
-0.092960801
-0.38374083
-0.097689377
-0.40158799
-0.10255057
-0.42030183
-0.10753782
-0.4399284
-0.11264139
-0.46051913
-0.11785233
-0.48212516
-0.12315782
-0.50480322
-0.12854425
-0.52861184
-0.133996
-0.55361333
-0.13949451
-0.57987316
-0.14501961
-0.60746097
-0.15054856
-0.63644929
-0.15605441
-0.66691657
-0.16150897
-0.69894335
-0.16687896
-0.73261642
-0.17212773
-0.76802741
-0.17721433
-0.8052714
-0.18209254
-0.84445107
-0.18671092
-0.8856724
-0.19101185
-0.92904868
-0.19493141
-0.97469808
-0.19839766
-1.0227464
-0.20133052
-1.0733248
-0.20364247
-1.1265688
-0.20522828
-1.1826271
-0.20598202
-1.2416351
-0.20577538
-1.303757
-0.2044771
-1.3691343
-0.20193682
-1.4379419
-0.19798228
-1.5103477
-0.19243967
-1.5865149
-0.18509682
-1.6666127
-0.17573018
-1.7507981
-0.16409776
-1.8392885
-0.14992339
-1.9323359
-0.13287688
-2.0302791
-0.1126317
-2.1337768
-2.2424562
-0.00045730999
-0.048739662
-0.0011569744
-0.061246653
-0.0018105507
-0.059915046
-0.0026014773
-0.065180861
-0.003349149
-0.066921961
-0.0041992432
-0.070840091
-0.0050308776
-0.073781385
-0.0059511246
-0.077453133
-0.0068772712
-0.081016535
-0.007873934
-0.084848411
-0.0089056501
-0.088832466
-0.0099956695
-0.092997835
-0.011138041
-0.097360805
-0.012338961
-0.10191952
-0.013600807
-0.10668879
-0.01492667
-0.11167555
-0.0163203
-0.1168899
-0.017785459
-0.12234201
-0.019325828
-0.12804211
-0.020945422
-0.13400138
-0.022648936
-0.14023098
-0.024439697
-0.14674376
-0.026323194
-0.1535511
-0.028303987
-0.16066712
-0.030386568
-0.16810566
-0.032576181
-0.17588139
-0.034878
-0.18400945
-0.037296926
-0.1925068
-0.039837842
-0.2013903
-0.042505908
-0.21067903
-0.045305952
-0.22039208
-0.048242394
-0.23055005
-0.051319539
-0.24117589
-0.054541681
-0.25229206
-0.05791192
-0.26392411
-0.061433275
-0.27609901
-0.065108179
-0.28884454
-0.068938465
-0.3021909
-0.07292481
-0.31617061
-0.077067532
-0.33081732
-0.081365507
-0.34616756
-0.085817486
-0.3622594
-0.090420104
-0.37913395
-0.095169604
-0.39683414
-0.10006145
-0.41540554
-0.10508859
-0.43489673
-0.11024374
-0.45535936
-0.11551771
-0.4768465
-0.12089976
-0.49941642
-0.12637829
-0.52312849
-0.13193881
-0.54804792
-0.13756589
-0.57424113
-0.14324148
-0.60178032
-0.1489453
-0.63074028
-0.15465507
-0.66120145
-0.16034508
-0.69324775
-0.16598621
-0.72696939
-0.17154721
-0.76246012
-0.17699155
-0.7998203
-0.18227934
-0.83915599
-0.18736492
-0.88057899
-0.19219788
-0.92420732
-0.19672145
-0.97016555
-0.20087268
-1.0185855
-0.20458102
-1.069606
-0.20776626
-1.1233718
-0.21034347
-1.1800362
-0.21220703
-1.2397552
-0.21325676
-1.3026876
-0.21336053
-1.3690071
-0.21239312
-1.4388817
-0.21020491
-1.5125037
-0.20663229
-1.5900497
-0.20149112
-1.6717091
-0.19457616
-1.7576607
-0.18566915
-1.8481371
-0.17453199
-1.9434137
-0.16085386
-2.0439043
-0.14436116
-2.1502297
-2.2620419
-0.00040753895
-0.04833125
-0.0010661363
-0.060587299
-0.0016575543
-0.059322726
-0.0023908776
-0.06444666
-0.0030634688
-0.066248417
-0.0038625258
-0.070040057
-0.004627825
-0.073015049
-0.0054891523
-0.076590727
-0.0063526107
-0.08015194
-0.0072878972
-0.083911938
-0.0082597053
-0.087859415
-0.0092877888
-0.091968451
-0.010368515
-0.096278717
-0.011506548
-0.10078006
-0.012704715
-0.10548913
-0.013966861
-0.11041185
-0.015296475
-0.11555866
-0.016697412
-0.12093937
-0.018174151
-0.12656359
-0.019730659
-0.13244302
-0.021372007
-0.13858769
-0.023102978
-0.14501077
-0.024928684
-0.15172329
-0.026854195
-0.15873941
-0.02888509
-0.16607248
-0.031027138
-0.17373697
-0.033285031
-0.18174908
-0.035665024
-0.19012424
-0.038172364
-0.1988803
-0.040812371
-0.20803625
-0.043590574
-0.217611
-0.046511481
-0.22762616
-0.049580415
-0.23810385
-0.052800599
-0.24906865
-0.056176464
-0.2605449
-0.059711266
-0.27256073
-0.063407128
-0.28514508
-0.067265959
-0.29832833
-0.071289233
-0.31214347
-0.075476947
-0.32662559
-0.079828926
-0.34181142
-0.084343106
-0.35774092
-0.089017698
-0.37445491
-0.093849401
-0.39199783
-0.0988331
-0.41041708
-0.10396367
-0.42976125
-0.10923532
-0.45008265
-0.11463918
-0.47143744
-0.12016727
-0.49388298
-0.12580819
-0.51748207
-0.13155133
-0.54229913
-0.13738274
-0.56840393
-0.14328743
-0.59586968
-0.14924838
-0.6247732
-0.15524636
-0.65519715
-0.16125974
-0.68722782
-0.16726493
-0.72095737
-0.17323403
-0.75648386
-0.17913672
-0.79391007
-0.18493811
-0.83334661
-0.19060015
-0.87490846
-0.19607904
-0.91871936
-0.20132618
-0.96490863
-0.20628679
-1.0136142
-0.21089962
-1.0649811
-0.2150959
-1.1191616
-0.21879878
-1.1763169
-0.2219245
-1.2366099
-0.22437157
-1.300217
-0.22604038
-1.3673106
-0.22680929
-1.4380805
-0.2265512
-1.5127244
-0.2251222
-1.5914353
-0.22235653
-1.6744242
-0.21807185
-1.7618874
-0.21207797
-1.8540677
-0.20415542
-1.9512728
-0.19404147
-2.053963
-0.1815004
-2.1627302
-2.2773201
-0.00036531184
-0.047965107
-0.00099329455
-0.059958594
-0.0015298476
-0.058785333
-0.0022160231
-0.063759647
-0.0028295116
-0.065634017
-0.0035812378
-0.069287392
-0.0042910775
-0.072304217
-0.0050913902
-0.075789379
-0.005913275
-0.079328965
-0.0068026114
-0.083021459
-0.0077287445
-0.086932085
-0.0087076553
-0.090988285
-0.0097389613
-0.095246098
-0.010826668
-0.099690984
-0.011974821
-0.10433954
-0.013186882
-0.10919828
-0.014467691
-0.11427628
-0.015821319
-0.1195841
-0.017252548
-0.12513065
-0.018766751
-0.13092702
-0.020368507
-0.13698407
-0.022063998
-0.14331332
-0.023858411
-0.14992684
-0.025757408
-0.1568383
-0.027767311
-0.16406038
-0.029893722
-0.17160826
-0.032143488
-0.17949693
-0.034522123
-0.18774312
-0.037035309
-0.19636452
-0.0396896
-0.20537927
-0.042489945
-0.21480785
-0.04544187
-0.22467132
-0.048549986
-0.2349927
-0.051819348
-0.24579614
-0.055252938
-0.25710803
-0.058854354
-0.2689559
-0.062626636
-0.28136925
-0.06657139
-0.29437988
-0.070689662
-0.30802134
-0.074982018
-0.32232922
-0.079448334
-0.33734092
-0.084087277
-0.35309761
-0.088897208
-0.36964042
-0.093874889
-0.38701539
-0.099017331
-0.40526968
-0.10431992
-0.42445348
-0.10977713
-0.44462004
-0.11538341
-0.46582554
-0.12113073
-0.4881298
-0.12701165
-0.51159507
-0.13301613
-0.53628834
-0.1391338
-0.56227969
-0.14535301
-0.58964366
-0.1516597
-0.61845946
-0.15803882
-0.64881072
-0.16447265
-0.68078641
-0.17094206
-0.7144801
-0.17742475
-0.74999299
-0.18389554
-0.78743074
-0.19032659
-0.82690663
-0.19668539
-0.86854025
-0.20293628
-0.91245848
-0.20903824
-0.95879586
-0.21494568
-1.0076948
-0.22060719
-1.059306
-0.22596431
-1.1137886
-0.23095209
-1.1713103
-0.23549837
-1.232041
-0.23951849
-1.29617
-0.2429214
-1.363876
-0.2456104
-1.4353548
-0.24747127
-1.5108214
-0.24837731
-1.5904809
-0.24819072
-1.6745553
-0.24674491
-1.7632706
-0.24387217
-1.8568732
-0.2393875
-1.9556914
-0.2330585
-2.0602356
-0.22469515
-2.1710533
-2.2880632
-0.00032277829
-0.047641537
-0.00092571097
-0.05935497
-0.0014133921
-0.058296844
-0.0020537485
-0.063118492
-0.0026225613
-0.065064329
-0.0033460839
-0.068562971
-0.0040230643
-0.07162628
-0.004807388
-0.075004066
-0.0055903719
-0.078544931
-0.0064342227
-0.082176511
-0.0073187723
-0.086046385
-0.0082554365
-0.090050417
-0.0092467419
-0.094253532
-0.010296075
-0.098640331
-0.011407876
-0.10322636
-0.012586705
-0.10801801
-0.013836508
-0.11302497
-0.015163253
-0.11825578
-0.016571753
-0.1237205
-0.018067667
-0.12942939
-0.019656816
-0.13539313
-0.021345178
-0.14162309
-0.023139037
-0.14813104
-0.025045605
-0.1549297
-0.027070318
-0.16203355
-0.029220624
-0.16945576
-0.031502618
-0.17721264
-0.033923082
-0.18532027
-0.03648847
-0.19379665
-0.039204781
-0.20266037
-0.042077682
-0.21193226
-0.04511284
-0.22163336
-0.048315308
-0.23178732
-0.051689057
-0.24241935
-0.055238243
-0.25355567
-0.058966286
-0.26522455
-0.062875282
-0.2774568
-0.066967408
-0.29028414
-0.071243921
-0.30374105
-0.075705319
-0.31786386
-0.080351374
-0.33269071
-0.085182014
-0.3482626
-0.090195098
-0.36462274
-0.095389006
-0.38181665
-0.1007612
-0.3998924
-0.1063083
-0.41890102
-0.11202668
-0.43889603
-0.11791198
-0.4599343
-0.12395899
-0.48207655
-0.13016186
-0.50538562
-0.13651422
-0.52992907
-0.14300794
-0.55577871
-0.14963466
-0.58300934
-0.15638433
-0.61170184
-0.16324593
-0.64194082
-0.17020677
-0.67381692
-0.17725176
-0.7074261
-0.18436435
-0.74287104
-0.19152554
-0.78025981
-0.19871338
-0.81970863
-0.20590294
-0.86134004
-0.21306581
-0.90528433
-0.22016936
-0.95168013
-0.22717725
-1.0006734
-0.23404729
-1.0524206
-0.240733
-1.107085
-0.24718069
-1.1648413
-0.25332883
-1.2258675
-0.259111
-1.2903579
-0.26445419
-1.3584979
-0.26926508
-1.4305036
-0.27345883
-1.5065816
-0.27692344
-1.5869638
-0.27953986
-1.6718793
-0.28116918
-1.7615753
-0.28166723
-1.8563055
-0.28086961
-1.9564215
-0.27858503
-2.0624637
-0.2746687
-2.174931
-2.293998
-0.00028115663
-0.047359629
-0.00086517626
-0.058770293
-0.0013119664
-0.057849283
-0.0019296081
-0.06250009
-0.0024766147
-0.064516487
-0.0031755693
-0.067863153
-0.0038257119
-0.070975225
-0.00458742
-0.0742414
-0.0053410711
-0.07779028
-0.0061531113
-0.081363423
-0.0070111565
-0.085187243
-0.0079218657
-0.08913856
-0.0088901738
-0.093284022
-0.0099194735
-0.097609775
-0.011014845
-0.10212968
-0.012181109
-0.10685037
-0.013423926
-0.11178071
-0.014748694
-0.11692951
-0.01616141
-0.12230622
-0.01766883
-0.12792034
-0.019276969
-0.13378329
-0.020993332
-0.13990496
-0.022824262
-0.14629826
-0.024777114
-0.15297492
-0.026859428
-0.15994923
-0.02907794
-0.16723516
-0.031440128
-0.17484828
-0.033952795
-0.18280534
-0.036622314
-0.19112478
-0.039455412
-0.19982483
-0.042458069
-0.20892705
-0.045635253
-0.21845352
-0.048991753
-0.22842804
-0.052532279
-0.23887593
-0.056260414
-0.24982451
-0.060178827
-0.26130297
-0.064290322
-0.27334198
-0.068596689
-0.28597429
-0.073098901
-0.29923517
-0.077797971
-0.31316093
-0.082693841
-0.32779076
-0.08778613
-0.343166
-0.09307451
-0.3593298
-0.098558276
-0.37632805
-0.1042357
-0.39420984
-0.1101053
-0.41302596
-0.11616498
-0.43283055
-0.12241249
-0.45368061
-0.1288453
-0.47563717
-0.13545988
-0.49876406
-0.1422529
-0.52312863
-0.14922011
-0.54880363
-0.1563563
-0.57586482
-0.16365602
-0.60439331
-0.17111219
-0.63447538
-0.17871699
-0.66620239
-0.1864604
-0.69967249
-0.19433215
-0.73498863
-0.20231878
-0.77226206
-0.21040502
-0.81161076
-0.21857357
-0.85315928
-0.22680378
-0.89704116
-0.23507197
-0.94339796
-0.24335016
-0.99237976
-0.25160779
-1.0441455
-0.25980828
-1.0988642
-0.26791159
-1.1567143
-0.27586829
-1.2178829
-0.28362684
-1.2825668
-0.2911227
-1.3509643
-0.29829203
-1.4232911
-0.30505771
-1.4997669
-0.31133426
-1.5806318
-0.31701705
-1.6661343
-0.32199255
-1.7565318
-0.32613892
-1.8520885
-0.32931548
-1.9531778
-0.33138157
-2.0603428
-0.33220886
-2.1740684
-2.2947992
-0.00024317837
-0.047115739
-0.0008162595
-0.058196588
-0.0012335771
-0.057431232
-0.0018745409
-0.061858403
-0.0024067909
-0.063983441
-0.0030855516
-0.067183584
-0.0037130514
-0.070346859
-0.0044331545
-0.073520391
-0.0051732947
-0.077049192
-0.0059697924
-0.080565934
-0.0068182039
-0.084337793
-0.0077212425
-0.088234435
-0.0086861025
-0.092318026
-0.0097166829
-0.096578007
-0.010818738
-0.10102638
-0.011998016
-0.1056698
-0.013260745
-0.11051663
-0.014613596
-0.11557525
-0.016063344
-0.120855
-0.017616681
-0.12636547
-0.019282206
-0.13211616
-0.021066339
-0.13811916
-0.02297791
-0.14438495
-0.025024156
-0.15092687
-0.027212853
-0.15775865
-0.029552033
-0.16489402
-0.032049027
-0.17234926
-0.034710723
-0.18014153
-0.037544435
-0.18828887
-0.040556044
-0.19681093
-0.043751038
-0.20572967
-0.047134965
-0.2150671
-0.050712144
-0.22484826
-0.054486665
-0.23509869
-0.058461704
-0.24584662
-0.062639969
-0.25712172
-0.067023595
-0.26895521
-0.071614185
-0.28138038
-0.07641339
-0.29443246
-0.08142179
-0.30814881
-0.0866402
-0.3225684
-0.092069289
-0.3377327
-0.097709425
-0.35368517
-0.10356051
-0.37047216
-0.10962326
-0.38814195
-0.11589807
-0.40674564
-0.1223848
-0.42633791
-0.12908377
-0.44697529
-0.13599509
-0.46871903
-0.14311889
-0.49163293
-0.15045436
-0.51578529
-0.15800171
-0.54124785
-0.16575949
-0.56809803
-0.17372626
-0.59641695
-0.18190011
-0.62629133
-0.19027791
-0.65781378
-0.19885601
-0.69108298
-0.207629
-0.72620362
-0.21659065
-0.76328777
-0.2257329
-0.80245519
-0.23504513
-0.843833
-0.24451546
-0.88755584
-0.25412892
-0.93376829
-0.26386808
-0.98262273
-0.27371164
-1.0342818
-0.28363512
-1.0889178
-0.29360953
-1.1467134
-0.30360229
-1.2078596
-0.31357226
-1.2725616
-0.32347529
-1.3410211
-0.33326258
-1.4134584
-0.34286925
-1.4901091
-0.35223393
-1.5712098
-0.36127647
-1.6570282
-0.36990641
-1.7478333
-0.37801625
-1.8439088
-0.38550147
-1.9456278
-0.39225427
-2.0535393
-0.39818551
-2.1681077
-2.2900968
-0.0002093066
-0.046905764
-0.00078302413
-0.057622285
-0.0011775488
-0.057036015
-0.0018364766
-0.061198781
-0.0023468179
-0.06347235
-0.0030188199
-0.066510811
-0.0036397766
-0.069725088
-0.0043543488
-0.07280497
-0.0050974997
-0.07630515
-0.0058946907
-0.07976781
-0.0067512794
-0.083480229
-0.0076672471
-0.087317447
-0.0086511199
-0.091333088
-0.0097076882
-0.095520325
-0.010843616
-0.099889289
-0.012065608
-0.10444659
-0.013380828
-0.10920015
-0.014796595
-0.11415816
-0.01632132
-0.1193289
-0.017962901
-0.12472246
-0.019729575
-0.130348
-0.021630219
-0.13621697
-0.023672927
-0.14234064
-0.025866355
-0.14873177
-0.028219161
-0.15540411
-0.030738675
-0.1623727
-0.033432661
-0.16965339
-0.036308331
-0.17726391
-0.039372356
-0.18522281
-0.042629878
-0.19355129
-0.046087234
-0.20227011
-0.04974818
-0.21140386
-0.053617393
-0.22097664
-0.057697545
-0.23101601
-0.061991347
-0.24155016
-0.066501629
-0.25260863
-0.071230201
-0.26422368
-0.076178487
-0.27642895
-0.081348111
-0.28925949
-0.086740767
-0.30275258
-0.092357856
-0.31694749
-0.098201053
-0.33188541
-0.10427191
-0.34760991
-0.11057289
-0.36416644
-0.11710622
-0.38160349
-0.12387416
-0.39997217
-0.13088022
-0.41932586
-0.13812677
-0.43972224
-0.14561771
-0.46122105
-0.15335628
-0.48388674
-0.16134624
-0.50778707
-0.16959044
-0.53299473
-0.17809271
-0.55958614
-0.18685641
-0.58764291
-0.19588413
-0.61725252
-0.20517843
-0.64850763
-0.21474154
-0.68150724
-0.22457437
-0.71635737
-0.2346772
-0.75317069
-0.24504895
-0.79206832
-0.25568829
-0.83317757
-0.26659068
-0.87663616
-0.27775081
-0.9225894
-0.28916109
-0.97119178
-0.3008114
-1.0226084
-0.31268913
-1.077014
-0.3247787
-1.1345942
-0.33705873
-1.195546
-0.34950801
-1.2600744
-0.3620959
-1.3283907
-0.37478383
-1.4007231
-0.38754027
-1.4772999
-0.40031129
-1.5583803
-0.4130417
-1.6442338
-0.42566206
-1.7351452
-0.4381002
-1.8314033
-0.45026472
-1.9334029
-0.46209053
-2.0416694
-0.47351879
-2.1566585
-2.2794513
-0.00018828935
-0.046716852
-0.0007815799
-0.057028449
-0.0011726344
-0.056644313
-0.0018251451
-0.060545627
-0.0023290919
-0.062967703
-0.0030036811
-0.065835505
-0.0036402413
-0.069087766
-0.0043624736
-0.072081944
-0.0051278791
-0.075538913
-0.0059469406
-0.078947879
-0.0068335232
-0.082592738
-0.0077867106
-0.08636331
-0.0088161139
-0.090302693
-0.009927788
-0.094407616
-0.011129448
-0.09868655
-0.012428974
-0.10314594
-0.0138348
-0.10779315
-0.01535574
-0.11263601
-0.017000405
-0.11768297
-0.018778711
-0.12294283
-0.020699427
-0.12842592
-0.022772173
-0.1341428
-0.025005718
-0.14010562
-0.027409097
-0.14632687
-0.029990755
-0.15282087
-0.032758674
-0.15960314
-0.035719774
-0.16669059
-0.038881091
-0.17410082
-0.042247977
-0.18185408
-0.045826322
-0.18997102
-0.04961982
-0.1984746
-0.053632504
-0.20738907
-0.05786757
-0.21673937
-0.062327485
-0.22655377
-0.067014603
-0.23686059
-0.071931045
-0.24768959
-0.077078386
-0.25907356
-0.082458972
-0.27104541
-0.088074628
-0.28364066
-0.093927967
-0.29689584
-0.10002176
-0.31085002
-0.10635928
-0.32554392
-0.11294456
-0.34102033
-0.11978175
-0.35732457
-0.12687558
-0.37450457
-0.13423188
-0.39261031
-0.14185637
-0.41169532
-0.14975558
-0.43181641
-0.15793614
-0.45303325
-0.16640548
-0.47540951
-0.17517107
-0.49901288
-0.18424134
-0.52391508
-0.193624
-0.55019329
-0.20332745
-0.57792842
-0.21335953
-0.60720851
-0.22372918
-0.63812513
-0.23444379
-0.67077884
-0.24551128
-0.70527509
-0.25693914
-0.74172699
-0.26873442
-0.78025607
-0.28090291
-0.82099085
-0.29345
-0.86406937
-0.30637977
-0.90963813
-0.31969493
-0.95785292
-0.33339703
-1.00888
-0.3474855
-1.062896
-0.3619575
-1.1200892
-0.37680734
-1.1806594
-0.39202977
-1.2448112
-0.40760607
-1.3127695
-0.42352449
-1.3847554
-0.43975818
-1.4610122
-0.45628421
-1.5417952
-0.47307261
-1.6273818
-0.4900753
-1.7180765
-0.50723738
-1.8141776
-0.52450304
-1.9160834
-0.54183833
-2.0242994
-0.55920763
-2.1392796
-2.2623605
-0.00017001615
-0.046546256
-0.00079222918
-0.056405728
-0.0011902447
-0.056245693
-0.0018536673
-0.059881609
-0.0023704612
-0.062450258
-0.0030605777
-0.065144721
-0.0037279276
-0.06841971
-0.0044738722
-0.071335264
-0.0052797059
-0.074732309
-0.0061430422
-0.078083738
-0.0070837339
-0.081651206
-0.0081016309
-0.085344537
-0.0092070822
-0.089196329
-0.010407797
-0.093205951
-0.011712823
-0.097380536
-0.013131482
-0.10172626
-0.014673517
-0.10625005
-0.016349021
-0.11095939
-0.018168253
-0.11586259
-0.020141124
-0.12096877
-0.02227802
-0.12628779
-0.024588509
-0.13183104
-0.027081745
-0.13761106
-0.029766865
-0.14364038
-0.032651591
-0.14993472
-0.035743145
-0.15651011
-0.03904866
-0.16338355
-0.042572917
-0.17057498
-0.046321051
-0.17810429
-0.050296893
-0.18599345
-0.054503765
-0.19426592
-0.058944617
-0.20294632
-0.063620719
-0.21206126
-0.068535224
-0.22163714
-0.073689484
-0.23170408
-0.079085376
-0.24229129
-0.084725726
-0.25343063
-0.090612748
-0.2651556
-0.096750571
-0.27749984
-0.10314292
-0.29050023
-0.10979438
-0.30419502
-0.11671045
-0.31862399
-0.12389779
-0.33382876
-0.13136325
-0.34985448
-0.13911486
-0.36674789
-0.14716151
-0.38455809
-0.15551249
-0.40333821
-0.16417791
-0.42314425
-0.17316892
-0.44403483
-0.18249669
-0.46607357
-0.19217363
-0.48932698
-0.20221162
-0.51386728
-0.21262462
-0.53976955
-0.22342559
-0.56711575
-0.234629
-0.59599238
-0.24624845
-0.62649189
-0.25829908
-0.65871329
-0.2707953
-0.69276276
-0.28375176
-0.72875314
-0.29718405
-0.76680503
-0.3111062
-0.80704838
-0.32553306
-0.84962041
-0.34047899
-0.89466799
-0.35595766
-0.94234753
-0.37198177
-0.99282623
-0.38856397
-1.0462809
-0.4057158
-1.102901
-0.42344799
-1.1628872
-0.44176534
-1.2264503
-0.460674
-1.2938136
-0.48017411
-1.3652042
-0.50026475
-1.4408664
-0.52093956
-1.5210611
-0.54218645
-1.6060721
-0.56399592
-1.6962035
-0.58632949
-1.7917853
-0.60917494
-1.8931921
-0.63250906
-2.000942
-0.65631746
-2.1154754
-2.2382679
-0.00015619826
-0.046389522
-0.00082060371
-0.055740854
-0.0012326891
-0.055833047
-0.0019262961
-0.059187452
-0.0024736723
-0.061902281
-0.0031925258
-0.064425252
-0.0039110933
-0.067700492
-0.0047020925
-0.070543588
-0.0055713361
-0.073862358
-0.0065061478
-0.07714819
-0.0075303123
-0.080626275
-0.0086458977
-0.084228154
-0.0098643144
-0.087977083
-0.01119535
-0.091874055
-0.012649588
-0.095925404
-0.014238107
-0.10013681
-0.015972043
-0.10451516
-0.017862624
-0.10906782
-0.019920959
-0.11380323
-0.02215783
-0.11873084
-0.024583313
-0.12386122
-0.027207296
-0.12920593
-0.030038912
-0.13477828
-0.033085628
-0.14059246
-0.036354897
-0.14666421
-0.039852613
-0.15301111
-0.043583564
-0.15965126
-0.047552011
-0.16660514
-0.051761016
-0.17389383
-0.056212859
-0.18154008
-0.060909238
-0.18956794
-0.06585219
-0.19800167
-0.071043116
-0.20686853
-0.076483731
-0.2161946
-0.082176477
-0.22600926
-0.088123989
-0.23634155
-0.094329698
-0.24722251
-0.10079866
-0.25868402
-0.10753523
-0.27076041
-0.11454645
-0.28348589
-0.12183917
-0.29689886
-0.12942272
-0.31103666
-0.13730551
-0.32594181
-0.14549833
-0.34165707
-0.15401314
-0.358228
-0.16286159
-0.37570402
-0.17205733
-0.39413624
-0.18161484
-0.41357985
-0.19154882
-0.43409322
-0.20187565
-0.4557383
-0.21261166
-0.47858166
-0.22377524
-0.50269345
-0.23538395
-0.52814957
-0.24745712
-0.55503025
-0.26001506
-0.58342097
-0.27307817
-0.61341408
-0.28666753
-0.64510795
-0.30080591
-0.67860703
-0.31551577
-0.71402445
-0.33081996
-0.75148038
-0.34674263
-0.79110344
-0.36330843
-0.83303026
-0.38054199
-0.87740767
-0.39846789
-0.9243921
-0.41711256
-0.97414892
-0.43650136
-1.0268561
-0.4566599
-1.0827029
-0.47761367
-1.1418904
-0.49938592
-1.2046317
-0.52200206
-1.2711479
-0.54548046
-1.341673
-0.56983673
-1.4164541
-0.5950878
-1.4957508
-0.62125293
-1.5798457
-0.6483385
-1.6690576
-0.67634434
-1.7637262
-0.70527955
-1.8642197
-0.73517136
-1.9710392
-0.7659845
-2.0846816
-2.2065745
-0.0001483814
-0.046240647
-0.00087384628
-0.055014958
-0.0013052575
-0.055401121
-0.002042912
-0.058449294
-0.0026414833
-0.06130316
-0.0034073143
-0.063658859
-0.0042001696
-0.066907044
-0.005061075
-0.069682067
-0.006019427
-0.072903365
-0.0070571097
-0.076109841
-0.0081999651
-0.079482728
-0.0094536576
-0.082973744
-0.010831099
-0.0865989
-0.012344124
-0.090360262
-0.014005126
-0.094263611
-0.015826453
-0.098314668
-0.01782042
-0.10252035
-0.019998902
-0.10688847
-0.022373397
-0.11142785
-0.024954619
-0.1161487
-0.027752577
-0.12106231
-0.030775894
-0.12618164
-0.034032131
-0.13152104
-0.037528021
-0.13709554
-0.041268203
-0.14292296
-0.045256965
-0.14902124
-0.049496449
-0.15541062
-0.05398877
-0.16211161
-0.058735302
-0.16914603
-0.063736711
-0.17653734
-0.068994218
-0.18430901
-0.074508639
-0.19248573
-0.080282099
-0.20109345
-0.086316754
-0.21015819
-0.092616421
-0.21970769
-0.099185002
-0.22977089
-0.1060287
-0.24037654
-0.11315367
-0.25155655
-0.12056888
-0.26334244
-0.12828278
-0.27576895
-0.13630703
-0.28887124
-0.14465223
-0.30268773
-0.15333207
-0.31725783
-0.16236095
-0.33262357
-0.17175369
-0.34883014
-0.18152683
-0.36592516
-0.19169797
-0.38395874
-0.20228561
-0.40298513
-0.21330966
-0.42306129
-0.22479043