/*--------------------------------*- C++ -*----------------------------------*\
  =========                 |
  \\      /  F ield         | OpenFOAM: The Open Source CFD Toolbox
   \\    /   O peration     | Website:  https://openfoam.org
    \\  /    A nd           | Version:  12
     \\/     M anipulation  |
\*---------------------------------------------------------------------------*/
FoamFile
{
    format      ascii;
    class       volScalarField;
    location    "0.091";
    object      rho;
}
// * * * * * * * * * * * * * * * * * * * * * * * * * * * * * * * * * * * * * //

dimensions      [1 -3 0 0 0 0 0];

internalField   nonuniform List<scalar> 
16000
(
1.0590937
1.0919181
1.0797029
1.0880767
1.0842253
1.0876789
1.0866974
1.0885306
1.0886758
1.0898904
1.0905425
1.0915605
1.0924401
1.0934396
1.0944379
1.0954884
1.0965711
1.0976937
1.0988544
1.100054
1.1012925
1.10257
1.1038863
1.1052408
1.1066331
1.1080623
1.1095272
1.1110265
1.1125585
1.1141212
1.1157126
1.11733
1.1189707
1.1206315
1.1223093
1.1240003
1.125701
1.1274072
1.129115
1.1308201
1.1325183
1.1342053
1.1358769
1.1375289
1.1391574
1.1407584
1.1423284
1.1438639
1.1453619
1.1468195
1.1482342
1.1496038
1.1509264
1.1522004
1.1534245
1.1545976
1.1557192
1.1567886
1.1578057
1.1587706
1.1596838
1.1605458
1.1613578
1.1621208
1.1628356
1.1635024
1.1641204
1.1646873
1.1652
1.1656553
1.1660508
1.1663854
1.1666575
1.1668667
1.1670118
1.1670734
1.1670613
1.1670825
1.1666705
1.1668446
1.0558787
1.0892196
1.076536
1.0853159
1.0812421
1.0849637
1.0838835
1.0858885
1.0860289
1.0873462
1.0880513
1.0891452
1.0900999
1.0911745
1.0922542
1.0933865
1.0945551
1.0957658
1.0970176
1.0983108
1.0996456
1.1010215
1.1024381
1.1038948
1.1053906
1.1069242
1.1084941
1.1100985
1.1117353
1.113402
1.1150959
1.1168139
1.1185528
1.1203088
1.1220782
1.1238568
1.1256404
1.1274246
1.1292048
1.1309765
1.1327351
1.1344763
1.1361955
1.1378886
1.1395517
1.141181
1.1427731
1.144325
1.1458338
1.1472972
1.1487132
1.15008
1.1513963
1.152661
1.1538734
1.155033
1.1561394
1.1571926
1.158193
1.1591408
1.1600368
1.160882
1.1616774
1.1624243
1.1631234
1.1637749
1.164378
1.1649305
1.1654294
1.1658715
1.1662544
1.1665766
1.1668362
1.1670328
1.1671613
1.1672018
1.1671908
1.1671619
1.1667481
1.1669481
1.0529749
1.0867592
1.0736357
1.0827919
1.0785766
1.0825
1.0813912
1.0835168
1.0836992
1.0851003
1.0858799
1.0870511
1.0880922
1.0892504
1.0904213
1.0916456
1.0929104
1.0942199
1.0955731
1.0969703
1.098411
1.0998947
1.1014206
1.1029876
1.1045944
1.1062392
1.1079201
1.1096347
1.1113804
1.1131542
1.1149527
1.1167723
1.118609
1.1204586
1.1223166
1.1241784
1.1260392
1.1278941
1.1297382
1.1315666
1.1333745
1.1351573
1.1369107
1.1386304
1.1403128
1.1419544
1.1435522
1.1451035
1.1466061
1.1480581
1.1494582
1.1508053
1.1520987
1.1533379
1.1545229
1.1556535
1.1567303
1.1577535
1.1587238
1.1596421
1.1605094
1.1613267
1.1620953
1.1628164
1.1634908
1.1641185
1.1646986
1.1652291
1.1657069
1.1661291
1.1664933
1.1667976
1.1670401
1.1672196
1.1673273
1.1673475
1.1673286
1.1672598
1.1668382
1.1670756
1.0503911
1.0845441
1.0710116
1.0805258
1.0761751
1.0803299
1.0791982
1.0814621
1.081696
1.0831937
1.084062
1.0853223
1.0864644
1.0877193
1.0889949
1.0903244
1.0916979
1.0931181
1.0945844
1.0960964
1.0976536
1.0992551
1.1008996
1.1025858
1.1043118
1.1060754
1.1078741
1.1097049
1.1115645
1.1134491
1.1153548
1.1172772
1.1192115
1.1211529
1.1230961
1.125036
1.1269672
1.1288842
1.130782
1.1326552
1.1344991
1.1363091
1.1380807
1.1398103
1.1414943
1.1431298
1.1447144
1.1462459
1.1477229
1.1491442
1.1505093
1.1518178
1.1530697
1.1542653
1.1554053
1.1564903
1.1575212
1.158499
1.1594248
1.1602998
1.1611253
1.1619027
1.1626331
1.1633179
1.1639576
1.1645523
1.1651008
1.1656012
1.1660506
1.1664461
1.1667854
1.1670661
1.1672863
1.1674438
1.1675266
1.1675247
1.1674928
1.1673837
1.1669484
1.1672337
1.0481647
1.0826981
1.0687816
1.0785833
1.0740927
1.0785173
1.0773768
1.0797844
1.0800913
1.0816931
1.0826689
1.0840281
1.0852847
1.0866473
1.0880381
1.0894829
1.0909748
1.0925153
1.094104
1.0957401
1.097423
1.0991512
1.1009233
1.1027371
1.1045902
1.1064798
1.1084025
1.1103546
1.112332
1.11433
1.1163437
1.1183679
1.120397
1.1224254
1.1244471
1.1264563
1.1284471
1.1304138
1.1323509
1.1342531
1.1361156
1.137934
1.1397043
1.1414232
1.1430879
1.144696
1.1462458
1.1477362
1.1491665
1.1505365
1.1518464
1.1530968
1.1542885
1.1554227
1.1565006
1.1575237
1.1584934
1.1594113
1.1602789
1.1610978
1.1618697
1.1625959
1.1632779
1.1639167
1.1645129
1.1650663
1.1655756
1.1660389
1.1664533
1.1668161
1.1671248
1.1673769
1.1675702
1.1677012
1.1677555
1.1677303
1.1676823
1.1675293
1.1670835
1.1674235
1.0463408
1.0812375
1.0669742
1.0770797
1.0725118
1.0771382
1.075989
1.0785584
1.0789557
1.0806664
1.081762
1.0832237
1.0846019
1.0860789
1.0875921
1.0891608
1.0907803
1.0924514
1.0941732
1.0959447
1.0977646
1.0996309
1.1015413
1.103493
1.1054826
1.1075063
1.1095599
1.1116385
1.1137369
1.1158495
1.1179703
1.1200932
1.1222115
1.1243189
1.1264088
1.1284747
1.1305103
1.1325097
1.1344674
1.1363783
1.1382378
1.1400421
1.1417877
1.1434721
1.1450933
1.14665
1.1481415
1.1495676
1.1509286
1.1522255
1.1534594
1.1546318
1.1557446
1.1567995
1.1577987
1.1587442
1.159638
1.1604822
1.1612788
1.1620297
1.1627367
1.1634015
1.1640254
1.1646093
1.1651538
1.1656583
1.1661215
1.1665413
1.1669149
1.1672397
1.1675128
1.1677314
1.1678936
1.167994
1.1680169
1.1679677
1.1679
1.1676994
1.1672483
1.1676474
1.044923
1.0801789
1.0656041
1.0760435
1.0713751
1.0762197
1.0751233
1.0778143
1.0783184
1.0801175
1.0813401
1.0829082
1.0844181
1.0860221
1.0876716
1.0893797
1.0911429
1.0929609
1.0948322
1.0967552
1.0987276
1.1007466
1.1028088
1.1049104
1.1070468
1.1092131
1.1114038
1.1136128
1.1158336
1.1180594
1.1202831
1.1224975
1.1246951
1.1268686
1.1290111
1.1311155
1.1331756
1.1351854
1.1371397
1.1390338
1.1408638
1.1426268
1.1443203
1.1459428
1.1474936
1.1489724
1.1503799
1.1517171
1.1529856
1.1541872
1.1553244
1.1563995
1.1574151
1.158374
1.1592789
1.1601324
1.160937
1.1616953
1.1624095
1.1630818
1.1637142
1.1643084
1.1648658
1.1653871
1.1658726
1.1663216
1.1667327
1.1671035
1.1674314
1.1677135
1.1679467
1.1681282
1.1682557
1.168322
1.1683114
1.1682379
1.1681466
1.1678952
1.1674473
1.1679077
1.043851
1.0794642
1.0646032
1.0754214
1.0706616
1.0757271
1.0746523
1.0775422
1.0780812
1.0799947
1.0813774
1.0830778
1.0847455
1.0865019
1.0883117
1.0901827
1.0921121
1.0940988
1.0961405
1.0982344
1.1003774
1.1025655
1.104794
1.1070577
1.1093508
1.1116667
1.1139985
1.1163386
1.1186793
1.1210123
1.1233293
1.1256222
1.1278827
1.130103
1.1322757
1.1343939
1.1364513
1.1384426
1.1403632
1.1422094
1.1439785
1.1456686
1.1472788
1.148809
1.1502598
1.1516328
1.1529296
1.1541529
1.1553054
1.1563903
1.1574108
1.1583703
1.1592722
1.1601199
1.1609167
1.1616656
1.1623696
1.1630315
1.1636538
1.1642387
1.1647885
1.1653046
1.1657885
1.1662407
1.1666612
1.1670493
1.1674031
1.1677205
1.1679986
1.1682342
1.1684241
1.1685654
1.1686555
1.168685
1.1686399
1.1685423
1.168423
1.1681194
1.1676844
1.1682034
1.0431153
1.0790755
1.0639522
1.0752318
1.0702894
1.0755193
1.0745388
1.0774962
1.078316
1.0803732
1.0819464
1.0838041
1.0856547
1.0875901
1.0895854
1.0916446
1.0937648
1.0959435
1.0981776
1.100463
1.1027951
1.1051683
1.1075765
1.1100127
1.1124693
1.1149381
1.1174103
1.1198769
1.1223285
1.1247556
1.1271488
1.1294992
1.1317979
1.134037
1.1362092
1.1383079
1.1403279
1.1422645
1.1441147
1.1458761
1.1475477
1.1491294
1.1506221
1.1520273
1.1533476
1.1545859
1.1557457
1.1568308
1.1578452
1.1587933
1.1596791
1.160507
1.1612808
1.1620045
1.1626818
1.1633161
1.1639105
1.1644679
1.1649909
1.1654819
1.1659429
1.1663754
1.1667806
1.1671588
1.1675099
1.1678327
1.1681255
1.1683859
1.168611
1.1687973
1.1689413
1.1690403
1.1690908
1.1690816
1.1690024
1.1688814
1.1687295
1.1683743
1.1679628
1.1685357
1.0427478
1.0790461
1.0636885
1.0753862
1.0703116
1.0759311
1.0749733
1.0780885
1.0791236
1.0813296
1.0831241
1.0851676
1.0872287
1.0893723
1.091581
1.0938558
1.0961928
1.0985883
1.1010374
1.1035344
1.1060729
1.1086453
1.1112435
1.1138584
1.1164802
1.1190987
1.1217033
1.1242831
1.1268274
1.1293256
1.1317675
1.1341437
1.1364454
1.1386649
1.1407959
1.1428329
1.1447719
1.1466105
1.1483472
1.149982
1.1515159
1.152951
1.1542903
1.1555375
1.1566968
1.157773
1.158771
1.1596958
1.1605528
1.1613469
1.1620832
1.1627664
1.1634009
1.163991
1.1645405
1.1650529
1.1655314
1.1659789
1.166398
1.1667907
1.1671591
1.1675045
1.1678276
1.1681288
1.1684074
1.1686623
1.1688916
1.1690927
1.1692626
1.1693976
1.1694942
1.1695497
1.1695592
1.1695104
1.1693985
1.169255
1.1690658
1.1686622
1.168287
1.1689045
1.0428172
1.0794478
1.0638638
1.075781
1.0708208
1.0765745
1.0759741
1.079271
1.0805646
1.0829472
1.0849973
1.0872611
1.0895635
1.0919473
1.0943999
1.0969193
1.0995005
1.1021377
1.1048239
1.1075513
1.1103108
1.1130924
1.1158853
1.1186779
1.121458
1.1242133
1.1269311
1.1295991
1.1322053
1.1347384
1.1371882
1.1395453
1.141802
1.1439518
1.14599
1.1479134
1.1497204
1.151411
1.1529865
1.1544496
1.1558039
1.1570539
1.158205
1.1592628
1.1602334
1.1611231
1.1619381
1.1626846
1.1633685
1.1639957
1.1645715
1.1651009
1.1655887
1.1660391
1.1664558
1.1668425
1.167202
1.167537
1.16785
1.1681429
1.1684171
1.1686739
1.1689138
1.1691366
1.1693417
1.1695276
1.1696922
1.169833
1.1699467
1.1700296
1.1700782
1.1700896
1.1700573
1.169969
1.1698272
1.1696619
1.1694312
1.1689853
1.1686608
1.16931
1.0434078
1.0803578
1.0645806
1.0767832
1.0720044
1.0780332
1.0776566
1.0811271
1.0827381
1.0853246
1.0876646
1.0901867
1.0927646
1.0954239
1.0981537
1.1009493
1.1038034
1.1067073
1.1096513
1.1126242
1.1156139
1.1186071
1.1215899
1.1245479
1.1274665
1.1303311
1.1331274
1.1358421
1.1384626
1.1409779
1.1433785
1.1456565
1.1478064
1.1498241
1.151708
1.153458
1.155076
1.1565651
1.1579301
1.1591764
1.1603108
1.16134
1.1622717
1.1631133
1.1638724
1.1645565
1.1651727
1.1657279
1.1662286
1.1666808
1.16709
1.1674612
1.1677991
1.1681076
1.1683904
1.1686506
1.1688911
1.169114
1.1693215
1.1695152
1.1696961
1.1698652
1.1700225
1.1701677
1.1702997
1.1704169
1.1705173
1.170598
1.1706558
1.1706868
1.1706879
1.1706555
1.1705813
1.1704549
1.1702867
1.1700998
1.1698243
1.169346
1.1690867
1.1697475
1.044514
1.0817804
1.0658368
1.0784523
1.0738409
1.080104
1.0800742
1.0837387
1.0857253
1.0885587
1.0912294
1.0940562
1.0969514
1.0999269
1.1029718
1.1060776
1.1092333
1.1124266
1.1156436
1.1188693
1.1220876
1.1252816
1.1284341
1.1315278
1.1345458
1.1374718
1.1402908
1.1429893
1.1455557
1.1479806
1.1502571
1.1523807
1.1543491
1.1561627
1.1578239
1.1593368
1.1607073
1.1619425
1.1630503
1.1640395
1.164919
1.1656982
1.1663862
1.1669918
1.1675237
1.16799
1.1683984
1.1687559
1.169069
1.1693438
1.1695853
1.1697986
1.1699876
1.1701562
1.1703074
1.170444
1.1705683
1.1706822
1.1707873
1.1708848
1.1709753
1.1710594
1.1711367
1.1712066
1.1712677
1.1713183
1.1713561
1.1713784
1.1713816
1.1713623
1.1713172
1.1712421
1.1711271
1.1709652
1.1707742
1.1705657
1.1702434
1.1697454
1.1695618
1.1702083
1.0461899
1.0837663
1.0676921
1.0807535
1.0764141
1.0829343
1.0833325
1.0872151
1.0896403
1.092776
1.0958254
1.0990115
1.1022728
1.1056104
1.10901
1.1124584
1.1159395
1.1194361
1.1229293
1.1263996
1.1298264
1.1331891
1.1364672
1.1396411
1.1426923
1.1456045
1.1483633
1.1509575
1.1533785
1.155621
1.1576827
1.1595642
1.1612689
1.1628023
1.1641718
1.1653863
1.166456
1.1673913
1.1682036
1.168904
1.1695034
1.1700127
1.170442
1.170801
1.1710986
1.171343
1.1715419
1.171702
1.1718296
1.17193
1.1720081
1.172068
1.1721135
1.1721475
1.1721728
1.1721915
1.1722053
1.1722156
1.1722236
1.1722298
1.1722347
1.1722382
1.1722397
1.1722382
1.172232
1.1722192
1.1721976
1.1721641
1.1721154
1.1720481
1.1719592
1.1718433
1.1716895
1.1714958
1.1712857
1.1710554
1.1706867
1.1701801
1.1700782
1.1706978
1.0484953
1.0863752
1.0702563
1.0838062
1.0798298
1.0866136
1.0875471
1.0916903
1.0946252
1.0981379
1.1016269
1.1052353
1.1089165
1.1126615
1.1164506
1.1202643
1.1240806
1.1278761
1.1316266
1.1353072
1.1388929
1.1423596
1.1456847
1.1488477
1.1518313
1.1546214
1.1572079
1.1595846
1.1617491
1.1637029
1.1654504
1.1669992
1.1683589
1.1695408
1.1705577
1.1714227
1.1721496
1.1727519
1.173243
1.1736357
1.1739419
1.1741731
1.1743397
1.1744513
1.1745164
1.1745431
1.1745381
1.1745078
1.1744574
1.1743918
1.174315
1.1742304
1.174141
1.1740492
1.173957
1.1738658
1.1737768
1.173691
1.1736089
1.1735306
1.1734561
1.1733848
1.1733159
1.1732479
1.1731791
1.1731074
1.1730303
1.1729449
1.1728477
1.172736
1.1726065
1.1724523
1.1722631
1.1720421
1.1718159
1.1715637
1.1711535
1.1706442
1.1706284
1.1712161
1.0514884
1.0896405
1.0736569
1.0876848
1.084207
1.0912812
1.0928828
1.0973613
1.1008891
1.1048683
1.1088643
1.1129572
1.1171062
1.1212926
1.1254899
1.1296708
1.1338059
1.1378649
1.1418172
1.1456326
1.1492831
1.1527431
1.1559909
1.1590093
1.1617863
1.1643146
1.1665923
1.1686218
1.1704099
1.1719666
1.1733046
1.1744386
1.1753844
1.1761588
1.1767785
1.1772602
1.1776197
1.1778724
1.1780325
1.1781132
1.1781266
1.1780837
1.1779943
1.1778673
1.1777105
1.1775308
1.1773342
1.1771258
1.1769101
1.176691
1.1764716
1.1762544
1.1760416
1.1758349
1.1756356
1.1754445
1.1752622
1.1750891
1.1749251
1.17477
1.1746233
1.1744841
1.1743511
1.1742226
1.1740968
1.1739713
1.1738436
1.1737107
1.1735695
1.1734174
1.173251
1.173062
1.1728416
1.1725989
1.1723593
1.1720854
1.1716427
1.171136
1.171199
1.1717618
1.0552387
1.0935711
1.0780224
1.0925377
1.0897502
1.0971804
1.0996003
1.1045093
1.1087107
1.1132443
1.1178077
1.1224345
1.1270829
1.1317228
1.1363181
1.1408315
1.1452245
1.1494594
1.1535002
1.1573147
1.1608758
1.1641622
1.1671594
1.1698595
1.1722613
1.1743694
1.1761934
1.1777472
1.1790476
1.1801136
1.1809656
1.1816244
1.1821107
1.1824447
1.1826457
1.1827316
1.1827193
1.182624
1.1824596
1.1822386
1.1819722
1.1816701
1.1813411
1.1809926
1.1806313
1.1802626
1.1798915
1.1795218
1.1791571
1.1787999
1.1784527
1.178117
1.1777941
1.1774851
1.1771905
1.1769105
1.1766453
1.1763945
1.1761578
1.1759344
1.1757234
1.1755236
1.1753333
1.1751508
1.174974
1.1748004
1.1746274
1.1744521
1.1742718
1.1740841
1.1738848
1.1736651
1.1734189
1.1731606
1.1729108
1.1726154
1.1721477
1.1716581
1.1717921
1.1723231
1.0599348
1.0983072
1.0835811
1.0986925
1.096792
1.1046417
1.1080228
1.1134581
1.1184017
1.1235685
1.1287491
1.1339405
1.1390911
1.1441557
1.1490848
1.1538296
1.158344
1.1625865
1.1665227
1.1701262
1.1733798
1.1762753
1.178813
1.1810008
1.1828529
1.1843885
1.1856302
1.1866028
1.1873323
1.1878449
1.1881662
1.1883207
1.1883315
1.1882198
1.1880053
1.1877054
1.1873361
1.1869114
1.1864436
1.1859436
1.1854208
1.1848834
1.1843382
1.1837914
1.1832478
1.1827117
1.1821865
1.181675
1.1811795
1.1807017
1.1802428
1.1798038
1.1793851
1.178987
1.1786095
1.1782523
1.1779148
1.1775965
1.1772963
1.1770133
1.1767462
1.1764933
1.176253
1.1760231
1.1758016
1.1755859
1.1753733
1.175161
1.1749468
1.1747283
1.1745005
1.1742546
1.1739887
1.1737209
1.173463
1.1731469
1.1726646
1.1722139
1.1724083
1.1728842
1.0658612
1.1044101
1.0907324
1.1064889
1.1056793
1.1139894
1.1184801
1.1245609
1.1303169
1.136188
1.1420137
1.1477559
1.1533454
1.1587191
1.1638159
1.1685818
1.1729726
1.1769554
1.1805101
1.1836289
1.186315
1.1885818
1.19045
1.1919465
1.1931018
1.1939484
1.1945199
1.194849
1.1949674
1.1949047
1.1946886
1.194344
1.1938936
1.1933573
1.1927532
1.1920966
1.1914013
1.190679
1.1899397
1.1891922
1.1884436
1.1877001
1.186967
1.1862483
1.1855475
1.1848675
1.1842102
1.1835775
1.1829704
1.1823897
1.1818358
1.1813089
1.1808087
1.1803348
1.1798868
1.1794637
1.1790647
1.1786887
1.1783343
1.1780003
1.177685
1.1773866
1.1771033
1.1768328
1.1765728
1.176321
1.1760744
1.1758307
1.175588
1.1753435
1.1750916
1.1748247
1.1745455
1.1742733
1.1740086
1.173673
1.1731888
1.1727964
1.1730387
1.1734342
1.0732076
1.1124553
1.099679
1.1161549
1.1167817
1.1256409
1.1314096
1.1382872
1.1449124
1.1515069
1.1579212
1.164083
1.1699074
1.1753232
1.1802728
1.1847153
1.1886275
1.1920032
1.1948514
1.1971934
1.1990601
1.2004891
1.2015218
1.2022013
1.2025705
1.2026706
1.2025407
1.2022167
1.2017312
1.2011133
1.200389
1.199581
1.1987091
1.1977904
1.1968395
1.1958689
1.1948893
1.1939096
1.1929372
1.1919784
1.1910381
1.1901207
1.1892292
1.1883664
1.1875341
1.1867339
1.1859667
1.185233
1.1845331
1.1838668
1.1832339
1.1826338
1.1820658
1.1815288
1.181022
1.1805439
1.1800934
1.1796691
1.1792693
1.1788924
1.1785366
1.1781999
1.1778802
1.1775755
1.1772832
1.177001
1.1767261
1.1764565
1.1761904
1.1759246
1.1756532
1.1753708
1.1750844
1.1748121
1.1745417
1.1741914
1.1737183
1.1733908
1.1736633
1.1739697
1.0821029
1.1222828
1.1110231
1.1282337
1.1307411
1.1402861
1.1474569
1.1552314
1.1626726
1.1698437
1.1765925
1.1828297
1.1884779
1.1934862
1.1978286
1.2015031
1.2045279
1.2069374
1.2087774
1.2101007
1.2109639
1.2114239
1.2115359
1.2113518
1.2109194
1.210282
1.209478
1.2085409
1.2075003
1.2063814
1.2052058
1.203992
1.2027555
1.2015093
1.2002643
1.1990295
1.1978124
1.1966188
1.1954538
1.1943211
1.1932237
1.192164
1.1911435
1.1901633
1.1892242
1.1883263
1.1874698
1.1866541
1.1858788
1.1851431
1.1844459
1.1837863
1.1831629
1.1825744
1.1820194
1.1814963
1.1810035
1.1805394
1.1801021
1.1796898
1.1793005
1.1789321
1.1785825
1.1782495
1.1779306
1.1776234
1.1773255
1.1770352
1.1767506
1.176468
1.1761817
1.1758895
1.1756015
1.1753317
1.175057
1.174699
1.1742493
1.1739854
1.1742719
1.1745035
1.0932854
1.1348101
1.1256664
1.1436717
1.1485063
1.1588184
1.1673209
1.175869
1.1838053
1.1911055
1.1976454
1.2033642
1.2082337
1.2122606
1.2154787
1.2179426
1.2197202
1.2208866
1.2215191
1.2216931
1.2214797
1.2209441
1.2201447
1.219133
1.2179538
1.2166456
1.2152411
1.2137681
1.2122498
1.2107056
1.2091515
1.2076008
1.2060643
1.2045507
1.2030671
1.2016192
1.2002113
1.1988467
1.1975281
1.1962571
1.195035
1.1938625
1.1927398
1.1916667
1.190643
1.1896679
1.1887406
1.18786
1.1870248
1.1862338
1.1854854
1.1847782
1.1841105
1.1834806
1.1828869
1.1823275
1.1818005
1.1813041
1.1808365
1.1803954
1.1799788
1.1795847
1.1792108
1.1788548
1.1785145
1.1781874
1.1778715
1.1775652
1.1772665
1.1769714
1.1766751
1.1763786
1.1760936
1.1758282
1.1755508
1.1751928
1.1747773
1.1745766
1.1748668
1.1750327
1.108314
1.1511337
1.1448831
1.1635372
1.1710426
1.1820066
1.1913582
1.2001103
1.2078157
1.2144526
1.2199854
1.2244386
1.2278714
1.2303703
1.2320366
1.2329776
1.2332998
1.2331034
1.2324799
1.231511
1.2302675
1.2288103
1.227191
1.2254529
1.2236318
1.2217574
1.2198541
1.2179417
1.2160363
1.2141508
1.2122956
1.2104787
1.2087065
1.206984
1.2053147
1.2037014
1.2021459
1.2006493
1.1992122
1.1978347
1.1965166
1.1952572
1.1940557
1.192911
1.191822
1.1907871
1.1898049
1.1888738
1.187992
1.1871578
1.1863693
1.1856247
1.184922
1.1842594
1.1836349
1.1830466
1.1824923
1.1819702
1.1814781
1.1810139
1.1805756
1.1801608
1.1797675
1.1793933
1.1790361
1.1786935
1.1783639
1.1780459
1.177737
1.1774334
1.1771319
1.1768362
1.1765576
1.1762977
1.1760201
1.1756713
1.1753005
1.1751597
1.1754378
1.1755401
1.1286847
1.1725518
1.1701026
1.1888495
1.1987304
1.2098099
1.2189856
1.2268538
1.2332492
1.2382387
1.2419182
1.2444255
1.2459133
1.246537
1.2464441
1.2457689
1.2446295
1.2431272
1.2413475
1.2393615
1.2372277
1.2349934
1.2326972
1.23037
1.2280363
1.2257156
1.2234234
1.2211716
1.2189695
1.2168241
1.2147407
1.212723
1.2107738
1.2088946
1.2070865
1.2053497
1.203684
1.2020888
1.2005633
1.1991062
1.1977162
1.1963916
1.195131
1.1939324
1.192794
1.1917139
1.19069
1.1897203
1.1888027
1.1879352
1.1871157
1.1863421
1.1856122
1.1849239
1.1842753
1.183664
1.1830882
1.1825456
1.1820342
1.1815517
1.181096
1.180665
1.1802564
1.179868
1.1794977
1.1791435
1.1788039
1.1784775
1.1781618
1.1778535
1.1775511
1.1772602
1.1769901
1.1767361
1.1764621
1.1761321
1.1758132
1.1757242
1.1759753
1.1760191
1.1569935
1.1998607
1.2024244
1.2205021
1.2307542
1.2406183
1.248215
1.2539411
1.2579249
1.2604051
1.2616177
1.2617943
1.261143
1.2598451
1.2580528
1.2558917
1.2534634
1.2508495
1.2481143
1.2453086
1.242472
1.2396353
1.2368219
1.2340502
1.2313337
1.2286826
1.2261046
1.2236047
1.2211868
1.2188531
1.2166048
1.2144424
1.2123656
1.2103738
1.2084656
1.2066398
1.2048947
1.2032283
1.2016387
1.2001238
1.1986814
1.1973093
1.1960052
1.1947668
1.1935918
1.1924779
1.1914228
1.190424
1.1894794
1.1885865
1.1877432
1.1869472
1.1861961
1.1854879
1.1848203
1.1841911
1.1835982
1.1830395
1.1825127
1.1820158
1.1815465
1.1811026
1.1806821
1.1802828
1.1799026
1.1795399
1.1791933
1.1788612
1.1785414
1.1782314
1.1779315
1.1776478
1.1773867
1.1771394
1.176874
1.1765721
1.1763077
1.1762558
1.1764592
1.1764424
1.1958211
1.2348654
1.2406469
1.255959
1.2650887
1.2719991
1.2763842
1.2787917
1.2795824
1.2791216
1.2777083
1.2755901
1.2729633
1.2699818
1.2667642
1.263401
1.2599609
1.2564953
1.2530429
1.249632
1.2462838
1.2430131
1.2398308
1.2367442
1.2337582
1.2308755
1.2280976
1.2254249
1.2228567
1.2203918
1.2180287
1.2157654
1.2135994
1.2115285
1.2095501
1.2076614
1.2058598
1.2041426
1.202507
1.2009503
1.1994697
1.1980627
1.1967264
1.1954584
1.1942559
1.1931164
1.1920373
1.1910161
1.1900504
1.1891377
1.1882756
1.1874617
1.1866937
1.1859694
1.1852864
1.1846427
1.1840359
1.1834639
1.1829246
1.1824158
1.1819354
1.1814812
1.1810511
1.180643
1.1802552
1.179886
1.1795342
1.1791983
1.1788762
1.1785666
1.1782711
1.1779951
1.1777422
1.1775024
1.1772514
1.1769844
1.1767696
1.1767337
1.1768811
1.1768472
1.2433559
1.2759171
1.2830858
1.2928887
1.2977974
1.3001414
1.3003107
1.2989542
1.2965052
1.2933088
1.2896174
1.2856168
1.281441
1.2771867
1.2729227
1.2686974
1.264545
1.2604889
1.2565447
1.2527226
1.2490288
1.2454666
1.2420369
1.2387396
1.235573
1.2325349
1.2296227
1.2268331
1.2241628
1.2216083
1.2191661
1.2168325
1.2146041
1.2124771
1.2104482
1.2085138
1.2066707
1.2049155
1.2032451
1.2016563
1.200146
1.1987114
1.1973494
1.1960572
1.1948321
1.1936713
1.192572
1.1915317
1.1905479
1.1896179
1.1887393
1.1879097
1.1871267
1.186388
1.1856913
1.1850344
1.1844151
1.1838312
1.1832806
1.1827612
1.1822708
1.1818073
1.1813688
1.1809531
1.1805586
1.1801839
1.1798277
1.1794886
1.1791651
1.1788568
1.1785657
1.1782963
1.1780498
1.1778177
1.1775841
1.1773526
1.1771783
1.1771472
1.1772464
1.1772081
1.297378
1.3180703
1.3226421
1.325024
1.3242457
1.3216132
1.3177407
1.3131177
1.3080651
1.3028004
1.2974674
1.2921609
1.2869427
1.2818519
1.2769129
1.2721398
1.2675399
1.263116
1.2588676
1.2547924
1.2508866
1.2471457
1.2435645
1.2401378
1.2368602
1.2337263
1.2307306
1.227868
1.2251335
1.2225221
1.2200291
1.21765
1.2153804
1.2132161
1.211153
1.2091874
1.2073153
1.2055334
1.2038379
1.2022258
1.2006935
1.1992382
1.1978566
1.1965459
1.1953031
1.1941254
1.1930101
1.1919544
1.1909558
1.1900117
1.1891196
1.188277
1.1874815
1.1867308
1.1860227
1.1853548
1.184725
1.1841312
1.1835713
1.183043
1.1825444
1.1820734
1.1816279
1.1812062
1.1808065
1.1804275
1.180068
1.1797267
1.1794026
1.1790961
1.178809
1.1785444
1.1783027
1.1780779
1.1778624
1.1776631
1.1775186
1.1774796
1.1775285
1.1774976
1.3502048
1.3535536
1.3523641
1.3479245
1.3421152
1.3355605
1.3287252
1.3218511
1.3150844
1.3085044
1.302154
1.2960535
1.29021
1.2846226
1.2792858
1.2741915
1.2693305
1.2646925
1.2602676
1.2560458
1.2520175
1.2481736
1.2445052
1.2410043
1.2376631
1.2344742
1.2314309
1.2285268
1.2257556
1.2231118
1.22059
1.218185
1.2158919
1.2137063
1.2116238
1.2096402
1.2077515
1.205954
1.204244
1.2026181
1.2010729
1.1996052
1.1982119
1.1968899
1.1956363
1.1944482
1.1933229
1.1922576
1.1912496
1.1902965
1.1893956
1.1885446
1.187741
1.1869824
1.1862667
1.1855915
1.1849548
1.1843544
1.1837882
1.1832541
1.1827501
1.1822742
1.1818243
1.1813987
1.1809958
1.1806141
1.1802525
1.1799099
1.1795857
1.1792805
1.1789959
1.1787338
1.1784944
1.1782748
1.178073
1.1778974
1.1777713
1.1777198
1.1777304
1.1777143
1.3842414
1.3766946
1.3692051
1.3609663
1.3524058
1.3439348
1.3357208
1.3278384
1.3203164
1.3131581
1.3063553
1.2998932
1.293755
1.2879226
1.2823785
1.2771057
1.2720883
1.2673114
1.2627614
1.2584254
1.2542919
1.25035
1.2465897
1.2430019
1.2395781
1.2363103
1.2331913
1.2302143
1.227373
1.2246612
1.2220736
1.2196049
1.21725
1.2150045
1.2128637
1.2108235
1.2088799
1.2070292
1.2052675
1.2035916
1.2019979
1.2004832
1.1990444
1.1976785
1.1963826
1.1951536
1.1939889
1.1928857
1.1918414
1.1908534
1.189919
1.1890359
1.1882017
1.1874139
1.1866703
1.1859687
1.1853068
1.1846826
1.184094
1.1835388
1.183015
1.1825206
1.1820535
1.1816121
1.1811945
1.1807993
1.1804254
1.1800717
1.179738
1.1794247
1.1791333
1.1788651
1.1786202
1.1783974
1.1781992
1.1780359
1.177919
1.1778517
1.1778353
1.1778289
1.1631974
1.167867
1.1824556
1.1942412
1.1996948
1.2009473
1.2010166
1.2006864
1.2007247
1.2004358
1.2001674
1.1996285
1.1990418
1.1984042
1.197722
1.1969995
1.1962414
1.1954535
1.1946406
1.1938068
1.1929562
1.1920921
1.1912178
1.1903363
1.1894502
1.1885618
1.1876733
1.1867868
1.1859041
1.1850269
1.1841568
1.1832954
1.182444
1.181604
1.1807769
1.1799637
1.1791658
1.1783844
1.1776206
1.1768757
1.1761508
1.175447
1.1747654
1.1741072
1.1734735
1.1728654
1.172284
1.1717302
1.1712051
1.1707097
1.1702448
1.1698113
1.1694098
1.1690411
1.1687055
1.1684035
1.168135
1.1679
1.1676981
1.1675288
1.1673907
1.1672823
1.1672018
1.1671466
1.1671137
1.1670996
1.1671013
1.1671153
1.1671418
1.1671755
1.1672198
1.1672559
1.167297
1.167294
1.1673157
1.1672349
1.167261
1.1670525
1.1670114
1.1665847
1.1589841
1.1700253
1.1862626
1.1945479
1.1967985
1.1967072
1.1961714
1.1959239
1.1956096
1.1953089
1.1949206
1.1945254
1.1940844
1.1936076
1.1930922
1.1925453
1.1919679
1.1913628
1.1907323
1.1900786
1.1894042
1.1887113
1.1880022
1.1872791
1.1865443
1.1857999
1.185048
1.1842907
1.18353
1.1827679
1.1820064
1.1812473
1.1804923
1.1797434
1.1790021
1.1782701
1.1775492
1.1768408
1.1761465
1.1754678
1.1748062
1.1741631
1.1735399
1.1729381
1.1723589
1.1718036
1.1712735
1.1707697
1.1702935
1.1698458
1.1694276
1.1690398
1.1686831
1.1683582
1.1680655
1.1678053
1.1675777
1.1673825
1.1672193
1.1670873
1.1669853
1.1669116
1.1668643
1.1668408
1.1668378
1.1668519
1.1668802
1.1669195
1.1669696
1.1670264
1.1670911
1.1671481
1.1672043
1.167221
1.1672501
1.167191
1.1672153
1.1670245
1.1669825
1.1665574
1.1595871
1.1730684
1.1847608
1.1911122
1.1920771
1.1916015
1.191105
1.1908486
1.1905613
1.1902821
1.1899538
1.1896216
1.1892555
1.188876
1.1884697
1.1880435
1.1875946
1.1871248
1.1866344
1.1861241
1.185595
1.185048
1.1844845
1.1839057
1.1833131
1.182708
1.182092
1.1814669
1.1808341
1.1801955
1.1795528
1.1789079
1.1782624
1.1776182
1.1769771
1.176341
1.1757116
1.1750906
1.17448
1.1738814
1.1732965
1.172727
1.1721745
1.1716406
1.1711269
1.1706348
1.1701659
1.1697213
1.1693025
1.1689105
1.1685465
1.1682113
1.1679058
1.1676307
1.1673863
1.1671731
1.1669909
1.1668396
1.1667189
1.1666277
1.1665648
1.1665285
1.1665168
1.1665269
1.1665558
1.1665999
1.1666562
1.1667221
1.166797
1.1668776
1.1669635
1.1670414
1.1671135
1.1671492
1.1671868
1.167148
1.1671724
1.166997
1.1669539
1.166531
1.1573248
1.1717367
1.1824574
1.1871448
1.1869877
1.1866056
1.1861736
1.1859789
1.1856714
1.1854246
1.1851191
1.1848404
1.1845315
1.1842248
1.1838982
1.1835624
1.1832116
1.1828477
1.1824695
1.1820768
1.1816696
1.1812479
1.1808121
1.1803623
1.1798993
1.1794238
1.1789366
1.1784387
1.1779313
1.1774157
1.1768933
1.1763655
1.1758339
1.1753001
1.174766
1.1742331
1.1737033
1.1731785
1.1726604
1.1721508
1.1716517
1.1711647
1.1706918
1.1702345
1.1697948
1.1693741
1.1689741
1.1685963
1.168242
1.1679125
1.167609
1.1673325
1.1670838
1.1668636
1.1666725
1.1665106
1.166378
1.1662744
1.1661994
1.1661521
1.1661311
1.1661346
1.1661606
1.1662064
1.1662686
1.166344
1.1664297
1.1665232
1.1666238
1.1667288
1.1668366
1.1669354
1.1670238
1.167078
1.167125
1.1671047
1.1671297
1.1669702
1.1669266
1.1665056
1.1517727
1.1682141
1.1781072
1.1816285
1.1811078
1.1810222
1.1806748
1.1806172
1.1803852
1.1802546
1.1800399
1.1798688
1.1796573
1.1794566
1.1792346
1.1790074
1.1787659
1.1785135
1.1782486
1.1779709
1.1776804
1.1773767
1.17706
1.1767305
1.1763882
1.1760337
1.1756674
1.1752901
1.1749024
1.1745054
1.1741
1.1736875
1.1732691
1.1728463
1.1724205
1.1719934
1.1715665
1.1711417
1.1707207
1.1703053
1.1698974
1.1694988
1.1691114
1.168737
1.1683774
1.1680344
1.1677095
1.1674044
1.1671205
1.1668592
1.1666217
1.166409
1.1662221
1.1660616
1.165928
1.1658216
1.1657422
1.1656898
1.1656637
1.1656631
1.1656864
1.165732
1.1657977
1.1658807
1.1659779
1.1660859
1.166202
1.166324
1.1664513
1.1665811
1.1667112
1.1668311
1.166936
1.1670081
1.167065
1.1670619
1.1670877
1.1669443
1.1669002
1.1664817
1.1458501
1.1647386
1.1732581
1.1761454
1.1754813
1.175647
1.1753454
1.1754229
1.1752561
1.1752356
1.175102
1.1750314
1.1749088
1.1748051
1.1746772
1.1745474
1.174403
1.1742495
1.1740847
1.1739089
1.1737218
1.1735232
1.1733131
1.1730914
1.1728582
1.1726137
1.1723581
1.1720918
1.1718153
1.1715292
1.1712344
1.1709316
1.170622
1.1703066
1.1699868
1.169664
1.1693396
1.1690152
1.1686925
1.1683732
1.1680591
1.1677519
1.1674536
1.1671659
1.1668906
1.1666296
1.1663843
1.1661565
1.1659477
1.1657591
1.1655921
1.1654477
1.1653267
1.1652298
1.1651576
1.1651101
1.1650874
1.1650891
1.1651147
1.1651633
1.1652332
1.1653228
1.1654299
1.1655517
1.1656851
1.1658268
1.1659743
1.1661257
1.1662802
1.1664354
1.166588
1.1667287
1.1668504
1.1669399
1.167007
1.1670205
1.1670477
1.166919
1.1668732
1.1664594
1.1407033
1.161454
1.1684768
1.1710588
1.170297
1.1706604
1.1703676
1.1705533
1.1704257
1.170492
1.1704208
1.1704365
1.1703888
1.1703616
1.1703066
1.1702551
1.1701908
1.1701203
1.1700409
1.1699525
1.169855
1.169748
1.1696311
1.1695044
1.1693677
1.169221
1.1690643
1.168898
1.1687222
1.1685375
1.1683443
1.1681434
1.1679355
1.1677216
1.1675028
1.1672802
1.1670551
1.1668289
1.1666032
1.1663794
1.1661593
1.1659445
1.1657368
1.1655378
1.1653493
1.1651731
1.1650106
1.1648634
1.1647331
1.1646208
1.1645278
1.1644552
1.1644036
1.1643738
1.1643661
1.1643807
1.1644174
1.164476
1.1645557
1.1646556
1.1647741
1.1649094
1.1650593
1.1652212
1.1653919
1.1655682
1.165748
1.1659293
1.1661115
1.1662923
1.1664677
1.166629
1.1667673
1.1668738
1.1669511
1.1669805
1.1670092
1.1668948
1.166847
1.1664389
1.1359222
1.1584918
1.1640075
1.1664588