/*--------------------------------*- C++ -*----------------------------------*\
  =========                 |
  \\      /  F ield         | OpenFOAM: The Open Source CFD Toolbox
   \\    /   O peration     | Website:  https://openfoam.org
    \\  /    A nd           | Version:  12
     \\/     M anipulation  |
\*---------------------------------------------------------------------------*/
FoamFile
{
    format      ascii;
    class       volScalarField;
    location    "0.091";
    object      T;
}
// * * * * * * * * * * * * * * * * * * * * * * * * * * * * * * * * * * * * * //

dimensions      [0 0 0 1 0 0 0];

internalField   nonuniform List<scalar> 
16000
(
295.01939
286.55164
289.8317
288.03071
289.13659
288.62604
289.04699
288.93333
289.12941
289.16156
289.28128
289.3647
289.46877
289.57023
289.67765
289.78838
289.90321
290.02201
290.14484
290.27171
290.40262
290.53755
290.67648
290.81934
290.96606
291.11653
291.27062
291.42817
291.58899
291.75286
291.91953
292.08873
292.26014
292.43343
292.60824
292.78419
292.96088
293.13787
293.31476
293.49108
293.66641
293.8403
294.01231
294.18203
294.34905
294.51298
294.67346
294.83016
294.98278
295.13105
295.27473
295.41362
295.54757
295.67644
295.80014
295.91863
296.03191
296.13997
296.24288
296.34071
296.43353
296.52141
296.6044
296.68258
296.75609
296.82527
296.89071
296.95332
297.01431
297.07494
297.13631
297.19922
297.26435
297.33278
297.40622
297.48518
297.56982
297.67045
297.75428
297.87972
294.70437
286.13943
289.54063
287.66788
288.8401
288.2932
288.74879
288.62608
288.83619
288.87396
289.00049
289.09277
289.20391
289.31411
289.42986
289.54949
289.67339
289.80156
289.934
290.07073
290.21172
290.35694
290.50631
290.65976
290.81717
290.97839
291.14325
291.31154
291.48302
291.65742
291.83444
292.01375
292.19498
292.37774
292.56162
292.74618
292.93098
293.11555
293.29941
293.48211
293.66317
293.84213
294.01856
294.19204
294.36216
294.52857
294.69093
294.84895
295.00236
295.15095
295.29453
295.43295
295.56611
295.69394
295.81641
295.9335
296.04527
296.15176
296.25305
296.34923
296.44042
296.52669
296.60812
296.68483
296.75702
296.82507
296.88962
296.95161
297.01221
297.07265
297.13398
297.19698
297.26238
297.33148
297.40583
297.48576
297.57326
297.67166
297.75812
297.88531
294.40445
285.75879
289.28107
287.34851
288.56014
288.00341
288.47265
288.35767
288.57257
288.62214
288.75408
288.85688
288.97604
289.09592
289.22116
289.35073
289.48485
289.62352
289.76672
289.91444
290.06663
290.22322
290.3841
290.54915
290.7182
290.89107
291.06752
291.24729
291.43009
291.61558
291.8034
291.99315
292.1844
292.37669
292.56955
292.7625
292.95501
293.1466
293.33674
293.52494
293.71072
293.8936
294.07315
294.24896
294.42066
294.58793
294.75046
294.90802
295.0604
295.20745
295.34904
295.4851
295.61559
295.74051
295.85989
295.9738
296.0823
296.18552
296.28357
296.37657
296.46465
296.54791
296.62648
296.7005
296.77024
296.83612
296.89882
296.95931
297.01872
297.07825
297.13887
297.20133
297.26647
297.3357
297.41041
297.49094
297.57974
297.67651
297.76292
297.89244
294.12887
285.40889
289.04781
287.06682
288.3143
287.74782
288.23088
288.12532
288.34546
288.40838
288.54674
288.66126
288.78976
288.9205
289.05651
289.19726
289.34281
289.49315
289.64825
289.80806
289.97249
290.14143
290.31475
290.49225
290.67374
290.85895
291.0476
291.23935
291.43385
291.63068
291.8294
292.02954
292.23059
292.43203
292.63333
292.83392
293.03326
293.23078
293.42596
293.61828
293.80724
293.99238
294.17329
294.34959
294.52095
294.6871
294.8478
295.00288
295.15221
295.29572
295.43335
295.56513
295.69108
295.81128
295.92583
296.03486
296.13851
296.23695
296.33032
296.41878
296.50248
296.58158
296.6562
296.72654
296.79292
296.85579
296.91588
296.97412
297.03164
297.08956
297.14883
297.21018
297.27454
297.3434
297.41798
297.49872
297.58804
297.68301
297.76856
297.89983
293.87796
285.0958
288.82971
286.83073
288.11368
287.5345
288.02755
287.93611
288.16
288.23892
288.38447
288.51203
288.65124
288.79399
288.942
289.09508
289.2532
289.41634
289.58444
289.75741
289.93513
290.11744
290.30415
290.49502
290.68976
290.88804
291.08951
291.29374
291.50027
291.70862
291.91824
292.12858
292.33905
292.54906
292.75798
292.96522
293.17017
293.37225
293.5709
293.7656
293.95588
294.14129
294.32148
294.4961
294.66491
294.82771
294.98433
295.13471
295.2788
295.41661
295.5482
295.67366
295.79311
295.90673
296.01467
296.11713
296.21433
296.30645
296.39371
296.47629
296.55437
296.62813
296.69774
296.76344
296.82557
296.88463
296.94134
296.99664
297.05159
297.10727
297.16456
297.22424
297.28731
297.35528
297.42919
297.50967
297.59883
297.69134
297.77538
297.90775
293.65535
284.82635
288.64923
286.63558
287.93666
287.36976
287.87293
287.79631
288.02322
288.11946
288.27309
288.41447
288.56556
288.72124
288.88234
289.04883
289.22066
289.39777
289.58006
289.76739
289.95957
290.15639
290.35756
290.56277
290.77163
290.98373
291.19858
291.41567
291.63444
291.85427
292.07453
292.29457
292.51372
292.73129
292.94661
293.15903
293.36791
293.57265
293.77272
293.9676
294.15687
294.34015
294.51712
294.68757
294.85131
295.00825
295.15834
295.30162
295.43814
295.56803
295.69144
295.80856
295.91961
296.02483
296.12446
296.21876
296.30799
296.39241
296.47225
296.54774
296.61908
296.68647
296.75013
296.81032
296.86741
296.92195
296.97463
297.02635
297.07814
297.131
297.18578
297.24329
297.30459
297.37112
297.44383
297.52357
297.6119
297.70128
297.78356
297.91612
293.46399
284.60226
288.50109
286.47713
287.80224
287.25545
287.75508
287.70922
287.93493
288.05187
288.2146
288.37058
288.53494
288.70483
288.8805
289.06196
289.24909
289.44178
289.63985
289.8431
290.05124
290.26395
290.48085
290.70151
290.92542
291.15204
291.38076
291.61093
291.84186
292.07284
292.30311
292.53192
292.75851
292.98213
293.20207
293.41765
293.62821
293.83319
294.03208
294.22444
294.4099
294.58819
294.7591
294.92252
295.07841
295.22678
295.36773
295.5014
295.62797
295.74769
295.86081
295.96763
296.06844
296.16355
296.25329
296.33797
296.41789
296.49336
296.56462
296.63195
296.69556
296.75569
296.81257
296.8665
296.91789
296.96727
297.01535
297.06296
297.11105
297.16058
297.21238
297.26726
297.32633
297.3909
297.46187
297.54039
297.6272
297.71281
297.79325
297.92489
293.30208
284.42177
288.38405
286.35464
287.69413
287.17526
287.67957
287.64281
287.89661
288.03467
288.20904
288.38145
288.56151
288.74783
288.94036
289.13902
289.34365
289.55403
289.76991
289.99096
290.21679
290.44694
290.6809
290.91809
291.15786
291.3995
291.64227
291.88538
292.12798
292.36924
292.6083
292.8443
293.07644
293.30391
293.52599
293.74199
293.95131
294.15345
294.34796
294.53452
294.71289
294.88293
295.04458
295.19786
295.34289
295.47985
295.60895
295.73049
295.84477
295.95215
296.05299
296.14767
296.23657
296.32006
296.39853
296.47232
296.54179
296.60725
296.66899
296.72728
296.78237
296.83451
296.88396
296.93104
296.97617
297.01989
297.06287
297.1059
297.14986
297.19564
297.24403
297.29588
297.35228
297.41439
297.48311
297.55996
297.64454
297.72587
297.80453
297.93389
293.16458
284.28267
288.30113
286.26845
287.63794
287.16868
287.66415
287.67976
287.91247
288.07159
288.26116
288.45254
288.65128
288.85678
289.06886
289.28733
289.51195
289.7424
289.97827
290.2191
290.46437
290.71344
290.96563
291.22017
291.47626
291.733
291.98947
292.24472
292.49779
292.7477
292.99351
293.2343
293.46921
293.69746
293.91833
294.13122
294.33562
294.53112
294.71744
294.89442
295.06197
295.22014
295.36905
295.50892
295.64002
295.76268
295.8773
295.98429
296.08409
296.17714
296.26392
296.34487
296.42043
296.49104
296.5571
296.61901
296.67713
296.73178
296.78328
296.8319
296.87789
296.92151
296.96305
297.00284
297.04131
297.07898
297.11649
297.15457
297.19403
297.23568
297.28031
297.32878
297.38213
297.4413
297.50733
297.58203
297.66369
297.74037
297.81746
297.94278
293.05038
284.18691
288.25773
286.23281
287.63485
287.16539
287.69149
287.74628
287.98588
288.17129
288.37966
288.59265
288.81311
289.04072
289.2752
289.51625
289.76347
290.01637
290.27441
290.53693
290.80319
291.07236
291.34355
291.61577
291.888
292.15916
292.42815
292.69385
292.95518
293.21106
293.4605
293.70257
293.93642
294.16134
294.37671
294.58206
294.77705
294.96146
295.13522
295.29837
295.45106
295.59355
295.72617
295.84933
295.96349
296.06916
296.16686
296.25713
296.34053
296.41759
296.48884
296.55479
296.61592
296.6727
296.72555
296.77487
296.82103
296.86437
296.90517
296.94371
296.98026
297.01506
297.04842
297.08066
297.11221
297.14358
297.17536
297.20823
297.24291
297.28015
297.32073
297.36551
297.41543
297.47126
297.53422
297.60628
297.6843
297.75612
297.83177
297.95202
292.963
284.14239
288.25943
286.30712
287.69034
287.30241
287.78203
287.87615
288.12926
288.34244
288.57368
288.8114
289.05692
289.30986
289.56984
289.83636
290.10884
290.38659
290.66883
290.95465
291.24307
291.53298
291.82324
292.11261
292.39985
292.68365
292.96276
293.23594
293.50199
293.75982
294.00844
294.24698
294.47471
294.69107
294.89564
295.08817
295.26857
295.43689
295.59333
295.73819
295.87188
295.9949
296.1078
296.2112
296.30572
296.39202
296.47075
296.54255
296.60805
296.66786
296.72253
296.77262
296.81861
296.86098
296.90016
296.93653
296.97045
297.00224
297.03217
297.06051
297.0875
297.1134
297.13849
297.16311
297.18766
297.21263
297.23855
297.26604
297.29575
297.32838
297.36468
297.40553
297.45171
297.50386
297.56343
297.6323
297.70594
297.77289
297.84745
297.96154
292.90894
284.16175
288.31508
286.4426
287.79287
287.45984
287.94172
288.08235
288.35131
288.59499
288.85347
289.11958
289.39383
289.67563
289.96441
290.25942
290.55983
290.86465
291.17277
291.48299
291.79398
292.10434
292.41262
292.71733
293.01698
293.31011
293.59532
293.8713
294.13687
294.39098
294.63277
294.86156
295.07684
295.27832
295.46591
295.63967
295.79985
295.94683
296.08111
296.2033
296.31407
296.41417
296.50436
296.58541
296.6581
296.72321
296.78147
296.83359
296.88023
296.92203
296.95957
296.99338
297.02396
297.05175
297.07717
297.10056
297.12227
297.14257
297.16173
297.17998
297.19754
297.21467
297.23162
297.24871
297.26634
297.28495
297.30501
297.32709
297.35174
297.37963
297.41152
297.44824
297.49042
297.53864
297.59456
297.65962
297.7281
297.79035
297.86429
297.97115
292.89324
284.25149
288.43472
286.62982
287.96112
287.70542
288.18128
288.37068
288.66244
288.9399
289.23047
289.52929
289.83645
290.15101
290.4721
290.79865
291.12941
291.46302
291.79796
292.13263
292.46534
292.79433
293.11787
293.4342
293.74167
294.0387
294.32387
294.59592
294.85382
295.09673
295.32408
295.53552
295.73093
295.91044
296.07434
296.22313
296.35743
296.47799
296.58564
296.68128
296.76582
296.84021
296.90538
296.96223
297.01163
297.05442
297.09138
297.12323
297.15066
297.17426
297.19462
297.21222
297.22754
297.24098
297.2529
297.26363
297.27345
297.28261
297.29135
297.29985
297.30833
297.317
297.3261
297.33594
297.34687
297.35928
297.37362
297.39034
297.40997
297.43311
297.46052
297.49297
297.53095
297.57509
297.62714
297.68775
297.75029
297.80807
297.8817
297.98048
292.91749
284.41913
288.62355
286.90115
288.20563
288.03311
288.51076
288.75246
289.07447
289.39033
289.71853
290.05515
290.39988
290.75134
291.1082
291.46887
291.83164
292.19462
292.55583
292.91322
293.26469
293.60819
293.94168
294.26329
294.57129
294.86416
295.14062
295.39971
295.64071
295.86325
296.06721
296.25276
296.42032
296.5705
296.70411
296.82207
296.92541
297.01521
297.09261
297.15873
297.21468
297.26153
297.30031
297.33199
297.35749
297.37763
297.3932
297.40489
297.41334
297.41912
297.42274
297.42466
297.42528
297.42494
297.42397
297.42263
297.42117
297.41978
297.41865
297.41795
297.41786
297.41856
297.42026
297.42325
297.42782
297.43433
297.44317
297.45472
297.46944
297.4879
297.51084
297.53894
297.57261
297.61258
297.66058
297.7162
297.77216
297.82547
297.89867
297.9899
292.98673
284.67764
288.88507
287.26069
288.53682
288.45772
288.94401
289.24215
289.60309
289.96335
290.33542
290.71543
291.1025
291.49462
291.88984
292.28596
292.68064
293.07142
293.45582
293.83131
294.19547
294.54599
294.88075
295.19791
295.49592
295.7736
296.03014
296.26508
296.47837
296.67024
296.84128
296.99228
297.12426
297.2384
297.33597
297.41831
297.48678
297.54275
297.58754
297.62242
297.64861
297.66722
297.67932
297.68586
297.68772
297.68569
297.68049
297.67275
297.66305
297.65187
297.63967
297.62681
297.61363
297.60043
297.58744
297.57488
297.56294
297.55178
297.54152
297.53232
297.52431
297.51764
297.51251
297.50914
297.5078
297.50879
297.51244
297.51908
297.52909
297.54304
297.5616
297.58533
297.61462
297.65038
297.6942
297.74445
297.79353
297.84218
297.91446
298.00137
293.10529
285.04525
289.21558
287.72212
288.96941
288.99377
289.49923
289.85965
290.2692
290.68102
291.10343
291.53213
291.96539
292.40048
292.83466
293.26498
293.68842
294.10191
294.50247
294.88724
295.25363
295.59935
295.92252
296.22172
296.49598
296.74483
296.96826
297.16667
297.34084
297.49184
297.62098
297.72975
297.81976
297.89264
297.95007
297.99369
298.02509
298.04576
298.05712
298.06048
298.05705
298.04792
298.03408
298.01642
297.99574
297.97274
297.94803
297.92216
297.8956
297.86875
297.84197
297.81556
297.78978
297.76483
297.7409
297.71815
297.69671
297.67668
297.65817
297.64127
297.62608
297.61274
297.6014
297.59224
297.58549
297.58141
297.58025
297.58229
297.58788
297.59753
297.61183
297.63123
297.65615
297.68772
297.72723
297.77192
297.81429
297.85849
297.92992
298.0121
293.27772
285.55123
289.62143
288.30338
289.52435
289.66461
290.20214
290.63194
291.09978
291.57021
292.04843
292.52949
293.01056
293.48798
293.95808
294.41706
294.8612
295.28695
295.69103
296.07062
296.4234
296.74764
297.04223
297.3067
297.54115
297.7462
297.92294
298.0728
298.19751
298.29897
298.37918
298.4402
298.48406
298.51275
298.52815
298.53203
298.52605
298.51172
298.49041
298.46336
298.43168
298.39636
298.35826
298.31816
298.27671
298.23451
298.19204
298.14974
298.10797
298.06703
298.0272
297.98867
297.95163
297.91623
297.88257
297.85076
297.82088
297.79299
297.76714
297.74341
297.72186
297.70258
297.68569
297.67134
297.65973
297.65104
297.64548
297.64329
297.64477
297.65037
297.66058
297.67575
297.6964
297.72385
297.75898
297.79801
297.83403
297.87432
297.94473
298.02146
293.5153
286.24352
290.14645
289.03549
290.23249
290.50142
291.08524
291.59128
292.12579
292.66048
293.19773
293.73166
294.25803
294.77201
295.2689
295.74416
296.19365
296.61381
297.00175
297.35538
297.67345
297.95552
298.20188
298.41352
298.59197
298.73917
298.85739
298.94906
299.01674
299.06298
299.09025
299.10097
299.09736
299.08153
299.05537
299.02062
298.97884
298.93143
298.87959
298.82443
298.76688
298.70776
298.64779
298.58757
298.52762
298.46838
298.41022
298.35346
298.29834
298.24507
298.19383
298.14474
298.0979
298.05339
298.01128
297.97159
297.93437
297.89964
297.86741
297.83773
297.81062
297.78614
297.76439
297.74547
297.72952
297.71671
297.70717
297.70112
297.69882
297.70066
297.70699
297.7181
297.73466
297.75812
297.78877
297.82206
297.8523
297.88979
297.95905
298.02852
293.84461
287.11125
290.81769
289.95567
291.1315
291.53894
292.18469
292.77362
293.38118
293.98294
294.57805
295.15931
295.72085
296.25673
296.76164
297.23099
297.66117
298.04966
298.39505
298.69704
298.95627
299.17425
299.35315
299.49563
299.60469
299.6835
299.73527
299.76319
299.77031
299.7595
299.73342
299.69452
299.645
299.58682
299.52174
299.45129
299.37682
299.29951
299.22035
299.14023
299.05987
298.9799
298.90086
298.82319
298.74726
298.67335
298.60173
298.53258
298.46606
298.40227
298.3413
298.2832
298.22802
298.17577
298.12645
298.08006
298.03659
297.99602
297.95835
297.92357
297.89169
297.86274
297.83677
297.81387
297.79412
297.77764
297.76455
297.75501
297.74928
297.74765
297.75034
297.75764
297.77039
297.78999
297.81605
297.8436
297.86879
297.90443
297.97183
298.03279
294.30574
288.08587
291.67654
291.09963
292.2653
292.81898
293.54331
294.22082
294.90303
295.56743
296.20949
296.82075
297.3943
297.92417
298.40581
298.83615
299.21369
299.5384
299.8115
300.03529
300.21288
300.34792
300.44442
300.50648
300.53821
300.54356
300.52627
300.48978
300.43724
300.37149
300.29503
300.21009
300.11861
300.02227
299.92252
299.8206
299.71759
299.61438
299.51172
299.41024
299.31048
299.21286
299.11774
299.0254
298.93605
298.84988
298.767
298.68752
298.61148
298.53892
298.46985
298.40426
298.34213
298.28342
298.2281
298.17611
298.12741
298.08196
298.03972
298.00065
297.96474
297.93199
297.90242
297.87608
297.85302
297.83331
297.81707
297.80442
297.7956
297.79079
297.79015
297.79396
297.8032
297.81908
297.8405
297.86251
297.88333
297.91714
297.9811
298.03516
294.95451
289.34586
292.77123
292.51917
293.6945
294.39964
295.21363
295.97739
296.72286
297.42928
298.08944
298.69508
299.24043
299.72181
300.1377
300.48858
300.77663
301.00534
301.17917
301.30319
301.38275
301.42321
301.42981
301.40747
301.36074
301.29375
301.21018
301.11329
301.00593
300.89056
300.76931
300.64398
300.51613
300.38705
300.25783
300.12937
300.00244
299.87765
299.75551
299.63642
299.52069
299.4086
299.30031
299.19598
299.0957
298.99952
298.90749
298.81958
298.7358
298.6561
298.58043
298.50872
298.44091
298.37693
298.31669
298.26011
298.20712
298.15765
298.11163
298.069
298.02973
297.99379
297.96117
297.93189
297.90597
297.88346
297.86444
297.84904
297.83744
297.82976
297.82608
297.82676
297.83283
297.84515
297.86201
297.8789
297.89601
297.92794
297.98779
298.03589
295.84854
290.9501
294.18706
294.29365
295.49783
296.34821
297.24321
298.06904
298.84159
299.544
300.16996
300.71481
301.17729
301.5588
301.86302
302.09528
302.26204
302.37032
302.42733
302.44012
302.41534
302.35913
302.27701
302.17389
302.05405
301.9212
301.77852
301.62871
301.47406
301.31647
301.15754
300.9986
300.84073
300.68483
300.53161
300.38167
300.23547
300.09336
299.95561
299.82245
299.69401
299.57038
299.45163
299.33777
299.22879
299.12467
299.02534
298.93073
298.84078
298.75537
298.67442
298.59782
298.52546
298.45724
298.39304
298.33275
298.27629
298.22355
298.17444
298.1289
298.08685
298.04826
298.01308
297.98131
297.95294
297.92801
297.90657
297.88875
297.87467
297.86438
297.85796
297.85587
297.85908
297.86801
297.88055
297.89292
297.90722
297.93777
297.99322
298.03331
296.97166
293.02328
296.02944
296.50672
297.7417
298.70849
299.63933
300.46713
301.19831
301.82419
302.34479
302.76302
303.08501
303.3189
303.47409
303.56044
303.58771
303.56517
303.50132
303.40377
303.27921
303.13342
302.97133
302.79711
302.61424
302.42562
302.23366
302.04031
301.84719
301.65559
301.46656
301.28095
301.09941
300.92246
300.7505
300.58382
300.42263
300.26708
300.11726
299.9732
299.83491
299.70236
299.5755
299.45425
299.33852
299.2282
299.12319
299.02335
298.92856
298.83869
298.75358
298.67312
298.59716
298.52558
298.45822
298.39498
298.33573
298.28036
298.22876
298.18083
298.13651
298.09572
298.0584
298.02454
297.99409
297.96707
297.94354
297.92359
297.90728
297.89463
297.88576
297.88121
297.88182
297.88756
297.89612
297.90474
297.91708
297.94629
297.99654
298.02822
298.49561
295.67784
298.3938
299.21169
300.42186
301.44956
302.32691
303.05912
303.65521
304.11911
304.4613
304.69425
304.83182
304.888
304.87614
304.80852
304.696
304.54802
304.37262
304.17654
303.96536
303.74368
303.51524
303.28307
303.0496
302.8168
302.58621
302.35906
302.1363
301.91867
301.70673
301.5009
301.30148
301.10867
300.9226
300.74334
300.5709
300.40526
300.24635
300.09409
299.94838
299.80909
299.67608
299.54922
299.42835
299.31331
299.20393
299.10007
299.00154
298.90819
298.81986
298.73638
298.65759
298.58335
298.51351
298.44791
298.38643
298.32894
298.27532
298.22546
298.17926
298.13665
298.09756
298.06192
298.02971
298.00092
297.97557
297.95374
297.93543
297.92066
297.9096
297.90283
297.90102
297.90375
297.90882
297.91452
297.92544
297.9529
297.99765
298.02394
300.46579
298.98379
301.27632
302.38337
303.56328
304.42427
305.12742
305.65127
306.01828
306.24695
306.35854
306.37324
306.30966
306.18417
306.01074
305.80102
305.56459
305.30917
305.04098
304.76493
304.48492
304.20398
303.9245
303.64831
303.37682
303.11109
302.85193
302.59991
302.35544
302.11882
301.8902
301.66968
301.45728
301.25296
301.05665
300.86825
300.68761
300.5146
300.34903
300.19075
300.03956
299.89527
299.75769
299.62663
299.50189
299.38327
299.27058
299.16362
299.06222
298.96618
298.87532
298.78947
298.70845
298.6321
298.56026
298.49278
298.4295
298.37028
298.31501
298.26355
298.21581
298.17168
298.13109
298.09396
298.06024
298.02992
298.003
297.9795
297.95941
297.94275
297.92974
297.92094
297.9168
297.9167
297.91878
297.92244
297.93255
297.95811
297.99705
298.01783
302.90951
302.92642
304.92472
305.89328
306.78322
307.39065
307.79398
308.01448
308.08853
308.04581
307.91311
307.71258
307.46225
307.17646
306.86641
306.54079
306.20627
305.8679
305.52954
305.19406
304.86361
304.53976
304.22367
303.91614
303.61774
303.32881
303.04958
302.78014
302.5205
302.27059
302.0303
301.79948
301.57796
301.36552
301.16196
300.96705
300.78056
300.60224
300.43186
300.26918
300.11396
299.96597
299.82497
299.69074
299.56305
299.44168
299.32641
299.21704
299.11336
299.01517
298.92229
298.83451
298.75167
298.67359
298.60009
298.53103
298.46623
298.40556
298.34888
298.29606
298.24699
298.20155
298.15967
298.12124
298.08622
298.05455
298.02625
298.00127
297.9796
297.96129
297.94658
297.93593
297.92957
297.92688
297.92653
297.92873
297.93791
297.96045
297.99306
298.01139
305.96989
307.34754
308.66725
309.36378
309.83747
310.04371
310.06457
309.94182
309.71605
309.41755
309.06972
308.68994
308.29106
307.88245
307.4709
307.0613
306.65712
306.2608
305.87405
305.498
305.13338
304.78065
304.44001
304.11152
303.79514
303.49073
303.19808
302.91696
302.6471
302.3882
302.13997
301.9021
301.67427
301.45618
301.24752
301.04799
300.85727
300.67509
300.50116
300.33519
300.17692
300.02609
299.88243
299.74569
299.61565
299.49205
299.37467
299.26329
299.15769
299.05768
298.96304
298.8736
298.78916
298.70954
298.63457
298.56408
298.49792
298.43593
298.37797
298.32391
298.27362
298.22699
298.18393
298.14433
298.10812
298.07525
298.04568
298.01938
297.99633
297.97659
297.96041
297.94813
297.93983
297.93499
297.9328
297.93389
297.94188
297.96106
297.98812
298.00521
309.91504
311.68523
312.21837
312.40031
312.34192
312.10476
311.75086
311.3225
310.84974
310.3532
309.84688
309.34021
308.83944
308.34869
307.8706
307.40678
306.95817
306.52524
306.10812
305.70674
305.32086
304.95016
304.59426
304.25272
303.92511
303.61097
303.30985
303.0213
302.74488
302.48016
302.22672
301.98416
301.75208
301.53013
301.31792
301.11512
300.92137
300.73637
300.5598
300.39135
300.23073
300.07767
299.9319
299.79315
299.66117
299.53571
299.41655
299.30346
299.19621
299.0946
298.99843
298.90749
298.82161
298.74059
298.66427
298.59248
298.52505
298.46184
298.40268
298.34746
298.29604
298.24831
298.20414
298.16345
298.12615
298.09218
298.06147
298.03399
298.00972
297.98875
297.97128
297.95758
297.94767
297.94122
297.93789
297.93839
297.94522
297.9609
297.98274
297.9994
314.86813
315.22656
314.94846
314.57541
314.0487
313.45216
312.821
312.18072
311.5454
310.92358
310.32001
309.73723
309.1764
308.63783
308.12134
307.62645
307.15249
306.69871
306.26431
305.8485
305.45048
305.06948
304.70478
304.35567
304.02148
303.70158
303.39538
303.10232
302.82184
302.55346
302.29669
302.05107
301.81618
301.5916
301.37693
301.17181
300.97588
300.7888
300.61023
300.43988
300.27743
300.12261
299.97512
299.83472
299.70113
299.57412
299.45343
299.33886
299.23017
299.12715
299.0296
298.93732
298.85013
298.76784
298.69028
298.61728
298.54867
298.4843
298.42402
298.3677
298.31519
298.2664
298.22118
298.17945
298.14111
298.10607
298.07428
298.04568
298.02029
297.99817
297.97952
297.96451
297.95323
297.94556
297.94151
297.94173
297.94764
297.96038
297.97811
297.99417
316.85799
317.01933
316.43449
315.66816
314.88475
314.10096
313.33669
312.59948
311.8927
311.2173
310.57294
309.95864
309.37312
308.81496
308.28273
307.77501
307.29047
306.82785
306.38598
305.96375
305.56016
305.17425
304.80517
304.4521
304.1143
303.79105
303.48173
303.18571
302.90244
302.63138
302.37202
302.1239
301.88657
301.65962
301.44263
301.23524
301.03707
300.8478
300.66708
300.4946
300.33007
300.17319
300.0237
299.88131
299.74578
299.61686
299.49432
299.37791
299.26744
299.16267
299.06342
298.96948
298.88067
298.7968
298.7177
298.64321
298.57315
298.50737
298.44572
298.38805
298.33424
298.28416
298.23769
298.19472
298.15514
298.11887
298.08582
298.05595
298.02928
298.00591
297.98599
297.96971
297.95714
297.94838
297.94371
297.94371
297.94893
297.95966
297.97508
297.99185
311.08354
309.76032
306.08031
303.20031
301.92474
301.63697
301.5683
301.56526
301.45278
301.39548
301.29327
301.22104
301.13419
301.0473
300.96092
300.87414
300.78673
300.69864
300.60991
300.52057
300.43073
300.34048
300.24993
300.15922
300.06848
299.97783
299.88742
299.79736
299.70778
299.61882
299.53058
299.44319
299.35676
299.27141
299.18726
299.10441
299.02297
298.94306
298.86478
298.78824
298.71354
298.64079
298.57009
298.50154
298.43523
298.37126
298.30971
298.25066
298.19419
298.14036
298.08923
298.04085
297.99526
297.95249
297.91255
297.87545
297.84118
297.80972
297.78102
297.75504
297.73177
297.71119
297.69326
297.67803
297.66563
297.6562
297.64985
297.64637
297.64553
297.64661
297.65005
297.65563
297.66659
297.68076
297.70421
297.72484
297.76095
297.78585
297.85519
297.90784
310.30276
307.35585
303.18819
301.13111
300.56035
300.56111
300.66311
300.67335
300.66639
300.63941
300.61462
300.57672
300.53343
300.48538
300.43349
300.37785
300.31891
300.25696
300.19232
300.12529
300.05615
299.98517
299.9126
299.83867
299.76361
299.68764
299.61096
299.53377
299.45625
299.3786
299.30099
299.22359
299.14657
299.07009
298.99431
298.91939
298.84548
298.77271
298.70125
298.63122
298.56277
298.49602
298.4311
298.36813
298.30724
298.24852
298.19208
298.13802
298.08643
298.03737
297.99091
297.94711
297.90601
297.86764
297.83203
297.79918
297.76907
297.74168
297.71697
297.69489
297.67543
297.65858
297.64429
297.63261
297.62366
297.61757
297.61439
297.6139
297.61575
297.61931
297.62493
297.63273
297.64554
297.66204
297.6869
297.71034
297.74768
297.77581
297.84771
297.90133
308.88299
305.28669
302.1896
300.49035
300.16126
300.20099
300.23272
300.2059
300.17636
300.14321
300.11099
300.07567
300.03865
299.9988
299.95686
299.91258
299.86615
299.81756
299.76689
299.71424
299.6597
299.60339
299.54544
299.48597
299.42512
299.36304
299.29988
299.2358
299.17095
299.10551
299.03964
298.97351
298.90729
298.84115
298.77526
298.7098
298.64493
298.58082
298.51764
298.45555
298.3947
298.33526
298.27737
298.22118
298.16681
298.1144
298.06408
298.01594
297.97009
297.92661
297.88559
297.84708
297.81114
297.7778
297.74708
297.71899
297.69353
297.67066
297.65033
297.63252
297.61721
297.60437
297.59398
297.58608
297.58078
297.57818
297.57829
297.58086
297.58548
297.59157
297.59944
297.6095
297.62427
297.64312
297.66956
297.69575
297.73452
297.7658
297.84042
297.89505
307.69541
303.844
301.00615
299.72628
299.67499
299.69078
299.70636
299.67043
299.65096
299.62177
299.59732
299.56808
299.53852
299.50709
299.47463
299.44056
299.40503
299.36794
299.32929
299.28905
299.24726
299.20392
299.15909
299.1128
299.06514
299.01618
298.96602
298.91475
298.8625
298.80939
298.75555
298.70114
298.64629
298.59118
298.53597
298.48081
298.42589
298.37137
298.31743
298.26425
298.21198
298.16081
298.11088
298.06238
298.01543
297.9702
297.92681
297.88538
297.84603
297.80886
297.77395
297.74137
297.71119
297.68343
297.65812
297.63529
297.61492
297.59698
297.58143
297.56822
297.55737
297.54882
297.54257
297.53866
297.53719
297.53823
297.54176
297.54747
297.55493
297.5636
297.5738
297.58618
297.60302
297.62423
297.65237
297.68124
297.72158
297.75606
297.83339
297.88901
306.99278
302.62527
300.03909
299.09188
299.16469
299.13994
299.16416
299.12775
299.11971
299.09543
299.07955
299.05764
299.03684
299.01437
298.99135
298.96711
298.94181
298.91531
298.88759
298.85858
298.82828
298.79667
298.76373
298.72948
298.69394
298.65715
298.61915
298.58
298.53979
298.49861
298.45654
298.41371
298.37024
298.32627
298.28194
298.2374
298.19282
298.14835
298.10417
298.06045
298.01736
297.97508
297.93378
297.89361
297.85475
297.81734
297.78153
297.74746
297.71523
297.68496
297.65674
297.63064
297.60673
297.58505
297.56564
297.54849
297.53362
297.52098
297.51054
297.50226
297.49614
297.49214
297.49025
297.49051
297.49302
297.49784
297.50488
297.51381
297.52415
297.53545
297.54804
297.56279
297.58179
297.60539
297.63534
297.66684
297.70885
297.74658
297.82658
297.88323
306.4205
301.43312
299.23205
298.48265
298.62441
298.57086
298.6144
298.57892
298.58544
298.56801
298.56295
298.54975
298.53859
298.52554
298.51217
298.4977
298.48228
298.46581
298.44826
298.42961
298.40981
298.38886
298.36673
298.34342
298.31893
298.29328
298.26648
298.23857
298.2096
298.17964
298.14874
298.11701
298.08453
298.05141
298.01779
297.98379
297.94955
297.91523
297.88099
297.84697
297.81337
297.78033
297.74803
297.71664
297.68632
297.65722
297.62948
297.60325
297.57864
297.55576
297.5347
297.51556
297.49838
297.48322
297.47009
297.45903
297.45001
297.44302
297.438
297.43492
297.43378
297.43455
297.43722
297.44183
297.44846
297.45716
297.46779
297.47999
297.49327
297.50723
297.52226
297.53942
297.56066
297.58668
297.61852
297.65265
297.69642
297.7374
297.81998
297.87776
305.84062
300.37692
298.57477
297.92606
298.11374
298.03499
298.09745
298.06063
298.0792
298.06641
298.07015
298.06414
298.06078
298.05536
298.04986
298.04346
298.03631
298.02833
298.01947
298.00971
297.99901
297.98734
297.97467
297.961
297.9463
297.93057
297.91383
297.89607
297.87734
297.85767
297.83711
297.81572
297.79358
297.77077
297.7474
297.72358
297.69944
297.67509
297.65069
297.62638
297.60232
297.57867
297.55557
297.5332
297.5117
297.49122
297.4719
297.45387
297.43725
297.42215
297.40866
297.39685
297.38678
297.3785
297.37203
297.36737
297.36453
297.36348
297.36414
297.36651
297.37057
297.3763
297.3837
297.3928
297.40368
297.41634
297.43062
297.44613
297.46237
297.47902
297.49654
297.51617
297.53971
297.56817
297.60194
297.63871
297.68429
297.72856
297.81362
297.87264
305.35673
299.42308