/*--------------------------------*- C++ -*----------------------------------*\
  =========                 |
  \\      /  F ield         | OpenFOAM: The Open Source CFD Toolbox
   \\    /   O peration     | Website:  https://openfoam.org
    \\  /    A nd           | Version:  12
     \\/     M anipulation  |
\*---------------------------------------------------------------------------*/
FoamFile
{
    format      ascii;
    class       volVectorField;
    location    "0.091";
    object      U;
}
// * * * * * * * * * * * * * * * * * * * * * * * * * * * * * * * * * * * * * //

dimensions      [0 1 -1 0 0 0 0];

internalField   nonuniform List<vector> 
16000
(
(215.33507 -3.1435253e-17 -8.3850499)
(252.3003 0 5.385921)
(238.34923 0 -7.5867357)
(246.05541 4.97449e-17 3.7867875)
(241.35004 -4.9103265e-17 -5.984605)
(243.56773 0 1.7545077)
(241.76364 0 -4.3625613)
(242.27502 8.4048372e-17 -0.035384723)
(241.43066 -7.985381e-17 -3.1964077)
(241.31087 0 -1.2870297)
(240.79557 7.2154278e-17 -2.6022126)
(240.44854 -2.0556864e-16 -2.0161721)
(240.00464 1.3011316e-16 -2.4631725)
(239.57604 -1.2376762e-16 -2.4016801)
(239.11938 1.1743212e-16 -2.5674153)
(238.64898 -3.483538e-18 -2.6429255)
(238.16007 -3.3092283e-18 -2.7504837)
(237.65354 -9.7648461e-17 -2.8473759)
(237.12885 1.9131519e-16 -2.9462081)
(236.58588 -9.0772054e-17 -3.0429938)
(236.02445 1.7265988e-16 -3.138123)
(235.44451 -1.6366822e-16 -3.2309037)
(234.84606 0 -3.3208442)
(234.2292 1.5234807e-16 -3.4073701)
(233.59411 -4.1243626e-18 -3.4899)
(232.94111 -2.6589493e-16 -3.5678202)
(232.27061 1.2602514e-16 -3.6405109)
(231.58315 0 -3.7073384)
(230.87939 0 -3.7676726)
(230.16014 2.1885979e-16 -3.8208914)
(229.42634 -2.0391978e-16 -3.8663948)
(228.67907 0 -3.9036131)
(227.91952 0 -3.9320184)
(227.14906 0 -3.9511383)
(226.36916 5.1445653e-18 -3.9605658)
(225.5814 1.5612263e-16 -3.9599708)
(224.78749 -1.4291748e-16 -3.9491123)
(223.98921 -1.3997381e-16 -3.927846)
(223.18845 1.2393837e-16 -3.8961337)
(222.38713 0 -3.8540506)
(221.5872 -1.1861573e-16 -3.8017858)
(220.79066 1.1195996e-16 -3.7396454)
(219.99948 -2.1217945e-16 -3.6680499)
(219.2156 2.0018554e-16 -3.5875298)
(218.4409 -1.955054e-16 -3.4987203)
(217.67722 3.5793578e-16 -3.4023505)
(216.92626 5.6057947e-18 -3.2992337)
(216.18964 2.956027e-19 -3.1902531)
(215.46883 -1.5065244e-16 -3.0763456)
(214.76517 1.4247929e-16 -2.9584836)
(214.07984 -1.2585196e-16 -2.8376561)
(213.41385 0 -2.7148483)
(212.76807 7.4795657e-18 -2.591024)
(212.14318 0 -2.4671072)
(211.53968 6.6555389e-18 -2.3439652)
(210.95787 2.0723148e-16 -2.2223938)
(210.39789 -3.7875897e-16 -2.1031022)
(209.85966 1.0939213e-17 -1.9867)
(209.34292 1.6829809e-16 -1.8736876)
(208.84711 -1.4895978e-16 -1.7644674)
(208.37144 1.4030825e-16 -1.6593189)
(207.91499 -8.8285428e-18 -1.558451)
(207.47665 0 -1.4619619)
(207.05514 0 -1.3698706)
(206.64901 -1.1123606e-16 -1.2821511)
(206.25656 1.1191196e-16 -1.1987478)
(205.87584 -9.9155102e-17 -1.1195951)
(205.50456 1.9353665e-16 -1.0445944)
(205.14032 -1.8886343e-16 -0.97354583)
(204.78075 8.37232e-17 -0.90607534)
(204.42339 5.2865672e-18 -0.84155455)
(204.06515 0 -0.77890725)
(203.70158 4.7525391e-18 -0.71681869)
(203.32605 -4.5141572e-18 -0.65513467)
(202.93172 0 -0.59308471)
(202.52148 -3.3754298e-17 -0.52390095)
(202.10199 6.2482379e-17 -0.46248043)
(201.62697 -3.1750853e-17 -0.43990854)
(201.26353 0 -0.22684725)
(200.76901 0 -0.56510685)
(216.65472 0 -11.202832)
(253.9377 -3.7299971e-18 3.3387021)
(239.32609 -1.1987647e-16 -10.508718)
(247.51893 1.1052486e-16 1.7076083)
(242.46032 0 -8.8416221)
(244.9078 1.0169142e-16 -0.39907889)
(242.90105 -1.877891e-16 -7.1036171)
(243.50001 -1.0211139e-19 -2.3130358)
(242.56516 8.4630266e-17 -5.7829781)
(242.44576 0 -3.6827295)
(241.88993 -1.5287326e-16 -5.0746239)
(241.51391 1.4953975e-16 -4.4570416)
(241.0381 1.422271e-16 -4.8897361)
(240.57513 -2.6182166e-16 -4.8294279)
(240.08402 1.2036151e-16 -4.9747079)
(239.5773 1.1065447e-17 -5.04289)
(239.05108 1.157098e-16 -5.1346731)
(238.50595 -1.0305338e-16 -5.217667)
(237.94154 0 -5.3002372)
(237.35771 0 -5.3796987)
(236.75442 5.686668e-18 -5.4559386)
(236.13166 -1.7839356e-16 -5.5282593)
(235.48957 3.3826876e-16 -5.5960375)
(234.82836 -3.1608681e-16 -5.6586007)
(234.14838 1.4286873e-16 -5.7152619)
(233.45009 0 -5.7653198)
(232.73409 1.2460584e-16 -5.8080645)
(232.0011 -1.3361582e-16 -5.8427926)
(231.25202 0 -5.8688148)
(230.48785 3.5311108e-18 -5.8854677)
(229.70978 -1.3393285e-17 -5.8921249)
(228.91911 0 -5.8882126)
(228.11731 0 -5.8732173)
(227.30596 -1.7089689e-16 -5.8467057)
(226.48679 3.3934296e-16 -5.808333)
(225.66162 -1.6294932e-16 -5.7578566)
(224.83236 -1.5934463e-16 -5.6951488)
(224.00104 1.4584206e-16 -5.6202028)
(223.16968 -1.1232848e-16 -5.5331428)
(222.34038 -2.8465121e-19 -5.4342268)
(221.51523 -2.6625099e-19 -5.3238483)
(220.6963 2.3314583e-16 -5.2025344)
(219.88561 -1.1000053e-16 -5.0709407)
(219.08512 0 -4.9298434)
(218.29669 2.026754e-16 -4.7801299)
(217.52207 1.1952505e-17 -4.6227841)
(216.76287 -5.1272837e-18 -4.4588707)
(216.02055 -1.6477535e-16 -4.2895172)
(215.29643 0 -4.1158934)
(214.59163 -1.4676053e-16 -3.93919)
(213.90713 -8.8696594e-18 -3.7605977)
(213.24371 2.6046627e-16 -3.5812849)
(212.60197 -1.3026256e-16 -3.4023799)
(211.98236 0 -3.2249514)
(211.38514 -2.0408921e-17 -3.0499917)
(210.81039 -2.1147063e-16 -2.8784031)
(210.25803 3.6171192e-16 -2.7109843)
(209.7278 -2.1552889e-16 -2.5484202)
(209.21927 0 -2.3912754)
(208.73177 -1.7098298e-16 -2.2400032)
(208.26442 1.7967189e-16 -2.0949158)
(207.81616 2.6712615e-17 -1.9562349)
(207.38584 0 -1.8240652)
(206.97211 -1.4201279e-16 -1.6984002)
(206.5735 7.330433e-18 -1.5791659)
(206.1883 1.1179252e-16 -1.4662353)
(205.81453 -1.9749884e-17 -1.3594539)
(205.44985 9.305258e-17 -1.2586256)
(205.0917 -1.0517857e-16 -1.1634613)
(204.73747 5.5108383e-18 -1.0735226)
(204.38456 -5.1994716e-18 -0.98811058)
(204.03001 0 -0.90603411)
(203.66944 -4.6387051e-18 -0.8260733)
(203.29597 4.3873278e-18 -0.7483795)
(202.90374 8.3093929e-18 -0.67104552)
(202.49614 9.8455009e-19 -0.587705)
(202.06957 0 -0.52177666)
(201.61102 3.0222608e-17 -0.47624678)
(201.23869 -5.7593801e-17 -0.25947604)
(200.73192 2.5852502e-17 -0.61469516)
(217.84085 0 -14.094705)
(255.42394 -1.2268256e-16 1.0952162)
(240.27177 2.5018951e-16 -13.517393)
(248.78287 -2.2343133e-16 -0.54467241)
(243.46358 1.103513e-16 -11.77746)
(246.04689 -3.2675425e-18 -2.7467702)
(243.91231 9.9457278e-17 -9.8953201)
(244.53684 -9.4194891e-17 -4.7887488)
(243.54493 -5.5918145e-18 -8.4362124)
(243.40206 -5.3094372e-18 -6.2446987)
(242.81077 -1.008609e-17 -7.6469915)
(242.39864 1.3915309e-16 -7.0352603)
(241.8873 -1.4105263e-16 -7.4360102)
(241.38578 1.3843495e-16 -7.3827652)
(240.85553 -1.189243e-16 -7.506281)
(240.30803 -1.5586722e-17 -7.5662099)
(239.73978 0 -7.6421078)
(239.15136 -1.2176251e-20 -7.7099827)
(238.54247 -2.2670487e-16 -7.7751979)
(237.91309 -3.6617731e-19 -7.8357378)
(237.26327 1.7376432e-16 -7.891175)
(236.59315 1.7068459e-17 -7.9407247)
(235.90301 -2.1589196e-17 -7.9836413)
(235.19323 0 -8.0191459)
(234.46433 7.0534112e-21 -8.0464536)
(233.71698 -1.6572831e-16 -8.0647763)
(232.952 1.4806004e-16 -8.0733347)
(232.17036 8.2634411e-18 -8.0713659)
(231.37319 0 -8.0581426)
(230.56177 -7.4133337e-18 -8.0329797)
(229.73757 -1.6150297e-21 -7.9952548)
(228.90216 -1.9955368e-16 -7.9444194)
(228.05732 2.0097632e-16 -7.8800151)
(227.20491 1.190925e-17 -7.8016918)
(226.34693 -1.8028121e-16 -7.7092163)
(225.48548 1.4878678e-16 -7.60249)
(224.62272 -1.8129246e-16 -7.4815564)
(223.76088 1.519552e-16 -7.3466109)
(222.90219 -1.438741e-16 -7.1980024)
(222.04888 1.3559471e-16 -7.0362382)
(221.20316 1.6032482e-17 -6.8619797)
(220.36715 0 -6.6760348)
(219.54289 1.9998257e-16 -6.4793502)
(218.7323 -2.4205766e-16 -6.2729968)
(217.93716 0 -6.0581537)
(217.15908 1.7964481e-16 -5.8360905)
(216.3995 -1.5764131e-16 -5.6081429)
(215.65968 1.7008192e-16 -5.3756926)
(214.94068 -1.7989856e-16 -5.1401409)
(214.24337 0 -4.9028865)
(213.56843 1.7738398e-16 -4.6653021)
(212.91634 -1.3330781e-16 -4.4287114)
(212.2874 0 -4.1943712)
(211.68176 0 -3.9634531)
(211.09937 1.2489264e-16 -3.7370268)
(210.54005 -2.0857188e-16 -3.5160511)
(210.00346 1.2243175e-16 -3.3013626)
(209.48912 1.842467e-16 -3.093671)
(208.99639 1.9689903e-19 -2.8935534)
(208.52448 1.7485888e-19 -2.701465)
(208.07234 -3.2426406e-16 -2.5177116)
(207.63884 8.9486179e-17 -2.3424908)
(207.22273 0 -2.1758871)
(206.8226 1.4220652e-16 -2.0178521)
(206.43695 -1.6311754e-16 -1.868254)
(206.06407 1.1148059e-16 -1.7268892)
(205.70196 1.315392e-17 -1.5935044)
(205.34827 -8.6012365e-17 -1.4677901)
(205.00032 1.1549153e-17 -1.3493493)
(204.65532 2.1718546e-17 -1.2376586)
(204.31053 -1.0212396e-16 -1.1319169)
(203.96303 9.6045402e-17 -1.0308461)
(203.60854 -7.2357687e-17 -0.93341862)
(203.2403 1.3629672e-16 -0.83979096)
(202.85353 -5.6204374e-17 -0.74687377)
(202.45076 -6.0635472e-17 -0.650637)
(202.02459 5.0102462e-17 -0.57869528)
(201.57908 0 -0.51106354)
(201.21007 3.2056176e-18 -0.29325418)
(200.68912 -1.2151143e-17 -0.66417385)
(218.86615 0 -17.056543)
(256.76001 0 -1.283149)
(241.03956 0 -16.660933)
(249.86584 1.0677289e-16 -2.9038245)
(244.28011 -1.2398179e-16 -14.842164)
(247.01829 -2.2081217e-16 -5.2122743)
(244.74197 2.1001502e-16 -12.804542)
(245.39471 -1.2439027e-17 -7.3917496)
(244.33878 5.9231022e-18 -11.199219)
(244.16838 -1.7418024e-16 -8.9382023)
(243.53727 1.705221e-16 -10.330198)
(243.08358 1.0134098e-17 -9.7387204)
(242.53193 -1.5388851e-16 -10.099332)
(241.98658 1.3670387e-16 -10.054773)
(241.41214 -1.358031e-20 -10.155237)
(240.81875 -8.1987928e-18 -10.204933)
(240.20348 0 -10.263337)
(239.56689 -7.4009989e-18 -10.313641)
(238.90881 -2.1067526e-16 -10.358851)
(238.22933 2.1272545e-16 -10.3974)
(237.52864 1.2626963e-17 -10.428629)
(236.80704 -1.1971451e-17 -10.451665)
(236.06497 2.15728e-16 -10.465659)
(235.30302 -1.7183907e-16 -10.469741)
(234.52194 1.019038e-17 -10.463034)
(233.72263 1.932262e-16 -10.444679)
(232.90618 -1.278196e-16 -10.413831)
(232.07384 0 -10.36969)
(231.22705 1.4769201e-16 -10.311503)
(230.36742 -1.2396979e-16 -10.238593)
(229.49674 2.4984185e-16 -10.15037)
(228.61694 -1.3347065e-17 -10.046353)
(227.73011 -2.0986074e-16 -9.9261828)
(226.83845 1.7405898e-16 -9.7896451)
(225.94425 -1.8750563e-16 -9.6366776)
(225.0499 -3.0257702e-20 -9.467387)
(224.15781 2.0960858e-16 -9.2820546)
(223.2704 -3.1633112e-16 -9.0811411)
(222.39008 9.31013e-17 -8.8652876)
(221.51918 3.5247957e-17 -8.6353106)
(220.65996 -4.9840865e-17 -8.3921962)
(219.81454 0 -8.1370836)
(218.98489 -8.8682073e-17 -7.8712519)
(218.17282 1.3889122e-16 -7.5960973)
(217.37992 -2.0970814e-16 -7.3131114)
(216.60761 1.9703914e-16 -7.0238581)
(215.85704 -2.0898421e-16 -6.729943)
(215.1292 3.9295346e-16 -6.4329888)
(214.4248 -3.0794035e-16 -6.1346087)
(213.7444 3.087874e-16 -5.8363798)
(213.08829 -1.4493056e-16 -5.5398201)
(212.45662 1.3642156e-16 -5.2463677)
(211.84932 -9.5899394e-17 -4.9573606)
(211.26621 3.0070667e-17 -4.674024)
(210.7069 0 -4.3974545)
(210.17093 0 -4.1286163)
(209.65767 0 -3.8683347)
(209.16641 2.3273363e-17 -3.6172952)
(208.69632 0 -3.376042)
(208.24643 -1.6379137e-16 -3.1449887)
(207.81558 1.917368e-16 -2.9244011)
(207.40254 -1.0791424e-16 -2.7144194)
(207.00596 -1.1501583e-19 -2.51508)
(206.62442 2.5244691e-16 -2.3262764)
(206.25636 2.964498e-17 -2.1478071)
(205.9001 -1.3844496e-16 -1.9793867)
(205.55367 5.1911833e-17 -1.8206611)
(205.21471 -1.4583686e-16 -1.6712058)
(204.88047 -4.5566438e-17 -1.5305146)
(204.54798 -6.4048319e-17 -1.3979656)
(204.2144 -6.0055739e-17 -1.27264)
(203.87684 5.6280608e-17 -1.1532162)
(203.53108 0 -1.0388711)
(203.17076 0 -0.92951888)
(202.79195 -1.5510521e-17 -0.8211949)
(202.39567 0 -0.71298849)
(201.97311 6.8517619e-18 -0.63293614)
(201.54066 5.1586626e-17 -0.54137353)
(201.17773 -7.2897684e-17 -0.32536807)
(200.64289 -4.0462913e-21 -0.71272517)
(219.71323 0 -20.21663)
(257.92313 -8.8265102e-18 -3.7388911)
(241.66777 2.6697442e-16 -19.939319)
(250.72776 -2.4936102e-16 -5.387738)
(244.86126 2.5446023e-16 -18.020397)
(247.78705 -2.3280716e-16 -7.8303628)
(245.3718 -2.2192907e-16 -15.8188)
(246.0415 2.1008368e-16 -10.152685)
(244.92417 0 -14.0649)
(244.71563 0 -11.781609)
(244.04244 1.8004876e-16 -13.127481)
(243.54041 -1.7057234e-16 -12.574911)
(242.94369 -1.0133165e-17 -12.885661)
(242.3493 2.8822346e-17 -12.849045)
(241.72569 -9.1210943e-18 -12.924478)
(241.08154 3.459437e-17 -12.960206)
(240.4145 0 -12.998209)
(239.72505 0 -13.027206)
(239.01317 -2.3625703e-16 -13.048596)
(238.27908 2.0952749e-16 -13.06103)
(237.52312 0 -13.063667)
(236.74578 0 -13.055527)
(235.94774 -1.9064163e-16 -13.035633)
(235.12983 3.6078553e-16 -13.003007)
(234.29308 -1.7063945e-16 -12.956676)
(233.43873 -2.0215431e-17 -12.895697)
(232.56819 -3.8287977e-17 -12.819172)
(231.68311 -1.450776e-16 -12.726273)
(230.78531 1.1978402e-16 -12.616255)
(229.87679 0 -12.488484)
(228.95973 -3.0678607e-17 -12.342454)
(228.03648 0 -12.177811)
(227.10948 0 -11.994364)
(226.18131 2.0709604e-16 -11.792112)
(225.25458 -2.1950526e-16 -11.571244)
(224.33194 2.3025731e-17 -11.332156)
(223.41605 -2.1725878e-17 -11.075452)
(222.50949 -4.1073716e-17 -10.801941)
(221.61476 -8.5961346e-20 -10.512634)
(220.73426 8.1652982e-20 -10.208727)
(219.87018 -7.7061686e-20 -9.8915934)
(219.02456 0 -9.5627514)
(218.19921 -1.2191943e-16 -9.2238498)
(217.39571 1.1448689e-16 -8.8766328)
(216.61537 0 -8.5229133)
(215.85927 -5.074197e-17 -8.164545)
(215.12824 1.9070831e-16 -7.8033853)
(214.42283 -2.2356082e-16 -7.4412711)
(213.74339 -2.103235e-16 -7.0799879)
(213.09002 1.5768497e-16 -6.7212457)
(212.46264 1.1120972e-16 -6.3666558)
(211.86095 -1.3881295e-16 -6.0177131)
(211.28453 -3.2543558e-17 -5.6757777)
(210.73277 -2.1378835e-16 -5.3420672)
(210.205 1.1433888e-16 -5.0176455)
(209.7004 -1.0723491e-16 -4.7034236)
(209.2181 1.0029907e-16 -4.4001598)
(208.75713 2.3499563e-16 -4.1084617)
(208.31647 -1.7575065e-16 -3.8287907)
(207.89499 0 -3.5614728)
(207.49142 -3.8456717e-17 -3.3066917)
(207.10444 -7.1981906e-17 -3.0644992)
(206.73264 1.3449926e-16 -2.8348493)
(206.37455 1.2582972e-16 -2.617558)
(206.02861 -2.3513458e-16 -2.4123401)
(205.69317 8.2346036e-17 -2.2188217)
(205.36629 5.1328331e-17 -2.036546)
(205.04567 9.5955468e-17 -1.8649761)
(204.72852 1.345121e-16 -1.7034986)
(204.41177 2.2692226e-20 -1.5513842)
(204.09247 0 -1.4075933)
(203.76771 0 -1.270811)
(203.43341 -3.4227997e-17 -1.1403906)
(203.08377 9.6027986e-17 -1.0157859)
(202.71563 -8.9817277e-17 -0.89256036)
(202.32799 -8.4074279e-17 -0.77344276)
(201.9119 5.2467997e-17 -0.68450791)
(201.49483 0 -0.56932313)
(201.13982 4.609841e-17 -0.35957067)
(200.59288 5.3131916e-21 -0.75964232)
(220.36216 0 -23.54924)
(258.88857 1.8855499e-20 -6.2697081)
(242.10289 9.0845577e-18 -23.312521)
(251.42257 2.8880804e-16 -8.0114458)
(245.28579 3.3331482e-19 -21.303099)
(248.32474 -5.0658186e-16 -10.599609)
(245.75694 -3.2335842e-19 -18.92839)
(246.44792 4.5690567e-16 -13.076522)
(245.27014 -2.1022326e-16 -17.031433)
(245.01655 -1.2470007e-17 -14.774692)
(244.29975 1.184346e-17 -16.037996)
(243.74423 -1.798389e-16 -15.537238)
(243.09866 1.9159796e-16 -15.790194)
(242.45096 -1.8204981e-16 -15.757444)
(241.77378 3.0666829e-16 -15.80559)
(241.0743 -3.0897957e-16 -15.822836)
(240.3507 1.3770948e-16 -15.836994)
(239.60347 0 -15.840634)
(238.83277 0 -15.834023)
(238.03902 1.4668856e-17 -15.815824)
(237.22281 -2.7814325e-17 -15.784979)
(236.38492 0 -15.74035)
(235.52635 1.9973194e-16 -15.680809)
(234.64829 4.7164832e-19 -15.605253)
(233.75218 -3.5745397e-16 -15.512611)
(232.83967 1.6889851e-16 -15.401877)
(231.91265 1.9983713e-17 -15.272134)
(230.97322 0 -15.122568)
(230.02368 -1.7901644e-16 -14.952505)
(229.06651 1.3498883e-16 -14.761427)
(228.10436 -2.2384618e-16 -14.548996)
(227.14001 2.1069416e-16 -14.315076)
(226.17633 -2.2802522e-16 -14.059748)
(225.21624 2.14635e-16 -13.783325)
(224.26266 7.6086065e-17 -13.486356)
(223.3185 0 -13.169629)
(222.38657 0 -12.834172)
(221.46953 4.2404492e-17 -12.481235)
(220.56992 3.993902e-17 -12.112278)
(219.69001 -3.7601305e-17 -11.728947)
(218.83189 3.5385531e-17 -11.333051)
(217.99734 6.67603e-17 -10.926525)
(217.18787 -6.2701637e-17 -10.511403)
(216.4047 3.5351703e-16 -10.089781)
(215.64874 -2.765295e-16 -9.6637755)
(214.92064 5.1900682e-17 -9.2355002)
(214.22073 -4.883551e-17 -8.8070227)
(213.5491 0 -8.3803397)
(212.90561 2.146332e-16 -7.9573481)
(212.28988 -1.6076106e-16 -7.5398236)
(211.70135 0 -7.1293995)
(211.13931 0 -6.727555)
(210.60289 1.3227022e-16 -6.3356013)
(210.09114 -6.1822094e-17 -5.9546786)
(209.60301 0 -5.5857531)
(209.13742 -1.6242543e-16 -5.2296215)
(208.69321 1.0110296e-16 -4.8869182)
(208.2692 1.4190727e-16 -4.5581217)
(207.8642 -1.7651447e-16 -4.2435629)
(207.47695 1.6498299e-16 -3.9434403)
(207.10609 -1.538889e-16 -3.6578144)
(206.75022 6.8269645e-20 -3.3866202)
(206.40788 0 -3.1296993)
(206.0776 6.2541033e-17 -2.8867692)
(205.75783 -2.9158611e-16 -2.6574472)
(205.44694 1.6306747e-16 -2.4412626)
(205.14309 0 -2.237656)
(204.84403 -1.4176376e-16 -2.0459846)
(204.547 8.8059548e-17 -1.8655345)
(204.24887 1.2318531e-16 -1.6954627)
(203.94662 3.06075e-20 -1.5346241)
(203.6373 -7.1292126e-17 -1.381768)
(203.31697 9.9696523e-17 -1.2363533)
(202.98064 -1.5487475e-16 -1.0972061)
(202.6257 8.6629155e-17 -0.95994556)
(202.24873 2.6914426e-17 -0.83106225)
(201.84186 5.0233005e-17 -0.73223151)
(201.44271 0 -0.59402054)
(201.0953 -4.3766014e-17 -0.39159451)
(200.53944 2.0366157e-17 -0.80414747)
(220.79632 0 -27.049587)
(259.64731 9.8211016e-18 -8.9082074)
(242.33767 -3.0627053e-16 -26.811948)
(251.932 2.5007037e-16 -10.77634)
(245.51398 2.5687022e-16 -24.685216)
(248.61992 -5.0099841e-16 -13.524156)
(245.93964 2.3044747e-16 -22.120601)
(246.59687 2.333131e-16 -16.162971)
(245.37591 -2.2111483e-16 -20.083793)
(245.05957 3.9358539e-17 -17.904684)
(244.29835 0 -19.05007)
(243.68389 0 -18.610304)
(242.98455 -2.2384998e-17 -18.801846)
(242.27777 -1.6995209e-16 -18.768609)
(241.54076 1.406488e-16 -18.788735)
(240.77935 1.9079809e-17 -18.783904)
(239.99237 -3.6167714e-17 -18.771189)
(239.18046 3.0857778e-16 -18.745541)
(238.34409 -2.2676211e-16 -18.706433)
(237.48399 2.4612627e-16 -18.652414)
(236.60115 -2.0339117e-16 -18.582221)
(235.69674 2.7576444e-17 -18.494557)
(234.77222 1.566682e-16 -18.388162)
(233.82929 -1.9704908e-16 -18.261843)
(232.86989 0 -18.114479)
(231.89624 0 -17.945063)
(230.91078 0 -17.752728)
(229.91618 -1.9735279e-16 -17.536772)
(228.91529 1.8590653e-16 -17.296686)
(227.91114 -3.5225992e-17 -17.03218)
(226.9069 0 -16.743208)
(225.90581 -2.8237877e-16 -16.429982)
(224.91112 2.3600789e-16 -16.092984)
(223.9261 -5.5821467e-17 -15.732971)
(222.9539 1.5786133e-16 -15.350984)
(221.99759 -4.9055845e-17 -14.948321)
(221.06002 -1.8606924e-16 -14.52654)
(220.14383 2.1949993e-16 -14.087423)
(219.25138 -1.6478587e-16 -13.63295)
(218.38474 7.7728457e-17 -13.165271)
(217.54565 -7.293383e-17 -12.686662)
(216.7355 1.3710117e-16 -12.199482)
(215.95535 -6.4240603e-17 -11.706141)
(215.20589 -2.4177921e-16 -11.209053)
(214.48751 5.0981607e-16 -10.710593)
(213.80026 -2.1232893e-16 -10.21307)
(213.14392 -1.4962402e-16 -9.718689)
(212.51801 9.3023831e-17 -9.2295254)
(211.92182 8.750441e-17 -8.7475009)
(211.35447 -1.636926e-16 -8.2743674)
(210.81491 1.5293874e-16 -7.811693)
(210.30196 0 -7.3608554)
(209.81437 1.3385819e-16 -6.9230364)
(209.35081 -1.8748833e-16 -6.499225)
(208.90993 5.842626e-17 -6.0902221)
(208.49037 5.444826e-17 -5.6966502)
(208.09075 0 -5.3189665)
(207.70973 0 -4.9574736)
(207.34597 0 -4.6123316)
(206.9981 0 -4.2835758)
(206.66472 0 -3.9711131)
(206.34438 -7.1521693e-17 -3.6747349)
(206.03563 0 -3.3941485)
(205.73697 -5.5978774e-20 -3.128954)
(205.44691 2.3092069e-16 -2.878659)
(205.16385 -2.1480666e-16 -2.6426884)
(204.88607 -9.9988457e-17 -2.4203806)
(204.6114 -1.8590246e-16 -2.210996)
(204.33716 2.5912773e-16 -2.0137243)
(204.06022 5.0687953e-20 -1.8276095)
(203.77752 7.4627876e-17 -1.6514351)
(203.48603 0 -1.4840672)
(203.182 0 -1.3249568)
(202.86148 0 -1.1722166)
(202.52209 -1.1137842e-16 -1.022142)
(202.15778 0 -0.88468909)
(201.76309 -9.6225158e-17 -0.77490058)
(201.38416 1.3417477e-16 -0.61483928)
(201.0433 8.3195449e-17 -0.4235285)
(200.48337 -1.9252014e-17 -0.84507927)
(221.0184 0 -30.72704)
(260.20504 0 -11.654578)
(242.37805 3.222208e-16 -30.442594)
(252.25942 1.9331063e-17 -13.698936)
(245.55668 -2.6963744e-16 -28.175934)
(248.73267 0 -16.626278)
(245.92278 1.6155723e-17 -25.391459)
(246.61887 -3.0625235e-17 -19.404075)
(245.23426 0 -23.201514)
(244.84706 1.9304773e-16 -21.154629)
(244.03457 -4.1794705e-16 -22.159486)
(243.35084 1.9790557e-16 -21.788228)
(242.58808 2.3490101e-17 -21.920399)
(241.81246 0 -21.882017)
(241.00582 2.107754e-17 -21.873271)
(240.17287 -3.3999927e-16 -21.841999)
(239.31311 7.4955795e-17 -21.797884)
(238.42744 2.505669e-16 -21.737281)
(237.51674 2.379596e-16 -21.659162)
(236.58222 -2.5667163e-16 -21.561957)
(235.62532 0 -21.444232)
(234.6478 -2.8799697e-16 -21.304582)
(233.65169 2.4452757e-16 -21.141665)
(232.63931 -2.0610581e-16 -20.954263)
(231.61326 1.9425861e-16 -20.741292)
(230.57642 -1.8409685e-16 -20.501836)
(229.53189 3.4728996e-16 -20.235196)
(228.48301 -1.6388613e-16 -19.940904)
(227.43325 1.5499444e-16 -19.618765)
(226.38623 -2.9221154e-16 -19.268867)
(225.34562 1.3753178e-16 -18.891616)
(224.31508 1.298872e-16 -18.487734)
(223.29823 -2.4506191e-16 -18.058264)
(222.29853 5.6894734e-17 -17.604563)
(221.31928 -5.7337705e-19 -17.128296)
(220.36352 2.549511e-16 -16.631395)
(219.43398 0 -16.116043)
(218.53306 1.9410325e-19 -15.58463)
(217.66278 0 -15.039705)
(216.82474 -7.9576611e-17 -14.483937)
(216.02017 -1.4954814e-16 -13.920064)
(215.24986 7.0214936e-17 -13.35084)
(214.51422 0 -12.778992)
(213.81328 -6.1871819e-17 -12.207179)
(213.14673 2.8958633e-16 -11.637946)
(212.51396 -3.2510934e-16 -11.073697)
(211.91408 -3.0461717e-16 -10.516666)
(211.34599 2.8441055e-16 -9.9688954)
(210.8084 -1.7748748e-16 -9.4322214)
(210.2999 0 -8.9082656)
(209.81894 0 -8.3984304)
(209.36394 7.24346e-17 -7.9038989)
(208.93327 6.759709e-17 -7.4256412)
(208.52529 1.259734e-16 -6.9644218)
(208.13838 -5.8741928e-17 -6.5208129)
(207.77097 -1.0941868e-16 -6.0952094)
(207.42154 -2.0403925e-16 -5.6878461)
(207.08859 -9.5187324e-17 -5.2988125)
(206.77072 1.7671524e-16 -4.9280676)
(206.46651 0 -4.5754589)
(206.17454 -7.653805e-17 -4.2407178)
(205.89336 -1.4226156e-16 -3.9234754)
(205.62155 1.321728e-16 -3.623291)
(205.35765 6.1302056e-17 -3.3396349)
(205.10019 5.701442e-17 -3.0718963)
(204.84768 0 -2.8193916)
(204.59849 1.9653525e-16 -2.5813598)
(204.35058 1.8236016e-16 -2.3569724)
(204.10137 -2.5374516e-16 -2.1453262)
(203.84783 7.8481772e-17 -1.9453579)
(203.58683 -7.273384e-17 -1.7558297)
(203.31526 -3.7962847e-20 -1.5757562)
(203.02967 2.499941e-16 -1.4044327)
(202.72723 -2.3169174e-16 -1.2392988)
(202.40543 5.3648327e-17 -1.077971)
(202.05568 1.4921899e-16 -0.93307235)
(201.67629 -4.6096134e-17 -0.81122806)
(201.31941 -4.269789e-17 -0.63136028)
(200.98356 0 -0.45355199)
(200.42557 3.6524435e-17 -0.8811241)
(221.03942 3.9189047e-16 -34.591378)
(260.56778 5.4202754e-19 -14.516363)
(242.20268 -3.5914387e-16 -34.221536)
(252.39881 0 -16.785451)
(245.33718 0 -31.742063)
(248.50544 -2.6795038e-16 -19.901699)
(245.59956 2.7107194e-16 -28.717655)
(246.12604 6.4290752e-17 -22.80624)
(244.82128 -2.4402296e-16 -26.418406)
(244.35554 2.3081412e-16 -24.549331)
(243.48136 -2.4668932e-16 -25.392559)
(242.7156 2.073447e-16 -25.085426)
(241.87736 -4.9189658e-17 -25.158002)
(241.0212 -4.6646214e-17 -25.104952)
(240.13342 -1.7675935e-16 -25.062435)
(239.21784 1.6695359e-16 -24.997059)
(238.27466 -3.5653697e-16 -24.913656)
(237.30519 5.9931891e-16 -24.809273)
(236.31085 -2.8317105e-16 -24.682489)
(235.29345 -2.6868296e-16 -24.531597)
(234.25509 2.5337162e-16 -24.355031)
(233.19822 -3.0173802e-17 -24.151315)
(232.12563 -2.2712966e-16 -23.919108)
(231.04041 2.1395815e-16 -23.657263)
(229.94597 2.5345671e-16 -23.364846)
(228.84596 -1.4291604e-16 -23.041182)
(227.74426 0 -22.685899)
(226.64491 2.5558639e-16 -22.298945)
(225.55206 -3.2102333e-16 -21.880627)
(224.46987 1.1295407e-16 -21.431619)
(223.40246 -2.855782e-16 -20.952971)
(222.35383 2.0120234e-16 -20.446109)
(221.32778 -6.3397713e-17 -19.912815)
(220.32783 2.3824251e-16 -19.355204)
(219.35717 -2.2347466e-16 -18.775696)
(218.4186 -2.1061853e-16 -18.176958)
(217.51447 1.9740584e-16 -17.561869)
(216.64666 -4.629911e-17 -16.933458)
(215.81659 0 -16.294845)
(215.02516 8.1929744e-17 -15.649187)
(214.27282 -7.6467228e-17 -14.999617)
(213.55957 0 -14.349195)
(212.88498 1.3464453e-16 -13.700859)
(212.24829 -6.2984358e-17 -13.057382)
(211.64837 -1.7659803e-16 -12.421344)
(211.08388 5.5084721e-16 -11.795104)
(210.55322 -2.0624261e-16 -11.180784)
(210.05465 9.6189821e-17 -10.580259)
(209.58633 -2.6971346e-16 -9.9951518)
(209.14632 -1.8381602e-19 -9.4268384)
(208.73266 1.5637613e-16 -8.8764509)
(208.34341 -1.4587796e-16 -8.3448882)
(207.97663 -6.7886262e-17 -7.8328303)
(207.63044 -6.3233827e-17 -7.3407535)
(207.30306 -1.1807092e-16 -6.868949)
(206.99276 2.1925935e-16 -6.4175427)
(206.69793 0 -5.9865151)
(206.41704 9.4745739e-17 -5.5757186)
(206.14863 -3.5254666e-16 -5.1848936)
(205.89132 2.4535417e-16 -4.8136873)
(205.64371 7.5928416e-17 -4.4616462)
(205.40441 1.4105141e-16 -4.1282353)
(205.17205 1.3105449e-16 -3.8128627)
(204.94524 -1.2125646e-16 -3.5148637)
(204.72258 -1.1236102e-16 -3.2335077)
(204.50268 -3.1254676e-16 -2.968003)
(204.28402 -3.9340327e-20 -2.7174958)
(204.06472 -8.931278e-17 -2.4810759)
(203.84235 0 -2.2577476)
(203.614 -2.2958401e-16 -2.0463567)
(203.37652 7.0797676e-17 -1.845701)
(203.12665 0 -1.6549341)
(202.86138 1.2111825e-16 -1.473039)
(202.579 0 -1.2969805)
(202.27646 1.0346882e-16 -1.1262617)
(201.94311 -1.4339915e-16 -0.97488969)
(201.58223 1.3252003e-16 -0.83996789)
(201.24873 -8.1605864e-17 -0.64309095)
(200.91651 7.538362e-17 -0.48179183)
(200.36542 0 -0.91069361)
(220.84862 -4.1168736e-16 -38.648951)
(260.72382 3.6366062e-16 -17.512046)
(241.77643 -3.3318184e-16 -38.180669)
(252.28449 3.3131046e-16 -20.051825)
(244.8337 3.1727031e-16 -35.369651)
(248.05126 -1.8033375e-17 -23.362058)
(245.03378 -2.8408083e-16 -32.123035)
(245.50539 -2.6967806e-16 -26.398712)
(244.1149 2.8703725e-16 -29.754084)
(243.54118 0 -28.090437)
(242.59468 2.8640934e-17 -28.757005)
(241.73417 0 -28.501843)
(240.80765 -1.288214e-16 -28.51456)
(239.85861 2.4323344e-16 -28.435219)
(238.87743 0 -28.351161)
(237.86749 0 -28.241408)
(236.8298 0 -28.107761)
(235.76628 3.917386e-17 -27.947544)
(234.6791 0 -27.75905)
(233.57084 -2.4500596e-16 -27.540477)
(232.44451 3.3010735e-16 -27.290194)
(231.30344 1.2490735e-16 -27.006771)
(230.15138 1.7711281e-16 -26.68899)
(228.99237 -2.7819688e-16 -26.335935)
(227.83075 -5.2424345e-17 -25.947014)
(226.67107 -2.4809779e-16 -25.522006)
(225.51804 1.8672549e-16 -25.061095)
(224.37642 -2.2054204e-16 -24.564901)
(223.25096 8.2514234e-17 -24.034477)
(222.14628 7.801235e-17 -23.471325)
(221.06679 0 -22.877378)
(220.01662 2.7753159e-16 -22.254965)
(218.9995 -2.6065935e-16 -21.606787)
(218.01871 0 -20.935853)
(217.07701 -2.3043255e-16 -20.245436)
(216.17662 2.1583291e-16 -19.538997)
(215.31918 -1.0171311e-16 -18.820119)
(214.50572 1.9042647e-16 -18.092436)
(213.73674 -2.6756394e-16 -17.359567)
(213.01218 1.2771699e-19 -16.625043)
(212.33148 -1.5632747e-16 -15.892258)
(211.69363 -7.3159611e-17 -15.164416)
(211.09727 -1.373099e-16 -14.444486)
(210.54069 2.5596801e-16 -13.735183)
(210.02196 -1.1944579e-16 -13.038937)
(209.53893 0 -12.35789)
(209.08935 -3.8307425e-19 -11.693891)
(208.67089 9.7166247e-17 -11.048499)
(208.28119 0 -10.422997)
(207.91793 8.4512262e-17 -9.8184003)
(207.57879 7.902159e-17 -9.2354766)
(207.26157 -7.3368799e-17 -8.674764)
(206.96414 2.7315322e-16 -8.1365909)
(206.68448 -2.5392716e-16 -7.6210984)
(206.42071 -1.180958e-16 -7.1282617)
(206.17107 -1.0970762e-16 -6.657914)
(205.93392 1.0186534e-16 -6.209766)
(205.70776 1.8895225e-16 -5.7834251)
(205.49118 -3.5048794e-16 -5.3784103)
(205.28286 4.0617876e-16 -4.9941697)
(205.08149 -1.5049606e-16 -4.630068)
(204.88577 1.3949537e-16 -4.2854098)
(204.69444 -1.2912393e-16 -3.9594589)
(204.50618 2.3913249e-16 -3.6514201)
(204.31973 -3.3195302e-16 -3.3604486)
(204.1338 2.0462565e-16 -3.085652)
(203.94699 -8.2767916e-20 -2.8260941)
(203.75758 8.7459374e-17 -2.5807892)
(203.56335 0 -2.3486504)
(203.36154 0 -2.1284595)
(203.14897 0 -1.9191015)
(202.92228 -1.2708556e-16 -1.7198084)
(202.67899 1.9889235e-20 -1.5291229)
(202.4183 0 -1.3438972)
(202.13624 0 -1.165894)
(201.82112 9.1915866e-17 -1.0088033)
(201.48206 -1.6939593e-16 -0.85997113)
(201.17263 0 -0.64978376)
(200.84208 0 -0.50754931)
(200.30325 -1.3186263e-16 -0.93193863)
(220.41291 2.778736e-17 -42.909269)
(260.63633 -7.8735532e-16 -20.664779)
(241.07248 3.4856844e-16 -42.278556)
(251.64906 -2.1777016e-17 -23.497432)
(244.01647 3.7395056e-16 -39.117073)
(247.26464 -3.5265253e-16 -27.04597)
(244.16033 0 -35.64673)
(244.49924 -3.1765928e-16 -30.184143)
(243.05729 2.3352583e-16 -33.205928)
(242.35914 2.2180393e-16 -31.771675)
(241.32674 -2.3942119e-16 -32.256299)
(240.35734 0 -32.033838)
(239.3281 1.9117472e-19 -31.984517)
(238.27257 0 -31.86489)
(237.1848 3.8565966e-16 -31.727802)
(236.06816 -7.2854706e-16 -31.559925)
(234.92464 3.4395181e-16 -31.361242)
(233.75702 -4.0630115e-17 -31.129175)
(232.5685 -3.860836e-17 -30.861841)
(231.36274 3.6694744e-17 -30.557429)
(230.14386 -6.8522641e-17 -30.214403)
(228.91636 -3.2460791e-16 -29.831532)
(227.68514 3.0551252e-16 -29.407956)
(226.45537 5.7592785e-17 -28.943247)
(225.23243 -2.7293707e-16 -28.437436)
(224.02181 -6.9755852e-19 -27.89107)
(222.82902 2.8988286e-16 -27.305211)
(221.65943 -1.819424e-16 -26.681456)
(220.51824 -6.1387289e-19 -26.021913)
(219.41027 0 -25.329183)
(218.33993 0 -24.606311)
(217.3111 -7.1592468e-17 -23.856726)
(216.32705 1.3402919e-16 -23.084185)
(215.39037 0 -22.292679)
(214.50298 -1.1846163e-16 -21.486356)
(213.66608 2.2165507e-16 -20.669437)
(212.88018 -1.0384382e-16 -19.846119)
(212.14514 -1.946035e-16 -19.020506)
(211.4602 9.0433494e-17 -18.196534)