/*--------------------------------*- C++ -*----------------------------------*\
  =========                 |
  \\      /  F ield         | OpenFOAM: The Open Source CFD Toolbox
   \\    /   O peration     | Website:  https://openfoam.org
    \\  /    A nd           | Version:  12
     \\/     M anipulation  |
\*---------------------------------------------------------------------------*/
FoamFile
{
    format      ascii;
    class       volScalarField;
    location    "0.018";
    object      p;
}
// * * * * * * * * * * * * * * * * * * * * * * * * * * * * * * * * * * * * * //

dimensions      [1 -1 -2 0 0 0 0];

internalField   nonuniform List<scalar> 
16000
(
89138.719
89266.762
89278.997
89416.379
89442.384
89573.022
89623.794
89743.509
89818.392
89932.089
90025.934
90139.376
90247.787
90365.616
90485.402
90610.791
90740.373
90874.762
91013.835
91157.682
91306.313
91459.731
91617.917
91780.825
91948.378
92120.472
92296.965
92477.679
92662.394
92850.851
93042.744
93237.724
93435.394
93635.31
93836.984
94039.88
94243.424
94447.001
94649.964
94851.642
95051.344
95248.371
95442.033
95631.661
95816.629
95996.379
96170.449
96338.5
96500.359
96656.053
96805.851
96950.303
97090.274
97226.966
97361.93
97497.063
97634.592
97777.024
97927.076
98087.584
98261.392
98451.232
98659.629
98888.76
99140.266
99414.952
99712.19
100029.55
100362.07
100700.77
101031.38
101331.31
101573.03
101727.57
101777.52
101713.15
101547.58
101464.63
100866.42
101314.03
88717.358
88862.585
88872.023
89021.807
89049.369
89191.284
89244.326
89375.559
89454.196
89578.099
89678.298
89800.65
89917.312
90043.895
90172.806
90307.499
90446.758
90591.076
90740.375
90894.712
91054.083
91218.469
91387.819
91562.053
91741.055
91924.675
92112.723
92304.966
92501.132
92700.9
92903.907
93109.741
93317.946
93528.019
93739.416
93951.551
94163.805
94375.524
94586.035
94794.646
95000.66
95203.383
95402.146
95596.311
95785.301
95968.618
96145.868
96316.797
96481.317
96639.547
96791.847
96938.855
97081.509
97221.071
97359.126
97497.585
97638.666
97784.833
97938.742
98103.146
98280.807
98474.396
98686.392
98918.948
99173.685
99451.435
99751.791
100072.13
100406.79
100745.94
101073.84
101368.93
101601.8
101744.87
101782.63
101706.17
101556.06
101422.24
100894.5
101301.89
88330.181
88491.204
88500.151
88663.6
88690.81
88846.626
88901.076
89044.703
89128.014
89262.38
89370.2
89501.982
89628.037
89764.267
89903.382
90048.476
90198.551
90353.973
90514.682
90680.693
90851.973
91028.46
91210.062
91396.649
91588.055
91784.072
91984.45
92188.895
92397.065
92608.574
92822.985
93039.818
93258.547
93478.602
93699.376
93920.229
94140.493
94359.48
94576.49
94790.824
95001.788
95208.716
95410.977
95607.995
95799.269
95984.392
96163.078
96335.185
96500.745
96659.998
96813.419
96961.747
97106.001
97247.491
97387.824
97528.896
97672.879
97822.163
97979.298
98146.921
98327.677
98524.145
98738.74
98973.592
99230.319
99509.696
99811.215
100132.22
100466.5
100803.63
101125.41
101411.25
101632.2
101760.84
101784.33
101699.48
101555.91
101391.1
100925.44
101302.8
87977.938
88149.967
88159.513
88338.62
88365.206
88537.253
88593.607
88751.555
88840.438
88986.742
89103.614
89246.131
89383.187
89530.539
89681.429
89838.484
90000.914
90168.958
90342.55
90521.659
90706.212
90896.105
91091.194
91291.296
91496.187
91705.592
91919.194
92136.621
92357.455
92581.223
92807.407
93035.442
93264.717
93494.587
93724.373
93953.374
94180.871
94406.141
94628.467
94847.148
95061.513
95270.937
95474.852
95672.768
95864.288
96049.126
96227.131
96398.308
96562.839
96721.113
96873.741
97021.582
97165.745
97307.596
97448.759
97591.111
97736.753
97887.982
98047.214
98216.942
98399.658
98597.802
98813.694
99049.421
99306.611
99586.048
99887.086
100206.7
100538.22
100870.45
101184.75
101458.64
101664.97
101777.75
101786.75
101695.66
101556.03
101375.99
100959.85
101316.24
87660.704
87847.758
87854.12
88052.294
88077.696
88268.639
88327.257
88501.46
88597.238
88756.951
88884.815
89039.484
89189.348
89349.383
89513.612
89684.136
89860.364
90042.434
90230.271
90423.809
90622.935
90827.497
91037.295
91252.083
91471.562
91695.376
91923.118
92154.321
92388.465
92624.976
92863.232
93102.565
93342.268
93581.607
93819.824
94056.154
94289.829
94520.099
94746.239
94967.564
95183.443
95393.317
95596.707
95793.233
95982.632
96164.767
96339.653
96507.467
96668.571
96823.524
96973.098
97118.284
97260.299
97400.581
97540.781
97682.77
97828.573
97980.396
98140.52
98311.276
98494.983
98693.906
98910.222
99145.916
99402.529
99680.75
99979.88
100296.62
100624.01
100946.99
101250.7
101510.08
101697.25
101792.75
101787.68
101692.61
101557.16
101370.63
100998.61
101342.84
87384.471
87589.29
87593.522
87813.143
87837.014
88049.04
88109.654
88302.138
88406.484
88580.993
88721.722
88889.584
89053.608
89227.484
89406.233
89591.461
89782.76
89980.188
90183.654
90393.042
90608.181
90828.849
91054.766
91285.59
91520.921
91760.292
92003.177
92248.985
92497.069
92746.73
92997.22
93247.754
93497.517
93745.678
93991.402
94233.861
94472.254
94705.816
94933.836
95155.671
95370.759
95578.633
95778.935
95971.427
96156.008
96332.72
96501.767
96663.524
96818.553
96967.601
97111.609
97251.713
97389.253
97525.755
97662.906
97802.576
97946.745
98097.527
98257.083
98427.574
98611.138
98809.85
99025.705
99260.51
99515.613
99791.581
100087.67
100399.91
100719.61
101031.5
101320.85
101563.43
101728.92
101804.91
101786.44
101689.59
101558.3
101368.96
101042.74
101380.47
87154.518
87380.467
87381.521
87626.037
87648.041
87884.186
87948.448
88161.301
88274.849
88463.748
88618.258
88799.752
88979.04
89168.022
89362.753
89564.345
89772.489
89987.147
90208.16
90435.328
90668.387
90907.005
91150.785
91399.258
91651.885
91908.057
92167.094
92428.257
92690.744
92953.709
93216.263
93477.494
93736.475
93992.284
94244.018
94490.809
94731.842
94966.371
95193.732
95413.359
95624.798
95827.716
96021.911
96207.326
96384.05
96552.335
96712.595
96865.423
97011.588
97152.033
97287.871
97420.391
97551.062
97681.497
97813.433
97948.733
98089.37
98237.365
98394.775
98563.607
98745.813
98943.273
99157.758
99390.823
99643.612
99916.556
100208.7
100514.71
100823.32
101123.74
101395.5
101614.01
101757.09
101812.83
101781.77
101685.09
101561.25
101371.86
101091.61
101427.03
86966.343
87217.395
87213.969
87488.66
87508.235
87773.36
87840.272
88072.348
88196.937
88401.334
88572.432
88769.772
88966.947
89173.718
89387.106
89607.783
89835.467
90070.005
90311.147
90558.573
90811.893
91070.634
91334.247
91602.098
91873.476
92147.591
92423.586
92700.537
92977.472
93253.38
93527.226
93797.972
94064.591
94326.089
94581.524
94830.021
95070.796
95303.165
95526.565
95740.558
95944.848
96139.286
96323.873
96498.768
96664.29
96820.919
96969.3
97110.247
97244.742
97373.917
97499.047
97621.593
97743.115
97865.309
97989.961
98118.944
98254.212
98397.717
98551.414
98717.181
98896.791
99091.92
99304.075
99534.547
99784.302
100053.36
100340.18
100636.39
100933.45
101218.98
101470.96
101663.25
101780.74
101815.93
101773.54
101679.83
101565.69
101376.95
101141.95
101479.23
86815.085
87094.893
87086.51
87399.996
87414.225
87708.019
87779.001
88033.195
88174.423
88397.377
88589.256
88805.813
89024.33
89252.342
89487.711
89730.754
89981.159
90238.645
90502.829
90773.243
91049.326
91330.427
91615.798
91904.598
92195.904
92488.71
92781.945
93074.482
93365.162
93652.806
93936.242
94214.325
94485.957
94750.115
95005.865
95252.387
95488.988
95715.118
95930.378
96134.531
96327.501
96509.377
96680.414
96841.026
96991.787
97133.424
97266.819
97393.003
97513.157
97628.6
97740.737
97851.175
97961.547
98073.623
98189.21
98310.203
98438.511
98576.038
98724.639
98886.075
99061.96
99253.75
99462.691
99689.836
99935.788
100199.91
100479.19
100765.85
101050.76
101317.47
101543.29
101708.96
101800.37
101815.35
101763.58
101675.58
101567.11
101380.78
101190.53
101534.07
86704.075
87017.471
87006.011
87357.308
87368.46
87694.299
87777.627
88057.252
88219.101
88462.959
88679.593
88918.889
89162.316
89415.271
89676.224
89945.182
90221.727
90505.411
90795.668
91091.826
91393.103
91698.607
92007.338
92318.197
92630
92941.488
93251.35
93558.247
93860.83
94157.772
94447.794
94729.686
95002.341
95264.773
95516.141
95755.763
95983.131
96197.916
96399.973
96589.341
96766.234
96931.036
97084.295
97226.708
97359.118
97482.504
97597.973
97706.757
97810.204
97909.78
98007.047
98103.641
98201.302
98301.797
98406.974
98518.695
98638.839
98769.246
98911.69
99067.808
99239.059
99426.703
99631.754
99854.95
100096.34
100355.23
100625.33
100902.13
101171.44
101415.26
101615.13
101752.63
101818.63
101815
101756.44
101674.72
101565.68
101384.58
101239.77
101590.32
86638.873
86992.566
86977.398
87369.55
87384.009
87747.251
87845.901
88153.171
88341.317
88609.141
88855
89121.252
89393.619
89675.632
89966.127
90264.826
90571.135
90884.377
91203.733
91528.254
91856.858
92188.339
92521.377
92854.559
93186.397
93515.354
93839.873
94158.406
94469.449
94771.572
95063.454
95343.911
95611.922
95866.653
96107.473
96333.959
96545.903
96743.304
96926.365
97095.473
97251.192
97394.24
97525.479
97645.896
97756.594
97858.781
97953.764
98042.94
98127.792
98209.883
98290.854
98372.4
98456.264
98544.233
98638.127
98739.775
98851.002
98973.576
99109.189
99259.356
99425.389
99608.376
99809.092
100027.82
100264.64
100515.86
100778.84
101042.02
101292.43
101513.44
101686.18
101796.47
101839.5
101820.94
101758.9
101682.24
101570.67
101396.27
101300.34
101652.66
86629.301
87030.888
87011.138
87452.04
87472.853
87876.785
87995.713
88332.876
88553.529
88848.947
89128.694
89426.686
89732.486
90048.105
90372.502
90705.08
91044.967
91391.155
91742.468
92097.57
92454.988
92813.119
93170.262
93524.642
93874.446
94217.857
94553.096
94878.458
95192.36
95493.373
95780.262
96052.011
96307.845
96547.241
96769.932
96975.897
97165.351
97338.722
97496.633
97639.877
97769.389
97886.229
97991.561
98086.636
98172.78
98251.387
98323.913
98391.871
98456.827
98520.398
98584.246
98650.07
98719.6
98794.589
98876.81
98968.039
99070.032
99184.477
99312.939
99456.874
99617.434
99795.545
99991.7
100205.65
100436.86
100681.82
100933.66
101182.38
101413.31
101609.82
101755.91
101841.78
101866.69
101838.91
101777.61
101705.86
101594.77
101428.88
101386.45
101732.79
86680.533
87139.479
87116.13
87613.354
87642.619
88091.173
88237.951
88607.528
88867.914
89195.862
89514.841
89850.289
90194.856
90549.33
90912.54
91283.462
91660.794
92043.057
92428.585
92815.551
93201.993
93585.849
93964.989
94337.264
94700.55
95052.802
95392.106
95716.731
96025.174
96316.2
96588.87
96842.549
97076.918
97291.953
97487.915
97665.316
97824.889
97967.554
98094.385
98206.578
98305.424
98392.284
98468.572
98535.743
98595.284
98648.71
98697.563
98743.41
98787.842
98832.475
98878.946
98928.911
98984.047
99046.048
99116.619
99197.466
99290.275
99396.646
99517.897
99655.479
99810.543
99983.696
100174.96
100384.15
100609.44
100845.88
101085.73
101317.52
101526.78
101698.2
101819.79
101886.18
101899.89
101870.24
101814.86
101750.56
101646.89
101499.06
101508.7
101839.42
86796.83
87323.901
87297.576
87858.723
87903.076
88400.377
88584.844
88990.493
89298.817
89666.028
90030.692
90410.474
90800.137
91199.388
91606.637
92020.26
92438.355
92858.826
93279.395
93697.644
94111.056
94517.062
94913.108
95296.714
95665.549
96017.499
96350.729
96663.735
96955.382
97224.917
97471.976
97696.563
97899.024
98080.009
98240.421
98381.378
98504.159
98610.167
98700.89
98777.868
98842.67
98896.876
98942.068
98979.818
99011.691
99039.249
99064.047
99087.642
99111.594
99137.465
99166.824
99201.249
99242.331
99291.679
99350.916
99421.654
99505.486
99603.897
99718.157
99849.414
99998.816
100166.85
100352.73
100556.27
100773.81
100999.74
101224.71
101436.48
101621.54
101767.83
101867.85
101920.48
101930.73
101907.42
101864.17
101812.23
101724.95
101612.51
101670.51
101963.62
86985.709
87594.254
87566.826
88200.696
88268.017
88818.315
89052.192
89499.425
89865.073
90280.473
90698.735
91130.809
91572.527
92022.519
92478.514
92938.116
93398.662
93857.303
94311.035
94756.764
95191.381
95611.85
96015.303
96399.132
96761.085
97099.325
97412.486
97699.69
97960.546
98195.128
98403.926
98587.797
98747.896
98885.619
99002.535
99100.336
99180.783
99245.668
99296.784
99335.9
99364.748
99385.016
99398.342
99406.323
99410.515
99412.445
99413.62
99415.525
99419.638
99427.424
99440.349
99459.885
99487.519
99524.758
99573.118
99634.103
99709.142
99799.625
99906.954
100031.89
100175.1
100336.75
100516.37
100712.14
100919.41
101130.85
101336.18
101523.47
101681.46
101802.33
101883.3
101927.32
101941.22
101931.94
101907.19
101873.24
101813.89
101748.44
101840.86
102070.96
87254.289
87960.233
87934.979
88651.438
88753.296
89362.657
89661.154
90158.982
90592.984
91067.421
91548.112
92040.549
92540.763
93046.268
93553.891
94060.266
94561.781
95054.666
95535.091
95999.29
96443.689
96865.043
97260.558
97627.987
97965.69
98272.664
98548.526
98793.48
99008.248
99193.99
99352.222
99484.723
99593.456
99680.497
99747.971
99798.003
99832.68
99854.023
99863.975
99864.385
99857.011
99843.525
99825.519
99804.518
99781.995
99759.375
99738.056
99719.409
99704.785
99695.526
99692.97
99698.468
99713.388
99739.12
99777.066
99828.609
99895.07
99977.65
100077.4
100195.22
100331.55
100485.45
100656.38
100840.75
101032.71
101223.57
101402.82
101560.01
101687.35
101781.71
101845.06
101883.96
101906.13
101915.79
101914.74
101903.95
101875.79
101867.27
101966.73
102105.67
87610.088
88432.595
88415.362
89229.754
89384.068
90062.999
90443.968
91003.912
91517.514
92062.011
92613.416
93173.013
93736.298
94299.446
94858.021
95407.381
95942.736
96459.334
96952.659
97418.619
97853.719
98255.194
98621.087
98950.278
99242.456
99498.052
99718.143
99904.334
100058.64
100183.36
100281
100354.12
100405.32
100437.15
100452.07
100452.41
100440.39
100418.05
100387.32
100349.98
100307.69
100261.98
100214.33
100166.1
100118.63
100073.18
100031.02
99993.353
99961.392
99936.334
99919.382
99911.755
99914.696
99929.467
99957.334
99999.537
100057.24
100131.49
100223.11
100332.63
100459.94
100603.88
100762.11
100929.87
101099.81
101262.25
101407.82
101528.78
101621.65
101688.11
101734.36
101769.38
101800.56
101828.85
101851.52
101869.85
101874.21
101880.91
101970.31
101996.28
88073.119
89039.176
89042.125
89974.973
90200.356
90959.952
91441.497
92075.473
92678.895
93303.704
93932.834
94564.03
95191.334
95809.03
96410.986
96991.107
97543.581
98063.172
98545.462
98987.033
99385.566
99739.858
100049.77
100316.11
100540.5
100725.18
100872.86
100986.56
101069.45
101124.78
101155.72
101165.35
101156.58
101132.14
101094.54
101046.09
100988.9
100924.89
100855.79
100783.21
100708.58
100633.27
100558.51
100485.51
100415.4
100349.28
100288.22
100233.29
100185.52
100145.97
100115.71
100095.82
100087.43
100091.64
100109.58
100142.32
100190.85
100255.99
100338.31
100437.86
100553.81
100683.99
100824.42
100968.81
101108.58
101234.64
101339.38
101419.01
101474.98
101513.36
101543.2
101574.04
101611.37
101652.45
101690.26
101724.79
101755.12
101765.01
101801.86
101645.06
88678.601
89827.59
89861.23
90931.15
91246.969
92096.051
92697.83
93420.151
94123.611
94837.835
95548.647
96250.095
96933.873
97592.06
98217.027
98801.966
99341.227
99830.566
100267.26
100650.1
100979.29
101256.25
101483.4
101663.91
101801.45
101899.99
101963.63
101996.43
102002.32
101985
101947.95
101894.32
101827.01
101748.6
101661.41
101567.52
101468.76
101366.76
101263.01
101158.8
101055.33
100953.7
100854.93
100760.01
100669.85
100585.38
100507.49
100437.07
100375.01
100322.22
100279.66
100248.27
100229.03
100222.93
100230.91
100253.87
100292.59
100347.65
100419.21
100506.67
100608.18
100720.15
100836.83
100950.81
101052.42
101134.93
101194.5
101231.34
101251.66
101264.8
101280.84
101307.51
101346.17
101389.23
101425.81
101454.81
101476.88
101452
101330.09
101062.68
89456.503
90825.464
90904.081
92134.364
92574.618
93525.584
94270.196
95098.313
95909.77
96715.814
97501.529
98257.19
98972.404
99638.204
100247.26
100794.29
101276.12
101691.7
102041.85
102328.97
102556.66
102729.43
102852.26
102930.43
102969.21
102973.72
102948.8
102898.94
102828.24
102740.37
102638.63
102525.91
102404.76
102277.39
102145.76
102011.53
101876.19
101741
101607.11
101475.51
101347.13
101222.8
101103.3
100989.41
100881.84
100781.33
100688.59
100604.38
100529.43
100464.55
100410.55
100368.27
100338.56
100322.26
100320.14
100332.91
100361.14
100405.07
100464.29
100537.31
100620.92
100709.92
100797.08
100873.39
100932.18
100968.99
100983
100980.37
100971.07
100966.08
100973.94
100997.96
101033.25
101066.3
101081.67
101074.21
101040.23
100936.16
100693.36
100377.64
90437.763
92081.393
92244.269
93651.205
94264.364
95334.036
96239.392
97184.221
98097.716
98977.545
99807.081
100574.74
101270.8
101888.62
102424.63
102878.18
103251.16
103547.49
103772.59
103932.8
104035.01
104086.18
104093.13
104062.32
103999.71
103910.7
103800.12
103672.21
103530.7
103378.8
103219.26
103054.46
102886.42
102716.84
102547.18
102378.69
102212.42
102049.28
101890.06
101735.48
101586.17
101442.72
101305.71
101175.67
101053.17
100938.76
100833.02
100736.53
100649.95
100573.96
100509.28
100456.63
100416.73
100390.3
100377.94
100380.2
100397.37
100429.24
100474.63
100530.84
100593.15
100654.77
100707.55
100743.66
100758.17
100750.02
100724.47
100691.82
100664.34
100652.06
100659.33
100682.87
100710.56
100722.89
100700.25
100634.68
100523.17
100333.48
100028.44
99736.016
91709.251
93700.045
93994.07
95598.858
96434.072
97631.347
98691.929
99737.074
100713.71
101612.65
102419.48
103126.02
103728.31
104226.6
104624.58
104928.57
105146.64
105287.88
105361.72
105377.47
105343.93
105269.22
105160.66
105024.72
104867.04
104692.47
104505.16
104308.63
104105.84
103899.25
103690.94
103482.61
103275.68
103071.32
102870.49
102674
102482.52
102296.6
102116.74
101943.36
101776.86
101617.62
101466.02
101322.41
101187.2
101060.8
100943.64
100836.24
100739.12
100652.9
100578.2
100515.65
100465.87
100429.45
100406.89
100398.53
100404.33
100423.47
100453.78
100491.2
100529.56
100561
100577.4
100572.7
100545.43
100500
100446.33
100397.77
100366.52
100358.93
100372.92
100397.3
100413.12
100396.41
100325.97
100195.41
100012.37
99775.215
99484.754
99272.174
93407.154
95826.478
96309.255
98109.583
99202.395
100511.35
101671.94
102747.62
103699.26
104520.17
105205.8
105758.2
106184.02
106493.35
106698.33
106812.01
106847.42
106817
106732.14
106603.06
106438.66
106246.63
106033.49
105804.71
105564.84
105317.66
105066.26
104813.16
104560.41
104309.67
104062.27
103819.26
103581.49
103349.63
103124.2
102905.62
102694.21
102490.24
102293.95
102105.52
101925.16
101753.05
101589.41
101434.46
101288.46
101151.7
101024.54
100907.38
100800.71
100705.06
100620.98
100549.04
100489.79
100443.72
100411.24
100392.47
100386.94
100393.04
100407.44
100424.68
100437.47
100437.68
100418.34
100376.46
100315.23
100244.15
100177.07
100128.34
100107.21
100114.1
100139.07
100163.38
100163.17
100113.46
99996.2
99812.997
99590.002
99359.643
99149.926
99048.169
95726.997
98624.734
99360.134
101304.27
102614.22
103972.17
105111.47
106085.07
106879.28
107499.74
107957.66
108269.18
108452.72
108527.22
108510.89
108420.44
108270.64
108074.26
107842.12
107583.21
107304.94
107013.37
106713.37
106408.89
106103.04
105798.31
105496.65
105199.59
104908.3
104623.67
104346.39
104076.95
103815.71
103562.91
103318.72
103083.24
102856.52
102638.6
102429.49
102229.22
102037.8
101855.31
101681.8
101517.38
101362.22
101216.52
101080.56
100954.7
100839.39
100735.09
100642.33
100561.61
100493.46
100438.32
100396.52
100367.91
100351.47
100344.64
100342.83
100339.39
100326.46
100296.56
100245.1
100173.12
100088.75
100005.76
99940.207
99905.047
99904.29
99930.762
99966.636
99987.638
99968.322
99887.501
99735.42
99526.657
99307.507
99135.179
99042.299
99047.281
98927.457
102210.71
103258.63
105272.93
106623.4
107828.55
108775.28
109488.39
109986.06
110295.57
110445.65
110464.58
110378.22
110209.23
109976.8
109696.85
109382.31
109043.55
108688.81
108324.58
107955.9
107586.7
107220
106858.09
106502.7
106155.13
105816.3
105486.88
105167.33
104857.91
104558.79
104270.02
103991.57
103723.38
103465.32
103217.26
102979.06
102750.56
102531.62
102322.13
102122
101931.14
101749.55
101577.25
101414.3
101260.87
101117.2
100983.63
100860.54
100748.41
100647.72
100558.97
100482.69
100419.31
100369.05
100331.45
100304.82
100285.56
100267.89
100244.3
100207.06
100150.3
100072.66
99979.778
99884.201
99802.284
99750.28
99737.956
99762.282
99808.195
99851.636
99865.37
99826.706
99722.438
99554.461
99351.119
99174.049
99092.953
99126.576
99220.97
103262.49
106765.41
108020.75
109762.64
110924.41
111781.4
112333
112635.15
112733.73
112673.05
112490.61
112217.59
111878.95
111494.33
111078.93
110644.4
110199.55
109751.01
109303.72
108861.32
108426.5
108001.16
107586.64
107183.87
106793.43
106415.64
106050.67
105698.53
105359.1
105032.23
104717.69
104415.19
104124.46
103845.19
103577.06
103319.76
103073
102836.51
102610.02
102393.32
102186.22
101988.57
101800.29
101621.31
101451.69
101291.53
101141.07
101000.62
100870.57
100751.39
100643.55
100547.59
100464.05
100393.38
100335.64
100290
100254.05
100223.2
100190.73
100148.75
100090.24
100011.5
99914.734
99810.106
99713.788
99642.771
99611.595
99625.734
99674.431
99736.201
99782.533
99786.843
99732.663
99616.932
99453.712
99282.301
99171.143
99189.346
99335.834
99496.889
108658.2
112120.86
113277.16
114438.21
115069.68
115363.27
115385.49
115211.69
114897.49
114486.53
114011.25
113495.58
112956.9
112407.69
111856.86
111310.7
110773.59
110248.52
109737.49
109241.79
108762.15
108298.95
107852.3
107422.08
107008.08
106609.95
106227.31
105859.72
105506.7
105167.79
104842.48
104530.31
104230.79
103943.47
103667.9
103403.65
103150.34
102907.59
102675.08
102452.52
102239.65
102036.27
101842.23
101657.46
101481.96
101315.84
101159.31
101012.7
100876.39
100750.85
100636.59
100534.17
100444.19
100367.07
100302.74
100249.94
100205.63
100164.46
100119.12
100061.68
99985.999
99890.613
99781.4
99672.728
99583.25
99528.135
99519.617
99558.28
99627.166
99699.828
99745.606
99741.464
99678.658
99564.07
99421.905
99297.907
99259.833
99368.487
99602.029
99808.926
115065.36
117644.79
118277.01
118567.64
118472.04
118134.53
117636.76
117040.99
116388.95
115708.96
115019.82
114333.89
113659.21
113000.87
112362
111744.39
111148.92
110575.9
110025.2
109496.47
108989.14
108502.59
108036.09
107588.9
107160.26
106749.44
106355.7
105978.31
105616.59
105269.86
104937.49
104618.86
104313.38
104020.5
103739.7
103470.48
103212.39
102965
102727.93
102500.86
102283.48
102075.55
101876.91
101687.43
101507.12
101336.07
101174.49
101022.7
100881.1
100750.14
100630.36
100522.37
100426.79
100344.08
100274.01
100215.06
100163.71
100114.12
100058.75
99990.021
99902.798
99797.362
99681.768
99572.516
99491.04
99453.257
99464.174
99521.33
99605.831
99684.554
99728.698
99719.916
99656.929
99552.806
99438.519
99363.367
99391.321
99570.974
99865.176
100103.16
121878.1
122331.02
122108.78
121545.78
120794.94
119948.51
119064.11
118174.37
117298.36
116446.59
115624.67
114835.23
114079.13
113356.19
112665.63
112006.31
111376.93
110776.12
110202.49
109654.69
109131.4
108631.38
108153.44
107696.46
107259.4
106841.24
106441.08
106058.02
105691.24
105339.97
105003.47
104681.06
104372.08
104075.92
103792
103519.8
103258.81
103008.59
102768.7
102538.8
102318.55
102107.68
101905.98
101713.32
101529.67
101355.11
101189.84
101034.16
100888.44
100753.15
100628.83
100516.16
100415.84
100328.38
100253.65
100190.08
100133.96
100079.13
100017.94
99943.155
99849.627
99739.666
99622.11
99512.927
99434.632
99408.763
99433.344
99501.376
99595.329
99678.964
99724.293
99715.537
99657.042
99567.213
99476.417
99438.38
99515.246
99742.439
100074.56
100333.06
125854.97
125213.92
124275.28
123195.51
122081.99
120979.85
119912.41
118889.24
117913.9
116986.68
116106.28
115270.63
114477.33
113723.91
113007.92
112327.04
111679.08
111062.03
110473.98
109913.22
109378.15
108867.29
108379.3
107912.9
107466.94
107040.36
106632.14
106241.35
105867.13
105508.66
105165.18
104835.97
104520.35
104217.71
103927.43
103648.97
103381.81
103125.48
102879.54
102643.61
102417.34
102200.44
101992.67
101793.89
101604.05
101423.22
101251.58
101089.43
100937.18
100795.3
100664.41
100545.28
100438.75
100345.55
100265.75
100197.91
100138.2
100080.1
100015.42
99936.781
99839.707
99723.739
99602.809
99486.429
99405.378
99382.124
99410.646
99482.945
99582.739
99672.748
99723.176
99717.861
99661.283
99578.853
99501.504
99481.866
99583.529
99836.402
100189.5
100460.6
104922.71
104896.17
104948.39
104999.75
105038.52
105050.64
105034.52
105005.67
104970.51
104926.56
104869.48
104798.81
104717.98
104632.05
104542.25
104448.67
104351.61
104251.57
104148.99
104044.29
103937.85
103830.04
103721.19
103611.62
103501.61
103391.42
103281.32
103171.52
103062.23
102953.66
102845.99
102739.39
102634.03
102530.06
102427.63
102326.87
102227.92
102130.9
102035.94
101943.15
101852.64
101764.53
101678.92
101595.92
101515.63
101438.16
101363.6
101292.08
101223.7
101158.57
101096.81
101038.56
100983.91
100932.98
100885.84
100842.52
100802.98
100767.1
100734.64
100705.26
100678.56
100654.2
100632.21
100613.27
100599.43
100594.34
100603.97
100635.53
100697.58
100796.56
100935.18
101114.64
101312.6
101534.8
101683.97
101835.57
101714.14
101779.13
101111.9
101537.72
104287.31
104281.12
104296.17
104312.87
104311.39
104303.74
104292.43
104274.31
104244.46
104208.8
104165.92
104117.77
104063.63
104004.63
103940.8
103872.84
103800.99
103725.61
103647.02
103565.54
103481.47
103395.12
103306.77
103216.7
103125.2
103032.53
102938.96
102844.72
102750.07
102655.24
102560.45
102465.93
102371.88
102278.5
102185.98
102094.52
102004.28
101915.44
101828.16
101742.61
101658.93
101577.27
101497.78
101420.59
101345.85
101273.68
101204.22
101137.6
101073.95
101013.42
100956.13
100902.22
100851.81
100805
100761.86
100722.42
100686.6
100654.27
100625.15
100598.9
100575.14
100553.62
100534.51
100518.81
100508.92
100508.98
100525.29
100565.33
100637.45
100747.82
100898.24
101089.38
101298.54
101527.33
101682.37
101834.83
101717.29
101775.03
101112.35
101534.87
103871.8
103855.36
103824.21
103791.1
103759.44
103730.01
103695.68
103662.36
103625.21
103587.77
103546.28
103503.53
103457.17
103408.74
103357.24
103303.21
103246.46
103187.15
103125.31
103061.05
102994.5
102925.77
102855.01
102782.38
102708.04
102632.17
102554.95
102476.58
102397.24
102317.15
102236.49
102155.47
102074.31
101993.19
101912.33
101831.92
101752.16
101673.24
101595.36
101518.71
101443.46
101369.79
101297.89
101227.91
101160.03
101094.42
101031.22
100970.61
100912.74
100857.77
100805.87
100757.17
100711.81
100669.88
100631.47
100596.56
100565.09
100536.87
100511.62
100488.98
100468.62
100450.39
100434.64
100422.69
100417.36
100423.22
100446.91
100496.06
100578.76
100700.8
100863.59
101065.82
101284.72
101520.75
101680.65
101836.19
101715.81
101771.1
101111.69
101531.23
103251.43
103227.37
103196.61
103162.6
103129.14
103099.59
103065.22
103034.18
102998.69
102965.48
102928.55
102892.55
102853.66
102814.46
102773.1
102730.44
102685.96
102639.81
102591.86
102542.1
102490.52
102437.14
102381.96
102325.05
102266.47
102206.29
102144.63
102081.59
102017.3
101951.91
101885.57
101818.45
101750.72
101682.56
101614.16
101545.71
101477.41
101409.44
101342.02
101275.34
101209.6
101145.01
101081.75
101020.02
100960.02
100901.93
100845.95
100792.25
100741.04
100692.49
100646.78
100604.07
100564.5
100528.17
100495.14
100465.41
100438.87
100415.32
100394.44
100375.9
100359.4
100344.91
100333
100325.34
100325.16
100337.49
100369.25
100428.12
100521.86
100655.79
100830.56
101044
101272.59
101515.42
101679.48
101840.61
101714.99
101767.15
101109.66
101526.91
102488.3
102471.31
102454.74
102435.04
102413.41
102396.52
102373.11
102354.59
102330.15
102309.36
102283.73
102260.1
102233.06
102206.57
102177.87
102148.33
102117.12
102084.53
102050.38
102014.64
101977.27
101938.26
101897.59
101855.28
101811.33
101765.79
101718.72
101670.17
101620.23
101568.99
101516.57
101463.09
101408.69
101353.52
101297.74
101241.51
101185.03
101128.47
101072.04
101015.92
100960.34
100905.49
100851.58
100798.83
100747.43
100697.62
100649.59
100603.55
100559.74
100518.33
100479.53
100443.51
100410.42
100380.35
100353.35
100329.4
100308.36
100290.01
100274.01
100260.02
100247.82
100237.52
100229.94
100227.1
100232.68
100252.13
100292.62
100361.8
100466.99
100612.98
100799.73
101023.79
101261.8
101511.05
101678.95
101840.23
101712.97
101762.84
101106.56
101521.9
101736.39
101729.6
101725.23
101719.52
101709.5
101705.21
101692.83
101686.98
101673.61
101665.27
101650.75
101639.28
101623.6
101609.17
101592.27
101574.86
101555.73
101535.4
101513.63
101490.42
101465.77
101439.61
101411.94
101382.75
101352.03
101319.78
101286.02
101250.79
101214.13
101176.1
101136.77
101096.23
101054.58
101011.94
100968.45
100924.24
100879.48
100834.34
100789
100743.64
100698.48
100653.71
100609.55
100566.22
100523.93
100482.92
100443.41
100405.63
100369.81
100336.18
100304.92
100276.23
100250.24
100227.05
100206.68
100189.09
100174.09
100161.43
100150.77
100141.78
100134.31
100128.62
100125.85
100128.38
100140.33
100167.55
100217.4
100297.43
100414.46
100572.64
100770.98
101005.63
101252.36
101507.7
101677.68
101838.25
101710.4
101757.86
101102.5
101516.19
101055.5
101054.98
101056.08
101058.96
101056.22
101060.81
101055.81
101059.22
101053.51
101054.54
101048.63
101047.4
101041.1
101036.15
101028.43
101020.75
101011.52
101001.41
100990.1
100977.6
100963.87
100948.84
100932.48
100914.76
100895.66
100875.16
100853.25
100829.93
100805.23
100779.18
100751.82
100723.2
100693.41
100662.52
100630.65
100597.92
100564.46
100530.41
100495.96
100461.26
100426.52
100391.91
100357.67
100323.99
100291.11
100259.27
100228.7
100199.64
100172.34
100147
100123.85
100103.06
100084.75
100069.01
100055.84
100045.12
100036.67
100030.17
100025.27
100021.67
100019.31
100018.67
100021.17
100029.6
100048.52
100084.14
100143.95
100235.32
100364.53
100534.92
100744.76
100989.58
101244.57
101505.4
101674.64
101839.71
101707.45
101752.24
101097.61
101509.85
100440.4
100445.1
100449.25
100457.31
100458.26
100468.66
100467.83
100477.43
100476.54
100484.21