/*--------------------------------*- C++ -*----------------------------------*\
  =========                 |
  \\      /  F ield         | OpenFOAM: The Open Source CFD Toolbox
   \\    /   O peration     | Website:  https://openfoam.org
    \\  /    A nd           | Version:  12
     \\/     M anipulation  |
\*---------------------------------------------------------------------------*/
FoamFile
{
    format      ascii;
    class       volScalarField;
    location    "0.018";
    object      T;
}
// * * * * * * * * * * * * * * * * * * * * * * * * * * * * * * * * * * * * * //

dimensions      [0 0 0 1 0 0 0];

internalField   nonuniform List<scalar> 
16000
(
295.33225
286.33213
289.79192
287.89757
289.0631
288.52657
288.96631
288.85016
289.05236
289.08679
289.21057
289.29707
289.40438
289.5089
289.61931
289.73299
289.85078
289.97261
290.09857
290.22876
290.3632
290.50192
290.64491
290.79215
290.94355
291.09902
291.25842
291.42157
291.58824
291.75818
291.93107
292.10656
292.28423
292.46362
292.64423
292.8255
293.00684
293.18763
293.36722
293.54491
293.72001
293.89182
294.0596
294.22265
294.38025
294.53169
294.67634
294.81367
294.94318
295.06433
295.17651
295.27915
295.37203
295.4552
295.52857
295.59142
295.64209
295.67812
295.69665
295.69437
295.66704
295.609
295.51312
295.37234
295.18272
294.94752
294.6816
294.41571
294.19936
294.09617
294.16548
294.42721
294.88455
295.65093
296.75472
297.95047
298.97342
299.49755
299.18223
298.93104
294.96836
285.87748
289.46046
287.4898
288.72205
288.14859
288.6226
288.49724
288.71324
288.75325
288.88361
288.97899
289.09326
289.20648
289.32512
289.4476
289.57431
289.70531
289.84063
289.98036
290.12449
290.27303
290.42595
290.58317
290.74459
290.91007
291.07942
291.25241
291.42878
291.60819
291.79029
291.97467
292.16085
292.34833
292.53653
292.72486
292.91268
293.0993
293.28403
293.46615
293.64492
293.81959
293.98943
294.15371
294.31169
294.46266
294.60593
294.74097
294.86733
294.98452
295.09188
295.18857
295.27396
295.34791
295.41049
295.46093
295.497
295.51575
295.51451
295.4902
295.43881
295.35555
295.23493
295.07261
294.8686
294.6308
294.37919
294.14859
293.98877
293.958
294.10267
294.4297
294.96039
295.80666
296.9138
298.09023
299.08104
299.52401
299.20301
298.83232
294.61906
285.45372
289.16056
287.12455
288.39629
287.81281
288.29969
288.18199
288.4023
288.45398
288.58942
288.69512
288.81718
288.93987
289.06776
289.19994
289.33657
289.47774
289.62344
289.77373
289.92855
290.08791
290.25169
290.41981
290.59208
290.76832
290.94828
291.13167
291.31816
291.50737
291.69884
291.89212
292.08665
292.28186
292.47712
292.67177
292.86511
293.05642
293.24494
293.42993
293.6106
293.7862
293.95599
294.11922
294.27518
294.42313
294.56238
294.69236
294.81266
294.92292
295.02255
295.11053
295.1857
295.24742
295.29582
295.3303
295.34817
295.34632
295.32246
295.27372
295.1964
295.0867
294.9413
294.75915
294.54448
294.31004
294.08075
293.89513
293.80207
293.85131
294.07216
294.46892
295.08418
295.99681
297.09648
298.25022
299.1919
299.56186
299.21115
298.71326
294.29318
285.05884
288.88262
286.79249
288.10093
287.50833
288.00794
287.89974
288.12462
288.18947
288.33086
288.44801
288.5791
288.71236
288.85074
288.9938
289.14155
289.29406
289.45128
289.61322
289.77978
289.95092
290.12647
290.30629
290.49013
290.67776
290.86883
291.06301
291.25985
291.45892
291.65967
291.86156
292.06396
292.26622
292.46764
292.6675
292.86503
293.05946
293.25
293.43587
293.61627
293.79045
293.95765
294.11716
294.26827
294.4103
294.54254
294.66441
294.77548
294.87551
294.96413
295.04036
295.1026
295.14953
295.18099
295.19656
295.19367
295.16961
295.12236
295.04927
294.94729
294.81401
294.64856
294.45336
294.23667
294.0156
293.81884
293.68641
293.66347
293.79062
294.08047
294.54586
295.24022
296.18709
297.27285
298.39868
299.29266
299.60598
299.21069
298.63725
293.98813
284.69697
288.61334
286.50782
287.84229
287.24194
287.74964
287.65659
287.88427
287.96505
288.11321
288.24316
288.38472
288.52979
288.67998
288.83518
288.99527
289.16032
289.3302
289.50491
289.68429
289.86823
290.0565
290.2489
290.4451
290.64478
290.84752
291.05288
291.26032
291.4693
291.67919
291.88933
292.09902
292.3075
292.51401
292.71774
292.91789
293.11362
293.30412
293.48859
293.66623
293.83629
293.99804
294.15081
294.29393
294.42676
294.54864
294.65898
294.75734
294.84351
294.91734
294.97809
295.02411
295.05346
295.06522
295.05887
295.03281
294.98525
294.91406
294.81694
294.69203
294.53864
294.3585
294.15735
293.94716
293.74877
293.5935
293.52072
293.57143
293.76947
294.12639
294.66266
295.42103
296.37696
297.44851
298.54126
299.38757
299.65337
299.20624
298.57873
293.70644
284.37531
288.38131
286.25024
287.61376
287.02036
287.53276
287.45942
287.68852
287.78715
287.94321
288.08693
288.24028
288.3982
288.56136
288.72982
288.90341
289.08214
289.26586
289.45449
289.64781
289.84563
290.04766
290.25357
290.46295
290.67538
290.8903
291.10716
291.32532
291.54409
291.76274
291.98049
292.19653
292.41004
292.62014
292.82599
293.02671
293.22146
293.40939
293.58971
293.76165
293.92447
294.07751
294.22013
294.35175
294.4718
294.57971
294.67491
294.75693
294.82556
294.88074
294.92206
294.94813
294.95691
294.94644
294.9159
294.86524
294.79363
294.69868
294.57896
294.43414
294.26555
294.07748
293.87865
293.68426
293.51803
293.41219
293.40275
293.52505
293.79035
294.21156
294.81433
295.61371
296.56311
297.61724
298.67301
299.46973
299.69412
299.2007
298.53251
293.45376
284.09811
288.17778
286.04599
287.41368
286.84859
287.36715
287.31584
287.54353
287.66035
287.82531
287.98349
288.14991
288.3218
288.49926
288.68237
288.87091
289.06483
289.26389
289.46792
289.67661
289.88967
290.10666
290.32716
290.55062
290.77645
291.00399
291.23253
291.46127
291.6894
291.91606
292.14035
292.36135
292.57814
292.7898
292.99541
293.19408
293.38496
293.56723
293.74011
293.90289
294.0549
294.19554
294.32427
294.44059
294.54404
294.63415
294.71045
294.7725
294.82003
294.85296
294.87109
294.87344
294.85835
294.82334
294.76747
294.69188
294.59629
294.47861
294.33877
294.17813
294.00013
293.81146
293.62349
293.45401
293.32833
293.27819
293.33659
293.52317
293.85221
294.33565
294.99019
295.80727
296.7449
297.77541
298.79186
299.54082
299.72763
299.19597
298.497
293.23175
283.86586
288.00624
285.87681
287.26195
286.72541
287.22396
287.20284
287.44466
287.58469
287.76064
287.93473
288.11636
288.30423
288.49811
288.69799
288.90359
289.11476
289.33115
289.55246
289.77825
290.00808
290.24138
290.47755
290.71588
290.95562
291.19592
291.43592
291.67466
291.91118
292.14447
292.37354
292.59736
292.81495
293.02534
293.2276
293.42085
293.60426
293.77708
293.9386
294.08821
294.22534
294.3495
294.46027
294.55727
294.64016
294.70862
294.7623
294.80084
294.82394
294.83151
294.82341
294.7989
294.75698
294.6957
294.61442
294.51444
294.39573
294.25749
294.1012
293.92985
293.74889
293.56725
293.39854
293.26227
293.18361
293.19294
293.3153
293.56514
293.95361
294.4911
295.179
295.99671
296.91944
297.91965
298.8973
299.60102
299.75435
299.19327
298.46906
293.03525
283.67496
287.86478
285.74488
287.14442
286.6268
287.15849
287.18125
287.40268
287.56252
287.7531
287.94568
288.14557
288.35223
288.5653
288.78465
289.0099
289.24075
289.47672
289.71736
289.96206
290.21019
290.461
290.71369
290.96734
291.22101
291.47367
291.72424
291.97164
292.21473
292.4524
292.68354
292.90709
293.12201
293.32735
293.5222
293.70576
293.87729
294.03614
294.18174
294.31363
294.43138
294.53467
294.62322
294.69681
294.75522
294.7983
294.82584
294.83762
294.83342
294.81312
294.77661
294.72339
294.65299
294.56469
294.45849
294.33521
294.1953
294.0399
293.87183
293.69565
293.51861
293.35161
293.20996
293.11373
293.08661
293.1581
293.34079
293.64902
294.09102
294.66828
295.3721
296.18158
297.08348
298.04926
298.99013
299.64805
299.77407
299.19471
298.44577
292.86204
283.5278
287.7637
285.65692
287.08909
286.61856
287.13396
287.17615
287.41708
287.60301
287.81212
288.02607
288.24747
288.47603
288.71132
288.95304
289.20066
289.45372
289.71156
289.97351
290.23874
290.50641
290.77551
291.04501
291.31377
291.58061
291.84429
292.10357
292.35718
292.60387
292.84245
293.07175
293.2907
293.49831
293.69369
293.87605
294.04471
294.19912
294.33879
294.46337
294.57258
294.6662
294.7441
294.80618
294.85237
294.88264
294.89698
294.89533
294.87766
294.84388
294.79392
294.72773
294.6453
294.54652
294.43169
294.30148
294.15671
293.99887
293.83075
293.6564
293.4818
293.31575
293.17067
293.06291
293.01185
293.0429
293.16995
293.41022
293.77181
294.25546
294.858
295.56571
296.36165
297.23577
298.16595
299.07121
299.68468
299.78883
299.20481
298.42702
292.71609
283.43153
287.71052
285.64932
287.0825
286.66484
287.15054
287.24962
287.50335
287.71694
287.94879
288.18738
288.43377
288.6876
288.94833
289.21545
289.48824
289.766
290.04782
290.33277
290.61973
290.90757
291.195
291.48071
291.76329
292.04134
292.31342
292.5781
292.83401
293.07983
293.31434
293.53641
293.74505
293.9394
294.11874
294.28248
294.43019
294.56155
294.67635
294.77448
294.8559
294.92064
294.96878
295.0004
295.01564
295.01461
294.99744
294.96426
294.91518
294.85031
294.76978
294.67378
294.56262
294.43681
294.29714
294.14486
293.98167
293.81029
293.63468
293.46007
293.29369
293.14557
293.02909
292.96063
292.95972
293.04359
293.22807
293.52082
293.92487
294.43934
295.05561
295.75874
296.5353
297.37774
298.27318
299.14343
299.7188
299.80592
299.23896
298.41844
292.60372
283.39899
287.70888
285.71148
287.13031
286.77672
287.26595
287.40223
287.67171
287.91586
288.17503
288.44208
288.71731
289.00009
289.28972
289.58539
289.88612
290.19088
290.49842
290.80747
291.11656
291.4242
291.72879
292.0287
292.32228
292.60788
292.88392
293.14886
293.40129
293.63992
293.86363
294.07144
294.26258
294.43645
294.59262
294.73083
294.85095
294.95301
295.0371
295.10341
295.15217
295.18365
295.19815
295.19595
295.17734
295.1426
295.09201
295.02584
294.94439
294.84798
294.73698
294.61189
294.47345
294.32266
294.16087
293.98996
293.81274
293.63298
293.45556
293.28689
293.13521
293.01142
292.92932
292.90333
292.95263
293.09026
293.32607
293.6636
294.10136
294.63537
295.25566
295.94795
296.70055
297.51133
298.37419
299.21133
299.75828
299.83504
299.31203
298.43192
292.53214
283.43731
287.77532
285.88302
287.24357
286.97267
287.45427
287.64213
287.93436
288.21249
288.50398
288.80399
289.11239
289.42818
289.75035
290.07772
290.40891
290.74244
291.07665
291.4098
291.74005
292.06551
292.38422
292.69427
292.99379
293.281
293.55422
293.81196
294.05292
294.27601
294.48035
294.66533
294.83052
294.97575
295.10098
295.20639
295.29224
295.3589
295.40683
295.4365
295.44841
295.44304
295.42089
295.3824
295.32801
295.25814
295.17319
295.07361
294.95987
294.8325
294.69218
294.53976
294.37637
294.20352
294.02323
293.83822
293.65209
293.46949
293.2961
293.13929
293.00821
292.91418
292.87016
292.88886
292.98768
293.17483
293.45491
293.82727
294.28858
294.83265
295.44949
296.12607
296.85371
297.63542
298.46875
299.27729
299.80881
299.89175
299.43908
298.48104
292.50497
283.55924
287.91581
286.10599
287.44876
287.25888
287.74136
287.98174
288.30447
288.6214
288.95097
289.28923
289.63565
289.98877
290.34707
290.70884
291.07217
291.43504
291.79527
292.15063
292.49883
292.83758
293.16466
293.47793
293.77542
294.05536
294.31621
294.55673
294.77596
294.97322
295.14814
295.3006
295.43073
295.53886
295.62548
295.69119
295.73668
295.76269
295.76996
295.75923
295.73121
295.68655
295.62589
295.5498
295.45882
295.35349
295.23436
295.10199
294.95706
294.80034
294.6328
294.45566
294.27051
294.07941
293.88504
293.69082
293.50107
293.32112
293.15743
293.01788
292.91224
292.85212
292.8466
292.91067
293.05514
293.28463
293.59979
293.99716
294.47147
295.01643
295.62342
296.28149
296.98584
297.74228
298.54992
299.33713
299.86813
299.97275
299.62073
298.57123
292.52568
283.77734
288.13717
286.43251
287.74203
287.64832
288.13889
288.43674
288.799
289.16103
289.53521
289.91756
290.30699
290.70136
291.09849
291.49601
291.89134
292.28183
292.66474
293.03731
293.39686
293.74081
294.06678
294.37263
294.65656
294.91712
295.15321
295.36414
295.54957
295.70951
295.84426
295.95439
296.04064
296.1039
296.14517
296.16549
296.16589
296.14741
296.111
296.05758
295.98799
295.90299
295.80329
295.68954
295.56236
295.42239
295.27028
295.10676
294.93268
294.74908
294.55723
294.35875
294.1557
293.95066
293.7469
293.54843
293.36014
293.18791
293.03885
292.92098
292.84395
292.81791
292.85121
292.9582
293.14148
293.40392
293.74298
294.15368
294.63052
295.16804
295.75951
296.3976
297.08099
297.81594
298.6014
299.3756
299.92926
300.06199
299.82495
298.6934
292.60122
284.11053
288.43641
286.86678
288.14507
288.15752
288.66715
289.02849
289.44035
289.85498
290.28052
290.71251
291.14899
291.587
292.02356
292.45545
292.87939
293.292
293.69001
294.07026
294.42982
294.76611
295.07695
295.36064
295.61593
295.84212
296.03893
296.20655
296.34554
296.45674
296.54126
296.60034
296.63535
296.64769
296.63876
296.60991
296.56242
296.49747
296.41615
296.31944
296.20822
296.08328
295.94535
295.79513
295.63327
295.4605
295.27757
295.08538
294.88498
294.67766
294.46503
294.24907
294.0323
293.81778
293.60927
293.41128
293.22913
293.06903
292.93816
292.8447
292.79803
292.80474
292.87633
293.0173
293.2303
293.51391
293.86415
294.27615
294.74514
295.26701
295.83775
296.45423
297.11783
297.83344
298.59865
299.36293
299.95856
300.15527
300.01184
298.82969
292.73666
284.58827
288.81343
287.42997
288.67931
288.81093
289.35312
289.78546
290.25705
290.73166
291.21432
291.69979
292.18499
292.66594
293.13864
293.59896
294.04282
294.46628
294.86574
295.23799
295.58039
295.8909
296.16816
296.4114
296.62053
296.79596
296.93858
297.04967
297.13075
297.18356
297.20991
297.21166
297.19061
297.14852
297.08701
297.00758
296.91159
296.80025
296.67465
296.53572
296.38432
296.2212
296.04707
295.86263
295.66858
295.4657
295.25488
295.03716
294.81381
294.5864
294.35684
294.12748
293.90123
293.68156
293.4726
293.27921
293.10696
292.96219
292.85196
292.78394
292.76595
292.80446
292.90607
293.07286
293.30412
293.59608
293.94443
294.34568
294.79677
295.2954
295.84059
296.43303
297.07565
297.77086
298.5134
299.26692
299.90963
300.2051
300.10668
298.93605
292.94326
285.26783
289.32207
288.15398
289.3773
289.64144
290.23105
290.74166
291.28176
291.82228
292.3654
292.90486
293.43604
293.9537
294.45272
294.92812
295.37535
295.79041
296.17007
296.5119
296.81434
297.07669
297.29907
297.48226
297.62765
297.73703
297.81255
297.85653
297.87136
297.85944
297.8231
297.76453
297.68577
297.58868
297.4749
297.34591
297.20299
297.04725
296.87966
296.70106
296.5122
296.31376
296.10641
295.89085
295.66781
295.43814
295.20286
294.96319
294.7206
294.47692
294.23437
293.99563
293.76392
293.54302
293.33733
293.15187
292.99227
292.86477
292.77599
292.73261
292.74072
292.80512
292.9283
293.10989
293.34703
293.63486
293.96938
294.34923
294.7738
295.24322
295.7592
296.32482
296.94291
297.61297
298.32626
299.05161
299.70102
300.09208
300.0187
298.95193
293.24914
286.16879
289.99427
289.07844
290.27862
290.68573
291.33906
291.93489
292.5501
293.15941
293.76164
294.34905
294.91527
295.45386
295.95899
296.42559
296.84967
297.2283
297.5598
297.84358
298.08013
298.27079
298.41762
298.52319
298.59041
298.62238
298.62222
298.59302
298.53769
298.45898
298.35938
298.24114
298.10623
297.95639
297.79312
297.6177
297.43121
297.23459
297.0286
296.81396
296.59128
296.36117
296.12426
295.88121
295.63284
295.38007
295.12404
294.86615
294.6081
294.35195
294.1002
293.85581
293.62223
293.40344
293.20396
293.02883
292.88357
292.774
292.70595
292.68467
292.71416
292.79661
292.93177
293.11722
293.34813
293.62012
293.93171
294.28271
294.67556
295.11302
295.59859
296.13549
296.72412
297.36004
298.03323
298.72024
299.35351
299.77189
299.70777
298.8296
293.6964
287.15484
290.85927
290.24137
291.4295
291.98755
292.72187
293.40874
294.10052
294.77367
295.42316
296.03982
296.6162
297.14576
297.62349
298.0459
298.41121
298.71912
298.97072
299.16818
299.31456
299.41346
299.46885
299.48483
299.46545
299.41462
299.336
299.23294
299.10845
298.9652
298.80552
298.63143
298.44464
298.24659
298.03847
297.82128
297.59586
297.36288
297.12293
296.87655
296.62425
296.36655
296.10404
295.83743
295.56756
295.29547
295.02243
294.75003
294.48016
294.21512
293.95762
293.71083
293.47836
293.26429
293.07316
292.90986
292.77955
292.68736
292.63788
292.63458
292.67917
292.77137
292.90913
293.0879
293.30306
293.55206
293.83431
294.15327
294.51386
294.92102
295.37816
295.8861
296.44068
297.03266
297.64934
298.27027
298.84292
299.23812
299.23426
298.61286
294.34493
288.44985
291.97659
291.69616
292.89306
293.60706
294.43362
295.2087
295.96454
296.67927
297.34505
297.95288
298.49654
298.97185
299.37704
299.71235
299.97986
300.183
300.32624
300.41465
300.45364
300.44859
300.40477
300.32708
300.22005
300.08775
299.93375
299.7612
299.57279
299.37079
299.15712
298.93336
298.70082
298.46053
298.21335
297.95995
297.70088
297.43659
297.16749
296.89396
296.6164
296.33532
296.05127
295.765
295.47743
295.1897
294.90324
294.61979
294.34144
294.07068
293.81039
293.56388
293.33485
293.12739
292.94593
292.79508
292.67937
292.60287
292.56865
292.57826
292.63132
292.72555
292.85715
293.02155
293.2151
293.43621
293.68819
293.97756
294.31102
294.69372
295.12686
295.60665
296.1234
296.66303
297.21033
297.74773
298.23815
298.59277
298.66883
298.34839
295.25835
290.10683
293.43353
293.5245
294.75015
295.61302
296.5219
297.35908
298.14021
298.84747
299.47399
300.01459
300.46775
300.83468
301.11904
301.32616
301.46261
301.5355
301.55217
301.51976
301.44501
301.3341
301.19257
301.0253
300.83652
300.62984
300.40828
300.1744
299.93028
299.67762
299.41776
299.1518
298.88056
298.60469
298.32467
298.04089
297.75363
297.46315
297.16969
296.87354
296.57504
296.27464
295.97296
295.67076
295.36906
295.06913
294.77251
294.48112
294.1972
293.92339
293.66269
293.4185
293.19454
292.99487
292.82368
292.68509
292.58276
292.51943
292.49649
292.51371
292.5691
292.65898
292.77867
292.92372
293.09195
293.28562
293.51177
293.77906
294.09425
294.46046
294.87451
295.32676
295.80226
296.28339
296.75438
297.2033
297.61371
297.94379
298.12281
298.10363
296.423
292.25622
295.33832
295.81171
297.0668
298.0477
298.99042
299.82587
300.55996
301.18337
301.69592
302.10033
302.40282
302.61164
302.73641
302.78718
302.77395
302.70616
302.59247
302.44061
302.25732
302.0484
301.81874
301.57244
301.31286
301.04274
300.76432
300.47933
300.18916
299.89486
299.59722
299.29682
298.99407
298.68923
298.38249
298.07397
297.76375
297.45194
297.13868
296.82416
296.50872
296.19282
295.87708
295.56237
295.24977
294.94067
294.63676
294.34007
294.05297
293.77822
293.5189
293.27844
293.06055
292.86915
292.7081
292.58088
292.49003
292.43686
292.42114
292.44117
292.4938
292.57455
292.67851
292.80227
292.94654
293.11779
293.32643
293.58166
293.8882
294.24512
294.64334
295.06751
295.49892
295.91935
296.31643
296.68818
297.04143
297.37732
297.67673
297.91623
297.99922
295.0108
297.78511
298.60822
299.83188
300.87359
301.75617
302.48768
303.07686
303.52748
303.85023
304.05778
304.16438
304.18435
304.1314
304.01807
303.85548
303.65325
303.41953
303.16109
302.88353
302.59138
302.28829
301.97715
301.66022
301.33925
301.01556
300.69014
300.36366
300.03661
299.70927
299.3818
299.05423
298.72655
298.3987
298.0706
297.74219
297.41347
297.08451
296.75548
296.42671
296.09869
295.7721
295.44786
295.12717
294.81151
294.50268
294.20281
293.91439
293.64023
293.38347
293.14752
292.93606
292.75279
292.60112
292.48373
292.40203
292.35592
292.34381
292.36279
292.40888
292.47736
292.56413
292.66807
292.79343
292.95039
293.15129
293.40392
293.70939
294.06123
294.44404
294.83838
295.22437
295.58711
295.92208
296.24056
296.57023
296.94126
297.35999
297.7915
300.03513
298.43866
300.76115
301.88219
303.07172
303.93286
304.63015
305.14101
305.48827
305.69078
305.77037
305.74771
305.64195
305.46984
305.24571
304.98144
304.68676
304.3695
304.03589
303.6908
303.33805
302.98055
302.62051
302.25956
301.89889
301.53933
301.18141
300.82544
300.47154
300.11972
299.76988
299.42182
299.07534
298.73019
298.38613
298.04297
297.70054
297.35878
297.01774
296.67757
296.33862
296.00142
295.66671
295.3355
295.00905
294.68893
294.37704
294.07559
293.78713
293.5145
293.26087
293.02964
292.82436
292.64848
292.50488
292.39537
292.32028
292.2783
292.26675
292.28183
292.31902
292.37395
292.44446
292.53277
292.6464
292.7977
292.99922
293.25606
293.56434
293.91162
294.27748
294.64026
294.98245
295.29592
295.58643
295.87867
296.21618
296.64257
297.1634
297.72271
302.56008
302.50972
304.52866
305.49476
306.37932
306.97367
307.35641
307.54932
307.58965
307.50777
307.33121
307.08262
306.78051
306.43947
306.07095
305.68374
305.28453
304.87837
304.46901
304.05922
303.65097
303.24566
302.84422
302.44722
302.05495
301.66752
301.28484
300.90672
300.53288
300.16297
299.7966
299.43337
299.07287
298.71471
298.35855
298.00411
297.65117
297.29964
296.94954
296.60106
296.25457
295.91064
295.57006
295.2339
294.9035
294.5805
294.26685
293.96484
293.67703
293.40628
293.15575
292.92881
292.72888
292.55913
292.42191
292.31818
292.24721
292.2067
292.19316
292.20237
292.22982
292.27194
292.3289
292.40651
292.51499
292.6674
292.87524
293.13961
293.45085
293.79198
294.1389
294.47051
294.77456
295.05143
295.31733
295.60697
295.97156
296.45678
297.05731
297.68918
305.71857
307.06617
308.37627
309.0564
309.50687
309.68264
309.66683
309.50206
309.22986
308.88117
308.4799
308.04379
307.58589
307.11569
306.64002
306.16371
305.69015
305.22166
304.75979
304.30547
303.85922
303.42127
302.99156
302.56991
302.15597
301.74932
301.34948
300.95591
300.56804
300.18531
299.80716
299.43302
299.06238
298.69477
298.32978
297.96707
297.60643
297.24774
296.89104
296.53652
296.18459
295.83584
295.49113
295.15154
294.81849
294.49365
294.17902
293.87691
293.58989
293.3208
293.07277
292.8491
292.65311
292.48772
292.35484
292.25475
292.18577
292.14464
292.1272
292.12924
292.14696
292.178
292.2245
292.29574
292.40444
292.56185
292.77799
293.04932
293.36164
293.69466
294.02237
294.32656
294.60153
294.85574
295.11394
295.41684
295.81604
296.3521
297.00595
297.67465
309.79275
311.52357
312.01746
312.16241
312.06097
311.77678
311.37221
310.89029
310.36157
309.80696
309.24065
308.6721
308.10757
307.55108
307.00515
306.47126
305.95016
305.44211
304.94705
304.46464
303.99443
303.53583
303.08818
302.65078
302.22289
301.80378
301.39269
300.98889
300.59165
300.20027
299.81407
299.43244
299.05478
298.6806
298.30944
297.94097
297.57494
297.21127
296.84999
296.49132
296.13568
295.7837
295.43623
295.09442
294.75968
294.43371
294.11853
293.81642
293.52996
293.26197
293.01549
292.79375
292.59993
292.43673
292.30577
292.20688
292.13781
292.09457
292.07243
292.06718
292.07626
292.09909
292.13879
292.20533
292.31519
292.47838
292.70202
292.97663
293.28904
293.61269
293.92337
294.20711
294.46446
294.70801
294.96881
295.2909
295.72272
296.29684
296.98297
297.66852
314.87304
315.15877
314.80782
314.37965
313.79386
313.13809
312.44675
311.74552
311.04841
310.36388
309.69653
309.04873
308.42144
307.81479
307.22837
306.66149
306.11324
305.58264
305.06864
304.57019
304.08622
303.61571
303.15764
302.71102
302.2749
301.84836
301.4305
301.02047
300.61747
300.22072
299.8295
299.44314
299.06105
298.68268
298.30759
297.93544
297.56599
297.19915
296.83498
296.4737
296.11574
295.76174
295.41255
295.06932
294.73345
294.40664
294.09088
293.78845
293.50188
293.23398
292.98775
292.76636
292.57284
292.40971
292.27836
292.17846
292.10761
292.06151
292.03524
292.02534
292.02586
292.04098
292.07651
292.14031
292.24701
292.41493
292.64093
292.91616
293.22643
293.54329
293.84325
294.11456
294.36297
294.60474
294.87079
295.20879
295.66576
296.26499
296.97016
297.66472
316.88039
317.00577
316.32214
315.48992
314.63888
313.7899
312.9611
312.15974
311.38877
310.64879
309.93917
309.25866
308.6057
307.97862
307.37573
306.79538
306.23597
305.69598
305.17399
304.66863
304.17861
303.70273
303.23981
302.78878
302.34858
301.91824
301.4968
301.08339
300.67715
300.27729
299.88308
299.49383
299.10894
298.72787
298.35016
297.97548
297.60358
297.23438
296.86793
296.50446
296.14438
295.78832
295.43713
295.09194
294.75411
294.42534
294.10758
293.80311
293.51445
293.24442
292.99609
292.77269
292.57744
292.4131
292.28124
292.18143
292.11053
292.06289
292.03221
292.0147
292.01033
292.01106
292.03455
292.10698
292.20404
292.37045
292.59518
292.86858
293.17755
293.49308
293.7901
294.0568
294.3004
294.5413
294.81124
295.15589
295.62587
296.23939
296.95721
297.6604
311.93423
310.71261
307.00082
304.0772
302.80331
302.52185
302.45213
302.44936
302.33572
302.28008
302.18003
302.10379
302.01558
301.92739
301.83969
301.75143
301.66243
301.57271
301.48235
301.39146
301.30017
301.20865
301.11704
301.02549
300.93415
300.84312
300.7525
300.66239
300.57287
300.484
300.39586
300.30852
300.22205
300.13655
300.05212
299.96885
299.88687
299.80629
299.72724
299.64985
299.57425
299.50055
299.42888
299.35931
299.29195
299.22691
299.16433
299.10436
299.04714
298.99273
298.94112
298.89232
298.84644
298.80365
298.76403
298.72759
298.69423
298.66383
298.63624
298.61122
298.58853
298.56791
298.54996
298.53661
298.53138
298.53968
298.5691
298.62685
298.71433
298.82095
298.92331
298.94144
298.76278
298.2836
297.54238
296.82644
296.40845
296.92318
297.91786
299.4625
311.24976
308.28189
304.02474
301.9745
301.43241
301.44074
301.53983
301.54926
301.54316
301.51551
301.48865
301.45053
301.40712
301.35833
301.30517
301.24808
301.18762
301.12412
301.05792
300.98939
300.91885
300.84663
300.773
300.69821
300.6225
300.54606
300.46906
300.39167
300.31403
300.23626
300.15849
300.08085
300.00346
299.92645
299.84998
299.77418
299.69921
299.62524
299.55241
299.4809
299.41086
299.34245
299.27578
299.21099
299.14819
299.08753
299.02915
298.97325
298.91996
298.86936
298.82147
298.77632
298.73402
298.6947
298.65846
298.62526
298.59502
298.56762
298.54287
298.52056
298.50053
298.48269
298.46797
298.45877
298.45909
298.47474
298.51318
298.58013
298.67351
298.77981
298.87091
298.85534
298.61096
298.0966
297.34899
296.67891
296.36462
296.97421
298.02921
299.49449
309.78531
306.11845
303.01042
301.34059
301.04206
301.08489
301.11451
301.0854
301.05537
301.01987
300.98512
300.94753
300.90885
300.86723
300.82338
300.77715
300.7288
300.67834
300.62584
300.57147
300.51535
300.45764
300.39847
300.33799
300.27633
300.21363
300.14999
300.08553
300.02035
299.95456
299.88828
299.82162
299.7547
299.68767
299.62068
299.55389
299.48747
299.4216
299.35646
299.29225
299.22913
299.16728
299.10686
299.04802
298.99089
298.93565
298.88247
298.83155
298.78306
298.73709
298.6937
298.65292
298.61487
298.57968
298.5474
298.51802
298.49145
298.46755
298.44615
298.42706
298.4102
298.39571
298.38488
298.38058
298.38721
298.41086
298.45858
298.53397
298.63155
298.73553
298.80698
298.75587
298.45838
297.9051
297.15773
296.54441
296.34345
297.03865
298.13722
299.52181
308.57632
304.61763
301.81896
300.5784
300.55954
300.56857
300.58166
300.54295
300.52309
300.49033
300.46301
300.43162
300.40046
300.36709
300.33259
300.2965
300.25903
300.22004
300.17954
300.13758
300.09418
300.04941
300.00332
299.95597
299.90742
299.85773
299.80695
299.75514
299.70236
299.64869
299.59419
299.53895
299.48308
299.4267
299.36996
299.313
299.25601
299.19917
299.14266
299.08669
299.03144
298.9771
298.92384
298.87184
298.82126
298.77229
298.72513
298.67999
298.63706
298.59645
298.55825
298.52252
298.48936
298.45889
298.43117
298.40617
298.3838
298.36393
298.34639
298.33102
298.31786
298.30731
298.30104
298.30234
298.31599
298.34819
298.40516
298.48795
298.58792
298.68712
298.7316
298.64068
298.29175
297.70692
296.96796
296.44159
296.33234
297.11281
298.24315
299.54494
307.90875
303.36219
300.85552
299.93712
300.03989
300.00065
300.0266
299.98717
299.97956
299.95123
299.93325
299.90937
299.88712
299.86278
299.83793
299.81188
299.78482
299.75659
299.72717
299.69658
299.66478
299.6318
299.59764
299.56233
299.52586
299.48827
299.44955
299.40972
299.36881
299.32684
299.28385
299.2399
299.19507
299.14944
299.10315
299.05633
299.00914
298.96176
298.91437
298.86718
298.82037
298.77414
298.72867
298.68415
298.64076
298.59871
298.55822
298.51951
298.48278
298.44817
298.41577
298.38568
298.358
298.33284
298.31024
298.29017
298.27254
298.25722
298.24405
298.23293
298.22401
298.21799
298.21693
298.2245
298.24578
298.28688
298.35273
298.44154
298.54203
298.63287
298.64747
298.5079
298.11182
297.50415
296.78169
296.35758
296.32455
297.19533
298.34656
299.56324
307.39322
302.13151
300.05395
299.31356
299.48578
299.41273
299.46224
299.42278
299.43069
299.40883
299.40252
299.38752
299.37521
299.3605
299.34558
299.32955
299.31261
299.29463
299.2756
299.25551
299.23436
299.21215
299.18886
299.1645
299.13906
299.11254
299.08492
299.05618
299.02633
298.99536
298.96327
298.93009
298.89588
298.86071
298.82466
298.78787
298.75046
298.71262
298.6745
298.6363
298.5982
298.5604
298.5231
298.48647
298.45073
298.41608
298.38276
298.351
298.32102
298.29295
298.26693
298.24304
298.22139
298.20208
298.18515
298.17054
298.15818
298.14792
298.13962
298.13325
298.12912
298.12822
298.13297
298.1474
298.1768
298.2269
298.30087
298.39408
298.49312
298.57018
298.55098
298.35748
297.92108
297.29842
296.59842
296.26183
296.31865
297.28711
298.4473
299.57686
306.85224
301.07302
299.39852
298.73825
298.96127
298.85914
298.93113
298.88889
298.90973
298.89211
298.89533
298.88749
298.88313
298.87612
298.86923
298.86142
298.8529
298.84354
298.83332
298.82224
298.81026
298.79739
298.78358
298.76884
298.75314
298.73646
298.71875
298.7
298.68017
298.65924
298.63718
298.61401
298.58975
298.56444
298.53816
298.511
298.48309
298.45457
298.4256
298.39636
298.36702
298.33777
298.3088
298.28031
298.2525
298.22561
298.19985
298.17548
298.15269
298.13166
298.1125
298.09532
298.08023
298.0673
298.05656
298.04793
298.04133
298.03661
298.03367
298.03255
298.03371
298.03847
298.04959
298.07135
298.10919
298.1681
298.24904
298.34484
298.44017
298.49636
298.43913
298.19266
297.72116
297.09141
296.41867
296.16507
296.31422
297.38933
298.54475
299.58596
306.40693
300.08919
298.83253
298.2084
298.47431
298.34454