/*--------------------------------*- C++ -*----------------------------------*\
  =========                 |
  \\      /  F ield         | OpenFOAM: The Open Source CFD Toolbox
   \\    /   O peration     | Website:  https://openfoam.org
    \\  /    A nd           | Version:  12
     \\/     M anipulation  |
\*---------------------------------------------------------------------------*/
FoamFile
{
    format      ascii;
    class       volVectorField;
    location    "0.018";
    object      U;
}
// * * * * * * * * * * * * * * * * * * * * * * * * * * * * * * * * * * * * * //

dimensions      [0 1 -1 0 0 0 0];

internalField   nonuniform List<vector> 
16000
(
(217.59187 -3.141244e-17 -8.5622294)
(256.14567 0 5.5001348)
(241.70581 0 -7.7553416)
(249.68248 4.958128e-17 3.8802676)
(244.8293 -4.8955052e-17 -6.1228079)
(247.11643 0 1.8026882)
(245.26948 0 -4.4597429)
(245.79329 8.3787312e-17 -0.034493765)
(244.93535 -7.9605546e-17 -3.2618843)
(244.81151 0 -1.319239)
(244.28676 7.1933479e-17 -2.6549977)
(243.93196 -2.0493959e-16 -2.0650647)
(243.47946 1.2971386e-16 -2.5177747)
(243.04225 -1.2339465e-16 -2.4595132)
(242.57679 1.1707554e-16 -2.629214)
(242.09747 -3.4720182e-18 -2.7089097)
(241.59944 -3.2983536e-18 -2.8208641)
(241.0836 -9.7363503e-17 -2.9223725)
(240.54936 1.9075489e-16 -3.0260484)
(239.99655 -9.050623e-17 -3.1278882)
(239.42497 1.7216823e-16 -3.2282821)
(238.83453 -1.6319815e-16 -3.3265294)
(238.22524 0 -3.4221316)
(237.59719 1.519279e-16 -3.514504)
(236.95057 -4.1030894e-18 -3.6030552)
(236.28572 -2.6517652e-16 -3.6871571)
(235.60308 1.2568573e-16 -3.7661761)
(234.90324 0 -3.8394595)
(234.18691 0 -3.9063576)
(233.455 2.183123e-16 -3.9662243)
(232.70852 -2.0340685e-16 -4.0184334)
(231.94871 0 -4.0623842)
(231.17692 0 -4.0975144)
(230.3947 0 -4.1233109)
(229.60377 5.1309884e-18 -4.1393236)
(228.80597 1.5577463e-16 -4.1451736)
(228.0033 -1.4259947e-16 -4.140572)
(227.19788 -1.3967134e-16 -4.1253268)
(226.39191 1.2367357e-16 -4.0993592)
(225.58769 0 -4.0627149)
(224.78759 -1.1836599e-16 -4.015573)
(223.99398 1.1172644e-16 -3.9582581)
(223.20927 -2.1173126e-16 -3.8912496)
(222.43586 1.9976983e-16 -3.8151925)
(221.67606 -1.9508051e-16 -3.7309113)
(220.9321 3.5716293e-16 -3.6394233)
(220.20607 5.5715793e-18 -3.5419617)
(219.49984 2.7293944e-19 -3.4400062)
(218.81505 -1.5031175e-16 -3.335319)
(218.15297 1.4212196e-16 -3.2299924)
(217.51452 -1.2554837e-16 -3.1264984)
(216.9002 0 -3.0277566)
(216.3101 7.4567305e-18 -2.9372264)
(215.744 0 -2.8590315)
(215.20142 6.6336467e-18 -2.7981032)
(214.68184 2.0657201e-16 -2.7603031)
(214.18502 -3.7749516e-16 -2.7525362)
(213.71135 1.0856792e-17 -2.7829109)
(213.26243 1.6764189e-16 -2.8608176)
(212.84165 -1.4841892e-16 -2.9968181)
(212.45477 1.3965764e-16 -3.2024066)
(212.10988 -8.78722e-18 -3.489492)
(211.81645 0 -3.869272)
(211.58257 0 -4.3498914)
(211.41051 -1.1062754e-16 -4.9324918)
(211.29169 1.109735e-16 -5.6068252)
(211.20278 -9.8448721e-17 -6.3485079)
(211.10514 1.9171942e-16 -7.1196417)
(210.94481 -1.8692895e-16 -7.8698201)
(210.65645 8.2703745e-17 -8.5362442)
(210.16769 5.2317813e-18 -9.0465076)
(209.41753 0 -9.3141261)
(208.36391 4.7146844e-18 -9.2670652)
(206.93149 -4.490054e-18 -8.8365194)
(205.09112 0 -8.0372974)
(202.90967 -3.3819204e-17 -6.8700558)
(200.79569 6.2898855e-17 -5.5663617)
(199.04247 -3.203079e-17 -5.0551059)
(199.53936 0 -2.6824042)
(199.02394 0 -6.7858551)
(219.0551 0 -11.419224)
(257.87405 -3.7137101e-18 3.4261791)
(242.76505 -1.1950619e-16 -10.72356)
(251.24205 1.1011815e-16 1.773425)
(246.03509 0 -9.0241233)
(248.55195 1.013338e-16 -0.38322384)
(246.50177 -1.8714549e-16 -7.2419139)
(247.11327 -1.0483348e-19 -2.3484578)
(246.16479 8.4338341e-17 -5.8873263)
(246.04123 0 -3.7536827)
(245.47585 -1.5235429e-16 -5.1656722)
(245.0917 1.4902734e-16 -4.5452341)
(244.60703 1.4174777e-16 -4.983217)
(244.13511 -2.609416e-16 -4.9265324)
(243.63487 1.1995794e-16 -5.0758339)
(243.11889 1.1027574e-17 -5.1483031)
(242.58324 1.1533193e-16 -5.2445638)
(242.02853 -1.0271663e-16 -5.3322311)
(241.4543 0 -5.4196864)
(240.86042 0 -5.5042292)
(240.24677 5.6667876e-18 -5.5857457)
(239.61337 -1.7783294e-16 -5.6635281)
(238.96031 3.3720805e-16 -5.7369403)
(238.28782 -3.1511107e-16 -5.8052905)
(237.59624 1.4243225e-16 -5.8678684)
(236.88607 0 -5.9239423)
(236.15795 1.2424154e-16 -5.972768)
(235.41266 -1.3321733e-16 -6.0136008)
(234.65114 0 -6.0457071)
(233.8745 3.5176741e-18 -6.0683731)
(233.08402 -1.3351382e-17 -6.0809183)
(232.28113 0 -6.0827106)
(231.46745 0 -6.0731744)
(230.64475 -1.7044832e-16 -6.0518097)
(229.81496 3.3844718e-16 -6.0182055)
(228.98015 -1.6252274e-16 -5.9720511)
(228.14251 -1.5894084e-16 -5.9131565)
(227.30432 1.4547083e-16 -5.8414607)
(226.46797 -1.1205127e-16 -5.7570496)
(225.63586 -2.848089e-19 -5.6601664)
(224.81043 -2.6480389e-19 -5.5512254)
(223.99413 2.32569e-16 -5.4308215)
(223.18935 -1.0972969e-16 -5.2997434)
(222.39844 0 -5.1589836)
(221.62362 2.0215843e-16 -5.0097532)
(220.86699 1.1900896e-17 -4.8534958)
(220.13046 -5.1346203e-18 -4.691907)
(219.41573 -1.643425e-16 -4.5269641)
(218.72419 0 -4.3609608)
(218.05693 -1.4632986e-16 -4.1965507)
(217.41466 -8.8262991e-18 -4.0367925)
(216.79771 2.5966084e-16 -3.8851987)
(216.20605 -1.2985078e-16 -3.7457966)
(215.6394 0 -3.6232272)
(215.09734 -2.033517e-17 -3.522878)
(214.57948 -2.1069498e-16 -3.450967)
(214.08585 3.6030862e-16 -3.4146175)
(213.61715 -2.1461632e-16 -3.422007)
(213.17518 0 -3.4823607)
(212.76335 -1.7024006e-16 -3.6056609)
(212.38714 1.7871005e-16 -3.8022519)
(212.0539 2.6566898e-17 -4.0821558)
(211.77166 0 -4.4539052)
(211.54593 -1.4116785e-16 -4.9224251)
(211.37498 7.0575398e-18 -5.485319)
(211.24557 1.1073762e-16 -6.1286266)
(211.13079 -1.9566158e-17 -6.8248362)
(210.99079 9.2226476e-17 -7.5343149)
(210.77443 -1.0390931e-16 -8.2081043)
(210.42042 5.4492893e-18 -8.7874425)
(209.86193 -5.1438333e-18 -9.2006933)
(209.05146 0 -9.3675126)
(207.94714 -4.6030315e-18 -9.2171209)
(206.48854 4.366764e-18 -8.7141706)
(204.64809 8.302429e-18 -7.8472401)
(202.50481 9.8800128e-19 -6.638972)
(200.41675 0 -5.4018505)
(198.95917 3.0401376e-17 -4.7418607)
(199.44574 -5.808024e-17 -2.6343441)
(199.05368 2.5934126e-17 -6.5315395)
(220.38074 0 -14.357859)
(259.44994 -1.2213918e-16 1.1539856)
(243.79839 2.4933276e-16 -13.783221)
(252.60311 -2.2253125e-16 -0.51095815)
(247.13272 1.099402e-16 -12.008373)
(249.78535 -3.2558478e-18 -2.7677254)
(247.60669 9.9082476e-17 -10.078161)
(248.24402 -9.383349e-17 -4.8641068)
(247.2384 -5.5689031e-18 -8.5822403)
(247.09153 -5.2877349e-18 -6.3570424)
(246.49068 -1.004503e-17 -7.7787795)
(246.07042 1.3863555e-16 -7.1645585)
(245.55018 -1.4052753e-16 -7.5702017)
(245.03966 1.3792392e-16 -7.5204642)
(244.50023 -1.1848402e-16 -7.6478878)
(243.94339 -1.5529442e-17 -7.711951)
(243.36563 0 -7.7922367)
(242.76751 -1.6281819e-20 -7.8647152)
(242.14869 -2.2589178e-16 -7.9347787)
(241.50913 -3.7474741e-19 -8.0003907)
(240.84882 1.731476e-16 -8.0611132)
(240.16792 1.7006947e-17 -8.1161394)
(239.46667 -2.1514267e-17 -8.1646958)
(238.74547 0 -8.2059682)
(238.00488 1.2844525e-20 -8.2391303)
(237.2456 -1.6517059e-16 -8.2633459)
(236.46848 1.4756765e-16 -8.277783)
(235.67458 8.238864e-18 -8.2816187)
(234.86509 0 -8.2740629)
(234.0414 -7.3919354e-18 -8.2543613)
(233.20506 7.1607195e-21 -8.2218186)
(232.3578 -1.9894215e-16 -8.1758096)
(231.50151 2.0035379e-16 -8.1157969)
(230.63825 1.1861571e-17 -8.0413483)
(229.77019 -1.7974396e-16 -7.9521518)
(228.89965 1.4834934e-16 -7.8480319)
(228.02904 -1.8075506e-16 -7.7289662)
(227.16084 1.5151063e-16 -7.5950989)
(226.29757 -1.4347021e-16 -7.446753)
(225.44175 1.3520323e-16 -7.284445)
(224.59588 1.5980666e-17 -7.1088955)
(223.76242 0 -6.9210369)
(222.94371 1.9940729e-16 -6.722027)
(222.14199 -2.4134463e-16 -6.5132568)
(221.35934 0 -6.2963623)
(220.59764 1.7909065e-16 -6.0732387)
(219.85857 -1.5717206e-16 -5.8460549)
(219.14354 1.69536e-16 -5.6172811)
(218.45369 -1.7931694e-16 -5.3897205)
(217.78983 0 -5.1665502)
(217.15243 1.7675099e-16 -4.9513598)
(216.54161 -1.3283403e-16 -4.748186)
(215.95721 0 -4.5615518)
(215.39893 0 -4.3965533)
(214.86642 1.2438626e-16 -4.258966)
(214.35953 -2.076763e-16 -4.1552465)
(213.87864 1.2187023e-16 -4.0926225)
(213.42483 1.8340484e-16 -4.0792537)
(213.0001 2.8498612e-19 -4.1240686)
(212.6078 2.865088e-19 -4.2363118)
(212.25278 -3.2236588e-16 -4.4249955)
(211.94131 8.8836928e-17 -4.6980648)
(211.67959 0 -5.0611766)
(211.47011 1.4121124e-16 -5.5158091)
(211.30649 -1.6161317e-16 -6.0558876)
(211.16987 1.105492e-16 -6.6638035)
(211.02899 1.3267898e-17 -7.3087853)
(210.84316 -8.4937075e-17 -7.9495298)
(210.56427 1.1415262e-17 -8.5380345)
(210.13454 2.147678e-17 -9.0197743)
(209.49715 -1.0114022e-16 -9.3197471)
(208.61639 9.5071213e-17 -9.382532)
(207.45439 -7.1876163e-17 -9.1317126)
(205.96783 1.3572987e-16 -8.5445353)
(204.12721 -5.6207433e-17 -7.6094463)
(202.02398 -6.0829476e-17 -6.3744287)
(200.02141 5.0519166e-17 -5.1910041)
(198.81451 0 -4.4135964)
(199.34323 3.2256303e-18 -2.5690686)
(199.04766 -1.2130059e-17 -6.2852276)
(221.54572 0 -17.371111)
(260.87821 0 -1.2547075)
(244.65947 0 -16.980322)
(253.79553 1.0630027e-16 -2.9042662)
(248.05038 -1.2346709e-16 -15.121351)
(250.85453 -2.1987297e-16 -5.2705813)
(248.53438 2.0913441e-16 -13.032747)
(249.19939 -1.2382868e-17 -7.5083185)
(248.13005 5.900017e-18 -11.3877)
(247.95582 -1.7345434e-16 -9.0930282)
(247.31533 1.6981677e-16 -10.503365)
(246.85358 1.009506e-17 -9.9097753)
(246.29305 -1.5326321e-16 -10.27478)
(245.73863 1.361434e-16 -10.233609)
(245.15481 -1.8660382e-20 -10.337917)
(244.55181 -8.158237e-18 -10.391712)
(243.92669 0 -10.454547)
(243.27997 -7.3735537e-18 -10.509536)
(242.61149 -2.0984097e-16 -10.559695)
(241.92131 2.118831e-16 -10.603419)
(241.20962 1.2581314e-17 -10.64002)
(240.47671 -1.1928581e-17 -10.668584)
(239.72304 2.1490235e-16 -10.688225)
(238.94921 -1.7118208e-16 -10.698024)
(238.156 1.0155024e-17 -10.697055)
(237.34438 1.9251126e-16 -10.684402)
(236.51548 -1.2735048e-16 -10.659161)
(235.67064 0 -10.620463)
(234.81139 1.4715836e-16 -10.567484)
(233.93943 -1.2352488e-16 -10.499469)
(233.05666 2.4897101e-16 -10.415744)
(232.16513 -1.3294798e-17 -10.315742)
(231.26707 -2.0913173e-16 -10.199017)
(230.36484 1.7345961e-16 -10.065266)
(229.46092 -1.8686697e-16 -9.9143439)
(228.55789 -1.6131788e-20 -9.7462804)
(227.65838 2.0890987e-16 -9.5612969)
(226.76505 -3.1527902e-16 -9.3598163)
(225.88054 9.2798109e-17 -9.1424761)
(225.00745 3.5119768e-17 -8.9101358)
(224.14828 -4.9670271e-17 -8.6638868)
(223.30544 0 -8.4050558)
(222.48113 -8.8371592e-17 -8.1352131)
(221.67742 1.3843221e-16 -7.8561768)
(220.89611 -2.0897953e-16 -7.5700215)
(220.1388 1.9635619e-16 -7.2790888)
(219.4068 -2.0823687e-16 -6.9859982)
(218.70116 3.9149971e-16 -6.6936707)
(218.02263 -3.0677376e-16 -6.4053581)
(217.37164 3.0758822e-16 -6.1246787)
(216.74834 -1.4437367e-16 -5.8556499)
(216.15256 1.3585137e-16 -5.6027111)
(215.58396 -9.5492506e-17 -5.3707493)
(215.04212 2.9929062e-17 -5.1652014)
(214.52672 0 -4.9921203)
(214.03779 0 -4.8580575)
(213.57603 0 -4.7701997)
(213.14274 2.3145978e-17 -4.736509)
(212.7401 0 -4.7653868)
(212.37115 -1.6282535e-16 -4.8651471)
(212.03983 1.9036686e-16 -5.0433372)
(211.75087 -1.0721085e-16 -5.3057657)
(211.50855 -3.0502716e-19 -5.6552803)
(211.3127 2.502335e-16 -6.0900538)
(211.15287 2.9583433e-17 -6.60052)
(211.00519 -1.3688397e-16 -7.1656645)
(210.83519 5.1447295e-17 -7.7522307)
(210.60272 -1.4401183e-16 -8.3186451)
(210.26373 -4.5036599e-17 -8.8189983)
(209.76534 -6.3319983e-17 -9.2000324)
(209.06574 -5.951809e-17 -9.3941259)
(208.13073 5.5698524e-17 -9.3600907)
(206.93159 0 -9.0099169)
(205.43927 0 -8.3450016)
(203.61401 -1.5521661e-17 -7.3501349)
(201.55939 0 -6.1002985)
(199.65278 6.9047129e-18 -4.9534488)
(198.64456 5.1918633e-17 -4.0818561)
(199.23971 -7.3490607e-17 -2.4875399)
(199.01252 9.8102314e-20 -6.0220159)
(222.54187 0 -20.590251)
(262.1433 -8.7777152e-18 -3.7423403)
(245.38981 2.6586027e-16 -20.315913)
(254.75771 -2.4814617e-16 -5.4284549)
(248.7567 2.5330471e-16 -18.353058)
(251.72986 -2.3170652e-16 -7.9278081)
(249.2737 -2.2090605e-16 -16.094589)
(249.95122 2.0911301e-16 -10.312442)
(248.82121 0 -14.297339)
(248.6083 0 -11.980801)
(247.92547 1.792331e-16 -13.343889)
(247.41488 -1.6978956e-16 -12.789912)
(246.80864 -1.0090087e-17 -13.104998)
(246.20439 2.8689133e-17 -13.072011)
(245.5705 -9.082781e-18 -13.151582)
(244.91575 3.4439939e-17 -13.19165)
(244.2378 0 -13.234291)
(243.53717 0 -13.268122)
(242.81384 -2.352319e-16 -13.294535)
(242.06802 2.0861853e-16 -13.312143)
(241.30007 0 -13.320075)
(240.51047 0 -13.317319)
(239.69992 -1.8985538e-16 -13.302861)
(238.86927 3.592764e-16 -13.27568)
(238.01961 -1.6992775e-16 -13.234756)
(237.1522 -2.0138126e-17 -13.179089)
(236.26854 -3.8132354e-17 -13.10772)
(235.37034 -1.444969e-16 -13.019748)
(234.45951 1.1929794e-16 -12.914352)
(233.53817 0 -12.790814)
(232.60862 -3.054993e-17 -12.648538)
(231.67331 0 -12.48708)
(230.73485 0 -12.306159)
(229.79595 2.0630769e-16 -12.105684)
(228.85943 -2.1866223e-16 -11.885766)
(227.92811 2.2945732e-17 -11.646734)
(227.00484 -2.1650792e-17 -11.38915)
(226.09244 -4.0907689e-17 -11.11381)
(225.19363 -6.2291824e-20 -10.821757)
(224.31101 5.9161468e-20 -10.514275)
(223.44702 -5.5726901e-20 -10.192901)
(222.60391 0 -9.8594126)
(221.78368 -1.2144917e-16 -9.5158385)
(220.98808 1.140451e-16 -9.1644497)
(220.21858 0 -8.8077657)
(219.47635 -5.052347e-17 -8.4485624)
(218.76228 1.8991894e-16 -8.0898758)
(218.07691 -2.2263947e-16 -7.7350235)
(217.42053 -2.0939729e-16 -7.3876293)
(216.79312 1.5698554e-16 -7.0516583)
(216.19442 1.1068604e-16 -6.731441)
(215.62391 -1.3815031e-16 -6.4316813)
(215.08099 -3.2388777e-17 -6.1574774)
(214.56508 -2.1268518e-16 -5.9144519)
(214.07581 1.1371042e-16 -5.7087618)
(213.6134 -1.0664079e-16 -5.546937)
(213.17861 9.9679746e-17 -5.4359882)
(212.77292 2.3355363e-16 -5.3834057)
(212.39858 -1.7450799e-16 -5.3967735)
(212.05816 0 -5.4832518)
(211.75442 -3.8154495e-17 -5.6488096)
(211.49034 -7.1461737e-17 -5.8971894)
(211.26808 1.331809e-16 -6.2286848)
(211.08501 1.247008e-16 -6.6384226)
(210.92711 -2.3263749e-16 -7.1134155)
(210.76611 8.1270783e-17 -7.6293807)
(210.56467 5.0702394e-17 -8.1515009)
(210.28397 9.4779455e-17 -8.6393514)
(209.88615 1.3298834e-16 -9.0500804)
(209.32941 1.3759771e-19 -9.3267294)
(208.57501 0 -9.4232783)
(207.59546 0 -9.2774738)
(206.37683 -3.403041e-17 -8.8502568)
(204.89083 9.5778596e-17 -8.1121821)
(203.09197 -8.9938034e-17 -7.0655502)
(201.09176 -8.4453949e-17 -5.8093465)
(199.28305 5.2927649e-17 -4.6866747)
(198.46376 0 -3.7434933)
(199.13488 4.6443672e-17 -2.3887051)
(198.95427 -1.8526151e-19 -5.7469443)
(223.3514 0 -23.987234)
(263.21903 2.4636267e-20 -6.3138972)
(245.93408 9.0453486e-18 -23.756302)
(255.54725 2.8728464e-16 -8.0969281)
(249.25891 3.4049762e-19 -21.697658)
(252.38063 -5.0397047e-16 -10.74684)
(249.7893 -3.2965015e-19 -19.259384)
(250.46764 4.5458073e-16 -13.2845)
(249.2797 -2.0915192e-16 -17.312412)
(249.01828 -1.2403157e-17 -15.024046)
(248.29035 1.1787301e-17 -16.304103)
(247.72466 -1.789422e-16 -15.803295)
(247.06797 1.9063367e-16 -16.060862)
(246.40884 -1.81159e-16 -16.031982)
(245.71987 3.0516122e-16 -16.084342)
(245.00833 -3.0747674e-16 -16.105822)
(244.27244 1.3703854e-16 -16.124382)
(243.51269 0 -16.132532)
(242.72926 0 -16.130552)
(241.92255 1.4603375e-17 -16.117091)
(241.09315 -2.7676138e-17 -16.091077)
(240.24183 0 -16.051346)
(239.36958 1.9880091e-16 -15.996736)
(238.47764 4.7980811e-19 -15.926101)
(237.56747 -3.5582999e-16 -15.838317)
(236.64077 1.6813337e-16 -15.732316)
(235.6995 1.9899846e-17 -15.60711)
(234.74585 0 -15.461808)
(233.78221 -1.7822526e-16 -15.29565)
(232.81118 1.3439828e-16 -15.108027)
(231.83555 -2.2287633e-16 -14.898508)
(230.85822 2.0979388e-16 -14.666866)
(229.88224 -2.2705787e-16 -14.413091)
(228.91067 2.1372302e-16 -14.137417)
(227.94664 7.5759648e-17 -13.840328)
(226.99323 0 -13.522566)
(226.05345 0 -13.185145)
(225.13019 4.223864e-17 -12.829341)
(224.22617 3.97826e-17 -12.456693)
(223.3439 -3.7453494e-17 -12.068997)
(222.48563 3.524555e-17 -11.668296)
(221.65333 6.64576e-17 -11.256866)
(220.84866 -6.2443408e-17 -10.83722)
(220.07296 3.5196161e-16 -10.412088)
(219.32722 -2.7528623e-16 -9.984419)
(218.61209 5.1678787e-17 -9.5573857)
(217.92789 -4.8596153e-17 -9.1343836)
(217.27462 0 -8.7190473)
(216.652 2.1358496e-16 -8.3152747)
(216.05949 -1.5994642e-16 -7.927266)
(215.49633 0 -7.5595386)
(214.96166 0 -7.2169159)
(214.45455 1.3152996e-16 -6.9045618)
(213.97418 -6.1439442e-17 -6.6280916)
(213.52012 0 -6.3935289)
(213.09258 -1.6138831e-16 -6.2072893)
(212.69223 1.0038949e-16 -6.0760865)
(212.32055 1.4093876e-16 -6.0066163)
(211.9797 -1.7509374e-16 -6.0053617)
(211.67163 1.6370687e-16 -6.0781011)
(211.39787 -1.5245386e-16 -6.2290844)
(211.15949 8.9727918e-20 -6.4601128)
(210.95646 0 -6.7692282)
(210.78377 6.1959908e-17 -7.1487491)
(210.62448 -2.8822043e-16 -7.5823313)
(210.44668 1.6094149e-16 -8.0430347)
(210.21159 0 -8.496296)
(209.88335 -1.4007691e-16 -8.9038066)
(209.43192 8.685944e-17 -9.2226703)
(208.83035 1.2190742e-16 -9.3969337)
(208.03137 1.9935173e-19 -9.4266361)
(207.02131 -7.0662124e-17 -9.1606021)
(205.80512 9.9206335e-17 -8.6515657)
(204.33755 -1.5457318e-16 -7.8482136)
(202.57628 8.683069e-17 -6.7590711)
(200.63176 2.7139798e-17 -5.5054226)
(198.91312 5.0683263e-17 -4.3992181)
(198.26755 0 -3.4015941)
(199.02456 -4.4086637e-17 -2.2714301)
(198.87971 2.0378402e-17 -5.4555803)
(223.94412 0 -27.557236)
(264.08576 9.7644692e-18 -8.9956203)
(246.27834 -3.0472385e-16 -27.325148)
(256.14993 2.4864262e-16 -10.909402)
(249.58987 2.5548276e-16 -25.143595)
(252.78439 -4.9819642e-16 -13.727193)
(250.03871 2.291793e-16 -22.512926)
(250.71605 2.3203209e-16 -16.431031)
(249.4787 -2.1989193e-16 -20.425485)
(249.16327 3.9138978e-17 -18.217356)
(248.38927 0 -19.377634)
(247.76316 0 -18.937887)
(247.05142 -2.2270172e-17 -19.13302)
(246.33203 -1.6904404e-16 -19.102698)
(245.58211 1.3989903e-16 -19.126108)
(244.80754 1.8973604e-17 -19.124624)
(244.00716 -3.5967778e-17 -19.115476)
(243.18158 3.0696298e-16 -19.093578)
(242.33126 -2.2558549e-16 -19.058402)
(241.45694 2.4486516e-16 -19.008473)
(240.55955 -2.0233682e-16 -18.942496)
(239.6403 2.7429794e-17 -18.859134)
(238.70064 1.5588572e-16 -18.757078)
(237.74228 -1.9605995e-16 -18.635074)
(236.76722 0 -18.491936)
(235.77772 0 -18.326581)
(234.77632 0 -18.13806)
(233.76577 -1.9639519e-16 -17.925584)
(232.74906 1.8502121e-16 -17.688551)
(231.72937 -3.5050769e-17 -17.426576)
(230.70998 0 -17.13952)
(229.69432 -2.8103699e-16 -16.827509)
(228.68582 2.3490182e-16 -16.490944)
(227.68792 -5.5550162e-17 -16.130521)
(226.704 1.5711897e-16 -15.747239)
(225.7373 -4.8815641e-17 -15.342385)
(224.7909 -1.8520745e-16 -14.917546)
(223.86763 2.1847302e-16 -14.47458)
(222.97008 -1.6401976e-16 -14.015612)
(222.10049 7.7348454e-17 -13.543012)
(221.26078 -7.2602804e-17 -13.059373)
(220.4525 1.3641803e-16 -12.567493)
(219.67679 -6.3945875e-17 -12.070363)
(218.93442 -2.4058586e-16 -11.571147)
(218.22579 5.0727718e-16 -11.073177)
(217.5509 -2.1124744e-16 -10.579952)
(216.90944 -1.4882444e-16 -10.09514)
(216.30075 9.2542976e-17 -9.6225884)
(215.72394 8.7003545e-17 -9.1663489)
(215.1779 -1.6275606e-16 -8.7307235)
(214.66138 1.5202803e-16 -8.3202802)
(214.17311 0 -7.9398145)
(213.71185 1.3301209e-16 -7.5944251)
(213.27653 -1.8621754e-16 -7.2895177)
(212.8666 5.8014115e-17 -7.0307692)
(212.48199 5.4050159e-17 -6.8243306)
(212.1232 0 -6.6764284)
(211.7916 0 -6.5927404)
(211.48884 0 -6.5784558)
(211.21621 0 -6.637785)
(210.97411 0 -6.7731417)
(210.76183 -7.0757104e-17 -6.9844599)
(210.57706 0 -7.2676815)
(210.41242 -8.4420673e-20 -7.6124574)
(210.24823 2.2815671e-16 -7.9994484)
(210.05017 -2.1202982e-16 -8.4001196)
(209.78096 -9.8948609e-17 -8.7819345)
(209.40962 -1.8387771e-16 -9.1077)
(208.91539 2.5573546e-16 -9.3336967)
(208.27066 6.9860404e-21 -9.4284369)
(207.4398 7.3834096e-17 -9.3193497)
(206.42325 0 -8.9981593)
(205.22425 0 -8.4125404)
(203.78618 0 -7.5537954)
(202.07045 -1.1164203e-16 -6.4325683)
(200.17979 0 -5.1886156)
(198.54485 -9.6937564e-17 -4.0939356)
(198.06144 1.3540849e-16 -3.0583635)
(198.90284 8.3792932e-17 -2.1368257)
(198.79875 -1.9210559e-17 -5.1425232)
(224.3096 0 -31.309779)
(264.74176 0 -11.785641)
(246.41748 3.2043601e-16 -31.025028)
(256.5615 1.9231933e-17 -13.878342)
(249.72196 -2.6803606e-16 -28.694589)
(252.94637 0 -16.890566)
(250.1302 1.606377e-17 -25.854891)
(250.7953 -3.043746e-17 -19.745122)
(249.43706 0 -23.613355)
(249.04065 1.9190675e-16 -21.53795)
(248.2157 -4.1548844e-16 -22.553145)
(247.52018 1.9673997e-16 -22.180834)
(246.74474 2.3347019e-17 -22.315153)
(245.95598 0 -22.278651)
(245.1357 2.0961256e-17 -22.27238)
(244.28865 -3.3806416e-16 -22.243822)
(243.41435 7.4510279e-17 -22.202732)
(242.51369 2.4913145e-16 -22.145399)
(241.58756 2.3662359e-16 -22.070761)
(240.63714 -2.5523265e-16 -21.9772)
(239.66391 0 -21.863233)
(238.6696 -2.8642498e-16 -21.727393)
(237.65628 2.4319604e-16 -21.568276)
(236.62629 -2.0500008e-16 -21.38459)
(235.5823 1.9321246e-16 -21.17517)
(234.52726 -1.8312514e-16 -20.939016)
(233.46439 3.4546062e-16 -20.675336)
(232.39714 -1.6300813e-16 -20.383569)
(231.32915 1.5419447e-16 -20.063423)
(230.26418 -2.9069118e-16 -19.714898)
(229.2061 1.3682392e-16 -19.33831)
(228.15877 1.2922768e-16 -18.93431)
(227.126 -2.4382264e-16 -18.503881)
(226.1115 5.6611779e-17 -18.048348)
(225.11875 -5.7547674e-19 -17.569373)
(224.15104 2.5367207e-16 -17.06892)
(223.21133 0 -16.54926)
(222.30221 1.7662853e-19 -16.012925)
(221.42591 0 -15.462683)
(220.58423 -7.9183219e-17 -14.901509)
(219.77852 -1.4879555e-16 -14.332556)
(219.00971 6.9832886e-17 -13.759118)
(218.27826 0 -13.184616)
(217.58423 -6.1525035e-17 -12.612576)
(216.92725 2.87962e-16 -12.046619)
(216.30659 -3.2324529e-16 -11.490463)
(215.72122 -3.0281936e-16 -10.947926)
(215.16979 2.8271727e-16 -10.422936)
(214.65076 -1.7638879e-16 -9.9195578)
(214.16247 0 -9.4420382)
(213.70318 0 -8.9948385)
(213.27123 7.1927117e-17 -8.5825881)
(212.86506 6.7105374e-17 -8.2101758)
(212.48344 1.2502681e-16 -7.8826487)
(212.12554 -5.8255982e-17 -7.6052273)
(211.79092 -1.0848783e-16 -7.3835201)
(211.47989 -2.0232325e-16 -7.2229618)
(211.19337 -9.4457075e-17 -7.1281945)
(210.93225 1.7491955e-16 -7.1030532)
(210.69707 0 -7.1500667)
(210.48722 -7.571457e-17 -7.2697916)
(210.30048 -1.407214e-16 -7.4602329)
(210.13238 1.303732e-16 -7.7151498)
(209.97284 6.0274549e-17 -8.0217198)
(209.79975 5.6157583e-17 -8.3582427)
(209.57904 0 -8.695389)
(209.27737 1.9388219e-16 -9.0040897)
(208.87084 1.799792e-16 -9.2444337)
(208.34112 -2.5083678e-16 -9.3824711)
(207.65727 7.7479694e-17 -9.4108214)
(206.81106 -7.2190165e-17 -9.1878624)
(205.81194 -2.0559027e-19 -8.7843826)
(204.64171 2.4900137e-16 -8.1347186)
(203.24418 -2.3150907e-16 -7.2296708)
(201.57951 5.3902808e-17 -6.0869342)
(199.73994 1.5018826e-16 -4.8582674)
(198.2006 -4.6479798e-17 -3.7727486)
(197.8485 -4.3066983e-17 -2.7186812)
(198.76767 0 -1.9882125)
(198.72307 3.6233667e-17 -4.8070591)
(224.46065 3.9021144e-16 -35.258747)
(265.19897 5.5096792e-19 -14.696459)
(246.35021 -3.5696131e-16 -34.882388)
(256.78113 0 -17.02943)
(249.61504 0 -32.35246)
(252.9779 -2.6619783e-16 -20.241898)
(249.91839 2.6932839e-16 -29.243829)
(250.44302 6.3881211e-17 -23.21493)
(249.10841 -2.4247064e-16 -26.890322)
(248.63551 2.2933524e-16 -24.997309)
(247.74852 -2.4512275e-16 -25.849541)
(246.97022 2.0602739e-16 -25.542438)
(246.11833 -4.8880521e-17 -25.617479)
(245.24782 -4.6343832e-17 -25.566544)
(244.34495 -1.7566676e-16 -25.526587)
(243.4136 1.6591713e-16 -25.463945)
(242.454 -3.5437164e-16 -25.383497)
(241.46746 5.9567222e-16 -25.282244)
(240.45542 -2.8145088e-16 -25.158728)
(239.4197 -2.6708352e-16 -25.011191)
(238.3624 2.5185677e-16 -24.838006)
(237.286 -2.9979092e-17 -24.637631)
(236.19332 -2.2581119e-16 -24.408645)
(235.08752 2.1271055e-16 -24.149818)
(233.97207 2.5199999e-16 -23.860123)
(232.85076 -1.4210195e-16 -23.538792)
(231.72758 0 -23.185355)
(230.60674 2.5415955e-16 -22.799665)
(229.49257 -3.1923419e-16 -22.381937)
(228.38945 1.1234035e-16 -21.932764)
(227.30171 -2.8401255e-16 -21.453128)
(226.23361 2.0008087e-16 -20.944405)
(225.18916 -6.3043504e-17 -20.408353)
(224.17217 2.3694587e-16 -19.847094)
(223.18605 -2.2225186e-16 -19.263095)
(222.23386 -2.0946885e-16 -18.65912)
(221.31817 1.963219e-16 -18.038202)
(220.4411 -4.6051065e-17 -17.403594)
(219.60424 0 -16.758724)
(218.80867 8.1460403e-17 -16.10715)
(218.05495 -7.604437e-17 -15.452524)
(217.34315 0 -14.798554)
(216.67287 1.3385099e-16 -14.148983)
(216.04329 -6.2599147e-17 -13.507566)
(215.4532 -1.7553212e-16 -12.878071)
(214.90106 5.4739496e-16 -12.264279)
(214.38505 -2.0488405e-16 -11.669999)
(213.90316 9.5557561e-17 -11.099087)
(213.45323 -2.6784227e-16 -10.555459)
(213.03307 -1.9417234e-19 -10.04315)
(212.64051 1.5520666e-16 -9.5663558)
(212.27355 -1.4475263e-16 -9.1293945)
(211.93035 -6.7342678e-17 -8.7367673)
(211.60952 -6.2703055e-17 -8.3930766)
(211.30995 -1.1708116e-16 -8.1030222)
(211.03094 2.1717372e-16 -7.8713618)
(210.77245 0 -7.702479)
(210.53465 9.3766463e-17 -7.6000129)
(210.31753 -3.489135e-16 -7.5664614)
(210.12074 2.4237143e-16 -7.6026617)
(209.94274 7.5004794e-17 -7.7073581)
(209.78005 1.3938566e-16 -7.8764708)
(209.62606 1.2973193e-16 -8.101441)
(209.46783 -1.1917843e-16 -8.3673047)
(209.28222 -1.1044402e-16 -8.6504076)
(209.03899 -3.0829506e-16 -8.9215102)
(208.70716 -2.7454878e-19 -9.1539495)
(208.26978 -8.8122957e-17 -9.3089393)
(207.706 0 -9.3877369)
(207.00245 -2.273286e-16 -9.2593946)
(206.16376 7.0068336e-17 -8.9965263)
(205.19227 0 -8.5188037)
(204.06179 1.207113e-16 -7.8160556)
(202.71348 0 -6.875325)
(201.10341 1.037486e-16 -5.7215035)
(199.31695 -1.4437983e-16 -4.5143509)
(197.87734 1.3364272e-16 -3.4371743)
(197.62709 -8.2229987e-17 -2.3879931)
(198.61282 7.5889514e-17 -1.8318897)
(198.66341 0 -4.4603502)
(224.3931 -4.0970769e-16 -39.407021)
(265.44623 3.6093361e-16 -17.742622)
(246.0248 -3.3100532e-16 -38.931514)
(256.78454 3.2897935e-16 -20.379563)
(249.20884 3.1513353e-16 -36.061485)
(252.45939 -1.7895216e-17 -23.76783)
(249.40986 -2.8212483e-16 -32.713159)
(249.8947 -2.6784248e-16 -26.882262)
(248.4863 2.8505194e-16 -30.292548)
(247.90269 0 -28.610366)
(246.94165 2.8452417e-17 -29.284374)
(246.06661 0 -29.02972)
(245.12435 -1.2796539e-16 -29.044934)
(244.1587 2.4160759e-16 -28.967804)
(243.16 0 -28.886311)
(242.13167 0 -28.779271)
(241.07474 0 -28.648491)
(239.99114 3.8912868e-17 -28.49124)
(238.88307 0 -28.305755)
(237.75314 -2.434579e-16 -28.090167)
(236.60436 3.2799585e-16 -27.842769)
(235.44013 1.241258e-16 -27.562042)
(234.26425 1.7602842e-16 -27.246676)
(233.08086 -2.7646492e-16 -26.895656)
(231.89441 -5.2111824e-17 -26.508287)
(230.7096 -2.4660882e-16 -26.084247)
(229.53132 1.8559427e-16 -25.623622)
(228.36455 -2.1923739e-16 -25.126943)
(227.21425 8.2025087e-17 -24.595186)
(226.08531 7.7561917e-17 -24.02979)
(224.98242 0 -23.432649)
(223.90998 2.7591366e-16 -22.80608)
(222.872 -2.5911737e-16 -22.152806)
(221.87206 0 -21.475903)
(220.91319 -2.2908694e-16 -20.778757)
(219.99785 2.1456296e-16 -20.065001)
(219.12792 -1.0110573e-16 -19.338456)
(218.30466 1.8929294e-16 -18.603073)
(217.52869 -2.6594979e-16 -17.862872)
(216.8001 1.2193575e-19 -17.121892)
(216.11839 -1.5536303e-16 -16.384147)
(215.48259 -7.2702583e-17 -15.653595)
(214.89127 -1.364225e-16 -14.934116)
(214.34263 2.5429118e-16 -14.229505)
(213.83456 -1.1865382e-16 -13.543479)
(213.36468 0 -12.879691)
(212.93046 -3.6434248e-19 -12.241753)
(212.52924 9.6458122e-17 -11.633273)
(212.15836 0 -11.057871)
(211.81517 8.3854725e-17 -10.519212)
(211.49716 7.8391788e-17 -10.021083)
(211.20205 -7.272302e-17 -9.5673758)
(210.92784 2.7072902e-16 -9.1620372)
(210.67292 -2.5153198e-16 -8.8090945)
(210.43602 -1.1694427e-16 -8.5125885)
(210.21627 -1.0858861e-16 -8.2763006)
(210.01308 1.0077747e-16 -8.1034992)
(209.82579 1.8689923e-16 -7.9966948)
(209.65351 -3.4633522e-16 -7.9570235)
(209.49488 4.0112034e-16 -7.9837036)
(209.3473 -1.4851515e-16 -8.0736921)
(209.20605 1.3750361e-16 -8.2207241)
(209.06246 -1.2728527e-16 -8.4139467)
(208.90121 2.3579525e-16 -8.636435)
(208.70063 -3.2728222e-16 -8.8631206)
(208.43429 2.0146769e-16 -9.0671549)
(208.07532 -1.3881932e-19 -9.2222915)
(207.60597 8.6354179e-17 -9.3113611)
(207.02012 0 -9.259597)
(206.31931 0 -9.0928852)
(205.50356 0 -8.7440564)
(204.56814 -1.2643086e-16 -8.2051915)
(203.48476 -2.8423997e-20 -7.4569167)
(202.19032 0 -6.4898085)
(200.63687 0 -5.3350329)
(198.91127 9.2469533e-17 -4.1550151)
(197.5631 -1.7091345e-16 -3.0862789)
(197.39175 0 -2.0678433)
(198.40924 0 -1.678105)
(198.62145 -1.3150412e-16 -4.12012)
(224.07241 2.7656056e-17 -43.765373)
(265.45118 -7.8109039e-16 -20.953893)
(245.40819 3.461039e-16 -43.127223)
(256.32764 -2.1606505e-17 -23.895514)
(248.47751 3.7120418e-16 -39.871281)
(251.78562 -3.5000246e-16 -27.530489)
(248.6192 0 -36.311381)
(248.96535 -3.1533729e-16 -30.748874)
(247.50084 2.3179761e-16 -33.818496)
(246.79036 2.2019939e-16 -32.369288)
(245.74103 -2.3767203e-16 -32.860193)
(244.75437 0 -32.638693)
(243.70648 1.7083083e-19 -32.59192)
(242.63122 0 -32.474635)
(241.52258 3.8295204e-16 -32.340116)
(240.384 -7.2344075e-16 -32.174884)
(239.21747 3.4154501e-16 -31.978886)
(238.02582 -4.0356718e-17 -31.749478)
(236.81228 -3.8341001e-17 -31.484699)
(235.58056 3.6434861e-17 -31.182649)
(234.33482 -6.8073085e-17 -30.841694)
(233.07968 -3.2247697e-16 -30.460497)
(231.82013 3.0349997e-16 -30.038086)
(230.56147 5.7224312e-17 -29.573925)
(229.30926 -2.711843e-16 -29.067932)
(228.0692 -7.1313665e-19 -28.520559)
(226.84701 2.8804514e-16 -27.932775)
(225.64838 -1.8078679e-16 -27.306104)
(224.47875 -6.0110693e-19 -26.642601)
(223.34329 0 -25.94484)
(222.24672 0 -25.215872)
(221.19324 -7.1146969e-17 -24.459172)
(220.18644 1.33201e-16 -23.678584)
(219.22922 0 -22.878241)
(218.32377 -1.1772054e-16 -22.062486)
(217.47152 2.2026635e-16 -21.235804)
(216.6732 -1.0317912e-16 -20.402722)
(215.92881 -1.9335983e-16 -19.56776)
(215.23771 8.9856434e-17 -18.735352)
(214.59869 1.6861208e-16 -17.909804)
(214.01 0 -17.095258)