/*--------------------------------*- C++ -*----------------------------------*\
  =========                 |
  \\      /  F ield         | OpenFOAM: The Open Source CFD Toolbox
   \\    /   O peration     | Website:  https://openfoam.org
    \\  /    A nd           | Version:  12
     \\/     M anipulation  |
\*---------------------------------------------------------------------------*/
FoamFile
{
    format      ascii;
    class       volScalarField;
    location    "0.031";
    object      p;
}
// * * * * * * * * * * * * * * * * * * * * * * * * * * * * * * * * * * * * * //

dimensions      [1 -1 -2 0 0 0 0];

internalField   nonuniform List<scalar> 
16000
(
90121.423
90243.614
90255.749
90385.673
90412.131
90534.826
90584.653
90697.234
90769.669
90876.806
90966.654
91073.939
91177.033
91288.647
91402.173
91520.856
91643.418
91770.408
91901.699
92037.362
92177.388
92321.767
92470.462
92623.414
92780.535
92941.712
93106.796
93275.612
93447.945
93623.55
93802.144
93983.407
94166.988
94352.498
94539.515
94727.591
94916.246
95104.98
95293.275
95480.597
95666.409
95850.174
96031.364
96209.464
96383.984
96554.468
96720.499
96881.713
97037.809
97188.559
97333.815
97473.518
97607.705
97736.511
97860.17
97979.016
98093.51
98204.204
98311.673
98416.584
98519.612
98621.445
98722.751
98824.201
98926.41
99029.864
99134.688
99240.127
99344.293
99444.26
99537.139
99621.958
99700.53
99775.283
99847.559
99885.654
99945.285
99950.783
99982.173
100046.44
89746.104
89884.722
89894.187
90035.952
90063.845
90197.195
90249.588
90372.893
90449.078
90565.998
90661.947
90777.883
90888.936
91009.075
91131.466
91259.236
91391.258
91527.98
91669.314
91815.299
91965.917
92121.132
92280.88
92445.069
92613.575
92786.242
92962.878
93143.255
93327.108
93514.133
93703.99
93896.298
94090.642
94286.573
94483.607
94681.235
94878.923
95076.118
95272.255
95466.763
95659.075
95848.632
96034.893
96217.344
96395.505
96568.939
96737.264
96900.159
97057.377
97208.751
97354.202
97493.748
97627.507
97755.703
97878.665
97996.831
98110.729
98220.976
98328.245
98433.257
98536.752
98639.425
98741.912
98844.762
98948.404
99053.162
99159.122
99265.803
99371.825
99474.645
99571.049
99658.565
99737.061
99809.744
99876.901
99929.193
99976.282
99999.669
99993.115
100106.74
89399.891
89553.52
89562.785
89717.246
89745.133
89891.613
89945.505
90080.634
90161.437
90288.398
90391.775
90516.865
90637.041
90766.599
90898.94
91036.88
91179.484
91327.086
91479.613
91637.065
91799.396
91966.535
92138.38
92314.794
92495.608
92680.614
92869.565
93062.174
93258.114
93457.017
93658.471
93862.028
94067.203
94273.474
94480.293
94687.085
94893.256
95098.205
95301.321
95502.002
95699.657
95893.718
96083.645
96268.94
96449.15
96623.88
96792.801
96955.656
97112.27
97262.556
97406.521
97544.272
97676.021
97802.086
97922.893
98038.962
98150.894
98259.362
98365.105
98468.893
98571.499
98673.653
98775.995
98879.006
98982.99
99088.085
99194.193
99300.846
99406.926
99510.355
99608.237
99697.7
99777.208
99848.174
99912.749
99968.829
100014.23
100046.17
100018.34
100170.07
89085.048
89248.778
89259.422
89428.419
89455.919
89617.949
89673.89
89822.722
89909.055
90047.531
90159.705
90295.245
90426.072
90566.454
90710.218
90859.778
91014.383
91174.252
91339.309
91509.517
91684.794
91865.031
92050.082
92239.762
92433.848
92632.073
92834.125
93039.646
93248.234
93459.441
93672.776
93887.707
94103.666
94320.054
94536.247
94751.602
94965.467
95177.189
95386.123
95591.643
95793.147
95990.074
96181.906
96368.177
96548.488
96722.506
96889.977
97050.729
97204.682
97351.846
97492.33
97626.347
97754.212
97876.343
97993.257
98105.555
98213.911
98319.059
98421.779
98522.878
98623.157
98723.379
98824.203
98926.113
99029.367
99133.958
99239.582
99345.602
99450.888
99553.609
99651.313
99741.397
99821.83
99892.514
99955.202
100010.04
100057.74
100091.84
100053.3
100229.4
88803.367
88981.365
88989.804
89176.781
89203.208
89383.179
89441.372
89605.694
89698.796
89850.163
89972.904
90120.168
90263.265
90415.844
90572.407
90734.907
90902.777
91076.145
91254.932
91439.067
91628.434
91822.879
92022.203
92226.163
92434.464
92646.761
92862.659
93081.709
93303.414
93527.226
93752.557
93978.778
94205.227
94431.216
94656.044
94878.998
95099.373
95316.476
95529.638
95738.227
95941.654
96139.387
96330.954
96515.954
96694.064
96865.043
97028.737
97185.086
97334.122
97475.972
97610.866
97739.131
97861.195
97977.58
98088.892
98195.809
98299.068
98399.453
98497.776
98594.865
98691.533
98788.55
98886.587
98986.144
99087.472
99190.499
99294.775
99399.447
99503.213
99604.274
99700.498
99789.709
99870.131
99941.331
100003.26
100055.53
100105.08
100139.44
100095.99
100294.39
88561.719
88757.052
88762.441
88970.255
88995.389
89195.236
89255.621
89437.255
89538.571
89704.008
89838.907
89998.742
90155.261
90321.027
90491.429
90667.969
90850.252
91038.329
91232.1
91431.447
91636.197
91846.126
92060.957
92280.355
92503.929
92731.229
92961.745
93194.913
93430.116
93666.69
93903.928
94141.09
94377.413
94612.119
94844.427
95073.569
95298.796
95519.394
95734.696
95944.09
96147.03
96343.045
96531.744
96712.822
96886.067
97051.358
97208.67
97358.075
97499.739
97633.926
97760.995
97881.398
97995.68
98104.463
98208.44
98308.358
98405.008
98499.208
98591.796
98683.61
98775.465
98868.12
98962.238
99058.316
99156.607
99257.023
99359.04
99461.632
99563.3
99662.175
99756.273
99843.71
99923.208
99994.57
100055.96
100108.13
100158.63
100189.51
100144.65
100374.45
88363.109
88578.448
88581.07
88812.511
88836.42
89059.095
89122.998
89323.857
89433.735
89612.767
89760.634
89933.469
90104.492
90284.68
90470.342
90662.519
90860.901
91065.441
91275.974
91492.296
91714.142
91941.186
92173.037
92409.238
92649.268
92892.538
93138.401
93386.149
93635.024
93884.224
94132.914
94380.237
94625.327
94867.322
95105.379
95338.691
95566.493
95788.083
96002.829
96210.18
96409.673
96600.938
96783.707
96957.81
97123.178
97279.844
97427.937
97567.683
97699.4
97823.497
97940.472
98050.905
98155.45
98254.826
98349.803
98441.185
98529.803
98616.498
98702.12
98787.509
98873.469
98960.742
99049.958
99141.587
99235.868
99332.707
99431.545
99531.26
99630.215
99726.488
99818.144
99903.459
99981.602
100052.53
100113.94
100166.82
100216.75
100242.5
100199.65
100462.27
88203.028
88442.109
88440.854
88700.6
88722.385
88971.997
89038.596
89257.748
89378.194
89572.237
89735.967
89924.08
90112.215
90309.431
90512.913
90723.291
90940.279
91163.721
91393.36
91628.88
91869.894
92115.941
92366.484
92620.912
92878.541
93138.616
93400.319
93662.778
93925.075
94186.259
94445.362
94701.415
94953.463
95200.58
95441.892
95676.587
95903.929
96123.272
96334.071
96535.885
96728.385
96911.355
97084.691
97248.399
97402.59
97547.477
97683.366
97810.654
97929.818
98041.419
98146.088
98244.526
98337.489
98425.778
98510.222
98591.67
98670.975
98748.989
98826.559
98904.514
98983.638
99064.643
99148.123
99234.501
99323.979
99416.435
99511.289
99607.38
99703.029
99796.312
99885.312
99968.426
100045.14
100115.3
100176.36
100229.84
100280.85
100298.8
100265.42
100554.43
88077.517
88344.226
88338.477
88632.94
88649.984
88927.168
88998.032
89238.421
89374.828
89586.773
89770.267
89976.779
90185.223
90402.639
90626.986
90858.556
91097.031
91342.13
91593.47
91850.59
92112.941
92379.89
92650.714
92924.609
93200.689
93478.002
93755.534
94032.225
94306.988
94578.724
94846.342
95108.782
95365.031
95614.143
95855.258
96087.617
96310.574
96523.605
96726.314
96918.434
97099.831
97270.493
97430.528
97580.156
97719.696
97849.562
97970.249
98082.327
98186.436
98283.276
98373.603
98458.221
98537.967
98613.703
98686.3
98756.629
98825.551
98893.912
98962.544
99032.247
99103.773
99177.794
99254.859
99335.344
99419.395
99506.841
99597.077
99688.946
99780.805
99870.768
99956.938
100037.87
100113.19
100182.13
100243.61
100298.09
100350.25
100359.67
100342.47
100650.92
87988.09
88286.909
88277.449
88610.027
88623.645
88931.77
89013.919
89278.72
89434.579
89666.531
89873.432
90101.54
90333.554
90574.539
90823.015
91078.977
91342.003
91611.648
91887.354
92168.465
92454.22
92743.761
93036.128
93330.275
93625.078
93919.351
94211.863
94501.362
94786.595
95066.333
95339.397
95604.68
95861.168
96107.962
96344.295
96569.54
96783.222
96985.022
97174.772
97352.449
97518.173
97672.188
97814.852
97946.623
98068.047
98179.742
98282.389
98376.723
98463.527
98543.624
98617.87
98687.145
98752.344
98814.363
98874.089
98932.396
98990.132
99048.125
99107.174
99168.038
99231.422
99297.944
99368.103
99442.222
99520.389
99602.379
99687.56
99774.813
99862.581
99949.048
100032.38
100111.35
100185.53
100253.17
100314.11
100372.71
100422.11
100423.26
100428.15
100748.96
87941.472
88278.457
88265.436
88637.094
88654.205
88997.931
89094.615
89385.839
89566.472
89821.245
90055.676
90309.231
90568.489
90836.779
91112.961
91396.751
91687.559
91984.716
92287.425
92594.765
92905.695
93219.062
93533.612
93848.006
94160.844
94470.689
94776.089
95075.613
95367.876
95651.57
95925.493
96188.571
96439.888
96678.692
96904.415
97116.672
97315.263
97500.164
97671.515
97829.606
97974.859
98107.808
98229.08
98339.379
98439.467
98530.155
98612.287
98686.737
98754.4
98816.19
98873.029
98925.842
98975.548
99023.05
99069.229
99114.937
99160.996
99208.195
99257.29
99308.988
99363.93
99422.671
99485.645
99553.12
99625.13
99701.403
99781.293
99863.75
99947.348
100030.37
100111.1
100188.55
100262.22
100329.79
100390.91
100450.7
100498.92
100489.52
100522.71
100856.8
87946.735
88329.166
88311.947
88730.029
88752.692
89135.16
89250.862
89570.474
89781.548
90062.426
90328.68
90612.053
90902.658
91202.39
91510.219
91825.551
92147.53
92475.175
92807.349
93142.772
93480.036
93817.621
94153.921
94487.271
94815.98
95138.365
95452.786
95757.687
96051.627
96333.318
96601.656
96855.736
97094.875
97318.616
97526.723
97719.18
97896.165
98058.038
98205.312
98338.632
98458.743
98566.475
98662.711
98748.378
98824.426
98891.818
98951.523
99004.51
99051.746
99094.192
99132.797
99168.496
99202.2
99234.792
99267.12
99300.002
99334.213
99370.496
99409.549
99452.017
99498.469
99549.384
99605.125
99665.894
99731.677
99802.171
99876.746
99954.452
100034.03
100113.9
100192.49
100268.89
100342.13
100410.52
100473.5
100536.92
100580.48
100561.75
100627.82
100975.27
88006.985
88443.725
88423.17
88894.79
88925.155
89349.959
89491.696
89842.122
90090.441
90402.005
90705.058
91023.513
91350.349
91686.3
92030.212
92381.086
92737.66
93098.512
93462.044
93826.52
94190.081
94550.787
94906.649
95255.67
95595.895
95925.451
96242.602
96545.788
96833.667
97105.148
97359.409
97595.905
97814.373
98014.811
98197.465
98362.792
98511.436
98644.193
98761.971
98865.768
98956.636
99035.661
99103.942
99162.573
99212.637
99255.193
99291.28
99321.909
99348.071
99370.727
99390.816
99409.244
99426.886
99444.579
99463.125
99483.287
99505.788
99531.313
99560.495
99593.91
99632.051
99675.316
99723.988
99778.202
99837.896
99902.754
99972.202
100045.42
100121.31
100198.49
100275.56
100351.55
100425.1
100494.25
100561.54
100629.62
100667.37
100644.67
100744.5
101094.43
88125.798
88627.037
88603.575
89135.821
89180.372
89651.473
89828.458
90213.086
90506.297
90854.725
91200.52
91560.361
91929.202
92306.752
92691.462
93081.765
93475.833
93871.665
94267.099
94659.854
95047.573
95427.868
95798.381
96156.844
96501.138
96829.359
97139.87
97431.343
97702.787
97953.566
98183.388
98392.294
98580.625
98748.985
98898.196
99029.259
99143.3
99241.54
99325.251
99395.727
99454.262
99502.125
99540.552
99570.73
99593.802
99610.859
99622.944
99631.059
99636.165
99639.186
99641.009
99642.485
99644.424
99647.604
99652.762
99660.601
99671.787
99686.939
99706.629
99731.356
99761.537
99797.491
99839.423
99887.4
99941.313
100000.86
100065.54
100134.68
100207.38
100282.42
100358.64
100434.99
100509.62
100580.76
100651.63
100721.82
100755.95
100739.43
100871.33
101205.48
88310.199
88888.632
88863.936
89465.309
89531.074
90052.528
90275.63
90699.48
91046.326
91439.842
91835.687
92244.24
92661.464
93086.034
93515.759
93948.344
94381.253
94811.793
95237.145
95654.429
96060.774
96453.399
96829.695
97187.312
97524.237
97838.845
98129.948
98396.803
98639.11
98856.985
99050.918
99221.717
99370.456
99498.409
99606.993
99697.718
99772.138
99831.813
99878.282
99913.035
99937.5
99953.031
99960.905
99962.319
99958.396
99950.192
99938.698
99924.854
99909.55
99893.635
99877.917
99863.165
99850.113
99839.463
99831.885
99828.017
99828.462
99833.781
99844.477
99860.982
99883.64
99912.696
99948.287
99990.415
100038.94
100093.57
100153.91
100219.44
100289.4
100362.79
100438.56
100515.42
100591.2
100664.79
100739.56
100810.46
100841.04
100837.47
100996.34
101296.48
88566.811
89237.516
89214.432
89894.159
89991.786
90569.189
90852.681
91324.079
91734.912
92183.611
92637.698
93102.397
93573.861
94049.704
94526.893
95002.242
95472.357
95933.725
96382.808
96816.149
97230.496
97622.918
97990.912
98332.487
98646.211
98931.237
99187.285
99414.601
99613.901
99786.288
99933.179
100056.22
100157.2
100238.02
100300.58
100346.79
100378.47
100397.38
100405.2
100403.48
100393.65
100377.05
100354.89
100328.31
100298.34
100265.95
100232.01
100197.38
100162.83
100129.12
100096.95
100067.01
100039.93
100016.34
99996.841
99982.005
99972.375
99968.451
99970.677
99979.421
99994.965
100017.49
100047.08
100083.69
100127.15
100177.21
100233.56
100295.79
100363.26
100435.13
100510.44
100587.62
100664.22
100739.49
100816.39
100886.28
100913.79
100923.39
101095.32
101356.42
88902.398
89683.305
89666.855
90439.41
90585.753
91229.062
91589.938
92119.655
92605.016
93119.113
93639.027
94165.998
94695.7
95224.506
95748.248
96262.595
96763.117
97245.451
97705.479
98139.493
98544.353
98917.599
99257.516
99563.159
99834.322
100071.47
100275.66
100448.42
100591.63
100707.44
100798.14
100866.12
100913.72
100943.26
100956.96
100956.88
100944.96
100923.01
100892.64
100855.34
100812.44
100765.17
100714.61
100661.74
100607.47
100552.61
100497.93
100444.14
100391.89
100341.83
100294.56
100250.64
100210.64
100175.11
100144.56
100119.52
100100.47
100087.86
100082.06
100083.39
100092.09
100108.29
100132.02
100163.23
100201.74
100247.35
100299.8
100358.73
100423.57
100493.58
100567.72
100644.15
100720.22
100795.4
100871.82
100937.56
100960.31
100979.37
101149.74
101378.66
89334.878
90251.022
90252.876
91138.725
91351.485
92071.011
92526.346
93125.347
93694.579
94283.364
94875.327
95468.379
96056.896
96635.548
97198.654
97740.607
98256.095
98740.357
99189.406
99600.185
99970.651
100299.79
100587.57
100834.8
101043.06
101214.46
101351.56
101457.17
101534.25
101585.77
101614.67
101623.77
101615.71
101592.97
101557.79
101512.23
101458.13
101397.14
101330.72
101260.19
101186.69
101111.23
101034.72
100957.97
100881.7
100806.58
100733.22
100662.18
100594
100529.2
100468.26
100411.66
100359.88
100313.38
100272.64
100238.1
100210.19
100189.3
100175.77
100169.86
100171.76
100181.57
100199.33
100224.94
100258.28
100299.19
100347.43
100402.62
100464.17
100531.3
100602.77
100676.36
100749.33
100821.48
100892.81
100947.5
100965.73
100993.01
101156.13
101354.39
89897.489
90986.572
91017.613
92035.076
92332.169
93135.243
93703.139
94384.498
95046.837
95718.491
96385.924
97043.622
97683.866
98299.355
98883.086
99428.847
99931.511
100387.26
100793.67
101149.75
101455.77
101713.14
101924.17
102091.85
102219.63
102311.24
102370.48
102401.12
102406.81
102390.97
102356.77
102307.13
102244.65
102171.68
102090.29
102002.29
101909.3
101812.7
101713.69
101613.33
101512.51
101412.03
101312.58
101214.77
101119.13
101026.18
100936.35
100850.09
100767.8
100689.88
100616.7
100548.67
100486.18
100429.62
100379.41
100335.93
100299.56
100270.63
100249.45
100236.22
100231.13
100234.24
100245.59
100265.12
100292.73
100328.3
100371.57
100422.07
100479.12
100541.72
100608.29
100676.22
100742.83
100807.53
100868.57
100910.82
100926.19
100958.34
101110.18
101274.36
90621.326
91918.911
91992.764
93158.406
93573.489
94471.912
95173.399
95953.286
96716.061
97472.789
98209.454
98917.086
99586.105
100208.29
100776.94
101287.27
101736.47
102123.66
102449.72
102716.95
102928.81
103089.52
103203.78
103276.53
103312.69
103317.03
103294.07
103247.96
103182.5
103101.08
103006.72
102902.07
102789.43
102670.79
102547.88
102422.16
102294.88
102167.11
102039.75
101913.56
101789.19
101667.18
101548.01
101432.09
101319.79
101211.45
101107.38
101007.87
100913.21
100823.7
100739.61
100661.26
100588.98
100523.11
100463.99
100411.95
100367.33
100330.42
100301.46
100280.66
100268.15
100264.04
100268.35
100281.08
100302.17
100331.47
100368.67
100413.18
100464.09
100520.1
100579.15
100638.39
100695.41
100749.33
100796.81
100826.2
100836.63
100873.3
101010.76
101139.72
91532.656
93090.679
93242.631
94574.847
95152.057
96161.66
97013.439
97902.075
98759.991
99585.414
100362.87
101081.7
101732.96
102310.59
102811.4
103234.9
103582.98
103859.38
104069.23
104218.54
104313.75
104361.43
104367.95
104339.35
104281.2
104198.53
104095.83
103977.04
103845.61
103704.5
103556.23
103402.95
103246.5
103088.38
102929.87
102772.04
102615.74
102461.72
102310.55
102162.71
102018.61
101878.56
101742.85
101611.7
101485.33
101363.92
101247.65
101136.7
101031.25
100931.49
100837.64
100749.92
100668.61
100593.98
100526.34
100465.96
100413.14
100368.12
100331.13
100302.35
100281.94
100270
100266.6
100271.77
100285.48
100307.53
100337.5
100374.61
100417.7
100465.05
100514.17
100562.11
100606.73
100646.92
100679.13
100696.01
100702.51
100744.66
100867.27
100959.44
92712.661
94600.049
94873.865
96393.311
97179.111
98308.628
99306.334
100289.13
101206.65
102050.5
102807.33
103469.63
104033.85
104500.35
104872.72
105156.98
105360.77
105492.68
105561.58
105576.23
105544.89
105475.19
105373.97
105247.28
105100.4
104937.85
104763.5
104580.61
104391.89
104199.64
104005.73
103811.69
103618.8
103428.07
103240.33
103056.22
102876.26
102700.85
102530.29
102364.82
102204.62
102049.8
101900.47
101756.72
101618.6
101486.18
101359.53
101238.72
101123.82
101014.97
100912.28
100815.95
100726.18
100643.21
100567.28
100498.66
100437.57
100384.27
100338.95
100301.82
100273.05
100252.78
100241.13
100238.17
100243.84
100257.87
100279.68
100308.31
100342.25
100379.38
100416.95
100452.17
100483.42
100509.94
100528.74
100535.3
100540.15
100585.8
100697.24
100771.59
94291.169
96585.618
97034.833
98740.32
99769.449
101005.03
102098.36
103111.03
104006.32
104778.13
105422.33
105941.01
106340.57
106630.64
106822.7
106929.11
106962.15
106933.55
106854.04
106733.21
106579.45
106399.96
106200.84
105987.23
105763.38
105532.81
105298.39
105062.45
104826.89
104593.2
104362.58
104135.98
103914.13
103697.56
103486.71
103281.86
103083.21
102890.9
102704.99
102525.49
102352.41
102185.71
102025.33
101871.25
101723.39
101581.72
101446.21
101316.84
101193.62
101076.58
100965.82
100861.47
100763.68
100672.66
100588.61
100511.77
100442.37
100380.63
100326.78
100281.06
100243.67
100214.82
100194.69
100183.36
100180.74
100186.45
100199.75
100219.38
100243.55
100269.81
100295.4
100317.95
100336.4
100350.86
100360.32
100361.38
100368.66
100418.11
100522.71
100589.02
96455.481
99206.86
99892.877
101737.33
102973.81
104256.18
105331.81
106250.26
106998.85
107583.25
108014.23
108307.2
108479.63
108549.47
108533.96
108448.86
108308.12
108123.78
107906.02
107663.31
107402.62
107129.63
106848.92
106564.17
106278.3
105993.62
105711.92
105434.62
105162.77
104897.18
104638.44
104386.95
104143
103906.74
103678.26
103457.57
103244.6
103039.28
102841.47
102651.05
102467.83
102291.68
102122.42
101959.91
101803.98
101654.53
101511.42
101374.57
101243.92
101119.47
101001.26
100889.36
100783.92
100685.11
100593.11
100508.13
100430.43
100360.23
100297.83
100243.5
100197.53
100160.21
100131.76
100112.28
100101.64
100099.32
100104.35
100115.22
100129.81
100145.57
100160.02
100171.44
100179.08
100183.94
100188.31
100189.28
100201.94
100256.07
100355.25
100424.17
99454.22
102577.3
103566.73
105476.03
106754.56
107895.01
108789.87
109463.52
109933.25
110225.12
110366.42
110384.02
110302.42
110143.05
109924.08
109660.55
109364.66
109046.22
108712.97
108371.01
108025.11
107678.95
107335.33
106996.42
106663.8
106338.67
106021.89
105714.03
105415.48
105126.48
104847.11
104577.38
104317.21
104066.48
103824.99
103592.54
103368.88
103153.78
102946.95
102748.13
102557.05
102373.45
102197.08
102027.71
101865.1
101709.06
101559.4
101415.97
101278.68
101147.47
101022.35
100903.37
100790.64
100684.32
100584.6
100491.68
100405.85
100327.38
100256.63
100193.96
100139.76
100094.41
100058.21
100031.25
100013.32
100003.74
100001.33
100004.27
100010.26
100016.8
100021.96
100024.86
100025.48
100025.13
100025.74
100028.82
100047.12
100106
100202.82
100275.6
103545.98
106880.32
108069.82
109724.44
110825.14
111637.16
112159.18
112444.83
112537.72
112479.99
112307.26
112049.11
111729.2
111366.13
110974.3
110564.71
110145.67
109723.44
109302.68
108886.81
108478.34
108079.04
107690.16
107312.55
106946.73
106592.98
106251.42
105922.01
105604.65
105299.11
105005.15
104722.46
104450.72
104189.57
103938.67
103697.64
103466.1
103243.68
103030.02
102824.76
102627.53
102438.02
102255.9
102080.86
101912.63
101750.93
101595.54
101446.27
101302.96
101165.54
101033.99
100908.35
100788.71
100675.22
100568.08
100467.53
100373.89
100287.51
100208.84
100138.34
100076.53
100023.88
99980.765
99947.259
99923.054
99907.318
99898.622
99894.927
99893.801
99893.011
99891.302
99888.676
99885.776
99883.236
99882.3
99887.257
99909.772
99970.742
100064.47
100139.45
108662.66
111961.81
113057.83
114162.08
114761.02
115039.22
115059.72
114894.4
114596.19
114206.57
113756.36
113268.29
112758.8
112239.73
111719.51
111204.07
110697.53
110202.71
109721.46
109254.99
108803.96
108368.7
107949.28
107545.59
107157.37
106784.28
106425.92
106081.84
105751.57
105434.61
105130.48
104838.66
104558.68
104290.02
104032.22
103784.81
103547.3
103319.26
103100.25
102889.83
102687.61
102493.19
102306.2
102126.3
101953.14
101786.42
101625.86
101471.25
101322.4
101179.22
101041.66
100909.75
100783.6
100663.34
100549.21
100441.48
100340.53
100246.8
100160.83
100083.21
100014.58
99955.513
99906.428
99867.389
99837.996
99817.297
99803.656
99794.79
99788.236
99782.096
99775.796
99770.131
99765.922
99762.881
99761.168
99765.354
99789.136
99850.172
99941.199
100014.8
114753.71
117217.97
117816.67
118092.78
118000.95
117679.4
117205.85
116639.61
116020.42
115375.18
114721.75
114071.85
113433.09
112810.27
112206.31
111622.88
111060.8
110520.32
110001.29
109503.33
109025.91
108568.37
108130.01
107710.12
107307.93
106922.73
106553.77
106200.36
105861.8
105537.43
105226.6
104928.71
104643.14
104369.32
104106.7
103854.74
103612.91
103380.73
103157.69
102943.34
102737.24
102538.95
102348.07
102164.21
101987.01
101816.12
101651.25
101492.15
101338.61
101190.52
101047.82
100910.55
100778.79
100652.71
100532.55
100418.64
100311.4
100211.36
100119.14
100035.46
99961.042
99896.581
99842.532
99798.95
99765.415
99740.916
99723.569
99710.853
99700.462
99690.878
99681.942
99674.954
99670.485
99666.986
99663.243
99664.54
99686.95
99746.802
99835.101
99903.635
121250.51
121683.89
121471.09
120934.05
120218.4
119412.26
118570.57
117724.42
116891.91
116083.05
115303.12
114554.57
113838.19
113153.75
112500.46
111877.21
111282.72
110715.66
110174.68
109658.45
109165.7
108695.22
108245.87
107816.54
107406.21
107013.92
106638.75
106279.84
105936.39
105607.62
105292.81
104991.27
104702.34
104425.4
104159.84
103905.1
103660.62
103425.87
103200.34
102983.54
102775
102574.27
102380.92
102194.54
102014.74
101841.15
101673.45
101511.37
101354.69
101203.26
101057.03
100915.99
100780.23
100649.93
100525.32
100406.76
100294.71
100189.73
100092.54
100003.94
99924.75
99855.752
99797.542
99750.264
99713.346
99685.645
99665.479
99650.104
99636.996
99625.451
99615.064
99607.558
99603.034
99598.714
99592.603
99590.27
99609.265
99666.375
99751.576
99816.751
125048.36
124436.21
123540.16
122510.09
121448.41
120398.27
119381.86
118408.28
117480.89
116599.9
115764.03
114971.24
114219.22
113505.54
112827.86
112183.91
111571.58
110988.91
110434.08
109905.41
109401.36
108920.49
108461.5
108023.18
107604.38
107204.07
106821.27
106455.07
106104.62
105769.12
105447.82
105139.99
104844.98
104562.13
104290.84
104030.51
103780.58
103540.51
103309.77
103087.87
102874.31
102668.64
102470.41
102279.18
102094.55
101916.14
101743.58
101576.59
101414.92
101258.41
101106.96
100960.57
100819.32
100683.38
100552.99
100428.52
100310.45
100199.43
100096.24
100001.77
99916.92
99842.62
99779.818
99728.553
99687.233
99655.427
99635.077
99618.845
99601.531
99590.589
99577.719
99571.09
99565.599
99560.502
99551.775
99546.657
99563.132
99618.68
99702.463
99765.802
103981.64
103957.87
104012.43
104065.34
104106.17
104121.12
104107.97
104081.74
104049.03
104006.31
103949.41
103879.11
103798.57
103713.57
103624.26
103531
103434.02
103333.95
103231.25
103126.35
103019.66
102911.56
102802.42
102692.55
102582.25
102471.79
102361.43
102251.4
102141.91
102033.17
101925.35
101818.65
101713.21
101609.21
101506.8
101406.13
101307.33
101210.56
101115.95
101023.63
100933.73
100846.39
100761.73
100679.86
100600.89
100524.92
100452.01
100382.24
100315.66
100252.32
100192.23
100135.4
100081.83
100031.51
99984.458
99940.645
99900.002
99862.337
99827.236
99793.992
99761.707
99729.008
99694.785
99658.47
99621.675
99583.161
99554.348
99523.002
99523.289
99498.344
99533.097
99497.738
99570.685
99513.253
99633.843
99561.448
99687.566
99548.565
99831.054
99499.796
103460.07
103453.16
103463.65
103474.72
103468.58
103455.46
103439.75
103418.01
103384.21
103344.9
103298.34
103247.15
103189.82
103128.24
103061.75
102991.63
102917.69
102840.53
102760.33
102677.45
102592.18
102504.79
102415.58
102324.82
102232.76
102139.67
102045.8
101951.4
101856.69
101761.91
101667.29
101573.03
101479.35
101386.45
101294.53
101203.78
101114.39
101026.54
100940.41
100856.17
100773.99
100694.02
100616.43
100541.34
100468.9
100399.21
100332.37
100268.46
100207.54
100149.69
100094.9
100043.2
99994.575
99949.024
99906.543
99867.12
99830.694
99797.097
99765.968
99736.685
99708.313
99679.497
99649.791
99617.553
99585.105
99551.152
99526.019
99499.598
99502.55
99484.068
99522.286
99492.527
99570.433
99511.896
99634.609
99560.078
99695.992
99552.762
99837.629
99508.519
103073.12
103053.7
103014.97
102974.69
102938.3
102904.09
102865.04
102827.39
102786.12
102745.21
102700.06
102654.54
102605.08
102554.46
102500.48
102444.68
102386.1
102325.34
102262.2
102196.88
102129.44
102060.02
101988.75
101915.77
101841.25
101765.36
101688.26
101610.16
101531.24
101451.7
101371.74
101291.56
101211.38
101131.39
101051.82
100972.86
100894.72
100817.62
100741.75
100667.3
100594.48
100523.46
100454.43
100387.53
100322.93
100260.76
100201.15
100144.19
100089.97
100038.55
99989.95
99944.189
99901.262
99861.166
99823.894
99789.434
99757.733
99728.655
99701.898
99676.919
99652.827
99628.521
99603.307
99575.889
99547.818
99518.559
99497.313
99475.727
99481.803
99469.413
99512.209
99487.569
99568.384
99511.215
99635.035
99558.661
99704.857
99558.851
99842.158
99517.929
102423.73
102399.11
102367.31
102332.11
102297.48
102266.45
102230.96
102198.9
102162.18
102128.23
102090.04
102053.66
102013.58
101974.16
101931.84
101889.02
101844.01
101797.68
101749.53
101699.74
101648.23
101595.02
101540.14
101483.65
101425.61
101366.1
101305.23
101243.12
101179.9
101115.73
101050.76
100985.16
100919.12
100852.83
100786.48
100720.27
100654.41
100589.12
100524.59
100461.04
100398.67
100337.68
100278.25
100220.57
100164.8
100111.1
100059.63
100010.49
99963.809
99919.604
99877.93
99838.806
99802.231
99768.197
99736.697
99707.711
99681.198
99657.052
99635.037
99614.688
99595.251
99575.869
99555.259
99532.947
99509.808
99485.589
99468.547
99451.841
99461.185
99454.777
99502.519
99482.762
99564.309
99510.737
99636.288
99557.638
99713.663
99566.409
99846.918
99528.114
101651.09
101636.23
101620.82
101602.64
101582.52
101566.36
101544.1
101526.59
101502.84
101483.2
101458.02
101435.87
101409.03
101383.81
101355.23
101326.86
101296.22
101264.61
101231.26
101196.44
101160.04
101122.05
101082.48
101041.34
100998.66
100954.5
100908.91
100861.98
100813.79
100764.45
100714.1
100662.85
100610.87
100558.32
100505.36
100452.19
100399
100345.97
100293.32
100241.26
100189.97
100139.66
100090.53
100042.77
99996.549
99952.039
99909.382
99868.789
99830.278
99793.931
99759.806
99727.919
99698.267
99670.837
99645.612
99622.566
99601.66
99582.819
99565.871
99550.468
99536.105
99521.607
99506.263
99489.199
99471.291
99452.41
99439.869
99428.13
99440.783
99440.167
99491.805
99478.106
99561.874
99510.934
99636.232
99557.644
99722.064
99574.826
99850.095
99538.558
100918.79
100914.36
100910.63
100906.46
100898.56
100895.38
100884.78
100880.41
100868.27
100861.71
100848.3
100839.13
100824.18
100811.8
100795.47
100779.89
100761.89
100743.22
100722.83
100701.15
100678.02
100653.45
100627.45
100600
100571.11
100540.81
100509.13
100476.11
100441.81
100406.31
100369.68
100332.05
100293.52
100254.23
100214.32
100173.96
100133.31
100092.55
100051.87
100011.46
99971.496
99932.186
99893.718
99856.283
99820.064
99785.235
99751.958
99720.331
99690.491
99662.513
99636.44
99612.284
99590.038
99569.676
99551.165
99534.469
99519.547
99506.346
99494.75
99484.507
99475.117
99465.883
99456.066
99444.634
99432.35
99419.133
99411.431
99404.816
99420.837
99425.762
99479.786
99473.34
99560.537
99511.812
99636.074
99559.173
99729.782
99583.629
99852.41
99548.926
100271.38
100273.4
100275.14
100279.09
100278.51
100284.08
100280.9
100285.63
100281.26
100284.15
100278.94
100279.47
100273.58
100271.64
100265.13
100259.51
100251.35
100243.05
100233.29
100222.55
100210.63
100197.5
100183.15
100167.55
100150.69
100132.56
100113.17
100092.54
100070.72
100047.73
100023.65
99998.552
99972.524
99945.672
99918.116
99889.988
99861.429
99832.594
99803.642
99774.742
99746.066
99717.792
99690.102
99663.174
99637.186
99612.303
99588.668
99566.408
99545.627
99526.401
99508.769
99492.739
99478.293
99465.389
99453.971
99443.981
99435.375
99428.113
99422.126
99417.251
99413.166
99409.291
99404.937
99399.394
99393.025
99385.805
99383.316
99382.045
99401.564
99411.865
99468.594
99469.089
99556.039
99513.286
99636.355
99562.337
99736.854
99592.594
99853.426
99559.467
99700.663
99707.123
99711.842