/*--------------------------------*- C++ -*----------------------------------*\
  =========                 |
  \\      /  F ield         | OpenFOAM: The Open Source CFD Toolbox
   \\    /   O peration     | Website:  https://openfoam.org
    \\  /    A nd           | Version:  12
     \\/     M anipulation  |
\*---------------------------------------------------------------------------*/
FoamFile
{
    format      ascii;
    class       volVectorField;
    location    "0.031";
    object      U;
}
// * * * * * * * * * * * * * * * * * * * * * * * * * * * * * * * * * * * * * //

dimensions      [0 1 -1 0 0 0 0];

internalField   nonuniform List<vector> 
16000
(
(213.25699 -3.1754327e-17 -8.1832991)
(249.6841 0 5.2546101)
(236.12041 0 -7.3469376)
(243.55997 5.0307712e-17 3.6781959)
(239.02521 -4.9640167e-17 -5.7169424)
(241.14223 0 1.7033049)
(239.42443 0 -4.0910715)
(239.89438 8.4962611e-17 -0.0043281517)
(239.09114 -8.0713905e-17 -2.9337386)
(238.96192 0 -1.1575284)
(238.46489 7.2920757e-17 -2.3455475)
(238.12213 -2.0774365e-16 -1.7966183)
(237.68801 1.314841e-16 -2.1858992)
(237.26693 -1.2505937e-16 -2.1122789)
(236.81832 1.1865538e-16 -2.2443383)
(236.35578 -3.5193288e-18 -2.2925888)
(235.87476 -3.3430222e-18 -2.3691769)
(235.37622 -9.8643722e-17 -2.4344099)
(234.85969 1.9325832e-16 -2.5001041)
(234.32511 -9.1691131e-17 -2.56237)
(233.77238 1.7438808e-16 -2.621551)
(233.20152 -1.6530635e-16 -2.6769197)
(232.61261 0 -2.7279581)
(232.00581 1.5384437e-16 -2.7740673)
(231.38141 -4.1743048e-18 -2.8146485)
(230.73978 -2.6848233e-16 -2.8490768)
(230.08144 1.2724823e-16 -2.8767294)
(229.40702 0 -2.8969786)
(228.7173 0 -2.9092112)
(228.0132 2.2092006e-16 -2.9128341)
(227.2958 -2.0584376e-16 -2.9072893)
(226.56631 0 -2.8920661)
(225.82612 0 -2.8667124)
(225.07674 0 -2.8308527)
(224.31986 5.1905993e-18 -2.7842003)
(223.55727 1.5751415e-16 -2.7265714)
(222.79094 -1.4419676e-16 -2.6579006)
(222.02291 -1.4119331e-16 -2.5782521)
(221.25536 1.2502413e-16 -2.4878321)
(220.49057 0 -2.3870026)
(219.73088 -1.1960808e-16 -2.2762864)
(218.9787 1.1290071e-16 -2.156378)
(218.23652 -2.1389744e-16 -2.0281472)
(217.50684 2.018133e-16 -1.892643)
(216.79223 -1.9702788e-16 -1.7510955)
(216.09526 3.6069789e-16 -1.6049164)
(215.41854 5.6122593e-18 -1.4557008)
(214.76469 2.6353798e-19 -1.3052285)
(214.13634 -1.5174263e-16 -1.1554627)
(213.53616 1.4344544e-16 -1.0085482)
(212.96676 -1.2670418e-16 -0.86680097)
(212.43076 0 -0.73269352)
(211.93068 7.5238473e-18 -0.60883156)
(211.46898 0 -0.49791564)
(211.04797 6.690378e-18 -0.40270091)
(210.6697 2.0824265e-16 -0.32592795)
(210.33576 -3.8048392e-16 -0.27017445)
(210.04702 1.1009194e-17 -0.23770593)
(209.80336 1.6891607e-16 -0.23023375)
(209.60302 -1.4941723e-16 -0.24868359)
(209.44241 1.4067262e-16 -0.29291953)
(209.3154 -8.8458413e-18 -0.36129836)
(209.21244 0 -0.45018287)
(209.11966 0 -0.55340989)
(209.01843 -1.113129e-16 -0.6622207)
(208.88636 1.1192497e-16 -0.76691315)
(208.70024 -9.9179493e-17 -0.85904988)
(208.43803 1.9354897e-16 -0.93016947)
(208.07441 -1.8891622e-16 -0.97086168)
(207.58276 8.3767628e-17 -0.97171926)
(206.94349 5.2950502e-18 -0.92650651)
(206.1582 0 -0.83901997)
(205.26013 4.7714207e-18 -0.72360107)
(204.32288 -4.5383891e-18 -0.61123174)
(203.43785 0 -0.55518461)
(202.8426 -3.3999745e-17 -0.56285753)
(202.33753 6.2919611e-17 -0.72401951)
(202.39131 -3.1935524e-17 -0.84975685)
(202.01739 0 -0.77810191)
(202.68008 0 -1.8686479)
(214.51743 0 -10.972736)
(251.31483 -3.774004e-18 3.2322553)
(237.0374 -1.2120403e-16 -10.251157)
(245.01836 1.1180127e-16 1.6224699)
(240.11521 0 -8.5571186)
(242.47214 1.0283865e-16 -0.43030186)
(240.54058 -1.8987134e-16 -6.8188397)
(241.10884 -9.9954345e-20 -2.2590278)
(240.20813 8.5561271e-17 -5.5129679)
(240.08401 0 -3.5327223)
(239.54488 -1.5453127e-16 -4.8103668)
(239.17465 1.5115886e-16 -4.2228355)
(238.70896 1.4375141e-16 -4.6046564)
(238.25448 -2.6461758e-16 -4.5303275)
(237.77224 1.2164247e-16 -4.6451808)
(237.27434 1.1181838e-17 -4.6868274)
(236.75705 1.1692124e-16 -4.7495414)
(236.22104 -1.0413217e-16 -4.8024501)
(235.66597 0 -4.8536444)
(235.09183 0 -4.9004057)
(234.49859 5.7443955e-18 -4.9426127)
(233.88637 -1.8020461e-16 -4.9795372)
(233.25535 3.4169257e-16 -5.0105394)
(232.60584 -3.1926741e-16 -5.0349314)
(231.93826 1.44304e-16 -5.0520181)
(231.25315 0 -5.061096)
(230.55122 1.2583017e-16 -5.0614613)
(229.83331 -1.3492903e-16 -5.0524257)
(229.10039 0 -5.0333259)
(228.35363 3.5639447e-18 -5.0035371)
(227.59433 -1.3519753e-17 -4.9624849)
(226.82397 0 -4.9096649)
(226.04418 0 -4.8446504)
(225.25673 -1.7248142e-16 -4.7671163)
(224.46357 3.4247635e-16 -4.6768492)
(223.66673 -1.6444944e-16 -4.5737637)
(222.86842 -1.6077561e-16 -4.4579183)
(222.07091 1.4715598e-16 -4.3295254)
(221.27657 -1.1331139e-16 -4.1889644)
(220.48784 -2.6679683e-19 -4.0367911)
(219.7072 -2.4841306e-19 -3.8737436)
(218.93718 2.3511687e-16 -3.7007475)
(218.18031 -1.1092475e-16 -3.5189167)
(217.43912 0 -3.3295527)
(216.71616 2.0427821e-16 -3.1341438)
(216.01392 1.2006821e-17 -2.9343617)
(215.3349 -5.203648e-18 -2.7320582)
(214.68155 -1.6601713e-16 -2.5292615)
(214.05631 0 -2.3281689)
(213.46158 -1.4776627e-16 -2.1311387)
(212.8997 -8.8989606e-18 -1.9406746)
(212.37294 2.6213776e-16 -1.7594032)
(211.88346 -1.3107266e-16 -1.5900431)
(211.43327 0 -1.435358)
(211.02419 -2.0518152e-17 -1.2981006)
(210.65775 -2.1251142e-16 -1.1809375)
(210.33501 3.6337231e-16 -1.0863034)
(210.05626 -2.1642902e-16 -1.0162267)
(209.82072 0 -0.97213257)
(209.62606 -1.7151851e-16 -0.9545947)
(209.4681 1.8014529e-16 -0.96309083)
(209.34027 2.6768512e-17 -0.99564603)
(209.23272 0 -1.0484418)
(209.13171 -1.421875e-16 -1.1154628)
(209.0195 7.3077937e-18 -1.1885102)
(208.87512 1.1182945e-16 -1.2583906)
(208.67613 -1.9756625e-17 -1.316146)
(208.39965 9.3108245e-17 -1.3522779)
(208.01953 -1.0522653e-16 -1.3562229)
(207.50913 5.516959e-18 -1.3183946)
(206.85169 -5.2092912e-18 -1.2355647)
(206.05485 0 -1.1164038)
(205.15836 -4.6582526e-18 -0.97918885)
(204.23404 4.4117119e-18 -0.85276105)
(203.39137 8.3665702e-18 -0.77477182)
(202.76385 9.9155554e-19 -0.77435938)
(202.36221 0 -0.89854685)
(202.27903 3.0390939e-17 -1.0562967)
(202.15489 -5.7759501e-17 -0.90716516)
(202.39793 2.5843474e-17 -2.1150866)
(215.66385 0 -13.839163)
(252.80666 -1.2415765e-16 1.0148168)
(237.98583 2.5301458e-16 -13.236509)
(246.28635 -2.2604803e-16 -0.60692463)
(241.11549 1.1160475e-16 -11.474219)
(243.60872 -3.3051948e-18 -2.7547672)
(241.55082 1.0057694e-16 -9.593333)
(242.14484 -9.5260273e-17 -4.7144457)
(241.18828 -5.6538287e-18 -8.1498394)
(241.04104 -5.3680137e-18 -6.0762693)
(240.46726 -1.0196591e-17 -7.3689834)
(240.0619 1.4067859e-16 -6.784456)
(239.56157 -1.4259679e-16 -7.1386958)
(239.06961 1.3993358e-16 -7.0704427)
(238.54936 -1.2021099e-16 -7.1657581)
(238.01188 -1.5753625e-17 -7.1999951)
(237.45382 0 -7.2482386)
(236.87584 -1.3686528e-20 -7.2874035)
(236.27768 -2.2908415e-16 -7.322723)
(235.65941 -3.5654149e-19 -7.3521464)
(235.02114 1.7557983e-16 -7.3752371)
(234.36311 1.7244077e-17 -7.3911889)
(233.68567 -2.1810715e-17 -7.3992432)
(232.98928 0 -7.3986113)
(232.27456 9.4471008e-21 -7.3885055)
(231.54227 -1.6738867e-16 -7.3681421)
(230.79333 1.4954823e-16 -7.3367553)
(230.02882 8.3464396e-18 -7.2936065)
(229.25 0 -7.2380046)
(228.45829 -7.4867168e-18 -7.1693145)
(227.65528 2.2600459e-21 -7.0869783)
(226.84274 -2.014626e-16 -6.9905298)
(226.0226 2.0290348e-16 -6.8796113)
(225.19694 1.2016234e-17 -6.7539944)
(224.36797 -1.8195462e-16 -6.6135909)
(223.53802 1.5017782e-16 -6.4584726)
(222.70954 -1.8293564e-16 -6.2888824)
(221.88503 1.5333941e-16 -6.1052476)
(221.06706 -1.4515231e-16 -5.9081854)
(220.25824 1.3679859e-16 -5.6985129)
(219.46117 1.6168633e-17 -5.4772481)
(218.67843 0 -5.2456078)
(217.9126 2.0164355e-16 -5.0050063)
(217.16617 -2.4406402e-16 -4.7570489)
(216.4416 0 -4.5035242)
(215.74128 1.810381e-16 -4.2463986)
(215.06752 -1.5887415e-16 -3.9878044)
(214.42256 1.7133338e-16 -3.7300318)
(213.80855 -1.81214e-16 -3.4755155)
(213.2276 0 -3.2268202)
(212.68172 1.7855383e-16 -2.9866221)
(212.17277 -1.341787e-16 -2.7576818)
(211.7025 0 -2.542806)
(211.27243 0 -2.344793)
(210.88385 1.255575e-16 -2.1663555)
(210.53774 -2.0961388e-16 -2.0100248)
(210.23455 1.2300088e-16 -1.8780241)
(209.97396 1.8500011e-16 -1.7721064)
(209.75448 1.8496575e-19 -1.6933451)
(209.57305 1.7085013e-19 -1.6418918)
(209.42476 -3.2512991e-16 -1.6167321)
(209.30235 8.9676609e-17 -1.6153876)
(209.19546 0 -1.6336423)
(209.09021 1.4240111e-16 -1.6653802)
(208.96933 -1.6325241e-16 -1.702776)
(208.81294 1.1157586e-16 -1.7370673)
(208.59973 1.3201976e-17 -1.7590295)
(208.30655 -8.6051328e-17 -1.7585812)
(207.90707 1.1560337e-17 -1.7244449)
(207.37563 2.1754464e-17 -1.6470797)
(206.69906 -1.023913e-16 -1.525856)
(205.89039 9.636924e-17 -1.3734308)
(204.99525 -7.271583e-17 -1.2116456)
(204.09077 1.3711988e-16 -1.0690974)
(203.28462 -5.6586364e-17 -0.97776242)
(202.68367 -6.1087311e-17 -0.96310826)
(202.33036 5.0453447e-17 -1.0645424)
(202.20283 0 -1.2214675)
(202.1977 3.2129205e-18 -0.99577548)
(202.16574 -1.2141973e-17 -2.3118374)
(216.66965 0 -16.770079)
(254.16086 0 -1.3381143)
(238.75285 0 -16.355829)
(247.39925 1.0803373e-16 -2.9373786)
(241.94509 -1.2540612e-16 -14.518749)
(244.59388 -2.2337259e-16 -5.1920151)
(242.39425 2.1241559e-16 -12.484258)
(243.01855 -1.2579575e-17 -7.2924377)
(241.99764 5.9905938e-18 -10.896446)
(241.82454 -1.7613659e-16 -8.746743)
(241.21124 1.7243389e-16 -10.037333)
(240.76577 1.0247603e-17 -9.4679695)
(240.22607 -1.5558573e-16 -9.7872915)
(239.69153 1.3820953e-16 -9.7264819)
(239.12828 -1.5680854e-20 -9.8009508)
(238.54616 -8.2847236e-18 -9.8258863)
(237.94237 0 -9.8580939)
(237.31751 -7.4810592e-18 -9.8811426)
(236.6715 -2.1290856e-16 -9.8980166)
(236.00453 2.1498365e-16 -9.907099)
(235.31684 1.2761172e-17 -9.9077201)
(234.60884 -1.2097927e-17 -9.8989863)
(233.88106 2.1795747e-16 -9.8800412)
(233.13419 -1.7361805e-16 -9.8500091)
(232.36905 1.0296024e-17 -9.8080202)
(231.58667 1.9518309e-16 -9.7532291)
(230.78823 -1.2911988e-16 -9.6848177)
(229.97512 0 -9.6020209)
(229.14889 1.4915044e-16 -9.5041373)
(228.3113 -1.2519897e-16 -9.3905541)
(227.46427 2.5227322e-16 -9.2607588)
(226.6099 -1.3504968e-17 -9.1143672)
(225.75047 -2.1188863e-16 -8.9511361)
(224.88837 1.7569717e-16 -8.7709852)
(224.02613 -1.892826e-16 -8.5740103)
(223.16637 -2.2792288e-20 -8.3605011)
(222.31176 2.1152421e-16 -8.1309499)
(221.46504 -3.1920547e-16 -7.88606)
(220.62894 9.3951933e-17 -7.6267511)
(219.80617 3.5552681e-17 -7.3541588)
(218.99939 -5.0271074e-17 -7.069633)
(218.21119 0 -6.7747288)
(217.44407 -8.9412082e-17 -6.4711983)
(216.70043 1.4005169e-16 -6.1609774)
(215.98256 -2.1138037e-16 -5.8461735)
(215.2926 1.9861195e-16 -5.5290531)
(214.6326 -2.1057418e-16 -5.2120242)
(214.00447 3.9587747e-16 -4.8976218)
(213.41003 -3.1016227e-16 -4.5884913)
(212.85098 3.1094025e-16 -4.2873689)
(212.32891 -1.4592844e-16 -3.9970603)
(211.84524 1.3728049e-16 -3.7204129)
(211.40123 -9.6500345e-17 -3.4602708)
(210.99788 3.0238465e-17 -3.2194133)
(210.63593 0 -3.0004613)
(210.31577 0 -2.8057708)
(210.03728 0 -2.6373119)
(209.79956 2.3370892e-17 -2.4965208)
(209.60049 0 -2.3840948)
(209.43636 -1.6430981e-16 -2.2997364)
(209.30161 1.9224551e-16 -2.2419186)
(209.18841 -1.0816026e-16 -2.2076441)
(209.086 -1.3841613e-19 -2.1922709)
(208.98056 2.5279835e-16 -2.1895237)
(208.85526 2.9712551e-17 -2.1917841)
(208.69107 -1.3854917e-16 -2.190579)
(208.46737 5.1976698e-17 -2.1766188)
(208.16108 -1.4596309e-16 -2.1392973)
(207.74635 -4.5631692e-17 -2.0669858)
(207.19968 -6.4177716e-17 -1.951092)
(206.51164 -6.0247803e-17 -1.7935478)
(205.69886 5.6488736e-17 -1.6097072)
(204.81 0 -1.4234121)
(203.9256 0 -1.2642388)
(203.1511 -1.5620667e-17 -1.1612465)
(202.58672 0 -1.1312458)
(202.26212 6.8992736e-18 -1.2168677)
(202.13053 5.1842984e-17 -1.3530489)
(202.1922 -7.3065439e-17 -1.0814488)
(201.92973 3.6290788e-21 -2.4946804)
(217.52214 0 -19.896754)
(255.35889 -8.9338245e-18 -3.7719818)
(239.39909 2.7005827e-16 -19.615618)
(248.29009 -2.5234306e-16 -5.390338)
(242.56387 2.5740169e-16 -17.679676)
(245.39322 -2.3553741e-16 -7.7798765)
(243.05696 -2.2447661e-16 -15.480081)
(243.69762 2.1251024e-16 -10.025783)
(242.61595 0 -13.744768)
(242.40574 0 -11.56441)
(241.75066 1.820742e-16 -12.817968)
(241.25806 -1.7248674e-16 -12.282161)
(240.67403 -1.0247053e-17 -12.556839)
(240.09141 2.9139347e-17 -12.503218)
(239.4799 -9.2223979e-18 -12.554775)
(238.84799 3.4971679e-17 -12.56694)
(238.19344 0 -12.580231)
(237.51683 0 -12.583461)
(236.8182 -2.3877998e-16 -12.578037)
(236.09789 2.1176953e-16 -12.562572)
(235.35631 0 -12.53622)
(234.59406 0 -12.497995)
(233.81189 -1.9263072e-16 -12.446925)
(233.01076 3.6452584e-16 -12.382046)
(232.19178 -1.7240414e-16 -12.302403)
(231.3563 -2.0425059e-17 -12.207084)
(230.50584 -3.8675739e-17 -12.095233)
(229.64216 -1.4652956e-16 -11.966071)
(228.7672 1.2098445e-16 -11.818922)
(227.88311 0 -11.653226)
(226.99221 -3.0973562e-17 -11.468572)
(226.097 0 -11.264716)
(225.20012 0 -11.041595)
(224.30433 2.0905549e-16 -10.799353)
(223.41246 -2.2158311e-16 -10.538351)
(222.52741 2.3244513e-17 -10.259177)
(221.6521 -2.1929931e-17 -9.9626555)
(220.78941 -4.1438516e-17 -9.6498474)
(219.94219 -7.1361448e-20 -9.3220488)
(219.11318 6.783293e-20 -8.9807815)
(218.30503 -6.4009284e-20 -8.6277858)
(217.52021 0 -8.2650002)
(216.76108 -1.2293175e-16 -7.8945497)
(216.0298 1.154392e-16 -7.518722)
(215.32837 0 -7.1399494)
(214.65862 -5.1130087e-17 -6.7607926)
(214.02221 1.9214737e-16 -6.3839147)
(213.42064 -2.2524616e-16 -6.0120652)
(212.85529 -2.1180899e-16 -5.6480581)
(212.32738 1.587927e-16 -5.2947512)
(211.83802 1.119279e-16 -4.9550224)
(211.38814 -1.3970718e-16 -4.63174)
(210.97847 -3.2744361e-17 -4.3277147)
(210.60945 -2.1498599e-16 -4.0456341)
(210.28126 1.1495413e-16 -3.7879656)
(209.9937 -1.0775452e-16 -3.5568466)
(209.74608 1.0075459e-16 -3.3539563)
(209.53689 2.3593703e-16 -3.1803621)
(209.36345 -1.7638579e-16 -3.036318)
(209.2214 0 -2.9210077)
(209.10459 -3.8562208e-17 -2.8323471)
(209.00463 -7.2158056e-17 -2.766813)
(208.91054 1.3473365e-16 -2.7193685)
(208.80851 1.2603473e-16 -2.6835918)
(208.68214 -2.354247e-16 -2.6519229)
(208.51301 8.2413168e-17 -2.6159109)
(208.28078 5.1383127e-17 -2.5660103)
(207.96258 9.6080646e-17 -2.4911442)
(207.53386 1.3476451e-16 -2.3799431)
(206.97453 4.5129439e-20 -2.2257626)
(206.27969 0 -2.0333664)
(205.46911 0 -1.8199375)
(204.59242 -3.4423084e-17 -1.6102321)
(203.73019 9.6683546e-17 -1.4345078)
(202.98805 -9.0473112e-17 -1.317889)
(202.46589 -8.4710432e-17 -1.2747091)
(202.16472 5.2826775e-17 -1.3479619)
(202.05018 0 -1.4513886)
(202.13541 4.6206065e-17 -1.1463415)
(201.67062 -1.3236468e-20 -2.6604325)
(218.19949 0 -23.195663)
(256.37033 2.1337127e-20 -6.291265)
(239.86823 9.1917577e-18 -22.980958)
(249.02193 2.9226787e-16 -7.9816211)
(243.01875 3.2606377e-19 -20.947073)
(245.97692 -5.1254243e-16 -10.521646)
(243.50003 -3.1654531e-19 -18.574073)
(244.15062 4.6218829e-16 -12.920114)
(243.0118 -2.1263285e-16 -16.694815)
(242.75491 -1.2610137e-17 -14.530896)
(242.05575 1.1978994e-17 -15.712769)
(241.51032 -1.8185534e-16 -15.223534)
(240.8777 1.9374057e-16 -15.445656)
(240.24237 -1.8406868e-16 -15.395488)
(239.57798 3.100521e-16 -15.42153)
(238.89159 -3.1236995e-16 -15.416267)
(238.18149 1.3921491e-16 -15.406878)
(237.44824 0 -15.38592)
(236.69208 0 -15.353694)
(235.91353 1.4827752e-17 -15.308857)
(235.11325 -2.8104495e-17 -15.250364)
(234.29211 0 -15.17709)
(233.4512 2.0180336e-16 -15.087926)
(232.59182 4.5781627e-19 -14.981796)
(231.71548 -3.6113866e-16 -14.857663)
(230.82396 1.7063521e-16 -14.714562)
(229.91923 2.018997e-17 -14.551631)
(229.00351 0 -14.36812)
(228.07922 -1.8078694e-16 -14.163432)
(227.14896 1.3633231e-16 -13.937138)
(226.21554 -2.2601779e-16 -13.689005)
(225.28188 2.1276156e-16 -13.419021)
(224.35102 -2.3020097e-16 -13.127401)
(223.42607 2.1669072e-16 -12.814619)
(222.51019 7.6795178e-17 -12.481399)
(221.60649 0 -12.128733)
(220.71806 0 -11.757874)
(219.84787 4.27971e-17 -11.370329)
(218.99877 4.030375e-17 -10.967847)
(218.17343 -3.7939645e-17 -10.552401)
(217.37432 3.5698892e-17 -10.12617)
(216.60373 6.7312953e-17 -9.6915077)
(215.86367 -6.322728e-17 -9.2509277)
(215.15598 3.5639385e-16 -8.807068)
(214.48223 -2.7874601e-16 -8.3626694)
(213.84379 5.2315006e-17 -7.9205523)
(213.24185 -4.9195382e-17 -7.48359)
(212.6774 0 -7.0546896)
(212.15127 2.1614989e-16 -6.636768)
(211.66415 -1.6187682e-16 -6.2327334)
(211.21661 0 -5.845457)
(210.80904 0 -5.4777437)
(210.44161 1.3304479e-16 -5.1322818)
(210.11425 -6.2168445e-17 -4.8115808)
(209.82653 0 -4.5178827)
(209.5777 -1.6319758e-16 -4.2530525)
(209.36649 1.0155377e-16 -4.018436)
(209.19083 1.4246625e-16 -3.8146807)
(209.04745 -1.7714139e-16 -3.6415222)
(208.93144 1.6550229e-16 -3.4975535)
(208.83608 -1.542939e-16 -3.3801009)
(208.75265 6.2653781e-20 -3.2851605)
(208.67006 0 -3.2074039)
(208.57466 6.2660217e-17 -3.1403183)
(208.45041 -2.9198522e-16 -3.0762914)
(208.27915 1.6325119e-16 -3.0065642)
(208.04061 0 -2.9209749)
(207.71233 -1.4201158e-16 -2.8081419)
(207.27179 8.821756e-17 -2.6577241)
(206.70314 1.2355597e-16 -2.4657892)
(206.00637 6.9944654e-20 -2.240011)
(205.2042 -7.1615427e-17 -1.9988367)
(204.3459 1.0029841e-16 -1.7676268)
(203.50992 -1.5594074e-16 -1.5763937)
(202.8025 8.7260903e-17 -1.4443584)
(202.31704 2.7095677e-17 -1.3904906)
(202.03438 5.0566861e-17 -1.4512277)
(201.94899 0 -1.501136)
(202.04949 -4.3862257e-17 -1.184432)
(201.38395 2.0328867e-17 -2.7994784)
(218.67351 0 -26.666775)
(257.18214 9.9440444e-18 -8.9055655)
(240.14633 -3.0985374e-16 -26.460578)
(249.5749 2.5309603e-16 -10.718092)
(243.29186 2.5987644e-16 -24.31195)
(246.32622 -5.0692028e-16 -13.4182)
(243.71105 2.3313448e-16 -21.754036)
(244.34833 2.3601603e-16 -15.979971)
(243.16373 -2.236611e-16 -19.737009)
(242.8526 3.9806244e-17 -17.639287)
(242.10855 0 -18.713899)
(241.50512 0 -18.279617)
(240.81941 -2.263911e-17 -18.444149)
(240.12608 -1.7183855e-16 -18.392614)
(239.40307 1.4221384e-16 -18.391467)
(238.65613 1.9286122e-17 -18.364652)
(237.88414 -3.655593e-17 -18.329071)
(237.08782 3.1190349e-16 -18.279631)
(236.2677 -2.292194e-16 -18.215837)
(235.4246 2.487443e-16 -18.136241)
(234.55957 -2.0555446e-16 -18.039592)
(233.6739 2.7861294e-17 -17.924613)
(232.76911 1.5829501e-16 -17.79007)
(231.84699 -1.9910251e-16 -17.634801)
(230.9096 0 -17.45773)
(229.95923 0 -17.257901)
(228.99843 0 -17.034512)
(228.02997 -1.9931369e-16 -16.786934)
(227.05682 1.8777099e-16 -16.514749)
(226.08215 -3.5564868e-17 -16.217767)
(225.10923 0 -15.896057)
(224.14145 -2.8506704e-16 -15.549962)
(223.18224 2.3827925e-16 -15.18011)
(222.23504 -5.63358e-17 -14.787423)
(221.30322 1.5930935e-16 -14.373126)
(220.39007 -4.9526441e-17 -13.938723)
(219.49869 -1.8777855e-16 -13.485999)
(218.63203 2.2144807e-16 -13.016995)
(217.79279 -1.6625831e-16 -12.533982)
(216.98339 7.8387765e-17 -12.039432)
(216.20601 -7.3563903e-17 -11.53599)
(215.46251 1.382364e-16 -11.026435)
(214.75448 -6.478447e-17 -10.513653)
(214.0832 -2.4371113e-16 -10.0006)
(213.44973 5.138512e-16 -9.4902748)
(212.85484 -2.1398142e-16 -8.9856928)
(212.29914 -1.5071493e-16 -8.4898622)
(211.78301 9.3734374e-17 -8.0057613)
(211.3067 8.8099756e-17 -7.5363212)
(210.87031 -1.6478147e-16 -7.0844048)
(210.4738 1.5393926e-16 -6.6527822)
(210.11702 0 -6.2440961)
(209.7996 1.3462899e-16 -5.8608154)
(209.52094 -1.885153e-16 -5.505178)
(209.2801 5.871701e-17 -5.179118)
(209.0758 5.4712426e-17 -4.8841598)
(208.90619 0 -4.6212605)
(208.76865 0 -4.3905923)
(208.65932 0 -4.1913146)
(208.57278 0 -4.0213899)
(208.5019 0 -3.8775778)
(208.43778 -7.168616e-17 -3.7554954)
(208.3694 0 -3.649637)
(208.28332 -5.5156491e-20 -3.5533756)
(208.16364 2.3128636e-16 -3.458787)
(207.99222 -2.1511721e-16 -3.3564402)
(207.74889 -1.0019759e-16 -3.2354569)
(207.4121 -1.8632812e-16 -3.0845641)
(206.96204 2.5970112e-16 -2.8951773)
(206.38738 4.6073565e-20 -2.6664915)
(205.69292 7.4909587e-17 -2.4087796)
(204.90407 0 -2.1413443)
(204.06923 0 -1.8900966)
(203.26467 0 -1.6834354)
(202.59562 -1.1221268e-16 -1.5365897)
(202.13808 0 -1.4768562)
(201.8732 -9.6861001e-17 -1.5254962)
(201.82272 1.3472057e-16 -1.5236415)
(201.92949 8.3370573e-17 -1.2037742)
(201.12721 -1.9176533e-17 -2.9069214)
(218.94 0 -30.311791)
(257.79473 0 -11.628463)
(240.23011 3.2600141e-16 -30.069177)
(249.94757 1.9550773e-17 -13.606583)
(243.38274 -2.7280656e-16 -27.781286)
(246.45721 0 -16.489449)
(243.75693 1.6346716e-17 -25.018483)
(244.40474 -3.0977899e-17 -19.198677)
(243.08288 0 -22.848778)
(242.69743 1.9525105e-16 -20.869027)
(241.90327 -4.2270469e-16 -21.812032)
(241.23275 2.0014964e-16 -21.439863)
(240.48532 2.3749495e-17 -21.54787)
(239.72503 0 -21.490575)
(238.93425 2.131393e-17 -21.461236)
(238.11766 -3.4372001e-16 -21.408634)
(237.27483 7.5798475e-17 -21.342452)
(236.40672 2.5328327e-16 -21.258985)
(235.51431 2.4049406e-16 -21.157221)
(234.59886 -2.5941787e-16 -21.035595)
(233.66193 0 -20.892693)
(232.70534 -2.9100309e-16 -20.727132)
(231.73122 2.4708781e-16 -20.53761)
(230.74198 -2.0821976e-16 -20.32295)
(229.74031 1.9625683e-16 -20.082123)
(228.72917 -1.8595221e-16 -19.814278)
(227.71178 3.5077991e-16 -19.518795)
(226.69155 -1.655102e-16 -19.195291)
(225.67207 1.5651309e-16 -18.843671)
(224.65707 -2.9504909e-16 -18.464135)
(223.65032 1.3887115e-16 -18.057212)
(222.65565 1.3112841e-16 -17.623763)
(221.6768 -2.4736379e-16 -17.164981)
(220.71742 5.7473722e-17 -16.682393)
(219.78101 -5.4642798e-19 -16.177849)
(218.87083 2.5730579e-16 -15.653484)
(217.98986 0 -15.111712)
(217.14081 1.7441435e-19 -14.555175)
(216.32601 0 -13.986707)
(215.54748 -8.0279754e-17 -13.409299)
(214.80684 -1.5083613e-16 -12.826053)
(214.10537 7.0794127e-17 -12.240136)
(213.44401 0 -11.654752)
(212.8234 -6.2350267e-17 -11.073101)
(212.24388 2.9180428e-16 -10.498347)
(211.70557 -3.2756524e-16 -9.9335995)
(211.20836 -3.0681826e-16 -9.3818898)
(210.75201 2.8647093e-16 -8.8461547)
(210.3361 -1.7870672e-16 -8.3292232)
(209.96014 0 -7.8338013)
(209.62351 0 -7.3624479)
(209.32548 7.2858219e-17 -6.9175402)
(209.0652 6.7971275e-17 -6.5012306)
(208.84157 1.2664751e-16 -6.1153948)
(208.65323 -5.9030909e-17 -5.7615704)
(208.49842 -1.0992656e-16 -5.4408571)
(208.37478 -2.0489825e-16 -5.1537449)
(208.27913 -9.5544152e-17 -4.8998741)
(208.20703 1.7731038e-16 -4.6778119)
(208.15264 0 -4.4849376)
(208.1086 -7.673355e-17 -4.3175538)
(208.066 -1.4259903e-16 -4.1710215)
(208.01398 1.3238776e-16 -4.0396868)
(207.93922 6.136348e-17 -3.9166158)
(207.82574 5.7082234e-17 -3.7931904)
(207.65533 0 -3.6590644)
(207.40826 1.9687996e-16 -3.5029072)
(207.06463 1.8274481e-16 -3.3142532)
(206.60784 -2.5446605e-16 -3.0869002)
(206.03096 7.8720372e-17 -2.8231484)
(205.34301 -7.3084607e-17 -2.5352441)
(204.57155 -1.0851383e-19 -2.2430671)
(203.76389 2.5159958e-16 -1.9727244)
(202.99454 -2.3335548e-16 -1.7502019)
(202.36483 5.3999029e-17 -1.5916441)
(201.9312 1.5029759e-16 -1.5287621)
(201.69004 -4.6388253e-17 -1.5642593)
(201.66961 -4.2849463e-17 -1.5161154)
(201.75166 0 -1.2149666)
(200.86718 3.6413604e-17 -2.9801851)
(219.00938 3.9637426e-16 -34.14517)
(258.21541 5.3221488e-19 -14.469651)
(240.10981 -3.6338106e-16 -33.823779)
(250.13862 0 -16.6636)
(243.23053 0 -31.349823)
(246.42315 -2.7109279e-16 -19.73931)
(243.50796 2.7423628e-16 -28.330589)
(244.01006 6.5037416e-17 -22.569591)
(242.73065 -2.4682734e-16 -26.049433)
(242.27279 2.3346527e-16 -24.235817)
(241.41795 -2.4947777e-16 -25.028058)
(240.6675 2.0969036e-16 -24.715863)
(239.84626 -4.9739298e-17 -24.767568)
(239.00729 -4.7154915e-17 -24.696125)
(238.13723 -1.7869811e-16 -24.634125)
(237.23994 1.6878595e-16 -24.548463)
(236.31568 -3.6039433e-16 -24.444054)
(235.36584 6.0576522e-16 -24.317922)
(234.39191 -2.8620728e-16 -24.168679)
(233.39579 -2.7151175e-16 -23.99464)
(232.37965 2.5604502e-16 -23.794275)
(231.34604 -3.0467896e-17 -23.56615)
(230.29781 -2.2945953e-16 -23.308977)
(229.23816 2.1615946e-16 -23.021667)
(228.17055 2.5600068e-16 -22.703357)
(227.09874 -1.4437541e-16 -22.353451)
(226.02667 0 -21.971667)
(224.95848 2.5809219e-16 -21.55805)
(223.89838 -3.241552e-16 -21.113018)
(222.85066 1.1408346e-16 -20.637361)
(221.81953 -2.8828676e-16 -20.13226)
(220.80912 2.031075e-16 -19.599281)
(219.82336 -6.39738e-17 -19.040359)
(218.86595 2.4042509e-16 -18.457774)
(217.94026 -2.2552965e-16 -17.854128)
(217.04932 -2.1249896e-16 -17.232289)
(216.19573 1.9917394e-16 -16.595355)
(215.38168 -4.6715274e-17 -15.946604)
(214.60893 0 -15.289433)
(213.87876 8.2604095e-17 -14.627311)
(213.19207 -7.7121553e-17 -13.963734)
(212.54933 0 -13.302169)
(211.95068 1.3571085e-16 -12.646027)
(211.39592 -6.3473211e-17 -11.998621)
(210.88462 -1.7796529e-16 -11.363148)
(210.41612 5.5496009e-16 -10.742669)
(209.9896 -2.0770237e-16 -10.140096)
(209.60413 9.6865257e-17 -9.5581858)
(209.25868 -2.715097e-16 -8.9995338)
(208.95215 -1.608951e-19 -8.4665652)
(208.68338 1.5735176e-16 -7.9615152)
(208.45115 -1.467334e-16 -7.4863958)
(208.25412 -6.8273138e-17 -7.0429546)
(208.09082 -6.3571889e-17 -6.6326252)
(207.95951 -1.1862174e-16 -6.2564661)
(207.85805 2.2024291e-16 -5.9150605)
(207.78366 0 -5.6083438)
(207.73261 9.5103073e-17 -5.3353799)
(207.70001 -3.5372337e-16 -5.0941856)
(207.67967 2.4605073e-16 -4.8816923)
(207.66418 7.612482e-17 -4.6939133)
(207.64473 1.4138258e-16 -4.5260255)
(207.61055 1.3136688e-16 -4.3720786)
(207.54825 -1.2137387e-16 -4.2244634)
(207.44162 -1.1247353e-16 -4.0735281)
(207.27256 -3.1311029e-16 -3.9080894)
(207.02243 -9.1665231e-20 -3.7169991)
(206.67366 -8.9516857e-17 -3.4914152)
(206.21315 0 -3.2278717)
(205.63799 -2.3047428e-16 -2.9313217)
(204.96052 7.108851e-17 -2.6152901)
(204.20976 0 -2.3002072)
(203.43199 1.2192785e-16 -2.0119801)
(202.69988 0 -1.7731657)
(202.10799 1.0425353e-16 -1.6050865)
(201.70137 -1.4439368e-16 -1.5407721)
(201.48269 1.3328976e-16 -1.5715462)
(201.48684 -8.1878513e-17 -1.4649235)
(201.54844 7.545676e-17 -1.2217446)
(200.62326 0 -3.0126459)
(218.87644 -4.1641334e-16 -38.176182)
(258.43645 3.6819761e-16 -17.443861)
(239.75067 -3.3709539e-16 -37.750548)
(250.11505 3.353243e-16 -19.897866)
(242.80155 3.2099852e-16 -34.976823)
(245.94081 -1.8273621e-17 -23.165185)
(242.99538 -2.8739809e-16 -31.72185)
(243.45715 -2.728031e-16 -26.133391)
(242.09934 2.9033664e-16 -29.37136)
(241.5351 0 -27.751476)
(240.60853 2.896974e-17 -28.376728)
(239.76507 0 -28.112764)
(238.85705 -1.3025087e-16 -28.106848)
(237.92693 2.4593567e-16 -28.009662)
(236.96531 0 -27.907018)
(235.97561 0 -27.777934)
(234.95889 0 -27.624302)
(233.91713 3.9582953e-17 -27.443449)
(232.85258 0 -27.233705)
(231.7679 -2.4756675e-16 -26.993307)
(230.66616 3.3353801e-16 -26.720677)
(229.55076 1.2619205e-16 -26.41444)
(228.42552 1.7891986e-16 -26.073445)
(227.29456 -2.8100972e-16 -25.696854)
(226.16226 -5.2961363e-17 -25.284155)
(225.03325 -2.5055622e-16 -24.83522)
(223.91229 1.8857177e-16 -24.350332)
(222.80422 -2.2268382e-16 -23.830215)
(221.71385 8.3341731e-17 -23.276037)
(220.64589 7.8773773e-17 -22.689422)
(219.60484 0 -22.072428)
(218.59493 2.8009448e-16 -21.427522)
(217.62004 -2.630427e-16 -20.757551)
(216.6836 0 -20.065684)
(215.78856 -2.3248304e-16 -19.355366)
(214.93738 2.1775961e-16 -18.630245)
(214.13195 -1.0257495e-16 -17.894115)
(213.37365 1.9204993e-16 -17.150849)
(212.66329 -2.6981969e-16 -16.40433)
(212.00124 1.1707579e-19 -15.658399)
(211.38738 -1.5761647e-16 -14.916803)
(210.82123 -7.3751858e-17 -14.183151)
(210.30194 -1.3835533e-16 -13.460886)
(209.82843 2.5794772e-16 -12.753259)
(209.39941 -1.2036315e-16 -12.063317)
(209.01343 0 -11.393899)
(208.66897 -3.4296752e-19 -10.747635)
(208.36447 9.7846261e-17 -10.126951)
(208.09833 0 -9.5340749)
(207.86893 8.5048244e-17 -8.9710293)
(207.67466 7.9463288e-17 -8.4396214)
(207.51386 -7.3782139e-17 -7.941412)
(207.38483 2.7459321e-16 -7.4776732)
(207.28576 -2.5518988e-16 -7.0493347)
(207.21461 -1.186318e-16 -6.6569116)
(207.16896 -1.1016621e-16 -6.3003981)
(207.1457 1.0225356e-16 -5.9791126)
(207.14073 1.8962825e-16 -5.6915334)
(207.1488 -3.5159409e-16 -5.4352103)
(207.16356 4.0731813e-16 -5.2067849)
(207.17758 -1.5087497e-16 -5.0021016)
(207.18214 1.3977582e-16 -4.8160819)
(207.16639 -1.2937276e-16 -4.6421606)
(207.11665 2.3957832e-16 -4.4716783)
(207.01659 -3.3254992e-16 -4.2939152)
(206.84872 2.0494296e-16 -4.0973984)
(206.59613 -8.7535473e-20 -3.872015)
(206.24408 8.7681406e-17 -3.6111078)
(205.78294 0 -3.3138314)
(205.21319 0 -2.9870891)
(204.5497 0 -2.6451822)
(203.82228 -1.2785687e-16 -2.3092812)
(203.0767 -1.7568043e-21 -2.0049742)
(202.38366 0 -1.7512355)
(201.82668 0 -1.5740794)
(201.44662 9.2566016e-17 -1.5133128)
(201.25007 -1.7026667e-16 -1.5258842)
(201.27689 0 -1.3847667)
(201.30743 0 -1.2293896)
(200.38249 -1.3160717e-16 -2.9919562)
(218.50982 2.8076464e-17 -42.41221)
(258.42779 -7.971213e-16 -20.571254)
(239.1197 3.526847e-16 -41.837804)
(249.62791 -2.2032329e-17 -23.314846)
(242.06551 3.782998e-16 -38.698313)
(245.25338 -3.5679013e-16 -26.818645)
(242.20306 0 -35.234405)
(242.53396 -3.2131236e-16 -29.890985)
(241.12217 2.3619674e-16 -32.811782)
(240.4364 2.2431067e-16 -31.408521)
(239.4248 -2.4212087e-16 -31.860462)
(238.47436 0 -31.626545)
(237.4653 1.7132995e-19 -31.560193)
(236.43059 0 -31.423429)
(235.36436 3.8982149e-16 -31.268626)
(234.27006 -7.3637828e-16 -31.082385)
(233.1497 3.4763563e-16 -30.864763)
(232.00614 -4.1067703e-17 -30.613213)
(230.84263 -3.9002609e-17 -30.325903)
(229.66287 3.7048475e-17 -30.001079)
(228.47105 -6.9241398e-17 -29.637273)
(227.27172 -3.2790448e-16 -29.233327)
(226.06982 3.0861785e-16 -28.788462)
(224.87057 5.8180436e-17 -28.302338)
(223.67939 -2.7559933e-16 -27.775078)
(222.5018 -6.7544196e-19 -27.207327)
(221.34336 2.9271003e-16 -26.600252)
(220.20949 -1.8369477e-16 -25.955552)
(219.10543 -5.7461591e-19 -25.27545)
(218.03608 0 -24.56266)
(217.00593 0 -23.820345)
(216.01895 -7.2227524e-17 -23.052064)
(215.07856 1.3523848e-16 -22.261704)
(214.18752 0 -21.4534)
(213.34794 -1.1947349e-16 -20.631458)
(212.56128 2.2356404e-16 -19.800272)
(211.82832 -1.0472203e-16 -18.964237)
(211.14926 -1.9623007e-16 -18.127683)
(210.52374 9.1231018e-17 -17.294803)