/*--------------------------------*- C++ -*----------------------------------*\
  =========                 |
  \\      /  F ield         | OpenFOAM: The Open Source CFD Toolbox
   \\    /   O peration     | Website:  https://openfoam.org
    \\  /    A nd           | Version:  12
     \\/     M anipulation  |
\*---------------------------------------------------------------------------*/
FoamFile
{
    format      ascii;
    class       volScalarField;
    location    "0.046";
    object      p;
}
// * * * * * * * * * * * * * * * * * * * * * * * * * * * * * * * * * * * * * //

dimensions      [1 -1 -2 0 0 0 0];

internalField   nonuniform List<scalar> 
16000
(
90467.795
90592.406
90603.73
90737.357
90762.566
90889.278
90938.5
91054.776
91127.046
91237.519
91328.089
91438.131
91542.874
91656.934
91772.716
91893.931
92019.136
92148.949
92283.242
92422.101
92565.535
92713.546
92866.115
93023.198
93184.727
93350.606
93520.708
93694.876
93872.921
94054.62
94239.716
94427.92
94618.906
94812.318
95007.767
95204.835
95403.078
95602.027
95801.193
96000.07
96198.141
96394.881
96589.763
96782.261
96971.854
97158.034
97340.303
97518.182
97691.212
97858.959
98021.018
98177.02
98326.632
98469.566
98605.573
98734.452
98856.045
98970.238
99076.95
99176.128
99267.73
99351.718
99428.06
99496.726
99557.705
99611.027
99656.797
99695.256
99726.822
99752.116
99771.934
99787.151
99798.555
99807.218
99815.161
99822.641
99828.295
99850.585
99863.719
99849.865
90109.489
90250.867
90259.967
90405.346
90432.045
90569.798
90621.028
90748.604
90824.519
90945.024
91041.872
91160.741
91273.693
91396.487
91521.411
91651.97
91786.927
91926.77
92071.418
92220.922
92375.276
92534.457
92698.415
92867.072
93040.32
93218.02
93399.997
93586.044
93775.916
93969.332
94165.975
94365.491
94567.493
94771.558
94977.234
95184.041
95391.476
95599.014
95806.119
96012.244
96216.84
96419.359
96619.26
96816.017
97009.118
97198.07
97382.407
97561.684
97735.485
97903.427
98065.158
98220.362
98368.759
98510.11
98644.213
98770.911
98890.085
99001.658
99105.587
99201.863
99290.495
99371.504
99444.928
99510.81
99569.204
99620.186
99663.872
99700.467
99730.308
99753.919
99772.005
99785.385
99794.936
99802.146
99808.887
99814.565
99822.42
99843.431
99851.841
99851.292
89781.376
89938.178
89947.017
90105.764
90132.356
90283.834
90336.605
90476.492
90557.107
90688.104
90792.59
90920.961
91043.377
91175.913
91311.157
91452.246
91598.158
91749.258
91905.477
92066.827
92233.273
92404.756
92581.185
92762.439
92948.363
93138.764
93333.413
93532.041
93734.339
93939.96
94148.514
94359.576
94572.683
94787.34
95003.023
95219.184
95435.256
95650.661
95864.813
96077.129
96287.034
96493.966
96697.382
96896.767
97091.631
97281.519
97466.006
97644.704
97817.26
97983.358
98142.717
98295.094
98440.278
98578.097
98708.409
98831.11
98946.129
99053.428
99153
99244.873
99329.094
99405.732
99474.878
99536.644
99591.152
99638.538
99678.958
99712.613
99739.802
99760.974
99776.745
99787.847
99795.219
99800.559
99805.403
99809.395
99818.384
99837.295
99842.413
99851.699
89487.394
89655.04
89664.522
89838.662
89864.739
90032.366
90087.259
90241.441
90327.705
90470.712
90584.317
90723.516
90857.011
91000.73
91147.806
91300.894
91459.193
91622.938
91792.067
91966.551
92146.323
92331.284
92521.301
92716.205
92915.785
93119.788
93327.917
93539.831
93755.143
93973.422
94194.194
94416.946
94641.131
94866.168
95091.455
95316.371
95540.283
95762.56
95982.574
96199.713
96413.387
96623.034
96828.127
97028.179
97222.745
97411.422
97593.855
97769.73
97938.779
98100.771
98255.515
98402.858
98542.675
98674.874
98799.388
98916.177
99025.226
99126.542
99220.155
99306.125
99384.529
99455.47
99519.078
99575.511
99624.944
99667.564
99703.563
99733.157
99756.641
99774.412
99787.027
99795.161
99799.832
99802.815
99805.262
99807.464
99816.482
99832.566
99835.3
99852.209
89230.225
89412.637
89419.062
89611.783
89636.837
89822.914
89879.886
90050.266
90143.469
90299.884
90424.395
90575.635
90721.782
90877.987
91038.2
91204.546
91376.444
91554.033
91737.25
91926.034
92120.279
92319.845
92524.542
92734.137
92948.348
93166.84
93389.229
93615.078
93843.901
94075.165
94308.294
94542.671
94777.651
95012.561
95246.714
95479.415
95709.972
95937.707
96161.964
96382.118
96597.583
96807.822
97012.347
97210.725
97402.578
97587.588
97765.487
97936.062
98099.147
98254.616
98402.387
98542.404
98674.645
98799.107
98915.806
99024.772
99126.051
99219.698
99305.783
99384.392
99455.63
99519.622
99576.519
99626.509
99669.803
99706.619
99737.174
99761.709
99780.545
99794.052
99802.754
99807.305
99808.824
99809.028
99808.681
99808.981
99817.248
99830.07
99830.633
99853.932
89014.675
89214.598
89219.082
89432.762
89456.562
89663.19
89722.24
89910.537
90011.949
90182.692
90319.537
90483.469
90643.317
90812.931
90987.289
91168.005
91354.679
91547.368
91745.983
91950.411
92160.485
92375.99
92596.656
92822.156
93052.104
93286.058
93523.517
93763.923
94006.668
94251.095
94496.506
94742.171
94987.335
95231.23
95473.087
95712.145
95947.666
96178.945
96405.319
96626.179
96840.973
97049.218
97250.498
97444.467
97630.848
97809.432
97980.068
98142.664
98297.176
98443.602
98581.973
98712.35
98834.811
98949.45
99056.368
99155.667
99247.451
99331.826
99408.899
99478.783
99541.602
99597.495
99646.626
99689.191
99725.416
99755.531
99779.761
99798.362
99811.696
99820.136
99824.184
99824.53
99822.406
99819.353
99815.848
99813.985
99821.013
99830.109
99828.733
99857.837
88842.466
89063.215
89064.796
89303.056
89325.605
89556.424
89618.549
89826.411
89936.21
90120.703
90270.835
90448.019
90622.841
90807.293
90997.392
91194.235
91397.51
91607.174
91823.066
92044.989
92272.682
92505.825
92744.03
92986.847
93233.758
93484.18
93737.467
93992.917
94249.774
94507.24
94764.483
95020.651
95274.882
95526.318
95774.123
96017.491
96255.663
96487.939
96713.686
96932.348
97143.451
97346.606
97541.508
97727.937
97905.751
98074.879
98235.317
98387.113
98530.359
98665.186
98791.749
98910.223
99020.79
99123.635
99218.938
99306.868
99387.584
99461.234
99527.959
99587.893
99641.175
99687.952
99728.39
99762.683
99791.049
99813.715
99830.893
99842.848
99849.98
99852.675
99851.433
99847.028
99840.783
99833.961
99826.909
99822.707
99827.775
99832.831
99829.883
99864.616
88708.105
88953.306
88950.443
89218.455
89237.729
89495.531
89560.759
89787.883
89909.039
90109.336
90276.193
90469.23
90661.868
90863.932
91072.444
91288.064
91510.516
91739.65
91975.216
92216.904
92464.33
92717.037
92974.491
93236.082
93501.127
93768.871
94038.496
94309.129
94579.849
94849.705
95117.728
95382.948
95644.408
95901.183
96152.399
96397.243
96634.977
96864.954
97086.622
97299.53
97503.331
97697.781
97882.735
98058.136
98224.014
98380.466
98527.65
98665.771
98795.07
98915.809
99028.267
99132.725
99229.461
99318.74
99400.807
99475.886
99544.18
99605.868
99661.114
99710.068
99752.877
99789.691
99820.668
99845.989
99865.855
99880.472
99890.036
99894.79
99895.197
99891.604
99884.562
99874.963
99864.158
99853.063
99842.215
99835.843
99838.254
99838.524
99834.456
99874.784
88608.933
88882.168
88874.854
89180.479
89193.722
89480.324
89550.305
89799.091
89936.668
90155.18
90342.402
90554.185
90767.69
90990.467
91220.392
91457.767
91702.284
91953.662
92211.522
92475.404
92744.763
93018.961
93297.276
93578.9
93862.945
94148.452
94434.401
94719.727
95003.337
95284.125
95560.995
95832.88
96098.762
96357.691
96608.804
96851.337
97084.639
97308.181
97521.555
97724.483
97916.805
98098.475
98269.552
98430.186
98580.603
98721.09
98851.98
98973.638
99086.448
99190.801
99287.083
99375.669
99456.912
99531.139
99598.641
99659.68
99714.482
99763.246
99806.145
99843.333
99874.959
99901.164
99922.099
99937.923
99948.806
99954.927
99956.472
99953.638
99946.953
99936.683
99923.484
99908.375
99892.639
99876.849
99862.044
99853.328
99852.13
99847.379
99842.857
99888.649
88547.322
88853.347
88843.409
89184.94
89197.471
89515.778
89596.916
89870.664
90028.129
90266.953
90478.304
90712.115
90949.803
91196.734
91451.395
91713.779
91983.472
92260.026
92542.885
92831.388
93124.773
93422.176
93722.629
94025.079
94328.392
94631.372
94932.775
95231.34
95525.8
95814.919
96097.504
96372.441
96638.707
96895.398
97141.739
97377.098
97600.997
97813.104
98013.242
98201.371
98377.583
98542.081
98695.167
98837.223
98968.687
99090.04
99201.789
99304.447
99398.526
99484.522
99562.909
99634.129
99698.587
99756.642
99808.613
99854.772
99895.353
99930.552
99960.539
99985.458
100005.45
100020.64
100031.16
100037.15
100038.75
100036.09
100029.37
100018.8
100004.7
99987.513
99967.953
99947.131
99926.163
99905.362
99886.544
99875.445
99870.167
99859.26
99855.431
99906.353
88528.87
88873.965
88860.148
89241.65
89257.668
89612.148
89708.401
90009.267
90192.322
90454.318
90694.044
90953.831
91219.422
91494.303
91777.326
92068.205
92366.349
92671.088
92981.618
93297.01
93616.215
93938.067
94261.298
94584.557
94906.426
95225.453
95540.169
95849.127
96150.926
96444.245
96727.868
97000.714
97261.854
97510.533
97746.176
97968.394
98176.982
98371.908
98553.301
98721.431
98876.689
99019.563
99150.619
99270.472
99379.77
99479.172
99569.333
99650.89
99724.451
99790.588
99849.827
99902.647
99949.471
99990.667
100026.55
100057.38
100083.38
100104.73
100121.56
100134.01
100142.19
100146.22
100146.19
100142.22
100134.41
100122.87
100107.76
100089.28
100067.73
100043.56
100017.56
99990.905
99964.472
99938.517
99915.856
99902.071
99892.05
99874.713
99872.415
99928.086
88562.921
88954.452
88936.667
89365.742
89386.892
89780.973
89896.475
90226.129
90440.488
90728.852
91001.246
91291.451
91589.09
91896.119
92211.506
92534.651
92864.689
93200.631
93541.325
93885.479
94231.666
94578.349
94923.901
95266.637
95604.842
95936.813
96260.89
96575.495
96879.173
97170.619
97448.718
97712.556
97961.444
98194.923
98412.756
98614.925
98801.607
98973.156
99130.074
99272.983
99402.598
99519.696
99625.091
99719.612
99804.083
99879.303
99946.036
100005
100056.85
100102.2
100141.6
100175.51
100204.35
100228.46
100248.14
100263.61
100275.05
100282.6
100286.38
100286.47
100282.95
100275.91
100265.43
100251.58
100234.44
100214.08
100190.64
100164.29
100135.31
100104.18
100071.77
100039.24
100007.19
99976.128
99949.828
99932.785
99917.789
99894.501
99894.213
99954.314
88651.047
89097.863
89076.764
89560.182
89589.522
90026.785
90169.161
90530.04
90782.826
91102.277
91412.398
91738.426
92073.084
92417.123
92769.382
93128.848
93494.247
93864.136
94236.9
94610.777
94983.886
95354.259
95719.881
96078.727
96428.815
96768.249
97095.267
97408.292
97705.966
97987.185
98251.121
98497.228
98725.242
98935.166
99127.251
99301.96
99459.94
99601.981
99728.983
99841.92
99941.808
100029.68
100106.55
100173.41
100231.19
100280.8
100323.03
100358.63
100388.28
100412.57
100432.02
100447.07
100458.09
100465.37
100469.15
100469.62
100466.89
100461.05
100452.17
100440.3
100425.46
100407.71
100387.1
100363.67
100337.45
100308.51
100276.95
100242.92
100206.67
100168.74
100130.06
100091.69
100053.97
100017.93
99988.238
99968.199
99946.935
99918.869
99921.556
99985.681
88797.912
89310.352
89286.522
89831.604
89875.517
90359.829
90538.425
90933.8
91232.775
91589.597
91943.412
92311.663
92689.186
93075.677
93469.571
93869.28
94272.953
94678.56
95083.91
95486.692
95884.513
96274.954
96655.623
97024.219
97378.594
97716.82
98037.239
98338.507
98619.627
98879.958
99119.213
99337.44
99534.991
99712.484
99870.757
100010.82
100133.81
100240.94
100333.47
100412.68
100479.82
100536.08
100582.63
100620.53
100650.76
100674.23
100691.75
100704.03
100711.7
100715.31
100715.31
100712.08
100705.92
100697.06
100685.66
100671.84
100655.66
100637.15
100616.3
100593.11
100567.58
100539.71
100509.5
100476.97
100442.14
100405.03
100365.72
100324.33
100281.13
100236.71
100192.07
100148.03
100104.82
100064.16
100031.47
100007.97
99980.157
99948.066
99955.234
100023.41
89010.184
89601.082
89576.319
90191.507
90257.262
90792.583
91018.617
91453.541
91807.585
92210.198
92615.07
93032.967
93459.794
93894.202
94333.973
94776.779
95220.052
95661.06
96096.943
96524.781
96941.66
97344.758
97731.43
98099.294
98446.31
98770.836
99071.672
99348.072
99599.742
99826.81
100029.78
100209.49
100367.03
100503.7
100620.93
100720.27
100803.26
100871.48
100926.44
100969.61
101002.36
101025.99
101041.66
101050.45
101053.31
101051.09
101044.54
101034.29
101020.89
101004.81
100986.4
100965.95
100943.69
100919.76
100894.24
100867.16
100838.53
100808.3
100776.4
100742.78
100707.38
100670.16
100631.09
100590.14
100547.31
100502.61
100456.1
100407.87
100358.22
100307.83
100257.69
100208.38
100160.19
100115.62
100080.27
100053.22
100019.5
99983.415
99996.38
100069.13
89294.315
89978.953
89956.144
90650.869
90749.553
91341.521
91629.553
92112.45
92531.947
92990.601
93454.753
93929.784
94411.807
94898.399
95386.488
95872.842
96354.014
96826.442
97286.535
97730.784
98155.891
98558.882
98937.222
99288.895
99612.458
99907.061
100172.43
100408.83
100616.99
100798.06
100953.48
101084.93
101194.25
101283.35
101354.18
101408.64
101448.6
101475.8
101491.9
101498.41
101496.72
101488.07
101473.59
101454.25
101430.92
101404.33
101375.12
101343.81
101310.84
101276.55
101241.21
101205.01
101168.06
101130.42
101092.09
101053.03
101013.16
100972.36
100930.52
100887.51
100843.24
100797.61
100750.55
100702.02
100652
100600.47
100547.47
100493.1
100437.71
100382.08
100327.11
100273.21
100220.91
100173.55
100136.2
100105.2
100065.53
100026.89
100047.58
100125.84
89657.406
90454.056
90438.54
91227.578
91376.196
92034.725
92401.829
92943.545
93439.018
93964.072
94495.139
95033.484
95574.729
96115.191
96650.639
97176.677
97688.805
98182.598
98653.873
99098.872
99514.411
99897.999
100247.91
100563.19
100843.65
101089.77
101302.64
101483.83
101635.27
101759.15
101857.81
101933.68
101989.17
102026.61
102048.24
102056.18
102052.37
102038.58
102016.44
101987.37
101952.66
101913.43
101870.64
101825.14
101777.63
101728.7
101678.85
101628.47
101577.86
101527.24
101476.77
101426.53
101376.55
101326.78
101277.15
101227.53
101177.78
101127.71
101077.15
101025.92
100973.88
100920.9
100866.88
100811.74
100755.45
100698
100639.4
100579.78
100519.61
100459.68
100400.78
100343.23
100288.07
100239.26
100200.69
100165.65
100120.54
100083.33
100113.18
100195.36
90118.392
91052.876
91056.099
91959.336
92175.57
92911.024
93374.447
93986.16
94567.016
95167.946
95772.238
96377.749
96978.778
97569.909
98145.376
98699.484
99226.842
99722.62
100182.78
100604.22
100984.88
101323.74
101620.79
101876.89
102093.62
102273.17
102418.14
102531.42
102616.01
102674.96
102711.27
102727.8
102727.25
102712.12
102684.71
102647.07
102601.05
102548.31
102490.26
102428.18
102363.13
102296.04
102227.68
102158.7
102089.63
102020.9
101952.85
101885.72
101819.68
101754.83
101691.23
101628.84
101567.6
101507.38
101448.04
101389.37
101331.17
101273.19
101215.21
101157.01
101098.39
101039.2
100979.31
100918.64
100857.13
100794.78
100731.61
100667.83
100603.96
100540.82
100479.06
100419.04
100362.43
100313.55
100274.6
100236.3
100187.64
100154.83
100196.86
100278.58
90710.223
91820.285
91852.569
92888.408
93190.689
94010.937
94589.213
95284.308
95959.855
96644.972
97325.925
97997.101
98650.663
99279.198
99875.597
100433.56
100947.88
101414.7
101831.57
102197.5
102512.78
102778.86
102998.12
103173.6
103308.84
103407.63
103473.86
103511.38
103523.89
103514.9
103487.65
103445.09
103389.88
103324.41
103250.76
103170.78
103086.07
102997.99
102907.71
102816.25
102724.41
102632.89
102542.25
102452.93
102365.27
102279.55
102195.93
102114.53
102035.39
101958.51
101883.82
101811.2
101740.51
101671.56
101604.11
101537.92
101472.7
101408.18
101344.09
101280.16
101216.18
101151.96
101087.35
101022.26
100956.64
100890.48
100823.86
100757.06
100690.68
100625.48
100561.99
100500.75
100444.06
100396.18
100357.44
100317.07
100267.79
100242.54
100296.94
100375.39
91462.578
92784.029
92859.342
94047.614
94469.193
95385.853
96100.226
96895.116
97672.646
98444.123
99195.334
99917.163
100599.88
101235.15
101816.17
102338.1
102798.1
103195.31
103530.61
103806.4
104026.18
104194.28
104315.49
104394.84
104437.35
104447.9
104431.07
104391.11
104331.9
104256.89
104169.16
104071.41
103965.98
103854.91
103739.92
103622.51
103503.91
103385.17
103267.14
103150.54
103035.93
102923.75
102814.35
102707.98
102604.81
102504.94
102408.42
102315.23
102225.3
102138.52
102054.74
101973.77
101895.39
101819.34
101745.33
101673.06
101602.22
101532.48
101463.54
101395.11
101326.95
101258.84
101190.64
101122.25
101053.62
100984.75
100915.77
100847.07
100779.28
100713.07
100648.9
100587.59
100531.88
100485.57
100447.1
100405.44
100358.07
100342.52
100406.85
100481.04
92404.13
93989.698
94144.637
95501.95
96088.459
97117.355
97984.68
98889.825
99763.87
100605
101397.52
102130.59
102795.16
103385.08
103897.14
104330.87
104688.19
104972.94
105190.35
105346.54
105448.09
105501.66
105513.77
105490.57
105437.72
105360.36
105263.07
105149.88
105024.28
104889.31
104747.55
104601.19
104452.1
104301.81
104151.62
104002.59
103855.58
103711.3
103570.29
103432.99
103299.69
103170.64
103045.97
102925.76
102810.03
102698.76
102591.85
102489.2
102390.63
102295.96
102204.96
102117.38
102032.92
101951.29
101872.15
101795.16
101719.97
101646.22
101573.6
101501.8
101430.55
101359.64
101288.91
101218.25
101147.61
101077.02
101006.67
100937.01
100868.68
100802.27
100738.21
100677.63
100623.44
100578.63
100540.2
100498.03
100454.12
100447.64
100517.06
100581.03
93617.203
95536.802
95815.767
97362.647
98161.344
99311.309
100326.89
101327.45
102261.82
103121.47
103892.85
104568.37
105144.44
105621.45
106003.06
106295.42
106506.32
106644.49
106718.98
106738.68
106712.02
106646.75
106549.85
106427.49
106285.04
106127.11
105957.64
105779.97
105596.89
105410.72
105223.4
105036.49
104851.3
104668.86
104490.01
104315.4
104145.54
103980.8
103821.45
103667.67
103519.57
103377.17
103240.46
103109.37
102983.8
102863.59
102748.59
102638.57
102533.31
102432.54
102335.97
102243.31
102154.23
102068.37
101985.36
101904.84
101826.43
101749.76
101674.48
101600.29
101526.91
101454.13
101381.77
101309.72
101237.92
101166.41
101095.44
101025.5
100957.17
100890.98
100827.45
100767.93
100715.21
100671.3
100632.43
100590.36
100550.54
100550.01
100616.82
100665.93
95233.349
97565.797
98023.182
99758.224
100804.31
102061.22
103173.63
104204.25
105115.78
105902.06
106558.91
107088.48
107497.32
107795.19
107993.81
108105.72
108143.43
108118.86
108042.94
107925.41
107774.82
107598.49
107402.65
107192.53
106972.46
106746.05
106516.22
106285.37
106055.43
105827.97
105604.21
105385.13
105171.48
104963.84
104762.62
104568.13
104380.56
104200.02
104026.54
103860.11
103700.64
103548.02
103402.11
103262.72
103129.65
103002.67
102881.53
102765.95
102655.65
102550.31
102449.61
102353.19
102260.7
102171.75
102085.95
102002.91
101922.22
101843.52
101766.44
101690.67
101615.93
101542
101468.72
101395.93
101323.57
101251.7
101180.59
101110.68
101042.52
100976.59
100913.57
100854.92
100803.05
100759.01
100719.04
100677.4
100641.46
100642.49
100699.11
100734.69
97442.532
100238.18
100936.12
102811.22
104067.96
105372.04
106466.07
107400.7
108163.07
108758.93
109199.24
109499.66
109677.96
109752.37
109740.42
109658.11
109519.65
109337.28
109121.33
108880.44
108621.7
108350.9
108072.71
107790.88
107508.41
107227.65
106950.47
106678.31
106412.28
106153.22
105901.75
105658.32
105423.22
105196.63
104978.66
104769.3
104568.51
104376.19
104192.2
104016.35
103848.43
103688.23
103535.49
103389.96
103251.35
103119.37
102993.71
102874.07
102760.09
102651.44
102547.76
102448.66
102353.77
102262.66
102174.93
102090.17
102007.97
101927.94
101849.71
101772.97
101697.43
101622.88
101549.11
101475.97
101403.39
101331.42
101260.31
101190.45
101122.29
101056.35
100993.44
100935.01
100882.92
100837.49
100795.53
100753.95
100720.69
100719.92
100762.72
100787.18
100497.23
103669.15
104673.82
106614.66
107913.9
109073.41
109983.84
110669.88
111149.11
111448.02
111594.34
111615.33
111535.9
111377.83
111159.58
110896.43
110600.78
110282.59
109949.78
109608.54
109263.72
108919.08
108577.51
108241.21
107911.83
107590.6
107278.42
106975.92
106683.51
106401.45
106129.88
105868.82
105618.22
105377.97
105147.92
104927.85
104717.54
104516.73
104325.15
104142.5
103968.49
103802.81
103645.15
103495.18
103352.58
103217.01
103088.12
102965.58
102849
102738.03
102632.27
102531.33
102434.8
102342.25
102253.27
102167.41
102084.26
102003.42
101924.52
101847.23
101771.26
101696.36
101622.33
101548.99
101476.25
101404.16
101332.92
101262.84
101194.3
101127.85
101064.4
101005.3
100951.81
100903.94
100859.42
100817.23
100784.85
100779.43
100805.99
100817.25
104658.11
108043.67
109251.35
110932.68
112051.52
112877.54
113409.44
113701.63
113798.42
113742.58
113570.29
113311.58
112990.49
112625.91
112232.47
111821.34
111401
110977.81
110556.52
110140.62
109732.68
109334.53
108947.47
108572.36
108209.78
107860.04
107523.29
107199.54
106888.68
106590.56
106304.95
106031.57
105770.12
105520.29
105281.74
105054.12
104837.07
104630.24
104433.25
104245.74
104067.36
103897.74
103736.52
103583.35
103437.86
103299.68
103168.47
103043.83
102925.39
102812.76
102705.55
102603.33
102505.68
102412.17
102322.36
102235.79
102152.05
102070.72
101991.42
101913.79
101837.54
101762.38
101688.07
101614.44
101541.38
101468.91
101397.18
101326.44
101257.01
101189.41
101124.6
101063.82
101007.97
100957.08
100909.8
100866.47
100833.08
100820.38
100828.74
100827.22
109855.87
113206.08
114318.76
115440.83
116050.29
116334.47
116357.4
116191.99
115891.98
115499.47
115045.76
114553.9
114040.62
113517.94
112994.44
112476.15
111967.27
111470.68
110988.3
110521.36
110070.56
109636.27
109218.58
108817.4
108432.51
108063.6
107710.3
107372.18
107048.81
106739.72
106444.45
106162.55
105893.54
105636.96
105392.38
105159.33
104937.4
104726.14
104525.15
104334
104152.31
103979.67
103815.7
103660.03
103512.27
103372.04
103238.96
103112.65
102992.71
102878.75
102770.36
102667.11
102568.56
102474.27
102383.78
102296.63
102212.39
102130.64
102050.96
101972.98
101896.38
101820.83
101746.08
101671.93
101598.25
101525.03
101452.37
101380.48
101309.65
101240.4
101173.56
101110.22
101051.16
100996.61
100946.34
100901.31
100865.74
100844.9
100836.72
100822.27
116041.08
118542.62
119150.95
119432.49
119341.03
119016.72
118538.43
117966.34
117340.77
116689.04
116029.27
115373.38
114729.1
114101.31
113493.03
112905.94
112340.91
111798.2
111277.71
110779.06
110301.73
109845.09
109408.48
108991.16
108592.44
108211.59
107847.92
107500.75
107169.43
106853.32
106551.81
106264.33
105990.31
105729.22
105480.53
105243.75
105018.41
104804.02
104600.15
104406.35
104222.21
104047.31
103881.27
103723.67
103574.15
103432.3
103297.75
103170.09
103048.94
102933.9
102824.53
102720.42
102621.13
102526.18
102435.12
102347.48
102262.81
102180.67
102100.63
102022.31
101945.35
101869.39
101794.17
101719.43
101645.05
101570.97
101497.21
101423.95
101351.53
101280.46
101211.41
101145.27
101082.9
101024.77
100971.74
100924.84
100885.83
100855.5
100831.78
100809.44
122634.47
123075.04
122860.36
122317.06
121592.85
120777.07
119925.47
119069.56
118227.75
117410.18
116622.24
115866.43
115143.56
114453.43
113795.26
113167.94
112570.2
112000.71
111458.12
110941.11
110448.43
109978.87
109531.29
109104.62
108697.86
108310.06
107940.33
107587.85
107251.84
106931.56
106626.33
106335.48
106058.42
105794.55
105543.33
105304.21
105076.69
104860.29
104654.54
104458.99
104273.21
104096.77
103929.29
103770.35
103619.57
103476.56
103340.93
103212.3
103090.26
102974.42
102864.35
102759.63
102659.81
102564.43
102473.03
102385.11
102300.24
102217.94
102137.8
102059.41
101982.37
101906.32
101830.91
101755.87
101681
101606.21
101531.41
101456.83
101382.93
101310.22
101239.22
101170.62
101105.29
101044.27
100988.82
100939.89
100897.01
100858.01
100822.46
100796.1
126487.46
125867.21
124959.5
123916.13
122840.95
121777.67
120748.82
119763.64
118825.53
117934.75
117089.99
116289.23
115530.12
114810.24
114127.21
113478.78
112862.82
112277.36
111720.59
111190.82
110686.52
110206.27
109748.77
109312.82
108897.31
108501.22
108123.6
107763.58
107420.32
107093.09
106781.15
106483.83
106200.52
105930.61
105673.55
105428.78
105195.81
104974.15
104763.32
104562.87
104372.37
104191.42
104019.59
103856.5
103701.76
103554.98
103415.77
103283.75
103158.53
103039.69
102926.83
102819.52
102717.3
102619.71
102526.26
102436.47
102349.86
102265.96
102184.32
102104.51
102026.12
101948.72
101871.9
101795.27
101718.6
101641.78
101565.04
101488.49
101412.3
101336.87
101263.05
101191.54
101123.09
101059.03
101000.97
100949.68
100903.36
100858.48
100815.92
100787.44
104405.26
104380.5
104430.6
104480.63
104516.94
104526.78
104509.7
104480.84
104446.48
104402.6
104344.58
104273.42
104193.37
104109.11
104021.12
103929.46
103834.53
103736.84
103636.83
103534.91
103431.46
103326.83
103221.35
103115.31
103009
102902.68
102796.57
102690.9
102585.87
102481.66
102378.47
102276.46
102175.8
102076.64
101979.15
101883.46
101789.73
101698.1
101608.72
101521.73
101437.27
101355.48
101276.5
101200.47
101127.52
101057.76
100991.33
100928.33
100868.86
100812.99
100760.81
100712.34
100667.61
100626.61
100589.28
100555.54
100525.28
100498.3
100474.4
100453.29
100434.66
100418.12
100403.25
100389.56
100376.53
100363.58
100350.25
100335.8
100320.22
100302.33
100283.62
100260.9
100240.32
100210.13
100193.48
100148.06
100149.19
100077.79
100105.48
100028.95
103836.78
103829.49
103839.07
103850.43
103845.6
103834.67
103820.49
103800.12
103767.78
103729.89
103685.56
103636.38
103581.66
103522.46
103458.88
103391.56
103320.72
103246.68
103169.76
103090.25
103008.45
102924.64
102839.08
102752.04
102663.8
102574.6
102484.69
102394.31
102303.71
102213.1
102122.72
102032.79
101943.51
101855.09
101767.74
101681.65
101597.02
101514.03
101432.88
101353.75
101276.81
101202.24
101130.22
101060.89
100994.42
100930.96
100870.64
100813.59
100759.91
100709.7
100663.03
100619.94
100580.47
100544.58
100512.23
100483.33
100457.76
100435.32
100415.8
100398.91
100384.31
100371.63
100360.4
100350.12
100340.27
100330.23
100319.54
100307.51
100294.02
100278.21
100261.12
100240.5
100220.96
100193.74
100177.07
100136.17
100135.1
100069.94
100095.59
100020.5
103419.5
103402
103369.39
103335.27
103302.81
103272.67
103238.07
103204.39
103167.38
103130.06
103089.06
103046.85
103001.38
102953.96
102903.75
102851.18
102796.12
102738.68
102678.93
102616.95
102552.87
102486.81
102418.91
102349.34
102278.24
102205.81
102132.23
102057.69
101982.39
101906.53
101830.33
101754
101677.75
101601.8
101526.36
101451.66
101377.91
101305.32
101234.11
101164.49
101096.67
101030.85
100967.22
100905.97
100847.28
100791.33
100738.26
100688.22
100641.33
100597.7
100557.41
100520.51
100487.02
100456.94
100430.2
100406.72
100386.37
100368.95
100354.24
100341.95
100331.74
100323.2
100315.88
100309.24
100302.76
100295.83
100287.93
100278.48
100267.27
100253.68
100238.32
100219.8
100201.55
100176.99
100160.58
100123.8
100121.54
100061.34
100086.02
100011.84
102794.11
102771.44
102743.85
102712.98
102681.92
102654.43
102622.53
102593.57
102560.49
102529.3
102494.75
102460.83
102424.29
102387.29
102348.29
102307.98
102265.94
102222.29
102176.94
102129.87
102081.1
102030.63
101978.51
101924.8
101869.57
101812.92
101754.96
101695.83
101635.65
101574.6
101512.85
101450.56
101387.95
101325.21
101262.54
101200.16
101138.28
101077.13
101016.94
100957.92
100900.3
100844.29
100790.11
100737.97
100688.06
100640.57
100595.67
100553.52
100514.26
100478
100444.84
100414.82
100387.98
100364.3
100343.74
100326.2
100311.55
100299.6
100290.1
100282.76
100277.24
100273.12
100269.93
100267.15
100264.21
100260.52
100255.58
100248.81
100239.99
100228.63
100215.19
100198.78
100181.95
100159.87
100144.07
100110.95
100108.25
100052.16
100076.83
100002.84
102062.38
102047.6
102033.77
102017.19
101998.35
101983.72
101963.12
101946.79
101925.07
101906.43
101883.49
101862.08
101837.65
101813.47
101787.33
101760.28
101731.64
101701.65
101670.17
101637.19
101602.67
101566.62
101529.03
101489.94
101449.38
101407.41
101364.09
101319.51
101273.77
101226.99
101179.3
101130.85
101081.79
101032.32
100982.6
100932.84
100883.24
100834.01
100785.38
100737.57
100690.8
100645.29
100601.28
100558.96
100518.56
100480.25
100444.24
100410.68
100379.73
100351.5
100326.09
100303.56
100283.94
100267.22
100253.34
100242.21
100233.7
100227.6
100223.67
100221.61
100221.06
100221.61
100222.76
100223.99
100224.75
100224.46
100222.59
100218.62
100212.29
100203.24
100191.81
100177.51
100162.2
100142.51
100127.37
100097.79
100095.15
100042.6
100067.99
99993.913
101359.25
101354.09
101350.93
101347.03
101338.91
101336
101325.78
101321.37
101310.22
101303.41
101291.22
101281.49
101268.1
101255.48
101240.8
101225.52
101208.69
101190.69
101171.38
101150.74
101128.77
101105.44
101080.76
101054.71
101027.32
100998.61
100968.62
100937.4
100905.02
100871.56
100837.12
100801.81
100765.77
100729.14
100692.07
100654.75
100617.37
100580.1
100543.17
100506.79
100471.17
100436.52
100403.08
100371.04
100340.62
100312.01
100285.41
100260.98
100238.87
100219.2
100202.06
100187.52
100175.6
100166.3
100159.54
100155.25
100153.25
100153.36
100155.32
100158.82
100163.49
100168.9
100174.58
100179.99
100184.58
100187.78
100189.09
100188.01
100184.28
100177.61
100168.25
100156.07
100142.35
100125.01
100111.1
100084.45
100082.23
100032.8
100059.25
99984.876
100728.2
100728.88
100730.44
100734.43
100733.02
100738.35
100734.99
100739.13
100735.19
100737.14
100733.08
100732.97
100728.54
100724.81
100718.85
100712.85
100705.58
100697.49
100688.36
100678.18
100666.92
100654.54
100641.01
100626.33
100610.48
100593.47
100575.32
100556.06
100535.73
100514.38
100492.09
100468.95
100445.05
100420.52
100395.5
100370.12
100344.56
100318.99
100293.59
100268.57
100244.11
100220.42
100197.71
100176.18
100156.02
100137.44
100120.6
100105.68
100092.8
100082.1
100073.65
100067.51
100063.7
100062.2
100062.94
100065.83
100070.69
100077.31
100085.42
100094.72
100104.82
100115.28
100125.63
100135.33
100143.86
100150.66
100155.24
100157.14
100156.07
100151.84
100144.6
100134.53
100122.46
100107.37
100094.53
100070.96
100069.09
100022.89
100050.58
99975.769
100163.37
100168.7
100173.05
100181.54
100183.17
100193.64