/*--------------------------------*- C++ -*----------------------------------*\
  =========                 |
  \\      /  F ield         | OpenFOAM: The Open Source CFD Toolbox
   \\    /   O peration     | Website:  https://openfoam.org
    \\  /    A nd           | Version:  12
     \\/     M anipulation  |
\*---------------------------------------------------------------------------*/
FoamFile
{
    format      ascii;
    class       volVectorField;
    location    "0.046";
    object      U;
}
// * * * * * * * * * * * * * * * * * * * * * * * * * * * * * * * * * * * * * //

dimensions      [0 1 -1 0 0 0 0];

internalField   nonuniform List<vector> 
16000
(
(213.83835 -3.1608662e-17 -8.3450375)
(250.76285 0 5.35099)
(236.78792 0 -7.5830918)
(244.52511 5.0038029e-17 3.7802754)
(239.79176 -4.9395743e-17 -6.0234263)
(242.03411 0 1.751371)
(240.20868 0 -4.4361289)
(240.73616 8.4557824e-17 -0.052438906)
(239.88134 -8.0342945e-17 -3.2853512)
(239.76938 0 -1.3365122)
(239.25212 7.2598911e-17 -2.697782)
(238.90847 -2.06841e-16 -2.1008726)
(238.46612 1.3092298e-16 -2.5710167)
(238.04023 -1.2453746e-16 -2.5157755)
(237.58636 1.1816667e-16 -2.6957431)
(237.11912 -3.5055239e-18 -2.7830129)
(236.63366 -3.3301375e-18 -2.9036342)
(236.13088 -9.8259267e-17 -3.0137906)
(235.61024 1.9251517e-16 -3.1263706)
(235.0716 -9.1342607e-17 -3.2373603)
(234.51481 1.7374046e-16 -3.3471685)
(233.93981 -1.6469619e-16 -3.4551199)
(233.34663 0 -3.5607369)
(232.73537 1.5329881e-16 -3.6634596)
(232.10626 -4.1543476e-18 -3.76272)
(231.45962 -2.675513e-16 -3.8579182)
(230.79591 1.2681022e-16 -3.9484476)
(230.11569 0 -4.0336882)
(229.41966 0 -4.1130234)
(228.70867 2.2020361e-16 -4.1858439)
(227.98369 -2.0517341e-16 -4.2515625)
(227.24583 0 -4.3096209)
(226.49635 0 -4.359502)
(225.73664 0 -4.4007423)
(224.96821 5.1756002e-18 -4.432941)
(224.19269 1.5705257e-16 -4.4557708)
(223.41183 -1.4376824e-16 -4.4689879)
(222.62748 -1.4079625e-16 -4.4724379)
(221.84155 1.2466561e-16 -4.4660638)
(221.05602 0 -4.4499105)
(220.27292 -1.1929587e-16 -4.4241243)
(219.49429 1.1260023e-16 -4.3889528)
(218.72216 -2.1337278e-16 -4.3447404)
(217.95855 2.0130751e-16 -4.2919207)
(217.2054 -1.9658088e-16 -4.2310058)
(216.4646 3.598884e-16 -4.1625708)
(215.73793 5.6278712e-18 -4.0872367)
(215.02704 2.8894037e-19 -4.0056495)
(214.33346 -1.5144494e-16 -3.9184567)
(213.65852 1.4320859e-16 -3.8262832)
(213.00335 -1.2649385e-16 -3.7297043)
(212.36888 0 -3.6292148)
(211.75572 7.5158852e-18 -3.5251986)
(211.16424 0 -3.4178933)
(210.59446 6.6864961e-18 -3.3073603)
(210.04604 2.0816732e-16 -3.1934618)
(209.51827 -3.804522e-16 -3.075845)
(209.01007 1.1012066e-17 -2.9539376)
(208.51987 1.6903035e-16 -2.8269646)
(208.04565 -1.4956989e-16 -2.6939868)
(207.58495 1.4089819e-16 -2.5539762)
(207.13504 -8.8636692e-18 -2.4059653)
(206.69306 0 -2.2491874)
(206.25634 0 -2.0833528)
(205.82291 -1.1165628e-16 -1.9089186)
(205.39216 1.1236426e-16 -1.7273591)
(204.96553 -9.952525e-17 -1.541427)
(204.54742 1.9428501e-16 -1.3553573)
(204.14591 -1.8958172e-16 -1.1749525)
(203.77302 8.4047085e-17 -1.0073717)
(203.44341 5.3043633e-18 -0.86031632)
(203.17034 0 -0.74000779)
(202.95878 4.7640136e-18 -0.64826835)
(202.79666 -4.5215868e-18 -0.58161564)
(202.651 0 -0.53085381)
(202.48853 -3.3748551e-17 -0.47471774)
(202.29973 6.2432796e-17 -0.40310982)
(201.97339 -3.1712113e-17 -0.34487547)
(201.55153 0 -0.12103396)
(200.88653 0 0.11375401)
(215.17105 0 -11.144213)
(252.40565 -3.7525055e-18 3.3190974)
(237.75047 -1.2059205e-16 -10.488331)
(245.99516 1.111875e-16 1.7055321)
(240.91524 0 -8.8689544)
(243.3791 1.0230649e-16 -0.39369976)
(241.35746 -1.8893414e-16 -7.1623513)
(241.96704 -1.0108014e-19 -2.320978)
(241.02463 8.5152494e-17 -5.8559504)
(240.91105 0 -3.7203518)
(240.35383 -1.5382079e-16 -5.1544854)
(239.9807 1.5047267e-16 -4.5279253)
(239.50645 1.4311392e-16 -4.9817356)
(239.04605 -2.6346012e-16 -4.9284607)
(238.55772 1.2111731e-16 -5.0870561)
(238.05416 1.1135082e-17 -5.1670488)
(237.53146 1.1643515e-16 -5.2715529)
(236.99019 -1.0370199e-16 -5.3676319)
(236.42996 0 -5.4637362)
(235.85067 0 -5.5572003)
(235.25224 5.7226202e-18 -5.6479154)
(234.63471 -1.7951e-16 -5.7351996)
(233.9982 3.403874e-16 -5.8184422)
(233.34295 -3.1806221e-16 -5.8969842)
(232.66934 1.4376154e-16 -5.9701527)
(231.97784 0 -6.0372603)
(231.26908 1.2537601e-16 -6.0976118)
(230.54383 -1.3444403e-16 -6.1505178)
(229.80299 0 -6.1953036)
(229.04763 3.5530687e-18 -6.2313194)
(228.27895 -1.3475364e-17 -6.2579524)
(227.4983 0 -6.2746412)
(226.70718 0 -6.2808835)
(225.90722 -1.7191934e-16 -6.2762546)
(225.10018 3.4136795e-16 -6.2604148)
(224.28791 -1.6391835e-16 -6.2331214)
(223.47239 -1.6027903e-16 -6.1942405)
(222.65565 1.4669658e-16 -6.1437505)
(221.83978 -1.129761e-16 -6.0817508)
(221.02692 -2.8082833e-19 -6.0084625)
(220.21919 -2.6252934e-19 -5.9242281)
(219.41871 2.3445849e-16 -5.8295065)
(218.62755 -1.1061577e-16 -5.724866)
(217.8477 0 -5.6109712)
(217.08109 2.037739e-16 -5.4885693)
(216.32949 1.2007435e-17 -5.3584704)
(215.59457 -5.1636766e-18 -5.2215256)
(214.87781 -1.6564092e-16 -5.078604)
(214.18054 0 -4.9305672)
(213.50387 -1.4749841e-16 -4.7782433)
(212.84871 -8.9038249e-18 -4.6223994)
(212.21571 2.6173777e-16 -4.4637101)
(211.60526 -1.3089177e-16 -4.3027267)
(211.01746 0 -4.139845)
(210.45209 -2.0502372e-17 -3.9752749)
(209.90861 -2.1240714e-16 -3.8090196)
(209.38613 3.6329927e-16 -3.6408581)
(208.88339 -2.1646604e-16 -3.4703389)
(208.39876 0 -3.2967943)
(207.93014 -1.7167092e-16 -3.1193889)
(207.47509 1.8040952e-16 -2.9371684)
(207.03088 2.6817824e-17 -2.7492486)
(206.59475 0 -2.5549527)
(206.16418 -1.42544e-16 -2.3540811)
(205.73741 7.3888572e-18 -2.1471971)
(205.31405 1.1223457e-16 -1.9358883)
(204.89584 -1.9824162e-17 -1.7230269)
(204.48742 9.3386431e-17 -1.5129585)
(204.09707 -1.0557882e-16 -1.311535)
(203.73681 5.5306222e-18 -1.1258434)
(203.42095 -5.2168045e-18 -0.96329585)
(203.16195 0 -0.82942289)
(202.96318 -4.6495271e-18 -0.72520319)
(202.81 4.3941646e-18 -0.64679128)
(202.6686 8.3133791e-18 -0.58334027)
(202.50712 9.8436092e-19 -0.51348205)
(202.29618 0 -0.44210006)
(201.95929 3.0182964e-17 -0.35938216)
(201.52365 -5.7510327e-17 -0.11643196)
(200.8247 2.5844883e-17 0.086344123)
(216.36549 0 -14.017011)
(253.89457 -1.2342084e-16 1.0889662)
(238.74057 2.5167952e-16 -13.478275)
(247.26217 -2.2478057e-16 -0.53426863)
(241.92278 1.1102133e-16 -11.787206)
(244.52285 -3.2872885e-18 -2.726332)
(242.37336 1.0006679e-16 -9.9383926)
(243.00957 -9.4776214e-17 -4.7796525)
(242.00989 -5.6267402e-18 -8.4937895)
(241.87338 -5.34271e-18 -6.2655325)
(241.28088 -1.0149493e-17 -7.710258)
(240.87186 1.4002122e-16 -7.0898976)
(240.36233 -1.4193775e-16 -7.510852)
(239.86359 1.3930237e-16 -7.4651408)
(239.33635 -1.1967343e-16 -7.6014586)
(238.79226 -1.5684751e-17 -7.6731719)
(238.22778 0 -7.7615763)
(237.6435 -1.1641846e-20 -7.8423543)
(237.03911 -2.2812832e-16 -7.9209095)
(236.41459 -3.6226131e-19 -7.9952477)
(235.76999 1.7485787e-16 -8.0649493)
(235.10548 1.7175584e-17 -8.1292438)
(234.42133 -2.1724142e-17 -8.1873986)
(233.71796 0 -8.2386483)
(232.9959 6.4625446e-21 -8.2822225)
(232.25585 -1.6675367e-16 -8.317347)
(231.49866 1.4897706e-16 -8.3432577)
(230.72532 8.3140347e-18 -8.3592068)
(229.937 0 -8.3644828)
(229.13502 -7.4583291e-18 -8.3584155)
(228.32086 -2.2207262e-21 -8.3403977)
(227.49618 -2.0075222e-16 -8.3098944)
(226.66273 2.02185e-16 -8.2664589)
(225.82245 1.1980635e-17 -8.2097496)
(224.97735 -1.8134299e-16 -8.1395375)
(224.12957 1.4966341e-16 -8.0557217)
(223.2813 -1.8234412e-16 -7.9583367)
(222.4348 1.5283563e-16 -7.847559)
(221.59234 -1.4469351e-16 -7.7237074)
(220.75617 1.3636598e-16 -7.5872455)
(219.92852 1.6122304e-17 -7.4387751)
(219.11155 0 -7.2790248)
(218.30732 2.010741e-16 -7.1088401)
(217.51777 -2.4337452e-16 -6.9291631)
(216.74471 0 -6.7410127)
(215.98977 1.8058782e-16 -6.5454618)
(215.25441 -1.584672e-16 -6.3436086)
(214.53989 1.7094856e-16 -6.1365519)
(213.84726 -1.8081074e-16 -5.9253622)
(213.17733 0 -5.7110549)
(212.5307 1.7824156e-16 -5.4945616)
(211.90769 -1.3395052e-16 -5.2766994)
(211.30837 0 -5.058143)
(210.73252 0 -4.8393963)
(210.17962 1.2544722e-16 -4.6207656)
(209.64888 -2.0948732e-16 -4.4023435)
(209.13917 1.2296487e-16 -4.1839931)
(208.64906 1.8500667e-16 -3.9653455)
(208.17677 1.6787495e-19 -3.7458129)
(207.72017 1.4490039e-19 -3.5246439)
(207.2768 -3.2554227e-16 -3.3009654)
(206.84402 8.9849429e-17 -3.0739745)
(206.4192 0 -2.8430979)
(206.00006 1.4272742e-16 -2.608231)
(205.58511 -1.637426e-16 -2.3700365)
(205.17434 1.1187746e-16 -2.1302016)
(204.76986 1.3170417e-17 -1.8917002)
(204.37668 -8.6338264e-17 -1.6589709)
(204.00334 1.1590585e-17 -1.437894)
(203.6619 2.1788798e-17 -1.2354776)
(203.36614 -1.0241686e-16 -1.0588264)
(203.12716 9.6305572e-17 -0.91279175)
(202.94593 -7.2487403e-17 -0.79763858)
(202.80512 1.3645797e-16 -0.70868461)
(202.67109 -5.6233184e-17 -0.63246633)
(202.51064 -6.0598142e-17 -0.54967915)
(202.28133 5.0051608e-17 -0.47496436)
(201.93141 0 -0.36593506)
(201.4828 3.20176e-18 -0.11694537)
(200.77501 -1.2153843e-17 0.056542629)
(217.40045 0 -16.960718)
(255.23179 0 -1.2761245)
(239.50747 0 -16.599412)
(248.35284 1.0741957e-16 -2.8788391)
(242.74858 -1.2473763e-16 -14.829564)
(245.50105 -2.2216309e-16 -5.1756531)
(243.21125 2.11311e-16 -12.828219)
(243.87493 -1.2516564e-17 -7.3650106)
(242.81197 5.9596215e-18 -11.238336)
(242.64759 -1.7526462e-16 -8.9415965)
(242.01561 1.7158995e-16 -10.374608)
(241.56507 1.0197166e-17 -9.7759247)
(241.01548 -1.5485223e-16 -10.155265)
(240.47308 1.3756527e-16 -10.118924)
(239.90188 -1.2971232e-20 -10.231616)
(239.31213 -8.2513484e-18 -10.293038)
(238.70089 0 -10.363718)
(238.06872 -7.4472755e-18 -10.426719)
(237.41542 -2.1199638e-16 -10.485051)
(236.74113 2.1406425e-16 -10.537167)
(236.04601 1.270563e-17 -10.582417)
(235.3304 -1.2045883e-17 -10.619939)
(234.59474 2.170698e-16 -10.648899)
(233.83965 -1.7291038e-16 -10.668438)
(233.06589 1.0253204e-17 -10.677696)
(232.2744 1.944151e-16 -10.675828)
(231.46628 -1.2860752e-16 -10.662008)
(230.64284 0 -10.635451)
(229.80553 1.485878e-16 -10.595425)
(228.956 -1.2472247e-16 -10.54127)
(228.09606 2.5133857e-16 -10.472413)
(227.22769 -1.343687e-17 -10.388387)
(226.35299 -2.1111086e-16 -10.288849)
(225.4742 1.7507969e-16 -10.173591)
(224.59364 -1.8860594e-16 -10.042555)
(223.71371 -3.0572678e-20 -9.895846)
(222.83685 2.1080839e-16 -9.7337325)
(221.96551 -3.1813149e-16 -9.5566526)
(221.1021 9.3630052e-17 -9.3652123)
(220.24897 3.5444226e-17 -9.160177)
(219.40838 -5.0115517e-17 -8.9424637)
(218.58249 0 -8.7131202)
(217.77325 -8.9156433e-17 -8.4733088)
(216.98249 1.396333e-16 -8.2242789)
(216.21181 -2.1080269e-16 -7.9673413)
(215.46262 1.9806426e-16 -7.7038401)
(214.73608 -2.10044e-16 -7.4351193)
(214.03313 3.9492362e-16 -7.1624949)
(213.35448 -3.0945906e-16 -6.8872251)
(212.70057 3.1028418e-16 -6.6104806)
(212.07163 -1.4562801e-16 -6.3333179)
(211.46758 1.3705216e-16 -6.0566525)
(210.88813 -9.6345147e-17 -5.7812327)
(210.3327 3.0204315e-17 -5.5076195)
(209.80045 0 -5.2361639)
(209.29029 0 -4.9669968)
(208.80086 0 -4.7000195)
(208.33055 2.3369559e-17 -4.4349052)
(207.87746 0 -4.1711166)
(207.43942 -1.6441728e-16 -3.9079621)
(207.014 1.924882e-16 -3.6446427)
(206.59866 -1.0830297e-16 -3.3804288)
(206.19095 -8.1690171e-20 -3.1148457)
(205.78882 2.5337358e-16 -2.8478754)
(205.39109 2.9720759e-17 -2.5802574)
(204.99807 -1.3895685e-16 -2.3137454)
(204.6122 5.2082935e-17 -2.0513712)
(204.23878 -1.4635376e-16 -1.7976096)
(203.8865 -4.5714141e-17 -1.5583077)
(203.56725 -6.4245893e-17 -1.3403385)
(203.29416 -6.0206948e-17 -1.1504369)
(203.07689 5.6422877e-17 -0.99280461)
(202.91408 0 -0.86712007)
(202.78636 0 -0.76765206)
(202.66081 -1.5512523e-17 -0.67865675)
(202.5017 0 -0.58393843)
(202.25655 6.8435506e-18 -0.50079786)
(201.89594 5.1508274e-17 -0.36823673)
(201.4386 -7.2792843e-17 -0.12165872)
(200.73179 -1.7581197e-20 0.02125231)
(218.2613 0 -20.101832)
(256.39948 -8.8809217e-18 -3.715361)
(240.1477 2.6857963e-16 -19.852987)
(249.22078 -2.5088694e-16 -5.3509192)
(243.34305 2.560121e-16 -17.987251)
(246.2791 -2.3424323e-16 -7.7777624)
(243.85196 -2.2329874e-16 -15.823499)
(244.53142 2.1138941e-16 -10.10829)
(243.4085 0 -14.084885)
(243.20506 0 -11.767155)
(242.53136 1.8117374e-16 -13.151954)
(242.0325 -1.7164546e-16 -12.593863)
(241.43806 -1.0196479e-17 -12.921662)
(240.84676 2.9003907e-17 -12.893875)
(240.22655 -9.1781733e-18 -12.981032)
(239.58623 3.4811946e-17 -13.028377)
(238.92342 0 -13.078433)
(238.23862 0 -13.1199)
(237.5318 -2.3773464e-16 -13.154162)
(236.80319 2.1084278e-16 -13.179889)
(236.05316 0 -13.196247)
(235.2822 0 -13.202271)
(234.49101 -1.9181986e-16 -13.196997)
(233.68044 3.630161e-16 -13.179465)
(232.85154 -1.716937e-16 -13.148721)
(232.00558 -2.0338925e-17 -13.103838)
(231.14401 -3.8521289e-17 -13.043944)
(230.26848 -1.4595408e-16 -12.968227)
(229.38085 1.2050969e-16 -12.875968)
(228.48315 0 -12.766552)
(227.57759 -3.0861181e-17 -12.639493)
(226.66652 0 -12.494455)
(225.75244 0 -12.331262)
(224.83791 2.0829476e-16 -12.149921)
(223.92559 -2.2077549e-16 -11.950627)
(223.01812 2.3157246e-17 -11.733768)
(222.11818 -2.1848822e-17 -11.499934)
(221.22835 -4.1303199e-17 -11.249908)
(220.35115 -8.5649925e-20 -10.984658)
(219.48895 8.1228666e-20 -10.70532)
(218.64397 -7.6539451e-20 -10.413185)
(217.81823 0 -10.109668)
(217.01354 -1.2255961e-16 -9.7962841)
(216.23146 1.150865e-16 -9.474611)
(215.47331 0 -9.1462595)
(214.74014 -5.0997408e-17 -8.8128417)
(214.03274 1.9165176e-16 -8.4759297)
(213.35165 -2.2466291e-16 -8.1370293)
(212.69714 -2.1132869e-16 -7.7975468)
(212.06922 1.5843648e-16 -7.4587621)
(211.46767 1.1171819e-16 -7.1218033)
(210.89198 -1.3945044e-16 -6.787626)
(210.34145 -3.2689538e-17 -6.4569916)
(209.81512 -2.1471232e-16 -6.1304554)
(209.31181 1.1483337e-16 -5.8083509)
(208.83012 -1.0767452e-16 -5.4907865)
(208.36845 1.0071526e-16 -5.177645)
(207.92501 2.3591381e-16 -4.868591)
(207.49779 -1.7645136e-16 -4.5630943)
(207.08459 0 -4.2604881)
(206.68305 -3.8602503e-17 -3.9600284)
(206.29076 -7.2232633e-17 -3.6610451)
(205.90548 1.3500258e-16 -3.3631521)
(205.52546 1.2626019e-16 -3.0664209)
(205.14984 -2.3596034e-16 -2.7716678)
(204.7793 8.2654158e-17 -2.4807156)
(204.41666 5.1506464e-17 -2.1966463)
(204.0675 9.6271314e-17 -1.9239491)
(203.74059 1.3492168e-16 -1.6684058)
(203.44753 7.1133168e-21 -1.4366891)
(203.20057 0 -1.2350595)
(203.00779 0 -1.0670571)
(202.86538 -3.4271634e-17 -0.93179626)
(202.75225 9.6072366e-17 -0.82224871)
(202.63625 -8.9802613e-17 -0.72106131)
(202.47859 -8.3986281e-17 -0.61619686)
(202.22111 5.2397038e-17 -0.5218657)
(201.85463 0 -0.36858928)
(201.39154 4.602623e-17 -0.12961084)
(200.69259 3.3445611e-20 -0.017473439)
(218.92806 0 -23.413156)
(257.37134 1.828621e-20 -6.2334586)
(240.59727 9.139267e-18 -23.204206)
(249.92292 2.905805e-16 -7.9612309)
(243.77771 3.3026999e-19 -21.24964)
(246.82804 -5.097137e-16 -10.531194)
(244.25196 -3.1995019e-19 -18.913384)
(244.94933 4.5974935e-16 -13.014459)
(243.77085 -2.1153691e-16 -17.031027)
(243.51855 -1.2548401e-17 -14.741883)
(242.80148 1.1917324e-17 -16.041444)
(242.24902 -1.8096543e-16 -15.53748)
(241.60583 1.9280519e-16 -15.805816)
(240.96126 -1.8319121e-16 -15.782467)
(240.2876 3.0859603e-16 -15.8419)
(239.59209 -3.1092006e-16 -15.87056)
(238.87293 1.3857599e-16 -15.896476)
(238.1306 0 -15.912253)
(237.36528 0 -15.918151)
(236.5774 1.4759981e-17 -15.912851)
(235.76754 -2.7987512e-17 -15.895312)
(234.93652 0 -15.864414)
(234.08533 2.0095997e-16 -15.819046)
(233.2152 4.6599115e-19 -15.758128)
(232.32758 -3.5963777e-16 -15.68061)
(231.42416 1.6992887e-16 -15.585511)
(230.50682 2.0104248e-17 -15.471937)
(229.5777 0 -15.3391)
(228.63911 -1.8008004e-16 -15.18635)
(227.69356 1.3579156e-16 -15.013194)
(226.74371 -2.2515455e-16 -14.819316)
(225.79236 2.1192897e-16 -14.6046)
(224.84239 -2.2933652e-16 -14.369139)
(223.89672 2.1587008e-16 -14.113258)
(222.95829 7.6516958e-17 -13.837507)
(222.03 0 -13.542666)
(221.11465 0 -13.229741)
(220.21492 4.2638055e-17 -12.899949)
(219.33331 4.0156562e-17 -12.554697)
(218.4721 -3.7803733e-17 -12.195562)
(217.63335 3.5573713e-17 -11.824258)
(216.81884 6.7108011e-17 -11.442596)
(216.03006 -6.3023129e-17 -11.052463)
(215.2682 3.5531224e-16 -10.655765)
(214.53416 -2.7792108e-16 -10.2544)
(213.82853 5.2157995e-17 -9.8502157)
(213.15164 -4.9071206e-17 -9.4449717)
(212.50351 0 -9.0403107)
(211.8839 2.1563392e-16 -8.6377269)
(211.29234 -1.6150702e-16 -8.2385437)
(210.7281 0 -7.8438912)
(210.19025 0 -7.4546949)
(209.67763 1.3283572e-16 -7.0716595)
(209.1889 -6.208871e-17 -6.6952656)
(208.72254 0 -6.3257632)
(208.27687 -1.6307319e-16 -5.9631761)
(207.85007 1.0151071e-16 -5.6073107)
(207.44017 1.4243758e-16 -5.2577721)
(207.0451 -1.7719855e-16 -4.9139926)
(206.66265 1.6557633e-16 -4.575292)
(206.29054 -1.5446456e-16 -4.2409536)
(205.92653 6.0879518e-20 -3.9103546)
(205.56864 0 -3.5831824)
(205.21542 6.2741871e-17 -3.2596017)
(204.86641 -2.9256857e-16 -2.9405168)
(204.52268 1.6362991e-16 -2.6278293)
(204.18743 0 -2.3246786)
(203.86652 -1.4219162e-16 -2.0355629)
(203.56869 8.8333487e-17 -1.7661645)
(203.30511 1.2348587e-16 -1.5228582)
(203.08702 1.7288192e-21 -1.3113019)
(202.92076 -7.1430187e-17 -1.134365)
(202.80017 9.9796652e-17 -0.99055243)
(202.70293 -1.549279e-16 -0.87126437)
(202.59741 8.6600425e-17 -0.75856527)
(202.44093 2.6897347e-17 -0.64549747)
(202.1758 5.0157743e-17 -0.53918938)
(201.80864 0 -0.36794123)
(201.34305 -4.3697732e-17 -0.14039116)
(200.65529 2.0366718e-17 -0.059323096)
(219.38197 0 -26.891781)
(258.13698 9.8817824e-18 -8.8587713)
(240.84813 -3.0812936e-16 -26.680667)
(250.44018 2.5162014e-16 -10.711849)
(244.01934 2.5844912e-16 -24.610118)
(247.13542 -5.0410643e-16 -13.439788)
(244.44407 2.3188279e-16 -22.084819)
(245.10871 2.3476701e-16 -16.083834)
(243.88584 -2.2249939e-16 -20.063226)
(243.57507 3.9605462e-17 -17.854902)
(242.81378 0 -19.033001)
(242.20229 0 -18.592377)
(241.50552 -2.2525066e-17 -18.797436)
(240.80205 -1.7101649e-16 -18.773765)
(240.06882 1.4153394e-16 -18.804591)
(239.31171 1.9199613e-17 -18.810728)
(238.52956 -3.6394306e-17 -18.809293)
(237.723 3.104978e-16 -18.795288)
(236.8925 -2.2817797e-16 -18.768188)
(236.03882 2.4764676e-16 -18.726563)
(235.16293 -2.0465271e-16 -18.669165)
(234.26605 2.7745969e-17 -18.59472)
(233.34962 1.5762198e-16 -18.501988)
(232.41536 -1.9825309e-16 -18.389799)
(231.46525 0 -18.25706)
(230.50149 0 -18.102788)
(229.52655 0 -17.926145)
(228.54311 -1.9851814e-16 -17.726457)
(227.55405 1.870048e-16 -17.503243)
(226.56239 -3.543097e-17 -17.256239)
(225.57131 0 -16.985424)
(224.58404 -2.8398951e-16 -16.691029)
(223.60385 2.3735586e-16 -16.373549)
(222.63399 -5.6134144e-17 -16.03375)
(221.67762 1.5873332e-16 -15.672668)
(220.73778 -4.9336548e-17 -15.291588)
(219.8173 -1.8708825e-16 -14.892039)
(218.91882 2.2067492e-16 -14.475759)
(218.04467 -1.6566702e-16 -14.044665)
(217.1969 7.81342e-17 -13.600821)
(216.37722 -7.3309408e-17 -13.146391)
(215.58702 1.3780216e-16 -12.683599)
(214.8273 -6.4565622e-17 -12.214682)
(214.09876 -2.42971e-16 -11.741849)
(213.40172 5.1230715e-16 -11.267233)
(212.73621 -2.1335603e-16 -10.792858)
(212.10197 -1.5032249e-16 -10.320599)
(211.49844 9.3465011e-17 -9.8521556)
(210.92482 8.7900318e-17 -9.3890265)
(210.3801 -1.6441716e-16 -8.932492)
(209.86306 1.5361523e-16 -8.4836017)
(209.37229 0 -8.0431688)
(208.90622 1.3441284e-16 -7.6117653)
(208.46315 -1.882632e-16 -7.189725)
(208.04124 5.8658721e-17 -6.7771487)
(207.63858 5.4663936e-17 -6.373916)
(207.25314 0 -5.9797042)
(206.88285 0 -5.5940112)
(206.52558 0 -5.21619)
(206.17917 0 -4.8455148)
(205.84145 0 -4.481264)
(205.51039 -7.1771505e-17 -4.122847)
(205.18427 0 -3.7700127)
(204.86203 -4.8860284e-20 -3.4230212)
(204.5436 2.3165144e-16 -3.0828781)
(204.23049 -2.1548611e-16 -2.7515749)
(203.92631 -1.0025212e-16 -2.4323294)
(203.63715 -1.8638617e-16 -2.12967)
(203.37161 2.5985432e-16 -1.8491232)
(203.14033 4.4756817e-20 -1.5966344)
(202.95342 7.4791524e-17 -1.3771733)
(202.81538 0 -1.1929638)
(202.71785 0 -1.041769)
(202.63786 0 -0.91321357)
(202.54363 -1.1129909e-16 -0.79006448)
(202.38887 0 -0.67024159)
(202.12169 -9.6058643e-17 -0.55232774)
(201.75863 1.339283e-16 -0.36701389)
(201.29357 8.306646e-17 -0.15318696)
(200.6186 -1.9261887e-17 -0.10305942)
(219.62369 0 -30.547054)
(258.7014 0 -11.590645)
(240.9054 3.241829e-16 -30.28723)
(250.77501 1.9442094e-17 -13.619251)
(244.07728 -2.7130616e-16 -28.077784)
(247.25268 0 -16.525871)
(244.44506 1.6255866e-17 -25.334942)
(245.13992 -3.0817956e-17 -19.308844)
(243.76116 0 -23.16099)
(243.37593 1.9425616e-16 -21.088476)
(242.56411 -4.2057025e-16 -22.121396)
(241.88364 1.9915128e-16 -21.751373)
(241.124 2.3637677e-17 -21.895204)
(240.35219 0 -21.866242)
(239.54989 2.1209099e-17 -21.867584)
(238.72183 -3.4211467e-16 -21.846751)
(237.86752 7.5434976e-17 -21.813397)
(236.98786 2.5212816e-16 -21.763913)
(236.08375 2.3942426e-16 -21.697282)
(235.15639 -2.5825731e-16 -21.61195)
(234.20724 0 -21.506504)
(233.23807 -2.8974518e-16 -21.379558)
(232.25091 2.4601436e-16 -21.229797)
(231.2481 -2.0734077e-16 -21.05603)
(230.23225 1.9542534e-16 -20.857201)
(229.20624 -1.8518435e-16 -20.632425)
(228.17318 3.4933557e-16 -20.381036)
(227.1364 -1.6484687e-16 -20.102597)
(226.0994 1.5588769e-16 -19.796942)
(225.06577 -2.9388744e-16 -19.464191)
(224.03917 1.3831814e-16 -19.10477)
(223.02326 1.3061777e-16 -18.719422)
(222.02163 -2.4642023e-16 -18.3092)
(221.03775 5.722399e-17 -17.875462)
(220.07487 -5.6309914e-19 -17.419865)
(219.136 2.5633276e-16 -16.944314)
(218.22387 0 -16.450955)
(217.34083 1.9230135e-19 -15.942119)
(216.48888 0 -15.420277)
(215.6696 -7.9986308e-17 -14.887995)
(214.88418 -1.5030348e-16 -14.347884)
(214.13339 7.0566753e-17 -13.802539)
(213.4176 0 -13.254499)
(212.73682 -6.2168402e-17 -12.706197)
(212.09071 2.9095209e-16 -12.159916)
(211.47861 -3.2663092e-16 -11.617756)
(210.89957 -3.0600429e-16 -11.081602)
(210.35243 2.8570115e-16 -10.553102)
(209.8358 -1.7827171e-16 -10.033652)
(209.34812 0 -9.524389)
(208.88767 0 -9.0261868)
(208.45262 7.2733322e-17 -8.5396594)
(208.04103 6.786973e-17 -8.0651683)
(207.65087 1.2647415e-16 -7.6028321)
(207.28007 -5.8976202e-17 -7.1525425)
(206.92652 -1.0984171e-16 -6.7139844)
(206.58807 -2.0477862e-16 -6.2866625)
(206.26259 -9.5494285e-17 -5.8699301)
(205.94796 1.7735787e-16 -5.4630299)
(205.64209 0 -5.0651642)
(205.34297 -7.6793735e-17 -4.6755846)
(205.04883 -1.4271415e-16 -4.2937167)
(204.75826 1.3263218e-16 -3.9193644)
(204.47055 6.1537384e-17 -3.5528854)
(204.18609 5.7205735e-17 -3.1953966)
(203.90685 0 -2.8489884)
(203.63681 1.9710098e-16 -2.5169764)
(203.38223 1.8285473e-16 -2.2039317)
(203.15155 -2.5434772e-16 -1.9151573)
(202.95471 7.8662108e-17 -1.6560208)
(202.80063 -7.2837718e-17 -1.4307811)
(202.69186 1.3765934e-20 -1.2410786)
(202.6183 2.5012604e-16 -1.0837385)
(202.55673 -2.3164511e-16 -0.9466991)
(202.47444 5.363294e-17 -0.81455346)
(202.32312 1.4900613e-16 -0.68956636)
(202.05967 -4.6007143e-17 -0.56169859)
(201.70572 -4.2622004e-17 -0.36681469)
(201.24359 0 -0.16795271)
(200.58175 3.6576305e-17 -0.14744208)
(219.66418 3.9417291e-16 -34.388619)
(259.07199 5.3592331e-19 -14.436691)
(240.75024 -3.6134744e-16 -34.043777)
(250.92196 0 -16.692391)
(243.87745 0 -31.621994)
(247.04497 -2.6961981e-16 -19.786673)
(244.13879 2.7276807e-16 -28.640069)
(244.66924 6.469306e-17 -22.693775)
(243.35991 -2.4554745e-16 -26.354639)
(242.89987 2.3226548e-16 -24.464665)
(242.02729 -2.4823109e-16 -25.331443)
(241.26531 2.0864718e-16 -25.027628)
(240.43091 -4.9496976e-17 -25.110459)
(239.57924 -4.6937097e-17 -25.066648)
(238.69651 -1.7785579e-16 -25.033755)
(237.78657 1.6799349e-16 -24.978363)
(236.84962 -3.5873392e-16 -24.905258)
(235.88697 6.0300894e-16 -24.81152)
(234.90007 -2.8491352e-16 -24.695743)
(233.89073 -2.7031371e-16 -24.55624)
(232.86105 2.5491407e-16 -24.391469)
(231.81349 -3.0353629e-17 -24.199982)
(230.75085 -2.2848183e-16 -23.980468)
(229.67622 2.1523503e-16 -23.731813)
(228.59301 2.5494256e-16 -23.453117)
(227.50486 -1.4375887e-16 -23.143741)
(226.41564 0 -22.803351)
(225.32939 2.5704805e-16 -22.431927)
(224.25022 -3.2284927e-16 -22.029811)
(223.18229 1.1359926e-16 -21.597703)
(222.1297 -2.8716086e-16 -21.136676)
(221.0964 2.0231833e-16 -20.648168)
(220.08617 -6.3740595e-17 -20.133969)
(219.1025 2.3951922e-16 -19.596182)
(218.14853 -2.2467199e-16 -19.037207)
(217.22704 -2.1172002e-16 -18.459676)
(216.34033 1.9843727e-16 -17.86641)
(215.49027 -4.6537982e-17 -17.260366)
(214.67822 0 -16.644566)
(213.90508 8.2334901e-17 -16.022045)
(213.17126 -7.6845422e-17 -15.395791)
(212.47672 0 -14.768686)
(211.82103 1.3528195e-16 -14.143458)
(211.20338 -6.3281526e-17 -13.52264)
(210.62263 -1.774103e-16 -12.90853)
(210.07737 5.5334563e-16 -12.303165)
(209.56596 -2.0716081e-16 -11.708303)
(209.08659 9.660552e-17 -11.125411)
(208.63731 -2.7086518e-16 -10.555662)
(208.21605 -1.7053728e-19 -9.9999372)
(207.82066 1.5702542e-16 -9.4588376)
(207.44893 -1.4646441e-16 -8.9326946)
(207.09864 -6.8155171e-17 -8.4215871)
(206.76752 -6.3478729e-17 -7.9253606)
(206.45333 -1.1849381e-16 -7.4436504)
(206.15385 2.2007883e-16 -6.9759106)
(205.86691 0 -6.521444)
(205.59036 9.5080362e-17 -6.0794369)
(205.32217 -3.5371321e-16 -5.6490039)
(205.06038 2.4621117e-16 -5.2292619)
(204.8032 7.6179095e-17 -4.8194246)
(204.54912 1.4148113e-16 -4.4189268)
(204.29707 1.3139193e-16 -4.0276249)
(204.04677 -1.2169299e-16 -3.6459755)
(203.79903 -1.1274714e-16 -3.2752164)
(203.55626 -3.1341253e-16 -2.9175533)
(203.32278 -3.9920633e-21 -2.5763869)
(203.10497 -8.954254e-17 -2.2562848)
(202.91098 0 -1.9622632)
(202.75005 -2.2999631e-16 -1.6990521)
(202.62972 7.0924007e-17 -1.4702147)
(202.55074 0 -1.2768436)
(202.50181 1.2113805e-16 -1.1146686)
(202.45969 0 -0.97047381)
(202.39002 1.0334074e-16 -0.83181634)
(202.24412 -1.4318397e-16 -0.70405134)
(201.99006 1.3225921e-16 -0.567793)
(201.64988 -8.1452431e-17 -0.36652337)
(201.19335 7.5283208e-17 -0.18580309)
(200.54437 0 -0.19229809)
(219.49394 -4.140958e-16 -38.420848)
(259.23689 3.6596922e-16 -17.415223)
(240.34409 -3.3521857e-16 -37.98504)
(250.82273 3.3339139e-16 -19.94916)
(243.395 3.1923433e-16 -35.225136)
(246.60498 -1.8157459e-17 -23.229621)
(243.58639 -2.8585924e-16 -32.021851)
(244.06453 -2.7135929e-16 -26.267412)
(242.6734 2.8883628e-16 -29.665227)
(242.10468 0 -27.98608)
(241.16073 2.8819709e-17 -28.671845)
(240.30454 0 -28.421759)
(239.38261 -1.2961881e-16 -28.443696)
(238.4388 2.4474707e-16 -28.373318)
(237.46346 0 -28.298477)
(236.46 0 -28.198271)
(235.42943 0 -28.07448)
(234.37366 3.9411559e-17 -27.924456)
(233.2949 0 -27.746515)
(232.19574 -2.4647495e-16 -27.53888)
(231.07915 3.3208768e-16 -27.299955)
(229.94849 1.2564817e-16 -27.028342)
(228.80749 1.7815171e-16 -26.722862)
(227.66019 -2.798272e-16 -26.382638)
(226.5109 -5.2729664e-17 -26.00712)
(225.36416 -2.4951704e-16 -25.596126)
(224.22464 1.8779314e-16 -25.149881)
(223.09709 -2.2177906e-16 -24.669038)
(221.9862 8.2983757e-17 -24.154683)
(220.89656 7.8445226e-17 -23.608342)
(219.83254 0 -23.031962)
(218.79822 2.7901726e-16 -22.427877)
(217.79727 -2.6204862e-16 -21.798781)
(216.83295 0 -21.147662)
(215.90795 -2.3162149e-16 -20.477754)
(215.02447 2.1694537e-16 -19.792465)
(214.1841 -1.0222228e-16 -19.095302)
(213.38785 1.9137036e-16 -18.389808)
(212.63618 -2.688804e-16 -17.67948)
(211.92901 1.2402415e-19 -16.967713)
(211.26577 -1.5707795e-16 -16.257733)
(210.64543 -7.3501989e-17 -15.552548)
(210.0666 -1.379328e-16 -14.854903)
(209.52756 2.5713933e-16 -14.167253)
(209.02634 -1.1998334e-16 -13.491734)
(208.56076 0 -12.830153)
(208.12853 -3.7861527e-19 -12.183982)
(207.72723 9.7579686e-17 -11.554366)
(207.35441 0 -10.94213)
(207.00758 8.4850146e-17 -10.347795)
(206.68426 7.9319089e-17 -9.7715999)
(206.38199 -7.3658903e-17 -9.2135239)
(206.09833 2.7417909e-16 -8.6733078)
(205.8309 -2.5487332e-16 -8.150483)
(205.57741 -1.1852044e-16 -7.6444005)
(205.33561 -1.1009251e-16 -7.1542645)
(205.10337 1.022139e-16 -6.6791652)
(204.87864 1.8957014e-16 -6.2181168)
(204.65953 -3.5163839e-16 -5.7701039)
(204.44427 4.0748297e-16 -5.3341598)
(204.23134 -1.5097122e-16 -4.9094621)
(204.01953 1.3993915e-16 -4.495458)
(203.80815 -1.2951293e-16 -4.0920608)
(203.59732 2.3980756e-16 -3.6998257)
(203.38832 -3.3285577e-16 -3.3201186)
(203.18395 2.0520545e-16 -2.9552806)
(202.98878 -7.1657171e-20 -2.6087455)
(202.80917 8.7653828e-17 -2.2850155)
(202.65305 0 -1.9887332)
(202.52871 0 -1.7239716)
(202.44232 0 -1.4937354)
(202.39314 -1.2714351e-16 -1.2985177)
(202.36936 3.2672905e-20 -1.1329359)
(202.34773 0 -0.98360698)
(202.29162 0 -0.84185067)
(202.15345 9.1749631e-17 -0.71341629)
(201.91403 -1.6906589e-16 -0.56958678)
(201.5911 0 -0.36441673)
(201.14298 0 -0.20677627)
(200.50659 -1.3192928e-16 -0.23729865)
(219.08135 2.7938263e-17 -42.654986)
(259.16181 -7.9236627e-16 -20.553746)
(239.66293 3.50713e-16 -42.060876)
(250.22038 -2.1912564e-17 -23.377697)
(242.60057 3.7626102e-16 -38.948549)
(245.83901 -3.5486061e-16 -26.893425)
(242.7361 0 -35.520973)
(243.08058 -3.1963645e-16 -30.033573)
(241.6386 2.3498589e-16 -33.091809)
(240.94581 2.2317969e-16 -31.647015)
(239.9169 -2.4091401e-16 -32.146898)
(238.95245 0 -31.930718)
(237.92862 1.9008727e-19 -31.889838)
(236.87918 0 -31.778789)
(235.79817 3.8801166e-16 -31.650492)
(234.68899 -7.3298744e-16 -31.491718)
(233.55362 3.460463e-16 -31.302448)
(232.39486 -4.087591e-17 -31.080138)
(231.2159 -3.8837478e-17 -30.822935)
(230.02041 3.6907784e-17 -30.529064)
(228.81248 -6.8928666e-17 -30.197032)
(227.59662 -3.2649774e-16 -29.825648)
(226.37768 3.0729171e-16 -29.414099)
(225.1608 5.7925497e-17 -28.962003)
(223.95133 -2.7447613e-16 -28.469434)
(222.75473 -6.8739625e-19 -27.936981)
(221.57642 2.9150131e-16 -27.365748)
(220.42177 -1.8294941e-16 -26.757359)
(219.29587 -6.0726584e-19 -26.11395)
(218.20351 0 -25.438135)
(217.14902 0 -24.732962)
(216.13624 -7.1963506e-17 -24.001851)
(215.16836 1.3472278e-16 -23.248533)
(214.24793 0 -22.476957)
(213.37683 -1.1905266e-16 -21.691216)
(212.55622 2.2275247e-16 -20.895451)
(211.78658 -1.0435497e-16 -20.093765)
(211.06773 -1.9554043e-16 -19.290148)
(210.39893 9.0878809e-17 -18.488397)