/*--------------------------------*- C++ -*----------------------------------*\
  =========                 |
  \\      /  F ield         | OpenFOAM: The Open Source CFD Toolbox
   \\    /   O peration     | Website:  https://openfoam.org
    \\  /    A nd           | Version:  12
     \\/     M anipulation  |
\*---------------------------------------------------------------------------*/
FoamFile
{
    format      ascii;
    class       volScalarField;
    location    "0.067";
    object      k;
}
// * * * * * * * * * * * * * * * * * * * * * * * * * * * * * * * * * * * * * //

dimensions      [0 2 -2 0 0 0 0];

internalField   nonuniform List<scalar> 
16000
(
0.047864223
0.021808354
0.022410371
0.016398582
0.013933432
0.01262585
0.011846226
0.011380983
0.011064538
0.010851704
0.010694731
0.010577791
0.010486531
0.010414253
0.010356039
0.010308903
0.010270495
0.010238962
0.010213143
0.010192067
0.010174629
0.010160491
0.010149164
0.010140089
0.010133016
0.010127648
0.010123783
0.010121257
0.010119932
0.010119678
0.010120374
0.010121917
0.010124223
0.010127219
0.010130843
0.01013503
0.010139718
0.010144842
0.010150342
0.010156158
0.010162229
0.010168492
0.010174896
0.01018139
0.01018792
0.010194428
0.010200859
0.01020716
0.010213272
0.010219144
0.010224732
0.010230007
0.01023495
0.010239548
0.010243788
0.010247664
0.010251187
0.010254391
0.010257337
0.010260093
0.010262703
0.010265185
0.010267567
0.010269872
0.010272114
0.010274259
0.010276135
0.010277282
0.010276802
0.010273293
0.010264985
0.010250183
0.010228018
0.010198878
0.010164713
0.010140799
0.010126319
0.010145809
0.010104491
0.0101233
0.045287066
0.02057475
0.020986012
0.015855923
0.013589586
0.012419923
0.011682755
0.011261859
0.010962285
0.010766509
0.010619786
0.010511543
0.010426658
0.010359852
0.010306119
0.010262776
0.010227657
0.010199024
0.010175728
0.010156987
0.010141632
0.010129364
0.010119798
0.01011235
0.010106797
0.010102854
0.010100322
0.010099045
0.010098889
0.010099735
0.010101464
0.010103974
0.010107178
0.010111006
0.010115392
0.010120273
0.010125589
0.010131274
0.010137266
0.010143506
0.010149936
0.010156492
0.010163121
0.010169779
0.010176417
0.010182982
0.010189424
0.010195694
0.010201742
0.010207518
0.010212979
0.010218101
0.01022287
0.01022728
0.010231327
0.010235009
0.010238332
0.010241323
0.010244038
0.010246548
0.010248915
0.010251173
0.010253347
0.010255452
0.010257471
0.010259337
0.010260847
0.010261526
0.010260477
0.010256304
0.010247286
0.010231825
0.010209199
0.010180516
0.010149476
0.010126157
0.010116746
0.010131434
0.010101954
0.010123842
0.041763628
0.019700915
0.01966492
0.015298812
0.013238501
0.012193749
0.011513774
0.011134622
0.010857977
0.010680267
0.010544613
0.0104455
0.010367456
0.010306397
0.010257462
0.010218169
0.010186534
0.010160985
0.010140387
0.010124123
0.010110998
0.010100725
0.010093026
0.010087304
0.010083359
0.010080921
0.010079798
0.010079838
0.010080914
0.010082912
0.010085719
0.010089233
0.010093368
0.010098049
0.010103212
0.010108794
0.010114733
0.010120964
0.010127425
0.010134056
0.0101408
0.010147595
0.010154388
0.010161137
0.010167799
0.010174327
0.010180678
0.010186809
0.010192676
0.010198235
0.010203447
0.010208291
0.010212758
0.010216852
0.010220577
0.010223939
0.010226946
0.010229618
0.010232003
0.010234172
0.010236195
0.010238121
0.010239983
0.010241786
0.01024349
0.010244985
0.010246019
0.010246089
0.010244288
0.010239242
0.010229293
0.010213023
0.010189884
0.010161226
0.010133313
0.010112383
0.010105927
0.010119112
0.010099878
0.010119957
0.037926277
0.019101873
0.018520522
0.014799823
0.012920658
0.011988583
0.01135906
0.011018214
0.01076222
0.010600879
0.010475806
0.010385137
0.010313617
0.01025798
0.010213625
0.01017823
0.010149957
0.010127388
0.010109399
0.010095543
0.010084603
0.010076281
0.010070412
0.010066387
0.010064022
0.010063064
0.010063325
0.010064658
0.010066939
0.010070059
0.010073909
0.010078387
0.010083405
0.010088888
0.010094768
0.010100982
0.010107468
0.010114162
0.010121001
0.010127925
0.010134878
0.010141801
0.010148642
0.010155361
0.010161922
0.010168285
0.010174414
0.010180272
0.010185826
0.010191037
0.010195871
0.010200309
0.010204348
0.010208
0.01021128
0.010214201
0.010216775
0.010219019
0.010220974
0.010222702
0.010224282
0.010225772
0.010227211
0.010228603
0.010229884
0.010230907
0.01023137
0.010230733
0.010228096
0.010222122
0.010211211
0.010194132
0.010170699
0.010142321
0.010117382
0.010098907
0.010094035
0.01010575
0.010097922
0.010116506
0.035270305
0.018754357
0.017523445
0.014337384
0.012624982
0.011794906
0.01121406
0.01090859
0.010672868
0.010526859
0.010412156
0.010329544
0.010264412
0.010214035
0.010174153
0.010142582
0.010117633
0.01009803
0.010082612
0.010071145
0.010062389
0.010056023
0.010051977
0.010049656
0.01004887
0.010049393
0.010051039
0.010053662
0.010057139
0.010061365
0.010066234
0.010071644
0.010077505
0.010083738
0.010090274
0.01009705
0.010104001
0.010111067
0.010118183
0.01012529
0.010132335
0.010139263
0.010146023
0.01015258
0.010158904
0.010164963
0.010170727
0.010176172
0.01018127
0.010185992
0.01019031
0.010194208
0.010197688
0.010200769
0.010203475
0.01020583
0.010207851
0.010209555
0.010210974
0.010212165
0.010213203
0.010214154
0.010215064
0.010215934
0.010216689
0.010217142
0.010216947
0.010215523
0.010211978
0.010205027
0.010193123
0.010175157
0.010151502
0.010123996
0.01010174
0.010085641
0.010081961
0.010093195
0.010092763
0.010107432
0.033212833
0.018660517
0.016728419
0.013913417
0.01235296
0.011614801
0.011080103
0.010807039
0.010590838
0.010458944
0.010354297
0.010279289
0.010220341
0.010175029
0.010139481
0.010111631
0.010089935
0.010073271
0.010060381
0.010051279
0.010044697
0.010040314
0.010038067
0.010037467
0.010038246
0.010040247
0.01004327
0.01004717
0.010051822
0.010057124
0.010062969
0.010069257
0.010075894
0.010082799
0.010089903
0.010097137
0.010104442
0.010111754
0.010119015
0.010126165
0.010133156
0.010139936
0.010146462
0.0101527
0.01015863
0.010164227
0.010169474
0.010174352
0.010178845
0.010182933
0.010186595
0.010189819
0.010192612
0.010194996
0.010197006
0.010198675
0.010200026
0.010201081
0.010201865
0.010202425
0.01020283
0.010203149
0.010203429
0.010203673
0.010203796
0.010203589
0.010202661
0.010200394
0.010195894
0.01018794
0.010175057
0.010156161
0.010132135
0.010106322
0.010086576
0.010072719
0.010070044
0.010081551
0.010087902
0.010096795
0.030657476
0.018744153
0.016178375
0.013524545
0.012102476
0.011447644
0.010956965
0.010713447
0.010516037
0.010397099
0.010302165
0.010234364
0.010181407
0.010141011
0.010109698
0.010085507
0.010067015
0.010053287
0.010042922
0.010036188
0.010031769
0.010029507
0.010028983
0.010030177
0.010032472
0.01003595
0.01004034
0.010045496
0.010051291
0.010057621
0.010064382
0.01007147
0.010078792
0.010086263
0.010093812
0.010101373
0.010108884
0.010116288
0.010123528
0.010130552
0.010137313
0.010143769
0.010149883
0.010155627
0.010160989
0.010165957
0.010170521
0.010174674
0.010178409
0.010181718
0.010184585
0.010187005
0.010188986
0.010190557
0.010191756
0.010192627
0.010193201
0.010193503
0.010193556
0.010193399
0.010193088
0.010192688
0.010192247
0.010191768
0.010191163
0.010190208
0.010188481
0.010185331
0.010179849
0.010170858
0.010157003
0.010137245
0.010112585
0.010089336
0.010072054
0.010060356
0.010058545
0.010070386
0.010082918
0.010086728
0.028259585
0.018922898
0.015738723
0.01316861
0.011872075
0.011293207
0.010844131
0.010627697
0.010448174
0.010341205
0.01025568
0.010194793
0.010147689
0.010112121
0.010084993
0.01006445
0.010049148
0.010038371
0.010030568
0.010026221
0.010023897
0.010024259
0.010025115
0.01002792
0.010031925
0.010036867
0.010042599
0.01004897
0.010055851
0.010063133
0.010070713
0.010078488
0.010086364
0.010094253
0.010102086
0.010109797
0.01011733
0.01012463
0.010131649
0.010138341
0.010144667
0.010150595
0.010156097
0.010161154
0.010165763
0.010169923
0.010173636
0.010176903
0.010179731
0.010182118
0.01018406
0.010185555
0.010186613
0.010187264
0.010187553
0.010187527
0.010187228
0.010186685
0.010185922
0.010184969
0.01018387
0.010182679
0.010181438
0.01018015
0.010178728
0.010176944
0.010174359
0.010170296
0.010163819
0.01015375
0.010138877
0.010118457
0.010093432
0.010073119
0.01005833
0.010048714
0.010047602
0.010059477
0.010076837
0.010077129
0.026502355
0.019100383
0.015256427
0.012842486
0.011660109
0.01115075
0.010740875
0.010549063
0.01038721
0.010291454
0.010215041
0.010160851
0.01011949
0.010088697
0.010065731
0.010048849
0.010036747
0.010028911
0.010023767
0.01002179
0.010021288
0.010023453
0.010026899
0.010031453
0.010037012
0.010043388
0.010050407
0.010057918
0.010065786
0.010073901
0.010082159
0.010090458
0.010098705
0.010106814
0.010114718
0.010122356
0.010129677
0.010136636
0.010143194
0.010149317
0.010154976
0.01016015
0.010164825
0.010168991
0.010172655
0.010175828
0.010178522
0.010180752
0.01018253
0.010183866
0.010184765
0.010185227
0.010185266
0.01018491
0.010184204
0.010183202
0.01018195
0.010180485
0.010178833
0.010177018
0.010175071
0.010173029
0.010170924
0.010168754
0.010166439
0.010163753
0.010160254
0.010155244
0.010147767
0.010136616
0.010120644
0.010099688
0.010075514
0.010057823
0.010045549
0.010037896
0.010037316
0.010048843
0.010068779
0.010067925
0.0248626
0.019268002
0.014595752
0.012543436
0.011466341
0.011020821
0.010647965
0.010478433
0.010333693
0.010248287
0.010180676
0.010133006
0.010097285
0.010071231
0.010052413
0.010039213
0.010030353
0.010025289
0.010023106
0.010021051
0.010025898
0.010029629
0.010034806
0.010041063
0.010048157
0.010055891
0.010064095
0.010072617
0.010081318
0.010090086
0.010098817
0.010107414
0.010115787
0.010123856
0.01013156
0.010138847
0.010145677
0.010152016
0.01015784
0.010163129
0.010167868
0.01017205
0.010175674
0.010178743
0.010181274
0.01018329
0.010184813
0.010185866
0.01018647
0.010186646
0.010186402
0.010185746
0.010184689
0.010183258
0.010181497
0.010179459
0.010177196
0.01017475
0.01017215
0.010169419
0.010166577
0.010163639
0.010160622
0.010157514
0.010154243
0.010150593
0.010146126
0.010140131
0.010131648
0.010119476
0.010102435
0.010080755
0.010058817
0.010043665
0.010033821
0.010027954
0.010027758
0.010038596
0.010058831
0.010059014
0.023358722
0.019403869
0.014065659
0.012269341
0.011291307
0.010902865
0.010565913
0.010416573
0.010287861
0.010212125
0.010153029
0.01011176
0.010081602
0.010060276
0.010045612
0.01003612
0.010030601
0.010027504
0.010029288
0.010032436
0.010036357
0.010042308
0.010049343
0.010057229
0.010065748
0.010074702
0.010083921
0.010093252
0.010102556
0.010111717
0.010120638
0.010129229
0.01013741
0.010145112
0.010152284
0.01015889
0.010164905
0.010170312
0.010175104
0.010179278
0.010182837
0.010185789
0.010188147
0.010189928
0.010191156
0.010191864
0.010192085
0.010191848
0.010191181
0.01019011
0.010188651
0.010186814
0.010184609
0.01018206
0.010179206
0.010176097
0.010172786
0.010169318
0.01016573
0.010162045
0.010158272
0.010154409
0.010150448
0.010146364
0.010142088
0.010137424
0.010131944
0.010124933
0.01011543
0.01010233
0.010084535
0.010062258
0.010043516
0.010030826
0.01002322
0.010018929
0.010019016
0.010028923
0.010048083
0.010050159
0.022019087
0.019526402
0.013606897
0.01202037
0.011135028
0.010797259
0.010494609
0.01036329
0.010250046
0.01018346
0.010132612
0.010097678
0.010073037
0.010056456
0.010045975
0.010040204
0.010038206
0.010039323
0.010042361
0.010047505
0.010054338
0.010062202
0.010070957
0.010080327
0.010090087
0.010100036
0.010110007
0.010119846
0.010129421
0.010138621
0.010147355
0.010155551
0.010163145
0.010170085
0.010176341
0.010181894
0.010186741
0.010190887
0.010194343
0.010197127
0.010199259
0.010200763
0.010201665
0.010201992
0.010201779
0.010201063
0.010199884
0.010198276
0.010196272
0.010193901
0.010191183
0.01018813
0.010184751
0.010181065
0.010177104
0.010172913
0.01016854
0.010164034
0.010159435
0.010154768
0.010150041
0.010145235
0.010140315
0.010135237
0.010129927
0.010124213
0.010117694
0.010109658
0.010099148
0.01008517
0.010067071
0.010045676
0.010029747
0.010019397
0.010013765
0.010010865
0.010011198
0.010019931
0.010037523
0.010040801
0.020807438
0.019607869
0.013182759
0.011796563
0.010997083
0.010704401
0.010434152
0.010319085
0.010220601
0.010162813
0.010120005
0.010091401
0.010072278
0.01006048
0.010054234
0.010052247
0.010053575
0.01005752
0.01006361
0.010071243
0.010080041
0.010089738
0.010100017
0.010110617
0.010121316
0.010131913
0.010142246
0.010152171
0.010161567
0.01017034
0.010178415
0.010185743
0.010192287
0.010198022
0.010202941
0.010207053
0.010210378
0.010212943
0.010214781
0.010215929
0.010216422
0.010216299
0.010215596
0.01021435
0.0102126
0.010210386
0.01020775
0.010204731
0.010201361
0.010197669
0.010193679
0.010189405
0.010184853
0.010180036
0.010174977
0.010169714
0.010164289
0.010158749
0.010153134
0.010147475
0.01014178
0.010136022
0.010130143
0.010124071
0.010117722
0.010110944
0.010103375
0.010094341
0.01008291
0.010068131
0.010049755
0.010030938
0.010017579
0.010009361
0.010005421
0.010003772
0.010004406
0.010011722
0.01002698
0.010030203
0.019717836
0.01961067
0.012799043
0.011595997
0.010876651
0.010623702
0.010384657
0.010284333
0.010199997
0.010150844
0.010115948
0.010093718
0.010080154
0.010073202
0.010071242
0.010073068
0.010077803
0.010084777
0.010093414
0.010103289
0.010114012
0.010125239
0.010136693
0.010148117
0.010159295
0.010170037
0.010180192
0.01018964
0.010198285
0.010206059
0.010212919
0.010218847
0.010223841
0.01022791
0.010231079
0.010233381
0.010234862
0.010235572
0.010235561
0.010234881
0.010233582
0.010231712
0.010229313
0.010226427
0.010223096
0.010219358
0.010215254
0.010210822
0.010206095
0.010201099
0.010195856
0.01019038
0.010184679
0.010178758
0.010172632
0.010166329
0.010159881
0.01015333
0.010146715
0.010140067
0.0101334
0.010126689
0.010119862
0.010112818
0.01010545
0.010097619
0.010089013
0.010079024
0.010066803
0.010051558
0.010033276
0.010017919
0.01000696
0.010000625
0.0099981192
0.0099976145
0.0099986587
0.010004474
0.01001677
0.010020116
0.018735932
0.019367722
0.012452653
0.011417578
0.010773582
0.010555662
0.010346444
0.010259705
0.010188974
0.010148465
0.010121415
0.010105641
0.010097697
0.010095642
0.010097983
0.010103585
0.010111606
0.010121401
0.010132432
0.01014424
0.010156449
0.010168733
0.010180816
0.010192457
0.010203459
0.01021366
0.010222941
0.010231218
0.010238436
0.010244571
0.01024962
0.010253607
0.010256567
0.010258547
0.010259601
0.010259789
0.010259177
0.010257832
0.010255818
0.010253197
0.010250025
0.010246356
0.010242235
0.010237703
0.0102328
0.010227562
0.010222024
0.010216219
0.010210177
0.010203922
0.010197473
0.010190842
0.010184037
0.010177057
0.010169911
0.010162614
0.010155191
0.010147671
0.010140087
0.01013247
0.01012484
0.01011718
0.010109421
0.010101442
0.010093105
0.010084262
0.010074661
0.010063778
0.010050868
0.010035576
0.01001898
0.010006465
0.0099977584
0.009993081
0.0099917905
0.009992317
0.0099938993
0.0099984538
0.01000769
0.010012307
0.017847118
0.018474329
0.012141286
0.011260628
0.010688136
0.010500622
0.010320082
0.010246181
0.010188614
0.010156868
0.010137654
0.010128408
0.010126109
0.01012893
0.01013548
0.010144686
0.010155737
0.010167996
0.010180936
0.010194113
0.010207158
0.01021976
0.010231673
0.010242691
0.010252662
0.010261474
0.010269061
0.010275393
0.010280474
0.010284329
0.010287005
0.010288567
0.010289088
0.010288647
0.010287323
0.010285195
0.010282344
0.010278845
0.010274767
0.010270178
0.010265134
0.010259686
0.01025388
0.010247752
0.010241338
0.010234666
0.010227766
0.010220662
0.01021338
0.010205939
0.010198353
0.010190633
0.010182784
0.010174806
0.010166697
0.010158465
0.010150123
0.01014169
0.010133187
0.01012464
0.010116069
0.010107474
0.010098803
0.010089934
0.010080696
0.010070914
0.010060379
0.010048713
0.010035279
0.010019843
0.010006522
0.0099965006
0.0099898417
0.009986637
0.0099863753
0.0099877849
0.0099899939
0.0099937882
0.010000248
0.010005188
0.017044165
0.01712001
0.011867364
0.011124926
0.010619427
0.010459563
0.010306651
0.010245197
0.010200387
0.01017754
0.010166132
0.010163404
0.010166664
0.010174187
0.010184661
0.010197063
0.0102106
0.010224651
0.010238708
0.010252348
0.010265242
0.010277126
0.010287813
0.010297166
0.010305105
0.010311593
0.010316636
0.010320272
0.010322564
0.010323592
0.010323448
0.010322233
0.010320046
0.01031699
0.010313159
0.010308641
0.010303521
0.010297875
0.010291772
0.010285274
0.010278432
0.010271293
0.010263896
0.010256272
0.010248447
0.010240444
0.010232283
0.010223981
0.010215555
0.01020702
0.010198384
0.010189657
0.010180838
0.010171928
0.010162922
0.010153819
0.010144622
0.01013534
0.010125983
0.010116563
0.010107095
0.010097591
0.010088029
0.01007831
0.010068252
0.010057633
0.010046238
0.010033863
0.010020354
0.010006241
0.0099957121
0.0099879474
0.0099831041
0.0099812101
0.0099818217
0.0099839376
0.0099867572
0.0099903836
0.0099948318
0.0099989459
0.016322941
0.016279151
0.011636555
0.0110109
0.010568373
0.01043389
0.010307668
0.010258452
0.010226003
0.010212133
0.010208417
0.010212045
0.010220565
0.010232338
0.010246111
0.010260907
0.010275959
0.010290684
0.010304629
0.010317441
0.01032887
0.010338747
0.010346981
0.010353536
0.010358429
0.01036171
0.010363462
0.010363789
0.010362808
0.010360644
0.010357418
0.010353253
0.010348265
0.010342561
0.010336239
0.010329387
0.010322084
0.010314399
0.010306392
0.010298116
0.010289614
0.010280923
0.010272073
0.010263088
0.010253984
0.010244776
0.010235476
0.010226094
0.010216637
0.010207112
0.010197525
0.010187879
0.010178174
0.010168407
0.010158572
0.010148663
0.010138677
0.010128613
0.010118472
0.010108252
0.010097956
0.010087593
0.010077165
0.010066621
0.010055809
0.010044478
0.010032368
0.010019356
0.010005802
0.0099948149
0.0099865098
0.0099807215
0.0099774591
0.0099767227
0.0099780947
0.0099807476
0.0099839993
0.0099877561
0.0099914855
0.0099952024
0.015675393
0.015287926
0.01143974
0.010919096
0.010535925
0.01042532
0.0103248
0.01028788
0.010267406
0.010262455
0.01026612
0.010275618
0.010288677
0.010303737
0.010319616
0.010335407
0.01035043
0.010364199
0.010376382
0.010386758
0.01039521
0.010401706
0.010406277
0.010409005
0.010410001
0.010409402
0.010407354
0.010404009
0.01039952
0.010394032
0.010387682
0.010380595
0.010372885
0.010364653
0.010355991
0.010346973
0.010337667
0.010328128
0.010318404
0.010308535
0.010298553
0.010288484
0.010278348
0.010268157
0.010257923
0.010247651
0.010237345
0.010227007
0.010216636
0.010206233
0.010195798
0.010185329
0.010174824
0.010164278
0.010153684
0.010143034
0.010132321
0.010121539
0.010110683
0.010099742
0.010088704
0.010077563
0.010066319
0.010054965
0.010043419
0.010031473
0.010018858
0.010005651
0.0099938444
0.0099851763
0.0099788623
0.0099747498
0.0099728417
0.00997311
0.0099751503
0.0099782347
0.0099817744
0.0099856187
0.0099892303
0.0099940683
0.015096077
0.014625327
0.011279543
0.010850288
0.010523119
0.010436099
0.010360283
0.010335879
0.010326859
0.01033037
0.010340572
0.010354771
0.010370879
0.010387458
0.010403469
0.010418176
0.010431076
0.01044187
0.010450417
0.010456683
0.010460717
0.010462635
0.010462591
0.010460765
0.010457349
0.010452531
0.010446496
0.010439417
0.010431455
0.010422754
0.010413444
0.010403637
0.010393434
0.010382918
0.010372163
0.010361228
0.010350163
0.010339007
0.010327793
0.010316546
0.010305287
0.01029403
0.010282784
0.010271555
0.010260344
0.010249151
0.010237972
0.010226802
0.010215635
0.010204465
0.010193284
0.010182088
0.010170871
0.010159625
0.010148343
0.010137016
0.010125635
0.010114192
0.01010268
0.010091088
0.010079397
0.010067579
0.010055611
0.010043484
0.010031189
0.010018661
0.010005821
0.0099931576
0.0099840037
0.0099772505
0.0099726383
0.0099699556
0.009969198
0.0099703136
0.0099729183
0.0099763829
0.0099802676
0.0099845005
0.0099884538
0.0099941966
0.014579507
0.01388243
0.011152623
0.010807156
0.0105317
0.01046962
0.010417211
0.010405193
0.010406463
0.010417015
0.010431841
0.01044846
0.010465063
0.010480471
0.01049393
0.01050499
0.01051343
0.010519203
0.010522398
0.010523171
0.010521731
0.010518311
0.010513153
0.010506496
0.010498566
0.01048957
0.010479693
0.010469101
0.010457939
0.010446331
0.010434385
0.010422191
0.010409822
0.010397342
0.010384802
0.010372241
0.010359692
0.010347177
0.010334714
0.010322315
0.010309987
0.010297734
0.010285556
0.010273451
0.010261414
0.010249437
0.010237512
0.010225629
0.010213776
0.010201942
0.010190115
0.010178285
0.010166442
0.010154576
0.010142678
0.010130738
0.010118747
0.010106696
0.010094577
0.010082383
0.010070102
0.010057703
0.010045133
0.010032341
0.010019321
0.010006168
0.0099932869
0.0099832282
0.0099759172
0.0099708699
0.0099677018
0.0099662378
0.0099664494
0.0099682567
0.009971313
0.0099751188
0.0099793919
0.0099840856
0.0099883519
0.0099945309
0.014125637
0.013313541
0.011063798
0.010794535
0.01056541
0.010529977
0.0104987
0.01049764
0.010506614
0.010521211
0.010537291
0.010552802
0.010566407
0.010577367
0.010585338
0.010590242
0.010592175
0.010591347
0.010588038
0.010582553
0.010575198
0.010566265
0.010556026
0.010544725
0.010532577
0.010519771
0.010506465
0.010492794
0.010478872
0.010464789
0.010450625
0.010436439
0.01042228
0.010408187
0.010394188
0.010380303
0.010366548
0.010352931
0.010339454
0.010326119
0.010312922
0.010299856
0.010286914
0.010274087
0.010261364
0.010248732
0.010236179
0.010223691
0.010211253
0.01019885
0.010186467
0.010174088
0.010161702
0.010149294
0.010136852
0.010124366
0.010111825
0.01009922
0.01008654
0.01007378
0.010060936
0.010047996
0.01003492
0.010021629
0.010008075
0.0099946035
0.0099832498
0.0099751416
0.0099694849
0.0099658566
0.0099639151
0.0099634793
0.009964494
0.0099668493
0.0099702395
0.0099742823
0.0099788363
0.0099839084
0.0099887753
0.0099954582
0.013740086
0.012860913
0.011015495
0.010817597
0.010652105
0.010620189
0.010605741
0.010611909
0.010624004
0.010637944
0.010650674
0.010660819
0.010667696
0.010671109
0.010671157
0.010668108
0.010662314
0.010654159
0.010644027
0.010632277
0.010619232
0.010605174
0.010590349
0.01057496
0.010559181
0.010543154
0.010526993
0.010510792
0.010494626
0.010478552
0.010462614
0.010446847
0.010431273
0.010415909
0.010400764
0.010385841
0.010371141
0.010356658
0.010342384
0.010328311
0.010314425
0.010300713
0.010287161
0.010273752
0.010260472
0.010247303
0.01023423
0.010221236
0.010208303
0.010195415
0.010182555
0.010169705
0.010156849
0.010143972
0.010131057
0.010118092
0.010105064
0.010091963
0.010078777
0.010065496
0.010052111
0.010038619
0.010025023
0.010011337
0.0099976431
0.0099845257
0.0099753768
0.0099688107
0.0099645232
0.0099620714
0.009961143
0.0099615555
0.0099632177
0.0099659891
0.0099696069
0.0099738086
0.0099785785
0.0099839217
0.0099892593
0.0099962305
0.013432235
0.012498575
0.01101178
0.010875822
0.010756935
0.010739425
0.010734457
0.010741601
0.01075056
0.010758222
0.010762781
0.010763678
0.0107609
0.010754731
0.0107456
0.010733981
0.010720341
0.010705105
0.010688651
0.010671298
0.010653317
0.010634927
0.010616306
0.010597598
0.010578915
0.010560344
0.010541954
0.010523796
0.010505905
0.010488308
0.01047102
0.010454052
0.010437406
0.010421079
0.010405066
0.010389356
0.010373938
0.010358797
0.010343916
0.010329277
0.010314862
0.01030065
0.010286622
0.010272758
0.010259037
0.010245439
0.010231945
0.010218535
0.010205192
0.010191896
0.01017863
0.010165376
0.010152116
0.010138833
0.010125509
0.010112128
0.010098676
0.010085138
0.010071504
0.010057763
0.010043901
0.010029899
0.010015747
0.01000152
0.0099877421
0.0099770396
0.0099693006
0.0099640667
0.0099608758
0.009959363
0.0099592396
0.0099603263
0.0099624982
0.0099655856
0.0099693571
0.0099736518
0.0099785526
0.0099840578
0.0099897017
0.0099966524
0.013219417
0.012237621
0.011055375
0.010976035
0.010892449
0.01087887
0.010874477
0.010875176
0.010874591
0.010871
0.010863786
0.010853103
0.0108394
0.010823219
0.010805096
0.010785521
0.010764912
0.010743618
0.01072192
0.010700043
0.010678162
0.01065641
0.01063489
0.010613677
0.010592824
0.010572371
0.01055234
0.010532747
0.010513597
0.01049489
0.01047662
0.010458778
0.01044135
0.01042432
0.010407672
0.010391385
0.010375439
0.010359811
0.010344479
0.010329419
0.010314607
0.01030002
0.010285633
0.010271423
0.010257365
0.010243436
0.010229614
0.010215878
0.010202206
0.010188579
0.010174977
0.010161382
0.010147777
0.010134144
0.010120465
0.010106723
0.010092901
0.010078983
0.010064952
0.0100508
0.010036519
0.010022118
0.010007651
0.0099933679
0.0099804526
0.0099713441
0.0099648625
0.0099606672
0.0099583385
0.0099575445
0.0099580333
0.0099596336
0.0099621981
0.0099655346
0.0099694285
0.0099737762
0.0099787091
0.009984264
0.0099901161
0.0099969067
0.013097054
0.012076924
0.011155702
0.011106769
0.01104268
0.011024885
0.011011248
0.010998789
0.010983982
0.010966379
0.010946141
0.010923759
0.010899783
0.010874718
0.010848991
0.010822948
0.010796857
0.010770922
0.010745296
0.01072009
0.010695381
0.010671221
0.010647642
0.010624663
0.010602289
0.01058052
0.010559345
0.010538753
0.010518725
0.010499243
0.010480285
0.010461828
0.010443847
0.010426319
0.010409217
0.010392514
0.010376186
0.010360203
0.010344541
0.010329171
0.010314067
0.010299202
0.01028455
0.010270083
0.010255776
0.010241603
0.010227539
0.01021356
0.010199643
0.010185765
0.010171904
0.010158041
0.010144156
0.01013023
0.010116246
0.010102188
0.010088041
0.010073788
0.010059413
0.010044898
0.010030229
0.010015412
0.010000564
0.0099862834
0.0099752118
0.0099671941
0.0099617164
0.0099583248
0.0099566526
0.0099563982
0.0099573408
0.0099593171
0.0099621653
0.0099656873
0.0099696894
0.009974097
0.0099790212
0.0099845044
0.0099903796
0.0099969536
0.013038307
0.012009651
0.011319313
0.011251507
0.011190999
0.011158535
0.011128784
0.011099652
0.011069488
0.01103834
0.011006499
0.010974346
0.010942219
0.010910392
0.010879067
0.010848389
0.010818454
0.010789322
0.010761028
0.010733584
0.01070699
0.010681234
0.010656296
0.010632153
0.010608777
0.010586138
0.010564205
0.010542946
0.01052233
0.010502324
0.010482896
0.010464015
0.01044565
0.010427769
0.010410342
0.01039334
0.010376732
0.010360488
0.01034458
0.010328978
0.010313654
0.01029858
0.010283726
0.010269067
0.010254575
0.010240223
0.010225986
0.010211837
0.010197751
0.010183703
0.010169668
0.010155623
0.010141544
0.010127409
0.010113196
0.010098887
0.010084464
0.010069914
0.010055226
0.010040396
0.010025427
0.01001036
0.0099953811
0.0099813341
0.009971467
0.0099642971
0.0099595473
0.0099567522
0.0099555691
0.0099557146
0.009956995
0.0099592354
0.0099622635
0.0099658907
0.0099699548
0.0099744112
0.009979346
0.0099847759
0.0099906065
0.0099969791
0.013054452
0.011972842
0.011474972
0.011386199
0.01131344
0.01126216
0.011214991
0.011170588
0.011127678
0.011086101
0.011045817
0.011006859
0.01096925
0.010932997
0.010898085
0.010864486
0.010832161
0.010801062
0.010771137
0.010742334
0.010714599
0.010687878
0.010662119
0.010637271
0.010613285
0.010590114
0.010567712
0.010546038
0.01052505
0.010504708
0.010484975
0.010465813
0.010447188
0.010429066
0.010411413
0.010394197
0.010377386
0.010360949
0.010344857
0.010329078
0.010313585
0.010298349
0.01028334
0.010268533
0.0102539
0.010239414
0.01022505
0.010210782
0.010196584
0.010182432
0.010168298
0.010154158
0.010139986
0.010125754
0.010111436
0.010097006
0.010082437
0.010067705
0.010052787
0.010037664
0.010022338
0.010006888
0.0099917177
0.0099785629
0.0099692099
0.0099625411
0.0099582093
0.0099557845
0.0099549303
0.0099553009
0.0099568277
0.0099592352
0.0099623631
0.0099660374
0.0099701267
0.0099746072
0.0099795391
0.0099849182
0.0099907015
0.0099969725
0.013152245
0.012002322
0.01159277
0.011483768
0.011395261
0.011327777
0.011267517
0.011212653
0.011161562
0.011113603
0.011068337
0.011025471
0.01098478
0.010946078
0.010909207
0.010874028
0.010840418
0.010808266
0.010777473
0.010747946
0.010719604
0.010692368
0.01066617
0.010640942
0.010616626
0.010593163
0.010570503
0.010548595
0.010527394
0.010506857
0.010486942
0.010467609
0.010448823
0.010430546
0.010412745
0.010395385
0.010378435
0.010361862
0.010345636
0.010329726
0.010314104
0.01029874
0.010283608
0.010268679
0.010253927
0.010239327
0.010224854
0.010210482
0.010196187
0.010181945
0.010167731
0.010153521
0.010139289
0.010125012
0.010110664
0.010096221
0.01008166
0.010066959
0.010052099
0.010037063
0.010021855
0.010006539
0.009991463
0.0099781503
0.0099687537
0.009962066
0.0099577483
0.0099553593
0.0099545685
0.0099550567
0.0099566729
0.0099591187
0.0099622859
0.0099659767
0.0099700816
0.0099745831
0.0099795205
0.0099848812
0.0099906583
0.0099969284
0.013278861
0.012059076
0.011655236
0.011532847
0.011434091
0.01135813
0.011291701
0.011232278
0.011177816
0.011127334
0.011080158
0.011035832
0.010994008
0.010954417
0.01091684
0.010881091
0.010847016
0.010814477
0.010783357
0.01075355
0.010724962
0.010697508
0.010671111
0.010645702
0.010621216
0.010597593
0.01057478
0.010552724
0.010531379
0.0105107
0.010490644
0.010471173
0.010452248
0.010433834
0.010415894
0.010398395
0.010381305
0.010364592
0.010348225
0.010332173
0.010316408
0.0103009
0.010285622
0.010270546
0.010255646
0.010240896
0.01022627
0.010211743
0.01019729
0.010182887
0.010168507
0.010154125
0.010139714
0.01012525
0.010110704
0.010096053
0.010081271
0.010066338
0.010051234
0.010035952
0.010020504
0.010004993
0.0099899024
0.0099773261
0.0099682491
0.0099617884
0.0099575961
0.0099552713
0.0099544966
0.0099544463
0.009956674
0.0099589721
0.0099621557
0.0099658324
0.0099699321
0.0099744556
0.0099794287
0.0099848272
0.0099906349
0.0099968977
67.705687
366.77908
123.75033
15.029212
0.41576913
0.021339469
0.020032683
0.019754725
0.019478358
0.018415131
0.017082817
0.015904684
0.015010644
0.01444276
0.014039626
0.013657114
0.013284664
0.01295541
0.012679783
0.01244932
0.012253263
0.012084112
0.011936855
0.011807724
0.011693698
0.011592324
0.011501644
0.011420095
0.011346447
0.011279727
0.011219129
0.011163947
0.011113573
0.011067493
0.011025305
0.010986685
0.010951357
0.010919075
0.010889611
0.01086276
0.01083834
0.01081617
0.01079607
0.010777872
0.010761415
0.010746544
0.010733104
0.01072095