/*--------------------------------*- C++ -*----------------------------------*\
  =========                 |
  \\      /  F ield         | OpenFOAM: The Open Source CFD Toolbox
   \\    /   O peration     | Website:  https://openfoam.org
    \\  /    A nd           | Version:  12
     \\/     M anipulation  |
\*---------------------------------------------------------------------------*/
FoamFile
{
    format      ascii;
    class       volScalarField;
    location    "0.067";
    object      omega;
}
// * * * * * * * * * * * * * * * * * * * * * * * * * * * * * * * * * * * * * //

dimensions      [0 0 -1 0 0 0 0];

internalField   nonuniform List<scalar> 
16000
(
1091.5316
2207.6573
1070.8307
644.63702
454.66518
316.21982
239.98925
181.19044
146.00124
118.20712
100.46409
85.996654
75.278723
66.318331
59.00772
52.846484
47.644875
43.207634
39.394274
36.092927
33.219308
30.702525
28.484185
26.51771
24.765552
23.198512
21.792396
20.528519
19.391048
18.365531
17.43888
16.600762
15.842946
15.158467
14.541379
13.986156
13.487601
13.040804
12.641657
12.286705
11.972065
11.69365
11.448489
11.233886
11.04678
10.884043
10.743245
10.622073
10.518308
10.429845
10.354806
10.291548
10.238536
10.194417
10.158028
10.128489
10.105213
10.087995
10.077278
10.073879
10.07565
10.077308
10.078711
10.080196
10.08168
10.083164
10.084573
10.08572
10.08624
10.085562
10.082966
10.077761
10.069595
10.058633
10.045678
10.037331
10.033445
10.04572
10.030905
10.043661
1133.436
2196.5717
1064.4389
644.78533
454.778
319.03067
241.03173
182.95719
146.81683
119.22144
100.99382
86.549118
75.630134
66.623114
59.227151
53.016315
47.768296
43.296678
39.456362
36.133624
33.243416
30.71455
28.487693
26.515564
24.759578
23.190166
21.782436
20.51735
19.379157
18.353655
17.427491
16.589978
15.83274
15.148698
14.531943
13.977014
13.478824
13.032403
12.633457
12.278644
11.964379
11.686354
11.441441
11.227063
11.040341
10.877997
10.73756
10.616738
10.513334
10.425239
10.350542
10.287615
10.23492
10.191106
10.154982
10.125631
10.102431
10.085053
10.073656
10.069004
10.070297
10.071938
10.073258
10.074662
10.076059
10.07743
10.078687
10.079635
10.079905
10.07893
10.076011
10.070506
10.062136
10.051383
10.039806
10.031729
10.029935
10.039459
10.030892
10.04468
1173.7504
2196.7139
1052.6238
641.13938
451.39046
319.2366
239.91948
183.12557
146.36222
119.36717
100.83286
86.552411
75.521183
66.519669
59.091463
52.869554
47.611091
43.134673
39.293484
35.972078
33.085064
30.561355
28.341066
26.376691
24.62886
23.067918
21.668514
20.411338
19.28066
18.26264
17.343863
16.513375
15.762727
15.08475
14.473575
13.923793
13.430452
12.98863
12.59385
12.242748
11.932115
11.657529
11.41568
11.204013
11.019902
10.859968
10.721693
10.602803
10.501141
10.414625
10.341316
10.279618
10.228005
10.185149
10.149855
10.121187
10.098512
10.081475
10.070068
10.064748
10.065431
10.066983
10.068179
10.069461
10.070732
10.071952
10.073013
10.073703
10.073649
10.072291
10.068958
10.063089
10.054491
10.043758
10.033561
10.026536
10.026013
10.034945
10.030727
10.043779
1212.2709
2202.5515
1042.8384
637.66493
447.59151
319.23794
238.51433
183.13492
145.76907
119.41513
100.62249
86.495863
75.372613
66.370468
58.916692
52.685319
47.419545
42.94062
39.100919
35.783065
32.901197
30.384472
28.172407
26.217407
24.479235
22.928203
21.538524
20.290597
19.168625
18.159173
17.248847
16.426404
15.683335
15.012351
14.407634
13.863805
13.376038
12.939515
12.549612
12.202802
11.89632
11.62569
11.387409
11.178845
10.997699
10.840503
10.70468
10.58797
10.48825
10.403489
10.331715
10.271364
10.220925
10.1791
10.144697
10.116761
10.094645
10.077971
10.066644
10.060946
10.060916
10.062315
10.063342
10.064455
10.065554
10.066581
10.067405
10.067797
10.067386
10.065622
10.061862
10.05563
10.046897
10.036289
10.027403
10.021461
10.021614
10.029779
10.030763
10.042973
1248.8169
2219.4448
1034.1901
633.7506
443.00687
318.50704
236.42898
182.66227
144.79868
119.18708
100.22592
86.264385
75.086382
66.090362
58.628043
52.398035
47.135778
42.663257
38.83301
35.525817
32.655282
30.151025
27.952009
26.01074
24.286188
22.748699
21.372124
20.136615
19.02621
18.027912
17.128474
16.316366
15.583049
14.921098
14.324753
13.78865
13.308072
12.878358
12.494817
12.153603
11.852424
11.586829
11.353167
11.148583
10.971173
10.817418
10.684669
10.570683
10.473358
10.390749
10.320843
10.262122
10.213088
10.172483
10.139131
10.112066
10.090626
10.074428
10.063318
10.057432
10.056778
10.057953
10.058769
10.059665
10.060548
10.061341
10.061892
10.061954
10.061155
10.058969
10.054771
10.048141
10.0393
10.02907
10.021361
10.016459
10.017129
10.024993
10.029076
10.039649
1283.24
2244.2786
1028.6149
630.63623
438.80069
317.15172
233.84989
181.7836
143.54697
118.72021
99.68726
85.880036
74.681749
65.696403
58.239854
52.020761
46.771171
42.312706
38.498649
35.208213
32.354328
29.867287
27.685522
25.761671
24.054218
22.533488
21.173014
19.95277
18.856532
17.871728
16.9854
16.185712
15.464134
14.81308
14.226858
13.700111
13.228208
12.806651
12.430825
12.09644
11.801602
11.541983
11.313884
11.114068
10.941062
10.791355
10.662217
10.551422
10.456871
10.376745
10.308984
10.252124
10.204681
10.165443
10.133267
10.107178
10.086502
10.070852
10.060048
10.054105
10.052958
10.05385
10.054412
10.055047
10.055669
10.056188
10.056435
10.056144
10.054941
10.052323
10.047696
10.04065
10.031634
10.022132
10.015516
10.011583
10.012683
10.020673
10.027649
10.035622
1315.4828
2274.7134
1027.7488
627.72663
434.79202
315.16089
231.09616
180.53201
142.07777
118.01586
99.014734
85.341208
74.154648
65.186258
57.748797
51.550434
46.322584
41.885947
38.094701
34.827231
31.995465
29.530553
27.370526
25.467474
23.780792
22.280255
20.939088
19.737172
18.657931
17.689165
16.818358
16.03335
15.325667
14.68753
14.113322
13.597694
13.136076
12.724113
12.357407
12.031326
11.743925
11.491228
11.269662
11.07545
10.907518
10.762458
10.637459
10.530319
10.438905
10.36158
10.296225
10.241441
10.195765
10.158031
10.127142
10.102127
10.082293
10.067256
10.056829
10.050942
10.049424
10.049979
10.05025
10.050581
10.050901
10.05111
10.051025
10.050365
10.048747
10.045686
10.040636
10.033203
10.023892
10.015492
10.009945
10.006946
10.008408
10.016522
10.026101
10.0318
1345.6538
2308.0646
1028.7479
624.54268
430.84787
312.53222
228.44874
179.04079
140.58561
117.10035
98.225128
84.656289
73.506347
64.562072
57.155071
50.986558
45.78894
41.38177
37.619041
34.380632
31.576513
29.138696
27.005247
25.124468
23.462369
21.985695
20.667293
19.487049
18.427937
17.478031
16.625426
15.857604
15.166211
14.543229
13.983125
13.480556
13.03101
12.630225
12.274075
11.958527
11.679715
11.434866
11.220773
11.033119
10.870897
10.731041
10.610683
10.50763
10.419679
10.345436
10.282713
10.230195
10.186435
10.150318
10.120806
10.096943
10.07802
10.063647
10.053645
10.047901
10.046128
10.046303
10.046248
10.046241
10.046219
10.046084
10.045642
10.044601
10.042564
10.039045
10.033553
10.025822
10.016327
10.009187
10.004723
10.002642
10.004405
10.0125
10.024049
10.028144
1373.8592
2341.9904
1027.3075
620.60834
426.12353
309.20854
224.95941
177.17506
138.76904
115.99919
97.31521
83.824946
72.730217
63.819328
56.453727
50.323385
45.164472
40.79496
37.063482
33.86018
31.089567
28.68416
26.583013
24.733316
23.100197
21.651501
20.359613
19.204568
18.168866
17.240706
16.408985
15.660838
14.988093
14.382448
13.838463
13.350803
12.915013
12.526923
12.182468
11.877598
11.608696
11.372706
11.167021
10.987413
10.831532
10.697383
10.582206
10.483639
10.399443
10.32852
10.268619
10.21852
10.176799
10.142386
10.114318
10.091666
10.073708
10.060039
10.050493
10.044949
10.043022
10.042785
10.042376
10.041999
10.041605
10.041093
10.04027
10.038834
10.036377
10.032398
10.026432
10.018456
10.009307
10.003285
9.9999158
9.9987229
10.000731
10.00863
10.021281
10.024619
1400.199
2374.7395
1018.7439
615.58572
419.66878
305.4474
220.62117
174.83417
136.87482
114.7215
96.274378
82.84187
71.81799
62.949767
55.636442
49.547743
44.434976
40.111899
36.426177
33.266557
30.536991
28.170417
26.107153
24.292954
22.693498
21.27705
20.015599
18.889459
17.880652
16.977302
16.169228
15.443362
14.791743
14.205715
13.679945
13.209098
12.788774
12.414896
12.08356
11.790776
11.532847
11.306573
11.109875
10.938223
10.789401
10.661431
10.552309
10.458593
10.378467
10.311053
10.254129
10.206563
10.166971
10.134323
10.107737
10.086335
10.06938
10.056445
10.047371
10.042057
10.040053
10.039383
10.0386
10.037829
10.037034
10.036119
10.034891
10.033042
10.030163
10.025752
10.019325
10.011025
10.002825
9.9978808
9.9955675
9.9951981
9.9974025
10.004848
10.017443
10.02117
1424.7799
2405.4775
1009.8769
609.49328
411.57263
301.27236
216.01516
172.30587
134.89006
113.26328
95.089053
81.699242
70.757455
61.93235
54.680231
48.654419
43.601509
39.336407
35.704945
32.597707
29.916737
27.595599
25.576334
23.803357
22.242512
20.862752
19.635884
18.542554
17.564332
16.68907
15.907191
15.206275
14.578331
14.014254
13.50882
13.056692
12.653531
12.295328
11.978352
11.698708
11.452785
11.237176
11.050179
10.887229
10.745951
10.624335
10.520938
10.432441
10.356979
10.293215
10.239431
10.19448
10.157075
10.126222
10.101129
10.080988
10.065058
10.052879
10.044281
10.039198
10.037166
10.036054
10.034882
10.033701
10.032484
10.031143
10.02949
10.027214
10.023906
10.019102
10.012353
10.003786
9.9969602
9.9930569
9.9917036
9.9920586
9.9944254
10.001341
10.01322
10.017716
1447.7178
2435.2208
996.48016
601.90117
402.06536
296.70052
211.24168
169.52413
132.87769
111.63026
93.731834
80.366336
69.510516
60.760343
53.588414
47.63985
42.660039
38.464838
34.89807
31.852221
29.228292
26.959638
24.990645
23.264767
21.747907
20.409107
19.221192
18.164792
17.221038
16.377497
15.623079
14.949824
14.348173
13.808451
13.325526
12.894049
12.50976
12.168692
11.867328
11.601884
11.368876
11.165476
10.988688
10.834863
10.701584
10.58671
10.489275
10.406036
10.334921
10.274945
10.224654
10.182412
10.14723
10.118179
10.09456
10.075663
10.060759
10.049352
10.041232
10.036356
10.034307
10.032754
10.031184
10.029586
10.027933
10.026149
10.024057
10.021349
10.017615
10.01244
10.005566
9.9973828
9.9917717
9.9888558
9.9883287
9.989297
9.9918047
9.9981111
10.009052
10.014094
1469.3234
2463.2312
979.15281
593.35881
392.04601
291.7329
206.39768
166.54489
130.81442
109.80026
92.137686
78.826316
68.082057
59.427463
52.354199
46.500006
41.607673
37.495061
34.004109
31.029305
28.471273
26.262811
24.350215
22.6777
21.210813
19.915579
18.771141
17.756005
16.850723
16.043109
15.322028
14.679086
14.106189
13.593059
13.1346
12.725429
12.36142
12.038615
11.753749
11.503245
11.28353
11.091694
10.925632
10.781329
10.656417
10.54902
10.457547
10.379696
10.313166
10.256874
10.209693
10.170441
10.137538
10.110286
10.088097
10.070398
10.0565
10.045867
10.038233
10.033526
10.031421
10.02944
10.027469
10.025453
10.023361
10.021126
10.018589
10.015458
10.011334
10.00582
9.9988348
9.991784
9.9872909
9.9852735
9.985427
9.9868966
9.98954
9.995181
10.004876
10.010012
1489.8325
2485.6525
957.65456
584.27868
381.58409
286.40783
201.57163
163.37701
128.62817
107.67802
90.290547
77.067978
66.458883
57.92508
50.971117
45.22973
40.440779
36.424639
33.021805
30.127791
27.645354
25.505789
23.653482
22.040729
20.630665
19.388589
18.292784
17.323605
16.460999
15.692864
15.007874
14.397821
13.855529
13.370914
12.938603
12.553103
12.210521
11.906865
11.639109
11.404035
11.198158
11.018442
10.863153
10.728447
10.611847
10.511296
10.425807
10.353304
10.291774
10.239292
10.195102
10.158427
10.128035
10.102615
10.081809
10.065234
10.052292
10.042417
10.035289
10.030724
10.028465
10.026074
10.023704
10.021278
10.018754
10.016071
10.013092
10.009555
10.005097
9.9993916
9.9924578
9.9869322
9.9834917
9.9822706
9.9829745
9.9848365
9.9876006
9.9926051
10.000883
10.006389
1509.5025
2497.6705
932.03801
574.55152
370.75077
280.76502
196.83598
159.93999
126.19836
105.27006
88.162583
75.073041
64.628036
56.242647
49.431431
43.823649
39.156202
35.250962
31.95028
29.144358
26.747496
24.686828
22.908914
21.363773
20.017323
18.833973
17.792054
16.872925
16.056903
15.331726
14.685857
14.111009
13.599367
13.144649
12.739763
12.378912
12.05858
11.774717
11.524444
11.305037
11.113134
10.946435
10.801841
10.676639
10.568457
10.474951
10.395241
10.327711
10.270563
10.222293
10.181111
10.146813
10.118554
10.09518
10.075751
10.060213
10.048153
10.038989
10.032384
10.02799
10.025408
10.022627
10.019863
10.017042
10.014106
10.010991
10.007587
10.003669
9.9989216
9.9932073
9.9870231
9.9827563
9.9803095
9.979795
9.980952
9.9831148
9.9859736
9.9904653
9.9975635
10.003311
1528.5531
2488.434
902.69843
564.2301
359.59055
274.80779
192.18344
156.10594
123.44756
102.53092
85.723517
72.818273
62.573009
54.36865
47.727399
42.275918
37.750961
33.967872
30.784925
28.087754
25.790223
23.819484
22.124623
20.655185
19.378831
18.260441
17.277513
16.410376
15.644065
14.964561
14.359965
13.822591
13.344871
12.92059
12.543734
12.207891
11.910036
11.646145
11.413264
11.2094
11.030916
10.875859
10.74186
10.625935
10.526022
10.440088
10.366096
10.30336
10.250203
10.205616
10.167783
10.135787
10.109417
10.087807
10.069938
10.055379
10.044113
10.035579
10.029465
10.025342
10.022245
10.019087
10.015936
10.012738
10.009418
10.005901
10.002098
9.9978473
9.9928823
9.987118
9.9823811
9.9792188
9.977675
9.9777935
9.9793418
9.9817559
9.9847168
9.9888335
9.9948872
10.000645
1547.1491
2437.7111
871.13325
553.34693
348.16001
268.44912
187.30241
151.84566
120.26218
99.412133
82.939023
70.278442
60.277436
52.293079
45.852108
40.576764
36.217366
32.587052
29.542207
26.969209
24.785183
22.91599
21.313496
19.927708
18.725097
17.676517
16.757355
15.948186
15.233745
14.601771
14.039697
13.540377
13.096579
12.702585
12.353411
12.04236
11.766671
11.522609
11.306874
11.118197
10.952919
10.809098
10.685133
10.57802
10.485666
10.406404
10.338537
10.280442
10.23101
10.18975
10.154855
10.125412
10.100763
10.080716
10.064219
10.050761
10.040205
10.032214
10.026464
10.02254
10.018992
10.015458
10.011929
10.008369
10.0047
10.000825
9.9966545
9.9921048
9.9871196
9.9819476
9.9784471
9.9762802
9.9755301
9.9762115
9.978114
9.9807725
9.983879
9.9877783
9.9929369
9.9983377
1565.147
2402.9383
839.30775
541.84329
336.46044
261.14738
182.26531
147.05488
116.52804
95.854977
79.773267
67.428835
57.725452
50.007307
43.792815
38.737875
34.577193
31.124157
28.239013
25.807585
23.75053
21.994162
20.489233
19.194299
18.073749
17.098659
16.245726
15.495952
14.834152
14.249883
13.730473
13.269087
12.858947
12.494428
12.170732
11.883714
11.629365
11.404566
11.206448
11.03228
10.879767
10.746611
10.631985
10.533205
10.447994
10.374807
10.312158
10.258683
10.213145
10.174897
10.142673
10.115476
10.092674
10.073984
10.058745
10.046333
10.036449
10.028954
10.023448
10.019595
10.015659
10.011764
10.007867
10.003957
9.9999662
9.9957887
9.9913145
9.9864968
9.9815047
9.9777164
9.9752006
9.9739
9.973831
9.9750011
9.9772247
9.9801226
9.9834026
9.9871917
9.9916764
9.9968013
1582.0874
2359.9528
806.55616
529.38661
324.38648
252.66793
176.87763
141.6171
112.13555
91.797281
76.191805
64.248005
54.89792
47.496662
41.575204
36.782135
32.854925
29.606158
26.901195
24.627593
22.705668
21.07216
19.675645
18.475683
17.439393
16.539356
15.753227
15.062971
14.453215
13.914073
13.436229
13.011563
12.633923
12.298234
12.000161
11.735767
11.501504
11.294339
11.111702
10.951298
10.811047
10.688896
10.582901
10.491792
10.413222
10.345703
10.287871
10.238531
10.196612
10.161144
10.131344
10.106231
10.085167
10.067663
10.053499
10.041977
10.03283
10.025827
10.020513
10.016511
10.012265
10.008038
10.003795
9.9995397
9.9952372
9.9907998
9.9861143
9.9812229
9.977009
9.9742495
9.9726127
9.9720421
9.9725488
9.9741318
9.9766256
9.97972
9.9831684
9.9869693
9.9910638
9.9960975
1597.3114
2291.8997
772.15268
515.48712
311.16267
242.85915
170.82361
135.39067
106.98259
87.179009
72.168054
60.716354
51.81249
44.809846
39.236458
34.749164
31.089455
28.068777
25.557224
23.454788
21.681888
20.176864
18.891667
17.78833
16.836322
16.010319
15.289087
14.654987
14.096188
13.601775
13.163313
12.773444
12.426375
12.117452
11.842918
11.59947
11.383898
11.193261
11.025154
10.877327
10.747925
10.635332
10.538141
10.453975
10.381459
10.319124
10.265679
10.220005
10.181144
10.148551
10.120893
10.097611
10.07808
10.061826
10.048594
10.037832
10.029299
10.022784
10.017737
10.013324
10.008828
10.004312
9.999763
9.9951785
9.9905577
9.9858747
9.9811013
9.9764582
9.9734187
9.971507
9.970618
9.9706666
9.9716589
9.973583
9.9762865
9.9795142
9.9830919
9.9869954
9.9909673
9.9960248
1609.7102
2222.4056
735.19656
499.55226
297.16187
231.5214
163.63181
128.20619
100.99094
81.969699
67.696195
56.875754
48.532378
42.007177
36.837415
32.692992
29.327938
26.549829
24.248323
22.324235
20.70359
19.32881
18.154828
17.146416
16.275802
15.520377
14.859644
14.280156
13.768888
13.315862
12.91392
12.556273
12.237575
11.95345
11.700451
11.47586
11.277203
11.101509
10.946678
10.810527
10.691193
10.587717
10.497701
10.419867
10.352771
10.295114
10.245669
10.203407
10.167467
10.137109
10.1114
10.089739
10.071582
10.056467
10.044065
10.033952
10.025889
10.019701
10.014836
10.010105
10.00537
10.000609
9.9958065
9.9909403
9.9860107
9.9810633
9.9762808
9.9727897
9.9705666
9.9694068
9.9691485
9.9697214
9.9711207
9.9733207
9.9761819
9.9795002
9.983171
9.9871981
9.9912353
9.9963334
1616.4611
2138.2677
695.4454
479.88658
282.09752
218.33417
154.8266
119.92466
94.160135
76.217772
62.861959
52.836619
45.156516
39.17682
34.453494
30.675915
27.616674
25.09627
23.00799
21.262945
19.792695
18.544776
17.478083
16.560355
15.766178
15.075418
14.471815
13.941736
13.474137
13.058813
12.689876
12.361324
12.068334
11.806868
11.573561
11.36579
11.182176
11.019699
10.87658
10.750975
10.641074
10.545141
10.461744
10.389517
10.327201
10.273659
10.227787
10.188465
10.155218
10.126891
10.102883
10.082624
10.065654
10.051592
10.039931
10.0304
10.022741
10.016739
10.011909
10.006907
10.001939
9.9969492
9.9919343
9.9868586
9.9817037
9.9766246
9.9725197
9.9698919
9.9683993
9.9678622
9.9681366
9.9691489
9.9708821
9.9732967
9.9762688
9.9796431
9.9833726
9.987478
9.9916599
9.9968284
1612.363
2035.0356
652.38442
454.19551
265.78929
202.94188
144.16702
110.57107
86.643234
70.054065
57.854801
48.749427
41.806459
36.415613
32.162954
28.762485
26.009445
23.745297
21.865791
20.293024
18.965556
17.836698
16.869911
16.036419
15.313421
14.682829
14.130212
13.643758
13.213682
12.832061
12.492345
12.189438
11.919071
11.677734
11.462456
11.270684
11.10023
10.949275
10.816077
10.699079
10.596803
10.507731
10.430177
10.362959
10.304849
10.254819
10.212203
10.175637
10.144415
10.117888
10.095402
10.076362
10.060491
10.047198
10.036189
10.02717
10.019919
10.014061
10.009033
10.003818
9.9986186
9.9933962
9.9881611
9.9829195
9.9777106
9.9727931
9.9696622
9.9677162
9.9668269
9.9668041
9.9675165
9.9688895
9.9708892
9.9734613
9.9764988
9.9798961
9.9836587
9.9878029
9.9920889
9.9972504
1591.2716
1903.0886
606.21786
421.80128
248.24483
185.1325
131.87793
100.47546
78.794762
63.809265
52.899252
44.781728
38.60667
33.817302
30.037587
27.008907
24.54975
22.528936
20.845133
19.431547
18.234481
17.213232
16.336025
15.577714
14.918149
14.341127
13.83379
13.386213
12.989711
12.637313
12.322999
12.042268
11.791302
11.566979
11.366673
11.188131
11.029371
10.888608
10.764218
10.654702
10.55875
10.475535
10.403044
10.340206
10.28591
10.239142
10.198991
10.164626
10.135186
10.110112
10.088994
10.071081
10.055985
10.043355
10.032882
10.024329
10.017342
10.011605
10.006322
10.000928
9.9955233
9.9900841
9.9846111
9.9791375
9.9738966
9.9700446
9.9675377
9.9661792
9.9657716
9.9661596
9.9672187
9.9688766
9.9710833
9.9737705
9.976843
9.9802378
9.9840004
9.988141
9.9924675
9.9975082
1544.3226
1742.4785
558.10694
383.49397
230.33634
165.17388
118.65003
90.269514
71.077029
57.810943
48.221403
41.093942
35.673809
31.466227
28.138214
25.461642
23.277278
21.472047
19.963882
18.691401
17.608889
16.681324
15.881456
15.187724
14.582757
14.05224
13.583669
13.169071
12.800729
12.473179
12.180415
11.918496
11.683999
11.474126
11.286509
11.11912
10.97017
10.838048
10.721275
10.618472
10.528346
10.449673
10.381274
10.321861
10.270459
10.226103
10.187978
10.155533
10.12771
10.10397
10.083775
10.066676
10.052253
10.040137
10.030129
10.02184
10.015045
10.009369
10.00388
9.9983206
9.9927372
9.9871281
9.9815206
9.9760261
9.9711673
9.9680201
9.9660704
9.9651687
9.9651294
9.9658411
9.9671616
9.9690346
9.9713981
9.9741724
9.9772687
9.9806475
9.9843738
9.988472
9.9928087
9.9976767
1463.4403
1580.5738
509.05445
343.95544
206.33827
145.84099
105.42895
80.647731
63.949171
52.373282
44.036209
37.840439
33.117804
29.43767
26.512755
24.147575
22.206005
20.591347
19.233717
18.081866
17.096535
16.247841
15.51238
14.871593
14.310529
13.817009
13.381005
12.994212
12.649892
12.342439
12.067204
11.820533
11.599354
11.401132
11.223721
11.065265
10.924118
10.798784
10.687867
10.590057
10.504127
10.428995
10.363951
10.307387
10.258443
10.216205
10.179864
10.148684
10.122002
10.099175
10.079723
10.063218
10.049374
10.037698
10.027938
10.019839
10.013146
10.007477
10.001817
9.9961128
9.9903643
9.9845776
9.9788063
9.9733155
9.9692695
9.9666072
9.9651081
9.9645681
9.9647739
9.9657447
9.9672571
9.9692856
9.9717594
9.9745955
9.9777131
9.9810844
9.9847637
9.9887761
9.9930551
9.9977436
1350.5396
1491.1251
462.91871
296.6191
182.44896
127.68091
93.480523
72.131647
57.783839
47.788158
40.560528
35.171831
31.041846
27.80155
25.207723
23.095582
21.350385
19.890078
18.653776
17.599126
16.692311
15.907569
15.224567
14.627048
14.101831
13.638146
13.227085
12.861316
12.534891
12.243332
11.981711
11.746838
11.535899
11.346587
11.176941
11.025263
10.890046
10.769915
10.663591
10.569857
10.487541
10.415496
10.352599
10.297918
10.250507
10.209522
10.174193
10.143857
10.118048
10.095933
10.077078
10.061043
10.047461
10.036015
10.02642
10.018425
10.011773
10.006072
10.000266
9.9944354
9.9885625
9.9826722
9.9768487
9.9714654
9.9679524
9.9656647
9.964496
9.9641563
9.9646593
9.9657626
9.9674216
9.9695571
9.9720986
9.9749647
9.9780884
9.9814539
9.9851035
9.9890496
9.9932559
9.9977906
1217.2343
1249.7816
422.73247
254.36536
160.23723
112.53812
83.597504
65.256253
52.911274
44.254131
37.947014
33.201702
29.531148
26.625243
24.279114
22.353361
20.750456
19.400496
18.252253
17.267377
16.416723
15.677609
15.032074
14.465617
13.96633
13.524312
13.131519
12.781198
12.467777
12.186655
11.934065
11.706865
11.502472
11.318722
11.153777
11.006044
10.874101
10.756654
10.652493
10.560489
10.479619
10.409154
10.347536
10.29393
10.247418
10.20718
10.172462
10.14258
10.116927
10.094966
10.076216
10.060257
10.046725
10.035303
10.025715
10.017713
10.011039
10.005292
9.9993899
9.9934376
9.9874146
9.981362
9.9754609
9.9704797
9.9672078
9.9651561
9.964174
9.9639094
9.9645982
9.9658124
9.9675673
9.9697699
9.9723473
9.9752229
9.978343
9.9817003
9.9853248
9.9892188
9.9933675
9.9978123
1097.4888
1111.9911
390.03964
223.65773
143.62651
101.40189
76.278995
60.247987
49.427262
41.773591
36.140821
31.862104
28.52166
25.854435
23.684091
21.889842
20.386589
19.112946
18.023671
17.08476
16.270154
15.559501
14.936615
14.388499
13.905006
13.475792
13.093596
12.752036
12.445873
12.170747
11.923067
11.699869
11.498705
11.317527
11.1546
11.00842
10.877644
10.761045
10.65747
10.565822
10.485047
10.414133
10.352116
10.298066
10.251112
10.210442
10.175313
10.145047
10.119034
10.096732
10.07766
10.061398
10.04758
10.035889
10.026048
10.01781
10.010925
10.005029
9.9991922
9.9932756
9.987309
9.9813152
9.9754512
9.9703907
9.9670882
9.9650266
9.9640946
9.963899
9.9645666
9.9658182
9.967604
9.9698279
9.9724154
9.9752935
9.978413
9.9817703
9.9853855
9.9892566
9.9933842
9.9978056
1042.4616
1070.9103
365.7665
206.56199
132.74843
93.843779
70.82539
56.26669
46.458166
39.511011
34.382582
30.46905
27.400525
24.940169
22.930376
21.262801
19.860883
18.669224
17.646906
16.763132
15.994286
15.321916
14.731307
14.210488
13.749548
13.340191
12.975392
12.649236
12.356754
12.0938
11.856936
11.643326
11.450621
11.276869
11.120422
10.979859
10.853921
10.741463
10.641411
10.552745
10.474479
10.405663
10.345382
10.292763
10.246982
10.207268
10.17291
10.143261
10.117737
10.095814
10.077029
10.060977
10.047303
10.0357
10.0259
10.017663
10.010744
10.004782
9.9988348
9.9928161
9.9867469
9.9806675
9.9747945
9.970053
9.9668837
9.9649057
9.9639768
9.9637395
9.9645548
9.9657738
9.9675634
9.9697819
9.9723607
9.9752343
9.9783494
9.9817155
9.9853455
9.9892328
9.9933736
9.997792
31707.845
79391.331
37239.795
10826.418
1430.3836
610.98677
433.68391
350.23607
290.14001
235.97111
192.28553
159.1414
134.63513
116.4174
102.3783
90.895803
81.180042
72.894926
65.802535
59.685355
54.364588
49.705058
45.602379
41.971377
38.746803
35.864293
33.278601
30.949836
28.846215
26.942646
25.21769
23.652217
22.229536
20.93497
19.75701
18.685963
17.713084
16.830615
16.031477
15.309232
14.658277
14.07303
13.54842
13.079888
12.662945
12.29335
11.967273
11.680688
11.429922
11.211629
11.022542
10.859546
10.719663
10.600366
10.499138
10.413729
10.343352
10.287797
10.24674
10.223845
10.216328
10.214582
10.212934
10.21053
10.207931
10.205446
10.203071
10.199531
10.194585
10.190702
10.183473
10.182444
10.173956
10.175581
10.152777
10.15497
10.07797
10.082896
10.005077
10.023534
19946.232
59847.624
24809.488
5144.1071
976.67732
528.57854
397.49658
321.25767
263.84929
212.53959
174.35631
145.63212
124.63104
108.84964
96.382169
85.920238
77.004553
69.392905
62.8537
57.184151
52.229493
47.874186
44.026418
40.610247
37.56384
34.834239
32.380132
30.164186
28.158346
26.340032
24.689446
23.188853
21.822879
20.578017
19.443968
18.411755
17.473211
16.621127
15.848862
15.150397
14.520489
13.953791
13.445542
12.991423
12.587121
12.228595
11.912189
11.633984
11.390479
11.178458
10.994754
10.836356
10.700388
10.584429
10.486043
10.403002
10.334105
10.279806
10.239915
10.218313
10.211449
10.20988
10.208245
10.205924
10.203474
10.201168
10.199164
10.196405
10.192191
10.188771
10.182194
10.181354
10.172951
10.174541
10.15076
10.152741
10.074163
10.080321
10.005497
10.023788
28180.242
35687.653
13619.712
2575.5754
840.28487
498.61377
387.53004
306.06451
250.48383
201.03961
166.65404
139.59006
120.0984
105.19938
93.308701
83.252861
74.711887
67.421839
61.146927
55.697006
50.928894
46.733911
43.024327
39.72745
36.782536
34.142448
31.767142
29.620211
27.675646
25.911781
24.309506
22.851768
21.523882
20.312925
19.209293
18.204313
17.290142
16.459885
15.707139
15.026131
14.411835
13.859024
13.363147
12.920028
12.525455
12.175523
11.866693
11.595103
11.357383
11.150399
10.971054
10.816413
10.683688
10.570549
10.47448
10.393414
10.325839
10.272507
10.233515
10.212916
10.206536
10.205123
10.203531
10.201316
10.199026
10.196905
10.195108
10.19313
10.189665
10.186698
10.180762
10.180015
10.171772
10.173305
10.148612
10.150402
10.070428
10.077869
10.006016
10.024134
35759.867
24040.894
8391.7566
1559.8258
756.90049
475.36756
375.2408
290.2055
239.2975
190.4351
159.68171
133.72382
115.79342
101.68855
90.371632
80.716403
72.538946
65.549203
59.521842
54.278723
49.686077
45.641523
42.061459
38.876477
36.029118
33.471637
31.170225
29.088577
27.202267
25.49032
23.934297
22.517764
21.226656
20.048589
18.974611
17.996277
17.106057
16.297338
15.563924
14.900275
14.301556
13.762644
13.279194
12.847152
12.462404
12.121176
11.820032
11.55517
11.323346
11.121506
10.946619
10.795829
10.666504
10.556167
10.462494
10.383467
10.317414
10.265073
10.227018
10.207454
10.201566
10.200319
10.198782
10.196688
10.194567
10.192633
10.191025
10.189627
10.186934
10.18442
10.179189
10.178423
10.170407
10.171846
10.146312
10.147899
10.066757
10.075466
10.006593
10.024524
40301.216
20470.709
5911.1302
1236.9624
722.17502
457.98646
365.77376
277.81095
231.15888
182.35211
154.74651
129.16811
112.54699
98.904205
88.013192
78.653287
70.759358
63.999436
58.163759
53.082635
48.629021
44.70485
41.229365
38.135539
35.367868
32.881204
30.639747
28.613107
26.776345
25.108888
23.592804
22.212119
20.953255
19.804241
18.75666
17.802186
16.933558
16.144376
15.428606
14.780892
14.196551
13.670534
13.19868
12.777021
12.401522
12.068529
11.774686
11.516237
11.29006
11.093164
10.922582
10.775537
10.649479
10.541885
10.450553
10.373522
10.309098
10.257695
10.220552
10.20188
10.196555
10.195475
10.194007
10.19205
10.190104
10.188359
10.186937
10.185914
10.184008
10.181955
10.177443
10.176646
10.168886
10.170195
10.143857
10.145247
10.063164
10.073104
10.007215
10.024957
43098.741
19101.687
4552.2361
1164.843
701.5713
439.68776
358.39583
268.04252
224.97793
175.895
150.8752
125.31548
109.8662
96.506713
85.982376
76.863749
69.208109
62.638373
56.963717
52.0198
47.68475
43.86378
40.478407
37.463528
34.765371
32.340131
30.152039
28.174039
26.381233
24.753506
23.273281
21.924955
20.695358
19.572858
18.54951
17.617032
16.768418
15.997436
15.298178
14.665453
14.094698
13.580916
13.120116
12.708393
12.341781
12.01673
11.729954
11.477734
11.257062
11.065005
10.898662
10.755367
10.63244
10.527552
10.438541
10.363495
10.300801
10.250328
10.214088
10.196229
10.191521
10.190597
10.189213
10.187404
10.185638
10.184083
10.182845
10.182018
10.18087
10.179294
10.175533
10.174662
10.167243
10.168407
10.141245
10.142448
10.059662
10.070763
10.007882
10.025434
45322.514
17180.069
3664.0083
1114.0156
686.16509
427.18061
352.52364
260.22531
220.21171
170.76502
147.79507
122.07334
107.64341
94.440432
84.231519
75.308578
67.852368
61.440349
55.901052
51.073317
46.839382
43.106944
39.799315
36.852932
34.215387
31.84412
29.704664
27.768491
26.014562
24.422324
22.974319
21.655222
20.452197
19.353897
18.352789
17.440577
16.610503
15.856456
15.172636
14.553991
13.996054
13.493863
13.043585
12.641354
12.283265
11.965862
11.685912
11.43973
11.224423
11.037108
10.874996
10.735247
10.615417
10.513202
10.426487
10.35341
10.292409
10.242984
10.207638
10.19065
10.186474
10.185691
10.184406
10.182754
10.181172
10.179805
10.178747
10.178078
10.17752
10.176443
10.173459
10.172712
10.165414
10.166453
10.138468
10.139503
10.056266
10.068422
10.008588
10.025952
46966.061
14527.976
3102.4551