/*--------------------------------*- C++ -*----------------------------------*\
  =========                 |
  \\      /  F ield         | OpenFOAM: The Open Source CFD Toolbox
   \\    /   O peration     | Website:  https://openfoam.org
    \\  /    A nd           | Version:  12
     \\/     M anipulation  |
\*---------------------------------------------------------------------------*/
FoamFile
{
    format      ascii;
    class       volScalarField;
    location    "0.067";
    object      p;
}
// * * * * * * * * * * * * * * * * * * * * * * * * * * * * * * * * * * * * * //

dimensions      [1 -1 -2 0 0 0 0];

internalField   nonuniform List<scalar> 
16000
(
89405.025
89532.389
89544.079
89680.204
89706.592
89835.478
89886.379
90004.433
90078.956
90191.207
90284.199
90396.304
90503.507
90619.944
90738.286
90862.125
90990.067
91122.718
91259.957
91401.873
91548.475
91699.77
91855.739
92016.344
92181.516
92351.16
92525.153
92703.336
92885.52
93071.48
93260.957
93453.656
93649.249
93847.373
94047.633
94249.605
94452.837
94656.853
94861.159
95065.244
95268.591
95470.678
95670.986
95869.005
96064.24
96256.218
96444.489
96628.634
96808.264
96983.03
97152.618
97316.759
97475.223
97627.822
97774.408
97914.874
98049.152
98177.212
98299.063
98414.753
98524.362
98628.003
98725.82
98817.988
98904.703
98986.189
99062.689
99134.466
99201.796
99264.951
99324.178
99379.724
99431.869
99480.849
99526.486
99569.563
99627.995
99602.254
99808.98
99557.443
89017.455
89161.819
89171.212
89319.313
89347.089
89487
89540.149
89669.561
89747.849
89870.265
89969.644
90090.721
90206.265
90331.597
90459.237
90592.602
90730.485
90873.376
91021.196
91174.001
91331.788
91494.539
91662.206
91834.715
92011.961
92193.805
92380.073
92570.559
92765.017
92963.164
93164.68
93369.206
93576.35
93785.683
93996.744
94209.044
94422.07
94635.29
94848.155
95060.113
95270.607
95479.089
95685.022
95887.889
96087.196
96282.484
96473.325
96659.331
96840.155
97015.494
97185.092
97348.736
97506.258
97657.533
97802.477
97941.042
98073.221
98199.039
98318.555
98431.861
98539.074
98640.338
98735.821
98825.713
98910.222
98989.573
99064.012
99133.808
99199.256
99260.665
99318.341
99372.598
99423.75
99471.883
99517.348
99564.038
99606.109
99621.875
99770.543
99571.819
88661.606
88821.654
88830.756
88992.421
89020.179
89173.973
89228.778
89370.608
89453.777
89586.778
89693.981
89824.705
89949.888
90085.153
90223.313
90367.427
90516.503
90670.903
90830.567
90995.509
91165.698
91341.079
91521.566
91707.04
91897.348
92092.3
92291.669
92495.185
92702.539
92913.38
93127.316
93343.916
93562.711
93783.196
94004.838
94227.077
94449.334
94671.017
94891.528
95110.273
95326.665
95540.138
95750.147
95956.183
96157.77
96354.477
96545.919
96731.756
96911.703
97085.522
97253.027
97414.079
97568.587
97716.5
97857.806
97992.531
98120.733
98242.499
98357.942
98467.2
98570.431
98667.813
98759.536
98845.808
98926.846
99002.88
99074.158
99140.951
99203.56
99262.318
99317.58
99369.714
99419.03
99465.704
99510.805
99556.465
99593.973
99630.139
99742.453
99578.777
88342.038
88513.017
88523.106
88700.324
88727.563
88897.673
88954.692
89110.924
89199.932
89345.07
89461.598
89603.344
89739.816
89886.507
90036.742
90193.123
90354.864
90522.206
90695.089
90873.492
91057.35
91246.57
91441.025
91640.547
91844.93
92053.923
92267.231
92484.513
92705.379
92929.395
93156.084
93384.924
93615.358
93846.796
94078.62
94310.195
94540.873
94770.006
94996.948
95221.073
95441.776
95658.487
95870.673
96077.85
96279.583
96475.493
96665.256
96848.608
97025.342
97195.308
97358.407
97514.59
97663.855
97806.237
97941.808
98070.67
98192.953
98308.809
98418.406
98521.93
98619.581
98711.568
98798.103
98879.409
98955.714
99027.251
99094.269
99157.035
99215.852
99271.059
99323.034
99372.174
99418.813
99463.33
99506.993
99550.215
99586.684
99631.419
99720.817
99580.805
88061.802
88247.884
88254.538
88450.732
88476.933
88665.73
88725.051
88897.632
88993.841
89152.567
89280.256
89434.289
89583.654
89743.106
89906.747
90076.673
90252.311
90433.809
90621.11
90814.158
91012.856
91217.068
91426.611
91641.256
91860.723
92084.68
92312.744
92544.476
92779.386
93016.936
93256.54
93497.574
93739.376
93981.259
94222.517
94462.438
94700.309
94935.431
95167.126
95394.753
95617.709
95835.443
96047.46
96253.33
96452.684
96645.224
96830.716
97008.995
97179.957
97343.555
97499.798
97648.741
97790.478
97925.14
98052.887
98173.902
98288.385
98396.551
98498.622
98594.829
98685.408
98770.593
98850.617
98925.714
98996.116
99062.06
99123.795
99181.586
99235.733
99286.572
99334.481
99379.863
99423.103
99464.761
99506.01
99546.311
99582.142
99630.406
99702.064
99581.001
87825.971
88029.819
88034.44
88251.877
88276.923
88486.499
88548.104
88738.768
88843.461
89016.707
89156.976
89323.952
89487.245
89660.375
89838.432
90023.02
90213.747
90410.682
90613.741
90822.819
91037.758
91258.348
91484.323
91715.36
91951.076
92191.028
92434.712
92681.568
92930.977
93182.274
93434.749
93687.654
93940.216
94191.647
94441.154
94687.953
94931.281
95170.407
95404.645
95633.363
95855.994
96072.039
96281.076
96482.762
96676.829
96863.092
97041.437
97211.822
97374.268
97528.852
97675.701
97814.984
97946.902
98071.683
98189.573
98300.833
98405.731
98504.538
98597.525
98684.957
98767.101
98844.209
98916.525
98984.289
99047.734
99107.097
99162.622
99214.575
99263.252
99308.981
99352.124
99393.078
99432.279
99470.399
99508.402
99545.342
99580.121
99629.695
99686.109
99580.345
87636.18
87861.151
87862.915
88105.268
88129.226
88363.177
88428.064
88638.464
88751.766
88938.914
89092.672
89273.162
89451.671
89639.939
89834.055
90035.121
90242.831
90457.15
90677.927
90904.97
91138.025
91376.775
91620.838
91869.763
92123.03
92380.055
92640.183
92902.703
93166.847
93431.801
93696.713
93960.709
94222.901
94482.405
94738.355
94989.916
95236.3
95476.778
95710.691
95937.459
96156.592
96367.687
96570.437
96764.626
96950.13
97126.906
97294.991
97454.488
97605.563
97748.43
97883.344
98010.589
98130.472
98243.316
98349.448
98449.198
98542.891
98630.846
98713.368
98790.752
98863.278
98931.211
98994.796
99054.271
99109.863
99161.802
99210.327
99255.702
99298.217
99338.192
99375.969
99411.939
99446.574
99480.57
99514.644
99547.788
99580.951
99630.144
99672.826
99580.78
87486.635
87736.43
87733.802
88006.195
88026.981
88288.084
88356.267
88586.053
88711.022
88914.255
89085.023
89281.746
89478.427
89684.72
89897.685
90117.994
90345.376
90579.689
90820.691
91068.076
91321.467
91580.407
91844.362
92112.721
92384.794
92659.818
92936.962
93215.335
93493.999
93771.977
94048.272
94321.885
94591.826
94857.136
95116.905
95370.285
95616.506
95854.89
96084.858
96305.938
96517.768
96720.095
96912.778
97095.772
97269.132
97432.993
97587.562
97733.112
97869.959
97998.459
98118.994
98231.961
98337.766
98436.811
98529.495
98616.201
98697.299
98773.138
98844.047
98910.333
98972.281
99030.155
99084.193
99134.62
99181.65
99225.502
99266.404
99304.613
99340.412
99374.109
99406.033
99436.578
99466.231
99495.625
99525.238
99554.276
99585.313
99632.26
99662.73
99584.139
87374.436
87652.926
87645.851
87955.715
87970.682
88260.97
88334.193
88585.957
88727.762
88949.661
89141.197
89357.183
89575.214
89802.753
90037.686
90280.333
90530.39
90787.584
91051.543
91321.81
91597.841
91878.998
92164.554
92453.692
92745.512
93039.038
93333.23
93626.997
93919.214
94208.743
94494.45
94775.23
95050.024
95317.84
95577.774
95829.026
96070.907
96302.86
96524.453
96735.389
96935.502
97124.747
97303.196
97471.021
97628.485
97775.924
97913.733
98042.353
98162.255
98273.929
98377.873
98474.581
98564.538
98648.213
98726.051
98798.475
98865.878
98928.623
98987.047
99041.454
99092.122
99139.3
99183.209
99224.053
99262.03
99297.336
99330.186
99360.822
99389.517
99416.561
99442.279
99467.082
99491.445
99515.874
99540.673
99565.498
99593.932
99636.591
99656.542
99592.182
87301.608
87613.612
87603.44
87950.696
87964.714
88287.399
88372.244
88649.498
88811.653
89054.436
89270.584
89509.21
89752.015
90004.339
90264.669
90533.015
90808.968
91092.087
91381.818
91677.502
91978.373
92283.559
92592.082
92902.869
93214.764
93526.543
93836.932
94144.627
94448.325
94746.741
95038.637
95322.848
95598.305
95864.056
96119.281
96363.313
96595.638
96815.902
97023.909
97219.614
97403.111
97574.62
97734.466
97883.07
98020.918
98148.555
98266.561
98375.536
98476.088
98568.821
98654.326
98733.169
98805.891
98872.998
98934.964
98992.223
99045.174
99094.178
99139.557
99181.602
99220.569
99256.681
99290.134
99321.106
99349.768
99376.292
99400.872
99423.731
99445.119
99465.307
99484.627
99503.508
99522.38
99541.596
99561.427
99582.122
99607.476
99644.009
99655.338
99606.355
87275.291
87627.16
87612.962
88001.075
88018.953
88378.386
88478.791
88783.726
88971.99
89238.617
89483.699
89748.994
90020.397
90301.407
90590.873
90888.523
91193.77
91505.946
91824.245
92147.732
92475.345
92805.9
93138.105
93470.579
93801.867
94130.475
94454.888
94773.606
95085.174
95388.212
95681.448
95963.743
96234.117
96491.765
96736.074
96966.62
97183.175
97385.694
97574.304
97749.281
97911.037
98060.09
98197.048
98322.577
98437.389
98542.219
98637.806
98724.885
98804.168
98876.34
98942.048
99001.903
99056.466
99106.257
99151.746
99193.361
99231.484
99266.451
99298.561
99328.073
99355.212
99380.167
99403.101
99424.16
99443.484
99461.218
99477.53
99492.615
99506.694
99520.015
99532.921
99545.85
99559.147
99573.037
99587.946
99604.708
99626.476
99655.67
99660.581
99627.728
87304.831
87704.145
87685.962
88122.663
88145.797
88545.492
88665.624
89000.003
89220.14
89513.935
89792.365
90088.885
90393.171
90707.208
91029.962
91360.839
91698.974
92043.371
92392.867
92746.148
93101.764
93458.143
93813.619
94166.459
94514.896
94857.166
95191.544
95516.386
95830.167
96131.517
96419.255
96692.41
96950.243
97192.254
97418.176
97627.971
97821.811
98000.055
98163.219
98311.955
98447.011
98569.214
98679.434
98778.569
98867.516
98947.161
99018.364
99081.943
99138.672
99189.276
99234.42
99274.717
99310.721
99342.933
99371.797
99397.709
99421.014
99442.013
99460.963
99478.084
99493.559
99507.538
99520.146
99531.494
99541.69
99550.848
99559.108
99566.63
99573.597
99580.237
99586.904
99594.01
99601.782
99610.401
99620.626
99633.676
99651.291
99672.682
99673.839
99657.262
87391.29
87847.033
87825.498
88317.615
88349.315
88793.043
88940.71
89307.179
89566.443
89892.293
90209.321
90542.638
90884.967
91237.082
91597.818
91966.159
92340.816
92720.325
93103.045
93487.177
93870.796
94251.882
94628.358
94998.131
95359.143
95709.418
96047.115
96370.573
96678.36
96969.301
97242.508
97497.387
97733.637
97951.238
98150.432
98331.685
98495.66
98643.173
98775.161
98892.645
98996.695
99088.404
99168.86
99239.13
99300.243
99353.174
99398.841
99438.097
99471.724
99500.438
99524.883
99545.64
99563.222
99578.084
99590.623
99601.183
99610.06
99617.503
99623.72
99628.883
99633.129
99636.564
99639.276
99641.339
99642.827
99643.827
99644.446
99644.806
99645.049
99645.392
99646.182
99647.761
99650.221
99653.823
99659.78
99669.336
99682.287
99696.032
99696.336
99695.653
87539.725
88062.434
88038.2
88593.217
88639.963
89131.728
89316.36
89718.375
90024.691
90389.069
90750.903
91127.639
91514.081
91909.932
92313.612
92723.511
93137.748
93554.256
93970.795
94384.995
94794.395
95196.494
95588.813
95968.956
96334.679
96683.955
97015.037
97326.496
97617.265
97886.645
98134.307
98360.273
98564.886
98748.767
98912.772
99057.94
99185.446
99296.557
99392.591
99474.88
99544.744
99603.463
99652.262
99692.299
99724.653
99750.32
99770.213
99785.156
99795.895
99803.091
99807.331
99809.129
99808.936
99807.137
99804.064
99799.999
99795.173
99789.779
99783.969
99777.862
99771.549
99765.092
99758.54
99751.934
99745.317
99738.748
99732.299
99726.056
99720.132
99714.732
99710.182
99706.697
99704.253
99703.329
99705.591
99711.851
99719.751
99726.545
99728.876
99743.191
87756.78
88359.57
88334.59
88961.039
89030.199
89574.14
89807.197
90250.1
90612.647
91024.217
91438.508
91866.33
92303.545
92748.793
93199.822
93654.268
94109.51
94562.749
95011.048
95451.394
95880.767
96296.233
96695.03
97074.659
97432.972
97768.226
98079.14
98364.901
98625.169
98860.044
99070.023
99255.945
99418.931
99560.313
99681.577
99784.303
99870.117
99940.647
99997.485
100042.17
100076.15
100100.8
100117.37
100127.02
100130.8
100129.66
100124.44
100115.89
100104.67
100091.35
100076.44
100060.37
100043.49
100026.11
100008.49
99990.832
99973.309
99956.047
99939.142
99922.661
99906.648
99891.124
99876.102
99861.593
99847.612
99834.189
99821.369
99809.203
99797.787
99787.33
99778.102
99770.166
99763.438
99758.724
99757.996
99761.159
99763.868
99764.853
99771.644
99799.683
88048.756
88747.209
88724.432
89432.078
89535.232
90137.382
90433.771
90926.291
91355.776
91825.006
92300.208
92786.807
93280.867
93779.935
94280.879
94780.398
95274.954
95760.875
96234.442
96692.013
97130.144
97545.724
97936.086
98299.097
98633.219
98937.525
99211.693
99455.961
99671.06
99858.141
100018.69
100154.42
100267.23
100359.09
100432.03
100488.02
100528.99
100556.77
100573.09
100579.54
100577.59
100568.57
100553.67
100533.96
100510.4
100483.82
100454.95
100424.43
100392.79
100360.5
100327.95
100295.48
100263.34
100231.77
100200.93
100170.95
100141.94
100113.97
100087.06
100061.25
100036.53
100012.89
99990.302
99968.757
99948.245
99928.771
99910.351
99893.013
99876.855
99862.088
99848.907
99837.225
99827.007
99819.437
99816.503
99816.816
99814.651
99811.501
99824.224
99864.24
88423.395
89236.163
89221.379
90025.577
90179.964
90850.503
91227.533
91780.661
92287.856
92825.29
93369.248
93921.006
94476.114
95030.813
95580.764
96121.438
96648.183
97156.405
97641.747
98100.282
98528.67
98924.282
99285.279
99610.631
99900.092
100154.13
100373.83
100560.78
100716.97
100844.64
100946.2
101024.16
101080.99
101119.13
101140.9
101148.47
101143.88
101128.98
101105.47
101074.85
101038.47
100997.55
100953.12
100906.11
100857.31
100807.4
100756.97
100706.52
100656.45
100607.1
100558.75
100511.63
100465.91
100421.72
100379.16
100338.28
100299.12
100261.7
100225.99
100191.98
100159.63
100128.88
100099.7
100072.04
100045.88
100021.19
99997.976
99976.248
99956.118
99937.792
99921.365
99906.657
99893.814
99884.392
99880.026
99877.819
99871.642
99866.919
99886.582
99935.311
88901.016
89854.815
89859.459
90779.88
91003.26
91752.582
92227.809
92852.93
93447.576
94062.991
94682.295
95303.284
95920.119
96527.225
97118.644
97688.475
98231.112
98741.518
99215.462
99649.691
100042.02
100391.34
100697.59
100961.61
101185.01
101370.02
101519.29
101635.8
101722.62
101782.92
101819.76
101836.11
101834.77
101818.31
101789.11
101749.31
101700.84
101645.42
101584.54
101519.54
101451.55
101381.58
101310.47
101238.95
101167.63
101097.02
101027.55
100959.56
100893.32
100829.05
100766.93
100707.06
100649.54
100594.41
100541.7
100491.4
100443.49
100397.92
100354.65
100313.6
100274.7
100237.89
100203.09
100170.25
100139.32
100110.27
100083.06
100057.72
100034.37
100013.19
99994.164
99977.1
99962.456
99952.074
99946.915
99942.578
99933.437
99929.783
99957.392
100011.34
89514.196
90646.951
90681.223
91736.562
92048.064
92884.429
93476.986
94187.939
94879.8
95581.859
96280.148
96968.877
97639.966
98285.742
98898.832
99472.679
100001.86
100482.32
100911.49
101288.27
101612.93
101886.9
102112.6
102293.15
102432.16
102533.52
102601.24
102639.27
102651.44
102641.34
102612.32
102567.42
102509.41
102440.73
102363.57
102279.83
102191.16
102099.02
102004.62
101909.03
101813.14
101717.7
101623.33
101530.55
101439.78
101351.36
101265.55
101182.55
101102.52
101025.55
100951.71
100881.03
100813.51
100749.12
100687.84
100629.58
100574.29
100521.87
100472.23
100425.28
100380.92
100339.05
100299.59
100262.46
100227.62
100194.99
100164.55
100136.33
100110.47
100087.08
100066.04
100047.26
100031.55
100020.85
100015.2
100009.19
99998.611
99998.14
100033.78
100088.62
90291.714
91639.974
91718.764
92929.811
93363.389
94298.943
95030.73
95844.368
96641.011
97431.918
98202.514
98943.375
99644.44
100297.05
100894.16
101430.69
101903.67
102312.13
102656.95
102940.53
103166.45
103339.12
103463.46
103544.63
103587.78
103597.92
103579.77
103537.7
103475.7
103397.32
103305.74
103203.74
103093.74
102977.85
102857.85
102735.3
102611.47
102487.48
102364.23
102242.48
102122.85
102005.85
101891.86
101781.22
101674.16
101570.85
101471.42
101375.94
101284.44
101196.92
101113.37
101033.73
100957.93
100885.9
100817.52
100752.71
100691.33
100633.27
100578.41
100526.62
100477.79
100431.81
100388.57
100347.99
100310.01
100274.55
100241.58
100211.16
100183.41
100158.37
100135.87
100115.98
100099.87
100089.35
100083.31
100075.76
100065.13
100069.53
100112.92
100165.14
91264.593
92882.124
93042.777
94426.526
95028.713
96079.674
96967.963
97894.815
98790.422
99652.716
100465.53
101217.66
101899.71
102505.32
103031.09
103476.48
103843.42
104135.78
104358.92
104519.08
104623
104677.52
104689.31
104664.67
104609.45
104528.9
104427.73
104310.09
104179.58
104039.3
103891.92
103739.71
103584.58
103428.13
103271.69
103116.38
102963.1
102812.59
102665.43
102522.11
102382.97
102248.3
102118.3
101993.1
101872.78
101757.37
101646.88
101541.27
101440.48
101344.42
101253
101166.1
101083.61
101005.38
100931.28
100861.17
100794.89
100732.29
100673.23
100617.57
100565.18
100515.92
100469.7
100426.42
100385.98
100348.34
100313.45
100281.41
100252.3
100226.08
100202.61
100182.19
100166.24
100156.17
100149.85
100141.28
100131.6
100141.82
100191.7
100238.39
92517.376
94475.056
94763.084
96340.28
97159.102
98334.158
99373.788
100398.15
101355.11
102235.85
103026.37
103718.81
104309.41
104798.51
105189.79
105489.51
105705.6
105847.01
105922.97
105942.59
105914.52
105846.69
105746.26
105619.55
105472.08
105308.57
105133.09
104949.05
104759.31
104566.28
104371.93
104177.89
103985.49
103795.82
103609.74
103427.93
103250.93
103079.15
102912.89
102752.37
102597.73
102449.03
102306.33
102169.59
102038.77
101913.79
101794.54
101680.9
101572.75
101469.92
101372.27
101279.62
101191.82
101108.69
101030.06
100955.75
100885.59
100819.41
100757.06
100698.36
100643.18
100591.39
100542.86
100497.5
100455.21
100415.92
100379.65
100346.45
100316.39
100289.37
100265.34
100244.85
100229.42
100219.88
100213.31
100204.43
100197.01
100212.85
100266.29
100307.39
94183.309
96561.103
97032.365
98801.05
99871.842
101155.87
102293.49
103347.75
104280.41
105085.09
105757.44
106299.57
106718.1
107022.97
107226.13
107340.38
107378.51
107352.7
107274.14
107152.79
106997.41
106815.49
106613.43
106396.56
106169.35
105935.48
105697.95
105459.24
105221.32
104985.79
104753.93
104526.74
104304.99
104089.28
103880.06
103677.65
103482.26
103294.02
103113
102939.2
102772.58
102613.08
102460.57
102314.92
102175.99
102043.6
101917.58
101797.73
101683.86
101575.78
101473.27
101376.16
101284.22
101197.27
101115.11
101037.54
100964.36
100895.4
100830.49
100769.45
100712.14
100658.41
100608.14
100561.21
100517.53
100477.05
100439.78
100405.79
100375.07
100347.53
100323.25
100303
100288.21
100279.06
100272.22
100263.64
100259.2
100279.78
100334.16
100370.07
96454.804
99302.663
100020.06
101930.31
103214.51
104546.29
105663.66
106618.51
107397.57
108006.57
108456.61
108763.6
108945.64
109021.34
109008.56
108923.68
108781.19
108593.6
108371.5
108123.7
107857.45
107578.7
107292.21
107001.83
106710.62
106421.02
106134.92
105853.81
105578.82
105310.82
105050.46
104798.18
104554.31
104319.03
104092.46
103874.61
103665.45
103464.89
103272.83
103089.09
102913.5
102745.87
102585.99
102433.63
102288.57
102150.58
102019.41
101894.83
101776.6
101664.5
101558.29
101457.74
101362.63
101272.75
101187.86
101107.77
101032.28
100961.19
100894.32
100831.49
100772.55
100717.36
100665.76
100617.66
100572.96
100531.61
100493.63
100459.06
100427.86
100399.98
100375.64
100355.75
100341.47
100332.43
100325.34
100317.57
100316.28
100340.02
100392.6
100423.49
99587.381
102815.12
103841.74
105819.65
107144.89
108327.57
109256.57
109956.68
110445.79
110750.77
110899.88
110920.89
110839.19
110676.99
110453.14
110183.22
109879.91
109553.39
109211.72
108861.26
108506.96
108152.67
107801.33
107455.21
107116
106784.96
106463.02
106150.8
105848.76
105557.16
105276.12
105005.7
104745.84
104496.43
104257.32
104028.32
103809.19
103599.71
103399.62
103208.64
103026.49
102852.91
102687.6
102530.29
102380.68
102238.51
102103.49
101975.36
101853.85
101738.71
101629.67
101526.51
101428.98
101336.84
101249.87
101167.85
101090.58
101017.84
100949.47
100885.27
100825.08
100768.75
100716.14
100667.14
100621.65
100579.63
100541.09
100506.04
100474.43
100446.27
100421.91
100402.26
100388.18
100378.92
100371.6
100364.96
100366.45
100391.48
100440.36
100467.3
103837.83
107281.69
108513.07
110224.56
111364.93
112206.65
112748.78
113046.5
113144.91
113087.53
112911.22
112646.55
112318.04
111944.94
111542.19
111121.17
110690.54
110256.81
109824.81
109398.12
108979.38
108570.45
108172.65
107786.9
107413.77
107053.59
106706.52
106372.56
106051.62
105743.53
105448.07
105164.95
104893.89
104634.55
104386.6
104149.7
103923.48
103707.62
103501.74
103305.52
103118.59
102940.63
102771.31
102610.3
102457.28
102311.94
102173.99
102043.13
101919.08
101801.57
101690.32
101585.1
101485.64
101391.71
101303.07
101219.5
101140.78
101066.72
100997.11
100931.78
100870.56
100813.29
100759.83
100710.05
100663.87
100621.25
100582.17
100546.62
100514.56
100486.06
100461.55
100441.87
100427.59
100417.8
100410.26
100404.84
100408.46
100432.96
100476.66
100501.46
109134.76
112540.33
113674.34
114815.73
115436.26
115725.48
115748.61
115579.76
115273.59
114872.95
114409.71
113907.35
113382.92
112848.67
112313.34
111783.1
111262.24
110753.71
110259.47
109780.76
109318.35
108872.58
108443.58
108031.25
107635.37
107255.63
106891.65
106543
106209.24
105889.91
105584.52
105292.61
105013.71
104747.35
104493.09
104250.48
104019.08
103798.48
103588.27
103388.05
103197.43
103016.05
102843.54
102679.56
102523.76
102375.81
102235.41
102102.25
101976.03
101856.47
101743.31
101636.27
101535.11
101439.57
101349.43
101264.44
101184.41
101109.11
101038.36
100971.96
100909.76
100851.57
100797.27
100746.71
100699.82
100656.54
100616.84
100580.69
100548.06
100519.09
100494.22
100474.17
100459.25
100448.61
100440.69
100436.16
100441.17
100464.39
100502.73
100525.99
115428.84
117968.37
118588.34
118874.56
118781.47
118451.24
117964.1
117381.22
116743.61
116079.09
115406.09
114736.78
114079.02
113437.81
112816.22
112215.99
111638.02
111082.58
110549.57
110038.63
109549.24
109080.76
108632.51
108203.76
107793.8
107401.9
107027.35
106669.46
106327.57
106001.03
105689.22
105391.55
105107.46
104836.39
104577.82
104331.26
104096.22
103872.24
103658.88
103455.72
103262.35
103078.38
102903.42
102737.12
102579.13
102429.1
102286.72
102151.68
102023.67
101902.42
101787.64
101679.08
101576.46
101479.56
101388.11
101301.9
101220.71
101144.33
101072.56
101005.21
100942.11
100883.09
100828
100776.71
100729.12
100685.16
100644.81
100608.01
100574.75
100545.21
100519.8
100499.1
100483.28
100471.64
100463.19
100459.13
100464.83
100486.55
100520.35
100542.51
122127.93
122574.71
122356.59
121804.15
121067.54
120237.52
119370.73
118499.23
117641.75
116808.61
116005.31
115234.42
114496.79
113792.23
113119.96
112478.87
111867.68
111285.05
110729.62
110200.06
109695.09
109213.5
108754.14
108315.91
107897.81
107498.86
107118.17
106754.9
106408.26
106077.48
105761.89
105460.8
105173.6
104899.69
104638.52
104389.54
104152.25
103926.17
103710.84
103505.82
103310.69
103125.04
102948.49
102780.67
102621.22
102469.79
102326.08
102189.75
102060.52
101938.08
101822.18
101712.53
101608.88
101510.98
101418.59
101331.48
101249.43
101172.23
101099.67
101031.58
100967.77
100908.06
100852.31
100800.38
100752.14
100707.54
100666.52
100629.03
100595.09
100564.84
100538.7
100517.14
100500.23
100487.43
100478.23
100474.19
100480.06
100500.43
100530.89
100552.4
126040.21
125410.16
124487.76
123427.27
122334.1
121252.68
120205.89
119203.13
118247.91
117340.48
116479.57
115663.12
114888.78
114154.1
113456.68
112794.24
112164.64
111565.88
110996.12
110453.67
109936.98
109444.59
108975.21
108527.6
108100.65
107693.32
107304.64
106933.72
106579.72
106241.88
105919.45
105611.76
105318.16
105038.05
104770.86
104516.05
104273.1
104041.52
103820.86
103610.66
103410.51
103220
103038.73
102866.34
102702.47
102546.78
102398.94
102258.64
102125.57
101999.44
101879.98
101766.92
101660
101558.97
101463.57
101373.59
101288.8
101208.99
101133.95
101063.49
100997.42
100935.58
100877.8
100823.94
100773.88
100727.54
100684.85
100645.79
100610.33
100578.63
100551.11
100528.27
100509.96
100495.92
100485.86
100481.42
100487.07
100506.35
100535.1
100557.11
104118.61
104091.44
104140.3
104189.06
104225.39
104235.66
104218.43
104188.93
104153.28
104108.35
104049.79
103977.97
103896.64
103810.7
103721.04
103627.73
103531.08
103431.57
103329.64
103225.65
103120
103013.01
102905.02
102796.32
102687.18
102577.86
102468.59
102359.6
102251.08
102143.23
102036.22
101930.23
101825.42
101721.95
101619.96
101519.6
101421.02
101324.34
101229.71
101137.26
101047.12
100959.43
100874.31
100791.89
100712.3
100635.67
100562.11
100491.76
100424.72
100361.1
100301.02
100244.56
100191.83
100142.9
100097.84
100056.7
100019.5
99986.263
99956.949
99931.504
99909.826
99891.768
99877.142
99865.705
99857.209
99851.278
99847.83
99845.956
99846.924
99846.829
99854.059
99850.84
99871.862
99850.22
99904.407
99838.939
99946.522
99820.19
99978.11
99798.232
103466.91
103460.75
103475.32
103492.17
103491.05
103483.71
103472.91
103455.41
103426.23
103391.24
103349.2
103301.97
103248.77
103190.77
103127.98
103061.11
102990.36
102916.11
102838.67
102758.33
102675.43
102590.24
102503.05
102414.13
102323.78
102232.23
102139.76
102046.61
101953.03
101859.24
101765.47
101671.95
101578.88
101486.48
101394.94
101304.45
101215.22
101127.42
101041.22
100956.82
100874.37
100794.05
100716.02
100640.44
100567.46
100497.23
100429.9
100365.6
100304.47
100246.62
100192.18
100141.25
100093.92
100050.28
100010.4
99974.313
99942.057
99913.631
99889.008
99868.126
99850.879
99837.12
99826.657
99819.243
99814.624
99812.427
99812.52
99814.078
99818.128
99821.235
99830.738
99830.561
99852.675
99835.019
99888.592
99827.398
99935.229
99809.171
99973.806
99785.367
103045.05
103029.45
103000.71
102970.43
102941.18
102913.92
102881.65
102850.06
102814.79
102779.02
102739.2
102698.03
102653.21
102606.29
102556.25
102503.67
102448.34
102390.42
102329.97
102267.08
102201.87
102134.49
102065.07
101993.77
101920.76
101846.21
101770.32
101693.28
101615.28
101536.53
101457.24
101377.61
101297.87
101218.22
101138.87
101060.04
100981.94
100904.78
100828.76
100754.09
100680.97
100609.58
100540.13
100472.8
100407.77
100345.22
100285.3
100228.18
100174
100122.91
100075.02
100030.47
99989.338
99951.72
99917.684
99887.279
99860.532
99837.443
99817.982
99802.088
99789.655
99780.536
99774.536
99771.413
99770.902
99772.638
99776.451
99781.578
99788.869
99795.221
99807.2
99809.94
99833.539
99819.357
99873.015
99815.407
99923.949
99798.098
99969.072
99772.884
102445.33
102422.39
102393.29
102361.22
102329.45
102301.19
102268.53
102238.82
102204.91
102173.02
102137.57
102102.92
102065.42
102027.59
101987.58
101946.27
101903.14
101858.33
101811.73
101763.32
101713.11
101661.09
101607.31
101551.8
101494.65
101435.93
101375.76
101314.25
101251.55
101187.8
101123.16
101057.82
100991.96
100925.76
100859.43
100793.18
100727.21
100661.74
100596.97
100533.13
100470.44
100409.09
100349.31
100291.3
100235.26
100181.37
100129.83
100080.8
100034.46
99990.952
99950.414
99912.973
99878.734
99847.789
99820.208
99796.045
99775.324
99758.046
99744.18
99733.664
99726.395
99722.225
99720.963
99722.367
99726.17
99732.013
99739.697
99748.509
99759.164
99768.819
99783.412
99789.021
99814.358
99803.299
99857.57
99802.982
99912.68
99786.953
99963.938
99760.559
101709.01
101692.68
101676.79
101657.93
101637.17
101620.75
101598.36
101580.42
101556.98
101536.92
101512.28
101489.55
101463.51
101438.01
101410.34
101381.86
101351.74
101320.3
101287.32
101252.79
101216.69
101178.98
101139.68
101098.79
101056.33
101012.35
100966.91
100920.09
100871.97
100822.67
100772.3
100721
100668.92
100616.23
100563.1
100509.71
100456.27
100402.96
100350.01
100297.63
100246.03
100195.43
100146.06
100098.11
100051.81
100007.35
99964.936
99924.744
99886.954
99851.724
99819.203
99789.517
99762.779
99739.082
99718.499
99701.083
99686.858
99675.822
99667.945
99663.165
99661.379
99662.442
99666.167
99672.313
99680.614
99690.718
99702.405
99715.007
99729.121
99742.149
99759.454
99767.941
99795.152
99787.027
99842.198
99790.291
99901.39
99775.757
99958.431
99748.383
100981.5
100975.05
100970.62
100965.15
100955.61
100951.34
100939.64
100933.93
100921.24
100913.21
100899.41
100888.51
100873.58
100859.85
100843.75
100827.16
100808.93
100789.56
100768.82
100746.73
100723.26
100698.38
100672.08
100644.34
100615.19
100584.62
100552.67
100519.38
100484.81
100449.02
100412.11
100374.18
100335.34
100295.73
100255.5
100214.81
100173.83
100132.74
100091.74
100051.05
100010.85
99971.369
99932.82
99895.413
99859.358
99824.861
99792.12
99761.323
99732.648
99706.259
99682.303
99660.909
99642.19
99626.238
99613.125
99602.899
99595.585
99591.176
99589.641
99590.916
99594.9
99601.449
99610.379
99621.456
99634.414
99648.912
99664.709
99681.185
99698.83
99715.283
99735.407
99746.799
99775.917
99770.649
99826.851
99777.446
99890.071
99764.539
99952.644
99736.348
100321.63
100321.56
100322.49
100325.54
100323.26
100327.73
100323.36
100326.72
100321.64
100322.85
100317.54
100316.61
100310.86
100306.5
100299.49
100292.54
100284.14
100274.93
100264.61
100253.2
100240.66
100226.94
100212.01
100195.85
100178.44
100159.79
100139.9
100118.79
100096.48
100073.04
100048.51
100022.97
99996.518
99969.254
99941.302
99912.797
99883.891
99854.748
99825.542
99796.459
99767.69
99739.434
99711.892
99685.265
99659.755
99635.56
99612.871
99591.872
99572.735
99555.62
99540.666
99528.001
99517.729
99509.938
99504.695
99502.042
99501.997
99504.55
99509.664
99517.272
99527.275
99539.529
99553.854
99570.021
99587.768
99606.767
99626.762
99647.175
99668.396
99688.272
99711.355
99725.716
99756.676
99754.26
99811.538
99764.549
99878.728
99753.339
99946.644
99724.453
99727.554
99732.56
99736.564
99744.703
99746.066