/*--------------------------------*- C++ -*----------------------------------*\
  =========                 |
  \\      /  F ield         | OpenFOAM: The Open Source CFD Toolbox
   \\    /   O peration     | Website:  https://openfoam.org
    \\  /    A nd           | Version:  12
     \\/     M anipulation  |
\*---------------------------------------------------------------------------*/
FoamFile
{
    format      ascii;
    class       surfaceScalarField;
    location    "0.067";
    object      phi;
}
// * * * * * * * * * * * * * * * * * * * * * * * * * * * * * * * * * * * * * //

dimensions      [1 0 -1 0 0 0 0];

internalField   nonuniform List<scalar> 
31760
(
-0.00063826287
-0.051097508
0.051734927
-0.0016077471
-0.064654239
0.065622938
-0.0026086349
-0.063260249
0.064264518
-0.0036341206
-0.068975684
0.070000046
-0.0047140601
-0.07065088
0.071729637
-0.0058231138
-0.074943145
0.076050975
-0.0070022363
-0.077885249
0.07906324
-0.0082207931
-0.081915304
0.083132714
-0.0094998122
-0.08555752
0.08683537
-0.010838052
-0.089698793
0.091035845
-0.012232075
-0.093856224
0.095249033
-0.013693796
-0.098292922
0.099753399
-0.015217764
-0.10289489
0.10441758
-0.016812272
-0.10772472
0.10931792
-0.018476876
-0.11277107
0.11443432
-0.020216327
-0.11805071
0.11978876
-0.022033279
-0.12357173
0.12538724
-0.023930925
-0.12934564
0.13124179
-0.025912493
-0.13538352
0.13736354
-0.027981369
-0.14169671
0.14376397
-0.030140974
-0.14829767
0.1504556
-0.032395052
-0.15519847
0.15745079
-0.034747181
-0.16241276
0.16476306
-0.037201249
-0.16995435
0.17240652
-0.039760205
-0.17783785
0.18039483
-0.042428615
-0.18607747
0.18874383
-0.045210353
-0.19468957
0.19746917
-0.048108826
-0.20369084
0.2065871
-0.05112751
-0.21309832
0.2161147
-0.054270436
-0.2229302
0.22607074
-0.057540894
-0.23320554
0.23647352
-0.060942198
-0.24394427
0.247343
-0.064477141
-0.25516801
0.25870029
-0.068148751
-0.26689802
0.27056688
-0.071958996
-0.27915852
0.28296592
-0.075909515
-0.29197393
0.29592152
-0.080001616
-0.30537011
0.3094592
-0.08423575
-0.31937495
0.32360597
-0.088611712
-0.33401656
0.33838932
-0.093128161
-0.34932659
0.35383973
-0.097783075
-0.36533696
0.36998844
-0.10257301
-0.38208163
0.38686799
-0.10749333
-0.39959683
0.40451342
-0.11253822
-0.41792062
0.42296159
-0.11769992
-0.43709356
0.44225115
-0.12296931
-0.45715749
0.46242252
-0.12833484
-0.47815753
0.48351842
-0.13378364
-0.50014023
0.50558405
-0.13930028
-0.52315587
0.52866712
-0.14486657
-0.54725635
0.55281674
-0.15046161
-0.57249616
0.57808469
-0.15606207
-0.59893331
0.60452653
-0.16164079
-0.62662795
0.63219857
-0.16716705
-0.65564332
0.66116049
-0.17260667
-0.68604531
0.69147469
-0.17792007
-0.71790362
0.72320546
-0.18306358
-0.75129008
0.75642055
-0.18798829
-0.78627977
0.79118976
-0.19263839
-0.82295126
0.82758478
-0.1969524
-0.86138579
0.86568111
-0.20086099
-0.90166745
0.90555498
-0.20428719
-0.94388288
0.94728525
-0.20714458
-0.98812167
0.99095203
-0.20933696
-1.0344755
1.036637
-0.21075698
-1.0830365
1.084421
-0.21128561
-1.1338998
1.1343871
-0.21078878
-1.1871619
1.1866164
-0.20912297
-1.242922
1.2411985
-0.20612216
-1.3012914
1.2982216
-0.20159807
-1.3623894
1.3577828
-0.19534466
-1.4263483
1.4199965
-0.18713684
-1.493313
1.4849888
-0.17671825
-1.5634441
1.5528897
-0.16382177
-1.6369047
1.6238529
-0.14810408
-1.7139027
1.6980147
-0.12953061
-1.7945541
1.7758087
-0.10667741
-1.8788827
1.8558522
-0.081586021
-1.9679547
1.9427839
-0.05004668
-2.0571555
2.0255215
-2.1550491
2.1206939
-0.00063528261
-0.050462835
-0.0015102644
-0.063780002
-0.002407151
-0.062365284
-0.0033729095
-0.068010667
-0.0043495519
-0.069675064
-0.0054041348
-0.073889453
-0.006473889
-0.076816318
-0.0076240514
-0.080766009
-0.0088001953
-0.084382272
-0.01005109
-0.088448828
-0.011345167
-0.092563115
-0.012706986
-0.096932108
-0.014126523
-0.10147639
-0.01561288
-0.10623945
-0.017166244
-0.11121883
-0.018790774
-0.11642735
-0.020488657
-0.12187507
-0.022263667
-0.1275719
-0.024119023
-0.13352949
-0.026058302
-0.1397588
-0.028085161
-0.14627224
-0.030202847
-0.15308227
-0.032415463
-0.16020169
-0.034726692
-0.16764472
-0.037141333
-0.17542487
-0.039662192
-0.18355834
-0.042293967
-0.19205958
-0.045040395
-0.20094626
-0.047905764
-0.21023487
-0.05089365
-0.2199443
-0.054008145
-0.23009309
-0.057252586
-0.24070194
-0.060630289
-0.25179248
-0.064144253
-0.26338629
-0.067796916
-0.27550814
-0.071590619
-0.28818257
-0.075526549
-0.30143658
-0.079606236
-0.31529772
-0.083829044
-0.32979628
-0.088194596
-0.34496364
-0.092701319
-0.36083292
-0.097346139
-0.37743959
-0.10212472
-0.39482113
-0.10703203
-0.41301632
-0.11206102
-0.43206773
-0.11720319
-0.45201866
-0.12244837
-0.47291591
-0.12778401
-0.49480844
-0.13319595
-0.51774815
-0.13866775
-0.54178923
-0.14418018
-0.56698896
-0.14971138
-0.59340801
-0.15523634
-0.62110971
-0.16072699
-0.65016033
-0.16615154
-0.68062955
-0.171474
-0.71259122
-0.1766543
-0.74612129
-0.18164735
-0.78129984
-0.18640239
-0.81821115
-0.19086325
-0.85694188
-0.19496667
-0.89758328
-0.19864217
-0.94022927
-0.20181062
-0.98497818
-0.20438502
-1.0319297
-0.20626719
-1.0811874
-0.20734956
-1.1328561
-0.20750849
-1.1870486
-0.20661058
-1.2438745
-0.204506
-1.3034618
-0.20102515
-1.36595
-0.19598078
-1.431489
-0.18916195
-1.5002472
-0.18033905
-1.5724031
-0.16925459
-1.6481453
-0.15565504
-1.727673
-0.13925336
-1.811133
-0.1194747
-1.8988256
-0.09678006
-1.9907221
-0.069066452
-2.0849409
-2.1858423
-0.00057386451
-0.049889404
-0.0013904014
-0.062963937
-0.0022046584
-0.061552113
-0.0031123453
-0.067103518
-0.0040098056
-0.068778236
-0.0049945844
-0.07290534
-0.0059807585
-0.075830803
-0.007050886
-0.079696577
-0.0081402203
-0.083293668
-0.009302746
-0.087287067
-0.010505226
-0.091361435
-0.011771892
-0.095666276
-0.013093694
-0.10015546
-0.01447893
-0.10485512
-0.015928259
-0.10977045
-0.017445268
-0.11491132
-0.019033296
-0.12028806
-0.020695281
-0.12591098
-0.022435488
-0.13179039
-0.024256728
-0.13793871
-0.026163485
-0.14436668
-0.028159273
-0.15108771
-0.030247967
-0.15811427
-0.032434352
-0.16545966
-0.034721691
-0.1731389
-0.037115202
-0.18116625
-0.039618329
-0.18955791
-0.042236149
-0.19832995
-0.044972217
-0.20750035
-0.047831694
-0.21708641
-0.050817693
-0.22710872
-0.053934554
-0.23758674
-0.057186097
-0.24854264
-0.06057502
-0.25999909
-0.064104936
-0.27197999
-0.067778034
-0.28451125
-0.071596577
-0.29761985
-0.075561108
-0.31133504
-0.079672673
-0.32568659
-0.083930792
-0.34070743
-0.088333712
-0.35643196
-0.092879359
-0.37289594
-0.097564403
-0.39013814
-0.10238344
-0.40819942
-0.10733053
-0.42712285
-0.11239779
-0.44695374
-0.1175761
-0.46774011
-0.12285367
-0.4895336
-0.12821812
-0.51238673
-0.13365396
-0.53635679
-0.13914325
-0.56150355
-0.14466684
-0.5878889
-0.15020169
-0.61558004
-0.15572223
-0.64464584
-0.16119964
-0.67515921
-0.1666014
-0.7071977
-0.17189139
-0.74084088
-0.17702797
-0.77617434
-0.18196631
-0.81328559
-0.18665465
-0.85226822
-0.19103637
-0.89321838
-0.19504735
-0.93623758
-0.19861701
-0.98143071
-0.20166567
-1.0289068
-0.20410479
-1.0787783
-0.20583493
-1.1311613
-0.20674976
-1.1861759
-0.20672485
-1.2439501
-0.20562147
-1.304627
-0.20329089
-1.3683563
-0.19955749
-1.4353151
-0.19423622
-1.5056808
-0.18711269
-1.5796606
-0.17796031
-1.6574521
-0.16653859
-1.7392643
-0.15254812
-1.8252992
-0.13567959
-1.9158459
-0.11577401
-2.0107007
-0.091829625
-2.1089461
-2.212945
-0.00051765172
-0.049372174
-0.0012732987
-0.062208693
-0.0020143314
-0.060811179
-0.0028708037
-0.066247549
-0.0037012508
-0.067948342
-0.0046191698
-0.071987992
-0.0055279425
-0.074922616
-0.0065243414
-0.078700785
-0.0075329249
-0.082285715
-0.0086142075
-0.086206437
-0.0097323426
-0.090243979
-0.01091176
-0.094487563
-0.012144397
-0.098923557
-0.013437546
-0.10356273
-0.014792866
-0.10841591
-0.016214124
-0.11349088
-0.017704618
-0.11879841
-0.019267726
-0.12434874
-0.020906926
-0.13015209
-0.022626573
-0.13621999
-0.024429839
-0.14256437
-0.026321801
-0.14919674
-0.028306371
-0.15613072
-0.030387543
-0.16337954
-0.032570488
-0.17095704
-0.034859163
-0.17887868
-0.037258623
-0.18715959
-0.03977322
-0.19581652
-0.042408427
-0.20486633
-0.045167613
-0.21432843
-0.048055933
-0.22422163
-0.051077773
-0.23456614
-0.054236849
-0.24538481
-0.057537068
-0.25670013
-0.060981868
-0.26853644
-0.06457373
-0.28092065
-0.0683149
-0.29387994
-0.072207325
-0.30744387
-0.076251384
-0.32164379
-0.080447157
-0.33651291
-0.084794082
-0.35208628
-0.089289523
-0.36840174
-0.093930729
-0.38549819
-0.098713396
-0.40341802
-0.10363167
-0.42220588
-0.10867916
-0.44190763
-0.11384627
-0.46257448
-0.11912424
-0.48425727
-0.12450042
-0.5070124
-0.12996138
-0.53089796
-0.13549169
-0.55597575
-0.141073
-0.58231058
-0.14668535
-0.60997128
-0.15230621
-0.6390293
-0.15790885
-0.66956176
-0.16346532
-0.70164745
-0.16894259
-0.735371
-0.17430432
-0.77082133
-0.17950994
-0.8080902
-0.18451372
-0.84727636
-0.18926479
-0.88848119
-0.19370616
-0.93181232
-0.19777468
-0.977381
-0.20139918
-1.0253043
-0.20450057
-1.075703
-0.20699251
-1.1287006
-0.20877127
-1.1844349
-0.20973233
-1.2430351
-0.20974788
-1.304668
-0.20868507
-1.3694892
-0.20638931
-1.4376977
-0.20268234
-1.5094945
-0.19738477
-1.5850866
-0.19028356
-1.6647023
-0.18115903
-1.7485531
-0.16974639
-1.8368797
-0.15578889
-1.9299398
-0.13898737
-2.0275655
-0.11875841
-2.1292222
-2.2361913
-0.00046213953
-0.048910399
-0.0011701716
-0.061501011
-0.001832047
-0.0601498
-0.0026335726
-0.065446442
-0.0033913175
-0.067191041
-0.0042509461
-0.071128819
-0.005091822
-0.074082223
-0.0060226615
-0.077770441
-0.0069589555
-0.081349936
-0.0079668678
-0.085199057
-0.0090102911
-0.089201107
-0.010112365
-0.09338606
-0.011267212
-0.0977693
-0.012481049
-0.1023495
-0.013756273
-0.10714132
-0.015096003
-0.1121518
-0.016504011
-0.11739107
-0.017984085
-0.12286936
-0.019539929
-0.12859695
-0.02117558
-0.13458507
-0.022895765
-0.14084493
-0.024703832
-0.14738944
-0.026605311
-0.15423003
-0.028604799
-0.16138085
-0.030706829
-0.16885582
-0.0329167
-0.17666964
-0.035239647
-0.18483748
-0.037680636
-0.19337637
-0.040244629
-0.20230318
-0.042936871
-0.21163703
-0.045762287
-0.22139705
-0.048725403
-0.23160385
-0.051830638
-0.24228039
-0.055082413
-0.25344915
-0.058483956
-0.26513568
-0.062038425
-0.27736694
-0.065748396
-0.2901707
-0.069615847
-0.30357711
-0.073641604
-0.31761868
-0.077826133
-0.33232898
-0.08216846
-0.34774451
-0.086667491
-0.36390322
-0.091320011
-0.38084614
-0.096122418
-0.39861605
-0.10107034
-0.41725838
-0.10615687
-0.43682152
-0.11137492
-0.4573569
-0.11671545
-0.47891728
-0.12216789
-0.50156063
-0.12772084
-0.52534586
-0.13336
-0.55033771
-0.13907011
-0.57660193
-0.14483338
-0.60420994
-0.1506297
-0.63323547
-0.15643701
-0.66375763
-0.16222984
-0.69585863
-0.16797933
-0.72962648
-0.17365454
-0.76515217
-0.17921935
-0.8025327
-0.18463436
-0.8418701
-0.1898545
-0.88327145
-0.1948301
-0.9268491
-0.19950514
-0.97272073
-0.20381753
-1.0210097
-0.20769764
-1.0718444
-0.21106622
-1.1253583
-0.2138394
-1.1816941
-0.21591238
-1.2410024
-0.21718497
-1.3034458
-0.21752329
-1.369214
-0.21679827
-1.4385019
-0.21485491
-1.5115363
-0.21152479
-1.5885362
-0.20662284
-1.6697434
-0.19994343
-1.7553863
-0.19125343
-1.8457236
-0.18032235
-1.940987
-0.16684234
-2.0410922
-0.15041398
-2.1456761
-2.2553895
-0.00041163227
-0.048499073
-0.0010776514
-0.060835262
-0.0016762179
-0.059551571
-0.0024184925
-0.064704507
-0.0031005938
-0.066509313
-0.0039083597
-0.070321416
-0.0046835118
-0.073307458
-0.0055547394
-0.07689961
-0.0064281358
-0.080476951
-0.0073732165
-0.0842544
-0.0083552864
-0.088219474
-0.009394027
-0.092347769
-0.010485837
-0.096677953
-0.011635406
-0.10120041
-0.012845559
-0.10593165
-0.014120158
-0.1108777
-0.015462697
-0.11604904
-0.016877045
-0.12145553
-0.018367696
-0.12710683
-0.019938631
-0.13301467
-0.021594947
-0.13918917
-0.023341456
-0.14564348
-0.025183305
-0.15238873
-0.027125608
-0.15943911
-0.029173994
-0.16680799
-0.031334297
-0.17450989
-0.033611274
-0.18256105
-0.036011264
-0.19097691
-0.038539602
-0.19977536
-0.041201712
-0.20897542
-0.044003233
-0.218596
-0.046948795
-0.22865874
-0.050043856
-0.23918574
-0.053291773
-0.25020161
-0.056697124
-0.26173066
-0.060263317
-0.27380102
-0.063992628
-0.2864416
-0.067887122
-0.29968276
-0.071948433
-0.31355743
-0.076176714
-0.32810068
-0.080571954
-0.34334916
-0.085132244
-0.35934273
-0.089855958
-0.37612213
-0.094739955
-0.39373168
-0.099779279
-0.41221861
-0.10496897
-0.43163133
-0.11030341
-0.45202192
-0.11577387
-0.47344626
-0.12137259
-0.49596139
-0.12708833
-0.51962969
-0.13291069
-0.54451505
-0.13882589
-0.57068664
-0.14481916
-0.59821686
-0.1508737
-0.62718151
-0.15697048
-0.65766191
-0.16308809
-0.68974265
-0.16920323
-0.72351366
-0.1752883
-0.75907024
-0.18131336
-0.79651172
-0.18724402
-0.83594461
-0.19304285
-0.8774791
-0.19866673
-0.92123329
-0.20406788
-0.96732966
-0.20919233
-1.0158979
-0.21397961
-1.0670732
-0.2183617
-1.1209965
-0.22226234
-1.1778195
-0.22559801
-1.2376999
-0.22826668
-1.3008197
-0.23016677
-1.3673684
-0.2311729
-1.4375652
-0.23115285
-1.5116436
-0.22995796
-1.5898375
-0.2274211
-1.6724047
-0.22335852
-1.759586
-0.21756701
-1.8516476
-0.20982553
-1.9488169
-0.19987534
-2.051066
-0.18738922
-2.1581571
-2.2703223
-0.00036910863
-0.048130223
-0.0010038608
-0.06020072
-0.0015467862
-0.059008913
-0.0022408596
-0.064010694
-0.0028614811
-0.065888983
-0.0036220265
-0.069561158
-0.0043403087
-0.072589475
-0.0051494492
-0.076090776
-0.0059802458
-0.079646475
-0.0068785235
-0.083356449
-0.0078140454
-0.087284288
-0.0088027422
-0.091359414
-0.0098442002
-0.095636844
-0.010942442
-0.10010252
-0.012101499
-0.10477296
-0.013324837
-0.10965472
-0.014617303
-0.11475694
-0.015982981
-0.12009022
-0.017426668
-0.12566351
-0.018953763
-0.13148795
-0.020568874
-0.13757442
-0.022278222
-0.14393449
-0.024087038
-0.15058027
-0.026001038
-0.15752544
-0.028026609
-0.16478274
-0.030169423
-0.17236737
-0.032436419
-0.18029433
-0.034833202
-0.18858038
-0.037365561
-0.19724322
-0.04004017
-0.206301
-0.042862105
-0.21577421
-0.04583703
-0.2256839
-0.048969704
-0.2360531
-0.052265333
-0.24690595
-0.055727056
-0.25826883
-0.059358631
-0.27016925
-0.063163266
-0.28263668
-0.067142726
-0.2957029
-0.071298221
-0.30940143
-0.075630483
-0.32376779
-0.080139549
-0.33883933
-0.084824247
-0.35465714
-0.089683098
-0.37126225
-0.094713023
-0.38870059
-0.099911192
-0.40701914
-0.10527315
-0.42626794
-0.11079354
-0.44649999
-0.11646698
-0.46777119
-0.12228563
-0.49014104
-0.12824222
-0.51367135
-0.13432689
-0.53842864
-0.14052951
-0.56448233
-0.14683863
-0.59190616
-0.15324038
-0.62077835
-0.15971993
-0.65118118
-0.1662598
-0.68320192
-0.17284111
-0.71693187
-0.17944188
-0.75246946
-0.18603731
-0.78991685
-0.1926
-0.82938317
-0.19909803
-0.8709832
-0.20549639
-0.91483818
-0.2117548
-0.961076
-0.21782838
-1.0098311
-0.22366636
-1.0612447
-0.22921069
-1.1154654
-0.23439654
-1.1726517
-0.23915143
-1.2329696
-0.24338964
-1.2966144
-0.24701785
-1.3637838
-0.24993552
-1.4347045
-0.25202307
-1.5096287
-0.25314863
-1.5888012
-0.2531727
-1.6724848
-0.25192733
-1.7609451
-0.24923095
-1.8544468
-0.24489168
-1.9532086
-0.23868815
-2.0572621
-0.23033989
-2.1664565
-2.2807379
-0.00032661572
-0.047803822
-0.00093594224
-0.059591549
-0.0014293499
-0.058515722
-0.0020767262
-0.063363513
-0.0026519077
-0.065314028
-0.0033825378
-0.068830753
-0.0040663202
-0.071905925
-0.0048580477
-0.075299269
-0.0056492821
-0.078855482
-0.0065017003
-0.082504275
-0.0073950439
-0.086391191
-0.008340758
-0.090413948
-0.0093413305
-0.09463652
-0.010400188
-0.099043913
-0.011521768
-0.10365162
-0.01271065
-0.10846608
-0.013970796
-0.11349703
-0.015308196
-0.11875305
-0.016727691
-0.12424424
-0.018234973
-0.12998087
-0.019835901
-0.13597368
-0.021536502
-0.14223407
-0.023343117
-0.14877381
-0.025263028
-0.15560566
-0.027301743
-0.16274413
-0.029466804
-0.17020238
-0.031764406
-0.17799676
-0.034201444
-0.18614333
-0.036784497
-0.1946601
-0.0395197
-0.20356567
-0.042412861
-0.21288086
-0.045469804
-0.2226267
-0.048695739
-0.23282682
-0.052094798
-0.24350645
-0.055671306
-0.25469178
-0.05942885
-0.26641105
-0.06336969
-0.27869506
-0.06749617
-0.2915755
-0.071809712
-0.30508682
-0.076310972
-0.3192653
-0.080999878
-0.33414902
-0.08587652
-0.34977892
-0.090938902
-0.3661981
-0.096185561
-0.38345197
-0.10161411
-0.40158844
-0.10722133
-0.42065838
-0.11300375
-0.44071504
-0.11895718
-0.46181503
-0.1250766
-0.48401872
-0.13135635
-0.50738854
-0.13779025
-0.53199152
-0.14437039
-0.55789886
-0.15108862
-0.58518452
-0.1579351
-0.61392839
-0.16489904
-0.64421374
-0.17196798
-0.67612948
-0.1791271
-0.70976931
-0.18636013
-0.74523308
-0.19364843
-0.78262535
-0.20097046
-0.82205817
-0.2083018
-0.86364925
-0.2156146
-0.90752333
-0.22287683
-0.95381258
-0.23005272
-1.0026553
-0.23710042
-1.0541991
-0.24397351
-1.1085972
-0.25061789
-1.166016
-0.25697111
-1.2266303
-0.26296517
-1.2906412
-0.26852443
-1.3582546
-0.2735514
-1.4297188
-0.27795537
-1.5052789
-0.28161856
-1.5852051
-0.28442013
-1.6697614
-0.28622027
-1.7592274
-0.28686098
-1.8538695
-0.28616804
-1.9539082
-0.28395643
-2.0594265
-0.27998761
-2.1703193
-2.2863455
-0.00028486794
-0.047519131
-0.00087492471
-0.059001604
-0.0013271209
-0.058063694
-0.0019501274
-0.062740645
-0.0025031964
-0.064761126
-0.0032082185
-0.068125896
-0.0038656898
-0.071248619
-0.0046337264
-0.074531424
-0.0053951013
-0.078094278
-0.0062147279
-0.081684817
-0.0070804995
-0.085525585
-0.0079991537
-0.089495456
-0.0089755689
-0.093660262
-0.010013178
-0.098006454
-0.011117066
-0.10254787
-0.012292072
-0.10729121
-0.013543875
-0.11224535
-0.0148779
-0.11741913
-0.016300176
-0.12282205
-0.017817499
-0.12846361
-0.019435933
-0.13435529
-0.021163043
-0.14050697
-0.023005239
-0.14693159
-0.02496996
-0.15364088
-0.027064844
-0.16064914
-0.029296731
-0.16797034
-0.031673221
-0.17562007
-0.034201251
-0.18361503
-0.03688733
-0.19197369
-0.039738342
-0.20071425
-0.042760426
-0.20985828
-0.045958711
-0.21942782
-0.049338153
-0.22944668
-0.052903635
-0.23994015
-0.056658907
-0.25093555
-0.060606803
-0.26246205
-0.06475029
-0.27455031
-0.069091319
-0.28723304
-0.073631013
-0.3005455
-0.078370538
-0.31452396
-0.083309979
-0.32920755
-0.088449095
-0.34463755
-0.093787701
-0.36085701
-0.099325235
-0.3779117
-0.10506011
-0.39585058
-0.110991
-0.41472422
-0.11711596
-0.43458653
-0.12343293
-0.45549423
-0.12993956
-0.47750798
-0.1366325
-0.50069119
-0.14350866
-0.52511066
-0.15056398
-0.55083853
-0.15779347
-0.57794972
-0.16519194
-0.60652432
-0.17275251
-0.63664725
-0.18046761
-0.66840815
-0.18832749
-0.70190289
-0.19632215
-0.73723155
-0.20443842
-0.77450189
-0.21266142
-0.81382768
-0.22097422
-0.85532872
-0.22935664
-0.89913308
-0.23778538
-0.9453761
-0.24623279
-0.99420061
-0.2546683
-1.0457571
-0.26305493
-1.1002056
-0.27135165
-1.1577167
-0.27950744
-1.2184754
-0.28746857
-1.2826861
-0.29516743
-1.3505687
-0.3025356
-1.4223723
-0.30948959
-1.4983559
-0.31593771
-1.5787965
-0.32177362
-1.6639708
-0.3268836
-1.7541603
-0.33113302
-1.8496342
-0.33436787
-1.9506244
-0.3364426
-2.0572538
-0.33712998
-2.1694544
-2.2868168
-0.00024624812
-0.047273029
-0.00082464439
-0.058423282
-0.0012468349
-0.057641631
-0.0018928094
-0.062094764
-0.0024308681
-0.064223189
-0.0031160316
-0.067440832
-0.0037499262
-0.070614842
-0.0044763142
-0.073805135
-0.005222806
-0.077347894
-0.0060258873
-0.080881837
-0.0068809546
-0.084670613
-0.0077908424
-0.088585654
-0.0087626827
-0.092688497
-0.0098004065
-0.096968792
-0.010909776
-0.10143855
-0.012096556
-0.10610446
-0.013367
-0.11097491
-0.014727809
-0.11605831
-0.016185798
-0.12136402
-0.017747708
-0.12690163
-0.019422206
-0.13268068
-0.021215782
-0.13871324
-0.023137361
-0.14500982
-0.025194278
-0.15158372
-0.027394427
-0.1584487
-0.029745969
-0.16561844
-0.032256375
-0.17310923
-0.034932683
-0.18093821
-0.037782367
-0.1891234
-0.040811472
-0.19768444
-0.044025655
-0.20664329
-0.047430634
-0.21602191
-0.0510309
-0.22584535
-0.054830708
-0.23613913
-0.058833397
-0.2469315
-0.06304183
-0.25825208
-0.06745829
-0.27013212
-0.072084522
-0.28260487
-0.076922312
-0.29570556
-0.081972371
-0.30947151
-0.087235638
-0.32394164
-0.092712909
-0.33915737
-0.098404679
-0.35516204
-0.10431097
-0.3720019
-0.11043266
-0.38972506
-0.11677028
-0.40838243
-0.12332384
-0.42802843
-0.13009386
-0.44871928
-0.13708062
-0.47051588
-0.14428447
-0.49348156
-0.15170482
-0.51768408
-0.1593421
-0.54319452
-0.16719509
-0.57008948
-0.1752626
-0.598449
-0.18354296
-0.62835848
-0.19203329
-0.65990875
-0.20073018
-0.69319622
-0.20962848
-0.7283227
-0.21872222
-0.76539675
-0.22800363
-0.80453399
-0.23746233
-0.84585682
-0.24708674
-0.88949457
-0.25686206
-0.93558586
-0.26677082
-0.98427623
-0.27679134
-1.0357205
-0.28689813
-1.0900826
-0.29706052
-1.1475385
-0.30724364
-1.2082778
-0.31740345
-1.2725143
-0.32749216
-1.3404718
-0.33745609
-1.4124053
-0.34722382
-1.4885902
-0.35672773
-1.569298
-0.36588598
-1.6548178
-0.37460833
-1.7454326
-0.38277612
-1.8414211
-0.39026807
-1.9430178
-0.39695666
-2.0504028
-0.40264238
-2.1635013
-2.2817991
-0.00021179554
-0.047061348
-0.00079029725
-0.05784482
-0.001189301
-0.057242718
-0.0018541121
-0.061430029
-0.0023696061
-0.063707777
-0.0030469819
-0.066763525
-0.0036732203
-0.069988671
-0.0043934512
-0.073084963
-0.0051421247
-0.076599271
-0.0059450333
-0.080078968
-0.0068073527
-0.083808322
-0.0077292002
-0.087663821
-0.0087190465
-0.09169865
-0.009781706
-0.095906113
-0.010923856
-0.10029636
-0.012152223
-0.10487603
-0.013474004
-0.10965304
-0.01489656
-0.11463562
-0.016428361
-0.11983206
-0.018077374
-0.12525242
-0.01985192
-0.13090589
-0.021760975
-0.13680389
-0.023812746
-0.14295769
-0.026016016
-0.14938003
-0.028379582
-0.15608464
-0.030910925
-0.16308653
-0.033617966
-0.17040153
-0.036508085
-0.17804734
-0.039588126
-0.1860425
-0.0428634
-0.19440819
-0.046340422
-0.20316516
-0.050023108
-0.21233797
-0.053916303
-0.22195075
-0.058022824
-0.23203103
-0.062345528
-0.24260703
-0.066887377
-0.25370826
-0.071650306
-0.26536701
-0.07663585
-0.27761691
-0.081845746
-0.29049299
-0.087281797
-0.30403251
-0.092945506
-0.31827469
-0.09883866
-0.33326066
-0.10496292
-0.34903388
-0.11132089
-0.36563968
-0.11791491
-0.38312638
-0.1247474
-0.40154486
-0.13182204
-0.42094825
-0.13914139
-0.4413939
-0.14670953
-0.46294115
-0.15452994
-0.485654
-0.16260659
-0.50959963
-0.17094259
-0.53485005
-0.179542
-0.56148083
-0.18840842
-0.5895725
-0.19754472
-0.6192112
-0.20695368
-0.65048778
-0.21663777
-0.68349898
-0.22659812
-0.71834793
-0.23683522
-0.75514383
-0.24734816
-0.7940037
-0.25813572
-0.83505023
-0.26919345
-0.87841601
-0.28051592
-0.92424066
-0.29209514
-0.97267228
-0.30392008
-1.0238688
-0.31597646
-1.0779973
-0.32824629
-1.1352377
-0.34070502
-1.1957865
-0.35332775
-1.2598581
-0.3660797
-1.3276865
-0.37891727
-1.3995348
-0.39180274
-1.4756716
-0.40467631
-1.5563887
-0.41748071
-1.6419706
-0.430146
-1.7327043
-0.44258984
-1.8288629
-0.45470235
-1.9307159
-0.46638741
-2.0384771
-0.47745205
-2.1520597
-2.2708858
-0.00019038128
-0.046871052
-0.00078828305
-0.057246928
-0.0011834937
-0.056847563
-0.0018411991
-0.060772353
-0.002349641
-0.063199377
-0.0030290149
-0.066084172
-0.0036703102
-0.069347397
-0.0043973747
-0.072357906
-0.0051675727
-0.075829071
-0.0059916041
-0.07925492
-0.0068831071
-0.082916787
-0.0078412953
-0.086705582
-0.0088757457
-0.090664127
-0.0099925374
-0.094789225
-0.011199411
-0.099089364
-0.012504284
-0.103571
-0.013915643
-0.10824149
-0.015442367
-0.11310867
-0.017093147
-0.118181
-0.018877999
-0.12346724
-0.020805799
-0.12897771
-0.022886295
-0.13472295
-0.025128392
-0.14071508
-0.027541279
-0.14696656
-0.030133561
-0.15349168
-0.032913392
-0.16030593
-0.035887864
-0.16742618
-0.039064192
-0.17487002
-0.042447901
-0.18265768
-0.046045053
-0.19080979
-0.049859498
-0.19934931
-0.053895419
-0.20830048
-0.058156147
-0.21768828
-0.06264427
-0.22754097
-0.067362253
-0.2378869
-0.072312317
-0.24875583
-0.077496126
-0.26018058
-0.082916114
-0.27219403
-0.088574189
-0.28483174
-0.094473049
-0.29813017
-0.10061556
-0.31212836
-0.10700509
-0.32686695
-0.11364579
-0.34238862
-0.12054191
-0.35873855
-0.12769835
-0.37596448
-0.13512108
-0.39411615
-0.14281598
-0.41324681
-0.15078981
-0.43341293
-0.15904939
-0.45467376
-0.16760238
-0.47709247
-0.17645647
-0.50073617
-0.18562037
-0.52567588
-0.19510204
-0.55198789
-0.20491011
-0.57975204
-0.21505268
-0.60905498
-0.22553893
-0.63998648
-0.23637644
-0.67264483
-0.24757331
-0.70713263
-0.25913718
-0.74355952
-0.27107512
-0.78204306
-0.28339289
-0.82270724
-0.29609572
-0.86568515
-0.30918725
-0.91111795
-0.32266937
-0.95915546
-0.33654211
-1.0099573
-0.35080256
-1.0636937
-0.3654446
-1.1205477
-0.38045847
-1.1807197
-0.39583443
-1.2444242
-0.41154913
-1.3119089
-0.42758593
-1.38343
-0.44391259
-1.4592704
-0.46050105
-1.5397162
-0.4773181
-1.6250546
-0.49431271
-1.7155801
-0.51141922
-1.8115643
-0.52856201
-1.9133004
-0.54567687
-2.0210306
-0.56255989
-2.1346729
-2.2536181
-0.0001717796
-0.046699331
-0.00079855922
-0.056620131
-0.0012004553
-0.056445694
-0.0018681571
-0.060104645
-0.0023889103
-0.06267863
-0.0030833026
-0.065389764
-0.0037547513
-0.068675926
-0.0045049556
-0.071607664
-0.0053148587
-0.075019116
-0.0061824014
-0.078387307
-0.0071272065
-0.081971891
-0.0081492362
-0.085683438
-0.009258834
-0.089554389
-0.010463746
-0.093584143
-0.011773066
-0.097779839
-0.01319618
-0.10214764
-0.014742907
-0.10669448
-0.016423437
-0.1114278
-0.018248137
-0.11635591
-0.020227042
-0.12148789
-0.022370678
-0.12683356
-0.024688765
-0.13240427
-0.027190625
-0.13821255
-0.029885569
-0.14427085
-0.0327815
-0.15059488
-0.035885823
-0.15720063
-0.039205854
-0.16410506
-0.04274654
-0.17132811
-0.04651318
-0.17888967
-0.050509746
-0.1868117
-0.054739691
-0.19511767
-0.059206073
-0.20383223
-0.063910255
-0.21298202
-0.068855474
-0.22259347
-0.074043149
-0.2326967
-0.079475222
-0.24332099
-0.085154578
-0.25449818
-0.091083492
-0.26626179
-0.09726616
-0.27864543
-0.10370638
-0.29168596
-0.11040882
-0.30542155
-0.11737908
-0.31989191
-0.12462393
-0.33513854
-0.13215036
-0.3512064
-0.13996653
-0.36814205
-0.1480815
-0.38599432
-0.15650475
-0.40481604
-0.1652466
-0.42466284
-0.17431841
-0.4455929
-0.1837316
-0.46766933
-0.19349881
-0.49095801
-0.20363217
-0.51553044
-0.21414592
-0.54146081
-0.22505322
-0.56882998
-0.2363688
-0.59772303
-0.24810648
-0.62823061
-0.26028155
-0.6604495
-0.27290853
-0.69448304
-0.2860021
-0.73044067
-0.29957777
-0.76843908
-0.31364936
-0.8086039
-0.32823124
-0.85106759
-0.34333703
-0.89597197
-0.35897906
-0.943468
-0.37516794
-0.99371695
-0.39191321
-1.0468899
-0.40922227
-1.1031721
-0.42710087
-1.1627656
-0.44554855
-1.2258914
-0.46456644
-1.2927954
-0.48415013
-1.3637388
-0.50429442
-1.4390045
-0.52498861
-1.5188832
-0.54621555
-1.6036651
-0.56795839
-1.6936334
-0.59016645
-1.7890789
-0.61280619
-1.8902971
-0.63582972
-1.9975719
-0.65902805
-2.110829
-2.2294772
-0.00015758007
-0.046541785
-0.00082652717
-0.055951143
-0.0012418722
-0.056030348
-0.0019394963
-0.059406985
-0.0024903367
-0.062127759
-0.0032129518
-0.064667096
-0.0039350065
-0.06795381
-0.0047296302
-0.07081296
-0.0056022171
-0.07414643
-0.0065404481
-0.077448955
-0.007567922
-0.080944271
-0.0086868067
-0.084564379
-0.0099085444
-0.088332444
-0.011242984
-0.092249459
-0.012700785
-0.096321753
-0.014293117
-0.10055498
-0.016031223
-0.10495599
-0.017926453
-0.10953213
-0.01999006
-0.1142918
-0.022232981
-0.11924439
-0.024665463
-0.12440042
-0.027297578
-0.12977142
-0.030138653
-0.13537064
-0.033196342
-0.14121222
-0.03647829
-0.14731189
-0.039990565
-0.15368718
-0.043738118
-0.1603562
-0.047725349
-0.16733943
-0.05195544
-0.17465797
-0.056430766
-0.18233459
-0.061153102
-0.19039337
-0.066124545
-0.19885862
-0.071346541
-0.20775765
-0.076820843
-0.21711655
-0.082549928
-0.22696476
-0.088536465
-0.23733132
-0.094783925
-0.2482473
-0.10129742
-0.25974455
-0.10808135
-0.2718574
-0.11514283
-0.28462
-0.12248881
-0.29807067
-0.13012872
-0.31224664
-0.13807109
-0.32719031
-0.14632686
-0.34294423
-0.15490814
-0.35955374
-0.16382675
-0.37706799
-0.17309656
-0.39553776
-0.18273224
-0.41501784
-0.19274873
-0.43556613
-0.20316265
-0.45724406
-0.21399057
-0.48011754
-0.22525111
-0.50425599
-0.23696209
-0.52973439
-0.24914306
-0.55663183
-0.26181453
-0.58503239
-0.27499709
-0.61502664
-0.2887119
-0.64671069
-0.30298177
-0.68018623
-0.31782906
-0.71556307
-0.3332764
-0.75295759
-0.34934749
-0.79249422
-0.36606626
-0.83430509
-0.38345616
-0.87853234
-0.40153997
-0.92532739
-0.42034139
-0.97485039
-0.43988194
-1.0272744
-0.46018225
-1.0827855
-0.48126199
-1.1415865
-0.50313846
-1.2039008
-0.52583175
-1.2699713
-0.54935611
-1.3400644
-0.57372395
-1.4144643
-0.59894873
-1.4934598
-0.62504253
-1.5773392
-0.65199819
-1.6663925
-0.6798001
-1.7609077
-0.70843981
-1.8611944
-0.73791251
-1.9675479
-0.76798147
-2.079961
-2.1978727
-0.00014947545
-0.046392322
-0.00087975315
-0.055220803
-0.0013136092
-0.055596464
-0.0020549534
-0.058665576
-0.0026565317
-0.061526119
-0.0034255878
-0.063897954
-0.0042212502
-0.067158048
-0.0050850908
-0.069948997
-0.0060460524
-0.073185324
-0.007086385
-0.076408451
-0.0082318205
-0.079798635
-0.0094881194
-0.083307845
-0.010868257
-0.086952033
-0.012384156
-0.090733244
-0.014048312
-0.094657234
-0.015873196
-0.098729676
-0.017871264
-0.10295744
-0.020054555
-0.1073483
-0.022434747
-0.11191099
-0.025022751
-0.11665569
-0.027828779
-0.12159361
-0.030861662
-0.12673765
-0.034129159
-0.13210216
-0.037638188
-0.13770209
-0.041393551
-0.1435553
-0.045399673
-0.1496797
-0.049658804
-0.15609556
-0.05417314
-0.16282342
-0.058944112
-0.16988516
-0.063972419
-0.17730426
-0.069259305
-0.18510427
-0.074805593
-0.1933099
-0.080613414
-0.20194716
-0.086684932
-0.21104212
-0.093023979
-0.22062253
-0.099634474
-0.23071735
-0.10652266
-0.24135532
-0.11369474
-0.25256833
-0.12115975
-0.26438787
-0.12892621
-0.2768486
-0.1370059
-0.28998558
-0.14540952
-0.30383713
-0.1541509
-0.31844247
-0.16324461
-0.33384343
-0.17270562
-0.35008496
-0.18255068
-0.36721438
-0.19279757
-0.38528145
-0.20346502
-0.40433999
-0.21457317
-0.42444648
-0.22614256