/*--------------------------------*- C++ -*----------------------------------*\
  =========                 |
  \\      /  F ield         | OpenFOAM: The Open Source CFD Toolbox
   \\    /   O peration     | Website:  https://openfoam.org
    \\  /    A nd           | Version:  12
     \\/     M anipulation  |
\*---------------------------------------------------------------------------*/
FoamFile
{
    format      ascii;
    class       volScalarField;
    location    "0.067";
    object      rho;
}
// * * * * * * * * * * * * * * * * * * * * * * * * * * * * * * * * * * * * * //

dimensions      [1 -3 0 0 0 0 0];

internalField   nonuniform List<scalar> 
16000
(
1.0561579
1.0894316
1.0770634
1.0854959
1.0815862
1.0850772
1.0840874
1.0859369
1.0860861
1.0873126
1.0879744
1.0890034
1.0898944
1.0909057
1.0919164
1.0929798
1.0940759
1.0952124
1.0963874
1.0976019
1.0988558
1.1001492
1.1014819
1.1028534
1.1042633
1.1057105
1.107194
1.1087124
1.110264
1.111847
1.113459
1.1150974
1.1167595
1.1184421
1.1201419
1.1218551
1.1235779
1.1253062
1.1270357
1.1287622
1.1304811
1.132188
1.1338784
1.1355479
1.1371924
1.1388077
1.14039
1.1419357
1.1434413
1.1449038
1.1463206
1.1476891
1.1490072
1.1502732
1.1514856
1.152643
1.1537445
1.1547892
1.1557766
1.1567062
1.1575778
1.1583912
1.1591464
1.1598436
1.160483
1.1610647
1.1615894
1.162058
1.1624723
1.1628351
1.1631509
1.163426
1.1636697
1.1638922
1.1640981
1.1642975
1.1645992
1.1641041
1.1654041
1.1622889
1.0527321
1.0865252
1.073558
1.0825315
1.0783914
1.0821546
1.0810598
1.0830834
1.0832254
1.0845552
1.0852695
1.0863746
1.0873407
1.0884275
1.08952
1.0906657
1.0918482
1.0930736
1.0943405
1.0956495
1.0970005
1.0983933
1.0998274
1.1013022
1.1028167
1.1043696
1.1059593
1.1075842
1.109242
1.1109303
1.1126462
1.1143868
1.1161486
1.1179278
1.1197207
1.1215228
1.12333
1.1251375
1.1269407
1.1287348
1.1305152
1.132277
1.1340157
1.1357268
1.1374062
1.1390499
1.1406542
1.1422157
1.1437314
1.1451988
1.1466155
1.1479796
1.1492895
1.1505441
1.1517422
1.1528832
1.1539666
1.154992
1.1559594
1.1568687
1.1577199
1.1585133
1.1592489
1.1599272
1.1605484
1.1611129
1.1616211
1.1620743
1.1624745
1.1628252
1.1631312
1.1633994
1.1636389
1.1638576
1.1640641
1.16429
1.1644438
1.1642753
1.1651019
1.1623176
1.0496207
1.0838669
1.0705516
1.0798039
1.0755199
1.0794876
1.0783626
1.0805082
1.0806925
1.0821069
1.0828965
1.0840796
1.0851329
1.0863042
1.0874887
1.0887274
1.0900071
1.0913321
1.0927015
1.0941155
1.0955737
1.0970756
1.0986203
1.1002068
1.1018337
1.1034993
1.1052015
1.1069382
1.1087065
1.1105034
1.1123256
1.1141692
1.1160304
1.1179048
1.1197878
1.1216745
1.1235601
1.1254395
1.1273076
1.1291593
1.1309895
1.1327936
1.1345667
1.1363046
1.1380031
1.1396587
1.1412679
1.1428279
1.1443361
1.1457905
1.1471895
1.1485316
1.1498161
1.1510422
1.1522096
1.1533182
1.1543681
1.1553595
1.1562926
1.157168
1.1579859
1.1587469
1.1594513
1.1600997
1.1606923
1.1612297
1.1617124
1.1621418
1.1625202
1.1628515
1.1631411
1.1633964
1.1636258
1.1638373
1.1640444
1.1642588
1.1643648
1.1643569
1.1648344
1.1623419
1.046844
1.0814607
1.0677119
1.0773543
1.0729291
1.07713
1.0759811
1.0782664
1.0785027
1.0800145
1.0808936
1.0821667
1.0833219
1.0845909
1.0858812
1.0872262
1.0886159
1.0900531
1.091537
1.0930673
1.0946436
1.0962648
1.0979298
1.0996372
1.101385
1.1031711
1.104993
1.1068476
1.1087316
1.1106412
1.1125724
1.1145206
1.1164811
1.1184488
1.1204185
1.1223847
1.1243419
1.1262846
1.1282072
1.1301044
1.1319712
1.1338025
1.1355939
1.1373413
1.1390409
1.1406895
1.1422843
1.143823
1.1453039
1.1467255
1.148087
1.1493879
1.1506279
1.1518071
1.152926
1.153985
1.1549848
1.1559263
1.1568101
1.1576371
1.1584081
1.1591238
1.1597848
1.1603918
1.1609451
1.1614454
1.1618933
1.1622902
1.1626387
1.1629429
1.1632086
1.1634433
1.163655
1.1638526
1.1640498
1.1642399
1.1643263
1.164375
1.1646296
1.1623343
1.0444405
1.0794406
1.0652934
1.075229
1.0706734
1.0751446
1.0739879
1.0764178
1.0767288
1.0783448
1.0793324
1.0807055
1.0819766
1.0833548
1.0847618
1.0862238
1.0877335
1.0892928
1.0909008
1.0925571
1.0942609
1.0960108
1.0978052
1.0996421
1.1015191
1.1034332
1.1053812
1.1073592
1.109363
1.1113879
1.1134291
1.115481
1.1175381
1.1195944
1.1216441
1.1236809
1.1256988
1.127692
1.1296545
1.1315811
1.1334665
1.1353061
1.1370956
1.1388315
1.1405106
1.1421303
1.1436886
1.1451841
1.1466159
1.1479834
1.1492868
1.1505263
1.1517025
1.1528164
1.1538691
1.1548619
1.1557958
1.1566724
1.1574928
1.1582582
1.1589697
1.1596283
1.1602348
1.1607899
1.1612941
1.1617481
1.1621526
1.1625093
1.1628206
1.163091
1.1633263
1.1635339
1.1637218
1.1638994
1.1640779
1.1642393
1.1643093
1.1643739
1.1644468
1.162319
1.0424577
1.0778238
1.0633297
1.0735679
1.0689205
1.0736095
1.0724468
1.0750366
1.0754431
1.0771668
1.0782763
1.079754
1.0811486
1.0826431
1.0841745
1.0857622
1.0874015
1.0890931
1.0908363
1.09263
1.0944728
1.0963629
1.0982978
1.1002748
1.1022906
1.1043411
1.1064222
1.108529
1.1106561
1.1127979
1.1149482
1.1171008
1.1192489
1.1213859
1.1235051
1.1255998
1.1276634
1.1296899
1.1316734
1.1336086
1.1354906
1.1373152
1.1390789
1.1407788
1.1424126
1.1439787
1.1454761
1.1469044
1.1482638
1.1495549
1.1507786
1.1519363
1.1530294
1.1540598
1.1550292
1.1559395
1.1567926
1.1575902
1.158334
1.1590255
1.159666
1.1602568
1.1607986
1.1612924
1.1617387
1.1621382
1.1624917
1.1628008
1.1630684
1.1632987
1.1634977
1.1636724
1.1638308
1.1639822
1.1641342
1.1642626
1.1643125
1.1643755
1.164292
1.162302
1.0409042
1.0766315
1.0618202
1.0723954
1.0676538
1.0725565
1.0714382
1.0741589
1.074672
1.0764906
1.0777287
1.0793144
1.0808424
1.0824655
1.0841349
1.0858639
1.0876487
1.0894893
1.0913842
1.0933317
1.0953294
1.0973746
1.0994639
1.1015934
1.1037586
1.1059544
1.1081753
1.110415
1.112667
1.1149243
1.1171798
1.1194258
1.121655
1.1238597
1.1260327
1.1281668
1.1302555
1.1322925
1.1342723
1.13619
1.1380414
1.1398233
1.141533
1.1431687
1.1447293
1.1462145
1.1476246
1.1489604
1.1502234
1.1514151
1.1525377
1.1535935
1.1545849
1.1555144
1.1563845
1.1571977
1.1579563
1.1586624
1.159318
1.1599249
1.1604846
1.1609983
1.161467
1.1618914
1.1622723
1.1626102
1.1629061
1.1631617
1.1633798
1.1635648
1.1637224
1.1638595
1.1639836
1.1641031
1.1642222
1.1643134
1.1643391
1.1643865
1.1641636
1.1623034
1.0397174
1.0758049
1.0607039
1.0716612
1.0668275
1.0719497
1.070866
1.0737816
1.0743315
1.0762621
1.0776617
1.079381
1.0810684
1.0828458
1.0846774
1.0865715
1.088525
1.0905368
1.0926047
1.0947259
1.0968971
1.0991144
1.1013731
1.1036678
1.1059927
1.1083411
1.110706
1.1130798
1.1154543
1.1178213
1.1201724
1.122499
1.1247927
1.1270454
1.1292495
1.1313977
1.1334837
1.1355017
1.1374468
1.1393152
1.1411037
1.1428103
1.1444338
1.1459739
1.1474311
1.1488064
1.1501017
1.1513191
1.1524614
1.1535315
1.1545325
1.1554676
1.15634
1.1571531
1.1579097
1.1586129
1.1592653
1.1598694
1.1604272
1.1609408
1.1614115
1.1618407
1.1622294
1.1625782
1.1628878
1.1631587
1.1633919
1.1635892
1.1637533
1.1638887
1.1640008
1.1640962
1.1641821
1.1642653
1.1643462
1.1643974
1.1643953
1.1644119
1.1640675
1.1623398
1.0388826
1.0753211
1.0599553
1.0713791
1.0663638
1.0716595
1.0706607
1.0736396
1.0744742
1.0765524
1.0781446
1.0800236
1.0818964
1.0838555
1.0858755
1.0879608
1.0901081
1.0923153
1.0945789
1.096895
1.0992588
1.1016649
1.1041068
1.1065775
1.1090695
1.1115742
1.1140828
1.116586
1.1190742
1.1215378
1.1239671
1.1263528
1.128686
1.1309583
1.1331621
1.1352906
1.1373382
1.1393002
1.1411729
1.142954
1.144642
1.1462368
1.1477388
1.1491497
1.1504716
1.1517075
1.1528606
1.1539346
1.1549334
1.1558612
1.156722
1.1575198
1.1582585
1.1589419
1.1595734
1.1601563
1.1606934
1.1611873
1.1616401
1.1620538
1.1624298
1.1627693
1.1630731
1.163342
1.1635762
1.1637764
1.1639435
1.1640791
1.1641862
1.1642689
1.1643324
1.1643832
1.1644278
1.1644709
1.1645102
1.1645204
1.1644878
1.1644571
1.1640109
1.1624283
1.0384296
1.0752105
1.0596064
1.071461
1.0663035
1.071988
1.0710146
1.0741697
1.0752113
1.0774405
1.0792571
1.0813251
1.0834118
1.0855825
1.0878196
1.0901241
1.0924922
1.09492
1.0974027
1.0999345
1.1025089
1.1051182
1.1077542
1.1104076
1.1130686
1.1157266
1.1183709
1.1209904
1.123574
1.1261109
1.1285905
1.1310032
1.1333398
1.1355925
1.1377543
1.1398197
1.1417844
1.1436456
1.1454017
1.1470523
1.1485985
1.150042
1.1513857
1.1526332
1.1537886
1.1548566
1.1558419
1.1567497
1.157585
1.1583528
1.159058
1.1597051
1.1602986
1.1608425
1.1613404
1.1617957
1.1622112
1.1625896
1.1629328
1.1632427
1.1635205
1.1637673
1.1639837
1.1641702
1.1643271
1.1644548
1.1645541
1.1646266
1.164675
1.1647032
1.1647164
1.1647208
1.1647219
1.1647223
1.1647181
1.1646886
1.1646225
1.1645305
1.1640045
1.1625828
1.0384317
1.0755493
1.0597138
1.071784
1.0667483
1.0725692
1.0719608
1.0752902
1.0766035
1.0790128
1.0810889
1.0833811
1.085713
1.088128
1.0906133
1.0931669
1.0957837
1.0984578
1.1011823
1.1039492
1.1067493
1.1095725
1.1124077
1.1152431
1.1180664
1.1208648
1.1236255
1.1263359
1.1289835
1.1315569
1.1340452
1.1364389
1.1387299
1.1409114
1.1429784
1.1449274
1.1467565
1.1484656
1.1500559
1.1515297
1.1528906
1.1541432
1.1552926
1.1563444
1.1573047
1.1581797
1.1589755
1.1596984
1.1603542
1.1609487
1.161487
1.1619743
1.162415
1.1628132
1.1631726
1.1634964
1.1637874
1.1640479
1.1642798
1.1644845
1.1646633
1.1648167
1.1649453
1.1650493
1.1651288
1.165184
1.1652157
1.1652253
1.1652151
1.1651888
1.1651513
1.1651087
1.165065
1.1650213
1.1649739
1.1649068
1.1648046
1.1646431
1.1640623
1.1628143
1.038976
1.0764162
1.0603834
1.0727416
1.0678922
1.0739929
1.0736116
1.07712
1.0787529
1.08137
1.0837403
1.0862952
1.0889074
1.0916027
1.0943703
1.0972053
1.1001003
1.1030466
1.1060343
1.109052
1.1120875
1.1151272
1.118157
1.1211622
1.1241278
1.1270388
1.1298807
1.1326396
1.1353027
1.1378585
1.140297
1.1426103
1.1447921
1.1468384
1.1487472
1.1505182
1.1521531
1.153655
1.1550285
1.1562792
1.1574134
1.1584383
1.1593612
1.1601897
1.1609315
1.1615938
1.162184
1.1627088
1.1631747
1.1635876
1.163953
1.1642759
1.1645606
1.1648112
1.1650311
1.1652231
1.1653898
1.1655332
1.1656548
1.1657558
1.165837
1.1658987
1.1659413
1.1659646
1.1659686
1.1659534
1.1659195
1.165868
1.1658009
1.1657215
1.1656346
1.1655457
1.1654572
1.1653694
1.165281
1.1651792
1.1650376
1.1648054
1.1641995
1.1631326
1.0400566
1.0778153
1.0616132
1.0743959
1.0697121
1.0760504
1.0760213
1.0797267
1.081741
1.0846096
1.0873158
1.0901809
1.093116
1.0961335
1.0992221
1.1023734
1.1055763
1.1088181
1.1120848
1.1153611
1.1186307
1.1218763
1.1250803
1.1282251
1.1312932
1.134268
1.137134
1.1398772
1.1424856
1.1449494
1.1472613
1.1494164
1.1514125
1.1532494
1.1549296
1.156457
1.1578375
1.1590782
1.1601871
1.1611728
1.1620446
1.1628117
1.1634832
1.1640682
1.1645753
1.1650126
1.1653879
1.1657081
1.1659799
1.1662089
1.1664006
1.1665595
1.1666898
1.1667949
1.1668779
1.1669413
1.1669872
1.1670171
1.1670322
1.1670332
1.1670207
1.1669946
1.1669548
1.1669012
1.1668335
1.1667515
1.1666555
1.1665464
1.1664257
1.1662963
1.1661628
1.1660296
1.1658977
1.1657677
1.1656421
1.1655087
1.1653252
1.1650271
1.1644279
1.1635451
1.0417268
1.0797971
1.063463
1.0766975
1.0722918
1.0788908
1.0792962
1.0832241
1.0856831
1.08886
1.0919515
1.0951823
1.0984905
1.101877
1.1053275
1.1088284
1.1123635
1.1159152
1.1194645
1.1229913
1.1264747
1.1298936
1.133227
1.1364547
1.1395579
1.1425194
1.1453246
1.1479615
1.1504215
1.1526987
1.1547906
1.1566978
1.1584233
1.1599726
1.1613532
1.162574
1.1636452
1.1645776
1.1653824
1.1660709
1.1666542
1.1671432
1.1675481
1.1678787
1.168144
1.1683523
1.1685112
1.1686275
1.1687073
1.168756
1.1687784
1.1687786
1.16876
1.1687257
1.1686782
1.1686193
1.1685506
1.1684732
1.1683879
1.1682949
1.1681943
1.168086
1.1679694
1.1678442
1.1677099
1.1675662
1.1674132
1.1672512
1.1670815
1.1669066
1.1667307
1.1665568
1.1663847
1.1662166
1.1660592
1.1658971
1.1656705
1.1653161
1.1647552
1.1640548
1.044047
1.082421
1.0660451
1.0797744
1.0757379
1.0826046
1.0835536
1.0877478
1.0907244
1.0942855
1.0978245
1.1014856
1.1052216
1.1090235
1.1128713
1.1167452
1.1206227
1.1244803
1.1282931
1.1320356
1.1356823
1.1392085
1.1425909
1.1458084
1.148843
1.1516802
1.1543094
1.1567239
1.1589213
1.1609027
1.1626726
1.1642384
1.1656098
1.1667984
1.1678169
1.1686787
1.1693977
1.1699877
1.1704622
1.1708342
1.1711158
1.1713185
1.1714529
1.1715286
1.1715544
1.1715381
1.1714867
1.1714064
1.1713025
1.1711797
1.171042
1.1708928
1.1707348
1.1705704
1.1704014
1.1702291
1.1700544
1.1698781
1.1697003
1.1695209
1.1693398
1.1691562
1.1689697
1.1687794
1.1685849
1.1683856
1.1681814
1.1679723
1.1677591
1.1675444
1.1673314
1.1671217
1.1669144
1.1667147
1.1665322
1.1663443
1.1660755
1.1656792
1.165184
1.1646602
1.0470747
1.0857185
1.0694887
1.0836998
1.0801717
1.0873342
1.0889618
1.0934987
1.0970775
1.1011139
1.1051689
1.1093233
1.1135361
1.1177882
1.1220525
1.1263015
1.1305052
1.1346326
1.1386523
1.1425335
1.1462473
1.1497673
1.1530713
1.1561414
1.1589649
1.1615343
1.1638473
1.1659064
1.1677181
1.1692925
1.1706424
1.1717828
1.1727297
1.1735001
1.174111
1.1745792
1.1749211
1.1751519
1.1752864
1.1753377
1.1753182
1.175239
1.1751101
1.1749403
1.1747376
1.1745088
1.1742599
1.1739961
1.1737218
1.1734407
1.1731559
1.1728699
1.1725848
1.1723021
1.1720228
1.1717479
1.1714776
1.1712121
1.1709512
1.1706944
1.170441
1.1701904
1.1699415
1.1696937
1.169446
1.169198
1.1689491
1.1686991
1.1684488
1.1682003
1.1679562
1.1677165
1.1674808
1.1672578
1.1670577
1.1668471
1.166541
1.1661218
1.1657105
1.1653526
1.0508828
1.0896993
1.073922
1.0886287
1.0858032
1.093328
1.0957859
1.1007614
1.1050245
1.1096249
1.1142575
1.1189559
1.1236777
1.1283925
1.1330635
1.1376525
1.1421203
1.146428
1.1505388
1.1544196
1.1580424
1.1613852
1.164433
1.1671774
1.1696169
1.1717561
1.1736046
1.1751763
1.1764883
1.1775599
1.1784119
1.1790652
1.1795411
1.1798599
1.1800414
1.1801037
1.180064
1.1799378
1.1797392
1.1794808
1.179174
1.1788286
1.1784533
1.1780559
1.1776428
1.1772197
1.1767912
1.1763615
1.1759337
1.1755107
1.1750944
1.1746866
1.1742884
1.1739008
1.1735241
1.1731585
1.172804
1.17246
1.1721261
1.1718014
1.1714851
1.1711759
1.170873
1.1705754
1.1702821
1.1699924
1.1697056
1.1694213
1.1691402
1.1688642
1.1685948
1.1683311
1.1680745
1.1678373
1.1676269
1.1673974
1.1670636
1.1666481
1.166334
1.1661163
1.0556659
1.094517
1.0795839
1.0948916
1.0929669
1.1009177
1.1043506
1.1098621
1.1148796
1.1201246
1.1253859
1.1306598
1.1358942
1.1410427
1.1460547
1.1508804
1.1554724
1.1597881
1.163792
1.1674571
1.1707654
1.1737083
1.1762859
1.178506
1.1803831
1.1819363
1.1831886
1.1841654
1.184893
1.1853981
1.1857066
1.1858436
1.1858324
1.1856948
1.1854506
1.1851176
1.1847121
1.1842482
1.1837385
1.1831939
1.1826241
1.1820371
1.1814401
1.180839
1.1802388
1.1796436
1.179057
1.1784816
1.1779196
1.1773726
1.176842
1.1763284
1.1758323
1.1753539
1.174893
1.1744494
1.1740223
1.173611
1.1732145
1.1728318
1.1724616
1.1721028
1.1717541
1.1714146
1.1710831
1.1707589
1.1704409
1.1701288
1.1698232
1.1695257
1.1692364
1.1689545
1.1686844
1.1684412
1.1682264
1.1679822
1.167631
1.1672453
1.1670417
1.1669357
1.061706
1.1007551
1.0868678
1.1028254
1.10201
1.11043
1.1149895
1.1211588
1.1270028
1.1329653
1.138884
1.1447197
1.1504017
1.1558654
1.1610484
1.1658953
1.1703605
1.1744104
1.1780241
1.1811933
1.1839213
1.1862211
1.1881141
1.1896272
1.1907915
1.1916403
1.1922073
1.192526
1.1926286
1.1925454
1.1923042
1.1919306
1.1914476
1.1908756
1.1902327
1.1895347
1.1887954
1.1880268
1.187239
1.1864408
1.1856396
1.1848416
1.1840518
1.1832745
1.1825131
1.1817704
1.1810484
1.1803488
1.1796725
1.1790204
1.1783927
1.1777896
1.1772107
1.1766557
1.176124
1.1756145
1.1751265
1.1746587
1.1742098
1.1737787
1.1733638
1.1729638
1.1725775
1.1722036
1.1718412
1.1714891
1.1711463
1.1708126
1.1704885
1.1701748
1.1698709
1.1695764
1.1692993
1.169056
1.1688397
1.168585
1.1682314
1.167897
1.1678069
1.1677736
1.0691865
1.1089419
1.0959777
1.1126685
1.1133109
1.1222908
1.1281483
1.135129
1.1418575
1.1485567
1.1550745
1.161337
1.1672575
1.172763
1.1777945
1.18231
1.1862856
1.1897147
1.1926062
1.1949815
1.1968722
1.1983162
1.1993556
1.2000341
1.2003955
1.2004817
1.2003323
1.1999839
1.1994697
1.1988192
1.1980589
1.1972119
1.1962982
1.1953353
1.1943379
1.1933189
1.1922889
1.1912571
1.1902308
1.1892165
1.1882192
1.1872429
1.1862911
1.1853663
1.1844704
1.1836047
1.1827702
1.1819674
1.1811965
1.1804572
1.1797494
1.1790722
1.1784251
1.1778069
1.1772167
1.1766533
1.1761152
1.1756011
1.1751095
1.1746389
1.1741878
1.1737546
1.1733382
1.1729371
1.1725502
1.1721764
1.1718147
1.171465
1.1711277
1.1708029
1.1704892
1.1701877
1.1699097
1.1696706
1.1694538
1.16919
1.1688471
1.1685809
1.1686025
1.1686085
1.0782497
1.1189547
1.1075341
1.1249692
1.1275215
1.1371998
1.1444812
1.1523743
1.1599318
1.1672163
1.1740726
1.1804097
1.1861482
1.191236
1.1956463
1.199377
1.2024462
1.2048888
1.206751
1.2080868
1.2089534
1.2094086
1.2095086
1.2093062
1.2088499
1.2081837
1.2073465
1.2063728
1.2052922
1.2041305
1.2029098
1.2016486
1.2003628
1.1990656
1.197768
1.1964792
1.1952066
1.1939563
1.1927332
1.1915412
1.1903833
1.1892617
1.1881779
1.1871332
1.1861281
1.1851628
1.1842373
1.1833511
1.1825036
1.181694
1.1809213
1.1801845
1.1794823
1.1788133
1.1781761
1.1775692
1.176991
1.1764398
1.1759142
1.1754123
1.1749326
1.1744735
1.1740336
1.1736115
1.1732061
1.1728161
1.1724407
1.17208
1.1717341
1.1714022
1.171083
1.1707797
1.1705057
1.1702731
1.1700567
1.1697891
1.1694666
1.1692768
1.1693983
1.169413
1.0896528
1.1317166
1.1224503
1.1406895
1.1456034
1.1560608
1.1646923
1.1733695
1.1814267
1.1888387
1.1954784
1.201284
1.2062264
1.2103122
1.2135754
1.2160712
1.2178687
1.2190441
1.2196756
1.2198401
1.2196096
1.2190503
1.2182217
1.2171761
1.2159588
1.2146091
1.2131603
1.2116404
1.2100731
1.208478
1.2068715
1.205267
1.2036754
1.2021056
1.2005647
1.1990585
1.1975913
1.1961666
1.1947868
1.1934537
1.1921685
1.1909318
1.1897438
1.1886044
1.1875131
1.1864692
1.1854718
1.1845198
1.1836119
1.1827468
1.181923
1.1811391
1.1803934
1.1796843
1.1790101
1.178369
1.1777593
1.1771793
1.1766271
1.176101
1.1755993
1.1751205
1.1746629
1.1742253
1.1738063
1.1734048
1.1730202
1.1726525
1.1723015
1.171966
1.171645
1.1713439
1.1710769
1.1708511
1.1706349
1.1703699
1.1700802
1.169964
1.1701554
1.1701752
1.1049828
1.1483366
1.1420146
1.1609069
1.1685275
1.1796428
1.1891296
1.1980083
1.2058251
1.2125573
1.2181686
1.2226833
1.2261614
1.2286905
1.2303734
1.2313188
1.2316346
1.2314227
1.2307761
1.2297773
1.2284985
1.2270015
1.2253386
1.2235536
1.2216832
1.2197574
1.2178009
1.2158339
1.2138727
1.2119302
1.2100172
1.2081416
1.2063101
1.2045276
1.2027976
1.201123
1.1995055
1.1979462
1.1964458
1.1950042
1.1936211
1.192296
1.1910279
1.1898157
1.1886581
1.1875537
1.1865009
1.1854981
1.1845435
1.1836355
1.1827722
1.1819518
1.1811724
1.1804323
1.1797294
1.179062
1.1784281
1.1778259
1.1772535
1.1767091
1.176191
1.1756976
1.1752272
1.1747784
1.1743499
1.1739407
1.1735503
1.1731786
1.1728252
1.1724884
1.1721683
1.1718721
1.1716129
1.1713922
1.1711758
1.1709187
1.1706679
1.1706157
1.170848
1.1708705
1.1257197
1.1701184
1.1676601
1.1866359
1.1966591
1.207885
1.2171841
1.2251578
1.2316382
1.2366924
1.2404173
1.2429524
1.2444523
1.2450745
1.2449687
1.244271
1.243101
1.2415616
1.2397397
1.2377072
1.2355235
1.2332366
1.2308857
1.2285021
1.2261107
1.2237313
1.2213796
1.2190676
1.2168047
1.2145981
1.2124531
1.2103735
1.208362
1.2064202
1.204549
1.2027488
1.2010192
1.1993598
1.1977694
1.1962469
1.1947909
1.1933997
1.1920716
1.1908049
1.1895975
1.1884475
1.1873529
1.1863116
1.1853217
1.1843811
1.1834877
1.1826396
1.1818346
1.1810708
1.1803462
1.1796587
1.1790065
1.1783876
1.1778001
1.1772422
1.176712
1.176208
1.1757284
1.1752719
1.174837
1.1744229
1.1740291
1.1736555
1.173301
1.1729643
1.1726468
1.1723563
1.1721038
1.1718854
1.1716686
1.1714238
1.1712123
1.1712075
1.1714509
1.1714679
1.1545124
1.1978589
1.2004696
1.2187644
1.229146
1.2391336
1.2468256
1.2526212
1.2566507
1.2591554
1.2603745
1.2605423
1.25987
1.2585409
1.2567095
1.254503
1.2520245
1.2493566
1.2465646
1.2436999
1.2408028
1.2379043
1.2350284
1.2321935
1.2294136
1.2266988
1.2240568
1.2214931
1.2190112
1.2166134
1.2143011
1.2120745
1.2099335
1.2078773
1.2059047
1.2040142
1.202204
1.2004724
1.1988171
1.1972361
1.1957271
1.1942878
1.192916
1.1916092
1.1903652
1.1891815
1.188056
1.1869862
1.18597
1.185005
1.1840891
1.1832201
1.1823958
1.1816142
1.1808732
1.1801706
1.1795046
1.1788732
1.1782745
1.1777065
1.1771676
1.1766559
1.1761698
1.1757079
1.1752687
1.1748514
1.1744555
1.1740806
1.1737254
1.1733892
1.1730743
1.1727888
1.1725403
1.1723216
1.1721046
1.1718745
1.1716975
1.1717192
1.1719501
1.1719626
1.1939044
1.2333675
1.2392152
1.2547009
1.2639397
1.2709276
1.275359
1.2777871
1.2785768
1.278098
1.2766534
1.2744936
1.2718175
1.2687809
1.2655039
1.2620783
1.2585735
1.255042
1.2515226
1.2480443
1.2446282
1.2412898
1.2380398
1.2348857
1.2318324
1.2288828
1.2260383
1.2232993
1.220665
1.2181344
1.2157057
1.2133768
1.2111455
1.2090093
1.2069655
1.2050114
1.2031442
1.2013612
1.1996595
1.1980364
1.1964891
1.1950148
1.1936108
1.1922745
1.1910032
1.1897944
1.1886455
1.187554
1.1865177
1.185534
1.1846007
1.1837155
1.1828763
1.1820808
1.1813269
1.1806125
1.1799356
1.1792943
1.1786867
1.1781108
1.1775648
1.1770471
1.1765558
1.1760894
1.1756467
1.1752266
1.1748287
1.174452
1.1740956
1.1737591
1.1734458
1.1731627
1.1729147
1.1726932
1.1724765
1.1722615
1.1721114
1.1721391
1.1723368
1.1723532
1.2420582
1.2749403
1.2821907
1.2920922
1.2970486
1.2994085
1.2995673
1.2981811
1.295688
1.2924374
1.2886845
1.2846174
1.2803719
1.2760457
1.2717086
1.2674096
1.2631833
1.2590534
1.2550359
1.251141
1.2473751
1.2437413
1.2402408
1.2368732
1.2336371
1.2305302
1.2275497
1.2246924
1.2219548
1.2193335
1.2168248
1.214425
1.2121305
1.2099376
1.2078429
1.2058427
1.2039337
1.2021126
1.2003759
1.1987206
1.1971436
1.1956418
1.1942123
1.1928521
1.1915586
1.1903289
1.1891605
1.1880508
1.1869973
1.1859975
1.1850492
1.1841499
1.1832974
1.1824896
1.1817241
1.180999
1.1803122
1.1796618
1.1790459
1.1784624
1.1779097
1.177386
1.1768894
1.1764184
1.1759717
1.1755483
1.1751473
1.1747678
1.1744089
1.1740708
1.173757
1.1734731
1.1732218
1.1729948
1.1727769
1.1725734
1.1724415
1.1724651
1.1726228
1.1726383
1.2967181
1.3175927
1.3222042
1.3245962
1.3237941
1.321116
1.317183
1.3124899
1.3073611
1.3020166
1.2966019
1.291213
1.2859122
1.2807394
1.275719
1.2708656
1.2661864
1.2616844
1.257359
1.253208
1.2492275
1.2454129
1.2417591
1.2382608
1.2349124
1.2317085
1.2286437
1.2257126
1.2229101
1.2202313
1.2176713
1.2152256
1.2128896
1.2106591
1.2085301
1.2064985
1.2045605
1.2027125
1.2009509
1.1992724
1.1976735
1.1961513
1.1947025
1.1933242
1.1920135
1.1907676
1.1895839
1.1884597
1.1873925
1.1863799
1.1854194
1.1845087
1.1836455
1.1828275
1.1820527
1.1813188
1.1806238
1.1799657
1.1793427
1.1787528
1.1781942
1.1776651
1.1771638
1.1766887
1.1762384
1.1758118
1.1754077
1.1750249
1.1746627
1.1743219
1.1740057
1.1737187
1.1734617
1.1732277
1.1730072
1.1728105
1.1726883
1.1727027
1.1728232
1.1728343
1.3501388
1.3534782
1.3522489
1.3477419
1.3418496
1.3352037
1.3282735
1.321303
1.3144402
1.3077652
1.3013213
1.2951291
1.2891958
1.2835206
1.2780978
1.2729195
1.2679761
1.2632576
1.2587537
1.2544543
1.2503499
1.2464311
1.2426892
1.2391158
1.2357031
1.2324437
1.2293307
1.2263575
1.2235181
1.2208065
1.2182175
1.2157456
1.2133861
1.2111343
1.2089858
1.2069362
1.2049817
1.2031184
1.2013425
1.1996506
1.1980392
1.196505
1.195045
1.1936561
1.1923354
1.19108
1.1898873
1.1887546
1.1876794
1.1866591
1.1856914
1.184774
1.1839045
1.1830807
1.1823003
1.1815612
1.1808612
1.1801985
1.1795711
1.1789769
1.1784144
1.1778817
1.1773772
1.1768994
1.1764468
1.176018
1.1756116
1.1752258
1.1748599
1.1745148
1.1741943
1.173902
1.1736375
1.1733949
1.1731694
1.1729745
1.1728554
1.1728587
1.1729491
1.1729545
1.3845221
1.3768737
1.3692666
1.3609201
1.3522464
1.3436637
1.3353401
1.3273509
1.319725
1.3124659
1.305565
1.2990079
1.2927771
1.2868547
1.2812228
1.2758644
1.2707634
1.2659048
1.2612748
1.2568604
1.2526499
1.2486324
1.2447977
1.2411367
1.2376407
1.2343017
1.2311123
1.2280657
1.2251554
1.2223753
1.2197198
1.2171836
1.2147616
1.2124491
1.2102417
1.2081349
1.2061249
1.2042076
1.2023794
1.2006367
1.1989761
1.1973943
1.1958882
1.1944547
1.193091
1.1917941
1.1905613
1.1893901
1.1882779
1.1872221
1.1862205
1.1852706
1.1843701
1.1835167
1.1827082
1.1819423
1.1812169
1.18053
1.1798795
1.1792635
1.1786802
1.1781282
1.1776058
1.1771118
1.1766444
1.1762022
1.1757835
1.1753864
1.1750092
1.1746521
1.1743193
1.1740168
1.1737419
1.1734892
1.173257
1.1730597
1.1729394
1.1729326
1.1730059
1.1730143
1.166658
1.1713486
1.1860432
1.1980611
1.2036147
1.204889
1.2049591
1.2046299
1.2046629
1.204371
1.2041185
1.203563
1.2029728
1.2023184
1.201624
1.20089
1.2001194
1.1993181
1.1984908
1.1976419
1.1967753
1.1958945
1.1950028
1.1941031
1.1931982
1.1922903
1.1913817
1.1904745
1.1895704
1.1886712
1.1877784
1.1868937
1.1860183
1.1851536
1.1843009
1.1834614
1.1826363
1.1818267
1.1810339
1.1802588
1.1795027
1.1787666
1.1780516
1.1773588
1.1766891
1.1760437
1.1754235
1.1748296
1.1742627
1.1737239
1.1732139
1.1727336
1.1722834
1.171864
1.1714758
1.1711189
1.1707933
1.1704986
1.1702343
1.1699993
1.1697916
1.1696088
1.169448
1.1693052
1.169176
1.1690544
1.1689362
1.1688098
1.1686822
1.1685141
1.1683731
1.1680949
1.1679768
1.1674286
1.1674936
1.1664981
1.1670376
1.1656314
1.1667528
1.1648167
1.1624417
1.1733625
1.189852
1.1982753
1.2005522
1.2004574
1.1999301
1.1996807
1.1993615
1.1990578
1.1986613
1.1982635
1.1978162
1.1973342
1.1968115
1.1962561
1.1956689
1.1950531
1.1944109
1.1937448
1.193057
1.19235
1.1916259
1.1908871
1.1901358
1.1893742
1.1886045
1.1878286
1.1870486
1.1862665
1.1854842
1.1847035
1.1839263
1.1831542
1.1823889
1.1816321
1.1808853
1.18015
1.1794279
1.1787203
1.1780286
1.1773543
1.1766987
1.1760632
1.1754489
1.1748572
1.1742893
1.1737461
1.1732289
1.1727385
1.1722759
1.1718419
1.1714371
1.171062
1.1707171
1.1704024
1.1701179
1.1698633
1.1696379
1.1694404
1.1692689
1.1691211
1.1689938
1.1688832
1.1687847
1.1686923
1.1686017
1.1685021
1.1683983
1.1682551
1.1681311
1.1678772
1.1677676
1.1672556
1.1673211
1.1663745
1.1669305
1.1655424
1.1667275
1.1647101
1.1629662
1.1764609
1.1883223
1.1947496
1.1957215
1.1952409
1.1947245
1.1944597
1.1941609
1.1938744
1.1935381
1.1931991
1.1928241
1.1924359
1.1920201
1.1915844
1.1911252
1.1906446
1.1901428
1.1896205
1.1890789
1.1885189
1.1879417
1.1873486
1.186741
1.1861204
1.1854883
1.1848463
1.184196
1.1835392
1.1828775
1.1822127
1.1815467
1.180881
1.1802176
1.1795582
1.1789045
1.1782583
1.1776213
1.1769951
1.1763815
1.1757821
1.1751984
1.174632
1.1740844
1.173557
1.1730513
1.1725683
1.1721095
1.1716757
1.1712682
1.1708876
1.1705347
1.1702101
1.1699141
1.1696469
1.1694083
1.1691981
1.1690154
1.168859
1.1687271
1.1686171
1.1685259
1.1684498
1.1683841
1.1683229
1.1682616
1.1681901
1.1681116
1.1679941
1.1678891
1.1676589
1.1675614
1.167082
1.167154
1.166251
1.1668258
1.1654544
1.1666993
1.1646049
1.1606495
1.1751465
1.1859096
1.1906596
1.1904773
1.1900835
1.1896322
1.1894298
1.1891061
1.1888505
1.188533
1.188246
1.1879261
1.18761
1.1872728
1.186927
1.1865655
1.1861909
1.1858016
1.1853975
1.1849785
1.1845447
1.1840962
1.1836334
1.1831568
1.1826671
1.1821653
1.1816521
1.1811288
1.1805967
1.1800569
1.1795111
1.1789607
1.1784072
1.1778524
1.1772979
1.1767455
1.176197
1.175654
1.1751184
1.174592
1.1740765
1.1735738
1.1730854
1.172613
1.1721583
1.1717227
1.1713076
1.1709144
1.1705442
1.1701982
1.1698772
1.1695821
1.1693133
1.1690712
1.1688561
1.1686677
1.1685058
1.1683694
1.1682575
1.1681679
1.1680983
1.1680457
1.168006
1.1679749
1.1679464
1.1679159
1.1678735
1.1678216
1.1677302
1.1676457
1.1674389
1.167356
1.1669067
1.1669903
1.1661262
1.1667237
1.1653673
1.1666684
1.1644999
1.1548991
1.171468
1.1813929
1.1849567
1.1843888
1.1843034
1.1839342
1.183872
1.183623
1.1834862
1.1832598
1.1830821
1.1828599
1.1826513
1.1824196
1.1821833
1.1819322
1.1816703
1.1813954
1.1811075
1.1808065
1.180492
1.1801641
1.1798228
1.1794685
1.1791014
1.178722
1.178331
1.1779291
1.1775171
1.1770962
1.1766673
1.1762318
1.175791
1.1753462
1.1748991
1.1744513
1.1740044
1.1735601
1.1731203
1.1726867
1.1722611
1.1718454
1.1714413
1.1710505
1.1706747
1.1703155
1.1699744
1.1696529
1.1693521
1.1690732
1.1688171
1.1685847
1.1683766
1.168193
1.1680341
1.1678999
1.1677898
1.1677031
1.1676385
1.1675941
1.1675673
1.1675552
1.1675539
1.167559
1.1675647
1.1675661
1.1675539
1.1675295
1.1674651
1.1674019
1.1672189
1.1671521
1.1667318
1.1668299
1.1660021
1.1666238
1.1652811
1.1666346
1.1643948
1.1487163
1.1678159
1.1763338
1.1792593
1.1785368
1.1787129
1.1783881
1.1784664
1.1782828
1.1782597
1.1781154
1.1780408
1.1779089
1.1777996
1.1776638
1.1775267
1.1773743
1.1772128
1.1770397
1.1768551
1.176659
1.1764511
1.1762313
1.1759995
1.1757558
1.1755002
1.1752331
1.1749548
1.1746657
1.1743663
1.1740576
1.1737401
1.173415
1.1730833
1.1727462
1.1724051
1.1720613
1.1717164
1.171372
1.1710299
1.1706916
1.170359
1.1700339
1.1697179
1.1694129
1.1691205
1.1688424
1.16858
1.1683347
1.168108
1.1679008
1.1677142
1.1675488
1.1674054
1.1672842
1.1671853
1.1671087
1.1670536
1.1670195
1.167005
1.1670081
1.1670263
1.1670566
1.1670954
1.167138
1.167179
1.1672134
1.1672323
1.167236
1.1671992
1.1671585
1.1669997
1.1669497
1.1665582
1.1666722
1.1658794
1.1665261
1.165196
1.1665986
1.1642897
1.14334
1.1643269
1.1713251
1.1739547
1.1731286
1.1735109
1.1731934
1.1733842
1.1732401
1.1733069
1.1732258
1.1732392
1.1731829
1.1731523
1.1730911
1.173034
1.1729631
1.1728862
1.1727998
1.1727044
1.1725994
1.1724845
1.1723595
1.1722242
1.1720784
1.1719222
1.1717557
1.1715788
1.171392
1.1711956
1.1709901
1.170776
1.1705542
1.1703255
1.170091
1.1698516
1.1696087
1.1693636
1.1691178
1.1688727
1.16863
1.1683913
1.1681583
1.1679326
1.1677158
1.1675097
1.1673157
1.1671354
1.16697
1.1668209
1.1666891
1.1665755
1.1664808
1.1664056
1.1663501
1.1663144
1.1662983
1.1663012
1.1663222
1.16636
1.1664127
1.1664778
1.1665522
1.1666324
1.1667138
1.1667911
1.1668593
1.1669099
1.1669423
1.1669331
1.1669163
1.1667825
1.1667491
1.1663868
1.1665175
1.1657589
1.1664304
1.165112
1.1665608
1.1641845
1.1383324
1.1611771
1.1666227
1.1691367