/*--------------------------------*- C++ -*----------------------------------*\
  =========                 |
  \\      /  F ield         | OpenFOAM: The Open Source CFD Toolbox
   \\    /   O peration     | Website:  https://openfoam.org
    \\  /    A nd           | Version:  12
     \\/     M anipulation  |
\*---------------------------------------------------------------------------*/
FoamFile
{
    format      ascii;
    class       volScalarField;
    location    "450";
    object      alphat;
}
// * * * * * * * * * * * * * * * * * * * * * * * * * * * * * * * * * * * * * //

dimensions      [1 -1 -1 0 0 0 0];

internalField   nonuniform List<scalar> 
16200
(
0.0004867173361
0.001651486162
0.002750181964
0.003612471406
0.003898087877
0.003455959433
0.00256016904
0.0014204248
0.0007215820483
0.0002267217469
7.004108326e-06
2.774025671e-06
2.511573792e-06
2.450645869e-06
1.929231048e-06
1.659876316e-06
1.445839423e-06
1.296346911e-06
1.201246792e-06
1.141739452e-06
1.109564376e-06
1.101297191e-06
1.113476463e-06
1.144019032e-06
1.192470997e-06
1.260278777e-06
1.351187784e-06
1.471995026e-06
1.634052006e-06
1.856190753e-06
2.170138682e-06
2.630918571e-06
3.337370822e-06
4.475009425e-06
6.412012463e-06
9.917114299e-06
1.665574594e-05
3.031159916e-05
5.914484271e-05
0.0001218764564
0.0002614297104
0.000577109989
0.001165041658
0.001166140332
0.001166263376
0.001165517118
0.001164607514
0.001164359301
0.001164363113
0.001164447282
0.001164545085
0.001164634614
0.001164712199
0.001164781627
0.001164848843
0.001164923355
0.001165012238
0.001165138818
0.001165301567
0.001165582784
0.0004759583614
0.001602825237
0.002640468466
0.003404529142
0.003528478
0.002969990178
0.00208960626
0.001043519031
0.0005748487506
4.920843469e-05
2.868722347e-06
2.31826202e-06
2.108924921e-06
2.074978943e-06
1.712891229e-06
1.470205152e-06
1.277333266e-06
1.142847262e-06
1.059296223e-06
1.00848726e-06
9.825782381e-07
9.78103975e-07
9.917689556e-07
1.0215659e-06
1.067091359e-06
1.129732967e-06
1.213074437e-06
1.323632929e-06
1.472240318e-06
1.676589225e-06
1.965911902e-06
2.390170757e-06
3.038605272e-06
4.078486213e-06
5.841419014e-06
9.019086855e-06
1.510872058e-05
2.742132481e-05
5.337542696e-05
0.0001097750438
0.0002351195168
0.0005184478616
0.001164856397
0.001166006546
0.001166181293
0.001165546018
0.001164619797
0.001164365279
0.001164367981
0.001164453259
0.001164552829
0.001164644022
0.001164722945
0.001164793115
0.001164860857
0.001164934899
0.001165023557
0.001165148701
0.001165311384
0.001165595913
0.0004667612189
0.001557713919
0.002535854064
0.003201130142
0.003166226091
0.002516158211
0.001633875859
0.0007663014408
0.0003953360913
1.514274782e-05
2.188667271e-06
1.940939928e-06
1.770847974e-06
1.737495734e-06
1.509592632e-06
1.292934169e-06
1.121166044e-06
1.001563709e-06
9.291139018e-07
8.86419118e-07
8.660867597e-07
8.646028422e-07
8.788108405e-07
9.067886157e-07
9.48230015e-07
1.004594108e-06
1.079514205e-06
1.179500027e-06
1.315169323e-06
1.503425527e-06
1.771471483e-06
2.164922387e-06
2.764631217e-06
3.721993157e-06
5.337114131e-06
8.235303839e-06
1.376792279e-05
2.491808522e-05
4.835170389e-05
9.912754892e-05
0.0002116407162
0.0004652500452
0.001044611399
0.001165935743
0.001166128016
0.0011655792
0.001164640932
0.001164379548
0.001164379218
0.001164463658
0.001164563417
0.001164655142
0.001164734624
0.001164805104
0.001164873039
0.001164946607
0.001165034933
0.001165158856
0.001165321494
0.001165609453
0.0004598196609
0.001516288627
0.002433327292
0.002970085124
0.002798758145
0.002100890891
0.001172593339
0.0005640142884
0.0002028617573
5.94998491e-06
1.820051821e-06
1.640244534e-06
1.501460124e-06
1.469275373e-06
1.332300699e-06
1.138106068e-06
9.848039147e-07
8.784467369e-07
8.157400199e-07
7.801030176e-07
7.644782163e-07
7.652987688e-07
7.795654745e-07
8.055698548e-07
8.432729046e-07
8.944019432e-07
9.628287386e-07
1.055235504e-06
1.182222396e-06
1.360195412e-06
1.614897965e-06
1.988771946e-06
2.55661799e-06
3.458672626e-06
4.973512639e-06
7.681822284e-06
1.283797457e-05
2.320825717e-05
4.496453386e-05
9.202319312e-05
0.0001961052457
0.0004302723584
0.0009642539273
0.001165940118
0.001166115239
0.001165616287
0.001164672976
0.001164404732
0.001164399234
0.001164480432
0.001164578336
0.00116466906
0.001164748
0.001164818094
0.001164885736
0.001164958684
0.001165046496
0.001165169314
0.001165331767
0.001165622697
0.0004536598067
0.001477512907
0.002333398175
0.00273477693
0.002440009143
0.001741228877
0.0008384212633
0.000433123424
5.14182604e-05
2.172232775e-06
1.533008184e-06
1.389389028e-06
1.276585216e-06
1.24670839e-06
1.17147384e-06
9.983229265e-07
8.623703873e-07
7.685021178e-07
7.147003578e-07
6.852570125e-07
6.735164167e-07
6.759945044e-07
6.899891299e-07
7.141546565e-07
7.488124908e-07
7.960151162e-07
8.599142632e-07
9.474003497e-07
1.069091432e-06
1.240981409e-06
1.487614547e-06
1.848873751e-06
2.394713587e-06
3.256544514e-06
4.696188594e-06
7.25986428e-06
1.212674395e-05
2.189329854e-05
4.234062519e-05
8.647155761e-05
0.0001838506494
0.0004024143831
0.0008996585856
0.001166002137
0.001166134032
0.001165656992
0.001164713596
0.001164438345
0.001164425958
0.001164502017
0.001164596472
0.001164685002
0.001164762562
0.001164831742
0.001164898747
0.001164970978
0.001165058202
0.001165180041
0.001165342306
0.001165636035
0.0004479311154
0.001440360627
0.002233649362
0.002497355763
0.002089649762
0.001384307382
0.0006225455742
0.0003054937942
1.788948679e-05
1.592472639e-06
1.299914933e-06
1.182833285e-06
1.090921392e-06
1.063263632e-06
1.027870601e-06
8.734180845e-07
7.529441738e-07
6.703297178e-07
6.243614134e-07
6.002744297e-07
5.918798367e-07
5.958772038e-07
6.099053728e-07
6.329873692e-07
6.657853446e-07
7.106953283e-07
7.722089136e-07
8.574766187e-07
9.771708408e-07
1.146987802e-06
1.390615284e-06
1.7461133e-06
2.279951094e-06
3.117260381e-06
4.508281922e-06
6.975885549e-06
1.164829596e-05
2.100583414e-05
4.055898374e-05
8.266977051e-05
0.000175372644
0.000382927558
0.0008539741902
0.001166112717
0.001166180964
0.001165698548
0.001164760779
0.001164479083
0.0011644586
0.001164527961
0.001164617582
0.001164702846
0.001164778261
0.001164846033
0.001164912087
0.001164983493
0.001165070071
0.001165191039
0.001165353105
0.001165649389
0.000442166306
0.001403797885
0.00213187578
0.002248359837
0.001755429888
0.00101464942
0.0004663121278
0.0001848989019
6.689660793e-06
1.313671672e-06
1.105976304e-06
1.009069113e-06
9.336351249e-07
9.081142647e-07
8.969235468e-07
7.597682895e-07
6.537511874e-07
5.819478627e-07
5.435025572e-07
5.246409886e-07
5.196389145e-07
5.254018839e-07
5.399199833e-07
5.626151852e-07
5.945453051e-07
6.383573405e-07
6.992549225e-07
7.844726047e-07
9.047011725e-07
1.075388757e-06
1.320142754e-06
1.675020128e-06
2.204367839e-06
3.028893372e-06
4.39098624e-06
6.798177582e-06
1.134513741e-05
2.043415317e-05
3.938950721e-05
8.012242125e-05
0.0001695699103
0.0003693100538
0.000821428208
0.001166259237
0.00116624982
0.001165739917
0.001164812667
0.00116452527
0.001164495897
0.001164557392
0.001164641095
0.001164722235
0.001164794887
0.001164860844
0.001164925698
0.001164996196
0.001165082104
0.001165202302
0.001165364191
0.001165662822
0.0004356551103
0.001366270136
0.002025161519
0.001991082717
0.001453669815
0.0007348854618
0.0003604179464
6.825846549e-05
2.51072003e-06
1.105190904e-06
9.413061656e-07
8.608470524e-07
7.989561017e-07
7.76047018e-07
7.784149691e-07
6.577333788e-07
5.655373715e-07
5.042802111e-07
4.731318803e-07
4.593124498e-07
4.575616162e-07
4.650442316e-07
4.80180548e-07
5.028988129e-07
5.345959611e-07
5.788374546e-07
6.406626788e-07
7.276545001e-07
8.505346095e-07
1.024647174e-06
1.272786363e-06
1.631809807e-06
2.163121008e-06
2.985051975e-06
4.335387627e-06
6.713329685e-06
1.119530066e-05
2.013918945e-05
3.875772369e-05
7.867962942e-05
0.0001661282174
0.0003608834672
0.000800524108
0.001166430705
0.001166334936
0.001165779815
0.001164867471
0.001164575364
0.001164536716
0.001164589544
0.001164666522
0.001164742873
0.00116481227
0.001164876086
0.001164939543
0.001165009069
0.001165094304
0.001165213831
0.001165375572
0.001165676338
0.0004283672409
0.001325808834
0.001893253071
0.00173081221
0.001176537089
0.0005451054274
0.0002752354252
3.504384874e-05
1.491626748e-06
9.355376914e-07
8.04864196e-07
7.373681764e-07
6.864561229e-07
6.661952043e-07
6.747469575e-07
5.689890218e-07
4.89340574e-07
4.377552188e-07
4.131583033e-07
4.037573065e-07
4.047992232e-07
4.137924356e-07
4.294664447e-07
4.526853743e-07
4.852859016e-07
5.30876485e-07
5.949017005e-07
6.850719132e-07
8.12174927e-07
9.915965477e-07
1.246127555e-06
1.612249647e-06
2.15077421e-06
2.978425222e-06
4.331020124e-06
6.705151977e-06
1.117150893e-05
2.007100406e-05
3.856550676e-05
7.81377412e-05
0.00016460792
0.0003566721391
0.0007890546262
0.001166617041
0.001166430721
0.001165817641
0.001164923739
0.001164627972
0.001164579978
0.00116462366
0.001164693368
0.001164764453
0.001164830234
0.001164891663
0.001164953581
0.001165022094
0.001165106673
0.001165225629
0.001165387262
0.001165689957
0.0004200593234
0.00128179462
0.001740066917
0.00147376713
0.0008716116061
0.0004089333238
0.000194752951
1.826958795e-05
1.136898814e-06
7.956730421e-07
6.907576131e-07
6.339000749e-07
5.919071139e-07
5.742699674e-07
5.842746741e-07
4.919094437e-07
4.235317611e-07
3.806967938e-07
3.618814089e-07
3.563075927e-07
3.597922777e-07
3.700659137e-07
3.869984747e-07
4.113040369e-07
4.454194616e-07
4.932840021e-07
5.605154601e-07
6.549335871e-07
7.874646732e-07
9.736909748e-07
1.236630526e-06
1.61277517e-06
2.162931263e-06
3.003339275e-06
4.370108867e-06
6.762148242e-06
1.12552008e-05
2.019683405e-05
3.875031655e-05
7.836974697e-05
0.0001647391037
0.0003560836649
0.000785690184
0.001166809851
0.001166532207
0.001165853006
0.001164980274
0.001164681899
0.001164624734
0.001164659066
0.001164721186
0.001164786698
0.001164848617
0.001164907491
0.001164967775
0.001165035256
0.001165119214
0.001165237703
0.001165399268
0.001165703689
0.0004105771828
0.001233676994
0.001574026415
0.001229048275
0.0006297827799
0.000312689111
0.0001276887147
1.20908378e-05
9.299310683e-07
6.778016253e-07
5.93701809e-07
5.454849258e-07
5.107225674e-07
4.954689215e-07
5.039856696e-07
4.239134487e-07
3.659833261e-07
3.313612189e-07
3.179033994e-07
3.158505943e-07
3.21380611e-07
3.334754063e-07
3.518161116e-07
3.777360736e-07
4.140222427e-07
4.648601946e-07
5.36030897e-07
6.354929126e-07
7.743824488e-07
9.686099553e-07
1.241611594e-06
1.630208542e-06
2.195684629e-06
3.054761498e-06
4.445786345e-06
6.874234443e-06
1.143022251e-05
2.048834819e-05
3.925827079e-05
7.926635254e-05
0.0001662893983
0.000358607269
0.0007892819672
0.001167002368
0.001166635105
0.001165885797
0.001165036159
0.001164736161
0.001164670179
0.001164695177
0.001164749582
0.001164809358
0.001164867273
0.001164923493
0.001164982092
0.001165048543
0.001165131931
0.001165250064
0.001165411598
0.001165717543
0.0003997484948
0.00118056178
0.001402507492
0.0009879452926
0.0004722557149
0.0002443084754
6.108883177e-05
6.555885028e-06
7.570492001e-07
5.790254776e-07
5.107727979e-07
4.695426454e-07
4.404658269e-07
4.273470547e-07
4.327268859e-07
3.640414159e-07
3.159225656e-07
2.890773124e-07
2.80625487e-07
2.815917173e-07
2.895375929e-07
3.032719693e-07
3.232113811e-07
3.511455812e-07
3.900934598e-07
4.444103197e-07
5.200473079e-07
6.251531932e-07
7.711355424e-07
9.743342581e-07
1.25876383e-06
1.661842711e-06
2.245742858e-06
3.128514669e-06
4.552465126e-06
7.033406864e-06
1.168408464e-05
2.092415477e-05
4.004943515e-05
8.074761563e-05
0.0001690902711
0.0003638742939
0.0007990027662
0.001167189425
0.001166735878
0.001165916034
0.001165090712
0.001164789976
0.001164715651
0.001164731503
0.001164778221
0.001164832222
0.001164886078
0.001164939601
0.001164996503
0.001165061949
0.00116514483
0.001165262715
0.001165424261
0.001165731524
0.0003873289739
0.001120369002
0.001224960524
0.0007498744702
0.0003630198108
0.0001879363679
3.03050459e-05
3.255936617e-06
6.16262762e-07
4.951869589e-07
4.394845632e-07
4.044798753e-07
3.802475246e-07
3.692939362e-07
3.709142576e-07
3.125816211e-07
2.734093891e-07
2.535893105e-07
2.495182992e-07
2.53330323e-07
2.633539307e-07
2.787141569e-07
3.004260542e-07
3.306601312e-07
3.726263059e-07
4.30802592e-07
5.11299554e-07
6.225053437e-07
7.761615223e-07
9.891151786e-07
1.286093834e-06
1.705342051e-06
2.310276903e-06
3.221033577e-06
4.685432247e-06
7.233024669e-06
1.200661611e-05
2.14871335e-05
4.10922866e-05
8.275104089e-05
0.0001730107735
0.0003715992448
0.0008142128183
0.001167367264
0.001166831713
0.001165943833
0.001165143449
0.001164842748
0.001164760627
0.001164767646
0.001164806827
0.001164855112
0.001164904925
0.001164955761
0.001165010986
0.001165075466
0.001165157914
0.00116527565
0.001165437259
0.00116574564
0.0003736847078
0.001052168373
0.001045412997
0.0005602807778
0.000285828016
0.0001411643515
1.845398292e-05
1.802306375e-06
5.090487833e-07
4.243570862e-07
3.798047232e-07
3.499339439e-07
3.296274404e-07
3.205434481e-07
3.181702107e-07
2.690153246e-07
2.378418377e-07
2.241993456e-07
2.23506079e-07
2.301095838e-07
2.419372759e-07
2.589936025e-07
2.826832858e-07
3.154541703e-07
3.607032492e-07
4.230266203e-07
5.086800702e-07
6.263249311e-07
7.881053968e-07
1.011440157e-06
1.321956323e-06
1.758698962e-06
2.38687279e-06
3.329309762e-06
4.840775166e-06
7.467693671e-06
1.23897589e-05
2.216404558e-05
4.2362937e-05
8.522997208e-05
0.0001779541092
0.0003815722855
0.0008344431626
0.001167533316
0.001166920465
0.001165969347
0.001165194049
0.001164894039
0.001164804709
0.001164803294
0.001164835179
0.001164877882
0.001164923729
0.001164971928
0.001165025521
0.001165089092
0.001165171188
0.001165288856
0.001165450588
0.001165759896
0.0003597814395
0.0009783179594
0.0008519479362
0.0004317236874
0.0002320678017
0.0001024380587
1.298431456e-05
1.051172246e-06
4.250278238e-07
3.641094135e-07
3.285616999e-07
3.03345472e-07
2.861678943e-07
2.787376268e-07
2.726796584e-07
2.319372318e-07
2.081089555e-07
1.999630003e-07
2.024548362e-07
2.11140609e-07
2.246009389e-07
2.434231393e-07
2.692864803e-07
3.048150619e-07
3.535446293e-07
4.202059183e-07
5.112218636e-07
6.355464097e-07
8.057882876e-07
1.039995909e-06
1.364694013e-06
1.820184226e-06
2.473467147e-06
3.450799326e-06
5.015236368e-06
7.733016466e-06
1.282710754e-05
2.294463411e-05
4.384329054e-05
8.814967416e-05
0.0001838490641
0.0003936401089
0.000859352307
0.001167685976
0.001167000573
0.001165992752
0.001165242316
0.001164943544
0.001164847604
0.001164838212
0.001164863107
0.001164900419
0.001164942422
0.001164988066
0.001165040096
0.001165102825
0.001165184657
0.001165302328
0.001165464231
0.001165774292
0.0003462257857
0.000896857333
0.0006938781828
0.0003537991097
0.0001958870314
5.717514323e-05
8.169891923e-06
6.638310216e-07
3.570039121e-07
3.116876679e-07
2.829995378e-07
2.623765686e-07
2.48213603e-07
2.424930532e-07
2.334924092e-07
2.00599003e-07
1.835155699e-07
1.798319591e-07
1.853416824e-07
1.95788777e-07
2.108230801e-07
2.314870407e-07
2.596709464e-07
2.981311354e-07
3.50469502e-07
4.215642279e-07
5.180644265e-07
6.492308289e-07
8.281770345e-07
1.073637081e-06
1.41311504e-06
1.888312229e-06
2.568305646e-06
3.583367418e-06
5.206130055e-06
8.025453763e-06
1.331365871e-05
2.382114273e-05
4.552006973e-05
9.148527767e-05
0.0001906455305
0.000407695965
0.0008887036678
0.001167824387
0.001167070967
0.001166014219
0.001165288152
0.001164991067
0.001164889107
0.001164872227
0.001164890481
0.001164922637
0.00116496095
0.001165004148
0.0011650547
0.001165116667
0.001165198325
0.001165316067
0.001165478177
0.001165788827
0.0003356233766
0.0008069144766
0.0005665069035
0.0002992251278
0.0001652475189
3.183106283e-05
3.942391554e-06
4.61170125e-07
3.02388376e-07
2.673261697e-07
2.441090558e-07
2.270076336e-07
2.157555696e-07
2.115553976e-07
2.002659586e-07
1.745314017e-07
1.634866009e-07
1.638693393e-07
1.715300734e-07
1.835334169e-07
2.00165195e-07
2.227595191e-07
2.533797768e-07
2.948451296e-07
3.508444386e-07
4.264025953e-07
5.284428171e-07
6.665530355e-07
8.543712742e-07
1.1113786e-06
1.466110365e-06
1.961819816e-06
2.669913309e-06
3.725243487e-06
5.411270366e-06
8.342201781e-06
1.384558887e-05
2.478788873e-05
4.738395351e-05
9.521996374e-05
0.0001983105571
0.0004236708466
0.0009223455408
0.001167948255
0.00116713098
0.001166033917
0.001165331532
0.001165036497
0.001164929087
0.001164905223
0.001164917211
0.001164944472
0.001164979275
0.001165020154
0.001165069327
0.001165130617
0.001165212191
0.00116533007
0.001165492424
0.001165803498
0.0003311463045
0.0007116141563
0.000472199291
0.0002522551115
0.0001350675312
1.918835238e-05
1.916420262e-06
3.421850463e-07
2.580632125e-07
2.301387384e-07
2.11115517e-07
1.968520419e-07
1.877609558e-07
1.850821541e-07
1.722668455e-07
1.531006742e-07
1.470850207e-07
1.511038971e-07
1.605188483e-07
1.739806569e-07
1.922432054e-07
2.16839449e-07
2.499571255e-07
2.944123032e-07
3.540673471e-07
4.34088347e-07
5.416791402e-07
6.867871817e-07
8.835881161e-07
1.152349919e-06
1.52273551e-06
2.039644548e-06
2.777065893e-06
3.874980746e-06
5.628909695e-06
8.681091169e-06
1.442007608e-05
2.584092723e-05
4.942890617e-05
9.934355706e-05
0.0002068252941
0.0004415266908
0.000960195749
0.00116805769
0.00116718026
0.001166052004
0.001165372486
0.001165079788
0.001164967471
0.001164937124
0.001164943235
0.00116496588
0.001164997367
0.00116503607
0.001165083973
0.001165144677
0.001165226256
0.001165344334
0.001165506962
0.001165818301
0.0003358754571
0.0006154343353
0.0003874787479
0.0002175708352
0.0001072998317
1.276742066e-05
9.43320842e-07
2.682892869e-07
2.20691802e-07
1.980846904e-07
1.824682992e-07
1.706965353e-07
1.634966923e-07
1.623197052e-07
1.489492195e-07
1.358595498e-07
1.344672013e-07
1.410255754e-07
1.519133636e-07
1.667865849e-07
1.867008289e-07
2.133257968e-07
2.489176472e-07
2.963291294e-07
3.596044467e-07
4.440673639e-07
5.571869306e-07
7.093067579e-07
9.151554277e-07
1.195837072e-06
1.582200721e-06
2.120908726e-06
2.888765203e-06
4.031419167e-06
5.85768287e-06
9.040499363e-06
1.503515358e-05
2.697778939e-05
5.165167728e-05
0.0001038515154
0.000216182853
0.0004612516977
0.001002231225
0.001168153087
0.001167218694
0.001166068626
0.00116541108
0.001165120944
0.001165004228
0.00116496789
0.001164968514
0.001164986831
0.00116501521
0.001165051887
0.001165098635
0.001165158848
0.001165240526
0.001165358862
0.001165521776
0.001165833236
0.0003512252116
0.0005258643495
0.0003320027265
0.0001957555962
6.279467738e-05
8.661300761e-06
4.961992816e-07
2.185227339e-07
1.889483319e-07
1.705459367e-07
1.5782273e-07
1.482946843e-07
1.428654757e-07
1.430395251e-07
1.300225128e-07
1.224129462e-07
1.247851965e-07
1.332012041e-07
1.453634819e-07
1.616075051e-07
1.831739702e-07
2.118106443e-07
2.498130277e-07
3.001580551e-07
3.669955088e-07
4.558531726e-07
5.744562868e-07
7.335727418e-07
9.485063262e-07
1.241236349e-06
1.643857911e-06
2.204903464e-06
3.004218248e-06
4.193656554e-06
6.096564449e-06
9.419282462e-06
1.5689592e-05
2.81972616e-05
5.405135898e-05
0.0001087439928
0.0002263862586
0.0004828557515
0.001048477928
0.001168235025
0.00116724634
0.001166083918
0.001165447409
0.001165160003
0.001165039361
0.001164997506
0.001164993029
0.001165007309
0.001165032792
0.0011650676
0.001165113312
0.001165173132
0.001165255009
0.001165373658
0.00116553684
0.001165848293
0.0003752246545
0.0004958875939
0.0002949662341
0.0001786365443
3.396526243e-05
3.628599946e-06
2.944475566e-07
1.830339139e-07
1.62676223e-07
1.475539673e-07
1.371778751e-07
1.295483533e-07
1.257354428e-07
1.269431585e-07
1.150746072e-07
1.120639581e-07
1.17419764e-07
1.2721858e-07
1.405389093e-07
1.581265362e-07
1.813294764e-07
2.119375944e-07
2.522964398e-07
3.055235318e-07
3.758474347e-07
4.690268416e-07
5.930528741e-07
7.591332869e-07
9.831721252e-07
1.288058114e-06
1.70719013e-06
2.291072774e-06
3.122814731e-06
4.361017538e-06
6.344825635e-06
9.816712547e-06
1.638280132e-05
2.949921898e-05
5.662907875e-05
0.0001140252335
0.0002374471798
0.0005063676437
0.001099004418
0.0011683042
0.001167263368
0.001166098008
0.00116548158
0.00116519703
0.001165072897
0.001165025977
0.001165016777
0.001165027306
0.001165050107
0.001165083206
0.001165128005
0.001165187531
0.001165269708
0.00116538874
0.001165552132
0.001165863453
0.0004040431151
0.0004391866236
0.0002686318451
0.0001605248016
1.865284038e-05
1.406557618e-06
2.020256568e-07
1.56183208e-07
1.410028071e-07
1.284430235e-07
1.199165757e-07
1.139751587e-07
1.114546936e-07
1.128266478e-07
1.035318514e-07
1.044873907e-07
1.118175031e-07
1.227240568e-07
1.371516201e-07
1.560693271e-07
1.80878048e-07
2.134078006e-07
2.560671531e-07
3.120894703e-07
3.858146366e-07
4.832295856e-07
6.126102081e-07
7.856140962e-07
1.01877038e-06
1.335908936e-06
1.771788193e-06
2.378983371e-06
3.244088191e-06
4.533003111e-06
6.601966607e-06
1.023238221e-05
1.711468585e-05
3.088438643e-05
5.938757407e-05
0.0001197027627
0.0002493843083
0.0005318316403
0.001153912506
0.00116836137
0.001167270008
0.001166111012
0.001165513713
0.001165232105
0.001165104879
0.001165053322
0.001165039762
0.001165046823
0.001165067154
0.001165098705
0.001165142713
0.001165202046
0.001165284622
0.001165404058
0.001165567699
0.001165878695
0.0004387328295
0.000409889054
0.000257734325
0.0001397374107
1.100623355e-05
5.128041096e-07
1.578271913e-07
1.346354531e-07
1.227032782e-07
1.122441201e-07
1.053828961e-07
1.008338315e-07
9.939300041e-08
9.944185308e-08
9.483521383e-08
9.88876756e-08
1.075759264e-07
1.194573663e-07
1.349714398e-07
1.551972266e-07
1.815648488e-07
2.159533532e-07
2.608398783e-07
3.195621621e-07
3.965986056e-07
4.981618316e-07
6.328278484e-07
8.127144949e-07
1.055000205e-06
1.384485913e-06
1.837344085e-06
2.468316989e-06
3.367706876e-06
4.709279144e-06
6.86770082e-06
1.06661807e-05
1.788560347e-05
3.235426038e-05
6.233102815e-05
0.0001257870195
0.0002622225089
0.0005593055116
0.001169412022
0.001168407327
0.001167266512
0.001166123036
0.00116554393
0.001165265316
0.001165135362
0.001165079571
0.001165061997
0.001165065865
0.001165083934
0.001165114097
0.001165157435
0.001165216677
0.001165299749
0.001165419586
0.001165583566
0.001165893998
0.0004763260337
0.0004020602013
0.0002561000535
9.480461061e-05
5.422886663e-06
2.131699777e-07
1.323854904e-07
1.166138777e-07
1.069925227e-07
9.857717588e-08
9.293809775e-08
8.962008038e-08
8.926170523e-08
8.901169076e-08
8.847193592e-08
9.469099394e-08
1.044271913e-07
1.172208324e-07
1.337988183e-07
1.552923019e-07
1.831572468e-07
2.19331424e-07
2.663619844e-07
3.276924622e-07
4.079513202e-07
5.135802456e-07
6.534676121e-07
8.402024509e-07
1.091636052e-06
1.433569291e-06
1.903642249e-06
2.55886002e-06
3.493461062e-06
4.889660032e-06
7.141932664e-06
1.11182605e-05
1.869631052e-05
3.391100733e-05
6.546486446e-05
0.0001322909162
0.0002759918426
0.0005888583094
0.001169493668
0.00116844287
0.001167253112
0.00116613418
0.00116557235
0.001165296758
0.001165164407
0.001165104758
0.001165083502
0.001165084441
0.001165100452
0.001165129385
0.001165172173
0.001165231424
0.001165315085
0.001165435313
0.001165599727
0.00116590934
0.0005334045402
0.0004111993453
0.0002601789162
4.67382886e-05
1.47212258e-06
1.352050384e-07
1.140292514e-07
1.01732634e-07
9.380511987e-08
8.682342499e-08
8.233895598e-08
8.022173704e-08
8.094139691e-08
8.123349017e-08
8.393451303e-08
9.160784569e-08
1.021835986e-07
1.158473023e-07
1.334518376e-07
1.561571087e-07
1.854509131e-07
2.233333587e-07
2.724248033e-07
3.362749223e-07
4.19671702e-07
5.292895557e-07
6.743413686e-07
8.678978795e-07
1.128505608e-06
1.482994301e-06
1.970524463e-06
2.650460357e-06
3.621209979e-06
5.074042873e-06
7.424673374e-06
1.158892422e-05
1.954779845e-05
3.555720953e-05
6.879532371e-05
0.0001392290921
0.0002907261887
0.0006205677964
0.001169562052
0.001168468802
0.001167229986
0.001166144532
0.001165599093
0.001165326526
0.001165192079
0.001165128922
0.001165104298
0.001165102561
0.001165116713
0.001165144569
0.001165186924
0.001165246288
0.001165330621
0.001165451222
0.001165616181
0.001165924694
0.0005896233194
0.0004116156013
0.0002580965661
2.220372666e-05
3.565369273e-07
1.111815871e-07
9.954582371e-08
8.93645283e-08
8.264805503e-08
7.689481706e-08
7.349522205e-08
7.253811089e-08
7.429909541e-08
7.570001358e-08
8.073230249e-08
8.937918785e-08
1.006874255e-07
1.151798219e-07
1.337613081e-07
1.576140689e-07
1.882695421e-07
2.277827882e-07
2.788548861e-07
3.451419172e-07
4.315994809e-07
5.45137408e-07
6.953058919e-07
8.956677012e-07
1.165485204e-06
1.532646785e-06
2.037885758e-06
2.743023364e-06
3.75087738e-06
5.262401506e-06
7.716031527e-06
1.207860764e-05
2.044126002e-05
3.729579283e-05
7.23293007e-05
0.0001466175337
0.0003064623476
0.0006545183279
0.001169618175
0.001168485926
0.001167197233
0.001166154175
0.00116562427
0.001165354712
0.001165218441
0.001165152105
0.001165124408
0.001165120237
0.001165132722
0.001165159652
0.001165201687
0.001165261264
0.001165346347
0.001165467298
0.001165632922
0.001165940028
0.0006459080496
0.0004075471392
0.0002464258984
1.125550851e-05
1.474224772e-07
9.660536014e-08
8.750195433e-08
7.903228315e-08
7.328636811e-08
6.859180547e-08
6.623442982e-08
6.640049196e-08
6.913835775e-08
7.190039588e-08
7.846419983e-08
8.781830166e-08
9.979885015e-08
1.150747535e-07
1.345777948e-07
1.595139716e-07
1.914655597e-07
2.325364222e-07
2.855138043e-07
3.541628952e-07
4.436136127e-07
5.610146637e-07
7.162639288e-07
9.234279419e-07
1.202504166e-06
1.582470223e-06
2.105684921e-06
2.836526193e-06
3.882470392e-06
5.454810514e-06
8.016242926e-06
1.25879164e-05
2.137813364e-05
3.913007382e-05
7.607437309e-05
0.0001544735165
0.0003232397012
0.0006907996648
0.001169662967
0.001168495055
0.001167164715
0.00116616318
0.001165647985
0.001165381406
0.001165243558
0.001165174346
0.001165143856
0.001165137482
0.001165148484
0.001165174633
0.001165216457
0.001165276349
0.001165362249
0.001165483527
0.001165649939
0.001165955307
0.0006800889981
0.0004022988699
0.0002219859994
6.736420319e-06
1.116785231e-07
8.485258031e-08
7.744752904e-08
7.034675118e-08
6.541068808e-08
6.168268777e-08
6.036682423e-08
6.160995765e-08
6.522909254e-08
6.93248006e-08
7.685615273e-08
8.678747062e-08
9.939541865e-08
1.154074601e-07
1.357758646e-07
1.617352357e-07
1.949180736e-07
2.374789105e-07
2.922910863e-07
3.63235556e-07
4.55620023e-07
5.768381943e-07
7.371423896e-07
9.511160424e-07
1.2395109e-06
1.63242441e-06
2.173894287e-06
2.930956793e-06
4.016004974e-06
5.651352505e-06
8.325550818e-06
1.311746173e-05
2.235986056e-05
4.106337327e-05
8.003814404e-05
0.00016281443
0.0003410980236
0.0007295027629
0.00116969728
0.001168496626
0.001167134211
0.001166171614
0.001165670337
0.001165406694
0.00116526749
0.001165195685
0.001165162666
0.00116515431
0.001165164005
0.001165189513
0.001165231232
0.001165291539
0.001165378311
0.001165499893
0.001165667221
0.001165970491
0.0006781932937
0.0004033970791
0.000186546213
2.649467775e-06
9.261512582e-08
7.512888736e-08
6.899166935e-08
6.299749155e-08
5.877371355e-08
5.598340023e-08
5.571843304e-08
5.795437326e-08
6.233002461e-08
6.756023825e-08
7.573172153e-08
8.617424454e-08
9.936866156e-08
1.160699382e-07
1.37250912e-07
1.641789705e-07
1.985307796e-07
2.425209564e-07
2.991054645e-07
3.722886114e-07
4.675573267e-07
5.925575992e-07
7.579021298e-07
9.787037085e-07
1.276488915e-06
1.682505139e-06
2.24252336e-06
3.026342115e-06
4.151538997e-06
5.85215653e-06
8.644250459e-06
1.36679123e-05
2.338794322e-05
4.30990735e-05
8.422826753e-05
0.000171657672
0.000360076982
0.0007707181905
0.00116972191
0.001168490978
0.001167105626
0.001166179533
0.001165691417
0.001165430655
0.001165290298
0.001165216163
0.001165180861
0.001165170731
0.00116517929
0.00116520429
0.001165246004
0.001165306826
0.001165394512
0.001165516378
0.001165684752
0.001165985535
0.0006715085183
0.000407706428
0.0001013797761
9.09601608e-07
7.991743894e-08
6.708636546e-08
6.189316855e-08
5.679329581e-08
5.322235638e-08
5.137013557e-08
5.212803063e-08
5.522392367e-08
6.003084587e-08
6.633158046e-08
7.497731008e-08
8.588797913e-08
9.962892198e-08
1.169742301e-07
1.389191055e-07
1.66765494e-07
2.022275503e-07
2.47592286e-07
3.05894714e-07
3.812676267e-07
4.793797883e-07
6.081346236e-07
7.785134989e-07
1.006169168e-06
1.313424611e-06
1.732707139e-06
2.311575898e-06
3.122697963e-06
4.289112838e-06
6.057325363e-06
8.972594639e-06
1.423986098e-05
2.446374022e-05
4.524027442e-05
8.865183362e-05
0.0001810194926
0.0003802138766
0.0008145315571
0.001169737603
0.001168478403
0.001167078869
0.001166186989
0.001165711306
0.001165453363
0.001165312036
0.001165235815
0.001165198463
0.001165186757
0.001165194342
0.001165218962
0.001165260768
0.001165322202
0.001165410828
0.001165532966
0.00116570251
0.00116600039
0.0006589800486
0.0004085305085
5.631922935e-05
3.470781839e-07
7.053938109e-08
6.040867172e-08
5.591248697e-08
5.154779344e-08
4.861862131e-08
4.771697539e-08
4.941407856e-08
5.32109291e-08
5.848835376e-08
6.546952279e-08
7.45079035e-08
8.585095745e-08
1.001001967e-07
1.180475138e-07
1.40711878e-07
1.694284581e-07
2.059508768e-07
2.526422607e-07
3.126171763e-07
3.901383869e-07
4.910625395e-07
6.235524712e-07
7.989682021e-07
1.033512887e-06
1.350327177e-06
1.783048908e-06
2.381080524e-06
3.220066368e-06
4.428794559e-06
6.266989552e-06
9.310858289e-06
1.483390232e-05
2.558855703e-05
4.748988846e-05
9.331542038e-05
0.000190914855
0.0004015428764
0.0008610210256
0.001169745063
0.001168459121
0.001167053852
0.001166194026
0.001165730081
0.001165474887
0.001165332755
0.001165254676
0.001165215493
0.001165202399
0.001165209165
0.001165233523
0.001165275515
0.001165337655
0.00116542723
0.001165549638
0.001165720465
0.001166015007
0.0006402247171
0.0003993670893
2.759570688e-05
1.565563425e-07
6.308716774e-08
5.488182436e-08
5.089963604e-08
4.713739268e-08
4.486205611e-08
4.489596154e-08
4.739507989e-08
5.173479413e-08
5.744354966e-08
6.487206094e-08
7.425727496e-08
8.600008246e-08
1.007220688e-07
1.192331828e-07
1.425764648e-07
1.721181797e-07
2.096616553e-07
2.576391808e-07
3.192493666e-07