/*--------------------------------*- C++ -*----------------------------------*\
  =========                 |
  \\      /  F ield         | OpenFOAM: The Open Source CFD Toolbox
   \\    /   O peration     | Website:  https://openfoam.org
    \\  /    A nd           | Version:  12
     \\/     M anipulation  |
\*---------------------------------------------------------------------------*/
FoamFile
{
    format      ascii;
    class       volScalarField;
    location    "450";
    object      Ma;
}
// * * * * * * * * * * * * * * * * * * * * * * * * * * * * * * * * * * * * * //

dimensions      [];

internalField   nonuniform List<scalar> 
16200
(
0.5283020914
0.6297142605
0.6868445268
0.7320228154
0.7743250125
0.819190923
0.8687155937
0.9145393547
0.9317915044
0.9323567642
0.9312279088
0.930168166
0.9288649816
0.9274304226
0.9257464681
0.9238235771
0.9215896618
0.9190071278
0.916009045
0.9125309703
0.9084949947
0.9038170541
0.8984057692
0.8921657664
0.8850033664
0.876835968
0.8676059418
0.8573004589
0.8459767749
0.8337884617
0.8210018347
0.8079873904
0.7951785077
0.7830057936
0.7718312228
0.761904356
0.7533503732
0.7461827017
0.7403285527
0.7356577778
0.7320087939
0.7292110571
0.7271004125
0.7255299767
0.7243745551
0.7235322329
0.7229224367
0.7224833734
0.7221684416
0.7219431889
0.7217823401
0.7216675199
0.7215854709
0.7215264444
0.7214836988
0.7214511231
0.7214270291
0.7214052724
0.7213902678
0.7213662154
0.5396551401
0.6440588745
0.702852118
0.7494479167
0.793507796
0.8408139471
0.8921488908
0.9321406973
0.9421668363
0.9419240074
0.9407296723
0.9395862213
0.9381874639
0.9366385113
0.9348156999
0.9327245095
0.930288666
0.9274632618
0.9241753173
0.9203519976
0.9159075872
0.9107494016
0.9047785209
0.8978935199
0.8899979158
0.8810119051
0.870890037
0.8596461012
0.8473831505
0.8343196654
0.8207961993
0.8072469335
0.7941366863
0.7818841798
0.7708020327
0.761071366
0.7527508107
0.7458032032
0.74012725
0.7355831434
0.7320134161
0.7292575244
0.727163201
0.7255935078
0.7244308795
0.7235782363
0.7229579176
0.7225094846
0.7221868934
0.7219556928
0.7217904185
0.7216724461
0.7215882081
0.7215278237
0.7214841122
0.721451279
0.7214265745
0.7214051113
0.7213898051
0.7213645682
0.5507019163
0.6581115939
0.7186051838
0.7667344162
0.8127525414
0.8624849084
0.9148076322
0.9459835161
0.9507115469
0.9498981125
0.9486326736
0.9473918034
0.9458704762
0.9441757408
0.9421803817
0.9398833282
0.9372046976
0.9340916535
0.9304651096
0.9262435638
0.9213332812
0.9156328062
0.909035424
0.9014336082
0.8927289195
0.8828477942
0.8717650694
0.8595353276
0.8463263796
0.8324401063
0.8183013919
0.8044037792
0.791225397
0.7791482172
0.7684125217
0.7591153876
0.7512406521
0.7446981384
0.7393577611
0.7350715774
0.7316877903
0.7290585663
0.727046239
0.7255271255
0.724394321
0.7235584671
0.7229471771
0.7225033542
0.7221830045
0.721952838
0.7217880375
0.7216703168
0.72158626
0.721526104
0.7214825808
0.7214501493
0.7214255106
0.7214045562
0.7213895813
0.7213645825
0.5609437717
0.6711125008
0.7332274817
0.7830896678
0.8314266669
0.8833761031
0.9342026185
0.955592559
0.9571056935
0.9561120367
0.9547667685
0.9534152199
0.9517616223
0.9499074838
0.9477234982
0.9452002318
0.9422541882
0.9388237662
0.9348233509
0.9301623339
0.9247384297
0.9184408746
0.9111548688
0.9027679909
0.8931843021
0.8823460632
0.8702639551
0.8570536215
0.8429680271
0.8284047945
0.8138690791
0.7998914875
0.7869305479
0.775300252
0.765148229
0.7564801017
0.7492070336
0.7431923285
0.7382840507
0.7343317989
0.7311934669
0.7287369741
0.7268416184
0.7253991205
0.7243150906
0.723509554
0.7229167739
0.7224841127
0.7221704655
0.721944341
0.7217820257
0.7216658816
0.7215828797
0.7215234954
0.7214805367
0.7214486806
0.7214242893
0.7214038225
0.7213891594
0.7213640552
0.5704780594
0.6833377498
0.747041393
0.7987393073
0.8496958955
0.9038387241
0.9486233963
0.9618249784
0.9617515209
0.960657289
0.9592094057
0.9577278984
0.9559212748
0.9538826236
0.9514820995
0.9487003933
0.945450285
0.9416604337
0.9372375789
0.9320806085
0.9260771762
0.9191065625
0.9110472736
0.9017870964
0.8912425391
0.8793869697
0.866286951
0.8521411012
0.8373045402
0.8222732141
0.807614666
0.7938622628
0.7814170951
0.770496786
0.7611433214
0.7532712754
0.7467272497
0.7413379804
0.7369382309
0.733380988
0.7305374278
0.7282933413
0.7265464217
0.725205005
0.7241883541
0.7234269954
0.7228628474
0.7224486238
0.7221468318
0.7219283572
0.7217710238
0.721658166
0.72157738
0.7215195329
0.7214776621
0.7214466805
0.7214228007
0.7214028879
0.7213886859
0.7213636402
0.5792095438
0.6947314018
0.7600167376
0.8136279605
0.8672724582
0.9231836323
0.958822322
0.9657015435
0.9647011645
0.9635246757
0.9619568378
0.9603279713
0.958349991
0.9561036129
0.9534592344
0.9503856807
0.9467908321
0.9425919389
0.937686436
0.9319617956
0.92529598
0.9175612962
0.9086358005
0.8984174696
0.8868489651
0.8739524678
0.8598716611
0.8449082915
0.8295284635
0.8143141729
0.7998616192
0.7866632484
0.7750253366
0.7650486174
0.7566666155
0.7497119024
0.743980224
0.739274684
0.735426476
0.7322980168
0.7297769934
0.7277685045
0.7261892526
0.7249645325
0.7240276086
0.7233199369
0.7227915633
0.722401026
0.7221148732
0.7219067328
0.7217562567
0.7216479779
0.7215702859
0.7215145579
0.7214741656
0.7214442856
0.7214211018
0.7214017875
0.7213881085
0.7213630899
0.5870253831
0.7052486963
0.7721834322
0.827952739
0.8842807574
0.9397035402
0.9651524013
0.9680127896
0.9659904553
0.964714359
0.9630097613
0.9612103616
0.9590346185
0.9565473336
0.9536194004
0.950206213
0.946209951
0.9415361329
0.9360731882
0.929698992
0.9222850276
0.9137017881
0.9038342008
0.8926008471
0.8799853123
0.8660784196
0.8511232106
0.8355401803
0.8199024007
0.8048483622
0.7909566646
0.778633595
0.7680614172
0.7592155911
0.7519289352
0.7459676548
0.741093147
0.73709826
0.7338196776
0.7311343471
0.7289487661
0.7271879517
0.7257874895
0.7246893131
0.7238404664
0.7231932833
0.7227060322
0.7223432628
0.7220757864
0.721880193
0.7217381558
0.721635568
0.7215617384
0.7215086483
0.7214700838
0.7214415174
0.7214191964
0.721400534
0.7213874515
0.7213624888
0.5936845115
0.7146869465
0.7834708745
0.8417871526
0.9008796535
0.9514982769
0.9681856985
0.9672216983
0.9655597707
0.9641575954
0.9622919872
0.9602913875
0.9578838994
0.955115698
0.951858643
0.948054254
0.9435990957
0.9383878898
0.9323013382
0.9252100494
0.9169819916
0.9074902074
0.8966335348
0.8843634514
0.8707241331
0.8559000266
0.8402546678
0.8243313494
0.8087873437
0.7942713398
0.7812922257
0.770131497
0.7608315626
0.7532473152
0.7471274053
0.7421912673
0.7381830224
0.7348975953
0.7321847456
0.7299397608
0.7280892492
0.7265780152
0.7253598049
0.7243923677
0.7236358665
0.723053084
0.7226102956
0.722278002
0.7220313127
0.7218498609
0.721717436
0.7216213844
0.7215520124
0.7215019703
0.7214655111
0.7214384319
0.7214171072
0.7213991431
0.7213867105
0.7213618075
0.598935352
0.7228018172
0.7938081888
0.8549494809
0.9163181386
0.9586625357
0.9660652679
0.9651156331
0.9633583869
0.9617965224
0.9597502016
0.9575230946
0.9548560446
0.9517747288
0.9481521519
0.9439157719
0.938956124
0.9331573715
0.9263925911
0.9185265152
0.9094270511
0.8989770835
0.8871017474
0.8738043
0.8592149204
0.8436375498
0.8275677269
0.8116555132
0.7965990676
0.7830008213
0.7712517423
0.7614836754
0.7535988732
0.7473477202
0.7424167645
0.7384992272
0.7353375528
0.7327388778
0.7305716224
0.7287517541
0.7272263087
0.7259591142
0.724920917
0.7240841236
0.7234210711
0.7229043144
0.72250771
0.7222074746
0.7219829132
0.7218166784
0.7216946943
0.7216057979
0.7215413324
0.7214946559
0.7214605212
0.7214350705
0.7214148511
0.7213976247
0.7213858906
0.7213610572
0.6028932183
0.7298843267
0.8034960027
0.8675125936
0.9291801738
0.9620437446
0.9628099301
0.9613838892
0.9595083599
0.957764237
0.9555153673
0.9530346301
0.9500777674
0.9466487646
0.9426212786
0.9379084016
0.9323934964
0.9259499239
0.9184433224
0.9097354227
0.8997012469
0.8882470438
0.8753445672
0.8610740439
0.8456767719
0.8295924996
0.8134419777
0.7979437044
0.7837784959
0.7714465348
0.7611856923
0.7529706798
0.7465774807
0.7416757045
0.737913766
0.7349777197
0.732621179
0.7306709552
0.7290176599
0.7275989162
0.7263816801
0.7253475689
0.7244828843
0.7237733345
0.7232023215
0.7227513475
0.7224012883
0.7221337229
0.7219319501
0.721781539
0.721670506
0.7215891707
0.7215299209
0.7214868376
0.7214551889
0.7214314756
0.721412445
0.7213959853
0.7213849933
0.7213602356
0.6058153512
0.7363133338
0.8129078709
0.8800402239
0.9380130923
0.9580276059
0.9577435864
0.9562097465
0.9541947264
0.9522386303
0.9497577703
0.9469878618
0.9437000622
0.9398755185
0.9353875354
0.9301352283
0.9239948503
0.9168312717
0.9085069689
0.8988878361
0.8878666405
0.8753891965
0.8614976939
0.8463772743
0.8303996614
0.8141386895
0.7983113531
0.7836493115
0.7707535439
0.7599768519
0.7513874226
0.7448123005
0.7399254093
0.7363426647
0.7336970766
0.7316834032
0.7300759344
0.7287259325
0.7275478789
0.7265008981
0.725570737
0.7247552602
0.7240547316
0.7234667228
0.7229845257
0.722597697
0.7222934985
0.7220584494
0.7218795765
0.7217452091
0.7216453702
0.7215718205
0.7215179745
0.7214786331
0.7214495815
0.7214276845
0.7214099042
0.7213942315
0.7213840232
0.7213593448
0.6077738176
0.7422389229
0.8219603485
0.8919738663
0.9428614937
0.9535117146
0.9513099975
0.9496599023
0.9474772482
0.9452813316
0.9425361764
0.9394368571
0.9357696903
0.9314926856
0.9264781996
0.9206130893
0.9137689068
0.905807541
0.8965963058
0.8860161452
0.8739915689
0.8605254528
0.845752921
0.8299885534
0.8137441227
0.7977049445
0.7826340475
0.7692131575
0.7579082267
0.7488975451
0.7420825874
0.737165498
0.7337477036
0.7314179551
0.7298131783
0.7286487602
0.7277258526
0.726922579
0.7261774767
0.7254701788
0.7248036854
0.7241904071
0.7236429367
0.7231692749
0.7227714316
0.7224461159
0.72218632
0.7219830477
0.7218267543
0.721708339
0.7216197173
0.7215540251
0.7215056674
0.721470148
0.72144376
0.7214237316
0.7214072437
0.7213923745
0.7213829843
0.7213583845
0.6087375555
0.7477804268
0.8307339441
0.9018548557
0.9423685377
0.9459085795
0.9434969359
0.941734022
0.939343076
0.9368703105
0.9338205497
0.930346408
0.9262495217
0.9214660178
0.915866872
0.9093282982
0.9017189972
0.8929025108
0.8827580983
0.8711960268
0.8581936278
0.8438355107
0.8283701521
0.8122518715
0.7961253335
0.7807461656
0.7668580152
0.7550317654
0.7455600642
0.7384404622
0.7334272478
0.730128389
0.7281030018
0.726935833
0.7262825545
0.7258871264
0.7255808319
0.7252691798
0.7249138588
0.7245134658
0.724086494
0.7236581593
0.7232517917
0.7228844486
0.7225657383
0.7222986517
0.7220812654
0.7219086091
0.7217742529
0.7216714593
0.7215939046
0.7215360189
0.7214931491
0.7214614739
0.7214377784
0.7214196473
0.7214044772
0.7213904296
0.7213818664
0.7213573544
0.6087416078
0.7530186609
0.8393999224
0.9084172278
0.9356174665
0.9370074668
0.9343069047
0.9323723965
0.9297455667
0.9269664498
0.9235801246
0.9196963928
0.9151306642
0.9097983044
0.9035681173
0.8963080809
0.8878869861
0.87817672
0.8670791453
0.8545506918
0.8406443034
0.8255565241
0.8096682234
0.7935634003
0.7779874489
0.7637111497
0.7513897141
0.7414343688
0.7339486188
0.7287625114
0.7255136768
0.7237490752
0.7230127155
0.7229035993
0.7231063188
0.7233978308
0.7236405007
0.7237663823
0.7237586968
0.7236331523
0.7234219039
0.7231612802
0.7228838518
0.7226144607
0.7223692753
0.7221567539
0.7219794449
0.7218359589
0.7217226696
0.7216349915
0.721568222
0.721517996
0.7214805456
0.7214526898
0.721431684
0.7214154586
0.7214016168
0.7213884079
0.7213806645
0.7213562542
0.6080682175
0.758057952
0.8474406786
0.9113567646
0.9276610723
0.9266652527
0.9238269412
0.9216916407
0.9188034046
0.9156872637
0.9119264685
0.9075892916
0.90250277
0.8965643533
0.8896424966
0.881602892
0.8723217738
0.8616908228
0.8496507215
0.8362228149
0.8215568165
0.8059791738
0.7900137584
0.7743501351
0.7597760523
0.7470132304
0.7365703194
0.7286703357
0.7232342397
0.7199522706
0.7183806297
0.7180363848
0.7184705275
0.7193092686
0.7202721038
0.7211705925
0.7218974551
0.7224095572
0.7227096337
0.7228285356
0.7228102841
0.7227007355
0.7225403322
0.7223605477
0.7221831691
0.7220213786
0.7218816289
0.7217656935
0.7216724507
0.7215992596
0.7215428984
0.7215001133
0.7214679612
0.7214438623
0.7214255176
0.7214111892
0.7213986739
0.7213863152
0.7213794211
0.7213550843
0.6072408752
0.7633793333
0.8537820851
0.9091219928
0.9168478686
0.9151947896
0.91222295
0.9098201653
0.9066231061
0.9031155154
0.8989188284
0.8940631256
0.888386951
0.8817748029
0.8740985187
0.8652287942
0.8550581249
0.8435109831
0.8305842285
0.8163865906
0.8011873875
0.7854465104
0.7698132206
0.7550490835
0.7419105216
0.7310057318
0.7226611946
0.7169067507
0.7135048352
0.7120413347
0.7120255094
0.7129707068
0.7144511164
0.7161282095
0.7177589701
0.7191891089
0.7203398735
0.7211907058
0.7217616741
0.7220968236
0.7222503535
0.7222762031
0.7222214603
0.7221232044
0.7220080016
0.7218930905
0.7217883132
0.7216982205
0.721623916
0.721564505
0.7215181097
0.7214824952
0.7214554809
0.7214350473
0.7214193146
0.72140686
0.7213956608
0.7213841629
0.721378113
0.7213538462
0.6067606363
0.7685303665
0.8573566537
0.9002462703
0.9046979543
0.9025064306
0.8993576083
0.8966362362
0.8930907817
0.8891489582
0.8844703246
0.8790496378
0.8727362833
0.8654057477
0.8569363108
0.8472118249
0.8361539423
0.8237386969
0.8100409227
0.795277781
0.7798510598
0.7643478445
0.7494984725
0.7360826149
0.7247566383
0.7159641772
0.709839275
0.7062344307
0.7047877003
0.7050175438
0.7064163252
0.7085136188
0.7109174088
0.7133284203
0.7155411939
0.7174337772
0.7189534888
0.7200999013
0.7209082431
0.7214339127
0.7217397473
0.7218864803
0.7219267646
0.7219023841
0.7218439462
0.7217721538
0.7216997774
0.7216337961
0.7215772813
0.7215308997
0.7214939872
0.721465238
0.7214431728
0.7214262911
0.721413105
0.7214024899
0.7213925894
0.7213819591
0.7213767519
0.7213525416
0.6073220633
0.7728437347
0.8576677035
0.8908560383
0.890975086
0.888517071
0.8851743755
0.8821027934
0.8781815027
0.8737747076
0.8685781482
0.8625543179
0.8555631938
0.8474773411
0.8381882959
0.8276061566
0.8156995149
0.8025179225
0.7882376576
0.7731974795
0.7579242493
0.743104297
0.7294979915
0.7178280382
0.7086044102
0.7020784852
0.6982018269
0.6966797868
0.6970635849
0.6988379984
0.7015022255
0.7046157604
0.7078262083
0.7108744777
0.7135910375
0.715883662
0.7177230114
0.7191263363
0.7201419659
0.7208349696
0.7212754495
0.7215298021
0.7216553041
0.7216976621
0.7216908808
0.7216586087
0.7216161365
0.7215725584
0.7215326802
0.7214985597
0.7214706252
0.7214484144
0.7214310906
0.7214176316
0.7214069147
0.7213980961
0.7213894693
0.7213797105
0.7213753357
0.7213511715
0.6097860756
0.7755983266
0.8547786296
0.8776235436
0.8759872585
0.873347769
0.8697539434
0.8662862693
0.8619432202
0.8570203911
0.8512507066
0.8445702695
0.8368534624
0.8279808221
0.8178690429
0.8064705627
0.7938175789
0.7800495686
0.7654574276
0.7505050365
0.7358200357
0.7221400526
0.7101981798
0.7005904515
0.6936577889
0.6894560227
0.6877780093
0.6882194682
0.6902806617
0.693440497
0.6972220132
0.7012228198
0.7051322848
0.7087303157
0.7118806611
0.7145178437
0.7166331066
0.7182590489
0.7194552169
0.7202948498
0.7208541112
0.7212040796
0.7214058453
0.7215083634
0.7215484793
0.7215523354
0.7215373836
0.7215145558
0.7214901823
0.721467557
0.7214480882
0.7214320781
0.7214192764
0.7214091
0.721400766
0.7213936936
0.7213863074
0.7213774172
0.7213738701
0.7213497338
0.6143728504
0.7763067271
0.8469373816
0.8629296048
0.8597417682
0.8568898734
0.8529916831
0.849075728
0.8442610721
0.8387729018
0.8323843274
0.8250136012
0.8165548545
0.8069082187
0.7960272414
0.7839210977
0.7707006769
0.756607763
0.7420494569
0.7276009431
0.7139553598
0.7018444386
0.6919132201
0.6845898926
0.6800368322
0.6781324415
0.6785436969
0.6807951101
0.6843668264
0.6887527135
0.6935105109
0.6982797665
0.7027911426
0.7068610464
0.710383352
0.7133162793
0.7156690236
0.7174873992
0.7188404886
0.7198083862
0.720472275
0.7209070742
0.7211769938
0.7213336605
0.7214162822
0.7214531037
0.7214634252
0.7214597709
0.7214498086
0.7214379287
0.7214264172
0.721416267
0.7214077623
0.7214007215
0.7213946781
0.7213892961
0.7213831091
0.721375075
0.7213723714
0.7213482269
0.6201132407
0.7748984759
0.8338128396
0.8461110467
0.842053208
0.838958129
0.8347167284
0.8303235542
0.8250149009
0.8189456857
0.8119307534
0.803879608
0.7947107898
0.7843548946
0.7728140847
0.7601687528
0.7466229308
0.7325288048
0.7184021384
0.7048947164
0.6927198777
0.6825447599
0.6748766913
0.6699618865
0.6677871271
0.6680861269
0.6704366427
0.6743264053
0.6792395463
0.6846989812
0.6903029627
0.6957336116
0.7007607372
0.705234047
0.7090742402
0.7122603026
0.7148169665
0.7168013578
0.7182906238
0.7193705769
0.7201265275
0.720636518
0.7209672889
0.7211726459
0.7212937505
0.7213606127
0.7213941086
0.7214081396
0.721411545
0.7214096864
0.721405635
0.721401007
0.7213965725
0.7213925169
0.7213886678
0.7213849155
0.7213798811
0.7213726977
0.721370857
0.721346666
0.6245793075
0.7712852138
0.8203371753
0.8275818194
0.8229365229
0.8195676285
0.8149686226
0.8100870494
0.8042786772
0.7976315782
0.7900016178
0.7813003564
0.7714770411
0.7605061561
0.7484532855
0.7354852641
0.7219091621
0.7081842817
0.6949115829
0.6827740636
0.6724505597
0.66449326
0.6592421468
0.6567648502
0.6568932045
0.6592538478
0.6633704732
0.6687218629
0.6748132799
0.6812050295
0.6875378984
0.6935350871
0.6990024528
0.7038195427
0.7079306699
0.7113328819
0.7140642908
0.7161916676
0.7177989523
0.7189767029
0.7198135985
0.720390197
0.7207752701
0.7210243838
0.7211803056
0.7212745201
0.7213292434
0.7213595658
0.7213753518
0.7213828225
0.7213857506
0.7213863143
0.7213857252
0.7213845032
0.7213827499
0.7213805627
0.721376631
0.7213703094
0.7213692603
0.7213450632
0.628024125
0.7650144113
0.8035475743
0.8076109075
0.8026095699
0.798904038
0.7939282231
0.7885394502
0.7822151377
0.7749860334
0.7667489538
0.7574318397
0.74702531
0.7355636517
0.7231907327
0.7101697915
0.6969096083
0.6839572547
0.6719595898
0.6615817461
0.6534144385
0.6478603346
0.6450839345
0.6449921268
0.6472939682
0.6515454283
0.6572462347
0.6638868277
0.6710045379
0.6782009376
0.6851587494
0.6916394826
0.6974815208
0.7025908177
0.7069323155
0.7105187
0.7133995727
0.7156499099
0.7173593574
0.718622392
0.7195304201
0.7201660025
0.7205995203
0.7208879467
0.7210753577
0.7211944639
0.7212686174
0.7213139335
0.7213411726
0.7213573159
0.7213667627
0.721372198
0.7213752336
0.7213766942
0.7213769376
0.7213762479
0.7213733667
0.7213679228
0.721367579
0.7213434182
0.6295954637
0.7561047206
0.7849056105
0.7864622793
0.7811814421
0.7770607979
0.7716765056
0.7657517864
0.7588874524
0.7510738832
0.7422508451
0.7323791102
0.7215032224
0.7097305555
0.6972921498
0.6845469158
0.6719899178
0.660222929
0.6498923152
0.6415967166
0.6357982904
0.6327353917
0.6324068306
0.6345872722
0.6388978376
0.6448560444
0.6519610792
0.6597289583
0.6677350075
0.6756227434
0.6831145783
0.6900069144
0.6961670746
0.7015241892
0.7060611399
0.709804123
0.7128125962
0.7151685106
0.7169662945
0.7183036455
0.7192741572
0.7199619621
0.720438695
0.7207624392
0.7209783256
0.7211200782
0.7212120089
0.7212711151
0.7213089399
0.7213331362
0.721348663
0.7213586618
0.7213651072
0.7213691017
0.721371243
0.7213719803
0.7213700969
0.7213655464
0.7213658266
0.7213417449
0.6287072796
0.7404885948
0.7644839207
0.7640543581
0.7585497142
0.7539369555
0.7481195915
0.7416507858
0.7342499201
0.7258878687
0.7165510438
0.7062467784
0.6950837078
0.6832497627
0.6710634532
0.6589675987
0.6475167302
0.6373267522
0.6289974591
0.6230208249
0.6197076752
0.6191362131
0.6211618453
0.6254598039
0.6315961075
0.6390758765
0.6474144526
0.6561617604
0.6649333274
0.6734131829
0.6813602742
0.6886022729
0.6950320105
0.7005988598
0.7053012716
0.7091771119
0.712294298
0.714740711
0.7166147821
0.7180168425
0.7190422191
0.7197762545
0.7202915387
0.7206470134
0.7208886501
0.7210510038
0.721159195
0.7212309784
0.7212785801
0.7213102473
0.721331438
0.7213457054
0.7213553526
0.7213617356
0.721365677
0.7213677686
0.7213668312
0.7213631898
0.7213639837
0.7213400551
0.6250445378
0.723654525
0.742133719
0.7401892151
0.734512136
0.7293871696
0.7231477261
0.7161757593
0.7082959046
0.6994799679
0.6897652965
0.6792164182
0.6680128131
0.6564244943
0.6448494011
0.6337929155
0.6238345641
0.615562218
0.6094895156
0.6059753125
0.6051749237
0.6070234654
0.6112622493
0.617499339
0.6252735371
0.6340969989
0.6435120494
0.6531065341
0.6625358273
0.6715217913
0.679856367
0.6873949453
0.694052714
0.699796687
0.7046388278
0.7086270959
0.7118366822
0.7143605155
0.7163003737
0.7177587279
0.7188322583
0.7196072148
0.7201568914
0.720540877
0.7208058015
0.7209868956
0.7211099573
0.7211933904
0.7212500171
0.7212886092
0.7213150708
0.7213333256
0.7213459744
0.7213546043
0.7213602498
0.7213636208
0.7213635797
0.7213608604
0.7213620526
0.7213383613
0.6184026146
0.7048175974
0.7179580453
0.7148610296
0.7090362839
0.7034333625
0.6968120919
0.6894128338
0.6811522164
0.6720203559
0.6621106654
0.6515528019
0.6405994739
0.6295970801
0.6190060425
0.6093649281
0.6012403456
0.5951538516
0.5915042527
0.5905064507
0.5921718659
0.5963160961
0.6025978339
0.6105865386
0.6198156512
0.6298176037
0.6401678362
0.6504930456
0.6604864807
0.6699045402
0.6785685765
0.6863583864
0.6932086977
0.6991018986
0.7040617012
0.7081448194
0.7114327155
0.7140226227
0.7160191143
0.7175263879
0.7186421586
0.7194533298
0.7200336899
0.7204432967
0.7207292844
0.7209274263
0.7210640854
0.7211582209
0.7212231742
0.7212681807
0.7212995424
0.7213215174
0.7213369753
0.7213477153
0.7213549708
0.7213595446
0.7213603536
0.7213585652
0.7213600305
0.7213366749
0.6088386962
0.6845837738
0.6922154954
0.688223233
0.6822474421
0.6762205087
0.6692732686
0.6615413482
0.6530248023
0.6437470146
0.6338611467
0.623565064
0.6131805273
0.6031163577
0.5938706532
0.5859813842
0.579966144
0.5762504659
0.5751029254
0.5765983578
0.5806253491
0.5869063965
0.5950470766
0.6046016248
0.6151138662
0.6261446288
0.6373050582
0.6482596253
0.6587365787
0.6685233656
0.6774673379
0.6854697047
0.6924822662
0.6985008339
0.7035593678
0.7077222032
0.7110762295
0.7137223596
0.715767499
0.7173172248
0.718470021
0.7193132324
0.7199209658
0.7203535987
0.7206586388
0.7208722888
0.7210213797
0.7211253443
0.721197976
0.7212489196
0.7212848325
0.7213102742
0.721328357
0.7213410752
0.7213498486
0.7213555471
0.7213571648
0.7213563104
0.7213579181
0.7213350134
0.5965957668
0.6615474328
0.6650947814
0.660388837
0.6542753444
0.6478958615
0.6407036938
0.6327625053
0.6241482147
0.614929083
0.605319223
0.595581951
0.5860969354
0.5773145466
0.5697413127
0.5638813267
0.5601736225
0.5589293087
0.5602844771
0.5641889122
0.570433311
0.5786734817
0.5884869571
0.599430565
0.6110688059
0.6229951313
0.6348564868
0.6463528509
0.6572441991
0.6673456069
0.6765272973
0.6847092445
0.6918581865
0.6979816931
0.7031227006
0.70735221
0.7107618267
0.7134556168
0.7155424291
0.7171289292
0.7183141468
0.7191856916
0.7198178411
0.7202711674
0.7205934408
0.7208211973
0.7209816522
0.7210946407
0.7211743493
0.7212307843
0.7212709203
0.7212995884
0.7213201201
0.7213346901
0.7213448913
0.7213516352
0.7213540264
0.7213541018
0.721355717
0.7213333961
0.581970939
0.6363092238
0.6367391053
0.6314645224
0.6252552152
0.618620853
0.6112945472
0.6032995163
0.5947803148
0.5858562903
0.5767997861
0.5679309079
0.5596700631
0.5524839912
0.5468580566
0.543234005
0.541952185
0.5432025668
0.5469974182
0.553182937
0.561476562
0.5714920673
0.5827985422
0.5949679114
0.6075912523
0.6202960971
0.6327636994
0.6447266557
0.6559733391
0.6663432513
0.6757266931
0.6840600983
0.6913233148
0.6975342569
0.7027437631
0.7070286941
0.7104847719
0.7132187729
0.7153411607
0.7169594456
0.7181730161
0.7190695989
0.71972352
0.7201954404
0.7205333005
0.7207738866
0.7209447266
0.7210659965
0.7211522238
0.7212137339
0.7212577846
0.7212894518
0.7213122642
0.7213285651
0.7213401059
0.7213478161
0.7213509525
0.7213519434
0.7213534332
0.7213318421
0.5650729819
0.6091828345
0.6072938591
0.6015995568
0.5953441966
0.5885816031
0.5812624318
0.5733984793
0.5651967112
0.5568277135
0.5486139062
0.5409183258
0.5341813523
0.5288600277
0.5253922547
0.5241365265
0.5253245268
0.5290285141
0.535153037
0.5434641853
0.5536284313
0.5652389943
0.5778706185
0.5911182435
0.6046022678
0.6179838667
0.6309762352
0.6433414616
0.6548931366
0.6654922856
0.6750468398
0.683507708
0.6908662938
0.6971496601
0.7024156417
0.7067462793
0.7102409054
0.7130086319
0.7151612614
0.7168069427
0.7180452675
0.7189639563
0.7196372815
0.7201259053
0.7204778594
0.7207301109
0.7209104381
0.721039304
0.721131532
0.7211977285
0.7212454043
0.7212798553
0.7213047886
0.7213227051
0.7213354988
0.7213440965
0.7213479574
0.7213498366
0.7213510781
0.7213303711
0.546029192
0.5803856297
0.5768287709
0.5709459625
0.5647292767
0.55799484
0.5508568451
0.5433348363
0.5356917914
0.5281463262
0.5210590383
0.5148185457
0.5098635459
0.506617429
0.5054499145
0.5066238337
0.5102614303
0.5163281891
0.5246407848
0.5349075815
0.5467639397
0.5597989844
0.5736026783
0.5877973264
0.602033291
0.6160037186
0.6294509786
0.6421635472
0.6539773053
0.6647722268
0.6744717546
0.6830395762
0.6904773339
0.696820228
0.7021323251
0.7065002705
0.7100265784
0.7128223788
0.7150005789
0.7166697929
0.7179296852
0.7188678677
0.7195584744
0.7200620962
0.7204267896
0.7206896435
0.7208786334
0.7210144624
0.7211122098
0.7211827296
0.7212337584
0.7212707899
0.7212976917
0.7213171142
0.7213310754
0.7213404839
0.7213450554
0.7213477806
0.7213486714
0.7213290057
0.5249686077
0.5501880017
0.5455266611
0.5397380567
0.5336714839
0.5271359884
0.5203696995
0.5134107916
0.5065698651
0.5001067718
0.4944067855
0.4898648668
0.4868970252
0.4858730802
0.4870805219
0.490682234
0.4966975364
0.5050006805
0.5153410528
0.5273891578
0.5407660321
0.5550679304
0.569906168
0.5849322032
0.5998255953
0.6143090871
0.6281513485
0.6411643121
0.6532035135
0.6641656186
0.6739877603
0.6826449586
0.6901479773
0.6965392979
0.7018885697
0.7062865534
0.7098385795
0.7126575247
0.7148572018
0.716546544
0.7178251788
0.7187805248
0.7194865083
0.7200035877
0.7203797898
0.7206522746
0.7208491691
0.7209913762
0.7210941958
0.7211686997
0.721222826
0.7212622456
0.7212909715
0.721311796
0.7213268401
0.7213369861
0.7213422596
0.7213457753
0.7213462455
0.7213277603
0.5020831632
0.5189899709
0.5139219861
0.5082372825
0.5024516332
0.4962889342
0.4900867933
0.483909052
0.4781038276
0.4729605468
0.4688744456
0.4662279861
0.4653957541
0.4666793085
0.4702767133
0.4762534179
0.4845372733
0.4949287839
0.5071294185
0.5207886281
0.5355258668
0.550951858
0.5667027684
0.5824592985
0.5979284433
0.6128599297
0.6270459438
0.64031919
0.6525525329
0.6636573763
0.6735829865
0.6823144858
0.6898708138
0.6963010049
0.7016797395
0.7061014752
0.7096740457
0.7125118419
0.7147294121
0.7164358847
0.717730759
0.7187011908
0.7194208414
0.7199499872
0.7203365795
0.7206178071
0.7208219096
0.7209699541
0.7210774303
0.7211556016
0.7212125856
0.7212542117
0.721284625
0.7213067528
0.721322796
0.721333611
0.721339582
0.7213438216
0.7213438422
0.7213265502
0.4773790484
0.4871743427
0.4821569094
0.4767129849
0.4713422192
0.4657275387
0.460279756
0.4550910799
0.4505354414
0.4469191292
0.4446315744
0.4440261592
0.4454212314
0.4490409983
0.4549930436
0.4632529107
0.473671172
0.4859920355
0.4998861302
0.5149952821
0.5309461669
0.5473685217
0.5639249568
0.5803243483
0.5962987484
0.6116223217
0.6261081594
0.6396073234
0.6520079803
0.6632345882
0.6732472194
0.6820400521
0.6896393961
0.6961002187
0.7015017578
0.7059418079
0.7095304347
0.7123833426
0.7146156693
0.7163366332
0.7176455296
0.718629194
0.719360977
0.7199009321
0.7202968978
0.7205860563
0.7207967262
0.7209501085
0.7210618554
0.7211433987
0.7212030155
0.7212466769
0.7212786485
0.721301986
0.7213189452
0.7213303674
0.7213370338
0.721341918
0.7213414577
0.721325437
0.4514398203
0.4551365215
0.450492086
0.4454183925
0.4406073939
0.4357152154
0.4312038217
0.427193723
0.4240728686
0.4221527293
0.4218018326
0.4233309307
0.426991805
0.4329273834
0.4411585866
0.4515817929
0.4639854418
0.4780735736
0.4935002403
0.5099096382
0.5269413822
0.5442466877
0.5615148595
0.5784809829
0.5948997373
0.6105672727
0.6253151808
0.6390107392
0.6515556568
0.6628859947
0.6729714978
0.681814504
0.6894480052
0.6959323673
0.701350977
0.7058046521
0.7094054551
0.7122702289
0.714514575
0.7162477127
0.71756867
0.7185639169
0.7193064554
0.7198560849
0.7202605002
0.7205568476
0.7207734962
0.7209317549
0.7210474144
0.721132054
0.7211940931
0.7212396286
0.7212730374
0.7212974957
0.7213152887
0.7213272645
0.7213346242
0.721340058
0.7213391251
0.7213244263
0.4244602875
0.4232695557
0.419196875
0.4146236624
0.4105065749
0.4064943409
0.4030799136
0.4004094456
0.3988733517
0.3987766515
0.400453949
0.4041628832
0.4100823804
0.4182743706
0.4286803443
0.4411298907
0.455364123
0.4710609567
0.4878691218
0.5054420564
0.5234359195
0.5415243347
0.5594225148
0.5768892306
0.593699789
0.609669834
0.6246473185
0.6385138613
0.6511831936
0.6626017333
0.6727479281
0.6816315059
0.6892915501
0.6957933621
0.7012241217
0.7056873951
0.7092970348
0.7121708695
0.7144248559
0.7161681388
0.7174994273
0.7185047897
0.7192568506
0.7198151309
0.7202271572
0.7205300157
0.7207521027
0.7209148118
0.7210340518
0.7211215313
0.7211857958
0.7212330539
0.7212677862
0.7212932803
0.721311827
0.7213243125
0.7213323589
0.7213382349
0.7213368693
0.7213235308
0.3967550117
0.3919280751
0.388536129
0.3845861164
0.381279404
0.3782806847
0.3760953979
0.3748915352
0.3750516229
0.3768634395
0.3806169173
0.3865085662
0.3946417364
0.4050008508
0.4174573915
0.4317870669
0.4476972763
0.4648514459
0.4829013174
0.501514072
0.5203644695
0.5391482777
0.5576050906
0.575514884
0.5926718029
0.6089085276
0.6240875209
0.638103108
0.6508797276
0.6623730791
0.6725694778
0.6814853781
0.6891654416
0.6956795001
0.7011182127
0.7055876515
0.7092032755
0.7120837648
0.7143453372
0.7160969995
0.7174371008
0.7184512792
0.7192117621
0.7197777725
0.7201966501
0.7205054023
0.7207324323
0.7208991994
0.7210217126
0.7211117937
0.7211780998
0.7212269386
0.7212628887
0.721289337
0.7213085599
0.7213215214
0.7213302378