/*--------------------------------*- C++ -*----------------------------------*\
  =========                 |
  \\      /  F ield         | OpenFOAM: The Open Source CFD Toolbox
   \\    /   O peration     | Website:  https://openfoam.org
    \\  /    A nd           | Version:  12
     \\/     M anipulation  |
\*---------------------------------------------------------------------------*/
FoamFile
{
    format      ascii;
    class       volScalarField;
    location    "450";
    object      nut;
}
// * * * * * * * * * * * * * * * * * * * * * * * * * * * * * * * * * * * * * //

dimensions      [0 2 -1 0 0 0 0];

internalField   nonuniform List<scalar> 
16200
(
0.0005076744218
0.00172238626
0.002866387408
0.003760063139
0.004047235327
0.003570849689
0.002618576959
0.001425114567
0.0007149569807
0.0002240628334
6.919181205e-06
2.740264887e-06
2.479363134e-06
2.417427818e-06
1.901119683e-06
1.633703601e-06
1.420983193e-06
1.271845773e-06
1.176100024e-06
1.1150896e-06
1.080526867e-06
1.06883949e-06
1.076396864e-06
1.10087785e-06
1.141494681e-06
1.199217984e-06
1.277108381e-06
1.380958555e-06
1.520600191e-06
1.712463229e-06
1.984292271e-06
2.384168159e-06
2.998255965e-06
3.987828371e-06
5.672184875e-06
8.716562367e-06
1.455924552e-05
2.63755431e-05
5.127454407e-05
0.0001053487984
0.0002254620998
0.0004968440897
0.001002272167
0.001002254125
0.00100165386
0.001000500499
0.0009993483322
0.0009988691783
0.0009986822514
0.0009986189074
0.0009986064115
0.0009986147777
0.0009986328965
0.0009986582248
0.000998692166
0.0009987393071
0.0009988057635
0.0009989039046
0.0009990481858
0.0009992767339
0.0005005495656
0.001685210709
0.002773903901
0.003570763711
0.003689524752
0.003086734355
0.002144299569
0.001049525242
0.0005732440366
4.898811539e-05
2.8555401e-06
2.306188358e-06
2.096344159e-06
2.060592931e-06
1.699249316e-06
1.456490889e-06
1.263349419e-06
1.128122142e-06
1.043211689e-06
9.904364833e-07
9.618641826e-07
9.538585143e-07
9.629315899e-07
9.868289123e-07
1.024817459e-06
1.077830392e-06
1.148807103e-06
1.24332389e-06
1.370792582e-06
1.546675811e-06
1.796546042e-06
2.164048179e-06
2.726941618e-06
3.630583006e-06
5.162466152e-06
7.921022599e-06
1.319911766e-05
2.385065389e-05
4.626026003e-05
9.487266013e-05
0.0002027523745
0.0004463181258
0.001002103704
0.001002141473
0.001001589898
0.001000532403
0.0009993647678
0.0009988784946
0.000998689008
0.0009986252989
0.0009986133404
0.0009986224902
0.0009986413442
0.0009986671706
0.0009987013718
0.0009987483212
0.000998814424
0.0009989118742
0.0009990562365
0.000999288421
0.0004941986961
0.00164860821
0.002681037803
0.00337777209
0.003328646258
0.002625176955
0.001677415763
0.0007725383503
0.0003963440126
1.516891441e-05
2.191413713e-06
1.941881365e-06
1.770188698e-06
1.734960129e-06
1.505633961e-06
1.287562548e-06
1.114467408e-06
9.93402198e-07
9.191462679e-07
8.742141957e-07
8.510790462e-07
8.460432333e-07
8.557491514e-07
8.780314628e-07
9.122697268e-07
9.594959602e-07
1.022738153e-06
1.107617415e-06
1.223405788e-06
1.384902599e-06
1.615897469e-06
1.95619097e-06
2.476156392e-06
3.307251064e-06
4.709518868e-06
7.223763241e-06
1.201659393e-05
2.165889827e-05
4.188704967e-05
8.564487918e-05
0.0001824710091
0.0004004745193
0.0008980585487
0.001002053999
0.001001531897
0.001000556016
0.000999381328
0.0009988903397
0.0009986984554
0.0009986338419
0.0009986217732
0.0009986311558
0.0009986503335
0.000998676396
0.0009987106943
0.0009987574294
0.0009988231553
0.0009989199951
0.0009990643193
0.0009992995133
0.0004894986811
0.00161323196
0.002585556051
0.003148353854
0.002953388518
0.002196151794
0.001201960272
0.0005698468612
0.0002042675116
5.985606554e-06
1.830686166e-06
1.64838909e-06
1.507451892e-06
1.473336382e-06
1.334224344e-06
1.137783515e-06
9.825053672e-07
8.742497046e-07
8.094826997e-07
7.714659448e-07
7.529789015e-07
7.502645365e-07
7.601207183e-07
7.80601762e-07
8.113665587e-07
8.537329549e-07
9.109889898e-07
9.889530069e-07
1.096912675e-06
1.24923436e-06
1.468397063e-06
1.79136147e-06
2.283133074e-06
3.065354449e-06
4.379241588e-06
6.7267385e-06
1.119031474e-05
2.015338669e-05
3.892630211e-05
7.946972777e-05
0.0001690239777
0.0003702909841
0.0008288654149
0.001001979578
0.001001472223
0.001000557489
0.0009993896378
0.0009988994916
0.0009987072413
0.0009986423369
0.0009986302474
0.000998639799
0.0009986592182
0.0009986854777
0.0009987198689
0.0009987664582
0.0009988318876
0.0009989282462
0.0009990725856
0.0009993106333
0.0004849068043
0.001578097371
0.002488313299
0.002907841638
0.002579801089
0.001819185817
0.0008573252342
0.0004384781967
5.192935802e-05
2.193425082e-06
1.547043488e-06
1.400732872e-06
1.285595532e-06
1.253786029e-06
1.176372523e-06
1.000561624e-06
8.623213185e-07
7.663576597e-07
7.103982026e-07
6.785366511e-07
6.639390781e-07
6.629304889e-07
6.726091444e-07
6.913999985e-07
7.193329126e-07
7.580623302e-07
8.111655112e-07
8.846742126e-07
9.879010438e-07
1.134831371e-06
1.346845628e-06
1.658596332e-06
2.13077431e-06
2.877235733e-06
4.12450249e-06
6.34442806e-06
1.055410296e-05
1.898988065e-05
3.662476706e-05
7.463260021e-05
0.000158399334
0.0003462245914
0.000773202888
0.001001920471
0.001001415301
0.001000544982
0.0009993935189
0.0009989078419
0.0009987163719
0.0009986513633
0.0009986391236
0.0009986486559
0.000998668159
0.000998694523
0.0009987289706
0.0009987754537
0.000998840649
0.0009989366383
0.0009990810217
0.0009993216638
0.0004800964122
0.001542352101
0.002387299158
0.002659776751
0.00220985759
0.001441539102
0.0006352272507
0.0003097156988
1.811755487e-05
1.611727624e-06
1.314536898e-06
1.194825653e-06
1.100620409e-06
1.071072116e-06
1.033683246e-06
8.764620321e-07
7.536309987e-07
6.688931297e-07
6.207722985e-07
5.942888726e-07
5.830711018e-07
5.836317601e-07
5.934177167e-07
6.112318363e-07
6.37452676e-07
6.740803944e-07
7.250243168e-07
7.965590624e-07
8.980337852e-07
1.043137372e-06
1.252447291e-06
1.558957182e-06
2.020238654e-06
2.744580551e-06
3.948292481e-06
6.082740208e-06
1.012054195e-05
1.819717497e-05
3.50515846e-05
7.130502388e-05
0.0001510266924
0.0003293567421
0.0007337861946
0.001001873754
0.001001361066
0.001000517742
0.0009993921116
0.0009989147054
0.0009987253629
0.0009986605989
0.0009986481967
0.0009986576007
0.0009986770842
0.0009987034923
0.0009987379822
0.0009987844055
0.0009988494417
0.0009989451752
0.0009990896565
0.0009993326843
0.0004746319154
0.001505151218
0.00228066359
0.00239509336
0.001853578507
0.00105091694
0.0004749217646
0.0001875647485
6.779956738e-06
1.330954955e-06
1.119448875e-06
1.020104887e-06
9.425272553e-07
9.15183552e-07
9.021838348e-07
7.623698938e-07
6.540982581e-07
5.802605591e-07
5.397315897e-07
5.185265338e-07
5.107433036e-07
5.131107766e-07
5.234383553e-07
5.409365641e-07
5.663810891e-07
6.020210722e-07
6.524368416e-07
7.239613615e-07
8.259325247e-07
9.717795548e-07
1.181972951e-06
1.487680428e-06
1.944565847e-06
2.656968876e-06
3.834218606e-06
5.914111895e-06
9.839790284e-06
1.767866465e-05
3.400818871e-05
6.906022247e-05
0.0001459585858
0.000317537288
0.0007056579826
0.001001837543
0.001001310243
0.001000478932
0.000999386497
0.000998920395
0.0009987342715
0.0009986700336
0.0009986574512
0.0009986666286
0.0009986859997
0.000998712398
0.0009987469199
0.0009987933266
0.0009988582781
0.0009989538641
0.000999098498
0.0009993436955
0.0004677461671
0.001464871863
0.002165508145
0.002117972344
0.001529006116
0.00075619972
0.0003663473466
6.918389161e-05
2.545036333e-06
1.119498007e-06
9.524395046e-07
8.698182458e-07
8.059989585e-07
7.813619428e-07
7.820403447e-07
6.589864334e-07
5.647730098e-07
5.016584363e-07
4.685378598e-07
4.524457446e-07
4.47958756e-07
4.520801988e-07
4.63061613e-07
4.806227618e-07
5.058764268e-07
5.41941884e-07
5.932216839e-07
6.663482046e-07
7.706522748e-07
9.194325018e-07
1.13239775e-06
1.44140468e-06
1.899462952e-06
2.608757225e-06
3.774446871e-06
5.826812074e-06
9.692714855e-06
1.740045724e-05
3.343018842e-05
6.776896234e-05
0.0001429246405
0.0003101833995
0.0006875338951
0.001001809298
0.001001262651
0.001000430576
0.0009993771914
0.0009989249197
0.0009987429787
0.0009986795488
0.000998666803
0.00099867569
0.0009986948832
0.0009987212348
0.0009987557889
0.0009988022245
0.0009988671673
0.000998962711
0.000999107558
0.0009993547191
0.0004593530963
0.001419360915
0.002020387929
0.001835102094
0.00122923265
0.0005571461499
0.0002791229659
3.549972603e-05
1.510146271e-06
9.460832847e-07
8.129217219e-07
7.43588083e-07
6.910043295e-07
6.691406381e-07
6.76059177e-07
5.683446423e-07
4.870081709e-07
4.337956649e-07
4.073578116e-07
3.957581732e-07
3.941027773e-07
3.997563397e-07
4.112955774e-07
4.293558697e-07
4.554672587e-07
4.927744144e-07
5.460367617e-07
6.219708474e-07
7.299327153e-07
8.832259794e-07
1.101527979e-06
1.416329957e-06
1.880081657e-06
2.593468343e-06
3.759761076e-06
5.806660481e-06
9.655535009e-06
1.731918642e-05
3.323265252e-05
6.725544154e-05
0.0001415461088
0.0003064558307
0.0006775173522
0.001001786713
0.001001217912
0.001000375195
0.0009993649937
0.0009989284434
0.0009987514494
0.0009986890723
0.0009986761934
0.000998684751
0.0009987037215
0.0009987300036
0.0009987645982
0.0009988111094
0.0009988761198
0.0009989717229
0.0009991168433
0.0009993657651
0.0004492565466
0.001368238467
0.00185034107
0.001554639859
0.0009023260711
0.0004153037475
0.0001969453078
1.846026987e-05
1.147864308e-06
8.02261809e-07
6.954959624e-07
6.371336159e-07
5.937281598e-07
5.746289578e-07
5.830212004e-07
4.891763662e-07
4.194755893e-07
3.752535626e-07
3.54719902e-07
3.470044451e-07
3.478082054e-07
3.547431071e-07
3.675060642e-07
3.865903408e-07
4.140917571e-07
4.534466318e-07
5.09546303e-07
5.891746836e-07
7.017827522e-07
8.608235726e-07
1.08615208e-06
1.409238307e-06
1.882484981e-06
2.606057081e-06
3.783290605e-06
5.843553175e-06
9.71201646e-06
1.740632195e-05
3.336132927e-05
6.74098345e-05
0.000141590184
0.0003058445944
0.0006744653427
0.001001767657
0.001001175371
0.001000314978
0.0009993506018
0.0009989311033
0.0009987596429
0.0009986985303
0.0009986855633
0.000998693776
0.0009987125001
0.000998738704
0.000998773356
0.0009988199918
0.0009988851459
0.0009989809072
0.0009991263599
0.0009993768435
0.0004375050396
0.001311583126
0.001665588014
0.001287358971
0.0006452693624
0.0003157304065
0.0001286514065
1.217183922e-05
9.352372181e-07
6.806374662e-07
5.952376073e-07
5.4582849e-07
5.098898009e-07
4.93311789e-07
5.002314608e-07
4.191552571e-07
3.602505851e-07
3.244501746e-07
3.093616527e-07
3.051900609e-07
3.080312123e-07
3.167327691e-07
3.30823199e-07
3.513904881e-07
3.808459659e-07
4.228321069e-07
4.82363322e-07
5.66321451e-07
6.843215495e-07
8.500881165e-07
1.083824946e-06
1.417263232e-06
1.903178551e-06
2.642054393e-06
3.838971894e-06
5.928630262e-06
9.848029309e-06
1.763718388e-05
3.376945439e-05
6.813758512e-05
0.0001428563425
0.0003079097807
0.0006773898776
0.001001750329
0.001001134263
0.001000251913
0.0009993346871
0.000998933056
0.0009987675423
0.0009987078672
0.0009986948648
0.0009987027366
0.0009987212082
0.0009987473379
0.0009987820716
0.0009988288827
0.0009988942564
0.0009989902719
0.0009991361118
0.0009993879608
0.0004240173202
0.001248856369
0.001475031243
0.001025243778
0.0004788752256
0.0002452216659
6.12668915e-05
6.569940772e-06
7.57701171e-07
5.78557947e-07
5.094416787e-07
4.672913075e-07
4.372350391e-07
4.229092973e-07
4.267260528e-07
3.574655727e-07
3.086636759e-07
2.807842692e-07
2.707352616e-07
2.695729389e-07
2.747679647e-07
2.850219997e-07
3.00580034e-07
3.229592604e-07
3.547698915e-07
3.997860488e-07
4.631540997e-07
5.519056195e-07
6.758788778e-07
8.491622037e-07
1.092450054e-06
1.437969841e-06
1.939226165e-06
2.697756854e-06
3.921874587e-06
6.054857338e-06
1.005263821e-05
1.799311332e-05
3.442232332e-05
6.936945052e-05
0.0001451990122
0.0003123336533
0.0006855791837
0.001001733266
0.001001093774
0.001000187645
0.000999317827
0.0009989344462
0.0009987751406
0.0009987170394
0.0009987040589
0.0009987116095
0.0009987298377
0.0009987559085
0.0009987907546
0.0009988377933
0.000998903462
0.0009989998237
0.0009991461019
0.0009993991223
0.0004085804658
0.001178033928
0.001278770122
0.0007694624959
0.0003646760478
0.0001876826337
3.023508789e-05
3.245207657e-06
6.132272235e-07
4.918344212e-07
4.356171065e-07
3.999284103e-07
3.748858884e-07
3.628312854e-07
3.629793348e-07
3.044394516e-07
2.648050452e-07
2.440226942e-07
2.383340109e-07
2.399570574e-07
2.471337631e-07
2.588898063e-07
2.760389354e-07
3.004471853e-07
3.348850912e-07
3.832157444e-07
4.50710584e-07
5.446001136e-07
6.750045943e-07
8.564456253e-07
1.110225834e-06
1.469268071e-06
1.988114814e-06
2.770013533e-06
4.027848117e-06
6.216402988e-06
1.03169381e-05
1.845916992e-05
3.529252144e-05
7.105125823e-05
0.0001485050063
0.0003188700108
0.0006984825305
0.001001715335
0.001001053116
0.0010001235
0.0009993005077
0.0009989354073
0.0009987824415
0.000998726016
0.0009987131166
0.0009987203775
0.000998738384
0.0009987644203
0.0009987994151
0.000998846735
0.0009989127727
0.0009990095668
0.000999156331
0.000999410331
0.000391572512
0.001098164274
0.00108123575
0.0005676072759
0.0002844614023
0.0001400208349
1.829043139e-05
1.784167973e-06
5.030024663e-07
4.184594757e-07
3.736701281e-07
3.433322879e-07
3.223700931e-07
3.122856742e-07
3.086063491e-07
2.595578855e-07
2.280754524e-07
2.134771286e-07
2.111129513e-07
2.154050063e-07
2.242552645e-07
2.375403335e-07
2.564332237e-07
2.830417334e-07
3.202944432e-07
3.721442773e-07
4.439779488e-07
5.432584488e-07
6.804503531e-07
8.705646786e-07
1.135672705e-06
1.509371705e-06
2.047709734e-06
2.856173914e-06
4.153453218e-06
6.408533671e-06
1.063387191e-05
1.902378995e-05
3.635924892e-05
7.314251651e-05
0.0001526905689
0.0003273377428
0.0007156959604
0.001001695699
0.001001011563
0.001000060489
0.0009992831186
0.0009989360551
0.0009987894555
0.0009987347772
0.0009987220174
0.0009987290294
0.0009987468456
0.0009987728795
0.0009988080637
0.0009988557195
0.0009989221984
0.000999019503
0.0009991667979
0.000999421589
0.0003741370076
0.001012304888
0.0008712483696
0.000431554255
0.0002288674972
0.0001008520252
1.277168547e-05
1.03250274e-06
4.166389121e-07
3.561215113e-07
3.205331169e-07
2.950277993e-07
2.773272838e-07
2.689808271e-07
2.6184756e-07
2.214352833e-07
1.973553741e-07
1.881809519e-07
1.888914994e-07
1.951315361e-07
2.054504484e-07
2.20289117e-07
2.410674186e-07
2.700341918e-07
3.102325922e-07
3.657271932e-07
4.420423788e-07
5.46892275e-07
6.911404234e-07
8.903368759e-07
1.167318817e-06
1.556750923e-06
2.116193994e-06
2.954003487e-06
4.295831567e-06
6.627393093e-06
1.099782791e-05
1.967800472e-05
3.760672685e-05
7.561303477e-05
0.0001576939976
0.0003376043846
0.00073692507
0.001001673774
0.001000968482
0.0009999993485
0.0009992659616
0.0009989364879
0.000998796198
0.0009987433123
0.0009987307486
0.0009987375587
0.0009987552238
0.0009987812935
0.0009988167112
0.0009988647581
0.0009989317484
0.0009990296341
0.0009991774975
0.0009994328961
0.0003570667832
0.0009190723319
0.0007005965836
0.0003492652976
0.0001916573903
5.58376612e-05
7.971902334e-06
6.464986825e-07
3.469020628e-07
3.021072925e-07
2.735124068e-07
2.527119455e-07
2.381189195e-07
2.315371289e-07
2.217369786e-07
1.892937016e-07
1.719155334e-07
1.670837817e-07
1.706395077e-07
1.784819961e-07
1.901873691e-07
2.066116187e-07
2.293698743e-07
2.608134148e-07
3.040343292e-07
3.632246539e-07
4.441009283e-07
5.546409681e-07
7.061418489e-07
9.147397128e-07
1.204106878e-06
1.610097856e-06
2.192028219e-06
3.061631443e-06
4.45262946e-06
6.86987794e-06
1.140441875e-05
2.041501988e-05
3.902335109e-05
7.844114569e-05
0.0001634717832
0.0003495775365
0.0007619656242
0.001001649177
0.001000923338
0.0009999405876
0.0009992492614
0.000998936787
0.0009988026871
0.0009987516181
0.0009987393043
0.0009987459637
0.0009987635223
0.0009987896707
0.0009988253686
0.0009988738618
0.0009989414316
0.0009990399628
0.0009991884241
0.0009994442506
0.0003429757536
0.000817894616
0.000564077373
0.0002918477566
0.000160176482
3.080809311e-05
3.811463991e-06
4.448552149e-07
2.909848798e-07
2.565259261e-07
2.33493747e-07
2.163090135e-07
2.04679106e-07
1.996560139e-07
1.878791863e-07
1.626114825e-07
1.511337793e-07
1.501730985e-07
1.557060577e-07
1.649242693e-07
1.780048859e-07
1.960686462e-07
2.208737988e-07
2.548288762e-07
3.010912009e-07
3.639806087e-07
4.49449695e-07
5.657570446e-07
7.246491916e-07
9.428997687e-07
1.245060046e-06
1.6683044e-06
2.273921183e-06
3.177508372e-06
4.62193215e-06
7.133528206e-06
1.18502853e-05
2.122984223e-05
4.060094354e-05
8.161213502e-05
0.0001699952035
0.0003631972751
0.0007906863382
0.001001621684
0.0010008757
0.0009998845309
0.0009992331785
0.0009989370179
0.0009988089431
0.0009987596972
0.0009987476837
0.0009987542461
0.0009987717469
0.00099879802
0.0009988340466
0.0009988830414
0.0009989512552
0.0009990504913
0.000999199572
0.0009994556494
0.0003348921014
0.0007123550805
0.0004632465651
0.000242952422
0.0001296259859
1.838729977e-05
1.833943533e-06
3.266344583e-07
2.456926515e-07
2.184310602e-07
1.996628013e-07
1.85392122e-07
1.759714061e-07
1.72481381e-07
1.595007419e-07
1.40705492e-07
1.340570424e-07
1.364731916e-07
1.435729804e-07
1.540479235e-07
1.685070884e-07
1.882467047e-07
2.151261038e-07
2.515562904e-07
3.008370725e-07
3.674109077e-07
4.574731635e-07
5.795899649e-07
7.459675396e-07
9.740500432e-07
1.289349295e-06
1.730440424e-06
2.360802273e-06
3.300368503e-06
4.802207842e-06
7.416437051e-06
1.233293964e-05
2.211898633e-05
4.23341691e-05
8.511702413e-05
0.0001772476864
0.0003784303008
0.0008230156782
0.001001591192
0.001000825232
0.0009998313608
0.0009992178219
0.0009989372331
0.0009988149867
0.0009987675569
0.0009987558905
0.0009987624105
0.0009987799046
0.000998806351
0.000998842756
0.0009988923066
0.0009989612255
0.0009990612204
0.0009992109352
0.0009994670883
0.0003357072513
0.0006077415832
0.000374489024
0.0002072320589
0.0001018956261
1.210378981e-05
8.929037445e-07
2.532335623e-07
2.077109223e-07
1.857974921e-07
1.704759464e-07
1.587417396e-07
1.512368746e-07
1.492283353e-07
1.359818279e-07
1.230563477e-07
1.207408982e-07
1.254536228e-07
1.338297223e-07
1.454950549e-07
1.613290715e-07
1.827459311e-07
2.116620144e-07
2.505207475e-07
3.027776781e-07
3.730106508e-07
4.676443357e-07
5.955825873e-07
7.695034396e-07
1.007562696e-06
1.336282322e-06
1.795737691e-06
2.4517981e-06
3.429195788e-06
4.992257498e-06
7.717172996e-06
1.285063634e-05
2.30802457e-05
4.422010076e-05
8.895169462e-05
0.0001852229626
0.0003952659035
0.0008589328984
0.001001557683
0.001000771674
0.0009997811536
0.0009992032602
0.0009989374739
0.0009988208388
0.0009987752074
0.0009987639313
0.0009987704638
0.0009987880039
0.0009988146734
0.0009988515069
0.0009989016664
0.0009989713488
0.0009990721511
0.0009992225047
0.0009994785623
0.0003464641651
0.0005116850875
0.0003161894665
0.0001842267925
5.896541256e-05
8.119285103e-06
4.641491323e-07
2.037760551e-07
1.756405759e-07
1.579364793e-07
1.45520015e-07
1.36045033e-07
1.303073277e-07
1.29609361e-07
1.169422424e-07
1.091941668e-07
1.10323773e-07
1.166689239e-07
1.261171644e-07
1.389175336e-07
1.561092806e-07
1.791725883e-07
2.100595731e-07
2.513149702e-07
3.064923663e-07
3.803418568e-07
4.795089305e-07
6.132581974e-07
7.947576513e-07
1.04290741e-06
1.385290542e-06
1.863574609e-06
2.546213146e-06
3.563197604e-06
5.191176615e-06
8.034719649e-06
1.340226906e-05
2.411250033e-05
4.625783553e-05
9.311607825e-05
0.0001939232987
0.0004137120206
0.0008984593745
0.001001521203
0.001000714834
0.0009997339087
0.0009991895316
0.0009989377725
0.0009988265199
0.0009987826613
0.0009987718152
0.0009987784144
0.0009987960535
0.0009988229969
0.0009988603089
0.0009989111291
0.0009989816316
0.0009990832842
0.0009992342684
0.0009994900653
0.0003647759651
0.000474892204
0.0002768133376
0.0001659965227
3.150413374e-05
3.358992157e-06
2.718806196e-07
1.684564727e-07
1.492016749e-07
1.34775221e-07
1.247072723e-07
1.171315584e-07
1.12982612e-07
1.13277815e-07
1.018934581e-07
9.839380021e-08
1.021817024e-07
1.097033545e-07
1.201047421e-07
1.340008536e-07
1.525232563e-07
1.771874495e-07
2.099899472e-07
2.535940041e-07
3.116256422e-07
3.890303959e-07
4.926818107e-07
6.322178668e-07
8.213171697e-07
1.079653023e-06
1.435918742e-06
1.933461474e-06
2.643509444e-06
3.70177713e-06
5.398317106e-06
8.368420527e-06
1.398728461e-05
2.521557129e-05
4.844822718e-05
9.761363188e-05
0.0002033584007
0.0004337928441
0.000941653074
0.001001481843
0.001000654561
0.0009996895727
0.0009991766518
0.0009989381539
0.0009988320496
0.0009987899325
0.0009987795528
0.0009987862715
0.000998804063
0.000998831331
0.0009988691711
0.000998920702
0.0009989920788
0.0009990946218
0.000999246213
0.0009995015883
0.0003866382138
0.0004134806474
0.0002480873056
0.0001471806536
1.707367191e-05
1.284565848e-06
1.839756862e-07
1.417445164e-07
1.27486943e-07
1.156166228e-07
1.073964936e-07
1.014859723e-07
9.859787684e-08
9.909259711e-08
9.021012906e-08
9.027660946e-08
9.577271065e-08
1.042089955e-07
1.155074979e-07
1.304761084e-07
1.502936611e-07
1.765096175e-07
2.111756704e-07
2.570535568e-07
3.178679796e-07
3.987574698e-07
5.068385728e-07
6.521307781e-07
8.488439316e-07
1.117451473e-06
1.487804553e-06
2.005014224e-06
2.743272955e-06
3.844489739e-06
5.613228837e-06
8.717896564e-06
1.460555771e-05
2.639001445e-05
5.079351934e-05
0.00010245064
0.0002135440179
0.0004555458671
0.0009886005336
0.001001439726
0.001000590732
0.0009996480568
0.0009991646202
0.000998938637
0.0009988374465
0.0009987970357
0.0009987871556
0.0009987940451
0.0009988120415
0.0009988396847
0.0009988781014
0.0009989303916
0.0009990026934
0.0009991061575
0.0009992583338
0.0009995131202
0.0004129019649
0.000379227222
0.0002343835751
0.0001263509805
9.934927068e-06
4.617388547e-07
1.416611814e-07
1.204082329e-07
1.092930404e-07
9.950411872e-08
9.292057323e-08
8.837062375e-08
8.65212359e-08
8.59256242e-08
8.129535163e-08
8.407222528e-08
9.070636417e-08
9.992955401e-08
1.120980029e-07
1.281130162e-07
1.491804183e-07
1.768915815e-07
2.133577131e-07
2.614301444e-07
3.249534691e-07
4.092570402e-07
5.217125933e-07
6.727297937e-07
8.770699939e-07
1.156032327e-06
1.540672309e-06
2.077947444e-06
2.845205351e-06
3.991032709e-06
5.835645608e-06
9.083024911e-06
1.525735499e-05
2.76370519e-05
5.329720251e-05
0.0001076358963
0.0002245012097
0.0004790201874
0.001002090706
0.001001395
0.001000523228
0.0009996092504
0.0009991534247
0.0009989392365
0.0009988427282
0.0009988039854
0.0009987946355
0.0009988017454
0.0009988199983
0.0009988480663
0.0009988871069
0.000998940203
0.0009990134767
0.000999117879
0.0009992706301
0.0009995246492
0.000440609665
0.0003654639519
0.0002294437534
8.450805664e-05
4.826007149e-06
1.891216088e-07
1.170575893e-07
1.027141834e-07
9.383050743e-08
8.601742817e-08
8.063965709e-08
7.727185088e-08
7.643339518e-08
7.565561134e-08
7.461363372e-08
7.923499518e-08
8.67220107e-08
9.667045334e-08
1.096832859e-07
1.267059487e-07
1.48968629e-07
1.781125446e-07
2.163093123e-07
2.665011219e-07
3.326610864e-07
4.203120991e-07
5.370908826e-07
6.938065365e-07
9.057917488e-07
1.195196131e-06
1.594325344e-06
2.152065284e-06
2.949112932e-06
4.141230949e-06
6.065465665e-06
9.463909834e-06
1.594328709e-05
2.895848409e-05
5.596383649e-05
0.0001131803246
0.000236255505
0.0005042745968
0.001002060934
0.00100134784
0.001000451919
0.0009995730307
0.0009991430456
0.0009989399629
0.0009988479107
0.0009988107963
0.0009988020044
0.0009988093823
0.0009988279419
0.0009988564835
0.0009988961939
0.0009989501405
0.0009990244288
0.000999129779
0.0009992830929
0.000999536163
0.000484854882
0.0003674977288
0.0002294743639
4.104993678e-05
1.29070221e-06
1.181154129e-07
9.927035734e-08
8.820122527e-08
8.095389886e-08
7.45357924e-08
7.027362501e-08
6.802822638e-08
6.816644365e-08
6.791748363e-08
6.965908821e-08
7.548241992e-08
8.363592498e-08
9.426886889e-08
1.08090768e-07
1.260721282e-07
1.494718046e-07
1.799841333e-07
2.198432541e-07
2.720825781e-07
3.408106769e-07
4.317471163e-07
5.528034121e-07
7.151971248e-07
9.348512238e-07
1.234790651e-06
1.648616348e-06
2.227224949e-06
3.054861614e-06
4.294981e-06
6.302679944e-06
9.860785972e-06
1.666416872e-05
3.03564715e-05
5.879868719e-05
0.0001190963371
0.000248835718
0.0005313753724
0.001002027964
0.001001298442
0.001000376638
0.0009995392701
0.0009991334584
0.0009989408242
0.0009988530087
0.0009988174821
0.0009988092738
0.0009988169653
0.0009988358806
0.000998864943
0.000998905367
0.0009989602066
0.0009990355478
0.000999141849
0.0009992957098
0.0009995476481
0.000526343174
0.0003614679445
0.000224024409
1.920182644e-05
3.07756056e-07
9.55881283e-08
8.527283133e-08
7.622145603e-08
7.015480329e-08
6.491968974e-08
6.168271696e-08
6.04914663e-08
6.154503481e-08
6.227491776e-08
6.596651144e-08
7.257042315e-08
8.129582166e-08
9.257562893e-08
1.071633661e-07
1.260495578e-07
1.505302006e-07
1.823475736e-07
2.23803784e-07
2.780236862e-07
3.492573119e-07
4.434233477e-07
5.687185484e-07
7.367778718e-07
9.641321238e-07
1.274707127e-06
1.703443875e-06
2.303333252e-06
3.162373106e-06
4.452245873e-06
6.547363831e-06
1.027400359e-05
1.742098939e-05
3.183347262e-05
6.180758632e-05
0.000125397509
0.0002622731789
0.0005603944605
0.001001991975
0.001001247034
0.001000297164
0.0009995078401
0.0009991246353
0.0009989418256
0.0009988580356
0.0009988240559
0.0009988164546
0.0009988245033
0.0009988438214
0.0009988734505
0.0009989146301
0.0009989704028
0.0009990468302
0.0009991540789
0.0009993084679
0.000999559089
0.0005659104498
0.0003513262806
0.0002104027219
9.577727482e-06
1.25125411e-07
8.170105076e-08
7.372025844e-08
6.628927865e-08
6.116892015e-08
5.694054593e-08
5.46618977e-08
5.446044226e-08
5.634716155e-08
5.822960419e-08
6.316804092e-08
7.0324167e-08
7.956903727e-08
9.145674678e-08
1.067639121e-07
1.265020635e-07
1.520102211e-07
1.850732321e-07
2.280654499e-07
2.842053336e-07
3.578894302e-07
4.552386385e-07
5.847435932e-07
7.584667506e-07
9.935632159e-07
1.314885927e-06
1.758760938e-06
2.380358457e-06
3.271640621e-06
4.613075136e-06
6.799702247e-06
1.07040595e-05
1.821495076e-05
3.339228336e-05
6.499695497e-05
0.0001320985264
0.0002766014405
0.0005914084564
0.00100195314
0.001001193886
0.001000221593
0.0009994786148
0.0009991165465
0.0009989429704
0.0009988630031
0.0009988305299
0.0009988235571
0.0009988320044
0.0009988517708
0.0009988820107
0.0009989239855
0.0009989807289
0.0009990582705
0.0009991664579
0.0009993213524
0.0009995704689
0.0005846705827
0.0003403166989
0.0001863971822
5.638060994e-06
9.321809342e-08
7.056733775e-08
6.41565503e-08
5.801315387e-08
5.367850777e-08
5.0349866e-08
4.899780029e-08
4.971628461e-08
5.233287907e-08
5.531149767e-08
6.101591598e-08
6.861467541e-08
7.834086197e-08
9.07970157e-08
1.067775482e-07
1.273186357e-07
1.538019002e-07
1.880558017e-07
2.325269302e-07
2.905326429e-07
3.666186407e-07
4.671132699e-07
6.008068446e-07
7.802005527e-07
1.023090226e-06
1.355282147e-06
1.814533023e-06
2.458279039e-06
3.382665988e-06
4.777526419e-06
7.05988791e-06
1.115145713e-05
1.904725943e-05
3.503570684e-05
6.837324129e-05
0.0001392141809
0.0002918544035
0.0006244949965
0.001001911621
0.001001138981
0.001000151257
0.0009994514724
0.0009991091617
0.0009989442601
0.0009988679216
0.000998836915
0.0009988305905
0.000998839476
0.0009988597343
0.0009988906267
0.000998933434
0.0009989911834
0.0009990698614
0.0009991789733
0.0009993343472
0.0009995817702
0.0005719824457
0.0003349983952
0.0001540119861
2.180542073e-06
7.600911885e-08
6.143059366e-08
5.618982648e-08
5.108053877e-08
4.742811675e-08
4.494642576e-08
4.449763721e-08
4.603915528e-08
4.926508564e-08
5.315293691e-08
5.935081198e-08
6.733737061e-08
7.751101011e-08
9.049733915e-08
1.071084282e-07
1.284083346e-07
1.558167118e-07
1.912124091e-07
2.371117331e-07
2.96937013e-07
3.753842264e-07
4.789953454e-07
6.168655341e-07
8.019454142e-07
1.052689065e-06
1.395881949e-06
1.870757803e-06
2.537107333e-06
3.49548751e-06
4.945697861e-06
7.328159084e-06
1.161675056e-05
1.991917656e-05
3.676660208e-05
7.194294195e-05
0.0001467592791
0.0003080658887
0.0006597314031
0.001001867582
0.001001082249
0.001000085825
0.0009994262965
0.00099910245
0.000998945695
0.0009988728002
0.0009988432211
0.0009988375632
0.0009988469242
0.000998867716
0.0009988993009
0.0009989429753
0.000999001763
0.0009990815935
0.0009991916112
0.0009993474347
0.000999592973
0.0005555690432
0.0003324817287
8.229006019e-05
7.360811635e-07
6.44854696e-08
5.393439485e-08
4.956605388e-08
4.528745778e-08
4.224738286e-08
4.058430199e-08
4.098685781e-08
4.322179207e-08
4.67867729e-08
5.15126523e-08
5.806858046e-08
6.640773818e-08
7.699643626e-08
9.047651526e-08
1.076789384e-07
1.296971305e-07
1.579835307e-07
1.94476592e-07
2.417597574e-07
3.033645156e-07
3.84139196e-07
4.908439226e-07
6.328857258e-07
8.236738802e-07
1.082339061e-06
1.436671627e-06
1.927429141e-06
2.616847306e-06
3.610129742e-06
5.117666435e-06
7.604719228e-06
1.210043093e-05
2.083184281e-05
3.858759013e-05
7.571207626e-05
0.0001547476529
0.0003252677018
0.0006971907687
0.00100182119
0.001001023607
0.001000024988
0.0009994029767
0.0009990963812
0.0009989472739
0.0009988776465
0.0009988494568
0.0009988444824
0.0009988543544
0.0009988757192
0.0009989080338
0.0009989526073
0.0009990124628
0.0009990934549
0.0009992043556
0.0009993605957
0.000999604056
0.0005348859619
0.0003272541716
4.49479953e-05
2.761855708e-07
5.596941992e-08
4.77616643e-08
4.404188544e-08
4.044116955e-08
3.798401517e-08
3.712176372e-08
3.828374597e-08
4.106945421e-08
4.499641846e-08
5.024216276e-08
5.70905647e-08
6.575353476e-08
7.67266704e-08
9.066686254e-08
1.084249736e-07
1.311230058e-07
1.602471195e-07
1.977985403e-07
2.464283308e-07
3.097784437e-07
3.928543763e-07
5.026364211e-07
6.48851864e-07
8.45377691e-07
1.112039288e-06
1.477658111e-06
1.984562542e-06
2.69752579e-06
3.726641435e-06
5.29353353e-06
7.889791662e-06
1.260299219e-05
2.178635552e-05
4.050113483e-05
7.968623038e-05
0.0001631920401
0.0003434889799
0.0007369398266
0.001001772622
0.001000962945
0.000999968462
0.0009993814082
0.0009990909249
0.0009989489945
0.0009988824668
0.0009988556297
0.0009988513542
0.0009988617705
0.0009988837457
0.0009989168248
0.0009989623265
0.0009990232758
0.0009991054319