/*--------------------------------*- C++ -*----------------------------------*\
  =========                 |
  \\      /  F ield         | OpenFOAM: The Open Source CFD Toolbox
   \\    /   O peration     | Website:  https://openfoam.org
    \\  /    A nd           | Version:  12
     \\/     M anipulation  |
\*---------------------------------------------------------------------------*/
FoamFile
{
    format      ascii;
    class       volScalarField;
    location    "450";
    object      p;
}
// * * * * * * * * * * * * * * * * * * * * * * * * * * * * * * * * * * * * * //

dimensions      [1 -1 -2 0 0 0 0];

internalField   nonuniform List<scalar> 
16200
(
80663.25472
80670.10498
80679.09918
80690.78031
80706.09703
80726.30781
80753.319
80789.15337
80834.14355
80888.15681
80952.49398
81029.07628
81119.76993
81227.71532
81355.41499
81507.05742
81686.34013
81898.55558
82148.99586
82444.29379
82791.52322
83198.8215
83674.86013
84228.82821
84869.77002
85605.82799
86442.9144
87382.88441
88421.09146
89543.73461
90726.07636
91933.0993
93123.50081
94256.1611
95296.61176
96221.25659
97018.33392
97686.60394
98232.76745
98668.84389
99009.72517
99271.2067
99468.51294
99615.32569
99723.32224
99802.03194
99858.98954
99899.97863
99929.35795
99950.34967
99965.31475
99975.96645
99983.53604
99988.91624
99992.71112
99995.44536
99997.2408
99998.89196
99999.03341
100000.872
79757.00498
79765.26993
79774.86181
79787.78381
79804.94138
79827.77709
79858.68257
79899.13479
79949.5575
80009.72478
80081.21854
80166.33084
80267.01309
80386.86213
80528.53828
80696.73261
80895.48932
81130.67709
81408.15768
81735.28167
82119.89862
82570.97074
83097.96725
83710.75166
84418.80618
85230.26332
86150.21812
87178.33925
88305.83991
89512.68646
90766.69208
92026.17049
93246.24182
94386.56518
95417.32232
96321.58029
97094.17782
97738.94448
98265.54664
98687.09257
99018.21195
99273.79651
99467.95835
99613.40986
99721.07023
99799.96513
99857.3137
99898.7323
99928.49467
99949.79593
99964.99429
99975.81019
99983.49234
99988.935
99992.78254
99995.50996
99997.34266
99998.93882
99999.07565
100000.8741
79012.38983
79021.55016
79032.30547
79046.83064
79066.19883
79092.14577
79127.4329
79172.7576
79228.58157
79294.95948
79373.74844
79467.65209
79578.67111
79710.92991
79867.29778
80053.04336
80272.65748
80532.66955
80839.60351
81201.56222
81627.16895
82126.15723
82708.7452
83385.43885
84166.08413
85058.49392
86066.15383
87185.12455
88400.59069
89684.50399
90996.40106
92288.67634
93515.04747
94638.68546
95636.72684
96500.25353
97231.17535
97838.26352
98333.83812
98731.70434
99045.91701
99290.13246
99477.0701
99618.18201
99723.38336
99800.97778
99857.69554
99898.84847
99928.52719
99949.82638
99965.05039
99975.89471
99983.59848
99989.04911
99992.90587
99995.61238
99997.45699
99999.00376
99999.13199
100000.9204
78417.75834
78427.66452
78440.05639
78456.54638
78478.59488
78508.33354
78548.50011
78599.3143
78661.19986
78734.77709
78822.012
78926.12379
79049.17099
79195.86721
79369.32204
79575.40598
79819.0731
80107.49664
80447.85381
80848.99554
81320.38583
81872.67832
82517.0352
83264.67734
84125.51442
85106.15387
86206.93375
87418.25698
88717.13987
90066.09323
91416.55717
92717.04693
93923.0474
95004.29632
95946.88797
96750.68221
97424.50182
97981.50731
98436.06925
98802.21664
99093.0923
99320.8654
99496.65534
99630.45547
99730.99542
99805.68698
99860.62896
99900.70813
99929.74027
99950.64836
99965.63135
99976.3232
99983.92564
99989.30445
99993.11286
99995.76978
99997.59494
99999.08791
99999.19004
100000.9528
77970.57383
77981.55542
77995.92056
78014.73992
78039.99458
78074.34637
78120.15562
78177.33365
78246.21005
78328.16506
78425.19831
78541.08309
78677.90623
78840.99811
79033.73049
79262.60345
79533.11338
79853.18115
80230.82991
80675.89942
81198.96216
81811.75134
82526.26027
83353.87488
84303.51212
85379.02751
86575.64056
87875.91376
89246.91423
90641.32975
92004.23331
93283.72767
94440.904
95454.91037
96322.04444
97050.83244
97656.14257
98154.49644
98561.44341
98890.64876
99153.98777
99361.94329
99523.90688
99648.3113
99742.60547
99813.21558
99865.52322
99903.91396
99931.86634
99952.08176
99966.61646
99977.0148
99984.4208
99989.66571
99993.3825
99995.96706
99997.75141
99999.18745
99999.25602
100000.9993
77668.29215
77680.62901
77697.32869
77718.90229
77747.98528
77787.79156
77840.09606
77904.34239
77980.96681
78072.10963
78179.84554
78308.63678
78460.64465
78641.90822
78856.18976
79110.76041
79411.86622
79768.37447
80189.36035
80685.75408
81269.15922
81952.01348
82746.4411
83663.00324
84708.38009
85882.08934
87172.20308
88551.34272
89975.53928
91388.71467
92732.89641
93960.15311
95040.90135
95965.68346
96741.2147
97383.75783
97912.87898
98347.21699
98702.57822
98991.70167
99224.89979
99410.8445
99557.14994
99670.663
99757.5231
99823.13326
99872.11441
99908.30659
99934.81047
99954.07091
99967.97358
99977.95133
99985.07417
99990.12734
99993.71289
99996.20244
99997.9269
99999.30119
99999.32787
100001.0514
77507.35746
77521.35965
77540.79816
77565.71901
77599.53492
77645.70691
77705.42384
77777.15526
77862.39877
77964.14525
78084.35378
78228.27554
78398.23164
78601.07172
78841.06814
79126.3371
79463.95521
79863.72145
80335.67628
80891.60946
81543.81087
82304.96787
83186.74908
84198.06342
85342.08343
86612.09496
87986.67866
89426.68119
90877.27031
92276.4965
93568.02329
94712.44546
95692.37476
96510.49018
97183.07989
97732.5703
98181.6137
98549.68347
98851.9861
99099.85808
99301.83872
99464.73894
99594.41425
99696.16251
99774.84008
99834.83628
99880.00567
99913.62778
99938.40603
99956.50931
99969.63531
99979.09065
99985.85997
99990.67365
99994.09538
99996.47043
99998.11968
99999.42753
99999.40633
100001.1124
77495.71167
77511.98461
77534.47282
77563.36158
77603.00074
77656.43425
77723.87926
77804.09633
77900.14555
78014.88034
78150.26505
78312.40938
78503.82403
78732.19815
79002.3672
79323.27202
79702.80415
80151.59278
80680.51475
81302.05083
82029.0102
82874.10242
83848.05199
84957.02503
86198.7058
87557.4814
89000.05533
90474.8426
91918.33903
93267.42861
94472.70565
95507.12669
96366.96411
97066.44951
97629.74984
98083.53008
98451.89583
98753.99832
99003.74463
99210.72393
99381.59044
99521.31413
99634.06537
99723.67491
99793.78151
99847.80376
99888.8519
99919.65188
99942.5074
99959.30425
99971.54354
99980.39698
99986.75669
99991.29202
99994.52322
99996.76707
99998.32845
99999.56531
99999.49111
100001.1813
77641.96107
77661.04096
77687.06706
77720.73218
77767.54311
77829.3099
77906.0419
77996.87261
78104.45344
78233.24058
78385.11076
78567.1037
78781.9601
79038.21965
79341.35266
79701.13723
80126.34295
80628.46842
81219.29181
81911.96186
82719.54963
83654.11905
84724.25036
85931.48123
87265.3411
88698.47904
90184.33897
91660.42478
93058.97628
94321.48629
95410.32221
96313.17127
97039.83961
97614.41556
98066.74586
98425.75145
98715.52418
98953.95892
99153.15889
99320.76131
99461.5155
99578.6284
99674.69842
99752.20123
99813.64915
99861.55562
99898.32804
99926.16205
99946.97201
99962.36343
99973.63947
99981.83366
99987.74203
99991.96926
99994.98912
99997.08822
99998.55165
99999.71378
99999.58237
100001.2584
77927.47763
77949.84546
77979.97518
78019.34855
78074.16258
78143.8528
78229.23596
78331.52896
78452.79823
78597.98283
78768.91302
78973.61735
79215.1012
79502.73435
79842.71019
80245.71646
80721.56691
81282.78265
81942.14134
82713.26709
83608.77718
84638.68506
85807.34083
87109.12156
88522.80458
90007.46107
91503.81637
92942.35994
94257.0601
95399.68805
96347.80035
97104.37064
97691.20069
98139.82785
98483.4448
98751.42877
98966.67468
99145.15006
99296.84709
99427.37509
99539.63511
99635.19178
99715.20976
99780.93865
99833.86973
99875.68977
99908.15693
99932.97038
99951.67458
99965.60475
99975.87031
99983.36747
99988.79564
99992.69333
99995.48642
99997.43017
99998.78796
99999.87261
99999.68009
100001.3437
78330.41777
78356.66121
78391.5455
78437.79678
78501.80847
78582.44983
78679.96682
78795.44735
78932.09375
79095.94169
79288.57599
79519.08419
79790.93135
80114.43834
80496.6727
80949.23514
81482.96015
82111.1607
82847.11117
83704.19302
84693.61227
85821.84945
87086.63682
88472.23796
89944.58401
91449.21598
92917.02316
94277.15106
95471.67838
96467.11179
97257.63874
97860.36143
98306.56545
98632.56703
98872.74218
99055.45778
99201.55797
99324.66849
99432.53649
99528.77154
99614.53934
99689.90992
99754.76502
99809.26364
99853.98678
99889.87869
99918.10805
99939.9176
99956.50706
99968.95629
99978.18915
99984.96856
99989.89905
99993.45319
99996.00888
99997.78949
99999.03609
100000.0414
99999.78398
100001.4373
78850.51173
78881.36057
78921.91858
78976.63219
79050.97014
79142.52074
79252.34015
79382.66096
79536.31749
79721.04299
79938.43108
80198.69016
80505.87508
80871.25365
81302.75273
81812.71006
82412.63203
83116.02266
83935.80655
84884.16522
85969.67503
87193.75232
88545.27466
89995.62634
91496.66609
92982.66637
94379.85227
95622.49756
96666.31673
97495.06192
98118.97957
98566.86055
98876.51631
99086.49478
99230.56179
99335.00124
99418.07088
99490.86133
99558.87753
99623.83304
99685.30719
99742.03645
99792.77287
99836.71914
99873.6556
99903.86847
99927.99848
99946.87466
99961.38026
99972.35768
99980.55601
99986.6111
99991.03603
99994.23906
99996.55088
99998.16308
99999.29476
100000.219
99999.89389
100001.5392
79485.36991
79521.73171
79569.10143
79633.40846
79718.2882
79821.30961
79945.78999
80094.62628
80269.43692
80479.47485
80726.35525
81021.33947
81369.01509
81781.47063
82267.52407
82840.25195
83511.81469
84295.73798
85204.19106
86246.72747
87426.90954
88738.43615
90159.24298
91646.70902
93139.17551
94563.85112
95849.09933
96940.51004
97811.07455
98462.09635
98917.6818
99215.17448
99395.98393
99498.72615
99555.21896
99588.97451
99615.40092
99643.03246
99675.23224
99711.96998
99751.40615
99791.10693
99828.84321
99862.989
99892.62831
99917.47043
99937.6884
99953.74048
99966.22275
99975.75958
99982.9376
99988.27322
99992.19265
99995.04238
99997.10746
99998.5482
99999.56278
100000.4041
100000.0112
100001.6498
80246.71357
80289.56648
80345.08645
80420.61967
80519.81571
80638.50324
80778.54779
80946.82933
81144.04192
81380.85836
81658.85574
81990.4945
82381.12015
82843.74575
83388.20797
84028.19321
84776.18079
85644.99794
86644.83011
87780.98762
89049.93923
90434.15981
91898.44108
93387.33878
94829.0011
96149.25194
97285.69986
98200.04163
98883.76136
99354.05242
99645.68883
99801.30475
99863.34925
99868.85186
99846.79784
99817.5687
99793.67081
99781.18233
99781.48703
99792.98856
99812.60084
99836.87745
99862.74691
99887.87248
99910.73811
99930.55174
99947.0757
99960.43891
99970.97931
99979.12293
99985.30702
99989.93686
99993.35716
99995.85582
99997.67423
99998.94242
99999.83915
100000.5958
100000.1382
100001.7691
81115.42143
81166.13789
81231.53756
81319.36942
81431.99338
81566.48356
81724.00159
81913.55405
82135.46169
82402.28314
82715.5463
83088.94887
83528.62788
84048.27693
84658.37192
85372.57987
86202.85688
87160.20531
88251.22585
89475.18389
90819.29636
92253.38028
93727.53285
95175.89776
96522.63002
97698.86193
98657.18803
99377.91781
99869.936
100163.3112
100299.9697
100324.8805
100279.5218
100198.2055
100106.5943
100021.8369
99953.63455
99905.78639
99877.89231
99866.9759
99868.87202
99879.26846
99894.37783
99911.25907
99927.88308
99943.02524
99956.08977
99966.91507
99975.60871
99982.41771
99987.643
99991.58745
99994.51987
99996.67318
99998.24743
99999.34365
100000.1229
100000.7941
100000.2733
100001.8975
82074.90715
82135.18833
82211.28962
82311.16284
82437.0959
82590.4105
82770.02919
82986.4706
83239.04517
83542.423
83898.02389
84320.50205
84816.55379
85400.16265
86082.02371
86875.23852
87790.58043
88836.20016
90013.55918
91313.38223
92710.89633
94162.68042
95606.54783
96969.37489
98179.11374
99178.80633
99939.16455
100459.0934
100762.1383
100887.6188
100881.3078
100788.1104
100647.1125
100489.2427
100336.6613
100203.3639
100096.4372
100017.6199
99964.93479
99934.20744
99920.35006
99918.31782
99923.72027
99933.10642
99944.01147
99954.83991
99964.68543
99973.13159
99980.08153
99985.62165
99989.92926
99993.21343
99995.67286
99997.48928
99998.82381
99999.75001
100000.4129
100000.9987
100000.4139
100002.0348
83140.81336
83212.7635
83301.26847
83419.97025
83565.89589
83740.29959
83944.0036
84190.04666
84476.08545
84818.87098
85219.83874
85694.53
86250.25388
86901.22105
87658.14718
88532.91835
89533.68327
90663.58435
91916.50633
93272.49665
94693.55774
96123.44187
97492.46141
98726.11936
99763.12333
100563.2238
101115.6832
101435.9415
101558.6432
101528.7594
101393.1406
101194.8694
100969.757
100745.0542
100539.4615
100364.017
100223.4351
100117.6265
100043.2405
99995.0755
99967.26275
99954.14307
99950.82213
99953.42167
99959.10908
99965.97244
99972.83745
99979.06512
99984.37796
99988.71889
99992.15366
99994.80589
99996.80982
99998.29982
99999.40059
100000.1598
100000.7081
100001.2085
100000.5604
100002.181
84321.88093
84408.28794
84511.27239
84649.42949
84813.92858
85011.30127
85240.24949
85517.63426
85839.39324
86224.33107
86674.08141
87205.00676
87824.90463
88547.71014
89383.29192
90340.89519
91424.14043
92628.92365
93939.01486
95322.51061
96729.14086
98093.24128
99342.54889
100409.375
101247.3134
101834.9534
102178.6186
102306.962
102262.0235
102091.2784
101840.5553
101549.9644
101251.598
100969.0061
100717.6158
100505.7683
100336.0663
100206.8226
100113.5039
100050.0362
100009.8956
99986.91221
99975.77376
99972.24637
99973.18867
99976.42003
99980.53577
99984.70323
99988.48582
99991.69876
99994.3075
99996.35807
99997.92575
99999.10128
99999.9754
100000.5715
100001.0077
100001.4229
100000.7129
100002.3362
85599.54192
85703.73757
85820.91538
85978.69509
86164.87954
86389.18532
86647.31752
86960.70553
87323.67264
87756.82981
88261.88637
88855.48819
89545.29017
90343.85501
91258.83127
92295.23152
93450.56767
94712.01261
96052.15407
97426.67966
98775.80025
100029.4761
101119.004
101990.2436
102613.2247
102985.0441
103126.3801
103075.2701
102877.7754
102581.3944
102229.4992
101858.5881
101496.9166
101164.4908
100873.7332
100630.5743
100435.7639
100286.2328
100176.4383
100099.5714
100048.5631
100016.8219
99998.69176
99989.64472
99986.2816
99986.19456
99987.78152
99990.0417
99992.39883
99994.55471
99996.38484
99997.86503
99999.01677
99999.8908
100000.5462
100000.9838
100001.3113
100001.6423
100000.8712
100002.5009
86990.62098
87115.27697
87246.7415
87425.74314
87635.53391
87891.62916
88183.9947
88538.5117
88947.97337
89434.33756
89999.06993
90658.35845
91419.05597
92291.36809
93279.63122
94383.35838
95592.44177
96884.05426
98219.50307
99543.81396
100791.4097
101893.847
102792.0918
103448.7164
103850.7984
104011.4732
103962.3324
103747.1122
103413.1298
103006.1385
102566.1957
102125.9369
101709.8855
101334.766
101010.3019
100740.2996
100523.8996
100356.8469
100232.7428
100144.1629
100083.5879
100044.0816
100019.7069
100005.6946
99998.4313
99995.31792
99994.58372
99995.08239
99996.11517
99997.28336
99998.38193
99999.32328
100000.0799
100000.666
100001.1112
100001.3955
100001.6184
100001.8675
100001.0334
100002.676
88508.87824
88657.84403
88809.93956
89017.96114
89252.82244
89542.31013
89870.79834
90268.00393
90725.1555
91265.13564
91889.01464
92611.86242
93439.19317
94377.94271
95427.9505
96581.76434
97820.17875
99109.58214
100400.7975
101632.2241
102737.2901
103654.9612
104340.3843
104773.3926
104957.2795
104917.597
104693.2659
104330.6059
103876.1371
103372.742
102856.7555
102356.9717
101894.4214
101482.8617
101129.6281
100836.6741
100601.7522
100419.5949
100283.0815
100184.2754
100115.2879
100068.9026
100038.9556
100020.4808
100009.6883
100003.8184
100000.9569
99999.83146
99999.63631
99999.88371
100000.2967
100000.7304
100001.113
100001.4251
100001.6689
100001.8055
100001.9284
100002.097
100001.196
100002.8612
90162.29085
90339.52978
90511.9326
90747.54859
91008.19241
91331.61833
91696.74585
92136.83479
92641.55259
93234.21789
93915.47572
94698.47432
95586.58504
96582.19936
97679.05497
98861.16955
100099.2976
101349.6331
102555.4243
103653.1247
104580.8563
105289.599
105750.7895
105960.5457
105935.6957
105710.5093
105328.0103
104834.7214
104274.9873
103688.2131
103106.9261
102556.273
102054.1021
101611.5314
101233.8051
100921.2711
100670.4901
100475.333
100328.0721
100220.3465
100143.9664
100091.4908
100056.5737
100034.0907
100020.1066
100011.7281
100006.9188
100004.2979
100002.966
100002.3565
100002.1284
100002.085
100002.1142
100002.1664
100002.218
100002.2129
100002.241
100002.3279
100001.3609
100003.0547
91923.15153
92130.29192
92322.77331
92589.56666
92877.66191
93236.18888
93639.39274
94123.73103
94677.41582
95323.18867
96060.97606
96900.76144
97842.43985
98882.27745
100006.3896
101189.447
102392.6451
103564.4045
104644.7304
105573.1373
106297.4348
106783.3045
107018.3767
107012.6678
106793.1992
106399.5829
105876.346
105268.5555
104617.5685
103959.0877
103321.9605
102727.9757
102192.1359
101723.2376
101324.7057
100995.5025
100731.1669
100524.8384
100368.2798
100252.7805
100169.9077
100112.0416
100072.6928
100046.6104
100029.7412
100019.0808
100012.4893
100008.4927
100006.1096
100004.7039
100003.877
100003.3862
100003.0826
100002.8888
100002.7572
100002.6168
100002.5552
100002.5585
100001.5342
100003.2551
93789.96258
94022.03731
94227.88378
94526.32824
94846.28534
95243.97282
95689.20491
96220.9256
96826.13372
97525.42609
98317.3291
99207.2813
100190.3151
101255.452
102380.5385
103531.3627
104661.5633
105715.5039
106634.7169
107366.3563
107871.1249
108129.9309
108144.8719
107936.7728
107539.522
106995.2897
106348.2091
105640.8511
104911.2023
104191.2991
103506.5613
102875.7523
102311.3611
101820.157
101403.9882
101060.6223
100784.7232
100568.8089
100404.216
100281.9468
100193.3739
100130.7378
100087.4375
100058.1231
100038.6461
100025.9104
100017.6891
100012.4277
100009.0733
100006.9285
100005.5436
100004.6337
100004.0171
100003.5911
100003.2854
100003.0166
100002.8705
100002.7877
100001.7187
100003.4615
95743.03723
96009.6999
96243.00972
96575.03074
96929.67882
97369.31935
97858.83991
98437.99713
99093.10392
99841.07027
100678.2201
101604.497
102609.1184
103673.4104
104767.239
105849.0964
106868.1265
107768.8492
108498.6488
109015.5833
109294.5501
109330.3642
109136.9528
108742.7679
108185.6838
107508.3189
106753.1522
105959.702
105162.5045
104390.1266
103664.8743
103002.8241
102414.263
101904.1969
101473.109
101117.7363
100831.9922
100607.8669
100436.34
100308.1796
100214.6043
100147.7478
100100.9241
100068.7074
100046.8731
100032.2504
100022.5389
100016.1152
100011.8641
100009.0339
100007.1293
100005.8276
100004.9172
100004.2724
100003.8017
100003.4114
100003.186
100003.015
100001.9152
100003.6727
97826.51757
98131.28
98391.88256
98757.83655
99145.87717
99625.00382
100155.8239
100776.7007
101473.6937
102259.0538
103126.009
104068.2954
105068.7448
106101.1606
107128.6069
108104.8079
108978.0559
109697.0301
110218.2245
110512.2521
110567.5884
110390.7465
110004.4895
109442.0501
108743.007
107948.9695
107100.0133
106232.4018
105377.3362
104560.1979
103800.5118
103111.991
102503.0018
101977.0179
101533.3398
101167.8138
100873.7081
100642.5633
100465.0611
100331.7788
100233.8157
100163.2253
100113.26
100078.4365
100054.4714
100038.1328
100027.0589
100019.5676
100014.4891
100011.0238
100008.6357
100006.9682
100005.7825
100004.9321
100004.3052
100003.8007
100003.5008
100003.2397
100002.1244
100003.8872
100037.4793
100382.5567
100670.6588
101068.7358
101486.5659
101999.5211
102565.6089
103219.6828
103947.177
104754.8982
105632.1699
106566.1083
107533.1833
108500.6967
109427.0195
110264.2888
110963.5836
111480.9254
111783.7772
111855.3394
111695.7733
111320.8023
110759.1456
110046.4993
109222.4895
108326.8106
107396.7704
106465.4106
105560.8272
104705.5347
103916.6025
103205.6757
102579.4484
102040.0617
101585.7886
101211.7029
100910.5162
100673.3854
100490.743
100353.0129
100251.2031
100177.3102
100124.5434
100087.3785
100061.4868
100043.5879
100031.2688
100022.797
100016.9553
100012.9021
100010.0647
100008.056
100006.6129
100005.5695
100004.7951
100004.1839
100003.8138
100003.4615
100002.347
100004.1034
102362.4544
102744.8416
103055.0673
103483.8254
103929.572
104470.9886
105065.2082
105742.2256
106486.3535
107298.3604
108163.2609
109061.7605
109964.7716
110834.9275
111628.6318
112299.704
112805.025
113109.9354
113193.3095
113049.6877
112688.5214
112132.2845
111413.2128
110567.717
109634.3732
108650.4762
107650.4744
106664.3612
105717.4135
104829.5997
104015.8358
103285.9619
102645.2152
102094.5749
101631.4173
101250.1432
100942.982
100700.7621
100513.708
100372.121
100266.9416
100190.1285
100134.8636
100095.5954
100067.9618
100048.6441
100035.187
100025.815
100019.2699
100014.6726
100011.4181
100009.0916
100007.4081
100006.1839
100005.2705
100004.5604
100004.1239
100003.6799
100002.5835
100004.3194
104791.8719
105207.3257
105536.5053
105989.7474
106457.9973
107019.4976
107631.2198
108317.3467
109060.7707
109855.8715
110683.2606
111518.0032
112326.928
113070.3537
113705.5596
114190.8379
114490.858
114580.9879
114450.7906
114104.1586
113557.444
112837.6872
111978.7444
111016.5178
109987.8954
108927.582
107867.2547
106834.1065
105850.8975
104935.3549
104100.5128
103354.6359
102701.6888
102141.633
101671.0591
101283.7782
100971.5998
100725.0704
100534.2407
100389.3154
100281.1876
100201.7937
100144.3019
100103.1443
100073.9357
100053.3279
100038.8309
100028.6328
100021.4397
100016.3394
100012.6979
100010.0758
100008.1682
100006.7749
100005.7308
100004.9297
100004.4298
100003.8948
100002.8342
100004.5328
107305.2854
107749.0873
108093.786
108564.1374
109047.3533
109618.7521
110235.3905
110914.4472
111637.344
112392.3379
113156.1392
113899.5447
114587.2697
115179.8061
115637.774
115925.8621
116017.3908
115897.3954
115564.6427
115030.167
114315.2085
113449.4754
112467.1083
111402.7335
110291.249
109164.7739
108052.4039
106978.8114
105964.5334
105025.3342
104172.6046
103413.2317
102750.0639
102182.1669
101705.4383
101313.1698
100996.8033
100746.6425
100552.5931
100404.7853
100294.081
100212.408
100152.9314
100110.0769
100079.4445
100057.6638
100042.2169
100031.2609
100023.471
100017.9061
100013.9062
100011.0094
100008.8933
100007.342
100006.1754
100005.2913
100004.7303
100004.106
100003.0989
100004.7416
109885.7776
110350.4587
110706.11
111186.0914
111674.5227
112242.3487
112848.2042
113501.4374
114181.9926
114872.8399
115547.8506
116175.2379
116719.6037
117143.7793
117413.4807
117500.7451
117387.4405
117067.1927
116546.1473
115840.4543
114974.6262
113979.5214
112888.7069
111735.127
110551.6042
109367.801
108210.4672
107102.0393
106061.1019
105101.7046
104233.8007
103463.0685
102791.3718
102216.9833
101735.1853
101338.8092
101018.9733
100765.7712
100568.9886
100418.6988
100305.7471
100222.0633
100160.8188
100116.4407
100084.5213
100061.6746
100045.3602
100033.7093
100025.3703
100019.3765
100015.0448
100011.8932
100009.5834
100007.8848
100006.6039
100005.6446
100005.0237
100004.3139
100003.377
100004.9435
112515.1707
112990.0834
113349.3337
113827.9375
114310.1243
114858.7456
115435.9215
116043.4045
116659.9412
117264.1334
117828.3053
118319.8659
118705.0503
118950.6283
119028.3833
118917.805
118608.5345
118101.352
117407.9737
116548.0159
115547.915
114438.6832
113252.7901
112021.3452
110775.137
109541.5745
108345.3107
107206.8157
106142.9656
105166.3112
104285.5445
103505.2776
102826.5011
102246.7805
101760.8483
101361.1252
101038.4435
100782.7146
100583.6246
100431.2056
100316.2977
100230.842
100168.024
100122.2785
100089.1964
100065.3812
100048.2749
100035.9873
100027.1435
100020.7542
100016.1158
100012.7282
100010.2389
100008.4029
100007.0158
100005.9891
100005.3087
100004.5193
100003.6669
100005.1356
115173.3741
115644.1744
115994.9362
116455.8045
116917.9601
117431.5247
117962.3388
118505.201
119038.206
119536.7909
119972.9439
120314.9058
120531.9048
120595.5962
120484.0847
120183.7967
119691.0108
119012.1623
118162.9555
117165.1925
116046.2009
114836.5721
113567.39
112267.9389
110967.0938
109690.247
108460.1979
107295.6964
106212.1248
105220.722
104329.0681
103540.8301
102856.2182
102272.1637
101782.9047
101380.4934
101055.5076
100797.7006
100596.6765
100442.4391
100325.833
100238.8186
100174.6014
100127.6295
100093.4975
100068.8029
100050.9744
100038.1038
100028.7963
100022.0427
100017.1212
100013.5153
100010.8598
100008.896
100007.4108
100006.324
100005.5839
100004.7226
100003.9656
100005.3151
117814.9289
118265.8511
118600.255
119032.2856
119461.5234
119925.6447
120394.4468
120856.5035
121289.9608
121668.5915
121965.1606
122149.9935
122196.1831
122080.6071
121787.3923
121309.032
120647.2059
119812.6371
118823.7391
117703.5391
116479.5825
115181.7182
113839.5277
112480.568
111131.9805
109817.3754
108557.9229
107370.8734
106270.301
105266.2921
104365.4416
103570.5731
102881.1952
102293.6665
101801.7772
101397.2474
101070.4277
100810.9335
100608.3019
100452.5196
100334.4441
100246.0609
100180.6009
100132.5301
100097.4506
100071.958
100053.4712
100040.0672
100030.3341
100023.2455
100018.0629
100014.2555
100011.4465
100009.3639
100007.7889
100006.6487
100005.8481
100004.9242
100004.268
100005.4867
120397.018
120820.8317
121132.6841
121524.6822
121909.2847
122310.9411
122704.18
123072.4395
123394.6651
123644.1284
123795.2996
123821.37
123699.6339
123412.051
122948.1319
122305.441
121489.8991
120515.3756
119402.013
118173.3934
116856.892
115481.4658
114075.1777
112664.0125
111273.5904
109925.9509
108640.8383
107434.1977
106318.9538
105304.1766
104395.5823
103595.2374
102902.0155
102311.7543
101817.8369
101411.6818
101083.4361
100822.5952
100618.6421
100461.5557
100342.2131
100252.6306
100186.0682
100137.0134
100101.0796
100074.8635
100055.7771
100041.8857
100031.7625
100024.3659
100018.943
100014.95
100011.9994
100009.8066
100008.1499
100006.9623
100006.1002
100005.1249
100004.5706
100005.655
122904.2704
123285.7225
123564.3514
123904.0688
124232.4463
124560.6679
124867.9933
125133.6717
125337.9111
125454.3771
125459.8058
125330.6105
125048.2174
124599.2257
123977.7504
123185.4666
122231.5437
121132.1033
119908.303
118583.8635
117185.7953
115742.1186
114279.4283
112822.3447
111395.1573
110018.5297
108710.9636
107487.267
106359.3509
105335.3851
104420.297
103615.4695
102919.1975
102326.8429
101831.416
101424.0611
101094.7423
100832.8502
100627.825
100469.6461
100349.2156
100258.5844
100191.0456
100141.1107
100104.4071
100077.5354
100057.9035
100043.5669
100033.0866
100025.4075
100019.7636
100015.5999
100012.5189
100010.2241
100008.494
100007.2639
100006.3392
100005.3258
100004.8717
100005.8172
125285.8081
125618.5679
125859.9463
126141.0127
126406.1359
126654.165
126869.5071
127028.4691
127112.8448
127097.381
126961.2942
126684.2413
126251.4717
125653.6533
124888.7325
123961.6563
122884.0445
121673.605
120352.0263
118942.954
117472.9337
115969.0756
114456.6141
112959.0405
111499.4376
110097.2961
108770.0313
107531.4592
106392.5925
105360.7993
104440.2949
103631.841
102933.2023
102339.3037
101842.8129
101434.624
101104.5359
100841.848
100635.9676
100476.881
100355.5204
100263.9746
100195.5722
100144.8508
100107.4542
100079.9891
100059.8612
100045.1186
100034.3115
100026.3735
100020.5268
100016.2065
100013.0056
100010.6165
100008.8214
100007.5523
100006.5648
100005.5284
100005.1677
100005.9719
127529.7479
127803.5682
128000.247
128215.9942
128412.5479
128577.0057
128698.4401
128751.0987
128718.2455
128576.0835
128306.251
127891.5192
127320.5326
126587.4533
125693.3694
124645.806
123458.225
122149.4471
120741.4046
119257.5712
117723.9884
116166.9372
114610.4432
113077.0689
111588.7937
110164.132
108819.5443
107567.9784
106419.6472
105381.2013
104456.2093
103644.8656
102944.4462
102349.4737
101852.2994
101443.5883
101112.9903
100849.7259
100643.1775
100483.3443
100361.1921
100268.8503
100199.6847
100148.2611
100110.2411
100082.239
100061.6605
100046.5479
100035.4425
100027.2674
100021.2349
100016.7712
100013.46
100010.9842
100009.1321
100007.8264
100006.7772
100005.7329
100005.4507
100006.1229
129593.7063
129807.2934
129959.596
130110.0027
130238.2811
130321.0248
130351.1886
130302.0017
130158.1316
129897.5181
129504.074
128963.4808
128267.3286
127412.7343
126403.3545
125248.7421
123963.7603
122568.0331
121083.579
119533.6386
117943.8079
116339.6427
114744.1118
113178.9641
111665.2567
110220.6674
108860.8146
107597.8846
106441.375
105397.2914
104468.6116
103655.0096
102953.3099
102357.6624
101860.1263
101451.1561
101120.2675
100856.6122
100649.5557
100489.1147
100366.2916
100273.258
100203.4186
100151.368
100112.7873
100084.2997
100063.312
100047.8623
100036.4845
100028.0927
100021.8903
100017.2954
100013.8829
100011.3279
100009.4264
100008.0853
100006.977
100005.9374
100005.7144
100006.2766
131463.7263
131617.495
131728.6713
131817.2425
131880.2864
131886.0939
131830.4755
131686.5482
131440.2312
131071.3051
130565.768
129911.8917
129103.7995
128141.0806
127029.5041
125780.2288
124409.2243
122936.7326
121384.7522
119776.2599
118136.576
116490.6131
114860.3887
113266.9247
111730.6083
110268.3441
108895.0127
107622.1319
106458.5564
105409.7096
104478.0273
103662.7047
102960.1469
102364.1586
101866.528
101457.5169
101126.5193
100862.6282
100655.1981
100494.2672
100370.877
100277.2426
100206.8079
100154.1973
100115.1119
100086.1851
100064.8259
100049.0694
100037.443
100028.8533
100022.4955
100017.7807
100014.2752
100011.6483
100009.7045
100008.3281
100007.1645
100006.1377
100005.969
100006.4319
133136.2711
133235.3296
133308.5685
133340.361
133342.4547
133277.6057
133143.4219
132913.495
132574.6931
132108.5999
131503.0483
130748.5539
129841.3962
128783.2438
127581.6074
126248.942
124802.1428
123261.9509
121650.2513
119989.8381
118305.9167
116622.8055
114961.6302
113342.8879
111786.4303
110308.4538
108923.1974
107641.5912
106471.91
105419.0497
104484.9475
103668.356
102965.2905
102369.2351
101871.7269
101462.8506
101131.8904
100867.8892
100660.1959
100498.8737
100375.0043
100280.8472
100209.8856
100156.774
100117.2339
100087.9093
100066.2125
100050.1765
100038.3234
100029.5527
100023.0531
100018.2289
100014.6379
100011.9463
100009.9664
100008.5541
100007.3399
100006.333
100006.225
100006.5779
134622.294
134670.0379
134705.9347
134686.346
134632.8625
134504.7543
134300.3321