/*--------------------------------*- C++ -*----------------------------------*\
  =========                 |
  \\      /  F ield         | OpenFOAM: The Open Source CFD Toolbox
   \\    /   O peration     | Website:  https://openfoam.org
    \\  /    A nd           | Version:  12
     \\/     M anipulation  |
\*---------------------------------------------------------------------------*/
FoamFile
{
    format      ascii;
    class       surfaceScalarField;
    location    "450";
    object      phi;
}
// * * * * * * * * * * * * * * * * * * * * * * * * * * * * * * * * * * * * * //

dimensions      [1 0 -1 0 0 0 0];

internalField   nonuniform List<scalar> 
32120
(
-0.0006386434525
-0.04565384195
0.0462924854
-0.001441900489
-0.06486270361
0.06566596445
-0.002435347453
-0.08431576685
0.08530921643
-0.003634083961
-0.1071331748
0.108331914
-0.004965910423
-0.1352196315
0.1365514613
-0.006227874871
-0.1709677591
0.1722297283
-0.007351805846
-0.2171878397
0.2183117783
-0.01016309712
-0.2738480233
0.276659327
-0.01764494274
-0.3327113463
0.340193211
-0.0279340612
-0.3967452106
0.4070343554
-0.04020629549
-0.4722263926
0.4844986603
-0.05477274055
-0.5621846877
0.576751173
-0.07208724758
-0.6691901392
0.6865046934
-0.09267049707
-0.7966005404
0.8171838445
-0.1171339442
-0.9482087941
0.972672304
-0.1462103374
-1.128658611
1.157735075
-0.180764579
-1.343370966
1.377925288
-0.2218300896
-1.598848816
1.639914416
-0.2706328756
-1.902767594
1.951570477
-0.3286370365
-2.264259337
2.322263605
-0.3975862311
-2.694122698
2.763072003
-0.4795653128
-3.205138154
3.287117353
-0.5770709289
-3.812395941
3.909901667
-0.6931043686
-4.533682704
4.649716263
-0.8312862788
-5.389902613
5.528084616
-0.9959982188
-6.405572572
6.570284615
-1.192553092
-7.60938588
7.805940815
-1.427387858
-9.034893192
9.269728021
-1.708260107
-10.7213794
11.0022517
-2.04440765
-12.71507166
13.05121933
-2.44662905
-15.07084883
15.47307037
-2.927288032
-17.85457346
18.33523263
-3.500331862
-21.14602217
21.71906623
-4.181468986
-25.04223258
25.7233699
-4.988628242
-29.66106601
30.46822548
-5.942676265
-35.14498289
36.09903113
-7.06828884
-41.66518538
42.79079816
-8.394775871
-49.42647319
50.75296051
-9.956758116
-58.67303376
60.23501619
-11.79461236
-69.69554126
71.53339584
-13.95470243
-82.83976197
84.99985215
-16.48937055
-98.51715253
101.051821
-19.45659995
-117.217704
120.1849333
-22.91917432
-139.5256283
142.9882029
-26.94297979
-166.1382816
170.1620868
-31.59398163
-197.8891298
202.5401318
-36.93312035
-235.7754578
241.1145964
-43.00810632
-280.9920188
287.0670049
-49.84058586
-334.971921
341.8044005
-57.4065329
-399.4365771
407.0025243
-65.60674222
-476.4569272
484.6571365
-74.22298983
-568.5288951
577.1451428
-82.85345442
-678.6668455
687.2973101
-90.81830138
-810.5199521
818.4847991
-97.02245901
-968.5181301
974.7222877
-99.75684828
-1158.05574
1160.79013
-96.41233308
-1385.726625
1382.38211
-83.06667653
-1659.626827
1646.281171
-53.89444248
-1989.717811
1960.545577
-2388.387267
2334.814157
-0.0005658470752
-0.04508799312
-0.001289477416
-0.06413906948
-0.002176236757
-0.08342900448
-0.003226400344
-0.1060830078
-0.00436999739
-0.1340760298
-0.005439712652
-0.1698980367
-0.006466430841
-0.21616111
-0.01023805132
-0.2700763848
-0.01758034428
-0.3253690276
-0.02671530064
-0.3876102209
-0.03757623069
-0.4613654222
-0.05050217602
-0.549258695
-0.06587939564
-0.6538128647
-0.08417739323
-0.7783024796
-0.1059462306
-0.9264398845
-0.1318478486
-1.102756911
-0.162662686
-1.312556038
-0.1993248314
-1.562186569
-0.2429428034
-1.859149513
-0.2948418373
-2.212360185
-0.3566035803
-2.632360835
-0.430126726
-3.131614879
-0.5176982746
-3.724824276
-0.6220846912
-4.429296161
-0.7466452626
-5.265341947
-0.8954729992
-6.256744731
-1.073565261
-7.43129355
-1.287012631
-8.821445727
-1.543173504
-10.46521835
-1.850779837
-12.4074651
-2.219931353
-14.701697
-2.662008404
-17.41249589
-3.189627767
-20.61840247
-3.816811013
-24.4150485
-4.559463248
-28.91841359
-5.436108536
-34.26833623
-6.468747553
-40.63254625
-7.68365084
-48.21156799
-9.112004635
-57.24467998
-10.79033027
-68.01721362
-12.76070517
-80.86938714
-15.07073934
-96.20711687
-17.77325945
-114.5151843
-20.92551483
-136.3733723
-24.58762217
-162.4761743
-28.81980547
-193.6569459
-33.67776291
-230.9174999
-39.20521653
-275.4645647
-45.42227632
-328.7548606
-52.30765341
-392.5511998
-59.77189857
-468.9926816
-67.61762079
-560.6831729
-75.48092082
-670.8035452
-82.74569822
-803.2551749
-88.41912562
-962.8447022
-90.9513189
-1155.523547
-87.97563359
-1388.70231
-75.93410619
-1671.668355
-49.54142133
-2016.110496
-2436.910506
-0.0004478656578
-0.04464012504
-0.001004819381
-0.06358211083
-0.001670995072
-0.08276282475
-0.00241291786
-0.1053410804
-0.003116299881
-0.1333726413
-0.003640455283
-0.1693738714
-0.004314189226
-0.2154873601
-0.008330084642
-0.2660604649
-0.01501605081
-0.3186830277
-0.02315729825
-0.3794689309
-0.03283362296
-0.4516890466
-0.04434825965
-0.537743999
-0.05804556402
-0.6401154919
-0.07434492267
-0.7620030427
-0.09373511641
-0.9070496023
-0.1168066231
-1.079685305
-0.14425561
-1.285106942
-0.1769180751
-1.529523986
-0.215790051
-1.820277414
-0.2620691663
-2.166080939
-0.3171941136
-2.577235761
-0.3829031242
-3.065905736
-0.4613028548
-3.646424434
-0.554958276
-4.335640621
-0.667008838
-5.153291309
-0.8013172524
-6.122436233
-0.9626431405
-7.269967627
-1.156817103
-8.62727172
-1.390865272
-10.23117013
-1.673028627
-12.12530163
-2.012657118
-14.36206841
-2.420054511
-17.00509829
-2.906438453
-20.13201844
-3.484171365
-23.83731529
-4.167300015
-28.23528491
-4.972303865
-33.46333197
-5.918897282
-39.68595284
-7.030749069
-47.09971569
-8.33605117
-55.93937792
-9.867900826
-66.48536344
-11.66450077
-79.07278732
-13.76914316
-94.1024741
-16.22992137
-112.0544063
-19.09900126
-133.5042922
-22.43120947
-159.1439662
-26.28151898
-189.8066362
-30.70085095
-226.498168
-35.72932377
-270.4360917
-41.38571284
-323.0984716
-47.65133427
-386.2855783
-54.44580224
-462.1982137
-61.59098611
-553.537989
-68.75791769
-663.6366137
-75.38915425
-796.6239384
-80.58587124
-957.6479852
-82.9444522
-1153.164966
-80.32098743
-1391.325775
-69.49190595
-1682.497436
-45.66771537
-2039.934687
-2480.779975
-0.0003443601767
-0.04429576224
-0.0007578236168
-0.0631686423
-0.001235812168
-0.08228483193
-0.001709552098
-0.1048673355
-0.002007382066
-0.1330748043
-0.002004038575
-0.1693772038
-0.00285692695
-0.214634454
-0.006994071014
-0.2619232946
-0.01300122068
-0.3126758431
-0.02019394145
-0.3722761671
-0.0287428777
-0.4431400595
-0.03891816262
-0.5275686549
-0.05102207903
-0.6280115074
-0.06542798277
-0.7475970611
-0.08256996553
-0.8899075318
-0.1029755946
-1.059279578
-0.1272686816
-1.260813748
-0.1562016739
-1.500590877
-0.1906748341
-1.785804132
-0.2317749638
-2.12498068
-0.2808129715
-2.528197631
-0.3393802656
-3.007338313
-0.4094201893
-3.576384407
-0.493325493
-4.251735207
-0.5940658661
-5.052550872
-0.7153421829
-6.001159851
-0.8617493295
-7.123560449
-1.038910768
-8.450110265
-1.253529728
-10.01655113
-1.513309454
-11.86552182
-1.826760706
-14.04861706
-2.203029169
-16.62882968
-2.651922165
-19.68312534
-3.184241927
-23.30499534
-3.812384308
-27.60714244
-4.551068007
-32.72464801
-5.418051483
-38.8189693
-6.434752358
-46.08301447
-7.626731474
-54.74739877
-9.024028327
-65.08806623
-10.66134768
-77.43546799
-12.57805411
-92.1857674
-14.81791816
-109.8145424
-17.42846171
-130.8937485
-20.45967801
-156.11275
-23.9617566
-186.3045574
-27.98128493
-222.4786397
-32.5551407
-265.8622358
-37.7009586
-317.9526538
-43.40255317
-380.5839837
-49.58798474
-456.0127821
-56.09694631
-547.0290274
-62.63270237
-657.1008577
-68.69185542
-790.5647853
-73.4620832
-952.8777575
-75.67426105
-1150.952788
-73.38918652
-1393.610849
-63.69048354
-1692.196139
-42.24404176
-2061.381128
-2520.354722
-0.0002441703442
-0.0440515886
-0.000508660075
-0.06290414726
-0.0007880368179
-0.08200545052
-0.0009899568294
-0.1046654098
-0.0008985389491
-0.133166214
-0.0003763015429
-0.1698994282
-0.001592879714
-0.2134178555
-0.005571932362
-0.257944213
-0.01086464752
-0.3073830907
-0.01717109244
-0.3659696772
-0.02467277518
-0.4356383241
-0.03360773649
-0.5186336329
-0.04424284489
-0.6173763295
-0.0569109561
-0.734928871
-0.07199821068
-0.8748201891
-0.0899755919
-1.041302099
-0.111400703
-1.239388532
-0.1369471934
-1.475044274
-0.1674231878
-1.755328023
-0.2038081769
-2.08859557
-0.2472935247
-2.484712172
-0.2993435571
-2.955288164
-0.3617769708
-3.513950904
-0.4368724916
-4.176639588
-0.5274985474
-4.961924762
-0.6372590791
-5.891399268
-0.7706306863
-6.990188812
-0.9330418113
-8.287699123
-1.130834743
-9.818758157
-1.371085934
-11.62527054
-1.661362483
-13.7583404
-2.009594462
-16.28059757
-2.424221189
-19.2684985
-2.914634573
-22.8145818
-3.491810475
-27.02996644
-4.168980157
-32.04747813
-4.962238903
-38.02571045
-5.891054724
-45.1541984
-6.978668449
-53.65978497
-8.252386851
-63.81434757
-9.743754551
-75.94410026
-11.48856731
-90.44095445
-13.52665496
-107.7764548
-15.90130135
-128.519102
-18.65809279
-153.3559586
-21.84286933
-183.1197808
-25.49829513
-218.8232139
-29.65834735
-261.7021835
-34.33970643
-313.2712947
-39.52859794
-375.3950921
-45.16097486
-450.3804052
-51.09305756
-541.0969447
-57.05792905
-651.1359862
-62.60199947
-785.0207149
-66.9926647
-948.4870922
-69.08457009
-1148.860883
-67.12681965
-1395.5686
-58.48545136
-1700.837507
-39.24487889
-2080.621701
-2555.959844
-0.000158692381
-0.0438928929
-0.0002870427166
-0.06277579183
-0.000377563251
-0.08191492539
-0.0003096730829
-0.1047332943
0.0001469456851
-0.1336228243
0.0009479980548
-0.1707004672
-0.0005652625983
-0.2119045746
-0.004145476741
-0.254363971
-0.008785638802
-0.3027428936
-0.01430762398
-0.3604476503
-0.02087777267
-0.4290681268
-0.02870610838
-0.5108052412
-0.03802568015
-0.6080566938
-0.04912990077
-0.7238245782
-0.06235829337
-0.8615917163
-0.07812630932
-1.025533995
-0.09692769152
-1.220587056
-0.1193621931
-1.452609671
-0.1461563241
-1.72853379
-0.1782018372
-2.056549951
-0.2166014091
-2.446312505
-0.2627353279
-2.909154143
-0.3183480208
-3.458338136
-0.3856552429
-4.109332282
-0.4674692951
-4.880110665
-0.5673302142
-5.791538309
-0.6896079516
-6.867911041
-0.8395100031
-8.137797034
-1.022938042
-9.635330064
-1.246227104
-11.40198138
-1.515910558
-13.48865684
-1.838702542
-15.95780548
-2.221786606
-18.88541434
-2.673343336
-22.36302495
-3.203167015
-26.50014266
-3.823246746
-31.42739826
-4.548256797
-37.30070031
-5.395960296
-44.30649471
-6.387536244
-52.66820894
-7.547837524
-62.65404609
-8.905553044
-74.58638469
-10.49323958
-88.85326778
-12.34714273
-105.9225516
-14.50668897
-126.3595557
-17.01346096
-150.8491866
-19.90935537
-180.2238863
-23.23349987
-215.4990694
-27.01729028
-257.918393
-31.27663897
-309.011946
-36.00011049
-370.6716205
-41.13106812
-445.2494476
-46.54110334
-535.6869095
-51.99087898
-645.6862106
-57.07285612
-779.9387378
-61.12793755
-944.4320108
-63.12480051
-1146.86402
-61.48593535
-1397.207465
-53.83723016
-1708.486213
-36.6480683
-2097.810863
-2587.889142
-8.685487458e-05
-0.043806035
-9.186543469e-05
-0.06277077694
3.480206442e-06
-0.08201026699
0.000362409224
-0.1050922182
0.001229662582
-0.13449007
0.001938713193
-0.1714095058
0.0002629118483
-0.2102287556
-0.003039581362
-0.2510614542
-0.007066126594
-0.2987163193
-0.01185687699
-0.3556568655
-0.01755493038
-0.4233700337
-0.02434412454
-0.5040160013
-0.03242612136
-0.5999746451
-0.04205735238
-0.7141932887
-0.05353541682
-0.8501135872
-0.06722693387
-1.011842407
-0.08357236342
-1.204241551
-0.1031134458
-1.433068507
-0.1265167964
-1.705130359
-0.1546153802
-2.02845128
-0.1884562764
-2.412471533
-0.2293678384
-2.868242497
-0.2790487744
-3.408657141
-0.3396789556
-4.048702032
-0.4140431389
-4.805746442
-0.5056393613
-5.699942058
-0.6187226912
-6.754827669
-0.7582162091
-7.998303463
-0.9294659132
-9.464080281
-1.137949008
-11.19349819
-1.389122711
-13.23748302
-1.688559453
-15.65836862
-2.042361914
-18.53161176
-2.457722643
-21.94766411
-2.943479548
-26.01438565
-3.510585815
-30.86029187
-4.172487899
-36.63879813
-4.945439741
-43.53354271
-5.848773204
-51.76487539
-6.905126882
-61.59769225
-8.140606557
-73.35090495
-9.584830789
-87.40904343
-11.27079248
-104.2365899
-13.23441987
-124.3959282
-15.5136664
-148.5699401
-18.14686851
-177.5906841
-21.16998123
-212.4759567
-24.61212582
-254.4762484
-28.48862281
-305.1354489
-32.79033453
-366.3699088
-37.46760177
-440.5721803
-42.40634686
-530.7481644
-47.39283913
-640.6997183
-52.06213015
-775.2694468
-55.8230128
-940.6711281
-57.74938662
-1144.937646
-56.4235215
-1398.53333
-49.71066017
-1715.199074
-34.43460926
-2113.086914
-2616.407518
-2.672252941e-05
-0.04377930971
7.918088766e-05
-0.06287667647
0.0003629168075
-0.08229399919
0.001023584512
-0.105752881
0.002307261214
-0.1357737394
0.002719246534
-0.17182148
0.0007805343401
-0.2082900276
-0.002153977881
-0.2481269214
-0.005572657145
-0.295297615
-0.009649441704
-0.3515800518
-0.0145042999
-0.4185151417
-0.02029834931
-0.4982219133
-0.0272072665
-0.5930656842
-0.03545664633
-0.70594386
-0.0453103937
-0.8402597863
-0.05709623121
-1.000056511
-0.07121350243
-1.190124218
-0.08815961389
-1.41612233
-0.1085565546
-1.684733354
-0.1331938662
-2.003813899
-0.1630801618
-2.382585179
-0.1995137715
-2.83180882
-0.2441760169
-3.363994849
-0.2992439051
-3.993634088
-0.3675054005
-4.737484909
-0.4524250166
-5.615022414
-0.558096617
-6.649156023
-0.6890482963
-7.867351714
-0.849936619
-9.303191873
-1.045299965
-10.99813474
-1.279552049
-13.00323083
-1.557271256
-15.38064931
-1.883692371
-18.20519056
-2.265239208
-21.56611718
-2.709984427
-25.56964034
-3.228007223
-30.34226897
-3.831674468
-36.0351308
-4.53588647
-42.82933058
-5.358306266
-50.94245552
-6.319569488
-60.63642889
-7.443441283
-72.2270331
-8.756881574
-86.09560305
-10.28993798
-102.7035335
-12.0753742
-122.6104919
-14.14786866
-146.4974456
-16.5425575
-175.1959952
-19.29256866
-209.7259455
-22.42503809
-251.3437789
-25.95487655
-301.6056104
-29.87521345
-362.4495719
-34.14299825
-436.3043955
-38.65755957
-526.2336031
-43.2289747
-636.1283031
-47.53179162
-770.9666299
-51.037616
-937.1653037
-52.91753028
-1143.057732
-51.90128256
-1399.549578
-46.07481123
-1721.025545
-32.58854884
-2126.573176
-2641.753203
2.500837649e-05
-0.04380431592
0.0002424068747
-0.06309407136
0.0007256449317
-0.08277723382
0.001682509257
-0.1067097409
0.003222890787
-0.1373141142
0.003345751942
-0.1719443312
0.00140277364
-0.2063470355
-0.001034302706
-0.2456898276
-0.003919686391
-0.2924122102
-0.007365718345
-0.348133995
-0.0114721334
-0.4144086981
-0.01637982657
-0.4933141875
-0.02224282793
-0.587202646
-0.02926161742
-0.6989250292
-0.03767391744
-0.831847441
-0.04777744215
-0.9899529364
-0.05994033458
-1.177961274
-0.07462616589
-1.401436442
-0.09242177914
-1.666937688
-0.1140833695
-1.98215225
-0.1405981746
-2.356070326
-0.1732660614
-2.799140878
-0.213794479
-3.323466395
-0.2643969217
-3.943031601
-0.327876364
-4.674005425
-0.4076275421
-5.5352712
-0.5074839994
-6.549299516
-0.6314383859
-7.743397252
-0.783346887
-9.151283276
-0.9668002624
-10.81468126
-1.185283528
-12.78474746
-1.442580344
-15.12335238
-1.743275549
-17.90449525
-2.093213905
-21.21617873
-2.499851058
-25.1630031
-2.972510802
-29.86960914
-3.522592559
-35.48504897
-4.163769002
-42.18815403
-4.912187618
-50.19403684
-5.786666814
-59.76194958
-6.80885515
-71.2048447
-8.003307692
-84.90115043
-9.397415062
-101.3094261
-11.02108817
-120.9868188
-12.9060643
-144.6124694
-15.08461871
-173.0174408
-17.58737719
-207.2231869
-20.43977227
-248.4913838
-23.65648013
-298.3889025
-27.23289429
-358.8731577
-31.13225449
-432.4050353
-35.26647216
-522.0993854
-39.46784193
-631.9269334
-43.44759177
-766.98688
-46.73555593
-933.8773396
-48.59273645
-1141.200551
-47.88518628
-1400.257128
-42.90259706
-1726.008135
-31.09678789
-2138.378985
-2664.139683
7.681281071e-05
-0.04388112687
0.0004177021038
-0.06343495713
0.001117659456
-0.08347718781
0.002401329429
-0.1079934065
0.003918984953
-0.1388317633
0.003428926318
-0.1714542631
0.001790558338
-0.2047086549
-0.0002258068847
-0.2436734465
-0.002617429291
-0.2900205688
-0.005481474367
-0.3452699278
-0.008902396869
-0.4109877501
-0.01300404373
-0.4892125115
-0.01792287381
-0.5822837832
-0.0238377317
-0.6930101347
-0.03096367536
-0.8247214576
-0.03957350601
-0.9813430622
-0.05001085675
-1.167523878
-0.06271646758
-1.388730783
-0.07825917277
-1.651394937
-0.0973871985
-1.963024174
-0.1210961875
-2.332361298
-0.1507179465
-2.769519073
-0.1880170054
-3.286167306
-0.2352614582
-3.895787117
-0.2952430965
-4.614023746
-0.371197834
-5.459316421
-0.4665646827
-6.45393261
-0.5846728712
-7.625288987
-0.7285323295
-9.00742373
-0.9008640778
-10.64234941
-1.104402996
-12.58120844
-1.342353445
-14.88540184
-1.618844099
-17.62800451
-1.939286494
-20.89573626
-2.310623146
-24.79166637
-2.741506278
-29.43872593
-3.242453804
-34.98410138
-3.826016299
-41.60459144
-4.506960649
-49.51309243
-5.302458171
-58.96645197
-6.232244027
-70.2750588
-7.318706605
-83.81468778
-8.58684574
-100.0412869
-10.0640144
-119.5096501
-11.77931924
-142.8971646
-13.76249672
-171.0342633
-16.04198206
-204.9437015
-18.64177053
-245.8915953
-21.57648665
-295.4541864
-24.84379836
-355.605846
-28.41296822
-428.8358654
-32.20777328
-518.3045803
-36.08128558
-628.053421
-39.77890928
-763.2892563
-42.88455801
-930.7716908
-44.74260761
-1139.342502
-44.34525134
-1400.654484
-40.17061437
-1730.182771
-29.94896215
-2148.600637
-2683.757522
0.0001307837201
-0.04401190856
0.0006032397442
-0.06390740944
0.001519412879
-0.08439335729
0.003132771888
-0.1096067606
0.004438839446
-0.1401378237
0.003678346364
-0.1706937601
0.002283031717
-0.2033133273
0.0006213903486
-0.2420117892
-0.001354699948
-0.2880444595
-0.003729987427
-0.3428946183
-0.0065757136
-0.4081419987
-0.009998420497
-0.485789776
-0.01411591097
-0.5781662609
-0.01908370173
-0.6880423087
-0.02509428433
-0.8187108371
-0.03240274781
-0.9740345578
-0.04133662451
-1.15858996
-0.05232913424
-1.377738229
-0.06596246268
-1.637761568
-0.0830157377
-1.945970856
-0.1045281455
-2.310848856
-0.1318816206
-2.74216556
-0.16689667
-3.251152228
-0.2118785203
-3.850805241
-0.2695449311
-4.556357297
-0.342849816
-5.386011483
-0.4347031367
-6.36207923
-0.5476966183
-7.51229543
-0.6840324624
-8.871087794
-0.8457132759
-10.4806685
-1.034931327
-12.39199029
-1.25450991
-14.66582316
-1.508271713
-17.37424262
-1.801294363
-20.60271353
-2.140074509
-24.45288615
-2.532651234
-29.04614913
-2.988730722
-34.52802184
-3.519834297
-41.07348778
-4.139472034
-48.89345464
-4.863323552
-58.24260036
-5.709400605
-69.42898169
-6.698145938
-82.82594239
-7.852418371
-98.88701445
-9.197287195
-118.1647812
-10.75952535
-141.3349264
-12.56663214
-169.2271565
-14.64514699
-202.8651867
-17.01789189
-243.5188504
-19.69961682
-292.7724614
-22.69029951
-352.6151633
-25.96500446
-425.5611605
-29.4587423
-514.8108425
-33.04410055
-624.4680628
-36.49841182
-759.8349451
-39.4559315
-927.8141711
-41.33847902
-1137.459954
-41.25525271
-1400.737711
-37.85889532
-1733.579129
-29.13733225
-2157.3222
-2700.775965
0.0001772069115
-0.04418911331
0.0007848546746
-0.06451505298
0.00191106934
-0.08551956775
0.003725156666
-0.1114208424
0.004618840602
-0.1410314997
0.00387254433
-0.169947453
0.002727743663
-0.2021685129
0.001367772186
-0.2406518009
-0.0002496159508
-0.2864270516
-0.002194376902
-0.3409498343
-0.004527055993
-0.4058092934
-0.007339998535
-0.482976804
-0.01073924556
-0.5747669813
-0.0148680912
-0.6839134275
-0.01991079016
-0.8136681005
-0.02611142732
-0.9678338806
-0.03379570262
-1.150905645
-0.04340262768
-1.368131263
-0.05554282043
-1.625621339
-0.07103897186
-1.930474666
-0.09100256835
-2.290885229
-0.1168881745
-2.71627992
-0.1505562538
-3.217484119
-0.194288753
-3.807072716
-0.2506306003
-4.500015419
-0.3221250457
-5.314516994
-0.4110555965
-6.27314862
-0.5192786247
-7.404072331
-0.6483060885
-8.742060251
-0.7996147157
-10.32935979
-0.9750544797
-12.21655045
-1.177225091
-14.46365246
-1.409744717
-17.14172293
-1.677416494
-20.33504169
-1.986331947
-24.14397064
-2.343960826
-28.68852019
-2.759257859
-34.11272476
-3.242801411
-40.58994415
-3.806959846
-48.32929616
-4.466068294
-57.58349184
-5.236591431
-68.65845852
-6.137232254
-81.92530152
-7.188944055
-97.83530262
-8.414772074
-116.9389532
-9.839431059
-139.9102674
-11.48847249
-167.578115
-13.38682466
-200.9668345
-15.55638657
-241.3492884
-18.0122193
-290.3166287
-20.75666072
-349.8707218
-23.77040305
-422.5474181
-26.99915486
-511.5820907
-30.33388436
-621.1333333
-33.58185265
-756.5869768
-36.42433086
-924.9716929
-38.35523818
-1135.529047
-38.59251757
-1400.500431
-35.95074409
-1736.220902
-28.65669294
-2164.616252
-2715.344339
0.0002328165405
-0.04442192766
0.0009985004283
-0.06528073354
0.002376684184
-0.08689774796
0.004224194287
-0.1132683477
0.004532973941
-0.1413402727
0.003826128816
-0.1692405991
0.00295886334
-0.2013012365
0.001927606967
-0.2396205315
0.0006890258614
-0.2851884551
-0.0008174625396
-0.3394433282
-0.002647904443
-0.4039788313
-0.004888860303
-0.4807358255
-0.007643108584
-0.5720127081
-0.01105050367
-0.6805060051
-0.01529444565
-0.8094241295
-0.0206176929
-0.9625106024
-0.02735496426
-1.144168343
-0.03596656314
-1.359519631
-0.04708448913
-1.614503384
-0.06158109828
-1.915978026
-0.08065254939
-2.271813753
-0.1058421372
-2.691090305
-0.139028607
-3.184297615
-0.1823703369
-3.763730953
-0.2381147278
-4.444270991
-0.3082923776
-5.244339295
-0.3945275025
-6.186913441
-0.4980219694
-7.300577798
-0.6197680349
-8.620314106
-0.7609140956
-10.18821364
-0.9231328007
-12.05433165
-1.108908127
-14.27787705
-1.321711607
-16.92891937
-1.566102254
-20.09065098
-1.847792001
-23.86228084
-2.173717568
-28.36259456
-2.552139607
-33.73430268
-2.992775842
-40.14930785
-3.506962506
-47.81510946
-4.107829292
-56.98262499
-4.810459421
-67.95582835
-5.632012253
-81.10374864
-6.591754223
-96.87556062
-7.710949974
-115.8197574
-9.012520852
-138.6086964
-10.52034468
-166.0702911
-12.25800939
-199.2291697
-14.24673976
-239.3605581
-16.50209413
-288.0612743
-19.0288411
-347.3439749
-21.81317145
-419.7630877
-24.81102418
-508.584238
-27.93078395
-618.0135735
-31.00786093
-753.5098998
-33.76753714
-922.2120167
-35.77106821
-1133.525516
-36.33768606
-1399.933813
-34.43256764
-1738.126021
-28.50432625
-2170.544493
-2727.593383
0.0002900832485
-0.04471200835
0.001217900362
-0.06620854651
0.002840908173
-0.08852075134
0.004571683181
-0.1149991168
0.00461859236
-0.1413871739
0.00409446164
-0.1687164582
0.003444602437
-0.2006513648
0.002660126629
-0.2388360408
0.001705005306
-0.2842333165
0.0005255174552
-0.3382638205
-0.0009293301179
-0.4025239616
-0.002739298188
-0.478925833
-0.005003105428
-0.5697488746
-0.007857037277
-0.6776520454
-0.01148691794
-0.8057942204
-0.01614973705
-0.957847754
-0.02220574682
-1.138112305
-0.0301580189
-1.351567331
-0.04069661516
-1.603964762
-0.05476718315
-1.901907431
-0.07361057084
-2.252970342
-0.09882801007
-2.66587284
-0.1322699122
-3.150855686
-0.1758611852
-3.720139652
-0.23143273
-4.388699419
-0.3004508612
-5.175321129
-0.3839241839
-6.103440067
-0.4825424751
-7.201959447
-0.5969674344
-8.505889079
-0.7281892955
-10.05699171
-0.877819838
-11.90470104
-1.048288475
-14.10740835
-1.24294589
-16.7342619
-1.46612009
-19.86747673
-1.723162079
-23.60523881
-2.020510764
-28.06524583
-2.365788988
-33.38902442
-2.767934651
-39.74716213
-3.237358479
-47.3456856
-3.786114564
-56.43386885
-4.428064105
-67.31387878
-5.179004412
-80.35280829
-6.056723514
-95.99784149
-7.080938314
-114.7955425
-8.273024661
-137.4166101
-9.655449996
-164.6878658
-11.25072426
-197.6338954
-13.07964201
-237.5316403
-15.15844926
-285.982467
-17.49443576
-345.0079883
-20.07920111
-417.1783224
-22.87853466
-505.7849044
-25.81739405
-615.0747141
-28.75775244
-750.5695414
-31.46628026
-919.5034889
-33.56727011
-1131.424526
-34.47456554
-1399.026518
-33.29374749
-1739.306839
-28.67990243
-2175.158338
-2737.636345
0.0003626424871
-0.04507464928
0.001464599148
-0.06731050079
0.003230401979
-0.09028655157
0.00462054443
-0.1163892559
0.004548093532
-0.1413147185
0.004135596861
-0.1683039558
0.003650852525
-0.2001666135
0.003059385364
-0.2382445654
0.002334028414
-0.28350795
0.001427063277
-0.3373568443
0.0002905395008
-0.4013874251
-0.001151808672
-0.4774834705
-0.003001763207
-0.5678989041
-0.00540338864
-0.6752504024
-0.008560759469
-0.8026368308
-0.01276067051
-0.953647823
-0.01840552207
-1.132467433
-0.02605104783
-1.343921784
-0.03645979637
-1.593555993
-0.05065024261
-1.887716962
-0.06991360192
-2.233706959
-0.09580485041
-2.639981569
-0.1300556884
-3.116604813
-0.1742726006
-3.675922701
-0.2297913367
-4.333180647
-0.2975234751
-5.10758895
-0.3779754968
-6.022988
-0.4714985024
-7.108436387
-0.5785958581
-8.398791658
-0.7002244599
-9.935363033
-0.8380033266
-11.76692211
-0.9943325962
-13.95107901
-1.172447882
-16.55614656
-1.376452262
-19.6634723
-1.611353897
-23.37033713
-1.883130045
-27.79346964
-2.198823779
-33.07333066
-2.566672743
-39.37931311
-2.996264412
-46.91609391
-3.498703375
-55.93142984
-4.086778693
-66.72580343
-4.775098123
-79.66448883
-5.580171136
-95.19276845
-6.520382003
-113.8553317
-7.615803838
-136.3211882
-8.887744098
-163.4159255
-10.3578911
-196.1637484
-12.04684753
-235.8426838
-13.97174655
-284.0575679
-16.14250785
-342.837227
-18.5560919
-414.7647383
-21.18783521
-503.1531611
-23.97852699
-612.2840223
-26.81536638
-747.732702
-29.50403488
-916.8148203
-31.72807602
-1129.200485
-32.98996747
-1397.764626
-32.52651491
-1739.770291
-29.18549306
-2178.49936
-2745.570019
0.0004766104567
-0.04555125771
0.001758417019
-0.06859230364
0.003538491613
-0.09206662218
0.004347133509
-0.1171978926
0.004214350776
-0.1411819292
0.003950600794
-0.1680401977
0.003645001695
-0.1998610047
0.003253416443
-0.2378529688
0.002753317621
-0.2830078382
0.002097611531
-0.3367011236
0.001233950148
-0.4005237476
8.156841186e-05
-0.4763310713
-0.001471893005
-0.5663454243
-0.00358577508
-0.6731365013
-0.006487105008
-0.7997354817
-0.0104978936
-0.9496370155
-0.01606706287
-1.126898245
-0.02381297616
-1.336175852
-0.03456417685
-1.582804773
-0.04939388841
-1.872887227
-0.06962112272
-2.213479698
-0.09669797064
-2.612904695
-0.1320859029
-3.081216863
-0.1770263754
-3.630982207
-0.2323416295
-4.277865368
-0.2984636769
-5.041466874
-0.3755539219
-5.945897712
-0.463792297
-7.020197963
-0.5636560484
-8.29892785
-0.6761449819
-9.822874039
-0.8029139634
-11.64015307
-0.9463367985
-13.80765612
-1.109531059
-16.39295225
-1.296379803
-19.47662351
-1.511569217
-23.15514768
-1.760654602
-27.54438421
-2.05015798
-32.78382726
-2.387695805
-39.04177524
-2.782131439
-46.52165825
-3.243742048
-55.46981918
-3.784384739
-66.18516072
-4.417645391
-79.03122814
-5.158939666
-94.45147416
-6.025532813
-112.9887385
-7.036421037
-135.3103
-8.211997065
-162.2403495
-9.573376874
-194.8023685
-11.14121117
-234.2748495
-12.93372337
-282.2650557
-14.96359242
-340.807358
-17.23313332
-412.4951974
-19.72698397
-500.6593104
-22.4011779
-609.6098284
-25.16693719
-744.9669428
-27.86692136
-914.1148362
-30.24052686
-1126.826879
-31.87355878
-1396.131594
-32.12585601
-1739.517994
-30.02546657
-2180.599749
-2751.475624
0.0006457047592
-0.04619696143
0.002073599331
-0.07002019543
0.0037749083
-0.09376792827
0.004346360655
-0.1177693414
0.004280209886
-0.1411157738
0.004122307201
-0.1678822893
0.00393490368
-0.1996735944
0.003669964594
-0.2375880218
0.003303850829
-0.2826417152
0.002787641878
-0.3361849042
0.002062866962
-0.3997989609
0.001040760716
-0.475308952
-0.0004032294338
-0.5649014198
-0.002446440983
-0.6710932748
-0.005343680941
-0.796838226
-0.009453595181
-0.9455270859
-0.01528094545
-1.121070879
-0.02351789081
-1.327938891
-0.03506174597
-1.571260899
-0.05101081135
-1.85693814
-0.07262480416
-2.191865671
-0.1011902793
-2.584339186
-0.1378083883
-3.04459872
-0.1833147383
-3.585475824
-0.2380763279
-4.223103748
-0.3021733817
-4.977369786
-0.375583193
-5.872487862
-0.4584494776
-6.937331634
-0.5513080845
-8.20606919
-0.6552366996
-9.718945367
-0.7719293503
-11.52346037
-0.9037248054
-13.67586061
-1.053618289
-16.24305872
-1.22528149
-19.30496027
-1.423103496
-22.95732564
-1.652260183
-27.31522749
-1.91881267
-32.51727476
-2.229834538
-38.73075333
-2.593561674
-46.1579311
-3.019559247
-55.04382157
-3.51888979
-65.68583016
-4.104274785
-78.44584312
-4.790216771
-93.76553215
-5.593062079
-112.1858932
-6.530952557
-134.3724095
-7.623602432
-161.1476996
-8.891800395
-193.5341706
-10.35648586
-232.810164
-12.0371855
-280.5843561
-13.94948597
-338.8950575
-16.10108785
-410.3435955
-18.48576756
-498.2746307
-21.07429426
-607.0213017
-23.80092238
-742.2403146
-26.54348698
-911.3722715
-29.09428851
-1124.276078
-31.11773607
-1394.108147
-32.08938834
-1738.546342
-31.20652508
-2181.482613
-2755.419589
0.0008689323606
-0.04706589183
0.002367221211
-0.07151848064
0.003909618684
-0.09531032183
0.004330823125
-0.118190541
0.004271713496
-0.1410566581
0.00416854782
-0.1677791164
0.004037261034
-0.199542299
0.003831058713
-0.2373818097
0.003524000152
-0.2823346456
0.003064296971
-0.3357251889
0.002385520631
-0.3991201714
0.001387585738
-0.4743110033
-7.373882536e-05
-0.563440081
-0.002205563909
-0.6689614357
-0.005304961258
-0.7937388142
-0.009785053756
-0.9410469799
-0.01621234149
-1.114643576
-0.02533062515
-1.318820591
-0.03807822979
-1.558513273
-0.05552831362
-1.839488027
-0.07880323765
-2.168590716
-0.1089276867
-2.554214706
-0.1466404172
-3.006885973
-0.1923573713
-3.539758856
-0.2461130467
-4.169348053
-0.3077806103
-4.915702198
-0.3772870759
-5.802981361
-0.4548322063
-6.859786463
-0.541053147
-8.119848204
-0.6371117543
-9.622886711
-0.7447304617
-11.41584162
-0.8662022398
-13.55438879
-1.004398757
-16.10486216
-1.162793752
-19.14656525
-1.345508557
-22.77461081
-1.557384696
-27.10335132
-1.804083743
-32.27057569
-2.092213216
-38.44262383
-2.429476122
-45.82066818
-2.824836235
-54.64846143
-3.288695188
-65.22197118
-3.833059621
-77.90147866
-4.471692342
-93.12689942
-5.220216391
-111.4373691
-6.096133568
-133.4964923
-7.118712889