/*--------------------------------*- C++ -*----------------------------------*\
  =========                 |
  \\      /  F ield         | OpenFOAM: The Open Source CFD Toolbox
   \\    /   O peration     | Website:  https://openfoam.org
    \\  /    A nd           | Version:  12
     \\/     M anipulation  |
\*---------------------------------------------------------------------------*/
FoamFile
{
    format      ascii;
    class       volScalarField;
    location    "450";
    object      T;
}
// * * * * * * * * * * * * * * * * * * * * * * * * * * * * * * * * * * * * * //

dimensions      [0 0 0 1 0 0 0];

internalField   nonuniform List<scalar> 
16200
(
295.284302
295.2755751
295.124762
294.7731512
294.0721912
292.6434246
289.6179964
283.9926199
280.5515829
280.2442696
280.3469889
280.4402503
280.5558659
280.6832589
280.8327506
281.003391
281.2015145
281.4303763
281.6957973
282.0033262
282.3596349
282.7718429
283.2475859
283.7946903
284.4206231
285.1316266
285.9314838
286.8198117
287.7899711
288.8270331
289.9067416
290.9967098
292.0603273
293.0624546
293.9747531
294.7788715
295.4668923
296.0398427
296.5053314
296.8751017
297.1629551
297.3830326
297.548691
297.6717349
297.7621385
297.8279726
297.8755907
297.909851
297.9344092
297.9519639
297.9644924
297.9734306
297.9798136
297.9844014
297.987719
297.9902403
297.9920848
297.9937147
297.9948461
297.9971307
294.5965667
294.5543006
294.3525173
293.9167585
293.0534741
291.2577672
287.4777923
281.7055922
279.4874682
279.3879278
279.4941591
279.5965236
279.7212228
279.8593381
280.0218332
280.2081758
280.4250898
280.6764783
280.968701
281.308042
281.7018468
282.1579634
282.6846371
283.290142
283.9820703
284.7662557
285.6452147
286.6160252
287.6678836
288.78017
289.9223512
291.0569216
292.1450836
293.1531982
294.057428
294.8452785
295.5143144
296.0695984
296.5209289
296.8807243
297.1623907
297.3792371
297.5436642
297.6666875
297.7576823
297.8243425
297.872796
297.907797
297.9329592
297.9509821
297.9638585
297.9730444
297.9795993
297.9842938
297.9876873
297.9902296
297.9921245
297.9937346
297.9948852
297.9972747
293.9958129
293.9110487
293.6468198
293.1127466
292.0580911
289.8114963
285.0646243
279.950556
278.6324887
278.6690144
278.7832646
278.8943428
279.0304388
279.1820726
279.3605492
279.5659098
279.8052096
280.0830514
280.406331
280.7820832
281.2183322
281.7236503
282.3068899
282.9767447
283.7408159
284.6041788
285.5673291
286.6235492
287.7562597
288.9376718
290.1303145
291.2921791
292.3840241
293.3759078
294.2504061
295.0020937
295.6345905
296.1570951
296.5815381
296.9208292
297.1878071
297.3946998
297.5527126
297.6717959
297.7604773
297.8258415
297.8736024
297.9082529
297.9332471
297.9511943
297.9640373
297.9732061
297.9797486
297.9844266
297.9878063
297.9903181
297.9922106
297.9937844
297.9949035
297.9972607
293.5077239
293.3769107
293.0393187
292.3801082
291.0770693
288.2945431
282.5936145
278.6367536
278.0260286
278.107996
278.2288918
278.3502528
278.498584
278.6649077
278.8607491
279.0868833
279.3506892
279.6575395
280.0148929
280.4305623
280.9132797
281.4723655
282.1172734
282.8569693
283.6986227
284.6456622
285.6951766
286.8349151
288.0408709
289.2772416
290.5002478
291.6655251
292.736293
293.6888953
294.5138741
295.2133199
295.7965965
296.276418
296.6662324
296.9789539
297.2265144
297.4198064
297.5686443
297.6817374
297.766616
297.8296226
297.8759476
297.9097345
297.9342115
297.9518476
297.9644998
297.9735479
297.9800098
297.9846287
297.9879652
297.990433
297.9923083
297.9938475
297.9949384
297.9972963
293.1208231
292.9417955
292.5215223
291.7077285
290.0673991
286.5585356
280.4053435
277.8118926
277.5966837
277.6957038
277.8258698
277.959127
278.121504
278.3047157
278.5203529
278.7700609
279.0615424
279.4010188
279.796598
280.2569774
280.7917063
281.4108764
282.1243749
282.9409349
283.8663628
284.9010601
286.0369655
287.2544852
288.5209289
289.7925738
291.0211848
292.1631601
293.1873825
294.0787064
294.8365031
295.4701526
295.9939694
296.4233052
296.7724047
297.053706
297.2779419
297.4544976
297.5916797
297.6968576
297.7764725
297.8360345
297.880131
297.912485
297.9360419
297.9530851
297.9653515
297.9741454
297.980436
297.9849363
297.9881888
297.990589
297.9924264
297.9939258
297.9949772
297.9973216
292.8357257
292.6070217
292.0987297
291.1112356
289.0536818
284.5460932
278.8552217
277.3249853
277.3264286
277.4341976
277.5752993
277.721988
277.8999895
278.1020954
278.3398806
278.6160355
278.9386803
279.3150219
279.7539462
280.2650901
280.8587513
281.5454817
282.3349939
283.2348498
284.2482418
285.3709887
286.588103
287.8711004
289.178177
290.4591274
291.6644264
292.7550031
293.7083894
294.519386
295.1961562
295.754437
296.2122765
296.586581
296.8916063
297.1388401
297.3375691
297.4955634
297.6195763
297.7156113
297.7889925
297.8443639
297.885672
297.9161821
297.9385228
297.9547631
297.9664972
297.9749358
297.9809866
297.9853227
297.9884608
297.9907757
297.9925604
297.9940166
297.9950243
297.9973579
292.6534099
292.3678174
291.7585366
290.5599234
287.9924095
282.4055012
277.8267436
277.0482678
277.2077803
277.3241726
277.4776918
277.6398232
277.8357318
278.0596058
278.3229658
278.6296815
278.9883459
279.407161
279.8957373
280.4644539
281.1240273
281.8849594
282.7560849
283.7428286
284.8444551
286.0505198
287.33735
288.6665464
289.987967
291.2478316
292.3994127
293.4118595
294.2734785
294.9893607
295.5755569
296.052735
296.4412829
296.7585828
297.0181966
297.2302786
297.4025057
297.5409967
297.6509688
297.7370879
297.80358
297.8542273
297.8923277
297.9206741
297.9415609
297.9568251
297.9679031
297.9758996
297.9816505
297.985782
297.9887783
297.9909914
297.9927101
297.9941189
297.9950776
297.997398
292.5892912
292.2380531
291.5082705
290.0219964
286.7406577
280.4818641
277.2693151
277.0412717
277.245123
277.3721114
277.5401527
277.7203888
277.9371313
278.1862116
278.479038
278.8206865
279.2201955
279.6866538
280.2302499
280.8618577
281.592301
282.4315915
283.387013
284.4607415
285.6464199
286.9253077
288.2635235
289.6128601
290.9172541
292.123559
293.1921885
294.1034151
294.857204
295.4681891
295.9587392
296.3527759
296.6716442
296.9322435
297.1468748
297.3240895
297.4698757
297.5887276
297.6843921
297.7602676
297.8195358
297.8651519
297.8997826
297.925753
297.9450203
297.9591836
297.9695138
297.977002
297.9824064
297.9863011
297.9891341
297.9912318
297.9928739
297.9942314
297.9951375
297.9974443
292.6559057
292.2377524
291.366397
289.510494
285.2343155
279.0978666
277.1880727
277.2912978
277.4422104
277.5831931
277.7674048
277.9678778
278.2077712
278.4847258
278.8100035
279.1898872
279.6338744
280.1518889
280.7546499
281.4533543
282.2585714
283.1791204
284.2196013
285.3772929
286.638113
287.9730633
289.3375244
290.6753927
291.9287612
293.049935
294.0101976
294.8025138
295.4380686
295.9394209
296.333332
296.6452999
296.8964133
297.102332
297.2737005
297.4173187
297.5374871
297.6371522
297.7186918
297.7843333
297.8362914
297.8767487
297.9077744
297.9312445
297.9487872
297.9617652
297.9712826
297.978214
297.9832369
297.98687
297.9895224
297.9914936
297.9930505
297.9943536
297.9952034
297.9974956
292.8370732
292.3436713
291.2941755
288.994004
283.5744367
278.3291009
277.5135975
277.613682
277.7879191
277.9450155
278.1472001
278.3701606
278.6356869
278.9433282
279.3042253
279.7258728
280.2183006
280.7922504
281.458907
282.2294761
283.1135745
284.1175859
285.2416364
286.4759995
287.7969403
289.164249
290.5237357
291.8151672
292.9838915
293.9921093
294.8243612
295.4863514
295.9989388
296.39048
296.6901537
296.9235488
297.1105395
297.2650178
297.3957426
297.5077223
297.6036344
297.6849904
297.7529228
297.8085996
297.8533587
297.8886759
297.9160677
297.9369891
297.9527552
297.9645002
297.9731646
297.9795074
297.9841245
297.9874782
297.9899373
297.9917736
297.9932386
297.9944848
297.9952752
297.9975521
293.1187516
292.5317303
291.2306578
288.3034858
282.0180923
278.1347377
277.9333157
278.0833516
278.2651473
278.4408744
278.6634813
278.9118857
279.2064403
279.54869
279.9497211
280.4181736
280.964566
281.6002029
282.3362977
283.1833685
284.1490888
285.2359674
286.4376466
287.7351915
289.0939773
290.4633318
291.7825584
292.9922804
294.0461912
294.9196002
295.6110067
296.1375491
296.5275069
296.8127717
297.0231584
297.1831643
297.3107774
297.4178102
297.5110521
297.5937652
297.6671146
297.7313122
297.7863786
297.8325404
297.8703535
297.9006586
297.9244697
297.942854
297.9568342
297.9673287
297.975121
297.9808575
297.9850539
297.9881165
297.9903738
297.9920689
297.993437
297.9946247
297.995352
297.9976137
293.4996696
292.8041013
291.1825997
287.3478429
280.8557022
278.308824
278.5081338
278.6713694
278.8676284
279.0643423
279.3100151
279.5871606
279.9146956
280.2961626
280.7426173
281.2636507
281.8700085
282.5730116
283.383135
284.3091987
285.3556865
286.5197568
287.7868022
289.126956
290.4944742
291.8308042
293.0734348
294.1691185
295.0839819
295.8079425
296.3525561
296.7441497
297.0159047
297.2011536
297.3289071
297.421729
297.4953179
297.5592785
297.6184584
297.6744789
297.7271322
297.7754754
297.8185524
297.8557657
297.8869829
297.9124816
297.9328257
297.9487301
297.9609493
297.9702001
297.9771182
297.9822427
297.9860117
297.9887769
297.990827
297.9923768
297.9936446
297.9947721
297.9954317
297.9976802
293.979157
293.1428327
291.128184
286.2059831
280.3846812
279.0647576
279.2127154
279.3816243
279.5954664
279.8162441
280.088258
280.3977927
280.7622943
281.187159
281.6834172
282.2614206
282.9319266
283.7058044
284.5921113
285.5966885
286.7190262
287.948953
289.2622011
290.6176587
291.9597698
293.2261412
294.358062
295.3130643
296.0720869
296.6393819
297.0374496
297.2991148
297.4600531
297.5533051
297.6060308
297.6383419
297.6634684
297.6888191
297.7174047
297.7493496
297.783225
297.817079
297.8491093
297.878005
297.9030356
297.9239849
297.9410174
297.9545324
297.9650402
297.9730728
297.9791284
297.9836445
297.9869861
297.989452
297.9912927
297.992695
297.9938603
297.9949254
297.9955179
297.9977517
294.5648326
293.5246447
290.9637699
285.0765243
280.2923748
279.7943011
280.0381711
280.2178152
280.4514795
280.698613
280.9993849
281.3438685
281.7481556
282.2193572
282.7685098
283.4064595
284.1436604
284.989887
285.9518106
287.0308447
288.2196376
289.4983977
290.8321085
292.1699706
293.4499934
294.6108514
295.6030757
296.3982352
296.9924844
297.4026652
297.6594449
297.7994601
297.858834
297.8690248
297.854675
297.8331954
297.8153386
297.8064255
297.8077834
297.8182016
297.8351839
297.855909
297.8778503
297.8990854
297.9183688
297.9350551
297.948958
297.9601962
297.9690603
297.9759141
297.9811288
297.9850479
297.9879674
297.9901359
297.9917672
297.9930213
297.9940834
297.9950839
297.9956113
297.9978282
295.2526797
293.9368854
290.6176421
284.207454
280.756226
280.7053474
280.9737679
281.16774
281.423434
281.6992069
282.0315603
282.4142099
282.8620553
283.3836209
283.9897413
284.6911744
285.4973719
286.4159765
287.4498749
288.5945434
289.8342445
291.138528
292.4614302
293.7452149
294.9267719
295.9510388
296.7818526
297.4061862
297.8340578
298.0922221
298.2166014
298.2452833
298.2132722
298.1495902
298.0760166
298.0072185
297.9515797
297.9125002
297.8898006
297.8811006
297.8829852
297.8918923
297.904681
297.9189103
297.9328943
297.9456174
297.9565873
297.9656748
297.9729747
297.9786985
297.9831016
297.9864407
297.9889473
297.9908232
297.9922474
297.993354
297.9943128
297.9952472
297.9957116
297.9979096
296.0203872
294.3174757
290.121749
283.890403
281.7364213
281.7239638
282.003646
282.2184575
282.4999794
282.8086446
283.1773251
283.6030347
284.0994585
284.6760396
285.3430354
286.110425
286.9858552
287.9737159
289.0717033
290.2676713
291.5360111
292.8359923
294.1129424
295.3055521
296.3557033
297.2192862
297.8753433
298.3256981
298.5917089
298.7070244
298.710175
298.6388334
298.5258109
298.3972171
298.2718699
298.1617913
298.0731774
298.007703
297.9638655
297.9382747
297.9267338
297.9250561
297.9295846
297.9374413
297.9465667
297.9556276
297.9638664
297.9709365
297.9767584
297.9814072
297.985033
297.9878131
297.9899193
297.9915097
297.9927305
297.9936913
297.9945478
297.9954152
297.995817
297.9979957
296.8513107
294.6478517
289.6149873
283.961981
282.7139718
282.8489282
283.1387265
283.3786781
283.6889611
284.0335465
284.4417131
284.9134632
285.4612944
286.0951632
286.8244356
287.6575641
288.5992733
289.6491617
290.7980857
292.0249039
293.2936977
294.5547557
295.7490248
296.8162753
297.7085119
298.3957439
298.8719886
299.1518942
299.265135
299.2493726
299.1435898
298.9837149
298.7997269
298.6146409
298.4443874
298.2985312
298.1812966
298.0928385
298.0305077
297.9900531
297.9666187
297.9554962
297.9525987
297.9546823
297.9593724
297.965065
297.9707734
297.9759611
297.9803946
297.9840267
297.9869128
297.9891576
297.990878
297.9921916
297.9932142
297.9940318
297.9947873
297.9955872
297.9959264
297.9980866
297.6904631
294.9170043
289.2498132
284.3232711
283.8786423
284.0798824
284.3810991
284.6491497
284.9898628
285.3721275
285.8218106
286.3415647
286.942686
287.6350549
288.4265181
289.322865
290.3244396
291.424374
292.6050852
293.835941
295.0720956
296.2578826
297.3343885
298.2482735
298.9644923
299.4682611
299.7668777
299.8849653
299.8575217
299.7237761
299.5215745
299.2842613
299.0386905
298.8048099
298.5958463
298.4191398
298.2771712
298.1687736
298.0903163
298.0368201
298.0028789
297.9833523
297.9737974
297.9706667
297.9713209
297.9739263
297.9772993
297.9807377
297.9838726
297.9865479
297.9887336
297.9904685
297.9918193
297.9928662
297.9936964
297.9943743
297.9950307
297.9957625
297.9960403
297.9981821
298.4240185
295.1454839
289.1479683
285.4741361
285.1612606
285.403641
285.7214332
286.0211096
286.3953215
286.8185518
287.3131599
287.8838599
288.5403834
289.2915532
290.1426772
291.0955763
292.1449855
293.2765448
294.4636964
295.6667695
296.834729
297.9103142
298.8392577
299.5798936
300.110804
300.4316212
300.5604435
300.528784
300.3743363
300.1360198
299.8494916
299.5450736
299.2464539
298.9706753
298.7285028
298.5253009
298.3620289
298.2363824
298.1438969
298.0789831
298.0357789
298.0087887
297.9932775
297.9854472
297.9824376
297.9822209
297.9834444
297.9852626
297.987187
297.9889652
297.9904904
297.9917416
297.9927398
297.9935309
297.9941755
297.9947174
297.9952774
297.995941
297.9961581
297.9982825
299.056078
295.3657121
289.4551621
286.5404844
286.5658336
286.8280493
287.1656081
287.5006579
287.9114818
288.378466
288.9201993
289.5426511
290.2535188
291.0595767
291.9626704
292.9596094
294.0385788
295.1772139
296.3405485
297.4817548
298.5469991
299.4820414
300.2414707
300.7974189
301.1417257
301.2862369
301.2570232
301.0896208
300.8223272
300.4924496
300.1328562
299.7707067
299.4266479
299.115057
298.8445018
298.6186161
298.4370437
298.296509
298.1918437
298.11695
298.065591
298.0319814
298.0111485
297.9990886
297.9927585
297.9899666
297.989216
297.9895369
297.9903362
297.9912756
297.9921798
297.9929739
297.993637
297.9941837
297.9946499
297.9950602
297.9955269
297.9961245
297.9962788
297.9983882
299.6224324
295.6043674
290.0897304
287.8947396
288.0853766
288.3628636
288.7243477
289.0960712
289.543927
290.0542057
290.6416016
291.312511
292.0722242
292.9246059
293.8672038
294.8908979
295.9765958
297.0939167
298.2008394
299.2467691
300.1788486
300.9500201
301.5265954
301.8944062
302.0574042
302.0366919
301.8635178
301.5750786
301.2087638
300.7994691
300.3770184
299.9654729
299.5826613
299.2405672
298.9458259
298.7005683
298.5033089
298.3499463
298.2347212
298.1511146
298.0925833
298.0531083
298.0275247
298.0116619
298.0023255
297.9971867
297.994626
297.9935656
297.9933211
297.9934782
297.9938002
297.9941634
297.9945091
297.994823
297.9951183
297.9954017
297.9957788
297.9963105
297.9964054
297.998499
300.2291476
295.9180083
290.740915
289.3985868
289.7096324
290.0033627
290.3893516
290.7972094
291.2808356
291.8320587
292.4617705
293.1758597
293.9767425
294.8643851
295.8310709
296.8609322
297.9274049
298.9930821
300.011406
300.9318764
301.7065943
302.2986812
302.6872515
302.8705324
302.862424
302.6903319
302.3882488
301.9932704
301.5408964
301.0632069
300.5869681
300.1333307
299.7175764
299.3495727
299.0342707
298.7725045
298.5618227
298.3974241
298.2730545
298.1818477
298.1170127
298.0723429
298.0425203
298.0232401
298.0111837
298.0039081
297.9996891
297.9973561
297.9961448
297.9955735
297.9953508
297.9953089
297.9953546
297.9954476
297.9955795
297.9957411
297.9960325
297.9964978
297.996536
297.998614
300.8553723
296.3881236
291.9407053
291.0319584
291.4144975
291.7286499
292.1399965
292.5838127
293.1025773
293.6927388
294.361448
295.1129161
295.9459317
296.8555004
297.8278355
298.8400987
299.8590623
300.8424915
301.7427399
302.5130374
303.1137992
303.5197938
303.7224174
303.7302109
303.5643754
303.2560559
302.8400778
302.3522433
301.82561
301.289324
300.7672341
300.2778356
299.834147
299.4441842
299.1114394
298.8356316
298.6134843
298.4396043
298.3073241
298.2094926
298.1391194
298.0898502
298.0562463
298.0338956
298.0193793
298.0101588
298.0044217
298.0009175
297.9988117
297.9975632
297.9968316
297.9964095
297.9961724
297.9960563
297.9960326
297.9960776
297.9962874
297.9966852
297.9966692
297.9987317
301.5561529
297.0223372
293.3523748
292.7608707
293.1858915
293.5258141
293.9638525
294.4439335
294.9975187
295.6241556
296.3271853
297.1078981
297.9606756
298.8748777
299.8304836
300.7984148
301.740652
302.613127
303.370617
303.9731436
304.391393
304.6117084
304.6361613
304.4811232
304.1725874
303.7433771
303.2277901
302.6596126
302.069229
301.4829217
300.9218498
300.4021329
299.9348021
299.5262634
299.1787493
298.8910204
298.6590959
298.4770814
298.3379649
298.2343626
298.1591256
298.1057846
298.0688076
298.0436985
298.0269573
298.0159674
298.0088413
298.0042597
298.001327
297.9994496
297.9982433
297.997465
297.9969619
297.9966482
297.9964765
297.9964104
297.9965427
297.9968718
297.9968098
297.998851
302.3665567
298.1059149
294.8530326
294.579323
295.0256824
295.3971688
295.8621118
296.3766796
296.9621409
297.619376
298.3477841
299.1448504
300.0001003
300.8971699
301.8104085
302.7060514
303.5438044
304.2808946
304.8774776
305.3023649
305.5370096
305.5780492
305.4360805
305.1328778
304.6971041
304.1617432
303.5596887
302.9223487
302.2774226
301.6485127
301.0543549
300.5089724
300.0216632
299.5974384
299.2374431
298.9396139
298.6993675
298.5103849
298.3653669
298.2567411
298.1772338
298.1202884
298.0803023
298.0527147
298.0339616
298.0213617
298.012965
298.0073929
298.0036963
298.0012354
297.9995869
297.9984754
297.9977225
297.9972225
297.9969105
297.996739
297.9967978
297.9970569
297.9969579
297.9989696
303.2612269
299.2454681
296.5279092
296.4890528
296.9433685
297.3470976
297.835805
298.3788472
298.9886886
299.6659395
300.405964
301.2019318
302.0384536
302.8939078
303.7382371
304.5350816
305.2445795
305.8279969
306.2528923
306.4976456
306.5537271
306.4261968
306.1319039
305.6959182
305.1479403
304.5200903
303.843362
303.1466794
302.4551824
301.7900345
301.1678236
300.6007378
300.0965704
299.6591243
299.288605
298.9822384
298.7349244
298.5399837
298.3898781
298.2768827
298.1936277
298.1334917
298.090821
298.0610063
298.0404333
298.0263688
298.0168098
298.0103274
298.0059257
298.0029239
298.0008637
297.999441
297.9984538
297.9977785
297.9973337
297.9970626
297.9970518
297.9972399
297.9971133
297.9990871
304.2599841
300.3662009
298.3428791
298.4781761
298.9337894
299.3651173
299.8719274
300.4346412
301.0582851
301.7419633
302.4769383
303.2518826
304.0468466
304.8359608
305.5865002
306.2618639
306.8251207
307.2435832
307.4931853
307.5615633
307.4486229
307.1658937
306.7343717
306.1807525
305.5346164
304.826604
304.085592
303.3380802
302.6068523
301.9108943
301.2649087
300.6794859
300.1611138
299.7125475
299.3331779
299.0196156
298.7663157
298.5662921
298.4118076
298.2950151
298.2084726
298.1455127
298.1004466
298.0686302
298.0464111
298.031014
298.0203923
298.0130733
298.008021
298.0045181
298.0020752
298.000362
297.9991556
297.9983157
297.9977454
297.9973806
297.9973038
297.9974203
297.9972755
297.9992047
305.3966699
301.5900846
300.2687612
300.5231575
300.978236
301.4305009
301.9485743
302.5209394
303.1462167
303.8210894
304.5328543
305.2659548
305.9967303
306.6965595
307.3320775
307.8686944
308.2743346
308.5234541
308.6003586
308.500825
308.2313255
307.8080433
307.254374
306.59741
305.8658673
305.0885959
304.2923294
303.5013009
302.7361751
302.0140172
301.347886
300.746983
300.2166625
299.7587674
299.3719798
299.0523747
298.7940223
298.5896746
298.4314289
298.3113412
298.2219167
298.1564581
298.1092547
298.0756391
298.0519308
298.0353214
298.0237277
298.0156405
298.0099881
298.0060213
298.003223
298.001239
297.9998277
297.9988335
297.9981449
297.9976926
297.9975531
297.9975976
297.9974447
297.9993209
306.6417023
303.1135077
302.2754113
302.605586
303.0571807
303.5223738
304.0431905
304.6135273
305.2265873
305.8760937
306.545756
307.2164942
307.8621868
308.4532039
308.9575039
309.3443009
309.5875187
309.6689729
309.5805928
309.3247547
308.9127166
308.3637491
307.702323
306.9550888
306.1494829
305.3124631
304.4687166
303.6404149
302.8463474
302.1018985
301.4186985
300.8047405
300.2643914
299.7986972
299.4057187
299.0810627
298.8184645
298.6104517
298.4489838
298.3260412
298.2340925
298.166424
298.1173138
298.0820811
298.0570255
298.0393131
298.0268309
298.0180382
298.0118327
298.0074368
298.0043085
298.0020727
298.0004702
297.9993315
297.9985316
297.997998
297.9977984
297.9977712
297.9976207
297.9994343
307.959515
304.7850212
304.331219
304.7072542
305.1506033
305.6191099
306.1324744
306.6876342
307.2733588
307.8803532
308.4893991
309.0789324
309.6218272
310.0891498
310.4517746
310.6838518
310.7656652
310.6859147
310.4429615
310.0441601
309.5040725
308.8437616
308.0878538
307.262043
306.3923093
305.5037501
304.6191713
303.7589046
302.9400966
302.1766679
301.479007
300.8540542
300.305312
299.8331258
299.4350093
299.1061567
298.8400107
298.6289054
298.4646862
298.3392755
298.2451188
298.1754968
298.124686
298.0879998
298.0617255
298.0430098
298.0297155
298.0202753
298.0135602
298.0087677
298.0053336
298.0028635
298.0010829
297.9998093
297.998905
297.9982961
297.9980388
297.997941
297.997803
297.9995436
309.3465443
306.5695153
306.4083434
306.8065734
307.2372724
307.6980232
308.1924454
308.7184857
309.2613883
309.8092323
310.3408244
310.8333278
311.2600177
311.5940599
311.810293
311.888255
311.8143213
311.5831709
311.1982486
310.6704327
310.0164436
309.2581192
308.4196671
307.5255597
306.6002969
305.6672283
304.7474723
303.85974
303.0197475
302.2401426
301.530233
300.8960368
300.3402962
299.8627366
299.4603863
299.1280737
298.858984
298.6452844
298.4787257
298.3511867
298.2551016
298.1837543
298.1314275
298.0934354
298.0660588
298.0464306
298.0323944
298.0223602
298.015176
298.0100171
298.0062998
298.0036122
298.0016661
298.0002664
297.9992644
297.9985866
297.9982731
297.9981067
297.9979906
297.9996473
310.7953287
308.4322348
308.486668
308.8833402
309.2946852
309.7355915
310.1986299
310.681563
311.1669831
311.6409087
312.0812078
312.4649577
312.76698
312.9634969
313.0338007
312.9627133
312.7420251
312.3713075
311.8578055
311.2147513
310.4601278
309.6158617
308.7054147
307.7519463
306.7785396
305.8069554
304.8568221
303.945436
303.0872709
302.2938672
301.5735884
300.9316411
300.3700942
299.8881202
299.482314
299.1471774
298.8756678
298.6598077
298.4912697
298.3619017
298.2641358
298.1912665
298.137589
298.098424
298.0700508
298.0495933
298.0348794
298.0243006
298.0166848
298.0111881
298.0072087
298.0043196
298.0022198
298.0007025
297.9996096
297.9988687
297.9985002
297.9982684
297.9981822
297.9997438
312.2854033
310.3385717
310.5405305
310.9126786
311.296997
311.7064573
312.1262942
312.5535385
312.9690398
313.357438
313.6965823
313.9644911
314.1383542
314.1979472
314.127037
313.9152475
313.5589143
313.0614227
312.4327229
311.6875146
310.8443683
309.9249109
308.9516926
307.9465787
306.931349
305.9263534
304.9499197
304.0181144
303.1443342
302.3391537
301.6101078
300.9616849
300.395353
299.9097887
299.5011968
299.1637861
298.8903112
298.6726687
298.5024671
298.3715337
298.2723062
298.1980963
298.1432166
298.1029988
298.0737252
298.0525141
298.0371818
298.0261041
298.0180917
298.0122834
298.008062
298.0049863
298.002744
298.0011174
297.9999401
297.999142
297.9987191
297.9984262
297.998375
297.9998313
313.771209
312.2485926
312.524403
312.8702713
313.2197196
313.587646
313.9542939
314.3156964
314.651839
314.9467969
315.1791582
315.328625
315.3752332
315.3024085
315.0980771
314.7559875
314.2761268
313.6647408
312.9336183
312.0982795
311.1774389
310.1922251
309.1642198
308.1140739
307.0624099
306.0283413
305.0290674
304.0795891
303.1923677
302.3771325
301.6406871
300.9868796
300.4166385
299.9281921
299.517392
299.1781822
298.9031361
298.6840405
298.5124515
298.3801848
298.2796901
298.2043012
298.1483525
298.1071905
298.0771037
298.0552084
298.039312
298.0277777
298.019401
298.0133061
298.0088613
298.0056132
298.0032392
298.0015109
298.0002557
297.9994056
297.9989288
297.99858
297.9985655
297.9999108
315.2535001
314.127456
314.4217507
314.7341338
315.042043
315.3601203
315.6657671
315.9540029
316.2047421
316.4021658
316.526196
316.5586281
316.482487
316.2846516
315.9567001
315.495781
314.9047209
314.1918493
313.3701428
312.4554974
311.4665232
310.4237662
309.34785
308.2583267
307.1748241
306.1153752
305.0962057
304.1313939
303.2325861
302.4087687
301.6660953
301.0078398
300.4344424
299.9437238
299.5312136
299.1906153
298.9143396
298.6940773
298.5213427
298.3879468
298.2863571
298.2099335
298.1530354
298.1110273
298.0802067
298.0576905
298.0412802
298.0293282
298.0206175
298.0142589
298.0096083
298.0062012
298.0037055
298.0018828
298.0005563
297.9996591
297.9991285
297.9987299
297.9987508
297.9999942
316.7145726
315.9349971
316.2126777
316.4864286
316.7470684
317.0089507
317.2482652
317.4591015
317.6219039
317.7213807
317.7391575
317.6592497
317.4675558
317.1540413
316.7133647
316.1454003
315.4551345
314.6523831
313.750846
312.7665186
311.7177884
310.6246061
309.5066884
308.3826318
307.2712182
306.1895416
305.152991
304.1748456
303.2660393
302.4349018
301.6870061
301.0251071
300.4492004
299.9567339
299.542942
299.201309
298.9240989
298.7029187
298.5292494
298.3949037
298.2923713
298.2150413
298.1573012
298.1145354
298.0830532
298.0599742
298.0430958
298.0307622
298.0217455
298.0151447
298.0103048
298.0067513
298.0041433
298.0022332
298.0008417
297.9999016
297.9993175
297.9988765
297.9989345
298.0000708
318.1383085
317.639255
317.8806978
318.1119113
318.3217527
318.52387
318.6944948
318.8269342
318.9025711
318.9069063
318.8234053
318.6382334
318.3399056
317.9210471
317.378851
316.715343
315.9371319
315.0550842
314.0833122
313.0377662
311.9365622
310.7990882
309.6442351
308.4898022
307.3538348
306.2526263
305.2008468
304.2110817
303.2936393
302.456266
301.7040118
301.0391604
300.4613
299.9675352
299.5528292
299.2104652
298.9325746
298.7106913
298.5362706
298.4011321
298.2977912
298.219669
298.161183
298.1177395
298.0856611
298.0620722
298.0447681
298.0320862
298.0227893
298.0159664
298.0109525
298.0072643
298.004553
298.0025621
298.0011119
298.0001323
297.9994952
297.9990206
297.999111
298.0001394
319.5062011
319.2166896
319.413437
319.5997891
319.7576779
319.8992601
320.0017377
320.0577553
320.0498331
319.964378
319.7866595
319.5048309
319.1097055
318.596156
317.9634346
317.2152546
316.3594403
315.4076057
314.3740886
313.2747304
312.1273666
310.9508874
309.7634597
308.5822264
307.4245842
306.3061593
305.2410012
304.2410911
303.3161853
302.4735092
301.7176393
301.0504285
300.4710899
299.9764109
299.5611039
299.2182676
298.9399134
298.7175114
298.5424974
298.4067028
298.3026714
298.2238582
298.164712
298.1206628
298.0880475
298.0639969
298.0463057
298.0333061
298.0237531
298.0167268
298.0115533
298.0077416
298.0049351
298.0028698
298.001367
298.0003505
297.9996617
297.9991619
297.999277
298.0002027
320.8019218
320.6507775
320.8021851
320.9434699
321.0508107
321.1339456
321.1714873
321.1555268
321.0698086
320.9016799
320.6380972
320.269013
319.7872137
319.189451
318.4766464
317.6538381
316.7297728
315.7166156
314.6288271
313.482108
312.2940567
311.0831447
309.8669146
308.6619474
307.4851114
306.3514676
305.2745276
304.2657452
303.3343874
302.4872118
301.7283641
301.059301
300.4788888
299.9836209
299.5679772
299.2248867
298.946252
298.7234875
298.5480156
298.4116827
298.3070635
298.2276484
298.1679183
298.1233275
298.0902289
298.0657605
298.0477175
298.0344285
298.0246415
298.0174289
298.0121092
298.0081842
298.0052903
298.0031566
298.001607
298.0005555
297.9998171
297.999299
297.9994277
298.0002642
322.0115593
321.9312438
322.0435007
322.1422403
322.2026238
322.2315051
322.2091517
322.127254
321.970817
321.7281073
321.3876182
320.9408788
320.3823501
319.7103438
318.9271417
318.0388325
317.0548862
315.9879005
314.8523967
313.6639204
312.4399381
311.1985676
309.9568024
308.7307307
307.5368539
306.3897207
305.3023805
304.2858259
303.3488883
302.4979035
301.7366227
301.0661378
300.4849927
299.9894076
299.5736467
299.2304824
298.951719
298.7287223
298.5529064
298.4161356
298.3110171
298.2310776
298.1708307
298.1257557
298.0922217
298.0673749
298.0490123
298.0354594
298.0254588
298.0180759
298.0126222
298.0085935
298.0056192
298.0034232
298.0018319
298.0007466
297.9999615
297.9994294
297.9995703
298.0003168
323.1258086
323.062487
323.1418332
323.2014765
323.2191772
323.1989142
323.1226411
322.9817037
322.7622829
322.4534807
322.0451456
321.5301467
320.904357
320.167386
319.3226326
318.3770336
317.340656
316.2264569
315.048969
313.8236211
312.5678619
311.299494
310.0350107
308.7901242
307.5810834
306.4219627
305.3254203
304.3020445
303.3602777
302.5060738
301.7428215
301.0712755
300.4896796
299.9939995
299.578299
299.2352064
298.9564366
298.7333136
298.5572473
298.4201223
298.3145797
298.2341826
298.1734773
298.1279685
298.0940418
298.0688521
298.0501988
298.0364054
298.0262096
298.0186708
298.0130946
298.008971
298.0059229
298.0036702
298.0020418
298.0009232
298.0000954
297.999553
297.9997142
298.0003593
324.1060364
324.055359
324.1049597
324.1294154
324.1091527
324.0453818
323.9216273
323.7288911