/*--------------------------------*- C++ -*----------------------------------*\
  =========                 |
  \\      /  F ield         | OpenFOAM: The Open Source CFD Toolbox
   \\    /   O peration     | Website:  https://openfoam.org
    \\  /    A nd           | Version:  12
     \\/     M anipulation  |
\*---------------------------------------------------------------------------*/
FoamFile
{
    format      ascii;
    class       volScalarField;
    location    "0.086";
    object      alphat;
}
// * * * * * * * * * * * * * * * * * * * * * * * * * * * * * * * * * * * * * //

dimensions      [1 -1 -1 0 0 0 0];

internalField   nonuniform List<scalar> 
16000
(
4.9794724e-07
1.0865917e-05
1.9539711e-05
2.6234272e-05
2.0020519e-05
2.7560494e-05
1.9427755e-05
2.6646286e-05
2.0750161e-05
2.8636235e-05
2.4073476e-05
2.8325713e-05
2.5823976e-05
2.6541131e-05
2.5658725e-05
2.5535301e-05
2.5289496e-05
2.5240408e-05
2.5277879e-05
2.5424792e-05
2.5672857e-05
2.6021799e-05
2.6469222e-05
2.7015488e-05
2.7663344e-05
2.8419711e-05
2.9293837e-05
3.0300323e-05
3.1456949e-05
3.2782942e-05
3.4299491e-05
3.6034655e-05
3.8024601e-05
4.0313925e-05
4.2957532e-05
4.6021041e-05
4.9582771e-05
5.3736298e-05
5.8597536e-05
6.4310242e-05
7.1043625e-05
7.899758e-05
8.8424317e-05
9.9633337e-05
0.00011299412
0.0001289512
0.00014805699
0.00017098689
0.00019856652
0.00023180644
0.00027194961
0.0003205297
0.00037943552
0.00045099994
0.00053810598
0.0006443365
0.00077418173
0.00093333469
0.0011290613
0.0011836673
0.001184198
0.0011846705
0.0011849717
0.001185094
0.0011850167
0.0011847257
0.0011842219
0.0011835245
0.001182657
0.0011816352
0.0011804357
0.0011789794
0.0011778381
0.0011768227
0.0011758068
0.0011747875
0.0011739332
0.001173734
0.0011738829
0.0011758404
4.4989351e-07
1.0295179e-05
2.1487622e-05
2.3486761e-05
1.8025116e-05
2.4709456e-05
1.7227162e-05
2.3333816e-05
1.8318487e-05
2.5280112e-05
2.17781e-05
2.5520601e-05
2.3600324e-05
2.4035129e-05
2.3352145e-05
2.3173103e-05
2.297291e-05
2.2919091e-05
2.2957916e-05
2.3094046e-05
2.3324716e-05
2.3649264e-05
2.4066005e-05
2.4575395e-05
2.5179679e-05
2.5885379e-05
2.6700591e-05
2.7638536e-05
2.8716074e-05
2.9951968e-05
3.136599e-05
3.2983849e-05
3.4839089e-05
3.6973096e-05
3.9437338e-05
4.2293643e-05
4.5616285e-05
4.9493413e-05
5.4033325e-05
5.9372488e-05
6.5673918e-05
7.3126488e-05
8.1968594e-05
9.2496359e-05
0.00010506589
0.00012010151
0.00013813245
0.00015980832
0.0001859255
0.00021746013
0.00025561394
0.00030187413
0.0003580758
0.0004264919
0.00050993706
0.00061191365
0.00073681123
0.00089018433
0.0010791236
0.0011832155
0.0011837231
0.0011841684
0.0011844497
0.0011845571
0.0011844702
0.0011841744
0.0011836695
0.0011829751
0.0011821162
0.0011811089
0.0011799443
0.001178535
0.0011774029
0.0011763737
0.0011753395
0.0011743115
0.0011734686
0.0011731325
0.0011734628
0.0011756393
4.0354816e-07
9.8508014e-06
2.0291968e-05
2.1446518e-05
1.6126078e-05
2.1736929e-05
1.5327165e-05
2.0262149e-05
1.64582e-05
2.2163406e-05
1.9844858e-05
2.2713031e-05
2.1370675e-05
2.151817e-05
2.0998532e-05
2.079593e-05
2.0631218e-05
2.058307e-05
2.0624909e-05
2.0754662e-05
2.0971034e-05
2.1273748e-05
2.1661491e-05
2.2135002e-05
2.2696131e-05
2.3351179e-05
2.410743e-05
2.4976904e-05
2.5975347e-05
2.7121048e-05
2.8432815e-05
2.9934496e-05
3.1657462e-05
3.3640327e-05
3.5931516e-05
3.8589366e-05
4.1684581e-05
4.5301065e-05
4.9540724e-05
5.4532731e-05
6.043503e-05
6.7428014e-05
7.5738207e-05
8.5649182e-05
9.750644e-05
0.00011171798
0.00012879367
0.00014936159
0.00017419387
0.00020423887
0.00024066438
0.00028491958
0.0003387953
0.00040451538
0.00048483879
0.00058320305
0.00070391805
0.00085243408
0.0010356982
0.0011829293
0.0011833999
0.0011837975
0.0011840381
0.0011841102
0.0011839941
0.0011836751
0.0011831521
0.0011824446
0.0011815792
0.0011805698
0.0011794174
0.0011780547
0.0011769385
0.0011759023
0.0011748634
0.0011738593
0.0011730445
0.0011726834
0.0011730479
0.001174578
3.5700374e-07
9.5147796e-06
1.923522e-05
1.9863839e-05
1.4481564e-05
1.9179299e-05
1.3649155e-05
1.7696281e-05
1.4804554e-05
1.9524926e-05
1.8109185e-05
2.0234094e-05
1.9319178e-05
1.9256522e-05
1.8857972e-05
1.8653779e-05
1.8519748e-05
1.848248e-05
1.8530127e-05
1.8657311e-05
1.8863362e-05
1.9148436e-05
1.9511597e-05
1.9953989e-05
2.0477186e-05
2.1087419e-05
2.1791423e-05
2.2600267e-05
2.3528644e-05
2.4594461e-05
2.5815894e-05
2.7215218e-05
2.8822047e-05
3.0672624e-05
3.2812806e-05
3.5297937e-05
3.8195647e-05
4.158653e-05
4.5567422e-05
5.026069e-05
5.5820405e-05
6.242054e-05
7.0278082e-05
7.9665411e-05
9.0920448e-05
0.00010443868
0.00012071468
0.00014035986
0.00016412763
0.0001929461
0.00022795729
0.00027058285
0.00032258134
0.00038614178
0.00046398457
0.0005595028
0.00067695084
0.00082170658
0.00100062
0.0011828472
0.0011832671
0.0011835994
0.0011837825
0.0011838036
0.0011836436
0.0011832879
0.0011827336
0.0011819989
0.0011811116
0.0011800837
0.0011789233
0.0011775925
0.0011764896
0.0011754515
0.0011744214
0.0011734568
0.0011726797
0.0011723116
0.0011726418
0.0011735696
3.2606175e-07
9.2617115e-06
1.8314751e-05
1.983686e-05
1.4377918e-05
1.6949913e-05
1.2176403e-05
1.5496984e-05
1.3384354e-05
1.7248413e-05
1.6567387e-05
1.8002935e-05
1.7406879e-05
1.7201939e-05
1.6892916e-05
1.6702821e-05
1.6594337e-05
1.6568948e-05
1.6621434e-05
1.6745723e-05
1.6941365e-05
1.7209128e-05
1.7548491e-05
1.796113e-05
1.844849e-05
1.9016821e-05
1.9672475e-05
2.0425771e-05
2.1290367e-05
2.2283749e-05
2.3423682e-05
2.4731137e-05
2.6234281e-05
2.7967316e-05
2.9973901e-05
3.230678e-05
3.5030846e-05
3.8224021e-05
4.1979353e-05
4.6412731e-05
5.1674975e-05
5.7935287e-05
6.5403239e-05
7.4340697e-05
8.5079942e-05
9.8006835e-05
0.00011360341
0.00013246747
0.00015533706
0.00018312474
0.00021695156
0.00025821759
0.00030865572
0.00037042713
0.00044622192
0.00053939824
0.00065416712
0.00079584804
0.00097121312
0.0011829497
0.0011833046
0.0011835549
0.0011836636
0.0011836181
0.0011833996
0.0011829936
0.0011823954
0.0011816201
0.0011806963
0.0011796344
0.0011784456
0.0011771481
0.0011760619
0.0011750319
0.0011740239
0.0011731095
0.0011723799
0.0011719986
0.0011722235
0.0011726485
3.002768e-07
9.1052049e-06
1.758567e-05
1.9590898e-05
1.4133822e-05
1.5003695e-05
1.1434667e-05
1.3681551e-05
1.2267167e-05
1.5322657e-05
1.5218536e-05
1.6046495e-05
1.566319e-05
1.5374709e-05
1.5122634e-05
1.4949422e-05
1.4857695e-05
1.4839897e-05
1.4893443e-05
1.5012566e-05
1.519679e-05
1.5447415e-05
1.5764157e-05
1.6149142e-05
1.6603786e-05
1.7134335e-05
1.774683e-05
1.8451006e-05
1.9259523e-05
2.0189413e-05
2.1258224e-05
2.2485881e-05
2.3899411e-05
2.5531327e-05
2.7423496e-05
2.9626518e-05
3.220298e-05
3.5228697e-05
3.8794321e-05
4.3010163e-05
4.8024093e-05
5.4002261e-05
6.1149552e-05
6.9718316e-05
8.0037309e-05
9.2486143e-05
0.00010753761
0.00012577998
0.00014793985
0.0001749204
0.00020782792
0.00024804872
0.00029729898
0.00035772204
0.00043198969
0.0005234391
0.00063625505
0.00077571849
0.00094854748
0.0011632789
0.001183502
0.0011836553
0.0011836748
0.0011835486
0.0011832586
0.0011827906
0.0011821376
0.0011813102
0.0011803369
0.0011792284
0.0011779913
0.0011767304
0.0011756663
0.0011746559
0.001173682
0.0011728238
0.0011721422
0.0011717223
0.001171803
0.0011717937
2.6659088e-07
9.0167757e-06
1.7015403e-05
1.8558787e-05
1.4007385e-05
1.3252801e-05
1.1508309e-05
1.2565942e-05
1.1954324e-05
1.3686282e-05
1.4012924e-05
1.4323374e-05
1.4052136e-05
1.3726672e-05
1.3506809e-05
1.3350398e-05
1.3270791e-05
1.3259032e-05
1.3313053e-05
1.3427713e-05
1.3602215e-05
1.3838313e-05
1.4135655e-05
1.4412138e-05
1.4828204e-05
1.5317125e-05
1.5884116e-05
1.6538117e-05
1.7290582e-05
1.8157719e-05
1.915682e-05
2.0306787e-05
2.1633597e-05
2.3168141e-05
2.4950616e-05
2.7029649e-05
2.9465653e-05
3.2332354e-05
3.5718853e-05
4.0030159e-05
4.4843029e-05
5.0594212e-05
5.7486695e-05
6.5764673e-05
7.5754581e-05
8.7833101e-05
0.00010246704
0.00012023882
0.00014186708
0.00016825135
0.00020048883
0.0002399592
0.00028836959
0.00034785499
0.00042107924
0.00051137082
0.00062290331
0.00076093633
0.00093215004
0.0011450322
0.0011838426
0.001183886
0.0011838033
0.0011835845
0.0011832119
0.0011826715
0.0011819545
0.0011810659
0.0011800324
0.0011788685
0.0011775698
0.001176352
0.0011753157
0.0011743348
0.0011734031
0.0011726027
0.0011719615
0.0011714759
0.0011713769
0.0011710012
2.428922e-07
8.9672266e-06
1.6533233e-05
1.690181e-05
1.2936567e-05
1.1546458e-05
1.003338e-05
1.1241595e-05
1.0569113e-05
1.2292333e-05
1.2807325e-05
1.2747186e-05
1.2520134e-05
1.2202024e-05
1.200786e-05
1.1872706e-05
1.1807477e-05
1.1804634e-05
1.1790639e-05
1.1886482e-05
1.2042171e-05
1.2258437e-05
1.2533007e-05
1.2866737e-05
1.3264524e-05
1.3730193e-05
1.4269279e-05
1.4890642e-05
1.5605127e-05
1.6428465e-05
1.7378171e-05
1.8472605e-05
1.9737249e-05
2.1201978e-05
2.2906022e-05
2.4896775e-05
2.7233357e-05
2.9988235e-05
3.3250006e-05
3.7126789e-05
4.1750699e-05
4.7289205e-05
5.3945465e-05
6.2479064e-05
7.2232683e-05
8.4050633e-05
9.8397413e-05
0.00011585324
0.00013713243
0.00016313709
0.00019496132
0.00023398577
0.00028191713
0.00034089211
0.00041357807
0.0005033083
0.00061426123
0.00075169476
0.00092227052
0.001134447
0.0011843078
0.0011842305
0.0011840351
0.001183714
0.0011832499
0.0011826287
0.0011818403
0.0011808839
0.0011797822
0.0011785584
0.0011772027
0.0011760249
0.0011750207
0.0011740761
0.0011731906
0.0011724449
0.0011718321
0.0011712644
0.0011709755
0.0011703302
2.2416834e-07
8.920836e-06
1.6043174e-05
1.479463e-05
1.0642877e-05
1.0260278e-05
8.263296e-06
9.5790846e-06
9.766281e-06
1.1069659e-05
1.1584971e-05
1.1284483e-05
1.1077476e-05
1.079286e-05
1.0624595e-05
1.0440049e-05
1.0363846e-05
1.0355288e-05
1.0406477e-05
1.0514528e-05
1.067535e-05
1.0890839e-05
1.1160306e-05
1.1484044e-05
1.1867067e-05
1.2314176e-05
1.2830951e-05
1.342629e-05
1.4110623e-05
1.4899194e-05
1.580985e-05
1.686067e-05
1.807697e-05
1.9487928e-05
2.1132194e-05
2.3056441e-05
2.5319035e-05
2.7991788e-05
3.1162653e-05
3.4938901e-05
3.9453124e-05
4.4870578e-05
5.1397726e-05
5.9275267e-05
6.881224e-05
8.0394324e-05
9.5321455e-05
0.00011261603
0.00013372907
0.00015957119
0.00019123973
0.00023012393
0.00027793985
0.00033683507
0.00040949284
0.00049926515
0.00061035145
0.00074802808
0.00091895886
0.0011315906
0.0011848761
0.0011846693
0.0011843536
0.0011839231
0.0011833611
0.0011826527
0.0011817871
0.0011807591
0.0011795844
0.001178299
0.0011769008
0.0011757604
0.0011747906
0.0011738858
0.0011730469
0.0011723499
0.0011717535
0.0011710912
0.0011706218
0.0011697962
2.0528794e-07
8.8761665e-06
1.4572492e-05
1.2879463e-05
8.6122659e-06
9.1122762e-06
7.3153497e-06
8.6478502e-06
9.0505328e-06
9.9071103e-06
1.0374119e-05
9.9517198e-06
9.7512027e-06
9.4147564e-06
9.2358328e-06
9.1271729e-06
9.0859404e-06
9.1030734e-06
9.1723668e-06
9.29047e-06
9.4585258e-06
9.673951e-06
9.9396336e-06
1.0255942e-05
1.0628096e-05
1.106133e-05
1.1561392e-05
1.213736e-05
1.2799412e-05
1.3562335e-05
1.4444381e-05
1.5463696e-05
1.6645689e-05
1.8019155e-05
1.9622537e-05
2.1502243e-05
2.3716395e-05
2.6336756e-05
2.9451694e-05
3.3169026e-05
3.7621536e-05
4.2974135e-05
4.9437066e-05
5.7251288e-05
6.6728706e-05
7.8257647e-05
9.2318835e-05
0.00010948057
0.00013165903
0.00015755861
0.00018933358
0.00022838933
0.00027646062
0.00033571711
0.00040887058
0.00049930647
0.00061126198
0.00075005342
0.00092237048
0.0011366648
0.0011855232
0.0011851812
0.0011847401
0.0011841959
0.0011835321
0.0011827326
0.0011817859
0.0011806847
0.0011794355
0.001178087
0.0011766724
0.0011755661
0.001174631
0.0011737676
0.0011729745
0.0011723203
0.0011717356
0.0011709831
0.0011703439
0.0011696326
1.8947322e-07
8.8297319e-06
1.1582724e-05
1.0745572e-05
7.0615773e-06
8.1147227e-06
6.669232e-06
7.773598e-06
8.4736162e-06
8.854907e-06
9.185668e-06
8.6470853e-06
8.3950199e-06
8.1640093e-06
8.0344366e-06
7.9663742e-06
7.9550424e-06
7.9942147e-06
8.0793215e-06
8.2092321e-06
8.3813833e-06
8.5986598e-06
8.8629287e-06
9.1750689e-06
9.5404103e-06
9.9646692e-06
1.0453892e-05
1.1017404e-05
1.1665348e-05
1.2412147e-05
1.3208788e-05
1.4197536e-05
1.5346896e-05
1.6685248e-05
1.8250817e-05
2.0089781e-05
2.2260083e-05
2.4833492e-05
2.789891e-05
3.1564999e-05
3.5965872e-05
4.1591359e-05
4.8055911e-05
5.5886081e-05
6.5396769e-05
7.6980307e-05
9.1130547e-05
0.00010842857
0.00012961014
0.00015559737
0.00018924397
0.0002287877
0.00027749175
0.00033755904
0.0004117433
0.00050347928
0.00061705921
0.00075786138
0.0009326287
0.0011498359
0.0011862237
0.0011857432
0.0011851748
0.0011845148
0.0011837475
0.0011828554
0.0011818259
0.0011806522
0.0011793314
0.0011779139
0.0011765208
0.0011754453
0.0011745437
0.0011737229
0.0011729773
0.0011723617
0.0011717852
0.0011709782
0.0011702228
0.0011696099
1.7548086e-07
8.7861188e-06
9.1386801e-06
9.0891171e-06
6.186098e-06
7.1920648e-06
6.1279806e-06
7.0115569e-06
7.8894253e-06
7.8740742e-06
7.8962084e-06
7.4384014e-06
7.2339298e-06
7.0666521e-06
6.9790041e-06
6.944728e-06
6.9589758e-06
7.0176545e-06
7.1169077e-06
7.2567709e-06
7.4360955e-06
7.6569707e-06
7.9225111e-06
8.2341001e-06
8.5971665e-06
8.9793405e-06
9.4558943e-06
1.0006061e-05
1.0639845e-05
1.13712e-05
1.2216955e-05
1.319898e-05
1.4342027e-05
1.5674613e-05
1.7235384e-05
1.9071066e-05
2.1240391e-05
2.3816159e-05
2.688913e-05
3.0570335e-05
3.4997119e-05
4.0341411e-05
4.6814416e-05
5.4670302e-05
6.4229119e-05
7.6549383e-05
9.0919825e-05
0.00010850826
0.00013006265
0.00015653143
0.000189081
0.00023131725
0.00028103742
0.00034237275
0.00041813283
0.00051181889
0.00062779625
0.00077152732
0.00094983926
0.0011712546
0.001186951
0.0011863319
0.0011856366
0.0011848608
0.0011839903
0.0011830066
0.0011818948
0.001180651
0.0011792683
0.0011777751
0.001176444
0.0011753973
0.0011745274
0.0011737512
0.0011730603
0.0011724822
0.0011718997
0.0011710735
0.0011703535
0.0011697924
1.6303995e-07
8.7358634e-06
7.2655503e-06
7.9848405e-06
5.5142893e-06
6.3673848e-06
5.6660191e-06
6.3388412e-06
7.1936331e-06
6.7603602e-06
6.7331365e-06
6.3822686e-06
6.2215661e-06
6.1057305e-06
6.0539562e-06
6.0488244e-06
6.0858635e-06
6.1625328e-06
6.2759199e-06
6.4267402e-06
6.6144772e-06
6.8415574e-06
7.0816872e-06
7.3899882e-06
7.7494341e-06
8.1650775e-06
8.6452807e-06
9.199041e-06
9.8366278e-06
1.0572254e-05
1.1422954e-05
1.2410393e-05
1.3560797e-05
1.4903153e-05
1.6476818e-05
1.8329489e-05
2.0521296e-05
2.312665e-05
2.6238974e-05
2.997284e-05
3.446904e-05
3.9903345e-05
4.6497534e-05
5.4512011e-05
6.427649e-05
7.6202302e-05
9.0802208e-05
0.00010869909
0.00013181417
0.00015898484
0.00019241276
0.00023359025
0.00028708217
0.00035014728
0.00042803342
0.00052432697
0.00064348594
0.00079107785
0.00097404754
0.0011884034
0.0011876787
0.0011869239
0.0011861046
0.0011852152
0.0011842432
0.0011831705
0.0011819797
0.0011806682
0.0011792409
0.001177713
0.001176437
0.0011754205
0.0011745806
0.0011738516
0.0011732249
0.0011726865
0.0011720813
0.001171259
0.0011707308
0.0011701982
1.5200906e-07
8.6740568e-06
5.8268862e-06
6.9816062e-06
4.9206409e-06
5.63659e-06
5.2747758e-06
5.6550709e-06
6.3144826e-06
5.7939906e-06
5.7128818e-06
5.4587302e-06
5.3393052e-06
5.2664331e-06
5.2465453e-06
5.2677562e-06
5.3262015e-06
5.4204945e-06
5.5485517e-06
5.6903732e-06
5.8819801e-06
6.1128782e-06
6.3858778e-06
6.7045965e-06
7.0741663e-06
7.5000782e-06
7.9906278e-06
8.5555468e-06
9.2053801e-06
9.9545586e-06
1.0820294e-05
1.1824559e-05
1.2935608e-05
1.4288758e-05
1.5876197e-05
1.7746542e-05
1.9961544e-05
2.2597268e-05
2.5749826e-05
2.9537883e-05
3.4106802e-05
3.9938139e-05
4.6714104e-05
5.4960408e-05
6.5017597e-05
7.7308107e-05
9.2367832e-05
0.00011084525
0.00013353798
0.00016292198
0.00019749105
0.00024008202
0.00029259862
0.00036083697
0.00044139806
0.00054095457
0.00066408026
0.00081646738
0.00100521
0.0011892312
0.0011883815
0.0011874972
0.0011865592
0.0011855604
0.0011844897
0.0011833321
0.0011820688
0.0011806931
0.0011792284
0.0011777148
0.0011764963
0.0011755137
0.0011747039
0.0011740225
0.0011734636
0.0011729673
0.001172338
0.0011715511
0.0011711536
0.0011707221
1.4224532e-07
8.5611604e-06
4.7293082e-06
6.0908713e-06
4.391139e-06
4.9873754e-06
4.935428e-06
4.9108279e-06
5.4254086e-06
4.9319926e-06
4.8286254e-06
4.6542616e-06
4.5742862e-06
4.5386715e-06
4.5479388e-06
4.5937172e-06
4.6728914e-06
4.7660642e-06
4.9034009e-06
5.0756659e-06
5.2840519e-06
5.5305116e-06
5.8186302e-06
6.1522579e-06
6.5371785e-06
6.9791892e-06
7.4866785e-06
8.0457497e-06
8.7088369e-06
9.4723292e-06
1.0353515e-05
1.1374423e-05
1.2562014e-05
1.3950178e-05
1.5579417e-05
1.7499953e-05
1.977632e-05
2.2487424e-05
2.5733147e-05
2.9638056e-05
3.4354018e-05
4.0072665e-05
4.7026314e-05
5.5501767e-05
6.5853291e-05
7.9176999e-05
9.4818632e-05
0.00011402005
0.00013761432
0.00016663288
0.00020425271
0.00024856213
0.00030319532
0.00037059062
0.00045811936
0.00056157981
0.00068944268
0.00084754603
0.0010431606
0.0011900066
0.0011890371
0.0011880319
0.0011869824
0.0011858807
0.0011847166
0.0011834783
0.0011821507
0.0011807194
0.0011792149
0.001177774
0.0011766172
0.0011756756
0.0011748986
0.0011742612
0.0011737623
0.0011733054
0.0011726585
0.0011719071
0.0011717146
0.0011712744
1.3366065e-07
8.2462796e-06
3.9639755e-06
5.3011407e-06
3.9214852e-06
4.4137329e-06
4.3958834e-06
4.2382101e-06
4.5666454e-06
4.169633e-06
4.0709017e-06
3.9602719e-06
3.9175289e-06
3.9150024e-06
3.9511894e-06
4.0055293e-06
4.0979248e-06
4.2238778e-06
4.382711e-06
4.5749132e-06
4.8023751e-06
5.0676289e-06
5.374738e-06
5.727877e-06
6.1194268e-06
6.5786055e-06
7.1039676e-06
7.7052375e-06
8.3946328e-06
9.186719e-06
1.0099247e-05
1.1155152e-05
1.2382515e-05
1.3816537e-05
1.5500503e-05
1.7486486e-05
1.9842461e-05
2.2651017e-05
2.6016089e-05
3.0069521e-05
3.4969091e-05
4.0915782e-05
4.8156505e-05
5.6990259e-05
6.7790223e-05
8.1015348e-05
9.8095121e-05
0.00011816075
0.00014281984
0.00017315976
0.00021049528
0.00025891725
0.00031601163
0.00038642503
0.00047328702
0.00058598185
0.0007193175
0.00088402344
0.0010875708
0.0011907096
0.0011896278
0.0011885115
0.0011873595
0.0011861636
0.0011849139
0.0011836001
0.0011822145
0.0011807454
0.0011792104
0.0011778809
0.0011767927
0.0011759003
0.0011751605
0.0011745626
0.0011741083
0.0011736832
0.0011730451
0.0011723505
0.0011723784
0.0011720395
1.2633058e-07
7.8219679e-06
3.493608e-06
4.6022637e-06
3.5049809e-06
3.74276e-06
3.9201952e-06
3.6219205e-06
3.7886931e-06
3.5071913e-06
3.4298882e-06
3.3697732e-06
3.3611345e-06
3.3884413e-06
3.4325271e-06
3.5188763e-06
3.6375025e-06
3.7872699e-06
3.9684989e-06
4.1824833e-06
4.4317195e-06
4.7190468e-06
5.0392942e-06
5.4128526e-06
5.8389251e-06
6.3243377e-06
6.8772938e-06
7.5078608e-06
8.2285084e-06
9.0547207e-06
1.0004817e-05
1.1102718e-05
1.2377783e-05
1.3866978e-05
1.5549349e-05
1.7596786e-05
2.0027613e-05
2.2928667e-05
2.6567155e-05
3.0797984e-05
3.5916782e-05
4.2133705e-05
4.9711429e-05
5.8964093e-05
7.0282591e-05
8.4151596e-05
0.00010116681
0.00012206073
0.00014905457
0.00018089562
0.00022007705
0.00026831845
0.00033084755
0.00040465694
0.0004956571
0.00061381448
0.00075329718
0.00092543017
0.0011379027
0.0011913269
0.0011901406
0.001188924
0.0011876794
0.0011863992
0.0011850743
0.0011836935
0.0011822522
0.0011807617
0.0011792591
0.0011780255
0.0011770106
0.0011761728
0.0011754757
0.0011749176
0.0011744976
0.001174095
0.0011734924
0.001172874
0.0011729406
0.0011728672
1.205584e-07
6.8681015e-06
3.0935364e-06
3.9686669e-06
3.1462489e-06
3.123444e-06
3.4460531e-06
3.0635933e-06
3.1202731e-06
2.9413068e-06
2.8933943e-06
2.8744617e-06
2.8883443e-06
2.9348817e-06
3.0175548e-06
3.1319819e-06
3.2762193e-06
3.4502476e-06
3.6552134e-06
3.8928891e-06
4.1601483e-06
4.4700184e-06
4.8227306e-06
5.2231541e-06
5.6771012e-06
6.191618e-06
6.7752731e-06
7.4385186e-06
8.1942135e-06
9.0385999e-06
1.002435e-05
1.1161511e-05
1.248064e-05
1.4020028e-05
1.5827573e-05
1.7963171e-05
2.0500895e-05
2.3533494e-05
2.7176091e-05
3.1570991e-05
3.6894977e-05
4.3678142e-05
5.1636244e-05
6.136136e-05
7.3262962e-05
8.7850515e-05
0.00010575128
0.00012773823
0.00015618296
0.00018968099
0.00023089574
0.00028162197
0.00034742148
0.00042494933
0.000520482
0.00063822843
0.00079079556
0.00097108292
0.0011931469
0.0011918505
0.0011905678
0.0011892623
0.0011879354
0.0011865807
0.0011851911
0.0011837562
0.0011822662
0.0011807456
0.0011793458
0.0011781992
0.0011772552
0.0011764726
0.0011758234
0.0011753131
0.0011749282
0.0011745327
0.0011739546
0.0011734634
0.0011736492
0.0011736639
1.1596487e-07
4.7919232e-06
2.7342313e-06
3.3810952e-06
2.6910463e-06
2.6049993e-06
2.9458207e-06
2.5663036e-06
2.5638763e-06
2.4648656e-06
2.4500957e-06
2.4588949e-06
2.5038862e-06
2.5847178e-06
2.6970119e-06
2.8382777e-06
3.0078991e-06
3.2065945e-06
3.4328412e-06
3.6938493e-06
3.9908857e-06
4.3273745e-06
4.7074715e-06
5.1362246e-06
5.6197186e-06
6.1652871e-06
6.7818337e-06
7.4689617e-06
8.2581797e-06
9.1582736e-06
1.0189878e-05
1.1378625e-05
1.2756822e-05
1.4365041e-05
1.6254142e-05
1.8487508e-05
2.1143918e-05
2.4321384e-05
2.814185e-05
3.2756633e-05
3.8353257e-05
4.5162975e-05
5.3869533e-05
6.4110035e-05
7.6647004e-05
9.2016098e-05
0.0001108769
0.000134043
0.00016251755
0.0001993086
0.00024270323
0.00029609248
0.00036180335
0.00044685724
0.00054722305
0.00067083966
0.00083103136
0.0010200572
0.0011936463
0.0011922767
0.0011909077
0.0011895241
0.0011881254
0.0011867058
0.001185259
0.0011837804
0.0011822668
0.0011807435
0.0011794588
0.0011783929
0.0011775142
0.0011767847
0.0011761871
0.0011757322
0.0011753894
0.0011750039
0.0011744485
0.0011740789
0.0011743912
0.0011745316
1.1107879e-07
3.9791685e-06
2.3565001e-06
2.8400358e-06
2.3208326e-06
2.1725385e-06
2.4271682e-06
2.1296105e-06
2.1115773e-06
2.0737209e-06
2.0879203e-06
2.1314008e-06
2.2124739e-06
2.3241142e-06
2.4637419e-06
2.6304556e-06
2.8246277e-06
3.0452991e-06
3.298195e-06
3.584669e-06
3.9077498e-06
4.2711032e-06
4.679111e-06
5.1370069e-06
5.6510782e-06
6.2289184e-06
6.8720966e-06
7.6039079e-06
8.4331108e-06
9.3769812e-06
1.0457252e-05
1.1701052e-05
1.3142497e-05
1.4824469e-05
1.6800922e-05
1.9139387e-05
2.1923671e-05
2.5257601e-05
2.9270258e-05
3.4121125e-05
4.0008102e-05
4.7517156e-05
5.6339736e-05
6.7125958e-05
8.0334804e-05
9.6528838e-05
0.00011640068
0.00014080377
0.0001723717
0.00020952163
0.00025518795
0.00031134894
0.00038043652
0.00046982261
0.00057521515
0.00070494288
0.00087301925
0.0010711709
0.0011940411
0.0011926053
0.0011911637
0.0011897122
0.0011882507
0.0011867758
0.0011852796
0.0011837585
0.0011822319
0.0011807818
0.0011795907
0.0011786011
0.0011777834
0.0011771062
0.0011765618
0.0011761635
0.0011758668
0.0011755084
0.0011750015
0.0011747484
0.0011751509
0.0011753672
1.0778432e-07
3.2051865e-06
2.0315252e-06
2.2942169e-06
2.0170785e-06
1.802527e-06
1.9445597e-06
1.7590248e-06
1.7563355e-06
1.7675304e-06
1.8118654e-06
1.8933766e-06
2.0054198e-06
2.1440353e-06
2.3082306e-06
2.4983096e-06
2.7142092e-06
2.9596873e-06
3.2366166e-06
3.5477655e-06
3.8964433e-06
4.2865206e-06
4.7225346e-06
5.2098575e-06
5.754935e-06
6.3612191e-06
7.0447687e-06
7.8144718e-06
8.6847504e-06
9.6737038e-06
1.0804306e-05
1.2105254e-05
1.361266e-05
1.5371841e-05
1.7439757e-05
1.9887995e-05
2.2805975e-05
2.6303381e-05
3.0517077e-05
3.5615403e-05
4.2081869e-05
4.9684325e-05
5.8963394e-05
7.0311625e-05
8.4209718e-05
0.00010124902
0.00012215577
0.00014782455
0.00018097204
0.00022000783
0.00026797643
0.00032694217
0.00039944736
0.00049315984
0.0006036383
0.00073956022
0.00091557168
0.0011230153
0.0011943354
0.0011928438
0.0011913427
0.0011898339
0.0011883168
0.0011867928
0.0011852581
0.0011837062
0.0011821648
0.001180845
0.0011797389
0.0011788229
0.0011780658
0.0011774428
0.0011769524
0.001176605
0.0011763481
0.0011760277
0.0011755952
0.0011754501
0.0011759107
0.0011761109
1.0638226e-07
2.5259276e-06
1.75054e-06
1.7704403e-06
1.7371847e-06
1.4859678e-06
1.5503427e-06
1.4635772e-06
1.4916802e-06
1.5380972e-06
1.6212122e-06
1.7332941e-06
1.8708617e-06
2.0323609e-06
2.2181053e-06
2.4292949e-06
2.6669143e-06
2.9345495e-06
3.2343564e-06
3.5693616e-06
3.9430406e-06
4.3593992e-06
4.8230912e-06
5.3396001e-06
5.915491e-06
6.5587542e-06
7.2792483e-06
8.089235e-06
8.9936665e-06
1.002805e-05
1.1209475e-05
1.25683e-05
1.4142763e-05
1.5980829e-05
1.8142491e-05
2.0787098e-05
2.3863964e-05
2.755474e-05
3.2004704e-05
3.7392823e-05
4.3939197e-05
5.1914073e-05
6.1650788e-05
7.3558949e-05
8.8142099e-05
0.00010601959
0.0001279517
0.00015622566
0.00018952487
0.00023041254
0.00028063702
0.00034234913
0.00042215534
0.00051607767
0.00063154226
0.00077355592
0.00095730036
0.0011739371
0.0011945433
0.001193002
0.0011914532
0.0011898991
0.0011883355
0.0011867643
0.0011851929
0.0011836361
0.0011821447
0.0011809239
0.0011799026
0.0011790584
0.001178363
0.0011777974
0.0011773625
0.0011770602
0.0011768312
0.0011765443
0.0011761949
0.0011761555
0.0011766473
0.0011768107
1.0794016e-07
1.9446565e-06
1.5163224e-06
1.369176e-06
1.4515757e-06
1.2205072e-06
1.2617173e-06
1.2470025e-06
1.3078963e-06
1.3888638e-06
1.5006298e-06
1.636258e-06
1.7944465e-06
1.9753319e-06
2.1801524e-06
2.4106776e-06
2.6686945e-06
2.9572839e-06
3.2790129e-06
3.6370368e-06
4.0349279e-06
4.4767792e-06
4.9673388e-06
5.5122024e-06
6.1180779e-06
6.7931442e-06
7.5475296e-06
8.3939085e-06
9.3482423e-06
1.0430716e-05
1.1666838e-05
1.3088897e-05
1.4737549e-05
1.6663867e-05
1.8931712e-05
2.1620643e-05
2.4829513e-05
2.8681118e-05
3.3327139e-05
3.8954991e-05
4.579568e-05
5.4132743e-05
6.4312072e-05
7.6761162e-05
9.2003692e-05
0.00011159961
0.00013467959
0.00016298636
0.00019772053
0.00024035886
0.00029271517
0.00036037155
0.00043995016
0.00053771892
0.00065789187
0.00081350415
0.00099666301
0.0011963032
0.0011946847
0.001193096
0.0011915061
0.0011899165
0.0011883204
0.0011867133
0.0011851002
0.0011835236
0.0011821614
0.0011810227
0.0011800806
0.0011793043
0.0011786687
0.0011781604
0.0011777811
0.0011775204
0.0011773107
0.0011770509
0.0011767796
0.0011768324
0.0011773332
0.0011774978
1.1362576e-07
1.4675833e-06
1.3261341e-06
1.0762378e-06
1.2953374e-06
1.0001994e-06
1.0657431e-06
1.1035362e-06
1.1914138e-06
1.300126e-06
1.4329784e-06
1.5868847e-06
1.7622412e-06
1.9601945e-06
2.1824756e-06
2.4311154e-06
2.7084244e-06
3.0167955e-06
3.3593668e-06
3.7392565e-06
4.1601063e-06
4.6260881e-06
5.1420464e-06
5.7136989e-06
6.3479116e-06
7.0530715e-06
7.8395874e-06
8.7205717e-06
9.7125891e-06
1.0836679e-05
1.2119452e-05
1.3594675e-05
1.5304893e-05
1.7303571e-05
1.9657556e-05
2.2450128e-05
2.5784623e-05
2.9788884e-05
3.4620677e-05
4.047435e-05
4.7913971e-05
5.6654266e-05
6.7321834e-05
8.0361958e-05
9.6320051e-05
0.00011586548
0.00013982019
0.00016919349
0.00020522123
0.00025176005
0.000306427
0.00037352293
0.00045590813
0.00055711308
0.00068814937
0.00084224337
0.001031831
0.0011964373
0.0011947826
0.0011931509
0.0011915215
0.0011898969
0.0011882746
0.0011866529
0.0011850377
0.0011834762
0.0011822072
0.0011811441
0.0011802694
0.0011795519
0.0011789694
0.0011785131
0.0011781832
0.0011779576
0.0011777657
0.0011775377
0.0011773522
0.0011774748
0.0011779474
0.0011780446
1.2408194e-07
1.1575432e-06
1.1624006e-06
9.3456277e-07
9.4693839e-07
8.7437422e-07
9.3686834e-07
1.0169792e-06
1.1257301e-06
1.2540826e-06
1.4028769e-06
1.5718983e-06
1.7623777e-06
1.9758578e-06
2.2142178e-06
2.4795555e-06
2.7742147e-06
3.1008061e-06
3.4622532e-06
3.8618466e-06
4.303322e-06
4.7909676e-06
5.3297736e-06
5.9256454e-06
6.5856988e-06
7.3160307e-06
8.1312292e-06
9.0431645e-06
1.0078042e-05
1.124356e-05
1.2573698e-05
1.4103831e-05
1.5878484e-05
1.795352e-05
2.0398707e-05
2.330082e-05
2.6767404e-05
3.0931357e-05
3.5956496e-05
4.2044425e-05
4.9442926e-05
5.8456272e-05
6.945765e-05
8.2902508e-05
9.9351593e-05
0.00011949174
0.00014544901
0.00017592456
0.00021327802
0.00025908187
0.00031526907
0.00038422272
0.0004688812
0.00057831996
0.00070706512
0.00086538883
0.0010602798
0.0011965459
0.0011948621
0.0011931971
0.0011915342
0.0011898747
0.0011882177
0.0011865685
0.0011849534
0.0011834909
0.0011822859
0.0011812855
0.0011804644
0.0011797948
0.001179257
0.0011788434
0.0011785496
0.0011783474
0.0011781755
0.0011779906
0.0011778747
0.0011780302
0.001178452
0.0011785202
1.4565866e-07
1.1994895e-06
1.0002087e-06
7.1261093e-07
7.7307221e-07
7.8112889e-07
8.6553155e-07
9.6857574e-07
1.0938369e-06
1.2370601e-06
1.3994072e-06
1.5818081e-06
1.7857802e-06
2.0129782e-06
2.2653072e-06
2.5448894e-06
2.8540982e-06
3.1955891e-06
3.5723422e-06
3.9877158e-06
4.4455186e-06
4.9501143e-06
5.5065699e-06
6.1208691e-06
6.8002155e-06
7.5534463e-06
8.3915807e-06
9.3285198e-06
1.0381933e-05
1.1574308e-05
1.2934213e-05
1.449787e-05
1.6310927e-05
1.8430654e-05
2.0928543e-05
2.3893443e-05
2.7435376e-05
3.1690136e-05
3.6824901e-05
4.3045101e-05
5.0602944e-05
6.023639e-05
7.1555365e-05
8.5380281e-05
0.00010228496
0.00012297152
0.00014830178
0.00017933373
0.00021736713
0.00026399806
0.00032119577
0.00039499993
0.00048179785
0.00058840032
0.0007194369
0.00088066939
0.0010792837
0.001196656
0.0011949491
0.0011932597
0.0011915745
0.0011898937
0.0011882163
0.0011865498
0.0011849347
0.0011835494
0.0011823955
0.0011814423
0.0011806632
0.0011800331
0.0011795326
0.0011791508
0.0011788777
0.0011786883
0.0011785374
0.0011784009
0.0011783504
0.0011785233
0.001178881
0.0011789114
1.388447e-07
7.9900208e-07
8.19521e-07
6.0729745e-07
6.6517632e-07
7.2626369e-07
8.2928642e-07
9.492014e-07
1.0876126e-06
1.2435169e-06
1.418173e-06
1.6127952e-06
1.8289283e-06
2.0682915e-06
2.3328279e-06
2.6247141e-06
2.946389e-06
3.3005407e-06
3.6902854e-06
4.1190365e-06
4.5906825e-06
5.1096663e-06
5.6811349e-06
6.3111542e-06
7.0070171e-06
7.7776648e-06
8.6342452e-06
9.5908338e-06
1.067409e-05
1.1893248e-05
1.3283437e-05
1.4881741e-05
1.6734815e-05
1.8901141e-05
2.1453628e-05
2.4482823e-05
2.810075e-05
3.2445597e-05
3.7687437e-05
4.4035192e-05
5.1745123e-05
6.1131111e-05
7.2577196e-05
8.6555139e-05
0.00010364225
0.0001245467
0.00015013747
0.0001830742
0.00022176292
0.00026917415
0.00032730622
0.00039862195
0.00048616757
0.00059371977
0.00072597505
0.00088879525
0.0010895105
0.0011967992
0.0011950717
0.0011933613
0.0011916566
0.0011899582
0.0011882663
0.0011865905
0.0011849795
0.0011836483
0.0011825299
0.0011816089
0.0011808596
0.0011802606