/*--------------------------------*- C++ -*----------------------------------*\
  =========                 |
  \\      /  F ield         | OpenFOAM: The Open Source CFD Toolbox
   \\    /   O peration     | Website:  https://openfoam.org
    \\  /    A nd           | Version:  12
     \\/     M anipulation  |
\*---------------------------------------------------------------------------*/
FoamFile
{
    format      ascii;
    class       volScalarField;
    location    "0.086";
    object      T;
}
// * * * * * * * * * * * * * * * * * * * * * * * * * * * * * * * * * * * * * //

dimensions      [0 0 0 1 0 0 0];

internalField   nonuniform List<scalar> 
16000
(
295.60805
287.23843
290.46602
288.71305
289.80685
289.30448
289.72173
289.61178
289.8063
289.83941
289.9588
290.0424
290.14637
290.24775
290.35503
290.46558
290.58019
290.69872
290.82123
290.94773
291.07822
291.21268
291.35106
291.49331
291.63935
291.78905
291.9423
292.09893
292.25875
292.42154
292.58705
292.755
292.92508
293.09697
293.2703
293.44469
293.61972
293.79499
293.97005
294.14446
294.31776
294.48952
294.65927
294.8266
294.99107
295.15228
295.30984
295.46341
295.61264
295.75724
295.89694
296.0315
296.16072
296.2844
296.40242
296.51463
296.62096
296.72132
296.81569
296.90405
296.98645
297.06297
297.13372
297.19895
297.259
297.31434
297.3655
297.41306
297.45761
297.49975
297.54019
297.57983
297.61949
297.65939
297.69886
297.7363
297.77463
297.80749
297.87024
297.91519
295.30862
286.84042
290.21531
288.3627
289.5232
288.98414
289.43624
289.317
289.52576
289.5643
289.69054
289.78293
289.89395
290.00404
290.11961
290.23902
290.36267
290.49053
290.62262
290.75895
290.89948
291.04418
291.19297
291.34577
291.50245
291.66288
291.82686
291.99419
292.16464
292.33793
292.51376
292.69179
292.87166
293.05299
293.23535
293.41831
293.60143
293.78422
293.96623
294.14697
294.32597
294.50276
294.67689
294.84793
295.01546
295.17909
295.33847
295.49328
295.64322
295.78803
295.9275
296.06143
296.18967
296.31209
296.4286
296.53912
296.64361
296.74205
296.83443
296.9208
297.00123
297.07583
297.14476
297.20826
297.2667
297.32059
297.37046
297.41692
297.46047
297.5016
297.5409
297.5792
297.61746
297.65623
297.69504
297.73255
297.76872
297.8063
297.85921
297.91902
295.02324
286.47096
289.96856
288.05475
289.25491
288.70574
289.17149
289.05986
289.27344
289.32366
289.4553
289.55812
289.67712
289.79682
289.92183
290.05113
290.18493
290.32323
290.46602
290.61328
290.76495
290.92095
291.08119
291.24553
291.4138
291.58582
291.76134
291.94011
292.12182
292.30615
292.49272
292.68114
292.87097
293.06178
293.25307
293.44435
293.63513
293.82489
294.01312
294.19932
294.38298
294.56364
294.74084
294.91417
295.08323
295.24766
295.40715
295.56143
295.71025
295.85342
295.99078
296.1222
296.2476
296.3669
296.48008
296.58712
296.68804
296.78286
296.87164
296.95446
297.03142
297.10269
297.16843
297.22895
297.28462
297.33595
297.38354
297.42796
297.46968
297.50905
297.54652
297.58282
297.619
297.65597
297.69356
297.73033
297.76595
297.80484
297.85191
297.92174
294.76055
286.13071
289.73782
287.78278
289.01925
288.45988
288.93954
288.83711
289.05599
289.1194
289.25745
289.37188
289.50016
289.63064
289.76634
289.90674
290.05189
290.20179
290.3564
290.51567
290.67951
290.8478
291.0204
291.19712
291.37776
291.56205
291.7497
291.94038
292.13372
292.32931
292.52672
292.72546
292.92503
293.12492
293.32457
293.52344
293.72098
293.91662
294.10983
294.30009
294.48689
294.66976
294.84828
295.02205
295.19072
295.35399
295.5116
295.66334
295.80905
295.9486
296.08191
296.20894
296.32965
296.44407
296.55222
296.65416
296.74996
296.83971
296.92351
297.00147
297.07376
297.14055
297.20206
297.25859
297.31055
297.35846
297.40293
297.44451
297.48365
297.52058
297.55559
297.58927
297.62276
297.65734
297.69316
297.72883
297.76443
297.80327
297.84681
297.92493
294.52083
285.82616
289.53141
287.55624
288.82738
288.25459
288.7444
288.65582
288.87842
288.95776
289.10299
289.23035
289.36927
289.51167
289.6593
289.81194
289.96959
290.1322
290.29973
290.47208
290.64913
290.83071
291.01662
291.20662
291.40042
291.5977
291.79808
292.00115
292.20644
292.41347
292.62169
292.83055
293.03946
293.24783
293.45504
293.66048
293.86357
294.0637
294.26032
294.45291
294.64098
294.82408
295.00183
295.17389
295.33998
295.49985
295.65335
295.80035
295.94076
296.07456
296.20175
296.32237
296.43648
296.54416
296.64554
296.74072
296.82983
296.91302
296.99044
297.06224
297.12862
297.1898
297.246
297.29755
297.34486
297.38847
297.42899
297.46698
297.50281
297.53664
297.56856
297.59905
297.62933
297.66094
297.69438
297.72858
297.76406
297.80209
297.84385
297.92839
294.30766
285.56364
289.35728
287.36647
288.66027
288.09627
288.59651
288.52231
288.74758
288.84451
288.9978
289.1389
289.28963
289.44488
289.60552
289.7715
289.94277
290.11926
290.30088
290.48749
290.6789
290.87488
291.07515
291.27939
291.48722
291.6982
291.91187
292.12769
292.34511
292.56352
292.78228
293.00075
293.21824
293.43409
293.64762
293.85817
294.06512
294.26787
294.46585
294.65858
294.8456
295.02653
295.20105
295.3689
295.52989
295.68389
295.83083
295.97069
296.1035
296.22933
296.34828
296.46048
296.56608
296.66525
296.75816
296.84501
296.92597
297.00123
297.07099
297.13545
297.19483
297.24937
297.29931
297.34499
297.38684
297.42538
297.46122
297.49491
297.52678
297.55689
297.58517
297.61197
297.63855
297.66672
297.69726
297.7297
297.76471
297.80139
297.84227
297.93234
294.12434
285.34524
289.21507
287.21278
288.52805
287.987
288.48651
288.44012
288.66493
288.78178
288.94414
289.09975
289.26367
289.43304
289.60815
289.78898
289.97544
290.1674
290.36469
290.5671
290.77434
290.98609
291.20196
291.42152
291.64426
291.86964
292.09704
292.32583
292.5553
292.78474
293.0134
293.24054
293.46539
293.68721
293.90528
294.11892
294.3275
294.53044
294.72721
294.91738
295.10058
295.2765
295.44495
295.60577
295.75889
295.90431
296.04209
296.17232
296.29516
296.41077
296.51938
296.62119
296.71645
296.80541
296.88829
296.96535
297.03682
297.10292
297.16389
297.21996
297.27137
297.31837
297.36122
297.40027
297.43592
297.46871
297.49923
297.52801
297.55534
297.58118
297.60532
297.62798
297.65046
297.67475
297.702
297.73242
297.76659
297.80151
297.84209
297.93676
293.96922
285.1693
289.10302
287.09407
288.42518
287.91214
288.41161
288.37639
288.62998
288.76829
288.94221
289.11412
289.29362
289.4793
289.67112
289.86903
290.07284
290.28235
290.4973
290.71735
290.94213
291.17116
291.40394
291.63988
291.87833
292.11859
292.3599
292.60148
292.84249
293.0821
293.31944
293.55368
293.78399
294.00959
294.22974
294.44376
294.65106
294.85113
295.04351
295.22788
295.40399
295.57167
295.73086
295.88155
296.02383
296.15784
296.28377
296.40185
296.51237
296.6156
296.71186
296.80146
296.88471
296.96193
297.03339
297.0994
297.16023
297.21613
297.26736
297.31417
297.35681
297.39554
297.43063
297.46241
297.49128
297.51777
297.54242
297.56577
297.58807
297.60919
297.62877
297.64692
297.66496
297.68501
297.70867
297.73689
297.76982
297.8026
297.84332
297.94175
293.83754
285.03383
289.02387
287.01049
288.37056
287.90474
288.39855
288.42121
288.64904
288.80774
288.99675
289.18747
289.38549
289.5902
289.80141
290.01895
290.24258
290.47197
290.70673
290.9464
291.19042
291.4382
291.68903
291.94215
292.19675
292.45195
292.70682
292.96041
293.21176
293.4599
293.7039
293.94283
294.17585
294.40218
294.62109
294.83199
295.03435
295.22779
295.41201
295.58682
295.75214
295.90799
296.05447
296.19178
296.32015
296.43989
296.55133
296.65486
296.75086
296.83972
296.92185
296.99762
297.06743
297.13161
297.19052
297.24447
297.29374
297.33863
297.37939
297.41627
297.44954
297.47945
297.50627
297.53032
297.55198
297.57173
297.59012
297.60764
297.6245
297.64051
297.6552
297.66859
297.68194
297.69749
297.71734
297.74322
297.77447
297.80486
297.84625
297.94732
293.72835
284.94084
288.98335
286.97526
288.36958
287.93925
288.43116
288.48189
288.72396
288.90879
289.11643
289.32857
289.54812
289.77474
290.00816
290.24808
290.4941
290.74575
291.00248
291.26362
291.52844
291.79612
292.06576
292.33638
292.60695
292.8764
293.14364
293.40755
293.66704
293.92107
294.16862
294.40878
294.64071
294.86369
295.07711
295.28049
295.47349
295.65589
295.8276
295.98864
296.13917
296.2794
296.40965
296.5303
296.64177
296.74453
296.83906
296.92586
297.00542
297.07822
297.14473
297.2054
297.26063
297.31082
297.35633
297.39748
297.43457
297.46789
297.49769
297.52423
297.54775
297.5685
297.58674
297.60275
297.61691
297.62966
297.64151
297.65292
297.66407
297.6747
297.68428
297.69273
297.70124
297.71211
297.72808
297.75149
297.78058
297.80851
297.85127
297.95318
293.64493
284.8977
288.98702
287.05331
288.42637
288.03651
288.52085
288.61617
288.86762
289.08
289.3103
289.54698
289.79137
290.0431
290.3018
290.56697
290.83804
291.11432
291.39502
291.67924
291.966
292.25422
292.54273
292.83031
293.11572
293.39767
293.6749
293.94617
294.21031
294.46622
294.71292
294.94954
295.17537
295.38983
295.5925
295.78314
295.96164
296.12804
296.28253
296.42539
296.55701
296.67787
296.78848
296.88942
296.9813
297.06471
297.14027
297.20857
297.27018
297.32564
297.37546
297.42012
297.46004
297.49562
297.52723
297.55518
297.57976
297.60124
297.61986
297.63587
297.64949
297.66094
297.67048
297.67836
297.6849
297.69053
297.69571
297.70086
297.70614
297.71124
297.7156
297.71905
297.72265
297.72881
297.74092
297.76173
297.78822
297.81373
297.85842
297.9596
293.59355
284.91747
289.04321
287.18934
288.53053
288.20235
288.68029
288.82055
289.08866
289.3313
289.58864
289.85349
290.12638
290.40674
290.69399
290.98741
291.28616
291.58926
291.8956
292.20399
292.5131
292.82155
293.12789
293.43064
293.72832
294.01947
294.3027
294.57672
294.84034
295.09253
295.33243
295.55936
295.77281
295.9725
296.15831
296.33032
296.48874
296.63394
296.76641
296.88674
296.99557
297.09361
297.18159
297.26026
297.33035
297.39258
297.44764
297.4962
297.53887
297.57621
297.60874
297.63694
297.66123
297.68199
297.69956
297.71423
297.72628
297.73594
297.74343
297.74897
297.75275
297.75499
297.75589
297.75569
297.75468
297.75322
297.75174
297.75063
297.75001
297.74956
297.7487
297.74719
297.74594
297.74746
297.75581
297.77395
297.79748
297.82058
297.86756
297.96693
293.57948
285.0066
289.1624
287.37307
288.69757
288.4441
288.91814
289.10705
289.39758
289.67376
289.96294
290.26024
290.56577
290.87862
291.19792
291.5226
291.85143
292.18305
292.51597
292.84857
293.17919
293.50608
293.8275
294.14173
294.44712
294.7421
295.02526
295.29535
295.55135
295.79242
296.01798
296.2277
296.42144
296.59933
296.76164
296.90886
297.0416
297.16057
297.26659
297.36052
297.44326
297.5157
297.57875
297.63326
297.68008
297.71998
297.7537
297.78191
297.80523
297.82421
297.83937
297.85113
297.85989
297.866
297.86975
297.87141
297.8712
297.86932
297.86597
297.86133
297.85556
297.84884
297.84136
297.83331
297.82494
297.81658
297.8086
297.80135
297.79493
297.78904
297.7831
297.77679
297.77083
297.76788
297.77264
297.78799
297.80831
297.82928
297.87869
297.97495
293.60461
285.17252
289.34992
287.64251
288.9395
288.7695
289.24487
289.48564
289.80622
290.12051
290.44702
290.78182
291.12463
291.47407
291.82883
292.18735
292.5479
292.90863
293.26756
293.62266
293.97186
294.31309
294.64436
294.96379
295.26967
295.5605
295.83502
296.09224
296.33148
296.55235
296.75473
296.93878
297.10491
297.25372
297.38598
297.50261
297.60461
297.69304
297.76899
297.83357
297.88783
297.93284
297.96956
297.99894
298.02184
298.03905
298.05128
298.0592
298.06338
298.06433
298.06251
298.05831
298.05205
298.04404
298.03453
298.02372
298.01179
297.99891
297.98523
297.97089
297.95603
297.94079
297.92532
297.90979
297.89442
297.87946
297.86527
297.85213
297.84015
297.82905
297.81828
297.80741
297.797
297.7899
297.79126
297.80365
297.82053
297.83958
297.89156
297.98364
293.67379
285.42813
289.60935
287.99843
289.26766
289.19013
289.6742
289.971
290.33019
290.68856
291.05859
291.43645
291.82126
292.21104
292.60385
292.99751
293.38969
293.77798
294.15988
294.53291
294.89466
295.24283
295.57533
295.89034
296.18632
296.46209
296.71685
296.95016
297.16192
297.3524
297.52215
297.67195
297.80281
297.91587
298.01238
298.09365
298.16103
298.21583
298.25936
298.29284
298.31746
298.3343
298.34437
298.34859
298.3478
298.34274
298.33407
298.32239
298.3082
298.29194
298.27399
298.25467
298.23426
298.21298
298.19102
298.16854
298.14567
298.12251
298.09919
298.07581
298.05246
298.02927
298.00635
297.98384
297.9619
297.94078
297.92076
297.9021
297.8849
297.86893
297.85368
297.8386
297.82415
297.81329
297.81143
297.8206
297.83394
297.85108
297.90533
297.99344
293.79145
285.79174
289.93758
288.45537
289.69597
289.72117
290.22424
290.58289
290.99033
291.39988
291.81988
292.24606
292.67671
293.10912
293.54058
293.96816
294.38886
294.79965
295.19757
295.57979
295.94374
296.28716
296.60818
296.90539
297.17783
297.42505
297.64701
297.84412
298.01713
298.16709
298.29532
298.40325
298.49247
298.56459
298.62126
298.66408
298.69461
298.7143
298.72455
298.72662
298.72169
298.71081
298.69493
298.6749
298.65147
298.62528
298.59692
298.56688
298.53555
298.50332
298.47045
298.4372
298.40377
298.3703
298.33694
298.30376
298.27086
298.23831
298.20617
298.17452
298.14341
298.11294
298.0832
298.05428
298.02633
297.99955
297.97418
297.95044
297.92846
297.90806
297.88875
297.86991
297.85191
297.83782
297.83289
297.8385
297.84829
297.86412
297.91979
298.00399
293.96216
286.29234
290.33924
289.03088
290.24544
290.38569
290.92064
291.34819
291.81351
292.28128
292.75669
293.23485
293.71296
294.18738
294.65447
295.11049
295.55174
295.97469
296.37612
296.75322
297.10369
297.42584
297.71856
297.98137
298.21438
298.4182
298.59389
298.74289
298.86687
298.96772
299.04741
299.10797
299.15139
299.17963
299.19454
299.19786
299.19121
299.17605
299.15373
299.12545
299.09229
299.0552
299.01499
298.9724
298.92805
298.88247
298.83611
298.78935
298.7425
298.69581
298.6495
298.60371
298.55857
298.51416
298.47055
298.42779
298.38591
298.34493
298.30488
298.2658
298.22772
298.19071
298.15483
298.12015
298.0868
298.05493
298.02474
297.99645
297.97019
297.94585
297.92297
297.90087
297.87992
297.86318
297.85539
297.85716
297.86327
297.87831
297.936
298.0146
294.19696
286.9773
290.85882
289.75591
290.94677
291.21484
291.7958
292.29912
292.83067
293.36225
293.89629
294.42695
294.95003
295.46075
295.95445
296.42664
296.87323
297.29069
297.67615
298.02757
298.34368
298.62405
298.869
299.07947
299.25698
299.40346
299.52114
299.61243
299.67985
299.72591
299.75306
299.76367
299.75995
299.74394
299.71752
299.68239
299.64007
299.59192
299.53913
299.48275
299.42368
299.36271
299.3005
299.23763
299.17456
299.1117
299.04936
298.98781
298.92725
298.86783
298.80968
298.75286
298.69742
298.6434
298.5908
298.5396
298.48981
298.44141
298.3944
298.34878
298.30456
298.26178
298.22048
298.18072
298.14259
298.10623
298.07179
298.0395
298.0095
297.98175
297.9558
297.93099
297.90776
297.889
297.87857
297.87625
297.87852
297.89396
297.9541
298.02439
294.52222
287.83638
291.52305
290.66776
291.83766
292.24333
292.88582
293.47151
294.07561
294.67382
295.26534
295.84302
296.40105
296.93357
297.4353
297.9017
298.32922
298.71535
299.05869
299.35895
299.61677
299.83365
300.01172
300.15363
300.26233
300.34098
300.39274
300.42076
300.42806
300.41748
300.39163
300.35293
300.30354
300.2454
300.18022
300.10951
300.03458
299.95657
299.87644
299.79504
299.71307
299.63111
299.54967
299.46913
299.38982
299.312
299.23587
299.16157
299.0892
299.01882
298.95048
298.88416
298.81987
298.75756
298.6972
298.63873
298.58212
298.5273
298.47426
298.42298
298.37343
298.32564
298.27964
298.23547
298.19321
298.15295
298.11486
298.07912
298.04593
298.01529
297.98677
297.95982
297.93496
297.91474
297.90191
297.89547
297.89409
297.91002
297.97251
298.03386
294.97815
288.8019
292.37417
291.80181
292.96176
293.51272
294.23328
294.90701
295.5853
296.24579
296.88401
297.49157
298.06165
298.58832
299.06709
299.49492
299.87032
300.19327
300.46497
300.68773
300.8646
300.99923
301.09556
301.15768
301.18965
301.19538
301.17856
301.14262
301.09065
301.02545
300.9495
300.86499
300.77382
300.67765
300.57789
300.47577
300.3723
300.26835
300.16465
300.0618
299.96028
299.86049
299.76274
299.66727
299.57426
299.48384
299.3961
299.31106
299.22875
299.14915
299.07222
298.9979
298.92613
298.85681
298.78988
298.72525
298.66283
298.60256
298.54439
298.48827
298.43418
298.38212
298.3321
298.28417
298.23839
298.19483
298.15364
298.115
298.07914
298.04608
298.01547
297.98693
297.96103
297.93984
297.92486
297.91462
297.91008
297.92629
297.98822
298.04233
295.62027
290.05085
293.45936
293.20958
294.37927
295.08084
295.89053
296.65006
297.39132
298.0937
298.75008
299.35225
299.89453
300.37325
300.78691
301.13602
301.42271
301.65047
301.82373
301.9475
302.0271
302.06786
302.07494
302.05325
302.00729
301.94114
301.85845
301.76245
301.65595
301.54137
301.42082
301.29607
301.16864
301.03978
300.91057
300.78189
300.65445
300.52884
300.40554
300.28491
300.16725
300.05275
299.94159
299.83385
299.72959
299.62882
299.53152
299.43766
299.34716
299.25995
299.17592
299.09497
299.01699
298.94185
298.86944
298.79965
298.73239
298.66755
298.60507
298.54489
298.48697
298.43131
298.37792
298.32682
298.27808
298.23177
298.188
298.14699
298.10893
298.07389
298.04163
298.01198
297.98554
297.96373
297.94693
297.93357
297.92671
297.94314
297.99962
298.04872
296.50596
291.64174
294.86344
294.97023
296.16872
297.01484
297.90521
298.72666
299.49509
300.19376
300.81643
301.35849
301.81868
302.19842
302.50135
302.73279
302.89913
303.00737
303.06466
303.07799
303.05397
302.99869
302.91762
302.81564
302.69699
302.56534
302.42385
302.27517
302.12156
301.96491
301.80678
301.64847
301.49105
301.33537
301.18212
301.03188
300.88506
300.742
300.60294
300.46805
300.33745
300.21118
300.08928
299.9717
299.85841
299.74933
299.64436
299.54338
299.44627
299.35289
299.26309
299.17674
299.09368
299.01377
298.93686
298.86283
298.79155
298.72293
298.65687
298.59331
298.53221
298.47355
298.41734
298.36362
298.31243
298.26385
298.21801
298.17509
298.13527
298.09863
298.06509
298.0347
298.00806
297.98591
297.96765
297.95199
297.94363
297.95931
298.00914
298.05014
297.62002
293.6989
296.69167
297.16728
298.3967
299.35885
300.28521
301.10899
301.83668
302.45964
302.97792
303.39442
303.71523
303.94846
304.10345
304.19
304.21781
304.19609
304.13329
304.03696
303.91376
303.76941
303.60881
303.4361
303.25472
303.06754
302.87695
302.68487
302.49289
302.30228
302.11408
301.92909
301.74795
301.57116
301.39908
301.23197
301.07003
300.91337
300.76204
300.61604
300.47536
300.33991
300.20961
300.08434
299.96396
299.84834
299.7373
299.63068
299.52831
299.43001
299.3356
299.24491
299.15775
299.07397
298.9934
298.9159
298.84135
298.76961
298.70061
298.63426
298.57053
298.50939
298.45086
298.39496
298.34176
298.29135
298.24384
298.19941
298.15821
298.12031
298.08577
298.05488
298.02821
298.00585
297.98646
297.96908
297.95965
297.97381
298.01689
298.04708
299.13235
296.33481
299.03985
299.8546
301.06022
302.08295
302.95663
303.68581
304.27957
304.74181
305.08298
305.31548
305.45311
305.50979
305.49879
305.43231
305.32117
305.17474
305.00101
304.80669
304.59731
304.37743
304.15078
303.92034
303.68855
303.45732
303.22819
303.00235
302.78075
302.5641
302.35294
302.14767
301.94856
301.75579
301.56947
301.38964
301.21628
301.04934
300.88872
300.7343
300.58595
300.4435
300.30678
300.1756
300.04977
299.92908
299.81332
299.7023
299.59581
299.49362
299.39555
299.3014
299.21096
299.12407
299.04055
298.96024
298.88301
298.80874
298.73732
298.66868
298.60277
298.53958
298.47912
298.42143
298.36656
298.31464
298.26578
298.22014
298.17783
298.13893
298.10362
298.07233
298.04556
298.023
298.00292
297.98468
297.97454
297.98607
298.02129
298.0421
301.09064
299.6199
301.90577
303.00802
304.18357
305.04157
305.7424
306.2647
306.63089
306.85939
306.97136
306.98691
306.92456
306.8006
306.62891
306.42111
306.1867
305.93337
305.66729
305.39336
305.11544
304.83653
304.55901
304.28468
304.01493
303.75082
303.49312
303.2424
302.99905
302.76334
302.53542
302.31535
302.10314
301.89873
301.70201
301.51287
301.33113
301.15663
300.98915
300.82849
300.67442
300.52673
300.38517
300.24951
300.11951
299.99494
299.87555
299.76111
299.65139
299.54616
299.44519
299.34828
299.25523
299.16584
299.07993
298.99735
298.91794
298.84158
298.76818
298.69764
298.62994
298.56504
298.50295
298.44374
298.38746
298.33423
298.28419
298.23749
298.19422
298.1545
298.11856
298.08687
298.0598
298.03687
298.01656
297.99872
297.98883
297.99707
298.02273
298.03335
303.52065
303.54219
305.53453
306.50039
307.38805
307.99404
308.3968
308.61746
308.6923
308.65087
308.51984
308.32128
308.07314
307.78966
307.48202
307.15886
306.8268
306.49088
306.15492
305.82177
305.49356
305.17186
304.8578
304.55217
304.25552
303.9682
303.69039
303.42219
303.16358
302.91449
302.67478
302.44429
302.22282
302.01014
301.80602
301.6102
301.42242
301.24242
301.06992
300.90465
300.74634
300.59471
300.4495
300.31042
300.17722
300.04964
299.9274
299.81026
299.69798
299.59031
299.48701
299.38788
299.29269
299.20125
299.11338
299.0289
298.94768
298.86959
298.79451
298.72238
298.65314
298.58677
298.52329
298.46274
298.40519
298.35078
298.29963
298.25189
298.20769
298.16718
298.13064
298.09846
298.07085
298.04735
298.02697
298.01013
298.00115
298.00604
298.02046
298.02327
306.56575
307.94284
309.26048
309.95597
310.42945
310.63632
310.6585
310.53758
310.31402
310.01802
309.67286
309.29587
308.89983
308.49408
308.08537
307.67856
307.27711
306.88344
306.49924
306.12563
305.76334
305.41279
305.0742
304.74761
304.43295
304.13009
303.83881
303.55885
303.28993
303.03174
302.78398
302.54631
302.31839
302.09991
301.89053
301.68992
301.49775
301.31371
301.13747
300.96872
300.80716
300.65248
300.5044
300.36261
300.22684
300.0968
299.97223
299.85286
299.73844
299.62871
299.52345
299.42241
299.3254
299.2322
299.14263
299.05652
298.97373
298.89411
298.81758
298.74404
298.67344
298.60577
298.54103
298.47926
298.42055
298.365
298.31277
298.26399
298.21883
298.17746
298.14017
298.10727
298.07886
298.0546
298.03389
298.01727
298.00772
298.0088
298.01736
298.01694
310.49193
312.26335
312.79779
312.9811
312.92484
312.69024
312.33925
311.91402
311.4445
310.95128
310.44828
309.94491
309.44738
308.9598
308.48479
308.02396
307.57822
307.14805
306.73356
306.33466
305.95114
305.58264
305.22877
304.88911
304.56319
304.25056
303.95074
303.66328
303.38772
303.12362
302.87055
302.62808
302.39581
302.17333
301.96027
301.75625
301.56091
301.37389
301.19485
301.02346
300.85938
300.70231
300.55194
300.40796
300.27008
300.13802
300.0115
299.89026
299.77402
299.66254
299.55558
299.45291
299.35431
299.25958
299.16854
299.081
298.99683
298.91589
298.83807
298.76329
298.69149
298.62265
298.55678
298.49392
298.43413
298.37753
298.32426
298.27447
298.22834
298.18609
298.14794
298.11412
298.08468
298.05952
298.0385
298.02222
298.01234
298.01009
298.01232
298.00899
315.42844
315.79186
315.51865
315.14909
314.6263
314.03369
313.4065
312.77014
312.13867
311.52063
310.92073
310.34152
309.78413
309.2489
308.73562
308.24381
307.77279
307.32182
306.89009
306.4768
306.08114
305.70236
305.33969
304.99245
304.65994
304.34153
304.03661
303.7446
303.46496
303.19715
302.9407
302.69512
302.45996
302.2348
302.01921
301.81279
301.61518
301.42599
301.24487
301.07148
300.90547
300.74653
300.59435
300.44861
300.30902
300.17529
300.04715
299.92432
299.80655
299.69357
299.58515
299.48106
299.38108
299.28501
299.19265
299.10385
299.01844
298.93629
298.85729
298.78137
298.70845
298.63852
298.57157
298.50765
298.44681
298.38917
298.33484
298.284
298.23686
298.19361
298.15445
298.11956
298.08907
298.06311
298.04185
298.02559
298.01471
298.00901
298.00667
298.00364
317.4142
317.57795
317.00025
316.23865
315.46008
314.68087
313.92101
313.18804
312.48535
311.8139
311.17333
310.5627
309.9807
309.42593
308.89695
308.39235
307.91079
307.45101
307.01183
306.59215
306.19095
305.80728
305.44026
305.08909
304.75299
304.43126
304.12325
303.82832
303.54591
303.27546
303.01645
302.7684
302.53084
302.30334
302.08546
301.8768
301.67698
301.48563
301.30237
301.12688
300.9588
300.79783
300.64363
300.49591
300.35438
300.21873
300.0887
299.96402
299.84441
299.72964
299.61946
299.51364
299.41196
299.31421
299.22022
299.12981
299.04282
298.95913
298.87861
298.8012
298.72683
298.65546
298.58712
298.52182
298.45964
298.40068
298.34507
298.293
298.24466
298.20028
298.16001
298.124
298.09245
298.06566
298.04395
298.02746
298.01575
298.00793
298.00328
298.00087
310.95805
309.69764
306.07467
303.24755
301.99314
301.70925
301.64144
301.63746
301.52771
301.47003
301.36532
301.29811
301.21105
301.12731
301.04239
300.9566
300.87012
300.78295
300.69508
300.60657
300.5175
300.42799
300.33816
300.24815
300.15807
300.06809
299.97834
299.88895
299.80006
299.71181
299.62433
299.53775
299.45219
299.36779
299.28466
299.20293
299.12273
299.04418
298.96739
298.8925
298.81961
298.74886
298.68036
298.61423
298.55059
298.48955
298.43124
298.37575
298.3232
298.27369
298.2273
298.18411
298.1442
298.1076
298.07435
298.04446
298.0179
297.99461
297.97449
297.95742
297.94324
297.93174
297.92259
297.91539
297.90969
297.90478
297.90033
297.89485
297.8894
297.88031
297.87442
297.86095
297.86328
297.85038
297.8803
297.87976
297.94262
297.94227
298.01184
298.02932
310.21874
307.31341
303.23652
301.21955
300.66022
300.66101
300.75961
300.76972
300.76395
300.73826
300.71508
300.67711
300.63457
300.58683
300.53537
300.4803
300.42196
300.36058
300.2965
300.23002
300.16142
300.09097
300.01892
299.94551
299.87098
299.79554
299.7194
299.64278
299.56586
299.48884
299.41191
299.33525
299.25903
299.18344
299.10863
299.03478
298.96205
298.8906
298.82059
298.75216
298.68547
298.62068
298.55791
298.49733
298.43905
298.38323
298.32999
298.27944
298.23172
298.18692
298.14515
298.10647
298.07097
298.03869
298.00965
297.98386
297.96127
297.94183
297.92541
297.91189
297.9011
297.89279
297.88664
297.88222
297.87908
297.87653
297.87418
297.87072
297.86699
297.85993
297.85557
297.84489
297.84871
297.83992
297.87048
297.87377
297.93597
297.93773
298.0078
298.02116
308.82055
305.29818
302.28394
300.59818
300.27644
300.31585
300.34862
300.32205
300.29379
300.26107
300.22928
300.19441
300.15792
300.11865
300.07725
300.03347
299.98755
299.93947
299.88929
299.83713
299.78308
299.72726
299.66978
299.61078
299.55041
299.48882
299.42616
299.3626
299.2983
299.23345
299.16821
299.10277
299.03731
298.972
298.90704
298.8426
298.77886
298.71601
298.65423
298.59368
298.53455
298.47701
298.42122
298.36734
298.31554
298.26597
298.21877
298.17408
298.13204
298.09275
298.05633
298.02285
297.9924
297.96501
297.94072
297.91951
297.90136
297.88617
297.87383
297.86419
297.85707
297.85223
297.84932
297.84789
297.8475
297.84747
297.8474
297.84609
297.84428
297.83932
297.83678
297.82878
297.83449
297.82937
297.8617
297.8676
297.9297
297.93301
298.00347
298.01493
307.67796
303.90403
301.11149
299.84833
299.80675
299.82106
299.83807
299.80224
299.78455
299.75591
299.73247
299.70376
299.67499
299.64426
299.61244
299.579
299.54413
299.50765
299.46958
299.42992
299.38867
299.34586
299.30154
299.25576
299.20859
299.16012
299.11045
299.0597
299.00798
298.95544
298.90221
298.84845
298.79433
298.74002
298.68568
298.6315
298.57766
298.52435
298.47176
298.42006
298.36945
298.32011
298.27223
298.22597
298.18153
298.13905
298.09871
298.06066
298.02503
297.99196
297.96154
297.93388
297.90905
297.8871
297.86805
297.85189
297.83859
297.82804
297.82012
297.81467
297.81151
297.81038
297.81091
297.81268
297.81521
297.81785
297.82019
297.82115
297.8214
297.81863
297.8181
297.81276
297.82061
297.81883
297.85408
297.86121
297.92338
297.92806
297.9991
298.00866
307.01116
302.71726
300.17126
299.23116
299.31127
299.2845
299.31172
299.27551
299.26984
299.24613
299.23159
299.21039
299.19064
299.16906
299.14687
299.12343
299.0989
299.07313
299.0461
299.01775
298.98807
298.95704
298.92466
298.89095
298.85594
298.81965
298.78216
298.74354
298.70386
298.66322
298.62175
298.57955
298.53677
298.49356
298.45006
298.40646
298.3629
298.31959
298.27669
298.2344
298.19291
298.15239
298.11305
298.07507
298.03862
298.00389
297.97105
297.94025
297.91164
297.88535
297.8615
297.84019
297.82148
297.80543
297.79206
297.78136
297.77327
297.7677
297.76452
297.76354
297.76459
297.76739
297.77157
297.77669
297.7823
297.78775
297.79263
297.79598
297.79841
297.79792
297.79954
297.79688
297.80697
297.80826
297.84481
297.85439
297.91717
297.92287
297.99461
298.00242
306.45562
301.54958
299.38507
298.63881
298.78888
298.73306
298.78027
298.74471
298.75393
298.73692
298.73343
298.72094
298.71096
298.69885
298.68638
298.67277
298.65818
298.64248
298.62567
298.60771
298.58857
298.56823
298.54669
298.52394
298.49998
298.47485
298.44856
298.42116
298.39272
298.36329
298.33296
298.30183
298.27
298.23761
298.20478
298.17166
298.1384
298.10517
298.07215
298.0395
298.00742
297.97607
297.94566
297.91637
297.88837
297.86185
297.83697
297.8139
297.79279
297.77376
297.75694
297.74241
297.73026
297.72052
297.71322
297.70833
297.70579
297.70551
297.70733
297.71108
297.71656
297.72348
297.73148
297.74012
297.74892
297.75731
297.76484
297.77068
297.77539
297.77729
297.78115
297.78119
297.79364
297.79788
297.83411
297.84711
297.91094
297.91744
297.98991
297.99644
305.89288
300.52672
298.74938
298.10106
298.29822
298.21673
298.2833
298.24608
298.26757
298.25496
298.26034
298.25493
298.25279
298.24828
298.24368
298.23815
298.23181
298.2246
298.21647
298.2074
298.19735
298.1863
298.17422
298.16109
298.14692
298.13171
298.11546
298.0982
298.07997
298.06081
298.04078
298.01996
297.99844
297.97631
297.95368
297.93069
297.90746
297.88415
297.86091
297.83789
297.81528
297.79323
297.77194
297.75156
297.73228
297.71428
297.6977
297.68272
297.66946
297.65806
297.64863
297.64126
297.63601
297.63292
297.63201
297.63324
297.63654
297.64181
297.64887
297.65756
297.66766
297.67888
297.69084
297.70312
297.71525
297.72666
297.73694
297.74535
297.75245
297.7568
297.76298
297.76574
297.78067
297.78804
297.82484
297.8399
297.90469
297.91182
297.98499
297.99098
305.43064
299.59419
298.21292
297.61
297.84624
297.73971
297.82472