/*--------------------------------*- C++ -*----------------------------------*\
  =========                 |
  \\      /  F ield         | OpenFOAM: The Open Source CFD Toolbox
   \\    /   O peration     | Website:  https://openfoam.org
    \\  /    A nd           | Version:  12
     \\/     M anipulation  |
\*---------------------------------------------------------------------------*/
FoamFile
{
    format      ascii;
    class       volScalarField;
    location    "0.017";
    object      alphat;
}
// * * * * * * * * * * * * * * * * * * * * * * * * * * * * * * * * * * * * * //

dimensions      [1 -1 -1 0 0 0 0];

internalField   nonuniform List<scalar> 
16000
(
4.4712539e-07
1.1077739e-05
1.9210536e-05
2.5538208e-05
1.9684205e-05
2.6906991e-05
1.930322e-05
2.6274872e-05
2.0763562e-05
2.850682e-05
2.4260835e-05
2.8498552e-05
2.6105875e-05
2.6860079e-05
2.6021329e-05
2.5934075e-05
2.5721148e-05
2.5704797e-05
2.5773818e-05
2.5952634e-05
2.623419e-05
2.6618595e-05
2.7103667e-05
2.7690148e-05
2.8381209e-05
2.9184432e-05
3.0109689e-05
3.1172381e-05
3.2391374e-05
3.3787077e-05
3.5381518e-05
3.7203224e-05
3.9288332e-05
4.1680826e-05
4.4434406e-05
4.7612325e-05
5.1288956e-05
5.5551456e-05
6.0506277e-05
6.6283818e-05
7.3033398e-05
8.0925179e-05
9.0170627e-05
0.00010102476
0.00011378213
0.00012878073
0.00014642523
0.00016718918
0.00019162461
0.00022036794
0.00025414914
0.00029380043
0.00034025228
0.00039453541
0.00045777347
0.00053118246
0.00061607206
0.00071391103
0.00082656257
0.00095668181
0.0011081215
0.0012176101
0.0012199509
0.0012222983
0.0012250311
0.0012278326
0.001229406
0.0012292908
0.0012288678
0.0012281327
0.0012279368
0.0012290007
0.0012270972
0.0012236961
0.0012201303
0.0012142584
0.0012080343
0.001202995
0.0011944071
0.0011792264
4.1084967e-07
1.0427223e-05
2.1347536e-05
2.280684e-05
1.7715159e-05
2.4031733e-05
1.7101304e-05
2.2951649e-05
1.8319758e-05
2.5094159e-05
2.1919485e-05
2.5600719e-05
2.3810363e-05
2.4260211e-05
2.3624925e-05
2.3474454e-05
2.3304384e-05
2.327838e-05
2.3343883e-05
2.3506155e-05
2.3763842e-05
2.4116736e-05
2.4563312e-05
2.5104378e-05
2.5742441e-05
2.6484528e-05
2.7339144e-05
2.8320017e-05
2.9444702e-05
3.0732794e-05
3.2204572e-05
3.3885931e-05
3.5810093e-05
3.8017474e-05
4.055798e-05
4.3490736e-05
4.688585e-05
5.0824966e-05
5.5406822e-05
6.0754673e-05
6.701259e-05
7.4341258e-05
8.2940081e-05
9.3053226e-05
0.00010496684
0.00011900681
0.00013556609
0.00015510831
0.00017817893
0.00020541284
0.00023754465
0.00027542431
0.00032001819
0.00037241922
0.00043384315
0.00050562973
0.00058925209
0.0006863924
0.00079916435
0.00093045568
0.0010843716
0.0012171689
0.0012194776
0.0012217661
0.0012243551
0.0012268294
0.0012280735
0.0012281083
0.0012278632
0.0012272487
0.0012279271
0.0012290786
0.0012262362
0.001222975
0.0012190844
0.0012132824
0.0012072571
0.0012020246
0.0011935691
0.0011789761
3.6945686e-07
9.9037007e-06
1.9344967e-05
2.0811013e-05
1.5832115e-05
2.1109089e-05
1.5194553e-05
1.9909616e-05
1.6464506e-05
2.1976118e-05
1.9972264e-05
2.2748835e-05
2.1533588e-05
2.1680795e-05
2.1203241e-05
2.1021022e-05
2.0878972e-05
2.0850901e-05
2.0911517e-05
2.1059159e-05
2.1293823e-05
2.1615751e-05
2.202366e-05
2.2518584e-05
2.3102406e-05
2.3781726e-05
2.4563973e-05
2.5461365e-05
2.6489918e-05
2.7668328e-05
2.9015468e-05
3.0554953e-05
3.2317445e-05
3.4340156e-05
3.6669504e-05
3.93607e-05
4.247991e-05
4.6104314e-05
5.0326077e-05
5.5260999e-05
6.1048521e-05
6.7841999e-05
7.5830452e-05
8.5247203e-05
9.637097e-05
0.00010951682
0.00012506613
0.00014347077
0.00016526446
0.00019107132
0.0002216147
0.00025773725
0.00030040402
0.00035071887
0.00040992644
0.00047942752
0.0005608183
0.00065599612
0.00076738123
0.00089820309
0.0010530554
0.001216907
0.0012191261
0.0012212783
0.0012236132
0.0012256791
0.0012267039
0.0012271155
0.0012270871
0.0012270484
0.0012284064
0.0012285879
0.0012252025
0.0012222036
0.0012179637
0.0012122947
0.0012064114
0.0012012905
0.0011919403
0.0011791563
3.3212389e-07
9.4995047e-06
1.9125017e-05
1.8892334e-05
1.4180798e-05
1.8600343e-05
1.3516349e-05
1.7378352e-05
1.4815622e-05
1.9355285e-05
1.8218577e-05
2.0246864e-05
1.9437318e-05
1.9368276e-05
1.9000473e-05
1.8809465e-05
1.8689828e-05
1.8665181e-05
1.8724339e-05
1.8862181e-05
1.9079012e-05
1.9375494e-05
1.9750505e-05
2.0205369e-05
2.0741464e-05
2.1365107e-05
2.2082944e-05
2.2905981e-05
2.3848835e-05
2.4929459e-05
2.6165736e-05
2.7579365e-05
2.9198955e-05
3.1059037e-05
3.3203165e-05
3.5683292e-05
3.8562311e-05
4.1914055e-05
4.5825718e-05
5.0406467e-05
5.5792577e-05
6.2132578e-05
6.9608222e-05
7.8444396e-05
8.8916503e-05
0.00010133399
0.00011607267
0.00013358018
0.00015438723
0.00017911858
0.00020849931
0.00024338011
0.00028473926
0.00033370398
0.00039155887
0.00045977995
0.00054009978
0.00063464144
0.00074614297
0.00087821363
0.0010361229
0.0012168908
0.0012189514
0.0012208515
0.0012227973
0.0012244628
0.0012255293
0.0012263849
0.0012266505
0.0012274588
0.0012289882
0.001227654
0.0012243464
0.0012215351
0.0012169102
0.001211345
0.0012055844
0.0012005579
0.0011901628
0.0011796164
2.9812569e-07
9.1889851e-06
1.8184233e-05
1.8067684e-05
1.2746745e-05
1.6398171e-05
1.2037845e-05
1.5216145e-05
1.3388434e-05
1.7101486e-05
1.6640955e-05
1.798988e-05
1.7468235e-05
1.7257623e-05
1.6969166e-05
1.6788294e-05
1.6688973e-05
1.6671619e-05
1.6731079e-05
1.6861303e-05
1.7062383e-05
1.7335647e-05
1.7680174e-05
1.8097768e-05
1.8589576e-05
1.9161765e-05
1.982046e-05
2.057575e-05
2.1440972e-05
2.2433393e-05
2.3570227e-05
2.4871609e-05
2.6364496e-05
2.808118e-05
3.0062828e-05
3.2358639e-05
3.5028663e-05
3.8144109e-05
4.1788629e-05
4.6065274e-05
5.1107847e-05
5.706184e-05
6.4104217e-05
7.245263e-05
8.2381442e-05
9.4197704e-05
0.00010827503
0.00012506107
0.0001450885
0.00016898995
0.00019750078
0.00023149029
0.00027196201
0.00032008294
0.00037720214
0.00044490147
0.00052508655
0.00062015943
0.00073321322
0.00086834645
0.0010315962
0.001217134
0.0012189395
0.0012204698
0.0012219628
0.0012233386
0.0012246479
0.0012258389
0.0012266816
0.0012281678
0.0012290127
0.0012265431
0.00122361
0.0012207531
0.0012158742
0.0012104257
0.001204862
0.0011998454
0.0011890017
0.0011802841
2.71167e-07
8.9801378e-06
1.7360078e-05
1.8025033e-05
1.3151938e-05
1.4517896e-05
1.0750716e-05
1.3388328e-05
1.2177184e-05
1.519103e-05
1.5236033e-05
1.5998519e-05
1.5665177e-05
1.5377545e-05
1.5141223e-05
1.4976489e-05
1.4891548e-05
1.4879042e-05
1.4936328e-05
1.5057637e-05
1.5242654e-05
1.5493507e-05
1.5809357e-05
1.619247e-05
1.6644054e-05
1.717007e-05
1.7776284e-05
1.8472105e-05
1.9269707e-05
2.0185722e-05
2.1236986e-05
2.2442406e-05
2.382769e-05
2.5423335e-05
2.7268635e-05
2.9410597e-05
3.190697e-05
3.4826996e-05
3.8252321e-05
4.2281002e-05
4.7044781e-05
5.2687904e-05
5.9385436e-05
6.7349081e-05
7.6854314e-05
8.8208954e-05
0.00010178748
0.00011804156
0.00013751012
0.0001608402
0.00018878437
0.00022223945
0.00026224727
0.00031003556
0.0003670456
0.00043499778
0.00051603732
0.00061291949
0.00072909356
0.00086924414
0.0010399058
0.0012176434
0.0012191061
0.0012201997
0.0012213004
0.0012225689
0.0012241494
0.0012255509
0.0012271013
0.0012287432
0.0012281976
0.0012255045
0.0012229461
0.0012197231
0.0012148664
0.0012095121
0.0012041653
0.0011990949
0.0011884991
0.0011810789
2.5079209e-07
8.8592422e-06
1.6659676e-05
1.7451417e-05
1.27878e-05
1.2854471e-05
1.0713656e-05
1.1982899e-05
1.2038225e-05
1.361131e-05
1.3990744e-05
1.4256133e-05
1.4022362e-05
1.3701589e-05
1.3493153e-05
1.3342632e-05
1.3266065e-05
1.3255448e-05
1.3308796e-05
1.3421152e-05
1.3591372e-05
1.3822403e-05
1.4113122e-05
1.4377455e-05
1.4783838e-05
1.526112e-05
1.58143e-05
1.6451917e-05
1.7184819e-05
1.8028685e-05
1.9e-05
2.0116544e-05
2.1402938e-05
2.2888048e-05
2.4609524e-05
2.6612488e-05
2.8952684e-05
3.1697589e-05
3.4927907e-05
3.9032515e-05
4.3580773e-05
4.8986436e-05
5.5425707e-05
6.3106204e-05
7.2306111e-05
8.333759e-05
9.6579599e-05
0.00011249239
0.00013162585
0.00015464863
0.00018233817
0.00021563055
0.00025562391
0.00030362854
0.00036119863
0.00043024414
0.00051325455
0.00061331746
0.00073422841
0.00088124579
0.0010612063
0.0012184083
0.0012194979
0.0012201944
0.0012210817
0.0012224035
0.0012240882
0.0012257541
0.0012277272
0.0012287984
0.0012272792
0.0012247633
0.0012223801
0.001218608
0.0012138859
0.001208629
0.0012033796
0.001198266
0.0011882565
0.0011819176
2.2669961e-07
8.7880614e-06
1.612029e-05
1.6166527e-05
1.2660384e-05
1.13249e-05
1.0544471e-05
1.1032128e-05
1.068931e-05
1.218879e-05
1.2789869e-05
1.2690473e-05
1.2486727e-05
1.2169992e-05
1.1979615e-05
1.1844776e-05
1.177718e-05
1.1770373e-05
1.1747469e-05
1.1835865e-05
1.1981983e-05
1.2187624e-05
1.2451339e-05
1.2772223e-05
1.3155556e-05
1.3604823e-05
1.4125048e-05
1.472467e-05
1.5413879e-05
1.6207821e-05
1.712318e-05
1.8177166e-05
1.9393932e-05
2.0801395e-05
2.2436348e-05
2.4342873e-05
2.6575722e-05
2.9201584e-05
3.2301414e-05
3.5973168e-05
4.0335566e-05
4.5538572e-05
5.1762082e-05
5.9712528e-05
6.8727754e-05
7.9578706e-05
9.2653597e-05
0.00010842663
0.00012746479
0.00015046751
0.00017824832
0.00021180085
0.00025230244
0.00030116114
0.00036006988
0.0004312325
0.00051750125
0.000622092
0.00074933641
0.00090493526
0.0010966888
0.0012194063
0.0012202034
0.0012206797
0.0012215489
0.0012229352
0.0012245046
0.0012264261
0.001228301
0.001228288
0.0012265697
0.0012242522
0.0012217229
0.0012176284
0.0012129798
0.0012078396
0.0012026044
0.0011973588
0.0011879933
0.0011827801
2.0751686e-07
8.7288837e-06
1.5644514e-05
1.4313542e-05
1.0787093e-05
9.8741989e-06
8.4804542e-06
9.4031775e-06
9.720417e-06
1.0994565e-05
1.1560612e-05
1.1237983e-05
1.1038633e-05
1.0752273e-05
1.0581816e-05
1.0390116e-05
1.0306176e-05
1.0288848e-05
1.0330437e-05
1.0428201e-05
1.0577554e-05
1.0779888e-05
1.1035258e-05
1.1343412e-05
1.1709177e-05
1.2136953e-05
1.2631844e-05
1.3202335e-05
1.3858202e-05
1.4614091e-05
1.5487055e-05
1.6494058e-05
1.7659173e-05
1.9009766e-05
2.0582254e-05
2.2420315e-05
2.4578411e-05
2.7123243e-05
3.0136111e-05
3.3715551e-05
3.798277e-05
4.3088265e-05
4.92192e-05
5.6590211e-05
6.5475482e-05
7.6214367e-05
8.9999029e-05
0.00010584691
0.00012505085
0.00014835427
0.00017662509
0.00021093964
0.00025257807
0.00030306444
0.00036430388
0.00043888934
0.00052975779
0.00064029178
0.00077572359
0.00094219131
0.0011493699
0.0012206032
0.0012213119
0.0012218341
0.0012227851
0.0012240766
0.0012255214
0.0012273918
0.0012285663
0.0012279155
0.0012260772
0.0012238218
0.0012208061
0.0012167653
0.0012122073
0.0012071911
0.0012019285
0.0011965275
0.0011879209
0.0011837365
1.9168696e-07
8.6768904e-06
1.471257e-05
1.2370062e-05
8.7378603e-06
8.8162882e-06
7.2472713e-06
8.527086e-06
9.0298098e-06
9.8471269e-06
1.0330771e-05
9.9002893e-06
9.700281e-06
9.3575514e-06
9.1718336e-06
9.0552231e-06
9.0048755e-06
9.0109783e-06
9.0702327e-06
9.1774603e-06
9.3308727e-06
9.5321556e-06
9.782433e-06
1.0081738e-05
1.0435203e-05
1.0847715e-05
1.1324548e-05
1.1874404e-05
1.2506847e-05
1.3236097e-05
1.4079693e-05
1.5054756e-05
1.6185593e-05
1.7499399e-05
1.903268e-05
2.0829288e-05
2.2944061e-05
2.5444529e-05
2.8413668e-05
3.1952352e-05
3.6184478e-05
4.126366e-05
4.7385706e-05
5.4772449e-05
6.3710409e-05
7.4554332e-05
8.7740814e-05
0.0001037776
0.0001244303
0.0001484017
0.0001776312
0.00021330311
0.00025682544
0.00030989032
0.00037475118
0.00045422746
0.00055099369
0.00066976003
0.00081599914
0.00099688593
0.0012204771
0.0012219366
0.0012228111
0.0012235942
0.0012246017
0.0012256395
0.0012268914
0.0012283084
0.0012285868
0.0012277594
0.0012257725
0.0012233802
0.0012199608
0.001216052
0.0012116166
0.0012067186
0.0012014125
0.0011959523
0.0011882511
0.0011847163
1.7706279e-07
8.6223279e-06
1.1573272e-05
1.0628961e-05
7.0399143e-06
7.8911307e-06
6.5843933e-06
7.6743297e-06
8.4365047e-06
8.7987018e-06
9.1291221e-06
8.5869484e-06
8.3293396e-06
8.0920588e-06
7.9544445e-06
7.8766015e-06
7.8560406e-06
7.8844747e-06
7.9573635e-06
8.0742976e-06
8.2329789e-06
8.4354266e-06
8.6837896e-06
8.9785165e-06
9.3248271e-06
9.7281375e-06
1.019407e-05
1.0731625e-05
1.1350405e-05
1.2064329e-05
1.2823334e-05
1.3770034e-05
1.4871325e-05
1.6154266e-05
1.765554e-05
1.9419334e-05
2.1501118e-05
2.3969556e-05
2.6909761e-05
3.0425711e-05
3.4645801e-05
4.0042093e-05
4.6240332e-05
5.3747871e-05
6.2866609e-05
7.3972425e-05
8.7538924e-05
0.00010412083
0.00012441674
0.00014929674
0.00018147142
0.00021919513
0.00026549111
0.0003223275
0.00039237614
0.00047811878
0.00058350859
0.00071375479
0.00087429296
0.0010743426
0.0012217586
0.001223286
0.0012244865
0.0012255705
0.0012265416
0.0012273789
0.0012282329
0.0012288075
0.001228695
0.0012275187
0.0012253868
0.0012226808
0.0012193187
0.0012155024
0.0012112264
0.0012064545
0.001201153
0.0011957077
0.0011888821
0.0011855867
1.6428255e-07
8.5702316e-06
9.0518821e-06
8.7496249e-06
6.0514943e-06
7.0174685e-06
6.0572501e-06
6.9337597e-06
7.8414632e-06
7.8197817e-06
7.8293477e-06
7.3702811e-06
7.1586985e-06
6.984193e-06
6.8878424e-06
6.8440224e-06
6.8474335e-06
6.8947517e-06
6.9819484e-06
7.1090537e-06
7.2745447e-06
7.4807031e-06
7.7305156e-06
8.0249971e-06
8.3694821e-06
8.730075e-06
9.1842517e-06
9.70981e-06
1.0316291e-05
1.1017228e-05
1.1828885e-05
1.2772568e-05
1.3872275e-05
1.5155538e-05
1.6659947e-05
1.8430921e-05
2.0525703e-05
2.3015367e-05
2.5988832e-05
2.9555225e-05
3.3850079e-05
3.9044014e-05
4.5347855e-05
5.3016854e-05
6.2374295e-05
7.4467479e-05
8.8631046e-05
0.00010603663
0.00012746034
0.00015388741
0.0001865283
0.00022900242
0.00027920349
0.00034138354
0.00041826527
0.00051311407
0.00063088376
0.00077628065
0.00095710488
0.0011822156
0.0012228622
0.0012244733
0.0012259562
0.0012272121
0.0012281139
0.0012287621
0.0012290859
0.0012290063
0.0012284848
0.0012269495
0.0012247104
0.0012218848
0.0012186778
0.0012150417
0.0012109706
0.001206376
0.0012011913
0.0011958101
0.00118969
0.0011866344
1.5292169e-07
8.5186488e-06
7.1175963e-06
7.7051544e-06
5.3898482e-06
6.2250226e-06
5.6022144e-06
6.2762838e-06
7.1353329e-06
6.7027503e-06
6.6619634e-06
6.309303e-06
6.140736e-06
6.0168795e-06
5.955884e-06
5.9407699e-06
5.9671389e-06
6.0325581e-06
6.1339916e-06
6.2722655e-06
6.4466628e-06
6.6595344e-06
6.8831211e-06
7.1750028e-06
7.5168879e-06
7.9135363e-06
8.3731678e-06
8.9045136e-06
9.5174692e-06
1.0225945e-05
1.1046568e-05
1.2000604e-05
1.3113845e-05
1.4414709e-05
1.5942092e-05
1.774322e-05
1.9877936e-05
2.2420622e-05
2.5465261e-05
2.9127958e-05
3.3552592e-05
3.8920615e-05
4.5463492e-05
5.3457202e-05
6.3255669e-05
7.5306847e-05
9.0178325e-05
0.00010857393
0.00013253565
0.00016105644
0.00019655101
0.00024079676
0.00029879025
0.00036818871
0.00045458706
0.00056256961
0.00069684347
0.00086469926
0.0010734155
0.0012220741
0.0012236961
0.0012253034
0.001226833
0.0012280403
0.0012289064
0.0012292939
0.0012291233
0.0012287046
0.001227698
0.0012259304
0.0012236216
0.0012209479
0.0012179014
0.0012144972
0.0012106789
0.0012063403
0.0012014501
0.0011962476
0.0011905914
0.0011876535
1.4284636e-07
8.4615368e-06
5.67257e-06
6.7483184e-06
4.816724e-06
5.524662e-06
5.2182417e-06
5.6053784e-06
6.2482233e-06
5.7351257e-06
5.6412743e-06
5.3837638e-06
5.256138e-06
5.1747941e-06
5.1455875e-06
5.1569028e-06
5.2048362e-06
5.288207e-06
5.4047847e-06
5.5333532e-06
5.7119777e-06
5.929342e-06
6.1881586e-06
6.4919052e-06
6.8456021e-06
7.2545039e-06
7.7267841e-06
8.2720142e-06
8.9004663e-06
9.6264027e-06
1.0466812e-05
1.1443517e-05
1.2525093e-05
1.3846374e-05
1.5399901e-05
1.7234822e-05
1.9414029e-05
2.2015589e-05
2.5139053e-05
2.890877e-05
3.3479139e-05
3.9342057e-05
4.621019e-05
5.4639145e-05
6.5020303e-05
7.7851396e-05
9.3778981e-05
0.00011361284
0.00013838146
0.00017095476
0.00021016066
0.00025952597
0.00032176619
0.00040402619
0.00050362921
0.00062920727
0.00078772238
0.00098680193
0.001221297
0.0012227761
0.0012241789
0.0012256247
0.0012269136
0.0012280201
0.0012286831
0.0012288149
0.001228496
0.0012275477
0.0012261892
0.0012243151
0.001222092
0.0012195717
0.0012167392
0.0012136067
0.0012100762
0.0012060568
0.001201615
0.0011969109
0.0011915347
0.0011881076
1.3393137e-07
8.3379581e-06
4.5865642e-06
5.8985013e-06
4.3036785e-06
4.9018931e-06
4.8831669e-06
4.8681984e-06
5.3570722e-06
4.8729438e-06
4.7588422e-06
4.5797102e-06
4.4915265e-06
4.4473082e-06
4.4473809e-06
4.4835373e-06
4.552642e-06
4.6342034e-06
4.7603286e-06
4.9211515e-06
5.117803e-06
5.3521104e-06
5.6276039e-06
5.9479872e-06
6.3189942e-06
6.7462378e-06
7.2380388e-06
7.7799089e-06
8.4252554e-06
9.1699383e-06
1.0031249e-05
1.1031371e-05
1.2197575e-05
1.3564387e-05
1.5173347e-05
1.707638e-05
1.9340844e-05
2.2050054e-05
2.5310774e-05
2.9258236e-05
3.4060533e-05
3.9934021e-05
4.714834e-05
5.6046064e-05
6.7064399e-05
8.144069e-05
9.8675466e-05
0.00012028481
0.0001474831
0.00018184507
0.00022752365
0.0002833218
0.00035449658
0.00044533688
0.00056689068
0.00071649245
0.00090733703
0.0011479022
0.001221861
0.0012231044
0.0012242461
0.0012253736
0.0012264706
0.0012272633
0.001227601
0.0012274778
0.0012267014
0.0012255147
0.0012239456
0.0012220711
0.001219959
0.0012175833
0.0012149589
0.0012120819
0.0012088233
0.0012051229
0.0012011509
0.001197004
0.0011914383
0.0011871114
1.2610684e-07
8.0074943e-06
3.8403687e-06
5.1460136e-06
3.8491436e-06
4.3499243e-06
4.3449573e-06
4.1994824e-06
4.5024887e-06
4.1125187e-06
4.0047716e-06
3.8882517e-06
3.8373448e-06
3.8262641e-06
3.8535588e-06
3.8977728e-06
3.9802068e-06
4.0962209e-06
4.2450908e-06
4.4272039e-06
4.6443771e-06
4.8990298e-06
5.1951928e-06
5.5369229e-06
5.9159698e-06
6.362634e-06
6.8749558e-06
7.4626701e-06
8.1380886e-06
8.915936e-06
9.8142294e-06
1.085642e-05
1.2071391e-05
1.3495633e-05
1.5174439e-05
1.7162924e-05
1.9533794e-05
2.23768e-05
2.5806721e-05
2.9971809e-05
3.5054423e-05
4.1292346e-05
4.8987563e-05
5.8520788e-05
7.0386154e-05
8.5221264e-05
0.0001047767
0.00012848051
0.00015854155
0.00019685978
0.00024590614
0.00031190462
0.00039391715
0.00049995083
0.0006372865
0.00082253962
0.0010516645
0.0012209541
0.0012220047
0.0012230093
0.0012238647
0.001224757
0.0012254763
0.0012258298
0.0012256784
0.0012250944
0.0012240785
0.0012226933
0.0012210451
0.001219198
0.001217156
0.001214889
0.0012124242
0.0012097217
0.0012066233
0.0012031055
0.0011994411
0.0011955819
0.0011906415
0.0011837971
1.1947152e-07
7.6101659e-06
3.3879267e-06
4.479664e-06
3.4465213e-06
3.6970541e-06
3.8703667e-06
3.5858339e-06
3.7318925e-06
3.4534967e-06
3.3682034e-06
3.3014697e-06
3.2848537e-06
3.3039541e-06
3.3385155e-06
3.4160153e-06
3.5259734e-06
3.667176e-06
3.8398539e-06
4.0451943e-06
4.2856335e-06
4.5639065e-06
4.8742258e-06
5.238037e-06
5.6540911e-06
6.1292507e-06
6.6717924e-06
7.2919285e-06
8.0023759e-06
8.8190182e-06
9.7607271e-06
1.0852328e-05
1.2124515e-05
1.3616278e-05
1.5309827e-05
1.7381348e-05
1.9855957e-05
2.2830568e-05
2.6588186e-05
3.1005776e-05
3.6412865e-05
4.3069642e-05
5.1313112e-05
6.1567378e-05
7.4385559e-05
9.0491577e-05
0.00011083318
0.00013665878
0.00017113574
0.000213801
0.00026885524
0.00034024441
0.00043729286
0.00055953647
0.00071859047
0.00093317437
0.0011983652
0.0012209061
0.0012216764
0.0012224211
0.0012230699
0.0012235051
0.0012236744
0.0012235272
0.0012230064
0.0012220913
0.0012208239
0.0012193053
0.0012176168
0.0012157805
0.0012137766
0.0012115757
0.0012091838
0.0012065104
0.0012033742
0.0011997871
0.0011960464
0.0011919124
0.0011860721
0.0011780379
1.1431122e-07
6.4764376e-06
3.0051054e-06
3.8749291e-06
3.0999979e-06
3.091077e-06
3.3980201e-06
3.0299243e-06
3.0709298e-06
2.8915102e-06
2.8362777e-06
2.8105639e-06
2.8164199e-06
2.8547832e-06
2.9296764e-06
3.0366821e-06
3.173693e-06
3.3405736e-06
3.5383762e-06
3.7687671e-06
4.0280787e-06
4.3301528e-06
4.6748808e-06
5.0671649e-06
5.5128842e-06
6.0192066e-06
6.594894e-06
7.2506833e-06
7.9998506e-06
8.8389219e-06
9.8221428e-06
1.0960513e-05
1.2286458e-05
1.3841015e-05
1.5676132e-05
1.785769e-05
2.0468592e-05
2.361468e-05
2.7430478e-05
3.2087019e-05
3.7803626e-05
4.5184231e-05
5.4021434e-05
6.5051507e-05
7.8885741e-05
9.6329836e-05
0.00011844492
0.0001466368
0.00018445013
0.0002313919
0.00029217412
0.00037117389
0.00047863469
0.00061332094
0.00078676177
0.0010065323
0.0012198757
0.0012204317
0.0012208874
0.0012212569
0.0012215096
0.0012215636
0.0012213365
0.0012207845
0.0012198894
0.0012186643
0.0012171855
0.0012155748
0.0012138562
0.0012120413
0.0012100722
0.0012078973
0.001205465
0.0012026327
0.0011992192
0.00119526
0.0011910088
0.0011860717
0.0011790761
0.0011706765
1.1016784e-07
4.5723004e-06
2.6582714e-06
3.3156656e-06
2.6535344e-06
2.5812105e-06
2.9017583e-06
2.5349614e-06
2.5209707e-06
2.4191683e-06
2.3978066e-06
2.3996896e-06
2.4374296e-06
2.5115448e-06
2.6175571e-06
2.752833e-06
2.9165804e-06
3.1093867e-06
3.3293179e-06
3.5840379e-06
3.8746175e-06
4.2044764e-06
4.5778062e-06
4.999743e-06
5.4765195e-06
6.0156826e-06
6.6264393e-06
7.3084272e-06
8.0944681e-06
8.9938566e-06
1.00284e-05
1.1225383e-05
1.2619491e-05
1.4254734e-05
1.6186987e-05
1.8486973e-05
2.1244248e-05
2.4572667e-05
2.86175e-05
3.3564365e-05
3.96512e-05
4.7183197e-05
5.6975588e-05
6.8788644e-05
8.3632128e-05
0.0001023785
0.00012617382
0.0001565285
0.00019543086
0.00024768506
0.00031272353
0.00039658984
0.0005042866
0.00064709939
0.000818633
0.001025228
0.001219203
0.0012195623
0.0012197383
0.0012197568
0.0012196105
0.0012192531
0.0012186222
0.001217693
0.0012164753
0.0012150108
0.0012133934
0.0012117363
0.0012100579
0.0012082998
0.0012063837
0.0012041848
0.0012015827
0.0011984057
0.0011945072
0.0011899597
0.0011849902
0.0011792133
0.0011715064
0.0011634214
1.0580865e-07
3.8006035e-06
2.2968516e-06
2.7986139e-06
2.2876684e-06
2.1539851e-06
2.3900003e-06
2.1009639e-06
2.0744514e-06
2.0326791e-06
2.0407498e-06
2.0779962e-06
2.1533258e-06
2.2597244e-06
2.394427e-06
2.5563649e-06
2.7457477e-06
2.9612342e-06
3.2089239e-06
3.489995e-06
3.8074672e-06
4.1650417e-06
4.5671866e-06
5.0192778e-06
5.5278143e-06
6.1006824e-06
6.7394915e-06
7.4687217e-06
8.2975889e-06
9.2443797e-06
1.0332236e-05
1.1590253e-05
1.3055339e-05
1.4774373e-05
1.6807093e-05
1.9229441e-05
2.2137497e-05
2.5653018e-05
2.9931312e-05
3.5170108e-05
4.1622988e-05
4.9975062e-05
6.000726e-05
7.2551718e-05
8.8311068e-05
0.00010819431
0.00013338051
0.00016539357
0.00020809349
0.00026051865
0.00032721788
0.00041157281
0.00051692362
0.00065171678
0.00080492586
0.00097771341
0.0011725624
0.0012183311
0.001218262
0.0012179491
0.0012174163
0.0012166675
0.0012156704
0.001214421
0.0012129601
0.0012113524
0.0012096936
0.0012080942
0.0012065245
0.0012048735
0.0012030134
0.0012007248
0.0011978404
0.0011941977
0.0011897223
0.0011845384
0.0011789023
0.0011726806
0.0011652971
0.0011581879
1.0296056e-07
3.0657352e-06
1.9833235e-06
2.2674016e-06
1.9888692e-06
1.7886568e-06
1.9155061e-06
1.7337919e-06
1.724754e-06
1.7318083e-06
1.7704968e-06
1.8471766e-06
1.9548814e-06
2.0894944e-06
2.2498183e-06
2.436004e-06
2.6476983e-06
2.8888345e-06
3.1611822e-06
3.4674922e-06
3.8111e-06
4.1959444e-06
4.6266819e-06
5.1088646e-06
5.6491956e-06
6.2512118e-06
6.9318988e-06
7.7005805e-06
8.5725189e-06
9.566951e-06
1.0708421e-05
1.2027794e-05
1.3564231e-05
1.5367383e-05
1.7500434e-05
2.0043965e-05
2.3100455e-05
2.6798495e-05
3.1302395e-05
3.6820118e-05
4.3904987e-05
5.2386837e-05
6.2931745e-05
7.6097194e-05
9.259397e-05
0.00011332877
0.00013944853
0.00017238718
0.00021582263
0.00026834611
0.00033381371
0.00041437674
0.00051148846
0.00063083203
0.00075908335
0.00089569339
0.0010426879
0.0011727268
0.0012165036
0.0012159104
0.0012150393
0.0012139459
0.001212653
0.0012111744
0.00120958
0.0012079539
0.001206381
0.0012049169
0.0012034906
0.0012019954
0.0012001429
0.0011976947
0.0011944601
0.0011903366
0.0011853604
0.0011797333
0.0011737994
0.0011677175
0.0011614578
0.0011563587
1.0195841e-07
2.4271373e-06
1.7128804e-06
1.7555213e-06
1.713817e-06
1.4755198e-06
1.528876e-06
1.4422018e-06
1.4654016e-06
1.5075776e-06
1.5864983e-06
1.6950306e-06
1.8293651e-06
1.9877456e-06
2.1703123e-06
2.3781515e-06
2.6120466e-06
2.875739e-06
3.1712941e-06
3.5017473e-06
3.8706179e-06
4.2819962e-06
4.7406714e-06
5.2523247e-06
5.8237994e-06
6.4634639e-06
7.1816837e-06
7.9913911e-06
8.8980066e-06
9.9389755e-06
1.1132667e-05
1.2511657e-05
1.4117274e-05
1.6001851e-05
1.8231603e-05
2.09767e-05
2.4196315e-05
2.8092103e-05
3.2836017e-05
3.8645015e-05
4.5792905e-05
5.4625207e-05
6.5579689e-05
7.9208579e-05
9.6205526e-05
0.00011743414
0.00014395104
0.00017856524
0.00021993055
0.00027089677
0.00033294501
0.00040712253
0.00049819018
0.00059604902
0.00070142289
0.00080944979
0.0009235086
0.0010234253
0.0011195855
0.0012137134
0.0012125881
0.0012112317
0.0012097427
0.0012081576
0.0012065694
0.0012050574
0.0012036592
0.0012023877
0.0012011607
0.0011997388
0.0011978254
0.0011951577
0.0011915776
0.0011870879
0.0011818473
0.0011761372
0.0011704269
0.0011651573
0.0011604951
0.0011569692
1.0385812e-07
1.8779961e-06
1.4879505e-06
1.3625131e-06
1.4342475e-06
1.2126426e-06
1.2463451e-06
1.2294957e-06
1.2865791e-06
1.3640304e-06
1.4728135e-06
1.6058404e-06
1.7615076e-06
1.9397839e-06
2.1417893e-06
2.3692202e-06
2.6237539e-06
2.9085467e-06
3.2261202e-06
3.5796464e-06
3.9727431e-06
4.4095865e-06
4.8950575e-06
5.4349454e-06
6.0362311e-06
6.7074653e-06
7.4592732e-06
8.304985e-06
9.2614259e-06
1.0349926e-05
1.1597526e-05
1.3038607e-05
1.471672e-05
1.6687001e-05
1.9019068e-05
2.1800689e-05
2.5142412e-05
2.9183648e-05
3.4099484e-05
4.0110019e-05
4.7491387e-05
5.6588524e-05
6.7829068e-05
8.1746099e-05
9.8992628e-05
0.00012135543
0.00014796686
0.00018071292
0.0002207288
0.00026911519
0.00032672976
0.00039756763
0.0004741226
0.00055770835
0.00064528225
0.00074036155
0.00082636786
0.000910198
0.0009977055
0.0011014147
0.0012101622
0.0012086551
0.0012070902
0.0012055364
0.0012040889
0.0012027992
0.0012016324
0.0012005899
0.0011994971
0.0011980751
0.0011960131
0.0011930982
0.0011892712
0.0011846513
0.0011794821
0.0011741021
0.0011690881
0.001165078
0.0011621988
0.0011600422
1.0982589e-07
1.4273532e-06
1.3065127e-06
1.0756436e-06
1.28041e-06
9.9319172e-07
1.0547396e-06
1.0896715e-06
1.1746974e-06
1.2808902e-06
1.4115921e-06
1.5634348e-06
1.7366095e-06
1.9321555e-06
2.1517321e-06
2.3973226e-06
2.6712054e-06
2.9757202e-06
3.3140469e-06
3.6892945e-06
4.1051385e-06
4.5658171e-06
5.0762852e-06
5.6424277e-06
6.2713503e-06
6.9717688e-06
7.7545332e-06
8.6333389e-06
9.6255102e-06
1.0753081e-05
1.2043976e-05
1.3533732e-05
1.526732e-05
1.7301582e-05
1.9708119e-05
2.2576927e-05
2.6020791e-05
3.0180735e-05
3.5232671e-05
4.1395538e-05
4.9277283e-05
5.8616654e-05
7.0100727e-05
8.4234417e-05
0.00010162112
0.00012296648
0.0001490695
0.00018079299
0.00021899705
0.00026690531
0.00032039954
0.00038145576
0.0004491027
0.00052146114
0.00060183951
0.00067670009
0.00075066984
0.00082657793
0.00091221986
0.0010208122
0.0011712604
0.0012063158
0.0012048019
0.001203416
0.0012022227
0.001201221
0.0012003089
0.0011994722
0.0011984344
0.0011969014
0.0011946186
0.0011914913
0.0011875997
0.0011831434
0.0011783932
0.0011737069
0.0011697105
0.0011670904
0.0011658524
0.00116475
1.205597e-07
1.1526761e-06
1.1507838e-06
9.262252e-07
9.4242265e-07
8.6969174e-07
9.2856948e-07
1.0064883e-06
1.1132106e-06
1.2397803e-06
1.3868274e-06
1.5539826e-06
1.7423591e-06
1.9534339e-06
2.1890386e-06
2.4512327e-06
2.7423287e-06
3.0649112e-06
3.4218868e-06
3.8165407e-06
4.2526225e-06
4.7344599e-06
5.2671189e-06
5.8566277e-06
6.5102855e-06
7.2342361e-06
8.0437556e-06
8.9510177e-06
9.9832708e-06
1.1148151e-05
1.2480969e-05
1.4018383e-05
1.5806657e-05
1.7904052e-05
2.0383686e-05
2.3337001e-05
2.6877976e-05
3.1148222e-05
3.6323053e-05
4.261878e-05
5.0301167e-05
5.9694802e-05
7.1192226e-05
8.5259283e-05
0.0001024424
0.00012336138
0.00015002047
0.00018070429
0.00021719876
0.00026001681
0.00030933518
0.0003647809
0.00042527762
0.0004937661
0.00055943022
0.00062531285
0.00069236394
0.00076506993
0.00085225476
0.00096745344
0.0011297484
0.0012042656
0.001202913
0.0012018135
0.0012009686
0.0012002441
0.0011996295
0.0011989203
0.0011978493
0.0011961284
0.0011935992
0.0011903381
0.0011865669
0.0011825358
0.0011784947
0.001174772
0.0011719254
0.001170617
0.001170678
0.0011702372
1.4255656e-07
1.1846629e-06
9.9456416e-07
7.1388794e-07
7.7103029e-07
7.7759142e-07
8.5945311e-07
9.6096224e-07
1.0847827e-06
1.2265733e-06
1.3873014e-06
1.5678419e-06
1.7696522e-06
1.9943414e-06
2.2437753e-06
2.5200382e-06
2.8254675e-06
3.1626844e-06
3.5346387e-06
3.9446649e-06
4.3965598e-06
4.8946929e-06
5.444162e-06
6.0510167e-06
6.7225695e-06
7.4678193e-06
8.2980063e-06
9.2273175e-06
1.0273779e-05
1.1460318e-05
1.2816038e-05
1.4377845e-05
1.6192271e-05
1.8317788e-05
2.0827516e-05
2.3812507e-05
2.7385655e-05
3.1686296e-05
3.6885649e-05
4.3193107e-05
5.0863405e-05
6.0638138e-05
7.2104393e-05
8.6051753e-05
0.00010297562
0.00012342515
0.00014798766
0.00017725522
0.00021176093
0.00025186342
0.00029758589
0.00035165597
0.00040692224
0.00046476007
0.00052384188
0.00058396566
0.00064729636
0.00071937239
0.00080955838
0.00093165029
0.0011047948
0.0012025171
0.0012013907
0.0012006312
0.0012002087
0.0011997747
0.0011994288
0.0011988052
0.0011976344
0.0011956999
0.0011929594
0.0011896301
0.001186125
0.0011827071
0.0011795216
0.0011768463
0.0011751302
0.0011749351
0.0011759222
0.0011759117
1.3641007e-07
7.9873847e-07
8.1947566e-07
6.0992324e-07
6.6427823e-07
7.2376153e-07
8.2522016e-07
9.4398145e-07
1.0811718e-06
1.2356899e-06
1.4087035e-06
1.6013801e-06
1.815223e-06
2.0519129e-06
2.3133536e-06
2.6016806e-06
2.9192902e-06
3.2688175e-06
3.6533473e-06
4.0762445e-06
4.5413593e-06
5.0531052e-06
5.616614e-06
6.2379564e-06
6.9244551e-06
7.685109e-06
8.5311496e-06
9.4767565e-06
1.0549173e-05
1.1756898e-05
1.3135507e-05
1.4722123e-05
1.6563399e-05
1.8717767e-05
2.1258012e-05
2.4274394e-05
2.787827e-05
3.2206369e-05
3.7425758e-05
4.3739461e-05
5.1392495e-05
6.0677566e-05
7.1939297e-05
8.5577707e-05
0.00010204394
0.00012183336
0.0001454693
0.0001749957
0.00020804603
0.00024619393
0.00028935841
0.00033697187
0.00038798696
0.00044115023
0.00049563103
0.00055199557
0.00061327521
0.0006856831
0.00077897175
0.00090721422
0.0010887731
0.0012010529
0.0012001891
0.0011997999
0.0011996939
0.0011996378
0.0011995184
0.0011989602
0.0011976854
0.0011955595
0.0011926903