/*--------------------------------*- C++ -*----------------------------------*\
  =========                 |
  \\      /  F ield         | OpenFOAM: The Open Source CFD Toolbox
   \\    /   O peration     | Website:  https://openfoam.org
    \\  /    A nd           | Version:  12
     \\/     M anipulation  |
\*---------------------------------------------------------------------------*/
FoamFile
{
    format      ascii;
    class       volScalarField;
    location    "0.017";
    object      nut;
}
// * * * * * * * * * * * * * * * * * * * * * * * * * * * * * * * * * * * * * //

dimensions      [0 2 -1 0 0 0 0];

internalField   nonuniform List<scalar> 
16000
(
4.2554662e-07
1.018839e-05
1.8029929e-05
2.3594209e-05
1.8251314e-05
2.487916e-05
1.784988e-05
2.4273905e-05
1.916526e-05
2.6301849e-05
2.235624e-05
2.6245367e-05
2.4016039e-05
2.4688641e-05
2.3894279e-05
2.3791154e-05
2.35719e-05
2.3532432e-05
2.3570277e-05
2.3707599e-05
2.3937594e-05
2.4260042e-05
2.467261e-05
2.5175628e-05
2.5771614e-05
2.6467072e-05
2.7270539e-05
2.8195508e-05
2.9258513e-05
3.0477389e-05
3.1871329e-05
3.3465285e-05
3.5290924e-05
3.7386796e-05
3.9799952e-05
4.2585751e-05
4.5809194e-05
4.9546362e-05
5.3890153e-05
5.8954314e-05
6.4868859e-05
7.1781729e-05
7.9876781e-05
8.9375526e-05
0.00010053333
0.00011364266
0.00012905317
0.00014717298
0.00016847637
0.00019350816
0.00022289061
0.00025732971
0.00029760944
0.00034459013
0.00039919659
0.00046241036
0.00053526568
0.00061890799
0.00071479958
0.00082504252
0.00095268308
0.0010421522
0.0010417382
0.0010411948
0.0010407987
0.0010402381
0.001038429
0.0010351151
0.0010315851
0.0010280359
0.0010256021
0.0010252203
0.0010236519
0.0010223829
0.0010223018
0.0010228873
0.0010238921
0.0010244666
0.0010212524
0.0010057644
3.9328936e-07
9.6241317e-06
1.9963948e-05
2.1137522e-05
1.648864e-05
2.2294436e-05
1.5869726e-05
2.1272652e-05
1.6969171e-05
2.3227872e-05
2.0266665e-05
2.3651368e-05
2.1973376e-05
2.2367234e-05
2.1758859e-05
2.1597811e-05
2.1418046e-05
2.1370291e-05
2.1405752e-05
2.1529019e-05
2.1738515e-05
2.2033731e-05
2.2412939e-05
2.2876543e-05
2.3426473e-05
2.4068749e-05
2.4810694e-05
2.5664316e-05
2.6645009e-05
2.7769913e-05
2.9056693e-05
3.0527978e-05
3.2212872e-05
3.4146784e-05
3.6373428e-05
3.8944525e-05
4.1921321e-05
4.5375019e-05
4.9391681e-05
5.4078724e-05
5.9561497e-05
6.5979458e-05
7.3505665e-05
8.235186e-05
9.2765709e-05
0.00010502857
0.00011947926
0.00013651661
0.00015660862
0.00018029844
0.00020821241
0.0002410724
0.00027969447
0.00032499424
0.00037797815
0.00043973818
0.00051145711
0.00059447547
0.0006904772
0.00080175036
0.00093153573
0.0010411611
0.0010406179
0.0010399041
0.0010392542
0.0010382849
0.0010361072
0.0010328869
0.0010294999
0.0010261496
0.0010246587
0.0010245884
0.0010226305
0.0010216195
0.0010217229
0.0010225254
0.0010235822
0.00102393
0.0010202568
0.0010053436
3.5405606e-07
9.1705306e-06
1.8134492e-05
1.9361512e-05
1.4787199e-05
1.9644579e-05
1.4147337e-05
1.8511251e-05
1.5299137e-05
2.0403908e-05
1.8522014e-05
2.1078102e-05
1.9929016e-05
2.0044557e-05
1.9581089e-05
1.9390976e-05
1.9237352e-05
1.9188321e-05
1.9220178e-05
1.9331119e-05
1.9520819e-05
1.9789194e-05
2.0134742e-05
2.0558086e-05
2.1060601e-05
2.1647937e-05
2.2326461e-05
2.3106844e-05
2.4003129e-05
2.5031689e-05
2.6208964e-05
2.7555575e-05
2.9098373e-05
3.0869938e-05
3.2910911e-05
3.5269561e-05
3.8003667e-05
4.11805e-05
4.4880316e-05
4.9203951e-05
5.4272677e-05
6.0219443e-05
6.7208064e-05
7.5440603e-05
8.5157999e-05
9.6631807e-05
0.00011019029
0.00012622159
0.00014518307
0.00016760813
0.00019411309
0.00022541329
0.00026232375
0.00030577002
0.00035678498
0.00041651794
0.00048626766
0.00056757334
0.00066238517
0.00077326254
0.00090384756
0.0010401178
0.0010393787
0.0010384111
0.0010373995
0.0010359526
0.001033518
0.0010305783
0.0010274191
0.0010247228
0.0010240614
0.0010234844
0.0010215609
0.0010209776
0.0010213037
0.0010222536
0.001023295
0.001023542
0.0010186087
0.0010051738
3.189842e-07
8.8237606e-06
1.8011526e-05
1.7627597e-05
1.3286324e-05
1.7360918e-05
1.2623998e-05
1.6204014e-05
1.3806485e-05
1.801932e-05
1.6941025e-05
1.8807809e-05
1.8033827e-05
1.7949457e-05
1.7587334e-05
1.7389212e-05
1.7256633e-05
1.7211295e-05
1.7242553e-05
1.7345394e-05
1.7519778e-05
1.7766025e-05
1.8082784e-05
1.847095e-05
1.8931451e-05
1.9469697e-05
2.0091359e-05
2.0806033e-05
2.1626525e-05
2.2568574e-05
2.3647756e-05
2.4882992e-05
2.6299312e-05
2.7926914e-05
2.98039e-05
3.1975649e-05
3.4497047e-05
3.7432411e-05
4.0857591e-05
4.4867544e-05
4.9580739e-05
5.5125825e-05
6.166012e-05
6.937814e-05
7.8517762e-05
8.9345404e-05
0.00010218423
0.00011741846
0.00013550262
0.00015697045
0.00018243937
0.00021263119
0.00024837182
0.00029060679
0.00034040493
0.00039898539
0.00046777363
0.00054851024
0.00064340417
0.00075531418
0.00088843588
0.0010390754
0.0010380808
0.001036766
0.0010352919
0.0010334113
0.0010309724
0.0010284004
0.0010255848
0.0010238367
0.001023594
0.001022135
0.0010206176
0.0010204539
0.0010209434
0.0010219617
0.001022973
0.0010230591
0.0010168925
0.0010051197
2.8743165e-07
8.5587432e-06
1.7178853e-05
1.6910504e-05
1.1977209e-05
1.5346066e-05
1.1274295e-05
1.4223237e-05
1.2507945e-05
1.5957977e-05
1.5509574e-05
1.6747071e-05
1.6240521e-05
1.6024702e-05
1.5736185e-05
1.5547596e-05
1.5434205e-05
1.5396141e-05
1.5428374e-05
1.5525021e-05
1.5685845e-05
1.5911799e-05
1.6201716e-05
1.6556944e-05
1.6978207e-05
1.7470795e-05
1.8039923e-05
1.8694372e-05
1.9445809e-05
2.0309374e-05
2.130006e-05
2.2435393e-05
2.3738928e-05
2.5238862e-05
2.6971165e-05
2.8978768e-05
3.1314027e-05
3.4038932e-05
3.7226177e-05
4.0965268e-05
4.5372452e-05
5.0573638e-05
5.6721819e-05
6.4005007e-05
7.266003e-05
8.2951044e-05
9.5199109e-05
0.00010978827
0.00012717456
0.00014789823
0.00017258509
0.00020197234
0.00023690704
0.00027836946
0.00032748684
0.00038557563
0.00045421756
0.00053538646
0.0006315631
0.00074601215
0.000883523
0.0010380267
0.0010367035
0.0010349586
0.0010329964
0.0010308131
0.0010285595
0.0010263106
0.001024136
0.0010232195
0.0010227142
0.0010208142
0.0010198354
0.0010199835
0.0010206101
0.0010216752
0.001022702
0.0010225435
0.0010157116
0.0010051502
2.630616e-07
8.3841528e-06
1.6444239e-05
1.6907337e-05
1.2394058e-05
1.3616893e-05
1.0092032e-05
1.2540471e-05
1.1399829e-05
1.4201542e-05
1.4225807e-05
1.4917892e-05
1.458695e-05
1.4299472e-05
1.4059617e-05
1.3886281e-05
1.3786675e-05
1.3753665e-05
1.3784554e-05
1.3873719e-05
1.402056e-05
1.4226769e-05
1.4491263e-05
1.4815824e-05
1.5201243e-05
1.5652633e-05
1.6174895e-05
1.67762e-05
1.7467174e-05
1.8262395e-05
1.9176521e-05
2.0225975e-05
2.1433189e-05
2.2824745e-05
2.4434931e-05
2.6304711e-05
2.8484378e-05
3.1034148e-05
3.4024895e-05
3.7541637e-05
4.1698713e-05
4.6620835e-05
5.2459191e-05
5.9396391e-05
6.767006e-05
7.754484e-05
8.9342302e-05
0.00010344973
0.00012032822
0.00014053006
0.00016469534
0.00019358444
0.00022807752
0.00026920886
0.00031818899
0.00037645932
0.00044580735
0.00052847867
0.00062723357
0.00074583152
0.00088937652
0.0010369668
0.0010352612
0.0010330566
0.0010307018
0.0010284072
0.0010263907
0.0010244142
0.0010230575
0.0010225678
0.0010213061
0.0010197132
0.0010192288
0.0010195336
0.0010202707
0.0010213517
0.0010223678
0.0010219712
0.0010150546
0.0010052242
2.4334511e-07
8.2868343e-06
1.5816017e-05
1.6398394e-05
1.2069816e-05
1.2077615e-05
1.0075776e-05
1.1241656e-05
1.128533e-05
1.2741544e-05
1.3079439e-05
1.3308e-05
1.307042e-05
1.2752248e-05
1.2538733e-05
1.2379013e-05
1.2287687e-05
1.2257006e-05
1.228488e-05
1.2366423e-05
1.2500315e-05
1.268899e-05
1.293112e-05
1.314775e-05
1.3492702e-05
1.3900472e-05
1.4375267e-05
1.4924467e-05
1.5557495e-05
1.6288069e-05
1.7130529e-05
1.8100282e-05
1.9218774e-05
2.0511118e-05
2.2010114e-05
2.3755022e-05
2.5794315e-05
2.8186594e-05
3.1001833e-05
3.458259e-05
3.8544394e-05
4.3250986e-05
4.8854379e-05
5.5533368e-05
6.3527691e-05
7.3105514e-05
8.4591946e-05
9.8381263e-05
0.00011494353
0.00013484915
0.00015875922
0.00018746815
0.00022190572
0.00026317923
0.00031259853
0.00037176936
0.00044275385
0.00052804352
0.00063071427
0.00075496067
0.00090606431
0.0010358855
0.0010337991
0.0010312058
0.0010286509
0.0010264111
0.0010245402
0.0010229467
0.0010222218
0.0010215997
0.0010199957
0.0010188967
0.0010187589
0.0010191296
0.001019917
0.0010209971
0.0010218921
0.0010213239
0.0010145635
0.0010053108
2.1986319e-07
8.2322391e-06
1.5330901e-05
1.5212333e-05
1.1966908e-05
1.0653857e-05
9.9303355e-06
1.0360485e-05
1.003092e-05
1.1419408e-05
1.196557e-05
1.1853412e-05
1.1644388e-05
1.1330273e-05
1.1134017e-05
1.0989336e-05
1.0906846e-05
1.0880252e-05
1.0838388e-05
1.0898538e-05
1.1011019e-05
1.1177132e-05
1.1395263e-05
1.166429e-05
1.1988736e-05
1.2371458e-05
1.281669e-05
1.3331726e-05
1.3925394e-05
1.4610924e-05
1.5402829e-05
1.6315996e-05
1.7371435e-05
1.8593382e-05
2.0013838e-05
2.1671088e-05
2.3612657e-05
2.5896362e-05
2.8592292e-05
3.1785148e-05
3.5577458e-05
4.0098668e-05
4.5503814e-05
5.2409208e-05
6.0228197e-05
6.9631777e-05
8.0952599e-05
9.4596432e-05
0.00011104744
0.00013090208
0.00015485256
0.00018374372
0.00021857448
0.00026053494
0.00031105059
0.00037196822
0.00044562513
0.00053463769
0.00064253672
0.00077379423
0.00093450524
0.0010347755
0.0010324045
0.0010296132
0.0010270549
0.0010249121
0.0010230633
0.0010219268
0.0010214406
0.0010203193
0.0010189986
0.0010182895
0.0010183213
0.0010187569
0.0010195646
0.0010206286
0.0010213507
0.0010205976
0.0010140332
0.0010054264
2.0196637e-07
8.1855979e-06
1.4898421e-05
1.3482416e-05
1.0210726e-05
9.2958232e-06
7.9935058e-06
8.8365387e-06
9.1272244e-06
1.0303708e-05
1.0817442e-05
1.0496826e-05
1.0292397e-05
1.0007046e-05
9.8298408e-06
9.6330385e-06
9.5361527e-06
9.5006203e-06
9.5190375e-06
9.5884467e-06
9.7044912e-06
9.8681092e-06
1.0079072e-05
1.0336871e-05
1.0645625e-05
1.1009031e-05
1.14314e-05
1.1920067e-05
1.2483479e-05
1.31344e-05
1.3887662e-05
1.4757915e-05
1.5766065e-05
1.693582e-05
1.829879e-05
1.989283e-05
2.1765115e-05
2.3973359e-05
2.6587818e-05
2.9693537e-05
3.3395027e-05
3.7821948e-05
4.3135405e-05
4.951972e-05
5.7210291e-05
6.6498128e-05
7.8415709e-05
9.2097732e-05
0.00010866076
0.00012873873
0.00015307071
0.00018257289
0.00021833007
0.00026162425
0.00031405521
0.00037778308
0.000455208
0.00054912367
0.00066372831
0.00080383989
0.0009770158
0.0010336319
0.001031177
0.0010284426
0.0010259939
0.0010238683
0.0010221038
0.0010212228
0.0010205138
0.0010193085
0.0010182669
0.0010177919
0.0010178699
0.0010183777
0.0010192251
0.0010202438
0.0010207831
0.001019904
0.0010136356
0.0010055855
1.8666405e-07
8.1423751e-06
1.4029667e-05
1.1657063e-05
8.2774504e-06
8.3030078e-06
6.8311746e-06
8.0134356e-06
8.4781905e-06
9.2257121e-06
9.6619238e-06
9.2411257e-06
9.0366475e-06
8.6996547e-06
8.5091694e-06
8.3829016e-06
8.3178996e-06
8.3047255e-06
8.3400294e-06
8.4187364e-06
8.5389889e-06
8.7020459e-06
8.908669e-06
9.1586269e-06
9.4563161e-06
9.8058796e-06
1.0211785e-05
1.0681554e-05
1.122343e-05
1.1849776e-05
1.257583e-05
1.3416359e-05
1.4392433e-05
1.5527556e-05
1.6853342e-05
1.8407711e-05
2.0238056e-05
2.2402687e-05
2.4973169e-05
2.8036401e-05
3.1699012e-05
3.6093094e-05
4.1386938e-05
4.7770733e-05
5.5490096e-05
6.484878e-05
7.622013e-05
9.0037413e-05
0.0001078218
0.00012843655
0.0001535483
0.00018416222
0.00022146595
0.00026687698
0.00032229099
0.00039004603
0.00047229988
0.00057297911
0.00069640749
0.00084818201
0.0010341084
0.0010324409
0.0010301402
0.0010276635
0.0010253414
0.0010231614
0.001021512
0.0010205893
0.0010195299
0.0010185676
0.00101768
0.0010173252
0.0010174534
0.0010180062
0.0010188944
0.0010198352
0.0010202087
0.0010192782
0.0010134777
0.0010056727
1.7251125e-07
8.0929596e-06
1.1041291e-05
1.0019263e-05
6.6688663e-06
7.4301782e-06
6.2037869e-06
7.2080082e-06
7.9146834e-06
8.2351014e-06
8.5274372e-06
8.0035748e-06
7.746461e-06
7.5087295e-06
7.3638618e-06
7.2743995e-06
7.2376527e-06
7.2457113e-06
7.2940987e-06
7.3822131e-06
7.5076543e-06
7.6720401e-06
7.877075e-06
8.1229206e-06
8.4140504e-06
8.7550848e-06
9.1508018e-06
9.608976e-06
1.0137873e-05
1.0749552e-05
1.1399154e-05
1.2213068e-05
1.316118e-05
1.4266816e-05
1.5561663e-05
1.7083836e-05
1.8881166e-05
2.1012809e-05
2.3552026e-05
2.6588223e-05
3.0231696e-05
3.4891684e-05
4.0238966e-05
4.6712341e-05
5.4570179e-05
6.4133837e-05
7.5807821e-05
9.0064964e-05
0.00010750027
0.00012885382
0.00015644714
0.00018874906
0.00022833595
0.00027686668
0.00033657209
0.0004094618
0.00049885706
0.00060899731
0.00074398093
0.00091098001
0.0010327712
0.0010311646
0.0010291687
0.0010270087
0.0010247933
0.0010226731
0.0010210245
0.0010197621
0.0010187761
0.0010178698
0.0010170968
0.0010168255
0.0010170465
0.0010176563
0.0010185553
0.001019403
0.0010196426
0.0010186481
0.0010133864
0.0010055664
1.6004731e-07
8.0413253e-06
8.6346048e-06
8.2410857e-06
5.7271074e-06
6.6018167e-06
5.7009504e-06
6.5039219e-06
7.3446368e-06
7.3055346e-06
7.2980698e-06
6.853539e-06
6.6404516e-06
6.4621776e-06
6.3564959e-06
6.2992878e-06
6.2853657e-06
6.311376e-06
6.373369e-06
6.4711143e-06
6.6030077e-06
6.7708897e-06
6.9772333e-06
7.2227255e-06
7.5119368e-06
7.8143195e-06
8.1990305e-06
8.6458342e-06
9.1629194e-06
9.7619677e-06
1.0457013e-05
1.1266456e-05
1.221097e-05
1.3314232e-05
1.4608632e-05
1.6133255e-05
1.7937349e-05
2.0082011e-05
2.2643624e-05
2.571584e-05
2.9414878e-05
3.3886939e-05
3.93125e-05
4.5909801e-05
5.3955067e-05
6.4349009e-05
7.651019e-05
9.1443384e-05
0.00010980812
0.00013244051
0.00016036411
0.00019665987
0.00023949383
0.00029246349
0.00035784257
0.00043828655
0.00053798719
0.0006603869
0.00081160192
0.00099847055
0.0010312439
0.0010297337
0.0010280282
0.0010261192
0.001024035
0.0010220655
0.0010203352
0.0010189361
0.0010179777
0.0010170901
0.0010164522
0.0010163098
0.0010166239
0.0010172995
0.0010181771
0.0010189365
0.0010190797
0.0010179733
0.0010131787
0.0010055464
1.488732e-07
7.9853008e-06
6.7834327e-06
7.2493488e-06
5.0937005e-06
5.8468513e-06
5.2625938e-06
5.8747085e-06
6.6666351e-06
6.2449383e-06
6.191093e-06
5.8474798e-06
5.6755553e-06
5.5453224e-06
5.4732163e-06
5.443221e-06
5.4510087e-06
5.494081e-06
5.5694278e-06
5.677573e-06
5.8176503e-06
5.9915755e-06
6.1742689e-06
6.4172319e-06
6.7037779e-06
7.0379272e-06
7.426754e-06
7.877747e-06
8.3993892e-06
9.0036604e-06
9.7048698e-06
1.0521327e-05
1.1475215e-05
1.2590922e-05
1.3901875e-05
1.5448623e-05
1.7282536e-05
1.9467414e-05
2.208383e-05
2.5231236e-05
2.903277e-05
3.3643621e-05
3.9261627e-05
4.6122339e-05
5.4527651e-05
6.4859295e-05
7.7600319e-05
9.3348559e-05
0.00011384813
0.00013821953
0.0001685195
0.00020623823
0.00025562269
0.00031461853
0.00038789838
0.00047926251
0.00059245767
0.00073302397
0.00090679523
0.0010308769
0.0010295395
0.0010280835
0.0010265109
0.0010247334
0.0010228887
0.0010210641
0.0010193279
0.0010180139
0.0010170136
0.0010161958
0.0010157327
0.0010157516
0.0010161673
0.0010168794
0.0010177122
0.0010183972
0.0010185014
0.0010173352
0.0010128661
0.0010056495
1.3887642e-07
7.9192976e-06
5.3978596e-06
6.3369402e-06
4.5423398e-06
5.1765856e-06
4.88818e-06
5.2308543e-06
5.8175973e-06
5.3234476e-06
5.2210912e-06
4.9675746e-06
4.8347527e-06
4.7448141e-06
4.7027975e-06
4.697718e-06
4.7257409e-06
4.78554e-06
4.8748703e-06
4.9744698e-06
5.1184228e-06
5.2963155e-06
5.5103734e-06
5.7634995e-06
6.0599581e-06
6.4042067e-06
6.8032602e-06
7.2653305e-06
7.7992113e-06
8.4171536e-06
9.1337395e-06
9.9677083e-06
1.0891445e-05
1.2021863e-05
1.335193e-05
1.4923752e-05
1.6791196e-05
1.9021083e-05
2.1698589e-05
2.4930029e-05
2.8847305e-05
3.3872485e-05
3.9756054e-05
4.6973817e-05
5.5859027e-05
6.6835063e-05
8.045127e-05
9.73943e-05
0.00011853423
0.00014631234
0.00017970653
0.0002217035
0.0002745546
0.00034431948
0.00042853326
0.00053448644
0.00066744769
0.00083360611
0.0010304015
0.0010291369
0.0010276852
0.0010261953
0.0010245917
0.0010229782
0.0010213116
0.0010196479
0.0010181743
0.0010168407
0.0010158702
0.0010152003
0.0010149451
0.0010151082
0.0010156057
0.0010163236
0.0010170965
0.0010177181
0.0010178494
0.0010168335
0.0010126206
0.0010057932
1.2994054e-07
7.7864358e-06
4.3542269e-06
5.5240353e-06
4.0461076e-06
4.5779188e-06
4.556924e-06
4.5244958e-06
4.9651102e-06
4.5009979e-06
4.3809882e-06
4.2015651e-06
4.1062456e-06
4.0513699e-06
4.0368924e-06
4.0550286e-06
4.1026831e-06
4.1612373e-06
4.2593785e-06
4.3880087e-06
4.5479446e-06
4.7406346e-06
4.9690402e-06
5.2362727e-06
5.5472232e-06
5.9066628e-06
6.3217189e-06
6.7796326e-06
7.3267981e-06
7.9593696e-06
8.6921529e-06
9.544144e-06
1.0538687e-05
1.1705324e-05
1.3079578e-05
1.4705838e-05
1.6641674e-05
1.8958253e-05
2.1746741e-05
2.5122543e-05
2.9229008e-05
3.4250529e-05
4.0416716e-05
4.8019043e-05
5.7429154e-05
6.9702261e-05
8.4404926e-05
0.0001028263
0.00012599234
0.00015523035
0.00019405917
0.00024142237
0.00030173257
0.00037854324
0.00048110534
0.0006068386
0.00076640514
0.00096630154
0.0010286518
0.0010272697
0.0010257162
0.0010241303
0.0010226169
0.0010210761
0.0010195102
0.0010180485
0.0010166044
0.0010154449
0.0010146042
0.0010141341
0.0010140601
0.001014329
0.0010148663
0.0010155592
0.0010162585
0.0010168191
0.0010170021
0.001016227
0.0010122108
0.0010058287
1.2200445e-07
7.4567045e-06
3.6335355e-06
4.8021446e-06
3.6041322e-06
4.0449174e-06
4.0346393e-06
3.8824434e-06
4.1486719e-06
3.7748414e-06
3.6619812e-06
3.5416124e-06
3.4815158e-06
3.457732e-06
3.4686144e-06
3.4946127e-06
3.5546547e-06
3.6443268e-06
3.7627747e-06
3.910164e-06
4.0879459e-06
4.2981128e-06
4.544075e-06
4.8292621e-06
5.1464075e-06
5.5217803e-06
5.9535343e-06
6.4499891e-06
7.0216713e-06
7.6811649e-06
8.4438646e-06
9.329808e-06
1.0363664e-05
1.1576585e-05
1.3007229e-05
1.4702612e-05
1.6724749e-05
1.9150159e-05
2.2076657e-05
2.5630531e-05
2.9967017e-05
3.5288427e-05
4.1851499e-05
4.997962e-05
6.009214e-05
7.272956e-05
8.9379869e-05
0.00010954642
0.0001351004
0.00016764142
0.00020924554
0.00026516469
0.00033451719
0.00042398652
0.00053959769
0.00069485264
0.00088587357
0.001028078
0.0010267575
0.0010253008
0.0010236824
0.0010221484
0.0010206403
0.0010191185
0.0010175678
0.0010161352
0.0010148976
0.0010139222
0.0010132776
0.0010129941
0.0010130429
0.0010133671
0.0010139017
0.0010145355
0.0010151384
0.0010156077
0.0010157988
0.0010152018
0.0010122547
0.0010055842
1.1516498e-07
7.0622612e-06
3.1921623e-06
4.161292e-06
3.210235e-06
3.4187803e-06
3.5711947e-06
3.2928454e-06
3.413328e-06
3.1450466e-06
3.054136e-06
2.9805502e-06
2.952579e-06
2.9568116e-06
2.9748918e-06
3.0311086e-06
3.1158488e-06
3.2278349e-06
3.3671083e-06
3.5345782e-06
3.7322637e-06
3.9624534e-06
4.2200742e-06
4.5236366e-06
4.8719706e-06
5.2709306e-06
5.7275803e-06
6.2506368e-06
6.8509524e-06
7.5420775e-06
8.3401042e-06
9.2661963e-06
1.0346513e-05
1.1614269e-05
1.3054267e-05
1.4816649e-05
1.6922722e-05
1.9454954e-05
2.2654285e-05
2.6415638e-05
3.1019333e-05
3.6686376e-05
4.3702827e-05
5.242836e-05
6.3331639e-05
7.7025382e-05
9.431074e-05
0.00011624152
0.00014549824
0.00018166633
0.0002282853
0.00028865844
0.00037061257
0.00047359338
0.00060719456
0.0007867965
0.0010073789
0.0010261559
0.0010247264
0.0010232285
0.0010216813
0.0010200848
0.001018492
0.0010169597
0.0010155268
0.0010142407
0.001013169
0.0010123806
0.0010119164
0.0010117657
0.0010118828
0.00101222
0.001012711
0.0010132465
0.001013716
0.0010140473
0.0010141285
0.0010135154
0.0010110367
0.0010049487
1.0968066e-07
5.98835e-06
2.8162831e-06
3.5784985e-06
2.8680692e-06
2.838227e-06
3.1103157e-06
2.7588639e-06
2.7831615e-06
2.6077664e-06
2.5455143e-06
2.510175e-06
2.5033185e-06
2.5254608e-06
2.5798547e-06
2.6623262e-06
2.770828e-06
2.9050966e-06
3.065939e-06
3.2547179e-06
3.4682282e-06
3.7183539e-06
4.004952e-06
4.3321998e-06
4.7051115e-06
5.1298005e-06
5.6137382e-06
6.1660749e-06
6.7981195e-06
7.5069646e-06
8.3387075e-06
9.3027253e-06
1.0426594e-05
1.1745201e-05
1.3302704e-05
1.5155092e-05
1.7372808e-05
2.0045759e-05
2.3288186e-05
2.7245275e-05
3.2103122e-05
3.8374266e-05
4.5881985e-05
5.5250376e-05
6.6996601e-05
8.1801596e-05
0.00010056112
0.00012446043
0.00015649473
0.00019622503
0.00024761737
0.00031433336
0.00040496426
0.00051831805
0.00066390971
0.00084775327
0.0010255153
0.0010241318
0.0010226096
0.0010210278
0.0010194447
0.0010178833
0.0010163623
0.0010149179
0.00101359
0.001012428
0.0010114985
0.0010108601
0.0010105241
0.0010104604
0.0010106139
0.0010109326
0.0010113411
0.0010117341
0.0010120212
0.0010121512
0.0010120392
0.001011307
0.0010089889
0.0010039165
1.0508556e-07
4.2001903e-06
2.4740982e-06
3.0392332e-06
2.434231e-06
2.3490887e-06
2.6297676e-06
2.2840698e-06
2.2592268e-06
2.1560951e-06
2.1254804e-06
2.115835e-06
2.1380235e-06
2.1921372e-06
2.273975e-06
2.3810517e-06
2.5125546e-06
2.6689082e-06
2.8484157e-06
3.0576141e-06
3.2973976e-06
3.5706803e-06
3.8810388e-06
4.2328558e-06
4.6314464e-06
5.0832414e-06
5.5960795e-06
6.1697349e-06
6.8319891e-06
7.5907839e-06
8.4646377e-06
9.4767123e-06
1.0656445e-05
1.2041181e-05
1.3678327e-05
1.5627881e-05
1.7965806e-05
2.0788662e-05
2.4219614e-05
2.8415987e-05
3.3579369e-05
3.9968196e-05
4.827276e-05
5.8289214e-05
7.0871375e-05
8.6755574e-05
0.00010690807
0.00013260091
0.00016550671
0.00020967528
0.0002645973
0.00033534485
0.0004260834
0.00054624501
0.00069027667
0.00086337449
0.0010234418
0.0010220521
0.0010205086
0.0010189067
0.0010173225
0.0010157962
0.0010143417
0.0010129837
0.0010117563
0.0010107059
0.0010098938
0.0010093672
0.0010091251
0.0010091276
0.0010093033
0.0010095783
0.0010098663
0.0010100738
0.0010101353
0.0010100187
0.00100967
0.0010088002
0.0010066878
0.0010026991
1.0019208e-07
3.4637003e-06
2.1192286e-06
2.5416345e-06
2.0765029e-06
1.9387581e-06
2.139638e-06
1.8687672e-06
1.8338682e-06
1.7860028e-06
1.7825375e-06
1.8048495e-06
1.8603554e-06
1.9426762e-06
2.0492509e-06
2.1790584e-06
2.3322243e-06
2.5076e-06
2.7103606e-06
2.9415177e-06
3.2036534e-06
3.4999325e-06
3.8341713e-06
4.2109558e-06
4.6358221e-06
5.1154799e-06
5.651392e-06
6.2641998e-06
6.9617785e-06
7.7596318e-06
8.6773714e-06
9.7396488e-06
1.097773e-05
1.2431325e-05
1.4151031e-05
1.6201167e-05
1.8663103e-05
2.1639941e-05
2.5263164e-05
2.9700124e-05
3.5165362e-05
4.2238036e-05
5.0733116e-05
6.1353365e-05
7.4691568e-05
9.1513906e-05
0.00011281333
0.000139872
0.00017594383
0.00022020022
0.00027646471
0.0003475633
0.00043627531
0.00054967737
0.00067842687
0.00082354345
0.00098734105
0.0010199501
0.0010184457
0.0010168673
0.0010153089
0.0010138321
0.001012449
0.0010111726
0.0010100365
0.001009085
0.001008373
0.0010079413
0.0010077796
0.0010078273
0.0010080161
0.0010082249
0.0010083625
0.0010083561
0.0010081714
0.0010077977
0.001007222
0.0010063005
0.0010045906
0.0010015153
9.6638372e-08
2.7689067e-06
1.8100316e-06
2.0357385e-06
1.781553e-06
1.5879085e-06
1.6892851e-06
1.5180874e-06
1.4999244e-06
1.496251e-06
1.5203581e-06
1.5773071e-06
1.6608263e-06
1.7672444e-06
1.8954728e-06
2.0456162e-06
2.2173957e-06
2.414143e-06
2.6373862e-06
2.8894857e-06
3.1732983e-06
3.4921922e-06
3.8501423e-06
4.2518796e-06
4.7031058e-06
5.2069036e-06
5.7775652e-06
6.4230373e-06
7.156243e-06
7.9934613e-06
8.9554526e-06
1.0068321e-05
1.1365186e-05
1.2888039e-05
1.4690314e-05
1.6840158e-05
1.942423e-05
2.2551271e-05
2.6360197e-05
3.1026788e-05
3.7018033e-05
4.4191104e-05
5.310781e-05
6.423826e-05
7.8181344e-05
9.5700412e-05
0.00011776033
0.00014556648
0.0001822162
0.00022650821
0.00028168261
0.00034953667
0.00043127954
0.00053169506
0.00063957561
0.00075455278
0.00087849791
0.00098847986
0.0010164372
0.001014934
0.0010134315
0.0010120118
0.0010107039
0.0010095095
0.0010084634
0.0010076085
0.0010069899
0.0010066351
0.0010065213
0.0010066194
0.0010067932
0.0010069157
0.0010068891
0.0010066669
0.0010062513
0.0010056678
0.0010049482
0.001004049
0.0010028327
0.0010011273
9.464682e-08
2.1661278e-06
1.5414765e-06
1.5534563e-06
1.5098318e-06
1.2875859e-06
1.3238705e-06
1.2391867e-06
1.2501789e-06
1.2778036e-06
1.3369059e-06
1.4211526e-06
1.5272061e-06
1.6535538e-06
1.8003232e-06
1.9684575e-06
2.1586694e-06
2.3741268e-06
2.6166219e-06
2.8887576e-06
3.193546e-06
3.5344815e-06
3.9156478e-06
4.3418799e-06
4.8189909e-06
5.3540772e-06
5.9559155e-06
6.6354437e-06
7.3973968e-06
8.2731543e-06
9.2783359e-06
1.0440448e-05
1.1794392e-05
1.338436e-05
1.5266277e-05
1.7583304e-05
2.0302011e-05
2.3592218e-05
2.7599126e-05
3.2505897e-05
3.85436e-05
4.600366e-05
5.5255048e-05
6.6762853e-05
8.1110838e-05
9.9025321e-05
0.0001213944
0.00015058257
0.00018544838
0.000228387
0.00028063862
0.00034308048
0.00041972647
0.00050208526
0.00059080922
0.00068186589
0.00077813489
0.00086250558
0.0009434294
0.0010131111
0.0010117004
0.0010103504
0.0010091257
0.0010080229
0.0010070754
0.0010063177
0.0010057823
0.0010054978
0.0010054399
0.0010055283
0.0010056482
0.0010056673
0.0010054862
0.0010050808
0.0010044864
0.0010037726
0.0010030282
0.0010022853
0.0010015163
0.0010006016
9.5004625e-08
1.6505772e-06
1.3150363e-06
1.1837327e-06
1.2376295e-06
1.0361093e-06
1.0560868e-06
1.0337771e-06
1.0744801e-06
1.1325801e-06
1.2170323e-06
1.3218386e-06
1.4456684e-06
1.5885356e-06
1.7514244e-06
1.9358045e-06
2.1431415e-06
2.3761175e-06
2.6369072e-06
2.9282273e-06
3.2531716e-06
3.6153049e-06
4.0187851e-06
4.4685341e-06
4.9704749e-06
5.5318484e-06
6.1616383e-06
6.8711017e-06
7.6744356e-06
8.5896293e-06
9.6394854e-06
1.0852995e-05
1.2266884e-05
1.3927654e-05
1.5894031e-05
1.8240054e-05
2.1058987e-05
2.4468435e-05
2.8616086e-05
3.3687545e-05
3.9915573e-05
4.7590755e-05
5.7073098e-05
6.8811054e-05
8.3353642e-05
0.00010220418
0.00012462991
0.00015221596
0.00018591433
0.0002266478
0.00027513708
0.00033475117
0.00039918462
0.00046956883
0.00054337033
0.0006235588
0.00069610036
0.00076661461
0.00083980674
0.00092607329
0.0010101135
0.0010088557
0.0010077284
0.0010067342
0.0010058959
0.0010052348
0.0010047748
0.001004543
0.0010044904
0.001004538
0.0010045731
0.0010044786
0.0010041751
0.0010036522
0.0010029628
0.0010022154
0.0010015487
0.0010010427
0.0010006932
0.0010003326
9.8523148e-08
1.2300938e-06
1.1281826e-06
9.13364e-07
1.0778393e-06
8.2795914e-07
8.7230149e-07
8.9510593e-07
9.5967616e-07
1.0419818e-06
1.1447084e-06
1.265135e-06
1.4034811e-06
1.5606712e-06
1.7381432e-06
1.9376068e-06
2.1610205e-06
2.4104032e-06
2.6884659e-06
2.9978761e-06
3.3417757e-06
3.7237804e-06
4.1481084e-06
4.6197583e-06
5.1447524e-06
5.7304634e-06
6.386053e-06
7.1230709e-06
7.9561148e-06
8.9037431e-06
9.9894717e-06
1.1243229e-05
1.2702892e-05
1.4416348e-05
1.6443923e-05
1.8861456e-05
2.1763998e-05
2.52704e-05
2.9528899e-05
3.4723936e-05
4.1366547e-05
4.9238355e-05
5.8916566e-05
7.0825548e-05
8.5472221e-05
0.00010344919
0.00012542715
0.00015212998
0.00018427923
0.00022458701
0.00026959267
0.00032097173
0.00037792647
0.00043889449
0.00050666383
0.00056979204
0.00063204376
0.00069561874
0.000766948
0.00085712161
0.00098199314
0.0010075251
0.0010065145
0.0010056507
0.0010049337
0.0010043698
0.0010039806
0.0010037688
0.001003681
0.0010036411
0.0010035561
0.0010033476
0.0010029653
0.001002405
0.0010017225
0.0010010399
0.0010005125
0.0010002557
0.0010002459
0.0010002345
1.0533101e-07
9.6932223e-07
9.654558e-07
7.6500664e-07
7.715303e-07
7.0604279e-07
7.490297e-07
8.0798841e-07
8.9068526e-07
9.8989542e-07
1.106175e-06
1.2393079e-06
1.3902789e-06
1.5603742e-06
1.7511737e-06
1.9644507e-06
2.202193e-06
2.4666197e-06
2.7602225e-06
3.0858133e-06
3.4465949e-06
3.8462567e-06
4.2891072e-06
4.7802615e-06
5.3258984e-06
5.9312804e-06
6.6091845e-06
7.3699093e-06
8.2362258e-06
9.2148289e-06
1.0335304e-05
1.1628491e-05
1.3133317e-05
1.4898816e-05
1.6986536e-05
1.9473464e-05
2.2455576e-05
2.6052115e-05
3.0410686e-05
3.5713351e-05
4.218368e-05
5.009456e-05
5.9775829e-05
7.1618767e-05
8.6082216e-05
0.00010368652
0.00012611559
0.00015192649
0.00018262036
0.00021863187
0.00026011942
0.00030678584
0.00035774343
0.00041547344
0.00047085051
0.00052634864
0.00058261926
0.00064329018
0.00071573222
0.00081138486
0.00094626157
0.0010063406
0.0010054653
0.0010047539
0.0010041746
0.0010037124
0.0010033895
0.0010031669
0.0010030093
0.0010028419
0.001002609
0.0010022847
0.0010018561
0.0010013287
0.001000745
0.0010002081
0.00099986382
0.00099983068
0.0010000595
0.0010001986
1.202782e-07
9.6652161e-07
8.0736918e-07
5.7211229e-07
6.1324056e-07
6.1494652e-07
6.7724452e-07
7.5573727e-07
8.5255634e-07
9.6434923e-07
1.091972e-06
1.2362183e-06
1.3983524e-06
1.579769e-06
1.7820772e-06
2.007072e-06
2.2567623e-06
2.5333974e-06
2.8395043e-06
3.1779349e-06
3.5519302e-06
3.9652124e-06
4.4221149e-06
4.9277674e-06
5.4883562e-06
6.1114775e-06
6.8066024e-06
7.5856699e-06
8.4638364e-06
9.4603715e-06
1.0599735e-05
1.1912945e-05
1.3439119e-05
1.5227425e-05
1.7339362e-05
1.985153e-05
2.2858918e-05
2.6478773e-05
3.0855142e-05
3.6164127e-05
4.261985e-05
5.0844624e-05
6.0492953e-05
7.2227158e-05
8.6463125e-05
0.00010366178
0.00012431607
0.00014892333
0.00017793342
0.00021165431
0.00025011841
0.00029563573
0.00034220676
0.00039097887
0.00044078693
0.00049135567
0.00054436402
0.00060436392
0.00067924157
0.00078070931
0.0009248031
0.001005277
0.0010045421
0.0010039928
0.0010035724
0.0010032331
0.0010029682
0.001002735
0.0010024838
0.0010021705
0.0010017742
0.0010013217
0.0010008609
0.0010004037
0.00099996389
0.00099962324
0.00099948199
0.00099963403
0.0010000061
0.0010001952
1.1047746e-07
6.2969235e-07
6.4220678e-07
4.7419739e-07
5.1442969e-07
5.5944365e-07
6.3778141e-07
7.3035999e-07
8.381509e-07
9.6040721e-07
1.0981499e-06
1.2524096e-06
1.424489e-06
1.6158409e-06
1.8281053e-06
2.0631182e-06
2.3229355e-06
2.6098178e-06
2.9263996e-06
3.275557e-06
3.6605737e-06
4.085207e-06
4.553816e-06
5.0715459e-06
5.6445879e-06
6.2805339e-06
6.9888418e-06
7.7814355e-06
8.6810418e-06
9.6950716e-06
1.0853281e-05
1.2186848e-05
1.3734964e-05
1.5546727e-05
1.7683316e-05
2.0220613e-05
2.3252258e-05
2.6893226e-05
3.1283974e-05
3.6595125e-05
4.3032484e-05
5.0841804e-05
6.031235e-05
7.1779857e-05
8.5622961e-05
0.00010225741
0.00012212256
0.00014693559
0.00017471362
0.00020678715
0.00024310314
0.00028320019
0.00032620302
0.00037103653
0.00041693762
0.00046427102
0.00051546263
0.00057566949
0.00065313793
0.00075979248
0.00091090299
0.0010043129
0.0010037059
0.00100331
0.0010030399
0.0010028495
0.0010026675
0.0010024386
0.0010021076
0.0010016563