/*--------------------------------*- C++ -*----------------------------------*\
  =========                 |
  \\      /  F ield         | OpenFOAM: The Open Source CFD Toolbox
   \\    /   O peration     | Website:  https://openfoam.org
    \\  /    A nd           | Version:  12
     \\/     M anipulation  |
\*---------------------------------------------------------------------------*/
FoamFile
{
    format      ascii;
    class       surfaceScalarField;
    location    "0.017";
    object      phi;
}
// * * * * * * * * * * * * * * * * * * * * * * * * * * * * * * * * * * * * * //

dimensions      [1 0 -1 0 0 0 0];

internalField   nonuniform List<scalar> 
31760
(
-0.00062812097
-0.05136648
0.052003252
-0.0016258228
-0.065444289
0.066454416
-0.0026363421
-0.063902424
0.064922835
-0.0036820931
-0.069753505
0.070812168
-0.0047786674
-0.07139344
0.072502653
-0.0059068547
-0.07576057
0.076902792
-0.0071050848
-0.078719807
0.079932336
-0.0083435067
-0.082803068
0.084057244
-0.0096429629
-0.086480942
0.087796566
-0.011002026
-0.090669649
0.092046065
-0.012417512
-0.094871816
0.096305614
-0.013901492
-0.099359314
0.10086282
-0.0154483
-0.10401331
0.10558082
-0.017066465
-0.10889877
0.11053896
-0.018755436
-0.1140036
0.11571597
-0.02052005
-0.11934497
0.12113445
-0.022362929
-0.12493106
0.12680039
-0.02428729
-0.13077348
0.13272598
-0.026296324
-0.13688352
0.13892252
-0.028393411
-0.14327262
0.14540162
-0.030581901
-0.14995349
0.15217602
-0.0328655
-0.15693828
0.15925821
-0.035247674
-0.16424094
0.16666194
-0.037732224
-0.17187537
0.17440146
-0.040321933
-0.17985648
0.1824907
-0.043021236
-0.18819858
0.19094564
-0.045833803
-0.19691834
0.19978224
-0.048762837
-0.20603262
0.20901693
-0.051811551
-0.21555884
0.2186672
-0.054983714
-0.22551541
0.22875208
-0.058282284
-0.23592186
0.23929036
-0.061710212
-0.24679847
0.25030242
-0.065269846
-0.25816747
0.26180998
-0.068963695
-0.27005059
0.27383509
-0.072793072
-0.28247279
0.28640165
-0.076758805
-0.29545914
0.29953445
-0.08086119
-0.30903633
0.31325986
-0.085099409
-0.32323302
0.32760571
-0.089471686
-0.33807825
0.34260038
-0.093974732
-0.35360454
0.35827529
-0.098604146
-0.36984485
0.37466271
-0.10335356
-0.38683415
0.39179619
-0.1082148
-0.40460989
0.40971201
-0.11317775
-0.42321147
0.42844838
-0.11822953
-0.44268104
0.44804552
-0.12335482
-0.46306232
0.46854572
-0.12853475
-0.48440268
0.48999396
-0.13374787
-0.5067514
0.51243811
-0.13896875
-0.530162
0.53592909
-0.14416775
-0.55469032
0.56051988
-0.1493111
-0.58039554
0.58626688
-0.15436123
-0.6073414
0.61323132
-0.15927552
-0.63559509
0.64147637
-0.16400695
-0.66522863
0.6710702
-0.16850452
-0.69631887
0.7020856
-0.17271186
-0.72894914
0.73459949
-0.17656912
-0.76320786
0.76869458
-0.18001251
-0.79919017
0.80445818
-0.18297349
-0.83699983
0.84198283
-0.18538071
-0.87675214
0.88137128
-0.18715782
-0.91858098
0.92273905
-0.18822444
-0.96264939
0.96622504
-0.18849772
-1.0091691
1.0120072
-0.18789458
-1.0584217
1.0603333
-0.18633521
-1.1107578
1.1115309
-0.18377569
-1.1666015
1.166014
-0.18022575
-1.2264033
1.2242429
-0.17570234
-1.2904704
1.2865615
-0.17033348
-1.3588572
1.3531863
-0.16421456
-1.431091
1.4237449
-0.15732147
-1.5060687
1.4971986
-0.14942624
-1.5822005
1.5720083
-0.14031375
-1.6580746
1.6468102
-0.12997489
-1.7307334
1.7183867
-0.11749334
-1.7985026
1.7850396
-0.10243674
-1.8581628
1.8430603
-0.084521691
-1.9133218
1.8955541
-0.061701314
-1.9720291
1.9485493
-0.033300133
-2.0511042
2.0220093
-2.1516822
2.1158036
-0.00062853124
-0.050733696
-0.0015298004
-0.064535309
-0.0024513255
-0.062973667
-0.0034365299
-0.068760551
-0.0044291292
-0.070393566
-0.005503131
-0.074678234
-0.0065918437
-0.077622631
-0.0077637612
-0.081621423
-0.0089609843
-0.085273841
-0.010234615
-0.08938521
-0.011551842
-0.093543122
-0.012938049
-0.097960719
-0.014382764
-0.10255533
-0.015895343
-0.10737193
-0.017475853
-0.11240776
-0.019128503
-0.11767584
-0.020855402
-0.12318642
-0.022660319
-0.12894945
-0.02454638
-0.13497684
-0.026517122
-0.1412796
-0.028576083
-0.14787042
-0.030726432
-0.1547618
-0.032972118
-0.16196686
-0.035316711
-0.16949988
-0.037764814
-0.17737466
-0.04031905
-0.18560749
-0.042983857
-0.19421313
-0.045762726
-0.20320938
-0.048659604
-0.21261309
-0.051677728
-0.22244332
-0.054820751
-0.23271909
-0.058091547
-0.24346135
-0.061492843
-0.25469234
-0.065026987
-0.26643405
-0.068695584
-0.27871198
-0.072500019
-0.29155123
-0.076440272
-0.30497966
-0.080516466
-0.31902553
-0.084726225
-0.33372006
-0.089067118
-0.34909549
-0.09353509
-0.36518599
-0.098124113
-0.38202803
-0.10282631
-0.39966036
-0.10763245
-0.41812308
-0.11253051
-0.4374604
-0.11750609
-0.45771757
-0.12254214
-0.47894372
-0.12761805
-0.50119061
-0.13271035
-0.52451358
-0.13779201
-0.54897088
-0.14283181
-0.57462475
-0.14779449
-0.60154185
-0.15264031
-0.62979293
-0.15732528
-0.65945363
-0.16180066
-0.69060552
-0.1660128
-0.72333745
-0.16990356
-0.75774392
-0.17341007
-0.79392813
-0.17646484
-0.83200478
-0.17899657
-0.87210274
-0.18092898
-0.91437449
-0.1821821
-0.95900806
-0.18267479
-1.0062482
-0.18233217
-1.0563987
-0.1810902
-1.1098264
-0.17892696
-1.1669626
-0.17587198
-1.2282241
-0.17201248
-1.293852
-0.16749842
-1.3637654
-0.16245133
-1.4373819
-0.15686988
-1.5135437
-0.15055829
-1.5906338
-0.14338943
-1.6670172
-0.13508815
-1.740704
-0.1248676
-1.8092274
-0.11233796
-1.8706227
-0.096935686
-1.9285568
-0.077277215
-1.9923143
-0.05200655
-2.0769751
-2.1836297
-0.0005701303
-0.050162502
-0.0014147342
-0.063686609
-0.0022468019
-0.062139034
-0.0031752734
-0.067828188
-0.0040890612
-0.069476516
-0.0050954465
-0.073667789
-0.0061027694
-0.076611302
-0.0071969682
-0.080522259
-0.0083099938
-0.084155838
-0.0094975786
-0.088191991
-0.010725726
-0.092308921
-0.012019174
-0.09666056
-0.013368618
-0.10119856
-0.01478247
-0.10595001
-0.0162613
-0.11092007
-0.01780868
-0.11611871
-0.019427873
-0.12155647
-0.021121767
-0.12724369
-0.022894539
-0.13319094
-0.024748936
-0.13941067
-0.026689331
-0.14591388
-0.028719158
-0.15271402
-0.030842139
-0.15982386
-0.033062941
-0.16725672
-0.035384611
-0.17502795
-0.037812176
-0.18315182
-0.040348785
-0.19164492
-0.042999223
-0.20052334
-0.045766648
-0.20980545
-0.048655815
-0.21950868
-0.051669304
-0.22965405
-0.054810889
-0.24026126
-0.058083691
-0.25135302
-0.061489603
-0.2629524
-0.065031279
-0.27508394
-0.068709779
-0.28777414
-0.072526028
-0.30105074
-0.076478986
-0.31494372
-0.080567843
-0.32948378
-0.084789924
-0.34470468
-0.089140881
-0.36064189
-0.093615593
-0.37733221
-0.098207142
-0.3948157
-0.10290589
-0.4131346
-0.10770099
-0.43233373
-0.11257877
-0.45246042
-0.11752346
-0.47356517
-0.12251556
-0.49570264
-0.12753389
-0.51892898
-0.13255298
-0.5433059
-0.13754354
-0.56889851
-0.14247374
-0.5957752
-0.14730646
-0.62401126
-0.1520006
-0.65368578
-0.15651039
-0.68488488
-0.16078493
-0.71770284
-0.16476853
-0.75224006
-0.16839954
-0.78860893
-0.17161336
-0.82693368
-0.17433885
-0.86736008
-0.17650173
-0.91005819
-0.17802483
-0.95524069
-0.1788313
-1.0031783
-0.1788518
-1.0541905
-0.17804224
-1.108658
-0.1764007
-1.1670036
-0.17399692
-1.2295871
-0.17096235
-1.2965674
-0.16747088
-1.3677437
-0.163664
-1.4424307
-0.15953737
-1.5194396
-0.15495737
-1.597141
-0.14986992
-1.6738813
-0.14369125
-1.7483409
-0.13581049
-1.8173176
-0.12582127
-1.8804199
-0.11308903
-1.9410867
-0.096512616
-2.0094831
-0.07452959
-2.0996117
-2.2117291
-0.00051666653
-0.049647139
-0.0013018798
-0.062900046
-0.0020641495
-0.061377374
-0.0029421165
-0.066949241
-0.0037853445
-0.068633006
-0.0047276173
-0.072724559
-0.0056586514
-0.075679604
-0.0066803243
-0.079499249
-0.0077141517
-0.08312073
-0.0088216925
-0.087082733
-0.009966712
-0.091161942
-0.011173944
-0.095450914
-0.012435119
-0.099934536
-0.013757567
-0.10462418
-0.015142874
-0.10953077
-0.016594797
-0.1146621
-0.018116579
-0.1200292
-0.019711579
-0.12564228
-0.021383209
-0.13151183
-0.023135796
-0.13764938
-0.024972411
-0.14406713
-0.026898061
-0.15077659
-0.028916512
-0.15779171
-0.03103161
-0.1651257
-0.03324831
-0.17279275
-0.035570331
-0.18080832
-0.038002412
-0.18918789
-0.040548559
-0.19794822
-0.043213817
-0.20710657
-0.046001058
-0.21668241
-0.04891486
-0.22669497
-0.051958949
-0.23716465
-0.055136244
-0.24811482
-0.058449749
-0.25956829
-0.061901827
-0.27155005
-0.065493712
-0.28408751
-0.06922619
-0.29720862
-0.073099523
-0.31094363
-0.077112105
-0.32532482
-0.081261707
-0.34038625
-0.085545066
-0.35616406
-0.089956375
-0.37269718
-0.094489194
-0.39002584
-0.099134926
-0.40819396
-0.10388274
-0.427248
-0.10872051
-0.44723603
-0.11363206
-0.46821196
-0.11860112
-0.49022989
-0.12360653
-0.51335023
-0.1286252
-0.53763594
-0.13363081
-0.56315474
-0.13859273
-0.58997876
-0.14347727
-0.61818579
-0.14824653
-0.64785877
-0.15285664
-0.67908966
-0.15726045
-0.71197607
-0.16140398
-0.74662637
-0.16522912
-0.78316092
-0.16867325
-0.8217158
-0.17166801
-0.86245304
-0.17414125
-0.90556187
-0.17602079
-0.95127559
-0.17723535
-0.99988093
-0.17772547
-1.0517081
-0.1774682
-1.1071477
-0.17649372
-1.1665896
-0.17489874
-1.2303369
-0.17286042
-1.2984372
-0.17057534
-1.370593
-0.16819691
-1.4460342
-0.16573224
-1.5235491
-0.16303369
-1.6015289
-0.16007024
-1.6785361
-0.15612065
-1.7534513
-0.15065963
-1.8228123
-0.14325629
-1.887524
-0.13329185
-1.9508106
-0.11984606
-2.0235472
-0.10139382
-2.118716
-2.2358574
-0.00046040987
-0.049189672
-0.0011968489
-0.062164151
-0.0018791733
-0.060697074
-0.0027077532
-0.066121746
-0.0034905627
-0.067852066
-0.004373953
-0.071842425
-0.0052344446
-0.074820828
-0.0061899489
-0.078545009
-0.0071517547
-0.082160269
-0.0081853748
-0.086050166
-0.0092549009
-0.090093344
-0.010383669
-0.094322755
-0.011565728
-0.098752783
-0.012807373
-0.10338244
-0.014111029
-0.10822655
-0.015479846
-0.11329216
-0.016917599
-0.11858965
-0.018428074
-0.12412924
-0.020014918
-0.12992149
-0.021682112
-0.13597759
-0.023434276
-0.14230907
-0.025274632
-0.14892882
-0.027208543
-0.15584857
-0.029240423
-0.16308248
-0.031374552
-0.17064478
-0.033615964
-0.17855015
-0.035969549
-0.18681411
-0.038439895
-0.19545367
-0.041031496
-0.20448608
-0.043749076
-0.21393048
-0.046596932
-0.2238064
-0.04957887
-0.23413458
-0.052698457
-0.24493849
-0.055959141
-0.25624086
-0.059362998
-0.26806787
-0.062911862
-0.28044694
-0.066606776
-0.29340662
-0.070447937
-0.3069777
-0.074434093
-0.32119365
-0.078563295
-0.33608891
-0.082831743
-0.35170109
-0.087235059
-0.36806933
-0.091766209
-0.38523607
-0.096417182
-0.40324575
-0.10117854
-0.42214579
-0.10603758
-0.44198699
-0.1109806
-0.46282378
-0.1159911
-0.48471253
-0.12105004
-0.50771568
-0.12613648
-0.53189761
-0.13122532
-0.55732978
-0.13628916
-0.58408627
-0.14129644
-0.61224877
-0.14621154
-0.64190402
-0.15099476
-0.6731479
-0.1556006
-0.70608407
-0.15997818
-0.74082814
-0.16407353
-0.7775087
-0.167827
-0.81627535
-0.17117481
-0.85730421
-0.1740487
-0.90080412
-0.1763826
-0.94702281
-0.17811303
-0.99625436
-0.17919883
-1.0488405
-0.1796384
-1.1051636
-0.17949012
-1.1655715
-0.17889574
-1.2302849
-0.17805069
-1.2992599
-0.17718066
-1.372087
-0.1764272
-1.4479604
-0.1758046
-1.5256305
-0.17514841
-1.6034855
-0.17438479
-1.6807094
-0.17277444
-1.7556805
-0.16981775
-1.8256344
-0.16506528
-1.8918594
-0.15799081
-1.9576327
-0.14779936
-2.0344031
-0.13315908
-2.1340278
-2.2558963
-0.00040696254
-0.048786653
-0.0010976951
-0.061475194
-0.0017135849
-0.060084569
-0.002485819
-0.065351946
-0.0031965414
-0.067144595
-0.0040281563
-0.071013495
-0.0048292825
-0.074022886
-0.0057234991
-0.077653677
-0.0066224111
-0.081264337
-0.0075904733
-0.085084886
-0.0085958642
-0.089090685
-0.0096586308
-0.093262499
-0.01077525
-0.097638459
-0.011950486
-0.1022092
-0.013187174
-0.10699148
-0.014489149
-0.11199134
-0.015859837
-0.11721956
-0.017303021
-0.12268597
-0.018823084
-0.1284005
-0.020423883
-0.13437486
-0.022110367
-0.14061945
-0.023887192
-0.14714741
-0.025759313
-0.15397014
-0.027731637
-0.16110179
-0.029809542
-0.16855607
-0.031998585
-0.17634743
-0.034303171
-0.18449245
-0.03672926
-0.19300652
-0.03928172
-0.20190787
-0.041965432
-0.21121553
-0.044785401
-0.22094876
-0.047745505
-0.23112933
-0.050850334
-0.24177978
-0.054102218
-0.25292497
-0.05750456
-0.26458978
-0.061059396
-0.27680282
-0.064767403
-0.28959374
-0.068628796
-0.30299356
-0.072643052
-0.31703618
-0.076807799
-0.33175759
-0.081120088
-0.3471956
-0.085574589
-0.36339139
-0.09016573
-0.38038722
-0.094885825
-0.39822923
-0.099724706
-0.41696688
-0.1046715
-0.43665126
-0.10971387
-0.4573378
-0.11483551
-0.47908648
-0.12002006
-0.50195934
-0.12524659
-0.52602497
-0.13049376
-0.55135493
-0.13573543
-0.57802798
-0.14094274
-0.60612851
-0.14608286
-0.63574723
-0.15111842
-0.66698445
-0.15600733
-0.69994951
-0.16070353
-0.73476521
-0.16515544
-0.77157161
-0.16930868
-0.81052845
-0.17310406
-0.8518266
-0.17648085
-0.89568834
-0.17937967
-0.94237197
-0.18175105
-0.9921742
-0.18357514
-1.0454455
-0.18487503
-1.1025408
-0.18574243
-1.1637547
-0.18634712
-1.2292209
-0.18691794
-1.2987908
-0.18766716
-1.3719867
-0.18874557
-1.4479461
-0.19013509
-1.5254405
-0.19172319
-1.6030026
-0.19328878
-1.6802228
-0.19410964
-1.754843
-0.19375944
-1.8257073
-0.19174921
-1.8933411
-0.18769704
-1.9614623
-0.18095081
-2.0418463
-0.17045108
-2.1454029
-2.2716907
-0.00036510467
-0.048425988
-0.0010226944
-0.060820042
-0.0015802925
-0.059531005
-0.0023030464
-0.06463228
-0.0029435317
-0.066508011
-0.0037292487
-0.07023124
-0.0044685269
-0.073287537
-0.0053055092
-0.076820417
-0.0061549174
-0.080418786
-0.0070738004
-0.084169725
-0.0080312358
-0.088136974
-0.0090430743
-0.09225423
-0.010108702
-0.096576243
-0.011231976
-0.10108909
-0.012416798
-0.10580951
-0.013666501
-0.11074409
-0.014985823
-0.11590217
-0.01637873
-0.12129435
-0.017849902
-0.12692983
-0.019404621
-0.13281969
-0.02104735
-0.1389751
-0.022784172
-0.14540756
-0.02462014
-0.15212946
-0.026560773
-0.15915443
-0.028612232
-0.16649548
-0.030779919
-0.17416776
-0.033070459
-0.18218656
-0.035489078
-0.19056858
-0.038041111
-0.19933183
-0.040732709
-0.20849444
-0.043568309
-0.21807726
-0.04655283
-0.22810141
-0.049690149
-0.23859035
-0.052984449
-0.24956845
-0.056437654
-0.26106267
-0.060052122
-0.27310096
-0.063829421
-0.28571355
-0.067769395
-0.29893293
-0.071871005
-0.31279358
-0.076132355
-0.32733205
-0.080550431
-0.34258695
-0.085120507
-0.35860079
-0.089837017
-0.3754163
-0.094692177
-0.39308146
-0.099677804
-0.41164575
-0.10478335
-0.43116224
-0.10999654
-0.45168771
-0.11530418
-0.4732827
-0.12068957
-0.49601245
-0.12613542
-0.51994577
-0.13162052
-0.54515791
-0.1371219
-0.5717294
-0.14261352
-0.59974807
-0.14806479
-0.6293096
-0.1534419
-0.66051785
-0.15870623
-0.69348886
-0.16381569
-0.72835319
-0.16872357
-0.76526012
-0.17338019
-0.80437997
-0.17773407
-0.84591593
-0.18173125
-0.8900982
-0.18532335
-0.93719067
-0.18848136
-0.98749529
-0.19120839
-1.0413517
-0.19355638
-1.099079
-0.19564758
-1.1609109
-0.19767755
-1.2268896
-0.19989093
-1.2967653
-0.20250919
-1.3700037
-0.20562836
-1.4457391
-0.20922171
-1.5227857
-0.21322392
-1.6000035
-0.217249
-1.6769644
-0.22065808
-1.7512013
-0.22300757
-1.8228788
-0.22386115
-1.8918615
-0.22301542
-1.9621431
-0.21997201
-2.0456693
-0.21390377
-2.1526236
-2.2829211
-0.00032622538
-0.048104353
-0.00095874647
-0.060190244
-0.0014658928
-0.059028069
-0.0021420074
-0.06395955
-0.0027331144
-0.065921041
-0.0034665945
-0.069501529
-0.0041661831
-0.072592144
-0.0049795377
-0.076011098
-0.0057918752
-0.079610673
-0.0066679776
-0.083297751
-0.0075850311
-0.08722406
-0.0085545711
-0.091288701
-0.0095791146
-0.095555564
-0.010662085
-0.10000976
-0.011807918
-0.10466701
-0.013021164
-0.10953378
-0.014305735
-0.11462003
-0.01566757
-0.11993432
-0.017111428
-0.125487
-0.018642905
-0.13128829
-0.020267752
-0.13734917
-0.021991866
-0.14368096
-0.023821436
-0.15029572
-0.025763577
-0.1572061
-0.027823582
-0.1644269
-0.030008756
-0.17197116
-0.032324996
-0.17985553
-0.034778849
-0.18809598
-0.037376474
-0.19671082
-0.040123487
-0.20571859
-0.043025084
-0.21514046
-0.046086352
-0.22499754
-0.049311631
-0.23531386
-0.05270401
-0.24611491
-0.056266594
-0.25742743
-0.060001531
-0.26928014
-0.06390938
-0.28170463
-0.067990491
-0.29473334
-0.072243946
-0.30840177
-0.076667664
-0.32274732
-0.081258392
-0.33780945
-0.08601254
-0.35363068
-0.090923868
-0.37025607
-0.095986053
-0.38773331
-0.10119116
-0.40611315
-0.10652967
-0.42544991
-0.11199092
-0.44580116
-0.11756263
-0.46722878
-0.1232305
-0.48979971
-0.1289784
-0.51358433
-0.13478825
-0.53865965
-0.14063875
-0.56510955
-0.14650657
-0.5930246
-0.15236456
-0.6225055
-0.15818244
-0.65366044
-0.16392657
-0.68661107
-0.16955841
-0.72149631
-0.17503639
-0.7584706
-0.1803178
-0.7977178
-0.18535761
-0.8394488
-0.1901126
-0.88389534
-0.19455019
-0.93132637
-0.19866443
-0.98204324
-0.20248485
-1.036356
-0.20609364
-1.0945451
-0.20964054
-1.1567768
-0.21333981
-1.2230054
-0.21743407
-1.2928934
-0.22214578
-1.3658466
-0.22755799
-1.4410403
-0.23358639
-1.517371
-0.2401679
-1.5941424
-0.2467787
-1.6704664
-0.25292022
-1.7446483
-0.25813023
-1.8169808
-0.26202784
-1.8872381
-0.26459032
-1.9594618
-0.26554209
-2.0454933
-0.26421156
-2.155386
-2.2892187
-0.00028501405
-0.047823864
-0.00089612959
-0.059581893
-0.0013577487
-0.058570627
-0.0019983402
-0.063322323
-0.0025628364
-0.065360713
-0.0032894749
-0.06877867
-0.0039675091
-0.071918362
-0.0047467862
-0.075235912
-0.0055282517
-0.078833425
-0.0063682589
-0.082461848
-0.0072545262
-0.086341882
-0.0081937827
-0.090353398
-0.009190898
-0.094562235
-0.010249263
-0.09895493
-0.011373922
-0.10354557
-0.012569651
-0.10834085
-0.01384207
-0.11334989
-0.015196521
-0.11858149
-0.016638951
-0.12404539
-0.018176063
-0.12975101
-0.019813815
-0.13571007
-0.02155966
-0.14193234
-0.023419872
-0.14843102
-0.02540174
-0.15521773
-0.02751273
-0.16230699
-0.02975946
-0.16971267
-0.03214928
-0.17745059
-0.0346888
-0.18553741
-0.037384138
-0.19399182
-0.040241689
-0.202832
-0.043267006
-0.21207986
-0.046464483
-0.22175751
-0.049838209
-0.23188919
-0.053392018
-0.24250046
-0.057128409
-0.25361924
-0.061048717
-0.26527522
-0.065154146
-0.27749989
-0.069444557
-0.29032681
-0.073918624
-0.3037924
-0.078574656
-0.31793415
-0.083409422
-0.33279279
-0.088418851
-0.34841136
-0.093598365
-0.36483512
-0.098942365
-0.38211247
-0.1044435
-0.40029561
-0.11009389
-0.41943906
-0.11588412
-0.43960164
-0.12180363
-0.46084608
-0.12784041
-0.48324059
-0.13398011
-0.50685774
-0.14020719
-0.53177568
-0.14650368
-0.55808097
-0.15284893
-0.58586769
-0.15922009
-0.61524055
-0.16559044
-0.64631391
-0.17193133
-0.67921277
-0.1782095
-0.7140821
-0.18438864
-0.75108237
-0.19043486
-0.79041284
-0.19630963
-0.83228012
-0.20198398
-0.87692164
-0.20744572
-0.92460543
-0.21271131
-0.97561507
-0.21784129
-1.030228
-0.22294964
-1.0886773
-0.22820537
-1.1510649
-0.2338421
-1.2172559
-0.24010588
-1.2868392
-0.24716273
-1.3592167
-0.25505159
-1.4336182
-0.26374918
-1.5091014
-0.27307044
-1.5851927
-0.28242419
-1.6605473
-0.29150119
-1.7349068
-0.29976819
-1.8077697
-0.306932
-1.8792153
-0.31309684
-1.9530962
-0.3183855
-2.0407744
-0.32216731
-2.1531786
-2.2902335
-0.00024709157
-0.047581022
-0.00084436198
-0.058987211
-0.0012754832
-0.058143426
-0.0019189531
-0.062682037
-0.0024691576
-0.064814442
-0.0031856279
-0.068065658
-0.0038379437
-0.071269866
-0.0045812162
-0.074496353
-0.0053447705
-0.078073695
-0.006165051
-0.081645265
-0.0070373881
-0.085473187
-0.0079645433
-0.089429722
-0.0089535856
-0.093576471
-0.010008374
-0.097903136
-0.01113462
-0.10242196
-0.012338023
-0.10713962
-0.013624776
-0.11206474
-0.015001509
-0.11720566
-0.016474968
-0.12257199
-0.018051805
-0.1281732
-0.019740624
-0.13401904
-0.021547807
-0.14012148
-0.023482197
-0.14649122
-0.025551002
-0.15314144
-0.027761982
-0.16008609
-0.030123119
-0.16733876
-0.032641667
-0.17491593
-0.03532437
-0.18283469
-0.03817835
-0.19111328
-0.04120918
-0.19977134
-0.044421939
-0.20883117
-0.047821628
-0.21831485
-0.051411848
-0.22824787
-0.055195774
-0.2386561
-0.059175434
-0.24956842
-0.063352121
-0.26101508
-0.067726252
-0.27302824
-0.072297367
-0.28564213
-0.077064685
-0.29889325
-0.082025913
-0.31282034
-0.087178538
-0.3274641
-0.092519371
-0.34286799
-0.09804434
-0.35907788
-0.10374823
-0.37614303
-0.10962594
-0.39411524
-0.11567117
-0.41304995
-0.12187614
-0.43300721
-0.1282325
-0.45405013
-0.13473049
-0.47624824
-0.14135908
-0.49967552
-0.14810479
-0.52441275
-0.15495373
-0.55054733
-0.16188854
-0.57817706
-0.16889015
-0.60740967
-0.1759373
-0.63836566
-0.18300595
-0.67117325
-0.19007101
-0.70598141
-0.19709974
-0.74296123
-0.20407082
-0.78231537
-0.21095504
-0.82424577
-0.21773944
-0.86899684
-0.22443128
-0.91682363
-0.23107286
-0.96798161
-0.23775762
-1.0227101
-0.24462717
-1.0811946
-0.25186684
-1.1434748
-0.25970952
-1.2093365
-0.26838602
-1.2783183
-0.2780414
-1.3498341
-0.28869426
-1.4232227
-0.30027484
-1.4977516
-0.3124584
-1.5728393
-0.32483808
-1.6474806
-0.337039
-1.7217277
-0.34861656
-1.7950019
-0.3593038
-1.8674666
-0.36929882
-1.9426323
-0.37923123
-2.0312066
-0.38865479
-2.1452652
-2.2854562
-0.00021235533
-0.047372466
-0.00080707137
-0.058394718
-0.0012162863
-0.057737689
-0.0018929935
-0.062008127
-0.0024255071
-0.064285318
-0.0031131073
-0.067381107
-0.0037529455
-0.070633335
-0.0044875646
-0.073764847
-0.0052507926
-0.077313655
-0.0060680348
-0.080831058
-0.0069443963
-0.084599754
-0.0078800111
-0.088496833
-0.0088833335
-0.092575624
-0.0099591249
-0.096829485
-0.011114024
-0.10126879
-0.012354698
-0.10590015
-0.013688296
-0.11073172
-0.015122116
-0.11577166
-0.016664594
-0.12102841
-0.018323637
-0.12651197
-0.02010753
-0.13223167
-0.022025196
-0.13819881
-0.024084791
-0.14442482
-0.02629502
-0.15092229
-0.028664598
-0.15770514
-0.031200855
-0.16478826
-0.033911541
-0.17218768
-0.036803776
-0.17992104
-0.039884073
-0.18800712
-0.043157278
-0.19646714
-0.04662934
-0.20532219
-0.050303417
-0.21459707
-0.054183432
-0.22431637
-0.058271041
-0.23450807
-0.062567704
-0.24520113
-0.067074704
-0.25642578
-0.071791989
-0.26821535
-0.076718754
-0.28060462
-0.081854022
-0.29363003
-0.087196455
-0.3073305
-0.092743945
-0.32174726
-0.098494135
-0.33692378
-0.10444394
-0.35290643
-0.11059053
-0.36974398
-0.11693005
-0.38748902
-0.1234578
-0.40619762
-0.13016937
-0.42592932
-0.13705817
-0.4467494
-0.14411799
-0.4687271
-0.15134066
-0.49193868
-0.15871712
-0.51646638
-0.16623581
-0.54240048
-0.17388429
-0.56983907
-0.18164702
-0.59889183
-0.18951073
-0.62968551
-0.19745749
-0.66235273
-0.20545958
-0.69704452
-0.2135167
-0.73395902
-0.22159234
-0.77325393
-0.22968543
-0.8151612
-0.2377984
-0.85991333
-0.24595774
-0.9077458
-0.25423316
-0.95888334
-0.26274474
-1.0135237
-0.27166085
-1.0718034
-0.28118929
-1.1336939
-0.2915251
-1.1989327
-0.3028902
-1.2670279
-0.31541789
-1.3374233
-0.32904782
-1.4095745
-0.34370349
-1.4829648
-0.35897872
-1.5567929
-0.37461137
-1.6308761
-0.39021872
-1.7048626
-0.40540627
-1.778404
-0.41994518
-1.8516332
-0.43409716
-1.9276836
-0.44891605
-2.0165303
-0.46453805
-2.1309368
-2.2741765
-0.00018725613
-0.047188436
-0.00079626102
-0.05778744
-0.001196572
-0.057340257
-0.001875982
-0.06133103
-0.0023967469
-0.063767261
-0.0030887692
-0.066691456
-0.0037419054
-0.069982804
-0.004480333
-0.073028805
-0.0052615782
-0.076534806
-0.0060965291
-0.079998316
-0.0069986461
-0.083699682
-0.0079670637
-0.087530204
-0.009011299
-0.091532868
-0.01013735
-0.095704516
-0.011352915
-0.10005382
-0.012665862
-0.10458722
-0.014084662
-0.10931224
-0.01561817
-0.11423662
-0.017275081
-0.11936899
-0.019065408
-0.12471796
-0.020998044
-0.130294
-0.023082732
-0.13610749
-0.025328383
-0.14217069
-0.027744158
-0.14849589
-0.030338628
-0.15509757
-0.033119842
-0.16199108
-0.036094751
-0.16919351
-0.039270331
-0.17672241
-0.042651772
-0.18459828
-0.046244664
-0.19284188
-0.050052233
-0.20147658
-0.054077843
-0.21052691
-0.058323811
-0.22001844
-0.062791455
-0.22998001
-0.067481723
-0.2404408
-0.072395017
-0.25143147
-0.077530873
-0.26298601
-0.082889248
-0.27513863
-0.08846919
-0.28792651
-0.094270114
-0.30138798
-0.10029113
-0.31556441
-0.10653129
-0.33049912
-0.11298984
-0.3462381
-0.11966544
-0.36283055
-0.12655653
-0.38032907
-0.13366178
-0.39878938
-0.14097876
-0.41827205
-0.14850483
-0.43884264
-0.15623641
-0.46057159
-0.16416954
-0.48353608
-0.1722987
-0.5078204
-0.18061756
-0.5335159
-0.18911867
-0.56072229
-0.19778804
-0.58955197
-0.20662857
-0.62012908
-0.21560845
-0.65259723
-0.22475015
-0.68713773
-0.23400936
-0.72387922
-0.24340137
-0.76303276
-0.25292835
-0.80481181
-0.26261168
-0.84943242
-0.27250552
-0.89710998
-0.28270227
-0.94803838
-0.29334171
-1.0023725
-0.30461008
-1.0601958
-0.31672791
-1.1214077
-0.32985496
-1.1857642
-0.3441929
-1.2527026
-0.35982164
-1.3217406
-0.37667246
-1.3925112
-0.39460518
-1.4645496
-0.41327794
-1.5372364
-0.43242018
-1.6105183
-0.45173653
-1.6840874
-0.47089642
-1.7576964
-0.48967485
-1.8313941
-0.50833603
-1.9079458
-0.528291
-1.9964065
-0.55058521
-2.1097621
-2.2555084
-0.00016939654
-0.047021687
-0.00080771194
-0.057150368
-0.0012163283
-0.056933927
-0.0018968951
-0.060652075
-0.0024269974
-0.063239221
-0.0031319781
-0.065988168
-0.0038129512
-0.069303673
-0.0045726851
-0.072270666
-0.0053914585
-0.075717563
-0.0062673388
-0.079123737
-0.0072198249
-0.082748264
-0.0082488359
-0.086501943
-0.0093647035
-0.090417374
-0.010575145
-0.094493977
-0.011889268
-0.098739053
-0.013316461
-0.10315871
-0.01486659
-0.10776002
-0.016549877
-0.11255032
-0.01837676
-0.11753803
-0.020357325
-0.12273208
-0.022502185
-0.12814239
-0.024821115
-0.13378015
-0.027323506
-0.13965799
-0.030018697
-0.14578822
-0.032914598
-0.15218669
-0.036018538
-0.15886931
-0.039337708
-0.16585327
-0.042876783
-0.17315856
-0.046640692
-0.1808054
-0.050632855
-0.18881596
-0.054856004
-0.19721424
-0.059312264
-0.20602529
-0.064001839
-0.2152765
-0.068926569
-0.22499497
-0.074086209
-0.23521184
-0.079480737
-0.24595741
-0.085110787
-0.2572649
-0.090976016
-0.26916932
-0.09707765
-0.28170613
-0.10341607
-0.29491436
-0.10999207
-0.30883481
-0.1168068
-0.32351029
-0.12386198
-0.33898609
-0.13115884
-0.35531177
-0.13869897
-0.37253948
-0.14648397
-0.3907249
-0.15451486
-0.40992924
-0.1627925
-0.43021838
-0.17131781
-0.4516631
-0.18009077
-0.47434211
-0.18911099
-0.49834043
-0.19837464
-0.52375258
-0.20788242
-0.55067936
-0.2176329
-0.57923264
-0.2276088
-0.60953281
-0.2378438
-0.64175853
-0.24829241
-0.67602667
-0.25898446
-0.71251988
-0.26992382
-0.75142951
-0.28113075
-0.79295153
-0.29265384
-0.83728938
-0.30457047
-0.88463385
-0.31699367
-0.93514733
-0.33007933
-0.98894386
-0.34401681
-1.0460458
-0.35896704
-1.1063745
-0.37520414
-1.1695293
-0.39285916
-1.2350297
-0.41185997
-1.3025943
-0.43218077
-1.3718482
-0.45364562
-1.442383
-0.47597582
-1.5138844
-0.49894899
-1.5862302
-0.52231171
-1.6592383
-0.54582064
-1.7326579
-0.56927948
-1.8065013
-0.59285855
-1.8831515
-0.61827445
-1.970646
-0.64772164
-2.0816487
-2.2287454
-0.00015434414
-0.046869381
-0.00083383332
-0.05647161
-0.0012556874
-0.056513731
-0.0019635197
-0.059945249
-0.0025224716
-0.062681611
-0.0032534543
-0.065258144
-0.0039827564
-0.068575409
-0.0047841665
-0.071470016
-0.0056626999
-0.074839653
-0.0066061488
-0.078180631
-0.0076380435
-0.081716412
-0.0087605143
-0.085379128
-0.0099850286
-0.089192067
-0.011321452
-0.093156214
-0.012780508
-0.097278028
-0.014373426
-0.10156307
-0.016111559
-0.10601831
-0.018006356
-0.11065095
-0.020069214
-0.11546946
-0.022311198
-0.12048306
-0.024742716
-0.12570234
-0.027373973
-0.13113866
-0.03021443
-0.13680536
-0.033271801
-0.14271647
-0.03655376
-0.14888787
-0.04006628
-0.15533711
-0.043814123
-0.16208257
-0.047801345
-0.16914489
-0.052030636
-0.17654561
-0.056503684
-0.18430785
-0.061221393
-0.19245631
-0.066184775
-0.20101588
-0.071393976
-0.21001472
-0.076849198
-0.21947976
-0.082551132
-0.22944159
-0.088500372
-0.23993046
-0.094698026
-0.25097898
-0.10114651
-0.26262071
-0.10784715
-0.27489209
-0.11480358
-0.28782973
-0.12201878
-0.30147494
-0.12949765
-0.31586852
-0.13724357
-0.3310572
-0.14526161
-0.34708878
-0.15355729
-0.36401502
-0.16213489
-0.38189285
-0.17099985
-0.40078251
-0.1801574
-0.42075032
-0.18961216
-0.44186821
-0.19936963
-0.46421466
-0.20943438
-0.48787629
-0.2198101
-0.51294733
-0.23049622
-0.53953197
-0.24150754
-0.56774535
-0.25284822
-0.59771624
-0.26450974
-0.62958325
-0.27651476
-0.6635017
-0.2888795
-0.69964225
-0.30162165
-0.738181
-0.31478612
-0.7793036
-0.32844232
-0.82319195
-0.34268762
-0.87000991
-0.35765538
-0.91989035
-0.37350531
-0.97291701
-0.39041527
-1.0290706
-0.40864224
-1.088166
-0.42836624
-1.1498419
-0.44953078
-1.2138208
-0.47215795
-1.2797565
-0.49618798
-1.3473684
-0.52147257
-1.4163632
-0.5477608
-1.4865598
-0.57488896
-1.5578501
-0.60267698
-1.6301162
-0.63094324
-1.7030883
-0.65954271
-1.7767423
-0.68860412
-1.8531462
-0.71984783
-1.939176
-0.7567256
-2.0469121
-2.1932486
-0.00014532439
-0.04672552
-0.00088557125
-0.055731608
-0.0013256321
-0.056074696
-0.0020751106
-0.059196156
-0.0026823129
-0.062075052
-0.0034574013
-0.064483304
-0.0042578556
-0.067775194
-0.0051258979
-0.070601904
-0.0060900816
-0.073875181
-0.0071327463
-0.077137343
-0.0082796243
-0.080568537
-0.0095364853
-0.084120813
-0.01091638
-0.087810195
-0.012431312
-0.091638682
-0.014093913
-0.09561212
-0.01591679
-0.099736059
-0.017912599
-0.10401743
-0.020093571
-0.10846383
-0.022471636
-0.11308403
-0.025057929
-0.11788802
-0.027862912
-0.12288706
-0.0308956
-0.12809392
-0.034163909
-0.13352304
-0.037674805
-0.13918936
-0.041433046
-0.14511095
-0.045442863
-0.15130586
-0.049706177
-0.15779473
-0.054224679
-0.16459841
-0.058999141
-0.17173931
-0.064029401
-0.17924143
-0.069315678
-0.18712903
-0.074857556
-0.19542757
-0.080655744
-0.20416401
-0.086710754
-0.21336542
-0.093024545
-0.22306083
-0.099598897
-0.23328059
-0.10643764
-0.24405516
-0.11354425
-0.25541839
-0.12092466
-0.26740413
-0.12858386
-0.28004986
-0.13652966
-0.29339402
-0.14476817
-0.30747899
-0.15330809
-0.32234894
-0.16215812
-0.33805168
-0.17132662
-0.35463939
-0.18082297
-0.37216819
-0.19065666
-0.39069842
-0.20083728
-0.41029673
-0.21137489
-0.431035
-0.22227925