/*--------------------------------*- C++ -*----------------------------------*\
  =========                 |
  \\      /  F ield         | OpenFOAM: The Open Source CFD Toolbox
   \\    /   O peration     | Website:  https://openfoam.org
    \\  /    A nd           | Version:  12
     \\/     M anipulation  |
\*---------------------------------------------------------------------------*/
FoamFile
{
    format      ascii;
    class       volVectorField;
    location    "0.017";
    object      U;
}
// * * * * * * * * * * * * * * * * * * * * * * * * * * * * * * * * * * * * * //

dimensions      [0 1 -1 0 0 0 0];

internalField   nonuniform List<vector> 
16000
(
(218.78706 -3.1426018e-17 -8.6862055)
(257.77002 0 5.6078168)
(243.15358 0 -7.8399461)
(251.20922 4.9564014e-17 3.971907)
(246.27503 -4.8943363e-17 -6.1525157)
(248.59662 0 1.8657869)
(246.73346 0 -4.4453715)
(247.26843 8.3754024e-17 0.017359498)
(246.40308 -7.9573162e-17 -3.2211934)
(246.28162 0 -1.2594512)
(245.75705 7.1899479e-17 -2.5980221)
(245.40631 -2.0483581e-16 -1.9919593)
(244.95722 1.2964522e-16 -2.4433389)
(244.5249 -1.2332445e-16 -2.3729523)
(244.06486 1.1700719e-16 -2.5364116)
(243.59171 -3.4688134e-18 -2.6067193)
(243.10054 -3.2952331e-18 -2.7102122)
(242.59224 -9.7298263e-17 -2.802728)
(242.06624 1.906232e-16 -2.8973375)
(241.52239 -9.0443196e-17 -2.989976)
(240.96053 1.7203864e-16 -3.0810814)
(240.38054 -1.6307827e-16 -3.169996)
(239.78243 0 -3.2562681)
(239.16625 1.5180204e-16 -3.3393683)
(238.53216 -4.1062811e-18 -3.418764)
(237.88042 -2.649554e-16 -3.4938977)
(237.2114 1.2558265e-16 -3.5642084)
(236.5256 0 -3.6291304)
(235.82367 0 -3.688104)
(235.10639 2.1810686e-16 -3.7405912)
(234.37466 -2.0322836e-16 -3.7860784)
(233.62956 0 -3.8241014)
(232.87227 0 -3.8542463)
(232.1041 0 -3.8761815)
(231.32645 5.1252849e-18 -3.8896651)
(230.5408 1.5562423e-16 -3.8945712)
(229.74868 -1.4247124e-16 -3.8909058)
(228.95164 -1.3954327e-16 -3.8788303)
(228.15124 1.235671e-16 -3.8586741)
(227.349 0 -3.8309621)
(226.54638 -1.1827944e-16 -3.7964242)
(225.7448 1.1164591e-16 -3.7560225)
(224.94558 -2.116263e-16 -3.7109653)
(224.14996 1.9966449e-16 -3.6627308)
(223.35908 -1.9505292e-16 -3.613083)
(222.57398 3.5714021e-16 -3.5640883)
(221.7956 5.6400571e-18 -3.5181271)
(221.02477 3.4992227e-19 -3.4778991)
(220.26222 -1.5038648e-16 -3.4464147)
(219.50858 1.4233337e-16 -3.426978)
(218.76444 -1.2569597e-16 -3.4231517)
(218.03031 0 -3.4387099)
(217.30668 7.4767769e-18 -3.4775713)
(216.59403 0 -3.5437071)
(215.89281 6.659823e-18 -3.6410238)
(215.20344 2.0762147e-16 -3.7732238)
(214.52638 -3.7948756e-16 -3.9436484)
(213.86215 1.0714173e-17 -4.1551213)
(213.2116 1.6871051e-16 -4.4098136)
(212.57644 -1.4967704e-16 -4.7092466)
(211.9601 1.4081878e-16 -5.0545551)
(211.36894 -8.8760473e-18 -5.4469506)
(210.81431 0 -5.8878147)
(210.31497 0 -6.378526)
(209.89773 -1.1208752e-16 -6.9201407)
(209.59621 1.1253138e-16 -7.5071548)
(209.44332 -9.9808767e-17 -8.1197747)
(209.45566 1.9439613e-16 -8.7246215)
(209.62233 -1.8932174e-16 -9.2634066)
(209.88182 8.3718247e-17 -9.6505739)
(210.12205 5.2707914e-18 -9.7948013)
(210.20682 0 -9.672975)
(210.08287 4.715969e-18 -9.2680064)
(209.4113 -4.4760891e-18 -8.4828936)
(208.09242 0 -7.3802595)
(206.06868 -3.3573422e-17 -6.0562348)
(203.48934 6.2509139e-17 -4.6389433)
(200.73722 -3.1910422e-17 -3.5579051)
(199.70521 0 -1.7861546)
(199.07372 0 -4.2379017)
(220.33315 0 -11.561764)
(259.56489 -3.7098922e-18 3.5249131)
(244.24127 -1.1946353e-16 -10.826172)
(252.85189 1.1004776e-16 1.8497276)
(247.56118 0 -9.0680978)
(250.11697 1.0126801e-16 -0.33195502)
(248.04382 -1.8702885e-16 -7.2390309)
(248.66778 -1.0506024e-19 -2.3026202)
(247.71006 8.4278381e-17 -5.8544627)
(247.58878 0 -3.6962804)
(247.0224 -1.5223512e-16 -5.1111476)
(246.64157 1.4890416e-16 -4.4715283)
(246.15957 1.4162562e-16 -4.906159)
(245.69177 -2.607119e-16 -4.8355146)
(245.1962 1.1985084e-16 -4.9761262)
(244.6856 1.1015912e-17 -5.0372856)
(244.15598 1.1522118e-16 -5.1228664)
(243.60789 -1.0261959e-16 -5.1994711)
(243.0409 0 -5.2757793)
(242.45485 0 -5.3490927)
(241.84964 5.6591391e-18 -5.4193491)
(241.22524 -1.7764018e-16 -5.4859012)
(240.58172 3.3684295e-16 -5.5481762)
(239.91927 -3.1476992e-16 -5.6055597)
(239.23817 1.4228273e-16 -5.6574229)
(238.53882 0 -5.703134)
(237.82176 1.2410195e-16 -5.7420532)
(237.08766 -1.3306937e-16 -5.7735617)
(236.33735 0 -5.7970572)
(235.57181 3.511398e-18 -5.8119818)
(234.79215 -1.3333652e-17 -5.8178181)
(233.99966 0 -5.8141263)
(233.19575 0 -5.800538)
(232.38196 -1.7026069e-16 -5.7767962)
(231.55991 3.380855e-16 -5.7427594)
(230.73132 -1.6235635e-16 -5.6984299)
(229.89793 -1.5878176e-16 -5.6439665)
(229.0615 1.453323e-16 -5.5797056)
(228.22376 -1.11954e-16 -5.506172)
(227.3864 -2.9170711e-19 -5.4240989)
(226.551 -2.7540855e-19 -5.3344374)
(225.71906 2.3243002e-16 -5.2383744)
(224.89194 -1.0967012e-16 -5.1373426)
(224.07086 0 -5.0330351)
(223.25692 2.0216889e-16 -4.9274147)
(222.45107 1.1968899e-17 -4.8227226)
(221.65408 -5.0617614e-18 -4.7214803)
(220.86662 -1.6442225e-16 -4.6264883)
(220.08919 0 -4.5408135)
(219.32218 -1.4660144e-16 -4.4677729)
(218.56592 -8.9500865e-18 -4.4109084)
(217.82062 2.6030771e-16 -4.3739569)
(217.08653 -1.3018967e-16 -4.3608091)
(216.36386 0 -4.3754526)
(215.65291 -2.0425172e-17 -4.421899)
(214.95408 -2.1188995e-16 -4.5041041)
(214.26795 3.6243661e-16 -4.6258637)
(213.59545 -2.159635e-16 -4.7906814)
(212.93819 0 -5.0016446)
(212.29911 -1.7180463e-16 -5.2614727)
(211.68324 1.8036773e-16 -5.5728045)
(211.09895 2.6854791e-17 -5.9384233)
(210.55993 0 -6.3610309)
(210.08639 -1.4302066e-16 -6.8426538)
(209.70524 7.1447221e-18 -7.3825334)
(209.44979 1.1235438e-16 -7.9720348)
(209.34817 -1.9852827e-17 -8.5874631)
(209.40742 9.3432456e-17 -9.1844646)
(209.60452 -1.0531172e-16 -9.6953116)
(209.87181 5.5054132e-18 -10.031886)
(210.09602 -5.1799283e-18 -10.111907)
(210.14877 0 -9.9116214)
(209.93845 -4.6026612e-18 -9.3921743)
(209.16407 4.3507139e-18 -8.5075218)
(207.77384 8.2485115e-18 -7.3407987)
(205.69378 9.8098047e-19 -5.9632266)
(203.07937 0 -4.5492373)
(200.51272 3.0319538e-17 -3.4030825)
(199.5353 -5.7942607e-17 -1.7932785)
(199.07897 2.5945361e-17 -4.1638)
(221.75052 0 -14.519905)
(261.21774 -1.2201821e-16 1.2391494)
(245.3959 2.4916168e-16 -13.904335)
(254.29916 -2.223235e-16 -0.44966493)
(248.74954 1.0984882e-16 -12.067533)
(251.44038 -3.2538064e-18 -2.731348)
(249.23715 9.8989708e-17 -10.085483)
(249.88398 -9.3738883e-17 -4.8314034)
(248.87116 -5.5612125e-18 -8.555921)
(248.72526 -5.2802124e-18 -6.3089233)
(248.12361 -1.0030449e-17 -7.7285974)
(247.70589 1.3847924e-16 -7.0958589)
(247.1879 -1.4036778e-16 -7.4950242)
(246.68079 1.3775794e-16 -7.4306815)
(246.14526 -1.1834027e-16 -7.5473087)
(245.59291 -1.5509803e-17 -7.5987536)
(245.02011 0 -7.6667501)
(244.42738 -2.0680058e-20 -7.7267035)
(243.81436 -2.2558973e-16 -7.7841738)
(243.18096 -3.7116154e-19 -7.8371649)
(242.52717 1.7291972e-16 -7.885295)
(241.85309 1.6982311e-17 -7.9278286)
(241.15894 -2.1485108e-17 -7.9640672)
(240.44503 0 -7.9932899)
(239.71184 1.8013909e-20 -8.0147685)
(238.95997 -1.6494114e-16 -8.0277892)
(238.19016 1.4737371e-16 -8.0316483)
(237.40331 8.2298333e-18 -8.0256783)
(236.60048 0 -8.0092524)
(235.7829 -7.3838956e-18 -7.9818094)
(234.95196 1.2557576e-20 -7.9428578)
(234.1092 -1.9869428e-16 -7.8920091)
(233.25632 2.0011269e-16 -7.8289813)
(232.39513 1.1842736e-17 -7.7536351)
(231.52754 -1.7954245e-16 -7.6659781)
(230.65552 1.4819261e-16 -7.5661959)
(229.78109 -1.8057611e-16 -7.4546578)
(228.90624 1.5136878e-16 -7.3319397)
(228.03292 -1.4335914e-16 -7.1988262)
(227.16298 1.3510123e-16 -7.0563307)
(226.29816 1.5971809e-17 -6.9056985)
(225.44005 0 -6.7484167)
(224.59005 1.9938086e-16 -6.5862197)
(223.7494 -2.4130936e-16 -6.4210932)
(222.91913 0 -6.2552738)
(222.10008 1.7921303e-16 -6.0912491)
(221.29289 -1.57251e-16 -5.9317463)
(220.498 1.6977388e-16 -5.7797239)
(219.71571 -1.7954615e-16 -5.6383521)
(218.94611 0 -5.5109972)
(218.18922 1.7724968e-16 -5.4012018)
(217.44492 -1.3317773e-16 -5.3126664)
(216.7131 0 -5.2492295)
(215.99366 0 -5.2148441)
(215.2866 1.2506866e-16 -5.2135505)
(214.5921 -2.0887935e-16 -5.249455)
(213.91072 1.2261838e-16 -5.3266671)
(213.24359 1.8488842e-16 -5.4491812)
(212.59292 4.865512e-19 -5.6207778)
(211.96264 4.676325e-19 -5.8451507)
(211.35925 -3.2576826e-16 -6.1261656)
(210.79309 8.9806038e-17 -6.4676259)
(210.28006 0 -6.873105)
(209.84152 1.4316628e-16 -7.3449417)
(209.50493 -1.6394541e-16 -7.8803098)
(209.3001 1.1216369e-16 -8.4664756)
(209.24853 1.3358646e-17 -9.0737198)
(209.34981 -8.6181738e-17 -9.6489407)
(209.56834 1.1554408e-17 -10.116577)
(209.82918 2.1670642e-17 -10.38821)
(210.02008 -1.0157611e-16 -10.392734)
(210.00736 9.5433941e-17 -10.100931)
(209.68888 -7.1695576e-17 -9.4616111)
(208.82166 1.3515995e-16 -8.4823619)
(207.35007 -5.5907805e-17 -7.2544452)
(205.22117 -6.0404724e-17 -5.8337967)
(202.61409 5.0244082e-17 -4.4250421)
(200.22052 0 -3.2349709)
(199.37747 3.2214294e-18 -1.793479)
(199.03195 -1.2155744e-17 -4.0712747)
(223.01266 0 -17.554362)
(262.72741 0 -1.1871143)
(246.32862 0 -17.123354)
(255.58618 1.0616471e-16 -2.8563405)
(249.76655 -1.2332009e-16 -15.198942)
(252.60417 -2.1959289e-16 -5.2505697)
(250.25801 2.0886991e-16 -13.053559)
(250.93118 -1.2362128e-17 -7.4908118)
(249.85539 5.894002e-18 -11.372586)
(249.68156 -1.7321113e-16 -9.0574147)
(249.03994 1.6958215e-16 -10.463055)
(248.57996 1.0083696e-17 -9.8512947)
(248.02094 -1.5304244e-16 -10.208025)
(247.46895 1.3594079e-16 -10.152043)
(246.88794 -2.4241321e-20 -10.244367)
(246.28813 -8.1376722e-18 -10.284897)
(245.66649 0 -10.334614)
(245.02349 -7.3641879e-18 -10.376331)
(244.35887 -2.0950305e-16 -10.413165)
(243.67269 2.1154567e-16 -10.443569)
(242.96506 1.2564929e-17 -10.466915)
(242.23624 -1.1912992e-17 -10.482371)
(241.48659 2.145581e-16 -10.489134)
(240.71665 -1.7091281e-16 -10.486391)
(239.9271 1.0141808e-17 -10.473328)
(239.11876 1.9221441e-16 -10.449167)
(238.29263 -1.2716161e-16 -10.413149)
(237.4499 0 -10.36458)
(236.5919 1.469412e-16 -10.302822)
(235.72018 -1.2334995e-16 -10.227337)
(234.83644 2.4863421e-16 -10.137682)
(233.94254 -1.3276399e-17 -10.033558)
(233.04049 -2.0886747e-16 -9.9148071)
(232.13243 1.732543e-16 -9.7814521)
(231.22057 -1.866567e-16 -9.6337009)
(230.30719 -1.2883694e-20 -9.4719756)
(229.39456 2.0872559e-16 -9.2969144)
(228.4849 -3.1502754e-16 -9.1093897)
(227.58037 9.272709e-17 -8.9105095)
(226.68296 3.5102666e-17 -8.7016274)
(225.79453 -4.9654158e-17 -8.4843435)
(224.91671 0 -8.2605046)
(224.05089 -8.8394067e-17 -8.0322011)
(223.19824 1.3845427e-16 -7.8017608)
(222.35968 -2.0913768e-16 -7.5717381)
(221.53588 1.9648942e-16 -7.344904)
(220.72727 -2.085356e-16 -7.124224)
(219.93407 3.9214461e-16 -6.9128417)
(219.15626 -3.0740937e-16 -6.7140588)
(218.39366 3.0836927e-16 -6.5313169)
(217.64593 -1.447458e-16 -6.3681833)
(216.91261 1.3640497e-16 -6.228343)
(216.19323 -9.5835446e-17 -6.1155968)
(215.48736 3.0083238e-17 -6.0338744)
(214.79468 0 -5.9872464)
(214.11518 0 -5.9799426)
(213.44936 0 -6.0163209)
(212.79854 2.333701e-17 -6.100759)
(212.16547 0 -6.2375812)
(211.55492 -1.6459783e-16 -6.4312606)
(210.97467 1.9246566e-16 -6.6865509)
(210.43679 -1.0860564e-16 -7.0078012)
(209.95843 -3.9470001e-19 -7.3989812)
(209.56163 2.5381122e-16 -7.8616448)
(209.27376 3.0025908e-17 -8.3904748)
(209.12052 -1.3896902e-16 -8.9678292)
(209.11692 5.2138512e-17 -9.5568301)
(209.25254 -1.4600821e-16 -10.096857)
(209.48337 -4.5532721e-17 -10.507478)
(209.73134 -6.383924e-17 -10.703277)
(209.88478 -5.9656673e-17 -10.619804)
(209.8136 5.5915546e-17 -10.228652)
(209.39129 0 -9.487868)
(208.45105 0 -8.4300733)
(206.90774 -1.5419252e-17 -7.1429546)
(204.74439 0 -5.691604)
(202.16397 6.8676465e-18 -4.2916821)
(199.92566 5.179623e-17 -3.0738823)
(199.22617 -7.335958e-17 -1.7845579)
(198.95422 6.7740418e-20 -3.9596759)
(224.10769 0 -20.799472)
(264.077 -8.7609333e-18 -3.6975288)
(247.14807 2.6552306e-16 -20.492327)
(256.65237 -2.477463e-16 -5.400674)
(250.593 2.529261e-16 -18.453595)
(253.57301 -2.313331e-16 -7.92522)
(251.09108 -2.2055576e-16 -16.131984)
(251.77551 2.0877762e-16 -10.313673)
(250.63878 0 -14.298529)
(250.42559 0 -11.96323)
(249.7409 1.7893295e-16 -13.319912)
(249.23088 -1.6949245e-16 -12.748727)
(248.62497 -1.0075492e-17 -13.054474)
(248.02175 2.8635082e-17 -13.007061)
(247.38911 -9.0692723e-18 -13.074153)
(246.73584 3.4377757e-17 -13.100885)
(246.05948 0 -13.130201)
(245.36045 0 -13.150599)
(244.63866 -2.3480515e-16 -13.163537)
(243.89425 2.0824271e-16 -13.1677)
(243.1275 0 -13.162281)
(242.33883 0 -13.146359)
(241.52882 -1.8953336e-16 -13.119011)
(240.69824 3.5865086e-16 -13.079335)
(239.84802 -1.6963561e-16 -13.026428)
(238.9793 -2.0109057e-17 -12.959437)
(238.09341 -3.8070514e-17 -12.877558)
(237.19187 -1.4427036e-16 -12.780074)
(236.2764 1.1911054e-16 -12.666362)
(235.34893 0 -12.535929)
(234.41154 -3.0503263e-17 -12.388429)
(233.46649 0 -12.223699)
(232.51616 0 -12.041762)
(231.56305 2.0608351e-16 -11.842873)
(230.6097 -2.1843103e-16 -11.627511)
(229.6587 2.2926563e-17 -11.396407)
(228.71255 -2.163514e-17 -11.150548)
(227.77371 -4.0883362e-17 -10.891182)
(226.84447 -6.416001e-20 -10.619816)
(225.92693 6.2674079e-20 -10.338218)
(225.02296 -6.0679487e-20 -10.048411)
(224.13413 0 -9.7526572)
(223.26176 -1.2152091e-16 -9.4534548)
(222.40686 1.1410789e-16 -9.1535123)
(221.57012 0 -8.8557306)
(220.75196 -5.0602672e-17 -8.563185)
(219.95253 1.9030439e-16 -8.2790932)
(219.17172 -2.2306905e-16 -8.0067974)
(218.40918 -2.10019e-16 -7.7497422)
(217.66438 1.5742938e-16 -7.5114606)
(216.9366 1.1116558e-16 -7.2955628)
(216.22507 -1.386925e-16 -7.1057385)
(215.52894 -3.2544721e-17 -6.9457732)
(214.84746 -2.1396921e-16 -6.8195908)
(214.18006 1.1439221e-16 -6.7312903)
(213.52655 -1.0748068e-16 -6.6851798)
(212.88741 1.0044649e-16 -6.6857762)
(212.26421 2.358063e-16 -6.7377054)
(211.66016 -1.7619086e-16 -6.8456431)
(211.08072 0 -7.0145048)
(210.53478 -3.8622086e-17 -7.249395)
(210.03565 -7.2461444e-17 -7.5548992)
(209.60078 1.3501981e-16 -7.9346733)
(209.25304 1.2656559e-16 -8.3883045)
(209.01792 -2.3616539e-16 -8.9070764)
(208.91678 8.253292e-17 -9.4681598)
(208.95698 5.1439863e-17 -10.027471)
(209.11984 9.5988931e-17 -10.518264)
(209.3553 1.3424795e-16 -10.858603)
(209.58246 9.5406232e-21 -10.968637)
(209.69133 0 -10.787629)
(209.54868 0 -10.294899)
(209.03542 -3.3934624e-17 -9.4655532)
(208.02891 9.5195179e-17 -8.3426345)
(206.42976 -8.9408009e-17 -7.0056548)
(204.24728 -8.3908313e-17 -5.5353864)
(201.70935 5.2671931e-17 -4.1486339)
(199.63099 0 -2.9133807)
(199.06721 4.6379148e-17 -1.7637498)
(198.85482 -1.3139314e-19 -3.8253621)
(225.01131 0 -24.22768)
(265.23361 3.0333922e-20 -6.291232)
(247.77327 9.0341235e-18 -23.965375)
(257.50897 2.8674925e-16 -8.0919735)
(251.14363 3.4229327e-19 -21.825163)
(254.3099 -5.0301377e-16 -10.768626)
(251.6927 -3.318978e-19 -19.322562)
(252.37822 4.5371447e-16 -13.311285)
(251.18072 -2.0874793e-16 -17.338066)
(250.91926 -1.237535e-17 -15.031949)
(250.18834 1.1767637e-17 -16.304737)
(249.62171 -1.7858787e-16 -15.78762)
(248.96385 1.9024514e-16 -16.035307)
(248.30405 -1.8080227e-16 -15.992631)
(247.61452 3.0454635e-16 -16.032464)
(246.90249 -3.0686192e-16 -16.040866)
(246.16604 1.3676122e-16 -16.046296)
(245.40558 0 -16.04125)
(244.62115 0 -16.026064)
(243.81306 1.4578339e-17 -15.999467)
(242.9818 -2.761588e-17 -15.960457)
(242.12804 0 -15.907968)
(241.25264 1.9841871e-16 -15.840931)
(240.35672 4.8591055e-19 -15.758318)
(239.44158 -3.5519186e-16 -15.659126)
(238.50877 1.6783736e-16 -15.542432)
(237.56007 1.9870282e-17 -15.407403)
(236.59744 0 -15.25333)
(235.6231 -1.7795291e-16 -15.079648)
(234.63943 1.3420018e-16 -14.885978)
(233.64899 -2.2258322e-16 -14.672136)
(232.65449 2.0952662e-16 -14.438181)
(231.65874 -2.2681544e-16 -14.18441)
(230.6646 2.1349946e-16 -13.911403)
(229.67496 7.5695143e-17 -13.62001)
(228.69266 0 -13.311373)
(227.72044 0 -12.986924)
(226.76085 4.2223663e-17 -12.64838)
(225.81625 3.9775642e-17 -12.29773)
(224.88872 -3.7454397e-17 -11.937233)
(223.98 3.5254174e-17 -11.569389)
(223.09152 6.6505006e-17 -11.196927)
(222.22433 -6.2512351e-17 -10.822774)
(221.37915 3.5241219e-16 -10.450036)
(220.55632 -2.756797e-16 -10.081958)
(219.75591 5.177e-17 -9.7219097)
(218.97764 -4.87214e-17 -9.373345)
(218.22101 0 -9.0397873)
(217.48525 2.143462e-16 -8.7248084)
(216.76944 -1.6051228e-16 -8.4320224)
(216.07249 0 -8.1650809)
(215.39326 0 -7.9276875)
(214.7306 1.3235272e-16 -7.7236248)
(214.0835 -6.1796034e-17 -7.5568112)
(213.4512 0 -7.431355)
(212.83347 -1.6277641e-16 -7.3515924)
(212.23088 1.012528e-16 -7.3221102)
(211.64532 1.4245882e-16 -7.3476533)
(211.08045 -1.7694047e-16 -7.4330849)
(210.54237 1.657581e-16 -7.5833715)
(210.04081 -1.5437072e-16 -7.8035116)
(209.58941 8.5911165e-20 -8.098055)
(209.20594 0 -8.4691308)
(208.91335 6.2914716e-17 -8.9135304)
(208.73404 -2.926119e-16 -9.4184221)
(208.68439 1.6337825e-16 -9.9550981)
(208.76409 0 -10.473292)
(208.94713 -1.416549e-16 -10.902085)
(209.17931 8.7774535e-17 -11.160926)
(209.37867 1.2247458e-16 -11.177572)
(209.43532 -6.8453988e-20 -10.897329)
(209.2159 -7.0768157e-17 -10.303939)
(208.62571 9.8794111e-17 -9.3888763)
(207.55569 -1.5372593e-16 -8.2112566)
(205.92917 8.6344111e-17 -6.8424861)
(203.74574 2.699617e-17 -5.367933)
(201.26371 5.0453755e-17 -3.9979432)
(199.3492 0 -2.7500279)
(198.90142 -4.4038465e-17 -1.7277697)
(198.74711 2.041002e-17 -3.6680429)
(225.68527 0 -27.830515)
(266.17086 9.7464508e-18 -8.997041)
(248.18814 -3.0417358e-16 -27.567522)
(258.17322 2.4811797e-16 -10.930331)
(251.54576 2.5498219e-16 -25.305075)
(254.78385 -4.9714255e-16 -13.780794)
(252.01188 2.2870367e-16 -22.609083)
(252.70308 2.3153784e-16 -16.488807)
(251.4447 -2.1942027e-16 -20.481825)
(251.1336 3.905172e-17 -18.257264)
(250.3554 0 -19.410256)
(249.72679 0 -18.95516)
(249.01233 -2.2227535e-17 -19.140138)
(248.29056 -1.6867865e-16 -19.096755)
(247.53825 1.395977e-16 -19.107864)
(246.76121 1.8928456e-17 -19.093777)
(245.95812 -3.5882902e-17 -19.07199)
(245.12946 3.063079e-16 -19.037464)
(244.27554 -2.2511323e-16 -18.98972)
(243.39698 2.4436358e-16 -18.927366)
(242.4946 -2.0191458e-16 -18.849173)
(241.56945 2.7370475e-17 -18.753896)
(240.62285 1.5558907e-16 -18.640313)
(239.65637 -1.9568693e-16 -18.507281)
(238.67186 0 -18.353726)
(237.67139 0 -18.178702)
(236.65731 0 -17.981403)
(235.63218 -1.9609184e-16 -17.761214)
(234.59878 1.8475004e-16 -17.51772)
(233.56006 -3.5000751e-17 -17.250756)
(232.51911 0 -16.960425)
(231.47912 -2.8074097e-16 -16.647125)
(230.44334 2.3466434e-16 -16.311561)
(229.415 -5.5505357e-17 -15.954762)
(228.39725 1.570389e-16 -15.578084)
(227.39313 -4.8758728e-17 -15.183198)
(226.40546 -1.8514662e-16 -14.772095)
(225.4368 2.1849366e-16 -14.347055)
(224.48939 -1.6403685e-16 -13.910636)
(223.5651 7.7392633e-17 -13.465641)
(222.66542 -7.2674069e-17 -13.015094)
(221.7914 1.3655701e-16 -12.562201)
(220.94367 -6.4026691e-17 -12.11032)
(220.12247 -2.410611e-16 -11.662925)
(219.32768 5.0836016e-16 -11.223575)
(218.55881 -2.1173792e-16 -10.795881)
(217.81509 -1.4934262e-16 -10.383485)
(217.0955 9.2795239e-17 -9.9900383)
(216.39881 8.7375894e-17 -9.6191902)
(215.72365 -1.6357282e-16 -9.2745923)
(215.06853 1.5277279e-16 -8.9599093)
(214.432 0 -8.6788413)
(213.81263 1.3395615e-16 -8.4351467)
(213.20924 -1.8755572e-16 -8.2326991)
(212.62104 5.8502309e-17 -8.0755741)
(212.04779 5.4534732e-17 -7.9680721)
(211.49036 0 -7.9147127)
(210.95112 0 -7.9202549)
(210.43403 0 -7.989574)
(209.94588 0 -8.1274084)
(209.49664 0 -8.3383655)
(209.09994 -7.1786622e-17 -8.6261661)
(208.77414 0 -8.9904299)
(208.54044 -6.9454937e-20 -9.4243144)
(208.4183 2.3160271e-16 -9.9103879)
(208.41842 -2.1507648e-16 -10.414075)
(208.53317 -1.0007265e-16 -10.880275)
(208.72999 -1.8555352e-16 -11.236102)
(208.95154 2.5800192e-16 -11.404982)
(209.1179 4.9152104e-20 -11.315607)
(209.11866 7.4095285e-17 -10.942609)
(208.82822 0 -10.253586)
(208.17169 0 -9.2635149)
(207.04745 0 -8.038739)
(205.41054 -1.1093958e-16 -6.6514647)
(203.24425 0 -5.1889312)
(200.8312 -9.6527918e-17 -3.8354431)
(199.07767 1.3507578e-16 -2.5758284)
(198.72298 8.3724347e-17 -1.6733844)
(198.63656 -1.926463e-17 -3.4959953)
(226.11249 0 -31.617524)
(266.88231 0 -11.813075)
(248.38179 3.1978679e-16 -31.30198)
(258.63257 1.9198748e-17 -13.927755)
(251.72324 -2.6744646e-16 -28.889889)
(254.99352 0 -16.975258)
(252.14829 1.6031384e-17 -25.984583)
(252.81079 -3.0361506e-17 -19.837871)
(251.46005 0 -23.707071)
(251.06217 1.9146196e-16 -21.615376)
(250.2322 -4.1453323e-16 -22.623122)
(249.53294 1.9628494e-16 -22.236237)
(248.75344 2.3289096e-17 -22.360221)
(247.96075 0 -22.311462)
(247.13635 2.0918209e-17 -22.293444)
(246.28487 -3.3731561e-16 -22.253075)
(245.40568 7.4333213e-17 -22.200228)
(244.49951 2.485733e-16 -22.131248)
(243.5671 2.3611636e-16 -22.045109)
(242.6095 -2.5468988e-16 -21.940261)
(241.62802 0 -21.815275)
(240.62426 -2.8586555e-16 -21.668766)
(239.60014 2.4272726e-16 -21.499405)
(238.55786 -2.0463175e-16 -21.305997)
(237.49991 1.9286623e-16 -21.087477)
(236.42909 -1.8283066e-16 -20.842968)
(235.34842 3.4492519e-16 -20.571809)
(234.26115 -1.6275794e-16 -20.273598)
(233.17072 1.5400147e-16 -19.948215)
(232.08072 -2.9034472e-16 -19.595868)
(230.99477 1.3667333e-16 -19.2171)
(229.91656 1.2911689e-16 -18.812822)
(228.8497 -2.4367279e-16 -18.384306)
(227.7977 5.6541305e-17 -17.933194)
(226.76388 -6.1889874e-19 -17.461488)
(225.75128 2.5362377e-16 -16.971524)
(224.76264 0 -16.465955)
(223.80032 1.8162795e-19 -15.947719)
(222.86621 0 -15.41999)
(221.96177 -7.9251039e-17 -14.886154)
(221.08795 -1.4899326e-16 -14.349754)
(220.24524 6.9926238e-17 -13.81445)
(219.43364 0 -13.283979)
(218.65274 -6.1678339e-17 -12.762119)
(217.90175 2.8882848e-16 -12.252654)
(217.17953 -3.242521e-16 -11.759354)
(216.48469 -3.0402642e-16 -11.285952)
(215.81562 2.8384633e-16 -10.836138)
(215.17056 -1.772405e-16 -10.413554)
(214.54768 0 -10.021813)
(213.94514 0 -9.6645306)
(213.36118 7.2429686e-17 -9.3453398)
(212.79422 6.7623415e-17 -9.0679132)
(212.24303 1.2606712e-16 -8.8360325)
(211.70677 -5.8744787e-17 -8.6536871)
(211.18541 -1.095249e-16 -8.5249944)
(210.68034 -2.0462529e-16 -8.4542302)
(210.19431 -9.5754795e-17 -8.4461856)
(209.73152 1.7706565e-16 -8.5054912)
(209.29947 0 -8.6365811)
(208.90797 -7.6798058e-17 -8.8433561)
(208.57091 -1.4285528e-16 -9.127427)
(208.30615 1.3230704e-16 -9.485583)
(208.13245 6.1200749e-17 -9.9066588)
(208.06645 5.6989884e-17 -10.367756)
(208.11325 0 -10.829496)
(208.25809 1.9623493e-16 -11.233773)
(208.4622 1.8173914e-16 -11.507471)
(208.66651 -2.5236282e-16 -11.581239)
(208.79417 7.79302e-17 -11.387167)
(208.73371 -7.2049892e-17 -10.913962)
(208.38077 1.8374743e-19 -10.136912)
(207.66849 2.4793505e-16 -9.0891305)
(206.5136 -2.3024719e-16 -7.8359838)
(204.8764 5.366746e-17 -6.4396953)
(202.74604 1.4938843e-16 -4.9954307)
(200.41313 -4.629936e-17 -3.6571971)
(198.8156 -4.2970376e-17 -2.3916838)
(198.53708 0 -1.6020566)
(198.51785 3.6370843e-17 -3.3148602)
(226.30517 3.8947833e-16 -35.602457)
(267.37887 5.5568475e-19 -14.751466)
(248.35662 -3.5615821e-16 -35.192463)
(258.88786 0 -17.108436)
(251.66435 0 -32.584085)
(255.05502 -2.6555792e-16 -20.360485)
(251.98462 2.6867808e-16 -29.411387)
(252.51488 6.372786e-17 -23.345825)
(251.16726 -2.4189239e-16 -27.022434)
(250.69106 2.287813e-16 -25.112787)
(249.79824 -2.4453644e-16 -25.958052)
(249.01495 2.0553384e-16 -25.637846)
(248.15759 -4.8766042e-17 -25.703118)
(247.28145 -4.622909e-17 -25.641246)
(246.37252 -1.7526558e-16 -25.590692)
(245.43458 1.6553592e-16 -25.517525)
(244.46769 -3.5359602e-16 -25.426664)
(243.473 5.9437202e-16 -25.315162)
(242.45181 -2.8084301e-16 -25.18159)
(241.40575 -2.6654159e-16 -25.024248)
(240.33679 2.5134514e-16 -24.841554)
(239.24728 -2.9912832e-17 -24.632036)
(238.13988 -2.2540891e-16 -24.394335)
(237.01759 2.1233233e-16 -24.127305)
(235.88375 2.5159829e-16 -23.830005)
(234.74197 -1.4187925e-16 -23.501774)
(233.59607 0 -23.142257)
(232.45011 2.5385509e-16 -22.751451)
(231.30822 -3.188826e-16 -22.329731)
(230.1746 1.1222529e-16 -21.877879)
(229.0534 -2.8381657e-16 -21.397091)
(227.94869 1.9993727e-16 -20.888991)
(226.86432 -6.301971e-17 -20.355607)
(225.8039 2.3692727e-16 -19.799367)
(224.77068 -2.2223562e-16 -19.223064)
(223.7675 -2.0955422e-16 -18.629819)
(222.79672 1.9640209e-16 -18.023031)
(221.86018 -4.6086046e-17 -17.40634)
(220.95919 0 -16.783556)
(220.09446 8.1584611e-17 -16.158618)
(219.2662 -7.6172277e-17 -15.535532)
(218.47404 0 -14.918327)
(217.71716 1.3422207e-16 -14.31101)
(216.99433 -6.2764618e-17 -13.717538)
(216.30394 -1.7617269e-16 -13.14179)
(215.64411 5.4952964e-16 -12.587555)
(215.01275 -2.0576779e-16 -12.058528)
(214.40763 9.6085558e-17 -11.558314)
(213.82648 -2.6936577e-16 -11.090431)
(213.26702 -3.1581141e-19 -10.658355)
(212.72711 1.56227e-16 -10.265541)
(212.2048 -1.4586161e-16 -9.915448)
(211.69849 -6.7899831e-17 -9.6115899)
(211.20689 -6.3272282e-17 -9.3576601)
(210.72918 -1.1837648e-16 -9.1574332)
(210.26588 2.1944575e-16 -9.0145822)
(209.81884 0 -8.9331073)
(209.39072 9.4943551e-17 -8.9178291)
(208.98666 -3.5373876e-16 -8.9729509)
(208.61428 2.4567572e-16 -9.1022161)
(208.28385 7.6114288e-17 -9.3083578)
(208.00895 1.4152777e-16 -9.5903643)
(207.80532 1.3172702e-16 -9.9416853)
(207.69001 -1.2096505e-16 -10.346251)
(207.67669 -1.1209425e-16 -10.775489)
(207.76576 -3.1220891e-16 -11.186423)
(207.93488 -1.4445373e-19 -11.520065)
(208.1387 -8.8912535e-17 -11.703731)
(208.32003 0 -11.667465)
(208.40292 -2.2774981e-16 -11.381703)
(208.28 7.0265448e-17 -10.812629)
(207.87154 0 -9.95762)
(207.10782 1.2015824e-16 -8.8662322)
(205.94463 0 -7.6017094)
(204.32456 1.0310541e-16 -6.2087056)
(202.24731 -1.4363418e-16 -4.7842269)
(200.0051 1.3315382e-16 -3.462644)
(198.53869 -8.2097505e-17 -2.2012241)
(198.33065 7.5887394e-17 -1.5155705)
(198.37918 0 -3.1188635)
(226.26155 -4.0886259e-16 -39.790472)
(267.65282 3.5994229e-16 -17.827039)
(248.05823 -3.3021939e-16 -39.271858)
(258.91855 3.2812583e-16 -20.487385)
(251.28208 3.1436086e-16 -36.333444)
(254.57115 -1.7843656e-17 -23.923471)
(251.49308 -2.814192e-16 -32.918057)
(251.98286 -2.6718714e-16 -27.04967)
(250.56484 2.8433814e-16 -30.461997)
(249.97662 0 -28.764876)
(249.00839 2.838725e-17 -29.432945)
(248.12662 0 -29.167118)
(247.17701 -1.2766806e-16 -29.173652)
(246.2036 2.4104425e-16 -29.087187)
(245.19653 0 -28.996578)
(244.1591 0 -28.880555)
(243.09216 0 -28.740937)
(241.9975 3.882769e-17 -28.575041)
(240.87714 0 -28.381126)
(239.73354 -2.4299281e-16 -28.157371)
(238.56956 3.2736464e-16 -27.902101)
(237.38846 1.2390727e-16 -27.613856)
(236.19391 1.7574808e-16 -27.29137)
(234.9899 -2.7601992e-16 -26.9337)
(233.78077 -5.204004e-17 -26.540217)
(232.57107 -2.4630387e-16 -26.110695)
(231.36554 1.8536706e-16 -25.645321)
(230.16902 -2.1903327e-16 -25.144754)
(228.98632 8.1942536e-17 -24.610116)
(227.82219 7.7512174e-17 -24.043029)
(226.68113 0 -23.445585)
(225.5674 2.7587085e-16 -22.820341)
(224.48485 -2.5908375e-16 -22.170283)
(223.43686 0 -21.498781)
(222.4263 -2.2921743e-16 -20.80954)
(221.45542 2.1468684e-16 -20.106538)
(220.52584 -1.0121277e-16 -19.393951)
(219.63856 1.8956826e-16 -18.676099)
(218.7939 -2.6635846e-16 -17.957362)
(217.99157 1.5294039e-19 -17.242126)
(217.2307 -1.5569666e-16 -16.534724)
(216.50991 -7.2926267e-17 -15.839389)
(215.82737 -1.3694787e-16 -15.160224)
(215.18087 2.5515059e-16 -14.501179)
(214.56795 -1.1912686e-16 -13.866048)
(213.98593 0 -13.258466)
(213.43203 -3.9113053e-19 -12.681928)
(212.90345 9.7002892e-17 -12.139802)
(212.39744 0 -11.63536)
(211.9114 8.4500954e-17 -11.171807)
(211.44298 7.9128337e-17 -10.752308)
(210.9902 -7.3295716e-17 -10.380022)
(210.55144 2.733143e-16 -10.058272)
(210.12542 -2.5402936e-16 -9.7906959)
(209.71155 -1.1822809e-16 -9.5805188)
(209.31126 -1.0986814e-16 -9.4308816)
(208.92602 1.0204492e-16 -9.3458484)
(208.55841 1.8946245e-16 -9.3295771)
(208.21555 -3.5118415e-16 -9.3858471)
(207.90475 4.0697255e-16 -9.5172205)
(207.63682 -1.5074797e-16 -9.7245361)
(207.42384 1.3956234e-16 -10.004536)
(207.27942 -1.2922475e-16 -10.346534)
(207.21866 2.392317e-16 -10.729363)
(207.25285 -3.3164316e-16 -11.119705)
(207.37846 2.0396892e-16 -11.472027)
(207.56562 -6.1038301e-20 -11.727746)
(207.76253 8.6941205e-17 -11.818265)
(207.91442 0 -11.683796)
(207.94926 0 -11.297607)
(207.77006 0 -10.641794)
(207.30853 -1.2589565e-16 -9.7286379)
(206.50811 1.0191743e-19 -8.6067394)
(205.34147 0 -7.3362391)
(203.75249 0 -5.9573737)
(201.74108 9.198951e-17 -4.5527486)
(199.59298 -1.703171e-16 -3.2476597)
(198.19528 0 -2.0011315)
(198.06299 0 -1.4130172)
(198.20757 -1.3177348e-16 -2.8922191)
(225.95035 2.7604086e-17 -44.19065)
(267.67228 -7.7885168e-16 -21.066389)
(247.45083 3.4524085e-16 -43.505972)
(258.48549 -2.1546744e-17 -24.039399)
(250.5587 3.702564e-16 -40.176986)
(253.90231 -3.490824e-16 -27.72236)
(250.70986 0 -36.551835)
(251.05925 -3.1454626e-16 -30.95505)
(249.58312 2.3120842e-16 -34.027973)
(248.86618 2.1966358e-16 -32.565062)
(247.80784 -2.3708835e-16 -33.05105)
(246.81232 0 -32.82026)
(245.75483 1.6249887e-19 -32.76599)
(244.66935 0 -32.640949)
(243.54972 3.8211433e-16 -32.498851)
(242.39923 -7.2188211e-16 -32.326219)
(241.2197 3.4082093e-16 -32.122997)
(240.01384 -4.027872e-17 -31.886574)
(238.78468 -3.826718e-17 -31.614996)
(237.5358 3.6366277e-17 -31.306399)
(236.27124 -6.7960217e-17 -30.959161)
(234.99548 -3.2198219e-16 -30.571987)
(233.71339 3.030432e-16 -30.143936)
(232.43017 5.7149619e-17 -29.674526)
(231.15128 -2.7087915e-16 -29.163731)
(229.8823 -7.4236767e-19 -28.612085)
(228.62887 2.8779232e-16 -28.020647)
(227.39653 -1.8064667e-16 -27.391065)
(226.19064 -6.0560115e-19 -26.725533)
(225.01622 0 -26.026801)
(223.87787 0 -25.298119)
(222.77963 -7.1159858e-17 -24.543199)
(221.72493 1.3325077e-16 -23.766146)
(220.71649 0 -22.971388)
(219.75629 -1.1783239e-16 -22.163585)
(218.84554 2.2055591e-16 -21.347558)
(217.98468 -1.0330768e-16 -20.52818)
(217.17344 -1.9374035e-16 -19.71032)
(216.41082 8.99806e-17 -18.898749)
(215.69524 1.6899374e-16 -18.09809)
(215.02458 0 -17.312766)
(214.39624 2.2301759e-16 -16.546975)