/*--------------------------------*- C++ -*----------------------------------*\
  =========                 |
  \\      /  F ield         | OpenFOAM: The Open Source CFD Toolbox
   \\    /   O peration     | Website:  https://openfoam.org
    \\  /    A nd           | Version:  12
     \\/     M anipulation  |
\*---------------------------------------------------------------------------*/
FoamFile
{
    format      ascii;
    class       volScalarField;
    location    "0.032";
    object      alphat;
}
// * * * * * * * * * * * * * * * * * * * * * * * * * * * * * * * * * * * * * //

dimensions      [1 -1 -1 0 0 0 0];

internalField   nonuniform List<scalar> 
16000
(
5.2455722e-07
1.1082988e-05
2.1286588e-05
2.6774056e-05
2.0571638e-05
2.8402249e-05
1.9986307e-05
2.7453192e-05
2.1336014e-05
2.9461975e-05
2.4750759e-05
2.9076719e-05
2.650885e-05
2.722118e-05
2.6316946e-05
2.6182475e-05
2.5927046e-05
2.5871689e-05
2.5905067e-05
2.6051093e-05
2.6301055e-05
2.6654099e-05
2.7107952e-05
2.7663434e-05
2.832338e-05
2.9095257e-05
2.9988772e-05
3.101923e-05
3.2205139e-05
3.3566555e-05
3.5125844e-05
3.6912668e-05
3.8965254e-05
4.1330826e-05
4.4067613e-05
4.724555e-05
5.0948611e-05
5.5277988e-05
6.0359866e-05
6.6351765e-05
7.3441559e-05
8.1854914e-05
9.187929e-05
0.00010387247
0.00011827111
0.00013561428
0.00015658749
0.00018205444
0.00021310841
0.00025113943
0.00029792162
0.00035571803
0.00042739528
0.00051656007
0.00062770849
0.00076642811
0.00093964362
0.0011557195
0.00119812
0.0011959055
0.0011935558
0.0011915119
0.0011904297
0.0011905005
0.0011911479
0.0011928736
0.0011956137
0.0011982179
0.0012000468
0.0012010013
0.0012012368
0.0012009804
0.0012003002
0.0011988543
0.0011942292
0.0011847878
0.0011743146
0.0011696312
0.0011695004
0.0011762789
4.6571739e-07
1.0498698e-05
2.1955108e-05
2.4355795e-05
1.8557039e-05
2.5516776e-05
1.7739827e-05
2.408689e-05
1.88419e-05
2.6048427e-05
2.2401469e-05
2.6243568e-05
2.4252879e-05
2.4691559e-05
2.3985913e-05
2.3798696e-05
2.3590546e-05
2.3533022e-05
2.3570392e-05
2.3708288e-05
2.3944014e-05
2.4275978e-05
2.4702904e-05
2.5225857e-05
2.5846984e-05
2.65735e-05
2.741411e-05
2.83828e-05
2.9497362e-05
3.0777602e-05
3.2244666e-05
3.392612e-05
3.5857917e-05
3.8084543e-05
4.066142e-05
4.3655501e-05
4.7147746e-05
5.1235181e-05
5.6038025e-05
6.1708706e-05
6.843171e-05
7.6425231e-05
8.5967805e-05
9.7410493e-05
0.00011118524
0.00012782218
0.00014799852
0.0001725714
0.00020262979
0.00023956346
0.00028515513
0.00034169624
0.00041211014
0.00050009886
0.00061028465
0.00074835816
0.00092121826
0.0011369543
0.0011976946
0.001195371
0.0011929536
0.0011909351
0.0011900229
0.0011902388
0.0011909281
0.0011928769
0.0011957163
0.0011981893
0.0011997662
0.0012004615
0.0012005181
0.0012001698
0.0011993989
0.0011976192
0.0011926557
0.0011827899
0.0011732968
0.0011695333
0.0011696029
0.0011759938
4.227053e-07
1.0043988e-05
2.0744398e-05
2.2210503e-05
1.6603516e-05
2.2499693e-05
1.5792671e-05
2.0944266e-05
1.6934194e-05
2.2866725e-05
2.0422171e-05
2.339495e-05
2.199016e-05
2.2145398e-05
2.1606963e-05
2.1398484e-05
2.1228346e-05
2.1178918e-05
2.1221984e-05
2.1355809e-05
2.1580041e-05
2.1893248e-05
2.2294701e-05
2.2785933e-05
2.3368501e-05
2.4049555e-05
2.483705e-05
2.5743843e-05
2.6786759e-05
2.7985335e-05
2.9359957e-05
3.0936559e-05
3.2749229e-05
3.4840095e-05
3.7262092e-05
4.0079418e-05
4.3370416e-05
4.7229066e-05
5.1770711e-05
5.7142522e-05
6.3526624e-05
7.1136117e-05
8.0242217e-05
9.1189653e-05
0.00010440802
0.00012042167
0.00013990214
0.00016370244
0.00019290863
0.000228909
0.00027348587
0.00032893788
0.00039820453
0.00048501307
0.00059399845
0.00073078489
0.00090198907
0.0011150513
0.0011973335
0.0011949148
0.001192454
0.0011905068
0.0011898172
0.0011901177
0.0011909248
0.001193167
0.0011960015
0.0011982398
0.0011995017
0.0011999163
0.0011997883
0.0011993342
0.0011984372
0.0011961649
0.0011908948
0.0011808541
0.0011727351
0.0011697883
0.001169837
0.0011754616
3.7773178e-07
9.7033283e-06
1.9664942e-05
2.0264119e-05
1.4898476e-05
1.9876665e-05
1.4069938e-05
1.8307845e-05
1.5239353e-05
2.0160045e-05
1.8648746e-05
2.0872308e-05
1.9907971e-05
1.9851461e-05
1.9437834e-05
1.9228772e-05
1.9091226e-05
1.9054594e-05
1.9105985e-05
1.9239451e-05
1.9456015e-05
1.9754648e-05
2.0134917e-05
2.0598753e-05
2.1147432e-05
2.1788095e-05
2.2528137e-05
2.3379544e-05
2.4358182e-05
2.5483362e-05
2.6774994e-05
2.8257601e-05
2.9963724e-05
3.1933396e-05
3.4217359e-05
3.6877303e-05
3.9989137e-05
4.3644336e-05
4.7954161e-05
5.3060278e-05
5.9142721e-05
6.6410339e-05
7.5127628e-05
8.5631884e-05
9.8350109e-05
0.00011380013
0.00013264556
0.00015573125
0.00018413352
0.00021922791
0.00026277503
0.00031704348
0.00038492561
0.00047007278
0.00057698028
0.0007109974
0.00087821355
0.0010851592
0.0011971831
0.0011947122
0.0011922472
0.0011903895
0.0011898658
0.0011902167
0.0011911433
0.0011936544
0.0011963262
0.0011982558
0.0011991937
0.0011993601
0.001199078
0.0011985253
0.001197483
0.0011949289
0.0011890378
0.001179228
0.0011725146
0.0011703708
0.0011702057
0.0011750422
3.3448341e-07
9.4371468e-06
1.8725292e-05
2.009132e-05
1.4410056e-05
1.7577689e-05
1.2555605e-05
1.6035858e-05
1.3784881e-05
1.782025e-05
1.7071726e-05
1.8592009e-05
1.7957601e-05
1.7755473e-05
1.7435513e-05
1.7242483e-05
1.7133463e-05
1.7111533e-05
1.7171055e-05
1.7304556e-05
1.7513607e-05
1.7798067e-05
1.8157835e-05
1.8594934e-05
1.9111115e-05
1.9713251e-05
2.0408538e-05
2.1208231e-05
2.2127235e-05
2.3184557e-05
2.4399824e-05
2.5796374e-05
2.7405438e-05
2.926519e-05
3.1424417e-05
3.3942526e-05
3.6893108e-05
4.0365502e-05
4.4467837e-05
4.9336111e-05
5.5148274e-05
6.2109791e-05
7.047944e-05
8.0586097e-05
9.2853903e-05
0.00010779398
0.0001260604
0.00014848691
0.00017613468
0.00021035845
0.00025288073
0.00030591071
0.00037224079
0.00045535876
0.00055948981
0.0006895416
0.00085089926
0.001049024
0.0011971948
0.0011947288
0.0011923055
0.0011905545
0.0011901588
0.0011905017
0.0011917252
0.0011942827
0.0011966656
0.0011982356
0.001198855
0.0011988083
0.0011984023
0.0011977553
0.001196559
0.0011937069
0.0011870838
0.0011778388
0.0011725463
0.0011712152
0.001170709
0.0011747427
3.0862368e-07
9.2685905e-06
1.7947196e-05
1.9987912e-05
1.4293792e-05
1.556728e-05
1.1327873e-05
1.4130071e-05
1.2554519e-05
1.5831432e-05
1.5678989e-05
1.6578847e-05
1.6170005e-05
1.5883877e-05
1.5627025e-05
1.5454403e-05
1.5365835e-05
1.5354412e-05
1.5417806e-05
1.5548609e-05
1.5748242e-05
1.601763e-05
1.6357119e-05
1.676806e-05
1.7253449e-05
1.7819809e-05
1.8473995e-05
1.9226749e-05
2.009201e-05
2.10884e-05
2.2235409e-05
2.3555385e-05
2.5078493e-05
2.6841293e-05
2.8890901e-05
3.1284725e-05
3.4094254e-05
3.7406976e-05
4.1328939e-05
4.5990886e-05
5.1568307e-05
5.8264133e-05
6.6332944e-05
7.609436e-05
8.796923e-05
0.00010246183
0.00012021488
0.00014204777
0.00016900016
0.00020239727
0.00024390779
0.00029565555
0.00036028986
0.00044106793
0.00054185372
0.00066701168
0.0008211462
0.0010086401
0.001197378
0.0011949904
0.0011926548
0.0011910129
0.0011906519
0.0011909488
0.0011926501
0.0011949679
0.0011969816
0.001198168
0.0011984928
0.0011982716
0.0011977716
0.0011970226
0.0011955981
0.001192272
0.0011850998
0.0011767055
0.0011727605
0.0011722444
0.0011713018
0.001174542
2.8249102e-07
9.1734731e-06
1.7351466e-05
1.9139744e-05
1.4131038e-05
1.3788416e-05
1.1668687e-05
1.284307e-05
1.2357192e-05
1.4162929e-05
1.4449154e-05
1.4811133e-05
1.4529304e-05
1.4204114e-05
1.3983231e-05
1.3828875e-05
1.3753883e-05
1.3749395e-05
1.3814042e-05
1.3941321e-05
1.4131778e-05
1.4387222e-05
1.4707787e-05
1.5008572e-05
1.5455918e-05
1.5981057e-05
1.6590186e-05
1.7293224e-05
1.8102878e-05
1.903695e-05
2.0114687e-05
2.1357412e-05
2.2794227e-05
2.4460047e-05
2.6400295e-05
2.8670383e-05
3.1339593e-05
3.4493296e-05
3.8235937e-05
4.301236e-05
4.8391432e-05
5.4862907e-05
6.2678958e-05
7.2149794e-05
8.369196e-05
9.7803169e-05
0.00011511358
0.00013642539
0.00016275081
0.00019537817
0.00023590963
0.00028636573
0.00034922749
0.00042748944
0.00052462048
0.00064441746
0.00079071171
0.00096688217
0.0011750579
0.0011955049
0.0011932979
0.001191788
0.0011914113
0.0011920952
0.0011936948
0.0011956512
0.0011972549
0.0011980612
0.0011981279
0.0011977688
0.0011971881
0.0011962982
0.0011945514
0.0011906904
0.0011832105
0.0011759374
0.0011730711
0.0011732938
0.0011725836
0.0011743756
2.5354241e-07
9.1241851e-06
1.6860889e-05
1.7577176e-05
1.3675567e-05
1.2083509e-05
1.0723789e-05
1.163403e-05
1.106271e-05
1.2709381e-05
1.3246951e-05
1.3208908e-05
1.2976979e-05
1.2654741e-05
1.2459299e-05
1.2325563e-05
1.2264689e-05
1.2268885e-05
1.2262975e-05
1.2371217e-05
1.2541833e-05
1.2777673e-05
1.3075414e-05
1.3435842e-05
1.3864765e-05
1.436668e-05
1.494784e-05
1.5618083e-05
1.6389484e-05
1.7279358e-05
1.8307176e-05
1.9493707e-05
2.086753e-05
2.2462488e-05
2.4322982e-05
2.6503109e-05
2.9070753e-05
3.2109878e-05
3.5724218e-05
4.004192e-05
4.5221663e-05
5.1466479e-05
5.9027038e-05
6.8775747e-05
8.0052406e-05
9.3856915e-05
0.00011080652
0.00013168379
0.00015746833
0.00018940565
0.00022902133
0.00027822059
0.00033930431
0.00041499753
0.00050838036
0.00062270903
0.00076110169
0.00092606002
0.0011187922
0.001196263
0.0011942141
0.0011928662
0.0011925691
0.0011932971
0.0011947186
0.0011962997
0.0011974791
0.0011979335
0.0011977841
0.0011973145
0.0011966381
0.0011955441
0.0011934047
0.0011890485
0.0011815564
0.0011754242
0.0011733407
0.0011739944
0.0011741833
0.0011740147
2.3175027e-07
9.0858002e-06
1.6407435e-05
1.5464538e-05
1.1328323e-05
1.0559612e-05
8.7605907e-06
9.9008421e-06
1.006887e-05
1.1474767e-05
1.2007585e-05
1.1714393e-05
1.1502785e-05
1.1213043e-05
1.1043768e-05
1.0858455e-05
1.0786014e-05
1.0784232e-05
1.0844918e-05
1.0966657e-05
1.1143837e-05
1.1378041e-05
1.1670111e-05
1.2020387e-05
1.2434244e-05
1.2917096e-05
1.3475285e-05
1.411867e-05
1.4858883e-05
1.571272e-05
1.6699971e-05
1.7841089e-05
1.9164442e-05
2.0703085e-05
2.250074e-05
2.4610633e-05
2.7099701e-05
3.0050972e-05
3.3567133e-05
3.7774852e-05
4.2832375e-05
4.8938993e-05
5.6346479e-05
6.5355126e-05
7.6353455e-05
8.983244e-05
0.00010733243
0.00012787302
0.00015321837
0.00018456684
0.00022336095
0.00027138386
0.0003307534
0.00040393265
0.00049364087
0.00060265209
0.00073347556
0.00088792665
0.0010666434
0.0011972275
0.0011953419
0.0011941336
0.0011938664
0.0011944979
0.0011956833
0.0011968917
0.0011976618
0.0011978086
0.0011974832
0.0011969099
0.001196093
0.0011947136
0.0011921183
0.0011873074
0.0011801576
0.0011751193
0.0011737001
0.0011745158
0.0011755298
0.0011743568
2.1366305e-07
9.045909e-06
1.5597245e-05
1.3390704e-05
9.2316231e-06
9.4270004e-06
7.5924603e-06
8.9649273e-06
9.353571e-06
1.0276328e-05
1.0766012e-05
1.0340295e-05
1.0137249e-05
9.7937387e-06
9.6137735e-06
9.5070846e-06
9.4708883e-06
9.4958737e-06
9.5758847e-06
9.7083215e-06
9.8909813e-06
1.0125646e-05
1.0413766e-05
1.0756096e-05
1.1158398e-05
1.1626507e-05
1.2166915e-05
1.2789651e-05
1.3506059e-05
1.4332445e-05
1.528897e-05
1.6396111e-05
1.7682271e-05
1.9180018e-05
2.093273e-05
2.2993177e-05
2.5427777e-05
2.8319125e-05
3.1769763e-05
3.5906057e-05
4.0885148e-05
4.6903981e-05
5.4215144e-05
6.3114458e-05
7.3986088e-05
8.7312359e-05
0.00010369496
0.00012385345
0.00015005531
0.00018093483
0.00021903018
0.00026599989
0.00032378166
0.00039459056
0.00048082244
0.00058484751
0.00070871296
0.00085380635
0.0010205887
0.0011983334
0.0011965955
0.0011954893
0.001195215
0.0011956904
0.0011965832
0.0011974174
0.0011978198
0.0011977071
0.0011972317
0.0011965344
0.0011955062
0.0011937532
0.0011906676
0.0011855178
0.0011789758
0.0011750318
0.0011742238
0.0011749641
0.0011768087
0.0011746965
1.9694353e-07
9.0036596e-06
1.2389304e-05
1.1440757e-05
7.4815209e-06
8.4282349e-06
6.8922057e-06
8.0537872e-06
8.7653414e-06
9.1910587e-06
9.5447348e-06
8.9931297e-06
8.7369432e-06
8.5022764e-06
8.3732593e-06
8.3084313e-06
8.3029959e-06
8.3506247e-06
8.4463886e-06
8.5894317e-06
8.7777993e-06
9.0137843e-06
9.299913e-06
9.6373636e-06
1.0031953e-05
1.0489997e-05
1.1018277e-05
1.1627055e-05
1.2327613e-05
1.3135848e-05
1.400145e-05
1.5074598e-05
1.6324128e-05
1.7782042e-05
1.9491288e-05
2.150412e-05
2.3886371e-05
2.6720062e-05
3.0107454e-05
3.4174553e-05
3.9078062e-05
4.5364747e-05
5.2638572e-05
6.1497745e-05
7.2320632e-05
8.5580133e-05
0.00010187092
0.00012189468
0.00014652743
0.00017684408
0.00021608767
0.00026216386
0.00031854166
0.00038720903
0.00047028518
0.00056983174
0.00068760605
0.00082483843
0.00098213913
0.0011596663
0.0011979031
0.0011968578
0.0011965424
0.0011968243
0.0011974096
0.0011978834
0.0011979684
0.0011976362
0.0011970138
0.0011961429
0.0011948142
0.001192609
0.0011890396
0.0011837178
0.0011779619
0.0011750791
0.0011747627
0.0011753485
0.0011780572
0.0011756178
1.823572e-07
8.9627212e-06
9.7607877e-06
9.451306e-06
6.422632e-06
7.4725511e-06
6.3404177e-06
7.2676537e-06
8.1734631e-06
8.1797576e-06
8.2135485e-06
7.7427593e-06
7.5355086e-06
7.366537e-06
7.2806292e-06
7.250469e-06
7.2711475e-06
7.3384818e-06
7.4486362e-06
7.6016969e-06
7.7965383e-06
8.0356552e-06
8.3223939e-06
8.6584676e-06
9.0498004e-06
9.4629907e-06
9.9768905e-06
1.0570395e-05
1.1254604e-05
1.204488e-05
1.2959819e-05
1.4023539e-05
1.5263587e-05
1.6711953e-05
1.841181e-05
2.0415668e-05
2.2789724e-05
2.5616411e-05
2.8998946e-05
3.3064376e-05
3.7970633e-05
4.3916106e-05
5.1145684e-05
5.9955735e-05
7.0719172e-05
8.4627229e-05
0.00010092465
0.00012092175
0.00014545626
0.00017555619
0.00021243125
0.00025991769
0.00031512829
0.00038196937
0.00046234118
0.00055810043
0.00067087706
0.0008019533
0.0009522692
0.0011226126
0.0011992062
0.001198186
0.0011977928
0.0011978647
0.0011981505
0.0011983006
0.0011981127
0.0011975834
0.0011967867
0.0011956641
0.0011939379
0.0011912283
0.0011872302
0.0011819216
0.0011770603
0.0011751357
0.0011751658
0.0011757104
0.001179101
0.0011763627
1.6940881e-07
8.9197344e-06
7.7164108e-06
8.3100358e-06
5.7168713e-06
6.611864e-06
5.8638675e-06
6.5710667e-06
7.4650861e-06
7.0284049e-06
7.0095265e-06
6.6484371e-06
6.486001e-06
6.3699488e-06
6.3207597e-06
6.3203201e-06
6.3640969e-06
6.4495227e-06
6.5736668e-06
6.7373875e-06
6.9403104e-06
7.1850737e-06
7.4444585e-06
7.7761332e-06
8.1626182e-06
8.6095097e-06
9.1259075e-06
9.7216883e-06
1.0408188e-05
1.1200987e-05
1.2118826e-05
1.3185526e-05
1.4430012e-05
1.588458e-05
1.7592868e-05
1.9607995e-05
2.1997048e-05
2.48433e-05
2.8251533e-05
3.2350708e-05
3.7299766e-05
4.3297293e-05
5.0593488e-05
5.9482945e-05
7.0336376e-05
8.3612376e-05
9.9875336e-05
0.00011979789
0.00014545659
0.00017547693
0.00021210167
0.00025665058
0.0003135784
0.00037898887
0.00045722897
0.0005500477
0.00065906878
0.00078573659
0.0009313566
0.0010972222
0.0012004525
0.0011994279
0.0011989262
0.001198794
0.0011987996
0.001198665
0.0011982369
0.0011975065
0.0011964762
0.0011950035
0.001192795
0.001189573
0.0011852501
0.0011801321
0.0011762173
0.0011750878
0.0011753369
0.0011760148
0.0011791952
0.001177195
1.5789964e-07
8.8624739e-06
6.1599179e-06
7.2620134e-06
5.1026683e-06
5.8514799e-06
5.4618425e-06
5.8656699e-06
6.5629694e-06
6.028438e-06
5.9512182e-06
5.6899976e-06
5.5696958e-06
5.4976876e-06
5.4810034e-06
5.5073055e-06
5.5726731e-06
5.6757363e-06
5.8144317e-06
5.9679887e-06
6.1740856e-06
6.4219312e-06
6.7146217e-06
7.0561303e-06
7.4520542e-06
7.908425e-06
8.434256e-06
9.0401479e-06
9.7376761e-06
1.0542587e-05
1.1473713e-05
1.2555075e-05
1.3754165e-05
1.521519e-05
1.6931668e-05
1.8957151e-05
2.1359662e-05
2.4223124e-05
2.7653569e-05
3.1781991e-05
3.6768871e-05
4.3137294e-05
5.0550234e-05
5.9577271e-05
7.0586441e-05
8.4027773e-05
0.00010046092
0.00012054499
0.00014506063
0.00017653922
0.000213084
0.00025734469
0.00031071213
0.00037831524
0.00045508143
0.00054589545
0.00065244825
0.00077637518
0.00091930941
0.0010829442
0.0012016007
0.0012005447
0.0011999075
0.0011995812
0.0011993329
0.0011989464
0.0011982908
0.0011973236
0.0011959738
0.0011940519
0.0011913101
0.0011876206
0.0011831135
0.0011783472
0.0011753877
0.0011748832
0.0011752899
0.0011760591
0.0011791543
0.0011780745
1.4771624e-07
8.7734276e-06
4.9702924e-06
6.3319764e-06
4.5525478e-06
5.1755353e-06
5.1139935e-06
5.0967136e-06
5.6453594e-06
5.1346111e-06
5.0322657e-06
4.853573e-06
4.773572e-06
4.739695e-06
4.7526987e-06
4.803915e-06
4.8901859e-06
4.9913334e-06
5.1389183e-06
5.3234042e-06
5.5461466e-06
5.8093152e-06
6.1168077e-06
6.4728304e-06
6.8836415e-06
7.3555679e-06
7.8976901e-06
8.4957037e-06
9.2051488e-06
1.0022719e-05
1.09672e-05
1.2062503e-05
1.3337909e-05
1.4830205e-05
1.658343e-05
1.8652179e-05
2.1106487e-05
2.4031966e-05
2.7536748e-05
3.1755354e-05
3.6851259e-05
4.3029539e-05
5.0536982e-05
5.967484e-05
7.0809793e-05
8.5092738e-05
0.00010177384
0.00012210642
0.00014685227
0.00017690427
0.00021529709
0.00025950536
0.00031262485
0.00037612432
0.00045592581
0.00054569473
0.00065104324
0.00077379711
0.00091587934
0.0010793516
0.0012025882
0.001201479
0.0012006998
0.0012001723
0.0011996967
0.0011990757
0.0011981766
0.001196908
0.0011951444
0.0011927
0.0011894261
0.0011853624
0.001180825
0.0011766003
0.0011745563
0.0011745717
0.0011752439
0.0011761894
0.0011790245
0.0011782574
1.3875883e-07
8.5018941e-06
4.1075661e-06
5.5064371e-06
4.0658462e-06
4.5785362e-06
4.5597999e-06
4.4017809e-06
4.7547916e-06
4.3426612e-06
4.2435502e-06
4.1307269e-06
4.0888198e-06
4.0887966e-06
4.1292216e-06
4.1886855e-06
4.2880304e-06
4.4226389e-06
4.5918842e-06
4.7963667e-06
5.0381655e-06
5.320046e-06
5.6463936e-06
6.0217362e-06
6.4381906e-06
6.926703e-06
7.4859617e-06
8.1264546e-06
8.8613389e-06
9.7063071e-06
1.0680473e-05
1.1808489e-05
1.3120516e-05
1.4654317e-05
1.6456277e-05
1.8582143e-05
2.1104437e-05
2.4111061e-05
2.7712168e-05
3.2046732e-05
3.7279976e-05
4.3620453e-05
5.1321366e-05
6.0684383e-05
7.2078735e-05
8.5947148e-05
0.00010373105
0.00012439692
0.00014947231
0.00017984013
0.00021649054
0.00026305749
0.00031627847
0.00037978669
0.00045519044
0.00054941185
0.00065479989
0.00077792988
0.00092101718
0.0010865139
0.0012033549
0.0012021637
0.0012012375
0.0012005052
0.0011998018
0.001198936
0.0011977483
0.0011961008
0.0011938486
0.0011908618
0.0011871215
0.0011828159
0.0011783978
0.0011750072
0.001173796
0.0011742977
0.0011753339
0.0011763954
0.0011786654
0.0011780723
1.3108458e-07
8.0590818e-06
3.6172298e-06
4.7783245e-06
3.6338534e-06
3.8824406e-06
4.0703067e-06
3.7638714e-06
3.9452837e-06
3.6532055e-06
3.5753509e-06
3.5147115e-06
3.507766e-06
3.5382716e-06
3.5862774e-06
3.6784748e-06
3.804504e-06
3.9632495e-06
4.1551211e-06
4.3815517e-06
4.6452429e-06
4.9492671e-06
5.2882313e-06
5.6837635e-06
6.1351219e-06
6.6496253e-06
7.2360616e-06
7.9051994e-06
8.6703571e-06
9.5480473e-06
1.0557786e-05
1.1724993e-05
1.308081e-05
1.4664352e-05
1.6453157e-05
1.8629017e-05
2.1210425e-05
2.4287855e-05
2.8141826e-05
3.2613968e-05
3.8010433e-05
4.454228e-05
5.2469388e-05
6.2095896e-05
7.3791349e-05
8.8000912e-05
0.00010525245
0.00012616804
0.00015282877
0.00018364442
0.00022075202
0.00026530081
0.0003216195
0.0003856542
0.0004617055
0.0005570404
0.00066374906
0.00078890403
0.00093506883
0.001105155
0.0012038434
0.0012025302
0.001201427
0.0012004753
0.0011995223
0.0011983721
0.0011968347
0.0011947455
0.0011919809
0.0011885041
0.0011844286
0.0011800777
0.001176088
0.0011737315
0.001173268
0.0011742109
0.0011755589
0.0011767511
0.0011786586
0.0011778705
1.2502848e-07
7.3209369e-06
3.2007766e-06
4.1191881e-06
3.2611089e-06
3.23992e-06
3.5807316e-06
3.1846066e-06
3.2488039e-06
3.0635955e-06
3.0156132e-06
2.9974247e-06
3.0133682e-06
3.0632973e-06
3.1509469e-06
3.2718046e-06
3.4239036e-06
3.6072848e-06
3.8232103e-06
4.0735994e-06
4.3551674e-06
4.6817595e-06
5.0536584e-06
5.4760596e-06
5.9551559e-06
6.4984417e-06
7.1150139e-06
7.8159476e-06
8.6148384e-06
9.5075592e-06
1.0549909e-05
1.1752219e-05
1.3146448e-05
1.4772502e-05
1.6680085e-05
1.8931032e-05
2.1601345e-05
2.4785507e-05
2.8599784e-05
3.3186366e-05
3.8719666e-05
4.5738396e-05
5.3917739e-05
6.3839696e-05
7.5874664e-05
9.046946e-05
0.0001081539
0.00012955366
0.00015682858
0.00018823067
0.00022599119
0.00027127749
0.00032860596
0.00039371182
0.00047116873
0.00056304915
0.00067806754
0.00080708374
0.00095872476
0.0011364827
0.0012039734
0.0012024845
0.0012011641
0.0011999566
0.0011987111
0.0011972226
0.0011952859
0.0011927397
0.0011895131
0.0011856738
0.001181456
0.001177325
0.0011742558
0.0011728877
0.001173111
0.001174472
0.0011759823
0.0011773202
0.0011791341
0.0011778341
1.203469e-07
5.0232523e-06
2.8328965e-06
3.5075626e-06
2.7896915e-06
2.7017301e-06
3.0628097e-06
2.6681703e-06
2.6689358e-06
2.5668857e-06
2.5527767e-06
2.5629261e-06
2.6106951e-06
2.6958112e-06
2.8137789e-06
2.9620486e-06
3.1400229e-06
3.3484971e-06
3.5858621e-06
3.8597911e-06
4.1716337e-06
4.5250239e-06
4.9243646e-06
5.3749952e-06
5.8833411e-06
6.4571294e-06
7.1057195e-06
7.8284618e-06
8.6587475e-06
9.6055152e-06
1.0690196e-05
1.1939308e-05
1.3386134e-05
1.5072274e-05
1.7049586e-05
1.9382267e-05
2.2149469e-05
2.5448764e-05
2.9400245e-05
3.415104e-05
3.9880755e-05
4.680687e-05
5.5603649e-05
6.584569e-05
7.82518e-05
9.327306e-05
0.00011144451
0.0001334
0.00015988795
0.00019350965
0.00023212944
0.00027844954
0.00033390761
0.00040394594
0.00048360901
0.00057850266
0.00069799318
0.00083292607
0.00099281621
0.001181951
0.0012036621
0.0012019278
0.0012003324
0.00119882
0.0011972365
0.0011953727
0.0011930306
0.0011900822
0.001186522
0.0011825163
0.0011784354
0.0011750349
0.001173039
0.0011725298
0.0011733289
0.0011749724
0.0011765378
0.0011777554
0.0011791536
0.0011776514
1.1523376e-07
4.1645595e-06
2.4402707e-06
2.9444223e-06
2.4067336e-06
2.2534459e-06
2.5240872e-06
2.2143311e-06
2.1974325e-06
2.1587389e-06
2.1741739e-06
2.219899e-06
2.3047614e-06
2.4214969e-06
2.5674622e-06
2.7417476e-06
2.9447673e-06
3.1754791e-06
3.4399809e-06
3.7396818e-06
4.0777679e-06
4.45809e-06
4.8852449e-06
5.3647146e-06
5.903072e-06
6.5082362e-06
7.1815568e-06
7.9476854e-06
8.8154335e-06
9.802576e-06
1.0931383e-05
1.2229515e-05
1.3731576e-05
1.5480802e-05
1.7531235e-05
1.9949979e-05
2.2819508e-05
2.6240859e-05
3.0338084e-05
3.5262169e-05
4.1197363e-05
4.8717694e-05
5.7462818e-05
6.8042832e-05
8.0844555e-05
9.6326337e-05
0.00011503294
0.00013761146
0.0001663567
0.0001993781
0.00023906423
0.00028671491
0.00034387784
0.00041628349
0.00049898821
0.00059805907
0.00072363984
0.00086675139
0.0010380562
0.0012049645
0.0012028196
0.0012007632
0.0011988319
0.0011969732
0.0011950333
0.0011928073
0.00119012
0.0011868947
0.0011831991
0.0011793093
0.0011758518
0.0011734951
0.001172367
0.0011725606
0.0011736269
0.0011753633
0.0011767364
0.0011775875
0.0011785941
0.0011769654
1.1178805e-07
3.356076e-06
2.1034359e-06
2.3774432e-06
2.0927108e-06
1.8700846e-06
2.0217372e-06
1.8286935e-06
1.826778e-06
1.8387545e-06
1.8850002e-06
1.9699125e-06
2.0866355e-06
2.2310746e-06
2.4022149e-06
2.6003828e-06
2.8254686e-06
3.0814612e-06
3.3702995e-06
3.6948675e-06
4.0586094e-06
4.4655492e-06
4.9203955e-06
5.4287142e-06
5.9971692e-06
6.6290794e-06
7.3413545e-06
8.142918e-06
9.0484774e-06
1.0076411e-05
1.1249948e-05
1.2597928e-05
1.4156422e-05
1.5970372e-05
1.8095825e-05
2.0602604e-05
2.3577025e-05
2.712353e-05
3.1370729e-05
3.647417e-05
4.2904473e-05
5.038736e-05
5.9427754e-05
7.0357504e-05
8.3571081e-05
9.9539152e-05
0.00011882156
0.00014208692
0.00017166643
0.0002056962
0.00024664557
0.00029590983
0.00035518406
0.00043049787
0.00051705943
0.0006214655
0.00075478186
0.0009084708
0.0010947083
0.0012038853
0.0012013669
0.0011989241
0.0011966175
0.001194406
0.0011921444
0.00118964
0.0011867429
0.001183429
0.001179881
0.0011765948
0.0011740923
0.0011725443
0.0011722095
0.0011725692
0.00117376
0.0011751784
0.0011761905
0.0011768168
0.0011770879
0.001175631
1.1028913e-07
2.6420728e-06
1.8120354e-06
1.8339789e-06
1.8030542e-06
1.541804e-06
1.6110152e-06
1.5207933e-06
1.5502223e-06
1.5984032e-06
1.6846732e-06
1.8011057e-06
1.9441003e-06
2.1120384e-06
2.305241e-06
2.5249483e-06
2.7721269e-06
3.0505646e-06
3.3624599e-06
3.7109343e-06
4.0995665e-06
4.5324744e-06
5.0144318e-06
5.5510518e-06
6.1490396e-06
6.8165353e-06
7.5635533e-06
8.4025045e-06
9.3376335e-06
1.0405872e-05
1.1623659e-05
1.3021091e-05
1.4635811e-05
1.6514659e-05
1.8715682e-05
2.1398753e-05
2.4501349e-05
2.8200598e-05
3.2630285e-05
3.7952391e-05
4.4362278e-05
5.2094619e-05
6.1432315e-05
7.2714311e-05
8.6346396e-05
0.00010281454
0.00012269943
0.00014797863
0.00017713407
0.00021227842
0.00025464882
0.00030575945
0.00037095769
0.0004461435
0.00053726994
0.00064805163
0.00079062285
0.00095725836
0.0011621137
0.0012022177
0.0011992666
0.0011964102
0.0011937373
0.0011912222
0.0011887336
0.001186101
0.001183213
0.0011800859
0.0011771824
0.0011747185
0.0011729267
0.0011720844
0.0011720282
0.0011723799
0.0011734008
0.0011742733
0.0011746528
0.0011747002
0.0011744392
0.0011733081
1.1184563e-07
2.0330543e-06
1.5692633e-06
1.4179123e-06
1.506664e-06
1.2662716e-06
1.3100384e-06
1.2946529e-06
1.3577205e-06
1.4415214e-06
1.5573842e-06
1.6981043e-06
1.8623135e-06
2.0501308e-06
2.2628212e-06
2.5022006e-06
2.7700691e-06
3.0696378e-06
3.4035123e-06
3.7749131e-06
4.1874764e-06
4.6453591e-06
5.153372e-06
5.7171719e-06
6.3435245e-06
7.0406602e-06
7.8187435e-06
8.6904517e-06
9.6716842e-06
1.078245e-05
1.2047885e-05
1.3499603e-05
1.5177106e-05
1.7129586e-05
1.9417945e-05
2.211722e-05
2.5319486e-05
2.9137581e-05
3.3708731e-05
3.9199632e-05
4.5811896e-05
5.3787762e-05
6.3415709e-05
7.5044636e-05
8.9091748e-05
0.00010693724
0.00012758063
0.00015249595
0.00018257066
0.00021888769
0.00026277518
0.00031884353
0.00038368882
0.00046250887
0.00055868349
0.00068315898
0.00082954308
0.0010111094
0.0012033622
0.0011999584
0.0011965568
0.0011933126
0.0011903417
0.0011876329
0.0011850666
0.0011825041
0.001179927
0.001177525
0.0011753226
0.0011734932
0.0011722066
0.0011716872
0.0011715708
0.0011719002
0.0011725327
0.001172795
0.0011725475
0.0011721323
0.0011717532
0.0011708904
1.1767298e-07
1.5335241e-06
1.3721742e-06
1.1141726e-06
1.3445594e-06
1.0376471e-06
1.1053636e-06
1.1443749e-06
1.2352636e-06
1.3477558e-06
1.4854128e-06
1.6449722e-06
1.8268113e-06
2.0320878e-06
2.2625664e-06
2.5203192e-06
2.8077e-06
3.1271171e-06
3.4817823e-06
3.8748294e-06
4.3099219e-06
4.7912442e-06
5.3236433e-06
5.9128279e-06
6.5656397e-06
7.2904191e-06
8.0974927e-06
8.9998357e-06
1.0013773e-05
1.1159939e-05
1.2464271e-05
1.395946e-05
1.568636e-05
1.7695846e-05
2.0050868e-05
2.2828956e-05
2.6125081e-05
3.0055073e-05
3.475965e-05
4.0409199e-05
4.7533553e-05
5.5799905e-05
6.5773035e-05
7.7813322e-05
9.2353271e-05
0.00010991413
0.00013112623
0.00015675468
0.00018772937
0.00022730499
0.00027303044
0.0003285131
0.00039603577
0.00047853973
0.00058552478
0.00071168313
0.00086880613
0.0010663166
0.0012010565
0.0011971858
0.0011933688
0.001189813
0.0011866603
0.0011839133
0.0011814809
0.0011793676
0.0011774916
0.0011757485
0.0011741671
0.0011728213
0.0011717963
0.0011712305
0.0011710747
0.0011711869
0.0011712336
0.001170923
0.0011702402
0.0011695013
0.0011688828
0.0011682122
1.2842456e-07
1.2052306e-06
1.2025863e-06
9.6770896e-07
9.8158969e-07
9.061329e-07
9.7060086e-07
1.0533119e-06
1.1658121e-06
1.2986724e-06
1.4527873e-06
1.627888e-06
1.8252132e-06
2.0463264e-06
2.2931356e-06
2.5677662e-06
2.8725857e-06
3.2102212e-06
3.5836031e-06
3.9960169e-06
4.4511792e-06
4.9533432e-06
5.5074463e-06
6.1193208e-06
6.7959844e-06
7.5431045e-06
8.3755421e-06
9.3046953e-06
1.0357144e-05
1.153864e-05
1.2882782e-05
1.442349e-05
1.6203088e-05
1.827418e-05
2.0701766e-05
2.3565746e-05
2.696387e-05
3.1015229e-05
3.586437e-05
4.168623e-05
4.8692037e-05
5.7136436e-05
6.7325956e-05
7.9627556e-05
9.4486165e-05
0.00011243897
0.00013533308
0.00016177577
0.00019376802
0.00023252794
0.00027957627
0.00033683925
0.00040678865
0.00049733297
0.00060415458
0.00073713793
0.00090436611
0.0011172081
0.0011983722
0.0011940741
0.0011899208
0.0011861645
0.0011829715
0.0011803796
0.0011784556
0.0011770018
0.0011757792
0.0011746576
0.0011735883
0.0011725769
0.0011716923
0.0011710229
0.0011705802
0.001170216
0.0011696912
0.0011689098
0.0011679418
0.0011670579
0.0011664206
0.0011659901
1.5062472e-07
1.2572946e-06
1.0348797e-06
7.3790273e-07
8.0057075e-07
8.0864117e-07
8.9568988e-07
1.002181e-06
1.1317764e-06
1.2800277e-06
1.4480917e-06
1.6369054e-06
1.8480049e-06
2.0830627e-06
2.3440016e-06
2.6329555e-06
2.9523015e-06
3.3046873e-06
3.6930707e-06
4.12077e-06
4.5915333e-06
5.1096401e-06
5.6800468e-06
6.3085968e-06
7.0023176e-06
7.7698239e-06
8.6218446e-06
9.5718857e-06
1.0637058e-05
1.1839035e-05
1.3205178e-05
1.4769934e-05
1.6576335e-05
1.8677861e-05
2.1140554e-05
2.404554e-05
2.7491993e-05
3.1600621e-05
3.6517806e-05
4.242055e-05
4.9522563e-05
5.8499659e-05
6.8907755e-05
8.1471345e-05
9.6647687e-05
0.00011499021
0.00013717385
0.00016402568
0.00019656582
0.00023606066
0.00028410586
0.00034589556
0.00041823793
0.00050733888
0.00061788335
0.00075631857
0.00093174534
0.0011573119
0.0011955269
0.0011908758
0.0011864901
0.0011826591
0.0011795822
0.0011774195
0.0011761276
0.0011753011
0.0011746994
0.0011741177
0.0011734426
0.0011726508
0.0011717831
0.0011709045
0.0011700403
0.0011691356
0.0011681049
0.0011669399
0.0011657979
0.0011649069
0.001164386
0.0011641763
1.4367208e-07
8.3879166e-07
8.4748725e-07
6.2872952e-07
6.8820764e-07
7.5107012e-07
8.574386e-07
9.814294e-07
1.1246269e-06
1.285948e-06
1.4666607e-06
1.6679892e-06
1.8914948e-06
2.1389098e-06
2.412185e-06
2.7134965e-06
3.0452707e-06
3.4101606e-06
3.8112482e-06
4.2518735e-06
4.7358298e-06
5.2674349e-06
5.8516775e-06
6.4944273e-06
7.202737e-06
7.9852502e-06
8.852737e-06
9.8187742e-06
1.0910103e-05
1.2133668e-05
1.3523761e-05
1.5115421e-05
1.6952346e-05
1.9088786e-05
2.1591664e-05
2.4543134e-05
2.8043579e-05
3.2215171e-05
3.7206125e-05
4.3195782e-05
5.0400723e-05
5.9082137e-05
6.9554889e-05
8.2201045e-05
9.7483019e-05
0.00011596383
0.00013833168
0.00016688479
0.000200002
0.00024023747
0.00028924442
0.00034913171
0.00042264013
0.0005134003
0.00062632514
0.00076823676
0.00094889757
0.0011826914
0.0011928127
0.0011879097
0.0011834062
0.0011796184
0.0011767772
0.0011751792
0.0011744365
0.0011741704
0.0011740878
0.0011739447
0.0011735796
0.0011729246
0.0011719892
0.0011708335
0.0011695291
0.0011681295