/*--------------------------------*- C++ -*----------------------------------*\
  =========                 |
  \\      /  F ield         | OpenFOAM: The Open Source CFD Toolbox
   \\    /   O peration     | Website:  https://openfoam.org
    \\  /    A nd           | Version:  12
     \\/     M anipulation  |
\*---------------------------------------------------------------------------*/
FoamFile
{
    format      ascii;
    class       volScalarField;
    location    "0.032";
    object      nut;
}
// * * * * * * * * * * * * * * * * * * * * * * * * * * * * * * * * * * * * * //

dimensions      [0 2 -1 0 0 0 0];

internalField   nonuniform List<scalar> 
16000
(
4.9597552e-07
1.019825e-05
1.9561415e-05
2.4751252e-05
1.9063226e-05
2.6243145e-05
1.847554e-05
2.5344577e-05
1.9683621e-05
2.7164948e-05
2.2795581e-05
2.6769385e-05
2.4378977e-05
2.5016575e-05
2.4162115e-05
2.4017123e-05
2.3759761e-05
2.3685693e-05
2.3692052e-05
2.3800548e-05
2.4002889e-05
2.4297915e-05
2.4683291e-05
2.5159425e-05
2.5728506e-05
2.6396949e-05
2.7173155e-05
2.8070516e-05
2.9105254e-05
3.02949e-05
3.1658959e-05
3.3223385e-05
3.5021687e-05
3.7095255e-05
3.9495117e-05
4.2282496e-05
4.5530834e-05
4.9328535e-05
5.3785811e-05
5.9040186e-05
6.5255461e-05
7.2628138e-05
8.1408513e-05
9.1907927e-05
0.00010450596
0.00011967084
0.00013799775
0.00016023611
0.00018733388
0.00022049549
0.00026125714
0.00031157689
0.00037393265
0.00045143883
0.00054797422
0.00066835587
0.00081855336
0.0010057844
0.0010410522
0.0010381954
0.0010352991
0.0010327653
0.0010311669
0.0010306533
0.0010307203
0.0010318821
0.0010340137
0.0010361233
0.0010376803
0.0010386119
0.0010390493
0.0010391435
0.0010388379
0.0010376348
0.0010331968
0.0010242321
0.0010140444
0.0010070466
0.0010047963
0.0010080823
4.4325016e-07
9.6844168e-06
2.0481804e-05
2.2555354e-05
1.724023e-05
2.363695e-05
1.6440143e-05
2.2291197e-05
1.7424203e-05
2.4073125e-05
2.0678446e-05
2.4214004e-05
2.2352168e-05
2.2738705e-05
2.2066271e-05
2.1872673e-05
2.1658804e-05
2.1583012e-05
2.1593518e-05
2.1695187e-05
2.1885303e-05
2.216204e-05
2.252396e-05
2.2971689e-05
2.3506787e-05
2.4135464e-05
2.4865212e-05
2.5708257e-05
2.6680201e-05
2.7798373e-05
2.9081205e-05
3.0552796e-05
3.2244645e-05
3.4195732e-05
3.6454621e-05
3.9079926e-05
4.2142459e-05
4.572698e-05
4.9938455e-05
5.490996e-05
6.0802373e-05
6.7805655e-05
7.6162282e-05
8.6177731e-05
9.8227513e-05
0.00011277202
0.00013039914
0.00015185247
0.00017807603
0.0002102737
0.00024998875
0.00029920341
0.00036044433
0.00043690762
0.00053257816
0.00065235476
0.00080216785
0.00098896874
0.0010405524
0.0010376406
0.0010347267
0.0010322547
0.0010308426
0.0010304696
0.0010306099
0.0010319744
0.0010341925
0.0010361929
0.00103754
0.0010382508
0.0010385169
0.0010384817
0.0010380097
0.0010363888
0.0010315918
0.0010221998
0.0010126283
0.0010063883
0.0010044764
0.0010075512
4.0310399e-07
9.2858414e-06
1.9404045e-05
2.060759e-05
1.54627e-05
2.0888467e-05
1.4669043e-05
1.9423821e-05
1.5693279e-05
2.1174636e-05
1.8888827e-05
2.1626298e-05
2.0304424e-05
2.0429735e-05
1.9911387e-05
1.969831e-05
1.9519773e-05
1.9451912e-05
1.9468323e-05
1.9567048e-05
1.9747549e-05
2.0008188e-05
2.0347997e-05
2.0768017e-05
2.1269308e-05
2.1858037e-05
2.2541011e-05
2.3329463e-05
2.4238139e-05
2.5284148e-05
2.6485258e-05
2.7864123e-05
2.9450593e-05
3.1281563e-05
3.3403402e-05
3.5872293e-05
3.8756743e-05
4.2138833e-05
4.6119219e-05
5.0826332e-05
5.6418986e-05
6.308264e-05
7.1053289e-05
8.0630783e-05
9.2188504e-05
0.00010618163
0.00012319287
0.00014396186
0.0001694296
0.00020079795
0.00023960874
0.00028784889
0.00034805692
0.00042344791
0.00051801356
0.00063658774
0.00078484673
0.00096916509
0.0010399333
0.0010369905
0.0010340931
0.0010317369
0.0010305612
0.0010302937
0.0010305804
0.0010322322
0.0010344566
0.0010362693
0.0010373613
0.0010378402
0.0010379357
0.0010377607
0.0010370826
0.0010349155
0.0010297502
0.0010201549
0.0010114394
0.001005976
0.0010042948
0.0010066915
3.5975468e-07
8.989108e-06
1.8439901e-05
1.8845432e-05
1.3906119e-05
1.848979e-05
1.3095772e-05
1.7010613e-05
1.4149236e-05
1.8700923e-05
1.7278518e-05
1.9325463e-05
1.8410627e-05
1.8339963e-05
1.7936892e-05
1.7723312e-05
1.7575117e-05
1.7519438e-05
1.7544048e-05
1.7643119e-05
1.7817338e-05
1.8065496e-05
1.8386873e-05
1.8782828e-05
1.9254251e-05
1.9807278e-05
2.0448225e-05
2.1187547e-05
2.2039137e-05
2.3019916e-05
2.414724e-05
2.5442508e-05
2.6934196e-05
2.8657336e-05
3.0656347e-05
3.2985183e-05
3.5710191e-05
3.8911225e-05
4.2685316e-05
4.7155997e-05
5.2480208e-05
5.8839621e-05
6.6464227e-05
7.5647224e-05
8.6759581e-05
0.00010025056
0.00011669561
0.00013682685
0.00016157619
0.0001921336
0.00023002071
0.00027719644
0.00033615548
0.00041004284
0.00050272345
0.00061878663
0.00076344564
0.00094227948
0.0010393431
0.0010364182
0.0010335809
0.0010313622
0.0010303816
0.0010302078
0.0010306491
0.0010325558
0.0010346558
0.0010362199
0.0010370474
0.0010373176
0.0010372648
0.0010369557
0.0010360607
0.0010335446
0.0010277311
0.0010182687
0.0010105038
0.0010058313
0.001004224
0.00100584
3.2053203e-07
8.757828e-06
1.7594516e-05
1.8718296e-05
1.3474549e-05
1.637937e-05
1.1706529e-05
1.4923164e-05
1.2818486e-05
1.6553952e-05
1.583913e-05
1.7235474e-05
1.6626465e-05
1.6420722e-05
1.6104503e-05
1.5905921e-05
1.5784451e-05
1.5742788e-05
1.5775429e-05
1.5875209e-05
1.6043239e-05
1.6279182e-05
1.6582602e-05
1.6954928e-05
1.7397555e-05
1.7916323e-05
1.8517421e-05
1.9210635e-05
2.0008998e-05
2.0929169e-05
2.1988257e-05
2.3206602e-05
2.4611512e-05
2.623635e-05
2.8123787e-05
3.0325733e-05
3.2906454e-05
3.5943887e-05
3.9532252e-05
4.3790007e-05
4.8872184e-05
5.4957382e-05
6.2270436e-05
7.1096959e-05
8.1805197e-05
9.4838256e-05
0.00011076285
0.00013030089
0.00015437038
0.00018414223
0.00022110357
0.00026715965
0.00032471541
0.00039676979
0.00048694844
0.00059945308
0.00073888305
0.00090988755
0.001038739
0.0010358924
0.0010331629
0.0010311016
0.0010302905
0.0010301542
0.0010309379
0.0010328933
0.0010347725
0.001036052
0.001036622
0.0010367103
0.0010365303
0.0010360882
0.0010349713
0.0010320725
0.0010255465
0.0010164794
0.0010097342
0.0010059123
0.0010042499
0.0010050513
2.9705732e-07
8.6136764e-06
1.689364e-05
1.8652052e-05
1.3387321e-05
1.4525473e-05
1.0574021e-05
1.3165102e-05
1.168766e-05
1.4721329e-05
1.4560902e-05
1.5381572e-05
1.4982317e-05
1.4698617e-05
1.4441229e-05
1.4261865e-05
1.415977e-05
1.4128326e-05
1.4165087e-05
1.426302e-05
1.4423055e-05
1.4645838e-05
1.4931297e-05
1.5280404e-05
1.5695561e-05
1.6182363e-05
1.674667e-05
1.7397817e-05
1.8147969e-05
1.9013437e-05
2.001121e-05
2.1160738e-05
2.2488366e-05
2.4026003e-05
2.5814807e-05
2.7904879e-05
3.035858e-05
3.3252157e-05
3.6677926e-05
4.0749606e-05
4.5619944e-05
5.1465177e-05
5.8506279e-05
6.7020496e-05
7.7372899e-05
9.0000249e-05
0.00010545887
0.0001244575
0.00014789461
0.00017691437
0.00021295568
0.0002578478
0.000313869
0.0003838153
0.00047099614
0.00057913974
0.00071216618
0.00087378555
0.0010381374
0.0010354425
0.001032867
0.0010309678
0.0010302347
0.0010301641
0.0010313877
0.0010331692
0.0010347685
0.0010357488
0.0010360834
0.001036019
0.00103573
0.0010351428
0.0010337446
0.0010303377
0.0010232581
0.0010148051
0.0010090784
0.0010061598
0.0010043151
0.0010043122
2.7113876e-07
8.5343324e-06
1.6355355e-05
1.7880991e-05
1.3250275e-05
1.2877433e-05
1.0903204e-05
1.1974486e-05
1.1513338e-05
1.3177478e-05
1.3425764e-05
1.3746472e-05
1.3465807e-05
1.3146023e-05
1.2922468e-05
1.2760459e-05
1.2671427e-05
1.2646927e-05
1.2685391e-05
1.2780636e-05
1.2932827e-05
1.3143353e-05
1.3411979e-05
1.3661215e-05
1.4042302e-05
1.4492171e-05
1.5016083e-05
1.5622627e-05
1.6322853e-05
1.7132326e-05
1.8067814e-05
1.9147843e-05
2.0397789e-05
2.1848072e-05
2.3538314e-05
2.5516801e-05
2.7843884e-05
3.0593867e-05
3.3857568e-05
3.8026306e-05
4.2715883e-05
4.8356369e-05
5.5166411e-05
6.3414717e-05
7.3462223e-05
8.5739527e-05
0.00010079143
0.00011931096
0.00014217175
0.00017048469
0.00020562942
0.00024934368
0.00030375779
0.00037143809
0.00045535
0.00055872816
0.00068481968
0.0008364596
0.0010153834
0.0010350813
0.0010327006
0.0010309963
0.0010303294
0.0010306553
0.0010318151
0.001033336
0.0010346263
0.0010353148
0.001035446
0.001035257
0.0010348629
0.0010340904
0.0010323331
0.0010283891
0.0010209514
0.0010132705
0.0010084738
0.0010064209
0.0010049107
0.0010035556
2.4343391e-07
8.49507e-06
1.5908935e-05
1.6432539e-05
1.2836181e-05
1.1291311e-05
1.0027552e-05
1.0851541e-05
1.0310129e-05
1.1827085e-05
1.2310116e-05
1.2258557e-05
1.2024877e-05
1.1708141e-05
1.1508695e-05
1.1366258e-05
1.1290783e-05
1.1274814e-05
1.1249079e-05
1.1327477e-05
1.1462128e-05
1.1655301e-05
1.1903685e-05
1.2207726e-05
1.2572375e-05
1.3001393e-05
1.3500099e-05
1.4077012e-05
1.4742609e-05
1.5512007e-05
1.6402164e-05
1.7431095e-05
1.8623688e-05
2.0009372e-05
2.1626813e-05
2.3523069e-05
2.5757179e-05
2.8402105e-05
3.1547924e-05
3.530582e-05
3.981337e-05
4.524656e-05
5.1822478e-05
6.0302488e-05
7.0102304e-05
8.2092969e-05
9.6807402e-05
0.00011492072
0.00013727714
0.00016494908
0.00019924807
0.00024181
0.00029460706
0.00035997029
0.00044052683
0.00053904154
0.00065814212
0.00079990507
0.00096528437
0.001034809
0.0010326511
0.0010311648
0.0010306406
0.0010310544
0.0010321165
0.0010333694
0.0010343414
0.0010347636
0.001034726
0.0010344316
0.0010339126
0.0010328935
0.001030712
0.0010262547
0.0010187274
0.0010118869
0.0010078396
0.001006385
0.0010056502
0.0010026286
2.2322472e-07
8.4631028e-06
1.5491986e-05
1.4460516e-05
1.0637741e-05
9.8685778e-06
8.1936881e-06
9.2358605e-06
9.3821407e-06
1.0675754e-05
1.1154566e-05
1.0865584e-05
1.0651392e-05
1.0365274e-05
1.0190636e-05
1.0001312e-05
9.915923e-06
9.8951989e-06
9.9313057e-06
1.0022601e-05
1.0163708e-05
1.0355782e-05
1.0599329e-05
1.0894346e-05
1.1245439e-05
1.1657198e-05
1.2135026e-05
1.2687459e-05
1.3324567e-05
1.4060986e-05
1.4913938e-05
1.5901136e-05
1.704724e-05
1.8380942e-05
1.9940237e-05
2.1771341e-05
2.3932356e-05
2.6495307e-05
2.9549204e-05
3.3203765e-05
3.7595988e-05
4.2898319e-05
4.9328511e-05
5.7145944e-05
6.6686145e-05
7.8372842e-05
9.3542838e-05
0.000111333
0.00013327112
0.00016038728
0.00019391936
0.0002353955
0.00028662719
0.00034971649
0.00042697631
0.00052075351
0.00063315189
0.00076566758
0.00091879551
0.0010346044
0.0010326742
0.0010313894
0.0010309614
0.0010313549
0.0010322707
0.0010332569
0.0010339244
0.001034116
0.0010339396
0.0010335401
0.0010328524
0.0010315131
0.0010288545
0.0010239255
0.0010166315
0.0010106685
0.0010073007
0.0010062012
0.0010060891
0.0010023011
2.0577352e-07
8.4272129e-06
1.473557e-05
1.2518647e-05
8.6701277e-06
8.8099881e-06
7.0984116e-06
8.3590102e-06
8.7106499e-06
9.5536534e-06
9.9922193e-06
9.5803341e-06
9.3747667e-06
9.0398131e-06
8.8562441e-06
8.7402817e-06
8.6889918e-06
8.6934937e-06
8.7478465e-06
8.8493964e-06
8.9958673e-06
9.1886245e-06
9.4287155e-06
9.7165717e-06
1.005713e-05
1.0455366e-05
1.0916821e-05
1.145017e-05
1.2065216e-05
1.2776132e-05
1.3600439e-05
1.4555846e-05
1.5666996e-05
1.6962094e-05
1.8478757e-05
2.0262709e-05
2.2371483e-05
2.4876588e-05
2.7866745e-05
3.1451218e-05
3.5765804e-05
4.0980618e-05
4.7313782e-05
5.502039e-05
6.4431679e-05
7.5963237e-05
9.0133073e-05
0.00010755981
0.00013020305
0.00015686561
0.00018973553
0.00023023113
0.00028000593
0.00034094526
0.00041508094
0.00050441237
0.00061065319
0.00073495301
0.00087769345
0.0010344254
0.0010327102
0.0010315929
0.0010312334
0.0010315581
0.0010322814
0.0010329988
0.0010333951
0.0010333924
0.0010330926
0.0010325639
0.0010316427
0.0010299076
0.0010267475
0.0010214662
0.0010146589
0.0010096163
0.0010068944
0.0010059712
0.0010064267
0.0010019746
1.8968949e-07
8.3859161e-06
1.1704885e-05
1.069278e-05
7.0236248e-06
7.8713293e-06
6.438529e-06
7.5022616e-06
8.1535184e-06
8.533293e-06
8.8451273e-06
8.3174339e-06
8.0638012e-06
7.8305631e-06
7.6949228e-06
7.6183006e-06
7.5959526e-06
7.621777e-06
7.690992e-06
7.802563e-06
7.9544635e-06
8.1485346e-06
8.3868191e-06
8.6701346e-06
9.0034714e-06
9.3922353e-06
9.8422224e-06
1.0362303e-05
1.0962206e-05
1.1655712e-05
1.2397894e-05
1.3321434e-05
1.439806e-05
1.5655418e-05
1.7130667e-05
1.8868981e-05
2.0927262e-05
2.3376371e-05
2.6304616e-05
2.9820745e-05
3.4059933e-05
3.9496589e-05
4.5783352e-05
5.3438493e-05
6.2787682e-05
7.4237689e-05
8.8299678e-05
0.00010557593
0.00012681766
0.00015294545
0.00018675023
0.00022640393
0.00027488293
0.00033387503
0.00040517336
0.00049051536
0.00059137727
0.00070879683
0.00084331446
0.0009951371
0.0010327182
0.0010317311
0.0010314091
0.0010316326
0.0010321505
0.0010326096
0.0010327728
0.0010326029
0.0010321738
0.0010314661
0.0010302317
0.0010280373
0.0010243951
0.001018931
0.0010127891
0.0010086639
0.0010065074
0.0010057063
0.0010067717
0.0010020968
1.7558184e-07
8.3421051e-06
9.2168366e-06
8.8259497e-06
6.0232499e-06
6.9705965e-06
5.9148162e-06
6.7593518e-06
7.5893841e-06
7.5790632e-06
7.5943187e-06
7.1430317e-06
6.9358125e-06
6.7642604e-06
6.6691905e-06
6.6251503e-06
6.6273346e-06
6.6716442e-06
6.7543308e-06
6.8752345e-06
7.0331091e-06
7.2299869e-06
7.4686565e-06
7.7504311e-06
8.0803908e-06
8.4285556e-06
8.8650205e-06
9.3706224e-06
9.9549069e-06
1.0631146e-05
1.1415397e-05
1.232851e-05
1.3394252e-05
1.4640198e-05
1.6103611e-05
1.7829782e-05
1.9875804e-05
2.2312738e-05
2.522954e-05
2.8735642e-05
3.2967027e-05
3.8094453e-05
4.4328585e-05
5.1924194e-05
6.1201703e-05
7.3188513e-05
8.7227049e-05
0.00010444552
0.00012556106
0.00015145268
0.00018315288
0.00022395333
0.00027134568
0.00032867169
0.00039753777
0.00047951076
0.00057596892
0.00068801107
0.00081647515
0.00096210681
0.0010326662
0.0010317765
0.0010314559
0.0010315623
0.0010318789
0.0010321068
0.0010320682
0.0010317414
0.0010311506
0.0010301903
0.0010285595
0.0010258703
0.0010218136
0.0010163487
0.0010109791
0.0010077079
0.0010060201
0.0010054174
0.001006895
0.0010020044
1.6296896e-07
8.2924417e-06
7.2787212e-06
7.7494291e-06
5.3529737e-06
6.1566581e-06
5.4589219e-06
6.0977793e-06
6.9142285e-06
6.4941311e-06
6.4611794e-06
6.1129444e-06
5.9482163e-06
5.8263771e-06
5.7658258e-06
5.7496515e-06
5.7734342e-06
5.8345812e-06
5.9302013e-06
6.0608507e-06
6.225983e-06
6.4277672e-06
6.6417226e-06
6.9191973e-06
7.2443157e-06
7.62183e-06
8.0595746e-06
8.566034e-06
9.1509433e-06
9.8277317e-06
1.0612542e-05
1.1525904e-05
1.2592735e-05
1.384081e-05
1.53077e-05
1.7039121e-05
1.90928e-05
2.1540373e-05
2.4471955e-05
2.7998412e-05
3.2256334e-05
3.7416322e-05
4.3693255e-05
5.1339933e-05
6.0674355e-05
7.2089664e-05
8.6069351e-05
0.00010318902
0.0001252315
0.00015100573
0.00018243322
0.00022063682
0.00026942877
0.00032543981
0.00039238268
0.00047173721
0.00056488408
0.00067306866
0.00079744419
0.00093918214
0.0010325245
0.0010317035
0.0010313546
0.0010313434
0.0010314712
0.0010314943
0.0010312734
0.0010307765
0.0010299645
0.001028663
0.0010265662
0.001023388
0.0010190253
0.0010137262
0.0010091814
0.0010066537
0.0010053624
0.0010050364
0.0010061519
0.0010019683
1.5168478e-07
8.225512e-06
5.8012598e-06
6.7587427e-06
4.7673021e-06
5.4352324e-06
5.0703392e-06
5.4268215e-06
6.0583731e-06
5.54981e-06
5.4638014e-06
5.2092038e-06
5.0843236e-06
5.0038009e-06
4.9736907e-06
4.9824464e-06
5.0262474e-06
5.1036168e-06
5.2124799e-06
5.3340747e-06
5.5019736e-06
5.7062957e-06
5.9496063e-06
6.2352447e-06
6.5679776e-06
6.9529399e-06
7.397872e-06
7.9118768e-06
8.5048795e-06
9.1904164e-06
9.9846708e-06
1.0908291e-05
1.1932822e-05
1.3183169e-05
1.465326e-05
1.6389075e-05
1.8449024e-05
2.0905143e-05
2.3848438e-05
2.739131e-05
3.1671411e-05
3.7138427e-05
4.3501104e-05
5.1248708e-05
6.0696425e-05
7.2229424e-05
8.6326418e-05
0.00010355062
0.00012456839
0.00015154731
0.00018285087
0.00022074373
0.00026640614
0.00032421866
0.0003898155
0.00046736912
0.0005583217
0.0006640838
0.00078608695
0.00092583967
0.0010322761
0.0010314938
0.0010310888
0.0010309614
0.0010309156
0.0010307536
0.0010303512
0.0010296439
0.0010285306
0.0010268026
0.0010242029
0.0010205884
0.0010160563
0.0010110725
0.0010073689
0.0010054697
0.0010045228
0.0010043902
0.0010052971
0.001001969
1.4161937e-07
8.1247081e-06
4.6704258e-06
5.8775648e-06
4.2406668e-06
4.7919026e-06
4.7300274e-06
4.6970506e-06
5.1889099e-06
4.7049023e-06
4.5968236e-06
4.4194486e-06
4.3324915e-06
4.2875937e-06
4.285099e-06
4.3168734e-06
4.3798282e-06
4.4557271e-06
4.5726312e-06
4.7217972e-06
4.9042489e-06
5.1217413e-06
5.3775587e-06
5.6752524e-06
6.0201674e-06
6.4176954e-06
6.8756187e-06
7.3813778e-06
7.9831377e-06
8.67781e-06
9.4814974e-06
1.0414703e-05
1.1502525e-05
1.2776496e-05
1.4274352e-05
1.6042865e-05
1.8142047e-05
2.0645234e-05
2.3645049e-05
2.7256702e-05
3.1620167e-05
3.6911003e-05
4.3340412e-05
5.1166104e-05
6.0701633e-05
7.2932354e-05
8.72138e-05
0.00010461792
0.0001257942
0.00015150302
0.00018433694
0.00022212533
0.00026750904
0.00032173317
0.00038984984
0.00046643166
0.00055627677
0.00066095846
0.0007821544
0.00092168648
0.0010318827
0.0010311123
0.0010306376
0.0010303848
0.001030176
0.0010298339
0.0010292262
0.0010282456
0.0010267477
0.0010245349
0.0010214449
0.001017489
0.0010129305
0.0010084436
0.0010055598
0.0010042253
0.0010036993
0.0010037672
0.001004351
0.0010014049
1.3268097e-07
7.850959e-06
3.8480105e-06
5.0939552e-06
3.7727801e-06
4.2218271e-06
4.1978515e-06
4.0365884e-06
4.3466146e-06
3.9559417e-06
3.852007e-06
3.7360985e-06
3.6847474e-06
3.6712631e-06
3.6940319e-06
3.7336595e-06
3.8085766e-06
3.9144295e-06
4.0504685e-06
4.2170597e-06
4.4158902e-06
4.6492585e-06
4.9208835e-06
5.234605e-06
5.5834966e-06
5.994342e-06
6.465873e-06
7.0070595e-06
7.6291594e-06
8.3455967e-06
9.1727214e-06
1.0131622e-05
1.1248097e-05
1.255444e-05
1.4090315e-05
1.590339e-05
1.8055674e-05
2.0622323e-05
2.3697515e-05
2.7400062e-05
3.1871191e-05
3.728915e-05
4.3870298e-05
5.1872332e-05
6.1610552e-05
7.346284e-05
8.866034e-05
0.00010631814
0.00012773968
0.00015367627
0.00018496951
0.00022471802
0.00027012693
0.00032429149
0.00038857656
0.00046888479
0.00055868762
0.00066361314
0.00078558821
0.00092676842
0.0010313088
0.0010305181
0.0010299603
0.001029567
0.0010291883
0.0010286477
0.0010277883
0.0010264648
0.001024522
0.0010218176
0.0010183091
0.0010141435
0.0010097073
0.0010059807
0.0010038661
0.0010030876
0.0010030374
0.0010032228
0.0010033301
0.001000712
1.2492534e-07
7.416588e-06
3.3756377e-06
4.4016627e-06
3.355542e-06
3.5614994e-06
3.7253288e-06
3.4301425e-06
3.5821193e-06
3.3037085e-06
3.2203551e-06
3.1529469e-06
3.133996e-06
3.148551e-06
3.1786211e-06
3.2477011e-06
3.3463483e-06
3.4733941e-06
3.6290497e-06
3.814447e-06
4.03184e-06
4.2838121e-06
4.5656449e-06
4.8959809e-06
5.2740982e-06
5.706244e-06
6.1999223e-06
6.76433e-06
7.4108412e-06
8.1535549e-06
9.009131e-06
9.9992669e-06
1.1150541e-05
1.2496332e-05
1.401756e-05
1.5869223e-05
1.8067161e-05
2.0688592e-05
2.3972676e-05
2.7784718e-05
3.2385802e-05
3.7956045e-05
4.47172e-05
5.2928747e-05
6.2905874e-05
7.5028125e-05
8.9745323e-05
0.00010758724
0.00013032728
0.00015660725
0.00018824641
0.0002262205
0.00027421505
0.00032876738
0.00039353889
0.00047472084
0.00056557683
0.00067215272
0.00079667084
0.00094167741
0.0010305196
0.0010296656
0.0010289913
0.0010284375
0.001027862
0.0010270825
0.0010259167
0.0010242002
0.0010218025
0.0010186671
0.0010148718
0.001010689
0.0010066685
0.0010038747
0.0010024853
0.0010022451
0.0010026087
0.0010029381
0.0010028288
0.0010002459
1.1865582e-07
6.7073362e-06
2.9724353e-06
3.7741267e-06
2.99277e-06
2.9527359e-06
3.2532958e-06
2.8797012e-06
2.9250115e-06
2.7458206e-06
2.6906364e-06
2.6623935e-06
2.6646772e-06
2.6970622e-06
2.7625561e-06
2.8569419e-06
2.978319e-06
3.1265919e-06
3.302758e-06
3.5084041e-06
3.7406624e-06
4.0114092e-06
4.3208428e-06
4.6733919e-06
5.0743392e-06
5.5300783e-06
6.048369e-06
6.638655e-06
7.3125252e-06
8.0665352e-06
8.9481153e-06
9.9661054e-06
1.1147725e-05
1.2526959e-05
1.4146142e-05
1.6057946e-05
1.8327119e-05
2.1034168e-05
2.4278167e-05
2.8180301e-05
3.2889219e-05
3.8863233e-05
4.5827089e-05
5.4276038e-05
6.4525686e-05
7.695663e-05
9.2019979e-05
0.00011024818
0.00013347906
0.00016022396
0.00019238004
0.00023093829
0.00027973998
0.00033515059
0.00040106065
0.00047923438
0.00057709544
0.00068688287
0.00081597634
0.0009674139
0.0010294627
0.0010284926
0.0010276612
0.0010269101
0.0010260972
0.0010250323
0.0010235225
0.0010214111
0.0010186178
0.0010151808
0.0010112874
0.0010073376
0.0010041724
0.0010022877
0.0010016006
0.0010018971
0.0010025643
0.0010030804
0.0010030152
0.001000201
1.1360791e-07
4.5799402e-06
2.614255e-06
3.1919075e-06
2.5402315e-06
2.442221e-06
2.7575845e-06
2.3895905e-06
2.3783168e-06
2.2757705e-06
2.2519166e-06
2.2497562e-06
2.2807743e-06
2.3444013e-06
2.436459e-06
2.554561e-06
2.6980777e-06
2.8676207e-06
3.061777e-06
3.2870899e-06
3.544694e-06
3.8376856e-06
4.169821e-06
4.5456554e-06
4.9706681e-06
5.4514447e-06
5.9959567e-06
6.6037398e-06
7.3030703e-06
8.1016013e-06
9.0175528e-06
1.0073466e-05
1.1297632e-05
1.2725412e-05
1.4400897e-05
1.6378679e-05
1.8726087e-05
2.1526136e-05
2.4881026e-05
2.8915983e-05
3.3783903e-05
3.9669947e-05
4.7146773e-05
5.5854943e-05
6.6405134e-05
7.9181301e-05
9.4638713e-05
0.00011331649
0.00013585087
0.00016445242
0.0001973058
0.0002367061
0.00028387357
0.00034343307
0.00041117013
0.00049185163
0.00059344719
0.00070818988
0.0008442038
0.0010052009
0.0010280856
0.0010269359
0.0010258954
0.0010249045
0.001023818
0.0010224431
0.0010205964
0.0010181539
0.0010150955
0.0010115489
0.0010078243
0.001004577
0.0010023957
0.0010013455
0.0010012859
0.0010020244
0.001002909
0.0010034085
0.0010031762
0.0010004379
1.080639e-07
3.7704175e-06
2.2342393e-06
2.6569751e-06
2.170349e-06
2.0164919e-06
2.2473278e-06
1.9598493e-06
1.933821e-06
1.8890711e-06
1.892209e-06
1.9219412e-06
1.9856364e-06
2.076744e-06
2.1928309e-06
2.3330261e-06
2.497636e-06
2.685768e-06
2.9025969e-06
3.1493296e-06
3.4286879e-06
3.7439615e-06
4.0990746e-06
4.4987025e-06
4.9484447e-06
5.4550404e-06
6.0197338e-06
6.6633244e-06
7.3933527e-06
8.2249047e-06
9.1768759e-06
1.0272735e-05
1.1541844e-05
1.3020895e-05
1.4755759e-05
1.6803417e-05
1.9233926e-05
2.2133143e-05
2.5606514e-05
2.9782418e-05
3.4817549e-05
4.1198466e-05
4.8621998e-05
5.7605627e-05
6.8478479e-05
8.1630498e-05
9.7525035e-05
0.00011671229
0.00014114044
0.00016920701
0.00020293908
0.0002434402
0.00029202415
0.00035355704
0.00042383986
0.00050802572
0.00061473564
0.000736355
0.00088197315
0.0010278
0.0010263321
0.001024938
0.0010236397
0.0010223797
0.0010210134
0.0010193537
0.0010172395
0.0010145941
0.0010114637
0.0010080763
0.0010049695
0.0010026923
0.0010013606
0.0010010225
0.0010013782
0.0010024012
0.0010032968
0.0010036086
0.0010032844
0.0010007598
1.0399972e-07
3.0127121e-06
1.9067621e-06
2.1229847e-06
1.8645017e-06
1.6525007e-06
1.7755133e-06
1.5953493e-06
1.583631e-06
1.5843907e-06
1.6150569e-06
1.6790356e-06
1.7701859e-06
1.8848781e-06
2.0221878e-06
2.1823723e-06
2.3653567e-06
2.5745204e-06
2.8115318e-06
3.0788606e-06
3.3794528e-06
3.7167463e-06
4.0947587e-06
4.5182324e-06
4.9928373e-06
5.521471e-06
6.1183732e-06
6.7911574e-06
7.5522897e-06
8.41734e-06
9.4059807e-06
1.054264e-05
1.1857875e-05
1.338977e-05
1.5185836e-05
1.7305286e-05
1.9821351e-05
2.282269e-05
2.6418518e-05
3.0740981e-05
3.6188245e-05
4.2530673e-05
5.0195904e-05
5.9466161e-05
7.0676956e-05
8.4228593e-05
0.00010059716
0.00012035112
0.00014546804
0.00017437128
0.00020915533
0.00025100509
0.00030135967
0.00036533623
0.00043886867
0.00052755438
0.00064078871
0.00077133319
0.00092955409
0.0010259097
0.0010241583
0.0010224712
0.0010208907
0.0010193682
0.001017767
0.0010159124
0.0010136674
0.0010110029
0.0010080679
0.0010052856
0.0010030854
0.0010016003
0.0010010785
0.001001023
0.0010017063
0.001002687
0.0010034556
0.0010037091
0.0010030378
0.0010010193
1.0158906e-07
2.3463221e-06
1.621811e-06
1.6161185e-06
1.5821898e-06
1.341126e-06
1.3912634e-06
1.3039389e-06
1.3203795e-06
1.3531812e-06
1.4185236e-06
1.5094371e-06
1.622775e-06
1.7571462e-06
1.9128301e-06
2.0908972e-06
2.292208e-06
2.5199696e-06
2.776081e-06
3.0632144e-06
3.3844288e-06
3.7432399e-06
4.1437172e-06
4.5906388e-06
5.089703e-06
5.6478173e-06
6.2734682e-06
6.9771625e-06
7.762653e-06
8.6609105e-06
9.6859483e-06
1.086322e-05
1.222457e-05
1.3809641e-05
1.5667586e-05
1.7933054e-05
2.0554581e-05
2.3681658e-05
2.7427809e-05
3.1930556e-05
3.7355841e-05
4.3903085e-05
5.1812767e-05
6.1373077e-05
7.2929095e-05
8.6894102e-05
0.00010376195
0.00012520889
0.00014995455
0.00017979009
0.000215767
0.00025917174
0.00031454103
0.00037840145
0.00045580103
0.00054989003
0.000670965
0.0008124775
0.00098646831
0.001023634
0.0010215568
0.0010195648
0.0010177231
0.0010159957
0.0010142578
0.0010123554
0.0010101871
0.0010077603
0.0010054673
0.0010034837
0.0010020105
0.0010012705
0.0010010861
0.0010012495
0.0010020138
0.0010027552
0.0010031568
0.0010030668
0.0010022777
0.0010008558
1.0166829e-07
1.7805191e-06
1.3815096e-06
1.2286095e-06
1.2972134e-06
1.0802843e-06
1.1089534e-06
1.0880343e-06
1.1338375e-06
1.1973075e-06
1.2877268e-06
1.3990094e-06
1.5300202e-06
1.6808951e-06
1.8527352e-06
2.0471058e-06
2.2655692e-06
2.5108518e-06
2.7851937e-06
3.0913495e-06
3.4324256e-06
3.8119687e-06
4.2340771e-06
4.7035616e-06
5.2261665e-06
5.8088672e-06
6.4602662e-06
7.1910803e-06
8.0147405e-06
8.9481432e-06
1.0012515e-05
1.1234557e-05
1.2647648e-05
1.4293376e-05
1.6223266e-05
1.8500836e-05
2.1204082e-05
2.4428644e-05
2.8290906e-05
3.2932328e-05
3.8524096e-05
4.5272006e-05
5.3421259e-05
6.3268488e-05
7.5168506e-05
9.0289796e-05
0.00010779207
0.00012892418
0.00015444118
0.0001852644
0.00022252353
0.00027012967
0.00032520559
0.00039215923
0.00047385877
0.0005795905
0.00070393333
0.00085815608
0.0010234135
0.0010209877
0.0010185806
0.0010163191
0.0010142892
0.0010124658
0.0010107343
0.0010089687
0.0010071494
0.0010054343
0.0010038378
0.0010025096
0.0010015919
0.0010012623
0.0010012134
0.0010015699
0.0010022122
0.0010026336
0.0010026551
0.0010023362
0.0010017218
0.0010007658
1.0508119e-07
1.3190446e-06
1.1825012e-06
9.4525677e-07
1.1313887e-06
8.6524805e-07
9.148413e-07
9.4110797e-07
1.0106241e-06
1.0982392e-06
1.2068312e-06
1.3337594e-06
1.479391e-06
1.6447437e-06
1.8313381e-06
2.0409536e-06
2.2756073e-06
2.5373709e-06
2.8289796e-06
3.1531181e-06
3.5129153e-06
3.9119402e-06
4.3543196e-06
4.8449048e-06
5.3894989e-06
5.9951634e-06
6.6706274e-06
7.4268453e-06
8.2775894e-06
9.2402632e-06
1.0336744e-05
1.1594612e-05
1.3048358e-05
1.4740955e-05
1.6725617e-05
1.9067932e-05
2.1848299e-05
2.5164854e-05
2.9136901e-05
3.3909003e-05
3.9928071e-05
4.6917216e-05
5.5353607e-05
6.5543684e-05
7.7855367e-05
9.2732222e-05
0.00011071081
0.00013244258
0.00015871948
0.00019230143
0.00023112391
0.00027824716
0.00033561316
0.00040572216
0.00049663677
0.00060386244
0.0007374081
0.00090528602
0.001020816
0.0010180485
0.0010153528
0.0010128986
0.0010107914
0.0010090166
0.0010074833
0.0010061876
0.001005058
0.0010040008
0.0010030375
0.0010022333
0.0010016715
0.0010014611
0.0010015709
0.0010019124
0.0010022446
0.001002347
0.0010021198
0.0010016517
0.001001029
0.0010003679
1.1193648e-07
1.0135399e-06
1.0089807e-06
8.0005935e-07
8.0481954e-07
7.3709528e-07
7.8475956e-07
8.4776069e-07
9.3533522e-07
1.0398618e-06
1.1621085e-06
1.3019341e-06
1.4604213e-06
1.6389229e-06
1.8390782e-06
2.0627116e-06
2.3118526e-06
2.588752e-06
2.8959177e-06
3.2361583e-06
3.6126464e-06
4.029007e-06
4.4894398e-06
4.9988962e-06
5.5633214e-06
6.1875805e-06
6.8841136e-06
7.6625777e-06
8.5452e-06
9.5371142e-06
1.0666507e-05
1.1961971e-05
1.3459213e-05
1.5202639e-05
1.7247167e-05
1.9660358e-05
2.2524935e-05
2.5941766e-05
3.003338e-05
3.4948187e-05
4.0865514e-05
4.80017e-05
5.6617325e-05
6.7024536e-05
7.9601986e-05
9.4807097e-05
0.00011420384
0.00013662457
0.00016376573
0.00019666603
0.00023662218
0.00028527608
0.00034473341
0.00042171089
0.00051256238
0.00062568443
0.00076795798
0.00094906601
0.0010180315
0.0010149639
0.0010120548
0.0010095099
0.0010074531
0.0010058977
0.0010048857
0.0010042435
0.001003763
0.0010033321
0.0010029079
0.0010025013
0.0010021805
0.0010020246
0.001002046
0.0010021427
0.0010021445
0.0010019687
0.0010015813
0.0010010681
0.0010005389
0.0010001484
1.2709563e-07
1.0278551e-06
8.4191671e-07
5.9307478e-07
6.3882036e-07
6.4176426e-07
7.0839983e-07
7.9111121e-07
8.9282403e-07
1.0100846e-06
1.143896e-06
1.2950988e-06
1.4650179e-06
1.6550969e-06
1.8669885e-06
2.1025252e-06
2.3637453e-06
2.6529164e-06
2.9725684e-06
3.3255361e-06
3.7150168e-06
4.1446554e-06
4.6186653e-06
5.1420041e-06
5.7206214e-06
6.3617959e-06
7.0745778e-06
7.8703463e-06
8.7635079e-06
9.7723081e-06
1.0919786e-05
1.2234959e-05
1.3754107e-05
1.552235e-05
1.759546e-05
2.0042006e-05
2.294589e-05
2.6409329e-05
3.0556392e-05
3.5537236e-05
4.1533308e-05
4.9114612e-05
5.791208e-05
6.8537942e-05
8.1381546e-05
9.6914488e-05
0.0001157123
0.00013848068
0.00016609055
0.00019962336
0.00024044182
0.00029295894
0.0003544903
0.00043031043
0.00052441333
0.00064229742
0.00079172915
0.00098392786
0.0010152349
0.0010119352
0.0010089039
0.0010063757
0.0010045013
0.0010033981
0.0010030108
0.0010029902
0.0010031251
0.0010032424
0.00100325
0.0010031359
0.001002942
0.0010027268
0.001002516
0.0010022802
0.0010019672
0.0010015499
0.0010010648
0.0010005828
0.0010001968
0.0010000215
1.1665761e-07
6.6399421e-07
6.6695278e-07
4.9106537e-07
5.3547154e-07
5.8330579e-07
6.6579159e-07
7.6281457e-07
8.7569954e-07
1.0037047e-06
1.1479287e-06
1.3094451e-06
1.4896016e-06
1.6898905e-06
1.9119877e-06
2.1577592e-06
2.4292827e-06
2.7288296e-06
3.0590289e-06
3.4227319e-06
3.8231718e-06
4.2640234e-06
4.7495248e-06
5.284653e-06
5.875375e-06
6.5289899e-06
7.2545765e-06
8.0635662e-06
8.9782848e-06
1.0004867e-05
1.1172042e-05
1.2509312e-05
1.4053499e-05
1.5850359e-05
1.7956384e-05
2.0440999e-05
2.3389111e-05
2.6904161e-05
3.1111767e-05
3.6164073e-05
4.2244985e-05
4.9576483e-05
5.8426393e-05
6.9119963e-05
8.2051194e-05
9.7700229e-05
0.0001166545
0.00014086253
0.00016896857
0.00020314229
0.00024479793
0.00029573913
0.0003583087
0.00043560823
0.0005318335
0.00065281284
0.00080689357
0.0010063734
0.0010126565
0.0010092114
0.0010061524
0.0010037343
0.001002134
0.0010015862
0.0010017417
0.0010022749
0.00100293
0.0010034997
0.0010038542
0.0010039448
0.0010037853
0.0010034294
0.0010029428