/*--------------------------------*- C++ -*----------------------------------*\
  =========                 |
  \\      /  F ield         | OpenFOAM: The Open Source CFD Toolbox
   \\    /   O peration     | Website:  https://openfoam.org
    \\  /    A nd           | Version:  12
     \\/     M anipulation  |
\*---------------------------------------------------------------------------*/
FoamFile
{
    format      ascii;
    class       volScalarField;
    location    "0.032";
    object      omega;
}
// * * * * * * * * * * * * * * * * * * * * * * * * * * * * * * * * * * * * * //

dimensions      [0 0 -1 0 0 0 0];

internalField   nonuniform List<scalar> 
16000
(
1092.456
2203.0088
1082.6713
655.3514
461.5191
320.51654
243.23221
183.54082
147.78261
119.66672
101.639
86.991066
76.120865
67.045917
59.63995
53.401696
48.136067
43.645389
39.786904
36.447359
33.541134
30.996185
28.753416
26.765755
24.995198
23.412202
21.992294
20.716537
19.56882
18.534433
17.600138
16.755508
15.992227
15.303252
14.682543
14.124494
13.623832
13.175609
12.775685
12.420552
12.106294
11.828831
11.585159
11.372514
11.18779
11.027875
10.890346
10.772923
10.673458
10.589953
10.520565
10.463486
10.416682
10.377879
10.344688
10.315199
10.288743
10.265993
10.24704
10.226967
10.205146
10.18622
10.174547
10.171177
10.171796
10.181639
10.19944
10.216971
10.230347
10.239026
10.244047
10.246525
10.246237
10.240564
10.21442
10.14387
10.068778
10.022673
10.012759
10.047437
1134.139
2193.7281
1075.7826
655.86981
462.06513
323.95623
244.57986
185.66251
148.78011
120.82158
102.28163
87.629825
76.547204
67.413504
59.914109
53.619048
48.301261
43.771424
39.881984
36.517599
33.59191
31.032394
28.778986
26.783831
25.007823
23.421009
21.998195
20.720072
19.570617
18.535348
17.600737
16.755975
15.992593
15.303427
14.682471
14.124181
13.62339
13.175075
12.774906
12.419485
12.105176
11.827672
11.583821
11.370981
11.186212
11.026254
10.888643
10.771109
10.671511
10.587829
10.518198
10.460873
10.413933
10.375265
10.342559
10.313708
10.287516
10.264228
10.244362
10.223924
10.201913
10.183255
10.172695
10.17008
10.171588
10.183777
10.202145
10.218745
10.230496
10.237505
10.241287
10.242976
10.241845
10.234203
10.201329
10.129198
10.059199
10.01913
10.01147
10.044696
1174.2433
2194.4534
1063.6761
652.63212
458.96962
324.57326
243.70344
186.02088
148.4727
121.08243
102.21293
87.706163
76.500253
67.36264
59.823911
53.511896
48.178867
43.640322
39.746801
36.380933
33.456098
30.899753
28.651237
26.662391
24.893275
23.313823
21.898352
20.627255
19.484537
18.45607
17.528242
16.68996
15.932665
15.249096
14.633283
14.079733
13.583407
13.139322
12.742961
12.3909
12.079866
11.80543
11.564261
11.353745
11.171191
11.013232
10.877358
10.761312
10.662972
10.580326
10.511478
10.454736
10.408275
10.370151
10.338192
10.310241
10.284727
10.261384
10.24079
10.220128
10.198213
10.180265
10.171168
10.169312
10.172351
10.187326
10.205521
10.220627
10.23042
10.235691
10.238266
10.23907
10.23672
10.226031
10.186866
10.114811
10.051491
10.017139
10.010748
10.038972
1212.5807
2200.5713
1054.1192
649.41143
455.381
324.85448
242.48785
186.22009
147.99805
121.22937
102.07935
87.712718
76.404538
67.25866
59.688178
53.361713
48.017298
43.472921
39.578219
36.213557
33.291905
30.740939
28.499301
26.518663
24.758202
23.18779
21.781277
20.518747
19.384133
18.36371
17.443873
16.613225
15.863126
15.186192
14.576497
14.028575
13.53751
13.098418
12.706626
12.358548
12.051341
11.780513
11.542548
11.33476
11.154777
10.999142
10.865284
10.750951
10.65404
10.572563
10.504593
10.448502
10.402562
10.364997
10.333773
10.306704
10.2819
10.258616
10.237424
10.216846
10.1954
10.178392
10.170502
10.169186
10.174913
10.19129
10.208361
10.221563
10.229344
10.233062
10.234616
10.234545
10.23062
10.215363
10.171799
10.101796
10.045779
10.016741
10.01067
10.032847
1249.0001
2216.6794
1045.5708
645.59834
450.89245
324.37784
240.53196
185.89865
147.11849
121.08225
101.74467
87.534395
76.16238
67.016454
59.432175
53.102953
47.758715
43.217998
39.330596
35.974779
33.062905
30.523189
28.293595
26.325812
24.578233
23.020735
21.626776
20.376177
19.252701
18.243058
17.333784
16.513179
15.77256
15.104398
14.502821
13.962373
13.478247
13.045705
12.660006
12.317249
12.015046
11.748925
11.515221
11.31104
11.134391
10.98177
10.85053
10.738427
10.643367
10.563427
10.49664
10.441452
10.396225
10.359337
10.328887
10.302696
10.278671
10.255657
10.234086
10.213848
10.193289
10.177463
10.170553
10.170011
10.179407
10.195194
10.210578
10.221638
10.227479
10.229861
10.230528
10.229476
10.223508
10.20383
10.156138
10.089509
10.041389
10.017967
10.011399
10.027144
1283.3453
2240.4689
1040.8049
642.51913
446.6002
323.23395
238.00553
185.13908
145.93383
120.68025
101.25447
87.193621
75.793535
66.653292
59.070529
52.748963
47.414838
42.886079
39.013217
35.672906
32.776567
30.253219
28.040188
26.08923
24.358259
22.817103
21.43889
20.203241
19.093653
18.097261
17.20088
16.392504
15.663439
15.005992
14.414348
13.883058
13.407397
12.982787
12.604555
12.268367
11.972214
11.711744
11.483241
11.283444
11.110781
10.961755
10.833642
10.724205
10.631349
10.553259
10.487923
10.433866
10.389528
10.353415
10.323749
10.298397
10.27518
10.252675
10.231074
10.211372
10.19213
10.177754
10.171674
10.173974
10.184281
10.198582
10.211908
10.220734
10.224815
10.226087
10.225943
10.223717
10.215372
10.191614
10.13991
10.077991
10.03778
10.021034
10.014402
10.022641
1315.5316
2269.969
1040.3467
639.73253
442.53675
321.41905
235.1237
183.96403
144.51272
120.02516
100.61724
86.688364
75.294145
66.167097
58.60037
52.297208
46.98308
42.474745
38.623547
35.305451
32.430545
29.928807
27.737082
25.806604
24.09613
22.574935
21.215837
19.998346
18.905602
17.925109
17.044121
16.250308
15.535017
14.890356
14.310579
13.790241
13.324678
12.90945
12.540093
12.21194
11.922931
11.669049
11.446695
11.252097
11.084064
10.939203
10.814714
10.70838
10.618073
10.542145
10.47853
10.425835
10.382557
10.34731
10.318435
10.293884
10.271502
10.249763
10.228627
10.209547
10.191994
10.179406
10.174764
10.178498
10.188544
10.201185
10.212226
10.218888
10.221458
10.221809
10.220835
10.217138
10.206021
10.178177
10.123536
10.067406
10.034472
10.024441
10.018649
10.018955
1345.6667
2302.7627
1042.2453
636.76021
438.58896
318.95217
232.53318
182.49217
143.07224
119.14318
99.852938
86.028141
74.667124
65.56141
58.023149
51.748282
46.463285
41.983604
38.160224
34.870806
32.023221
29.548338
27.382997
25.474696
23.788715
22.29131
20.954921
19.759047
18.686378
17.724687
16.861832
16.085137
15.386051
14.756442
14.190641
13.683206
13.229528
12.82526
12.466202
12.148265
11.867528
11.621139
11.405847
11.217366
11.054571
10.914401
10.794009
10.691186
10.603743
10.530257
10.468605
10.417477
10.37541
10.34111
10.31304
10.289273
10.267758
10.246983
10.226756
10.208431
10.192752
10.181922
10.178476
10.182588
10.191954
10.2028
10.211494
10.21618
10.217496
10.21704
10.215079
10.209466
10.195075
10.163223
10.10776
10.057899
10.031599
10.025889
10.024542
10.014828
1373.8886
2336.514
1043.5941
633.10053
434.2472
315.75116
229.2926
180.66124
141.30652
118.05929
98.96297
85.215324
73.907587
64.833091
57.33494
51.097275
45.850378
41.408028
37.615653
34.361248
31.547185
29.104705
26.971688
25.094535
23.437601
21.968225
20.658395
19.487748
18.438499
17.498547
16.656543
15.899473
15.218961
14.606587
14.056771
13.564075
13.123947
12.732132
12.384492
12.076918
11.805737
11.567821
11.360492
11.179544
11.022587
10.88758
10.771792
10.672856
10.588559
10.517754
10.458264
10.408867
10.368138
10.334855
10.307618
10.284647
10.264036
10.244331
10.22521
10.207906
10.194069
10.184774
10.18224
10.186255
10.194452
10.20331
10.209774
10.212738
10.213011
10.21174
10.208465
10.200361
10.182243
10.146688
10.093
10.049912
10.02929
10.026126
10.030562
10.011689
1400.2824
2369.3731
1037.1298
628.30583
428.10888
311.92985
225.05422
178.31874
139.39274
116.79462
97.936645
84.245276
73.007358
63.974134
56.527711
50.331365
45.130574
40.734817
36.988439
33.777878
31.005097
28.60173
26.50684
24.665398
23.042317
21.605333
20.326055
19.184392
18.162085
17.246959
16.428572
15.693725
15.034248
14.441368
13.909604
13.433518
13.008615
12.630729
12.295884
12.000032
11.739425
11.510801
11.311984
11.138486
10.988047
10.858652
10.748279
10.653573
10.572718
10.504774
10.447601
10.400055
10.360757
10.328552
10.302176
10.280021
10.260338
10.241762
10.223878
10.20775
10.195581
10.187611
10.185633
10.189186
10.195939
10.202743
10.207196
10.208692
10.208029
10.205767
10.20068
10.189491
10.16745
10.129145
10.079263
10.043334
10.027465
10.025376
10.034705
10.010323
1424.9855
2400.1063
1028.8567
622.37159
420.33944
307.74441
220.38228
175.78428
137.39786
115.33821
96.76016
83.109725
71.954244
62.963711
55.578823
49.445835
44.305459
39.968265
36.276727
33.119026
30.395456
28.037954
25.987431
24.187541
22.603346
21.203255
19.958713
18.849955
17.85828
16.971247
16.179013
15.469027
14.833091
14.261992
13.750351
13.292732
12.884697
12.522154
12.201297
11.918173
11.66912
11.450685
11.261055
11.095705
10.952236
10.828612
10.72335
10.633215
10.556345
10.491394
10.436686
10.391072
10.353268
10.322176
10.296677
10.275337
10.25657
10.239118
10.222537
10.207753
10.196876
10.19002
10.188318
10.191148
10.196351
10.201214
10.203897
10.204119
10.202473
10.19884
10.191326
10.17656
10.150754
10.111033
10.066324
10.037484
10.025035
10.023592
10.037889
10.012357
1448.1176
2429.476
1016.3483
615.16384
410.93843
303.17303
215.52309
172.9713
135.36721
113.70018
95.406964
81.779014
70.710796
61.795931
54.492382
48.437774
43.371587
39.105259
35.479406
32.383909
29.718009
27.413585
25.413816
23.661418
22.121526
20.762632
19.557195
18.485445
17.528249
16.672899
15.908086
15.225616
14.615776
14.068798
13.579391
13.142108
12.75259
12.406791
12.101117
11.831728
11.595088
11.3883
11.208325
11.051515
10.915435
10.797935
10.697995
10.612462
10.53929
10.477454
10.425527
10.381932
10.34566
10.315692
10.291049
10.270493
10.252596
10.236216
10.220937
10.207522
10.197677
10.191695
10.190084
10.192049
10.195721
10.19882
10.199953
10.198978
10.196101
10.190529
10.179942
10.16132
10.13228
10.092539
10.05377
10.031388
10.021669
10.021194
10.039119
10.012651
1469.9495
2458.0842
999.72327
606.48825
400.69667
298.16125
210.58819
169.95104
133.28579
111.85896
93.81139
80.236965
69.282769
60.46526
53.262298
47.303795
42.326645
38.144269
34.595365
31.571878
28.972695
26.729127
24.786292
23.087669
21.598058
20.283003
19.121161
18.090701
17.17193
16.352385
15.620724
14.96835
14.38699
13.866295
13.401011
12.985653
12.616001
12.288018
11.998363
11.743401
11.519516
11.323744
11.153902
11.005996
10.877641
10.766943
10.672311
10.591487
10.522224
10.46341
10.413916
10.372594
10.337909
10.30906
10.285227
10.265395
10.248303
10.23292
10.218875
10.206747
10.197869
10.192507
10.19077
10.191821
10.194048
10.195572
10.195306
10.193034
10.188467
10.180265
10.166055
10.143618
10.112172
10.073672
10.041222
10.02456
10.017753
10.018296
10.035655
10.013252
1490.7494
2482.3757
978.77051
597.38267
390.02339
292.76514
205.65971
166.72801
131.08114
109.71924
91.958157
78.473543
67.657978
58.963971
51.882876
46.039384
41.167493
37.083157
33.623694
30.682075
28.159328
25.985332
24.103376
22.464898
21.032357
19.770581
18.657409
17.672844
16.796615
16.016346
15.32052
14.700739
14.149646
13.657089
13.217545
12.825421
12.47673
12.167402
11.894335
11.654249
11.443617
11.259369
11.099682
10.960732
10.840037
10.735538
10.646223
10.570063
10.505086
10.449408
10.402242
10.362824
10.329944
10.302249
10.279174
10.259988
10.243635
10.229164
10.216241
10.205276
10.197231
10.192245
10.19019
10.19032
10.191216
10.191321
10.189671
10.185793
10.17891
10.167402
10.149272
10.123418
10.09061
10.054484
10.028534
10.017025
10.013519
10.015549
10.031459
10.013462
1510.7632
2497.8517
953.44849
587.56072
378.94862
287.02884
200.82291
163.22823
128.63266
107.29016
89.820434
76.471598
65.824436
57.282288
50.346986
44.639633
39.891325
35.919584
32.563625
29.71124
27.274901
25.180407
23.373254
21.802668
20.433888
19.230874
18.171529
17.236869
16.407002
15.66941
15.012372
14.427437
13.906639
13.443551
13.030977
12.663023
12.336075
12.046011
11.789872
11.564874
11.367604
11.195716
11.04609
10.915987
10.803036
10.704912
10.620711
10.548853
10.487584
10.435426
10.390616
10.352925
10.321517
10.295196
10.272882
10.254261
10.238573
10.224909
10.212941
10.202935
10.195539
10.190659
10.188107
10.187298
10.186944
10.185675
10.182465
10.176491
10.166633
10.15135
10.129385
10.100838
10.067771
10.035454
10.015912
10.00905
10.009051
10.013336
10.024862
10.008423
1530.208
2496.0771
924.00521
577.11532
367.52337
280.95512
196.07417
159.32273
125.86164
104.52691
87.368745
74.208654
63.766289
55.409194
48.647239
43.09892
38.495248
34.647414
31.410488
28.667799
26.331478
24.327379
22.603575
21.108847
19.810203
18.672084
17.671587
16.78874
16.008307
15.316062
14.699925
14.152051
13.664733
13.231628
12.846601
12.503154
12.198158
11.927515
11.6882
11.47815
11.293689
11.132818
10.99314
10.871656
10.766296
10.675047
10.5959
10.528173
10.470237
10.421113
10.379004
10.342992
10.312849
10.28767
10.266325
10.248213
10.233085
10.220086
10.208834
10.199484
10.192461
10.187416
10.184213
10.182377
10.180739
10.177959
10.172824
10.164203
10.150886
10.131764
10.10651
10.076287
10.044131
10.017725
10.00423
10.001648
10.005138
10.010885
10.01704
10.002172
1549.2666
2456.2008
891.53627
566.06008
355.81387
274.46048
191.10317
154.98763
122.65245
101.38185
84.569488
71.660016
61.467598
53.334932
46.776813
41.407447
36.971408
33.277842
30.180106
27.562352
25.340047
23.437803
21.806528
20.395497
19.170583
18.102158
17.165241
16.340108
15.61125
14.9662
14.392209
13.881982
13.428153
13.024876
12.667052
12.347894
12.064538
11.813172
11.590431
11.394972
11.223102
11.072838
10.942553
10.829233
10.730781
10.645543
10.571851
10.508118
10.453269
10.406849
10.367071
10.333018
10.304013
10.279826
10.259304
10.241819
10.227098
10.214567
10.203735
10.194665
10.187656
10.182133
10.178069
10.175018
10.171894
10.167288
10.159791
10.14812
10.131255
10.108755
10.081232
10.050828
10.021875
10.002739
9.9949138
9.9965462
10.00316
10.009696
10.012903
9.9987432
1567.8317
2415.7641
858.82056
554.37007
343.82826
266.99954
185.98778
150.1189
118.88844
97.796154
81.387261
68.801269
58.912665
51.050805
44.722696
39.576258
35.340702
31.825634
28.888441
26.41281
24.317839
22.528626
20.99502
19.674853
18.531942
17.536901
16.666055
15.900107
15.223631
14.625988
14.094323
13.621653
13.201071
12.826836
12.49404
12.198432
11.935907
11.703266
11.49757
11.316039
11.156334
11.016124
10.894554
10.788938
10.696998
10.617205
10.548103
10.488365
10.436791
10.392784
10.355098
10.322734
10.295036
10.271681
10.251912
10.234981
10.220495
10.208181
10.197432
10.188216
10.180768
10.174359
10.169105
10.164558
10.159619
10.152816
10.142651
10.127905
10.107947
10.083071
10.054736
10.026083
10.003733
9.9917122
9.989265
9.9950264
10.004167
10.012244
10.013926
9.9984232
1585.4162
2377.5442
825.23418
541.70266
331.46218
258.33125
180.53127
144.59916
114.45937
93.708162
77.788264
65.611129
56.082101
48.541495
42.509431
37.626984
33.626342
30.3165
27.560162
25.242822
23.283298
21.617167
20.192111
18.966992
17.908364
16.988352
16.184237
15.477681
14.853067
14.30032
13.809951
13.373685
12.985242
12.639435
12.331831
12.058392
11.815476
11.599968
11.409227
11.240905
11.092887
10.963092
10.849561
10.75102
10.665122
10.590402
10.525523
10.469331
10.420797
10.378997
10.343177
10.312362
10.285896
10.263227
10.244045
10.227475
10.213134
10.200719
10.189667
10.179835
10.171363
10.163588
10.156738
10.15035
10.143302
10.134097
10.121311
10.103978
10.081936
10.056167
10.029076
10.005793
9.9910985
9.9855902
9.9877074
9.9969028
10.007797
10.015547
10.015815
10.000565
1601.3155
2308.587
789.98624
527.51896
317.95015
248.30405
174.41434
138.28854
109.26424
89.058415
73.745904
62.069148
52.992103
45.853858
40.172393
35.597531
31.865715
28.784882
26.222636
24.077033
22.267002
20.729738
19.416303
18.288034
17.313852
16.46798
15.728805
15.078376
14.504639
13.996477
13.545294
13.143579
12.78541
12.466024
12.181569
11.928657
11.703989
11.50454
11.327842
11.171586
11.033884
10.913102
10.807828
10.715673
10.635276
10.565185
10.50414
10.451061
10.405033
10.365576
10.331355
10.30184
10.27639
10.254471
10.235708
10.219308
10.204817
10.191919
10.180107
10.169191
10.158991
10.14935
10.140515
10.132049
10.122834
10.111414
10.096537
10.077603
10.054967
10.030378
10.008003
9.9922807
9.9849333
9.9838381
9.9896729
10.000537
10.011461
10.017328
10.017596
10.003597
1614.4889
2240.4009
752.10192
511.25099
303.63333
236.73094
167.15665
131.01874
103.22498
83.815155
69.25232
58.214547
49.703193
43.045851
37.77046
33.540383
30.104813
27.267709
24.91652
22.950127
21.293097
19.886716
18.685026
17.652108
16.759645
15.984593
15.306063
14.710344
14.184157
13.717323
13.302539
12.932869
12.602839
12.307965
12.044705
11.810269
11.602112
11.417177
11.253308
11.108267
10.980152
10.868004
10.769399
10.683065
10.607576
10.541654
10.484101
10.433926
10.390312
10.352565
10.319763
10.291327
10.266699
10.245346
10.226783
10.210294
10.195316
10.181466
10.16832
10.155759
10.143295
10.131403
10.120385
10.109886
10.098844
10.085899
10.06998
10.050857
10.029687
10.00976
9.9945166
9.985856
9.9838247
9.9847187
9.9932378
10.003775
10.013123
10.017952
10.01806
10.005815
1622.1729
2157.0976
711.3873
491.17121
288.27794
223.29101
158.27079
122.64776
96.338388
78.022903
64.389221
54.154196
46.311606
40.203801
35.377921
31.517164
28.389523
25.811887
23.675371
21.889261
20.383686
19.105072
18.011435
17.069824
16.254279
15.54424
14.923111
14.376977
13.894563
13.465443
13.083604
12.742908
12.438412
12.165971
11.922123
11.704169
11.510695
11.338588
11.186023
11.051116
10.93202
10.826972
10.734533
10.653346
10.58217
10.519894
10.465446
10.417728
10.376338
10.340113
10.308479
10.280872
10.256806
10.235809
10.217143
10.200212
10.184354
10.169063
10.154009
10.139222
10.1242
10.10995
10.096909
10.084818
10.072705
10.059367
10.044002
10.026669
10.01046
9.9968904
9.9878859
9.9848496
9.9845123
9.9876567
9.9965906
10.005435
10.011749
10.014344
10.011746
10.00461
1619.2451
2055.2832
667.31129
464.92686
271.70034
207.62824
147.50511
113.19512
88.752794
71.807058
59.342363
50.036279
42.937802
37.424269
33.073272
29.592937
26.774221
24.455183
22.529328
20.917079
19.555615
18.397185
17.404399
16.547804
15.804064
15.154672
14.584872
14.082588
13.637822
13.242472
12.889841
12.57471
12.292702
12.040211
11.814179
11.611976
11.431344
11.270414
11.127398
11.000709
10.888846
10.790273
10.70328
10.626694
10.5593
10.500099
10.448482
10.403079
10.363219
10.328284
10.297624
10.270614
10.246936
10.225813
10.206681
10.188854
10.171689
10.154526
10.137163
10.11967
10.102101
10.085756
10.071252
10.058407
10.046329
10.034027
10.021336
10.009508
9.998779
9.9905835
9.9865022
9.9855422
9.9863234
9.9909747
9.9988866
10.005259
10.008503
10.009196
10.007816
10.004056
1599.3678
1924.8835
620.10181
431.83407
253.89853
189.53066
135.07562
102.98424
80.819127
65.495918
54.335731
46.029019
39.707426
34.802326
30.929634
27.825187
25.303543
23.230606
21.502672
20.051427
18.821876
17.772309
16.870146
16.089594
15.409986
14.814709
14.290587
13.827465
13.416458
13.050433
12.723225
12.430223
12.167509
11.931876
11.720617
11.531409
11.36221
11.211183
11.07666
10.957111
10.85121
10.758152
10.675871
10.603305
10.539357
10.483032
10.433446
10.389791
10.351216
10.317184
10.287302
10.260729
10.236956
10.215407
10.195417
10.176303
10.157259
10.137851
10.117993
10.097731
10.07793
10.06008
10.044968
10.03249
10.02194
10.013285
10.005969
9.9993124
9.9936245
9.9895576
9.9876511
9.9875414
9.9897098
9.9944233
9.999973
10.003776
10.004935
10.004332
10.002718
10.001056
1553.7572
1765.7648
570.96284
392.70056
235.85084
169.27759
121.67071
92.643789
73.001422
59.420406
49.599072
42.296084
36.739753
32.424355
29.009498
26.261918
24.01873
22.164209
20.614309
19.306102
18.192683
17.238091
16.414324
15.699217
15.074916
14.526715
14.041772
13.611922
13.229258
12.888198
12.58258
12.308366
12.062043
11.840733
11.641998
11.463745
11.304132
11.161501
11.034336
10.921231
10.820876
10.732037
10.653529
10.584047
10.522629
10.468318
10.420324
10.378141
10.340679
10.307405
10.277747
10.251165
10.227051
10.204726
10.183578
10.162693
10.141468
10.119595
10.097235
10.07455
10.053084
10.034513
10.019783
10.009009
10.002525
9.9989855
9.9967924
9.9950983
9.9935614
9.9923371
9.9917362
9.9922647
9.9942396
9.9971827
9.9999323
10.00135
10.00124
10.000226
9.9991857
9.9994393
1474.0032
1603.2322
520.90156
352.4752
211.47284
149.62327
108.24949
82.875674
65.767931
53.90304
45.353341
38.996099
34.147805
30.367953
27.362519
24.931315
22.934851
21.27398
19.877013
18.691359
17.676658
16.802173
16.043802
15.382427
14.802651
14.291935
13.839971
13.438234
13.079815
12.758969
12.470929
12.211951
11.978882
11.769117
11.580444
11.410953
11.258947
11.122886
11.001342
10.892973
10.796533
10.710937
10.635503
10.568568
10.509284
10.456737
10.410123
10.368712
10.331836
10.29882
10.269126
10.242195
10.21752
10.1942
10.171501
10.148669
10.125157
10.100872
10.076258
10.051689
10.029242
10.010773
9.9974568
9.990224
9.9886435
9.9899923
9.9926422
9.9952483
9.9970931
9.9980405
9.9983883
9.998555
9.9987612
9.9989028
9.9987774
9.9983618
9.997696
9.9969562
9.996844
9.9985327
1361.7992
1520.4775
473.95289
304.16314
187.19943
131.14659
96.101223
74.219756
59.503797
49.245019
41.822204
36.284854
32.038931
28.706363
26.037779
23.864128
22.067621
20.563966
19.290514
18.203814
17.269036
16.459638
15.754644
15.137274
14.593927
14.113499
13.686816
13.306343
12.965977
12.661139
12.386764
12.139582
11.916705
11.715763
11.534737
11.371878
11.225638
11.094605
10.97747
10.872991
10.779976
10.697261
10.623701
10.558359
10.50028
10.44861
10.402573
10.361503
10.324939
10.291962
10.262054
10.234601
10.208944
10.184349
10.160022
10.13525
10.109615
10.083247
10.056872
10.031104
10.008383
9.9907099
9.9794972
9.9766177
9.9793268
9.985077
9.9918615
9.9980533
10.002635
10.005216
10.005848
10.004817
10.002605
9.999878
9.9973672
9.9955401
9.9944901
9.9942476
9.9952383
9.9980737
1228.6676
1280.3453
433.1057
261.10006
164.59549
115.72677
86.04427
67.225919
54.548239
45.65096
39.164654
34.282162
30.504011
27.511959
25.095604
23.111714
21.460035
20.06868
18.88493
17.869286
16.991706
16.228775
15.561936
14.976194
14.459238
14.000844
13.592721
13.227918
12.900712
12.606384
12.341071
12.101551
11.88517
11.689706
11.513267
11.354213
11.211082
11.082543
10.96736
10.864381
10.772575
10.691226
10.61871
10.554187
10.49672
10.445469
10.399657
10.358574
10.321574
10.288056
10.257423
10.229055
10.20227
10.176311
10.150401
10.123893
10.096509
10.068603
10.041173
10.01505
9.9927357
9.9762273
9.9674253
9.9675599
9.9734759
9.9826304
9.9926768
10.001629
10.008128
10.01161
10.012122
10.010052
10.006128
10.001357
9.9968894
9.9936106
9.9919173
9.9919144
9.9938279
9.9976943
1108.7712
1136.4635
399.83845
229.83354
147.68395
104.39237
78.598371
62.129954
51.00303
43.12758
37.328198
32.921266
29.479615
26.73084
24.493601
22.643643
21.093399
19.779677
18.655879
17.686953
16.846003
16.111994
15.468175
14.901083
14.400216
13.954852
13.5575
13.201586
12.881722
12.593438
12.333046
12.097509
11.884311
11.69135
11.51684
11.359232
11.217143
11.089313
10.974562
10.871768
10.779858
10.697799
10.624615
10.559353
10.50112
10.449078
10.402451
10.360522
10.322627
10.288145
10.256466
10.22696
10.198939
10.171654
10.144359
10.116465
10.087809
10.058912
10.030987
10.005103
9.9836766
9.9688386
9.9625938
9.9624298
9.9692372
9.9807037
9.9932447
10.004195
10.011839
10.015306
10.015727
10.013579
10.009112
10.003317
9.9975005
9.9929462
9.9907376
9.9905314
9.9929766
9.9975553
1053.6399
1096.9655
375.12052
212.45081
136.6178
96.713895
73.053429
58.075987
47.975821
40.818774
35.533415
31.498983
28.334855
25.797243
23.723867
22.003153
20.556247
19.326083
18.270495
17.357722
16.563385
15.868398
15.257517
14.718318
14.240517
13.815507
13.436016
13.095937
12.790149
12.514394
12.265142
12.039481
11.835003
11.649701
11.481879
11.330075
11.192993
11.069456
10.958364
10.85867
10.769371
10.689496
10.618109
10.554316
10.497264
10.446152
10.40023
10.358804
10.321227
10.286889
10.255194
10.225529
10.197229
10.16957
10.141832
10.113458
10.084388
10.05531
10.02752
10.002162
9.9816155
9.9677012
9.9616602
9.9605109
9.9644445
9.9782568
9.9926723
10.004856
10.013068
10.016236
10.016637
10.015303
10.010679
10.004527
9.9981548
9.9930443
9.990401
9.9897441
9.9916023
9.9974824
28931.08
78436.029
35414.162
10059.668
1322.1424
590.11929
419.15716
335.13353
276.366
224.7997
184.79251
153.76244
130.66883
112.78918
98.784591
87.685182
78.550408
70.678726
63.833942
57.916039
52.785368
48.300828
44.353184
40.858963
37.755634
34.981204
32.492543
30.251573
28.228224
26.398491
24.741343
23.237935
21.872202
20.630305
19.501545
18.476552
17.546733
16.704405
15.942598
15.255185
14.636751
14.081606
13.584776
13.141924
12.748628
12.400557
12.093834
11.824508
11.588969
11.383773
11.205539
11.051043
10.917173
10.801997
10.702837
10.617436
10.54425
10.482321
10.431146
10.390565
10.362307
10.349092
10.343003
10.340527
10.342322
10.346277
10.346927
10.336418
10.313308
10.282876
10.257394
10.243613
10.243722
10.252883
10.213648
10.275791
10.184129
10.254825
10.069191
10.180783
22033.747
53985.302
22026.192
4523.1445
925.15185
509.33907
383.32714
305.66325
251.19397
202.51918
168.19053
140.82896
121.07361
105.26097
92.901958
82.98966
74.647865
67.347994
61.009341
55.530949
50.759093
46.567227
42.863165
39.574176
36.640835
34.012311
31.649175
29.515823
27.585747
25.83721
24.250692
22.808778
21.496782
20.302025
19.214924
18.22671
17.329346
16.515673
15.779159
15.114087
14.515341
13.977433
13.495719
13.066086
12.684253
12.346075
12.047852
11.785735
11.556254
11.356064
11.181869
11.030542
10.89904
10.785059
10.686705
10.601997
10.529561
10.468536
10.418549
10.37956
10.353568
10.342497
10.337935
10.336957
10.339637
10.343005
10.341005
10.327058
10.301919
10.272443
10.250135
10.239314
10.242583
10.252924
10.216899
10.275492
10.191298
10.253249
10.07123
10.177059
32014.389
29315.66
11335.952
2218.9595
796.39458
481.02978
373.5139
290.29323
239.15858
191.71284
161.32347
134.92684
116.81644
101.59162
89.988124
80.543132
72.515609
65.475675
59.395248
54.135457
49.542193
45.501938
41.928764
38.752788
35.91538
33.371415
31.082662
29.014429
27.142108
25.44475
23.903495
22.501655
21.225264
20.062213
19.003536
18.040715
17.166033
16.372622
15.654187
15.005246
14.420848
13.895607
13.425098
13.005329
12.632098
12.301383
12.009592
11.752934
11.528033
11.331609
11.160437
11.011483
10.881865
10.769092
10.671364
10.587306
10.515657
10.455591
10.40683
10.369445
10.345735
10.336708
10.333583
10.333874
10.336952
10.339117
10.334082
10.317026
10.29063
10.262813
10.243895
10.236152
10.241611
10.253002
10.222177
10.275133
10.197572
10.251533
10.073198
10.173178
38743.035
22454.055
7525.0512
1406.6268
727.85601
458.68908
361.53541
274.57294
229.41686
181.89707
155.20279
129.2012
112.84276
98.069831
87.260301
78.218202
70.494312
63.70996
57.8729
52.813533
48.386388
44.487944
41.03677
37.966023
35.220228
32.753665
30.534145
28.527059
26.709222
25.060285
23.562025
22.198412
20.956132
19.823584
18.792378
17.854183
17.00159
16.227988
15.527295
14.894242
14.324022
13.811339
13.351977
12.942046
12.577414
12.254175
11.968838
11.717666
11.497379
11.304767
11.136691
10.990226
10.862685
10.751711
10.655198
10.572177
10.501669
10.442854
10.395525
10.359873
10.338697
10.331634
10.329819
10.331079
10.334062
10.33445
10.326198
10.306431
10.279519
10.253926
10.238573
10.234058
10.241136
10.253174
10.229192
10.274732
10.201542
10.249653
10.075042
10.169126
42421.32
20273.147
5436.2882
1171.779
700.03543
439.73151
352.60124
262.98276
222.76794
174.51543
150.98187
124.78353
109.93144
95.298792
85.149527
76.350769
68.854884
62.269111
56.620605
51.714192
47.416047
43.62926
40.275087
37.288802
34.616772
32.215762
30.051595
28.095361
26.323259
24.715277
23.25367
21.922904
20.71016
19.604218
18.59715
17.680715
16.847769
16.091894
15.40717
14.788499
14.231176
13.729973
13.280857
12.880004
12.523335
12.207047
11.927733
11.681695
11.46575
11.276757
11.111668
10.967689
10.842302
10.733226
10.638682
10.557176
10.488109
10.430748
10.384962
10.351073
10.332834
10.327304
10.326598
10.328448
10.330805
10.328896
10.317433
10.29547
10.268805
10.245894
10.233986
10.233128
10.241111
10.253617
10.235602
10.274254
10.204263
10.247586
10.076727
10.164919
44938.042
18969.486
4225.1461
1108.1225
682.39379
423.57584
346.23095
254.22854
217.94857
168.75814
147.70331
121.10843
107.57032
92.951022
83.381329
74.743212
67.441253
61.023113
55.529861
50.74956
46.559576
42.867052
39.595172
36.680932
34.072324
31.727347
29.611815
27.699923
25.96786
24.395979
22.966866
21.665388
20.479126
19.397165
18.411972
17.51534
16.700367
15.960784
15.290805
14.685472
14.140161
13.649695
13.210206
12.817913
12.468782
12.159103
11.885543
11.644436
11.432699
11.247262
11.085191
10.943857
10.820758
10.713882
10.621569
10.542401
10.475152
10.419425
10.375251
10.343129
10.327799
10.323638
10.323797
10.325801
10.326985
10.322388
10.307884
10.284338
10.258645
10.238739
10.230087
10.23236
10.241472
10.254259
10.240945
10.273683
10.206904
10.245315
10.078294
10.160565
46841.674
16822.371
3409.9854
1065.3371
669.8872
412.34671
341.01018
247.4825
214.13449
164.28234
145.09972
118.08583
105.64691
90.979642
81.893259
73.357763
66.22055
59.943429
54.577384
49.901466
45.802138
42.189101
38.987032
36.134281
33.580107
31.283632
29.211825
27.337455
25.640293
24.10021
22.699905
21.42454
20.262016
19.201658
18.236274
17.357644
16.559095
15.834462
15.178073
14.585088
14.050941
13.570497
13.140037
12.755804
12.413802
12.110409
11.842354
11.606005
11.398381
11.216497
11.057572
10.918931
10.798373
10.694017
10.604277
10.527742
10.462968
10.409053
10.366503
10.336154
10.323321
10.320544
10.321269
10.32295
10.322437
10.314918
10.297687
10.273249
10.249184
10.232468
10.227062
10.231333
10.242067
10.254699
10.245545
10.273014
10.209521
10.242871
10.079765
10.156083
48236.264
14174.934