/*--------------------------------*- C++ -*----------------------------------*\
  =========                 |
  \\      /  F ield         | OpenFOAM: The Open Source CFD Toolbox
   \\    /   O peration     | Website:  https://openfoam.org
    \\  /    A nd           | Version:  12
     \\/     M anipulation  |
\*---------------------------------------------------------------------------*/
FoamFile
{
    format      ascii;
    class       volScalarField;
    location    "0.032";
    object      T;
}
// * * * * * * * * * * * * * * * * * * * * * * * * * * * * * * * * * * * * * //

dimensions      [0 0 0 1 0 0 0];

internalField   nonuniform List<scalar> 
16000
(
298.11466
289.80768
293.02908
291.26508
292.34125
291.8474
292.25459
292.14534
292.33421
292.36591
292.48135
292.5622
292.66287
292.76113
292.86515
292.97237
293.08351
293.19841
293.31707
293.43946
293.56551
293.69514
293.82825
293.96472
294.10438
294.24705
294.3925
294.54048
294.6907
294.84284
294.99653
295.15135
295.30688
295.46263
295.61808
295.77269
295.92587
296.07703
296.22552
296.3707
296.5119
296.64843
296.7796
296.90469
297.02299
297.13376
297.23628
297.32979
297.41356
297.48684
297.54894
297.5992
297.63709
297.66219
297.67428
297.67337
297.65983
297.63453
297.59901
297.55561
297.50758
297.45916
297.41562
297.38364
297.36826
297.3854
297.43878
297.53951
297.69569
297.91078
298.17978
298.48408
298.78805
299.04138
299.18867
299.22348
299.10932
298.51881
297.85979
297.61301
297.82251
289.40381
292.7464
290.90914
292.05258
291.52073
291.96316
291.84365
292.04659
292.08317
292.20518
292.29433
292.40166
292.50816
292.62003
292.73564
292.85535
292.97911
293.10686
293.23857
293.37415
293.51351
293.6565
293.80297
293.95271
294.10551
294.2611
294.41917
294.57937
294.74134
294.90464
295.06881
295.23336
295.39774
295.56138
295.72368
295.88401
296.04171
296.19612
296.34655
296.4923
296.63269
296.767
296.89453
297.01459
297.12647
297.22948
297.32293
297.40614
297.47847
297.53927
297.58802
297.62426
297.6477
297.65823
297.65601
297.64154
297.61583
297.58063
297.5385
297.49296
297.44846
297.41027
297.38549
297.38158
297.4061
297.46913
297.57893
297.74213
297.96114
298.22999
298.52821
298.81726
299.04725
299.16977
299.17954
298.99292
298.39092
297.77027
297.59261
297.53974
289.02703
292.4786
290.59115
291.77484
291.23189
291.68807
291.57537
291.78287
291.83055
291.95762
292.05666
292.17151
292.2871
292.40788
292.53285
292.66216
292.79578
292.93366
293.07572
293.22184
293.3719
293.52571
293.68307
293.84374
294.00744
294.17385
294.3426
294.5133
294.68548
294.85867
295.03234
295.20591
295.37878
295.55032
295.71986
295.88673
296.05021
296.2096
296.36418
296.51325
296.65608
296.79199
296.92029
297.0403
297.15136
297.25284
297.34412
297.4246
297.49372
297.55095
297.59588
297.62818
297.64772
297.65454
297.64898
297.63173
297.60402
297.56781
297.52591
297.48209
297.44106
297.40845
297.39074
297.39541
297.4308
297.50503
297.6254
297.7968
298.01983
298.28687
298.57547
298.84497
299.04687
299.14527
299.12971
298.85041
298.25715
297.69577
297.57542
297.27434
288.67658
292.2505
290.30294
291.5247
290.97126
291.44131
291.33713
291.54962
291.60989
291.74296
291.85304
291.97665
292.10247
292.23339
292.36889
292.50898
292.65363
292.80274
292.9562
293.11387
293.27557
293.44107
293.61013
293.78245
293.95767
294.13542
294.31527
294.49673
294.67929
294.86238
295.04539
295.22768
295.40858
295.58738
295.76337
295.9358
296.10393
296.26702
296.42433
296.57515
296.71877
296.85452
296.98174
297.09981
297.20812
297.30611
297.39324
297.46902
297.53299
297.58476
297.62404
297.65064
297.6646
297.66613
297.65578
297.63446
297.60362
297.56543
297.52292
297.48004
297.44163
297.41342
297.40197
297.4146
297.45917
297.54323
297.67269
297.85055
298.07533
298.33754
298.61314
298.86044
299.03353
299.10879
299.06137
298.70511
298.12886
297.63606
297.563
297.02602
288.35663
292.02536
290.06074
291.31101
290.74678
291.22636
291.13608
291.3518
291.42743
291.56726
291.68975
291.82352
291.96077
292.10311
292.25034
292.40238
292.55918
292.72061
292.88652
293.05674
293.23103
293.40911
293.59068
293.77535
293.96272
294.15231
294.34362
294.53607
294.72905
294.92191
295.11395
295.30445
295.49266
295.67781
295.85911
296.03579
296.20707
296.3722
296.53042
296.68104
296.82339
296.95681
297.08073
297.19457
297.29782
297.39001
297.4707
297.53951
297.59611
297.64027
297.67182
297.69076
297.69727
297.69178
297.67504
297.64821
297.61299
297.57178
297.5278
297.48515
297.44877
297.42443
297.41861
297.43846
297.49139
297.58414
297.72131
297.904
298.1285
298.38327
298.64305
298.8665
299.01038
299.06177
298.9778
298.56108
298.00853
297.58533
297.55653
296.79856
288.07522
291.83276
289.84817
291.12104
290.56528
291.05185
290.97928
291.19676
291.28973
291.43736
291.57319
291.71838
291.86804
292.0229
292.18293
292.34801
292.51805
292.69289
292.87235
293.05616
293.24405
293.43565
293.63057
293.82834
294.02845
294.23033
294.43335
294.63684
294.84008
295.04233
295.24277
295.44062
295.63503
295.82518
296.01024
296.18939
296.36186
296.52687
296.68373
296.83176
296.97034
297.0989
297.21694
297.32399
297.41963
297.5035
297.5753
297.63477
297.68174
297.71612
297.73791
297.74729
297.74461
297.73051
297.70595
297.67234
297.63163
297.58646
297.54024
297.49718
297.46229
297.4413
297.44055
297.46684
297.52702
297.6269
297.76977
297.95493
298.17652
298.42103
298.66259
298.86205
298.98055
299.00057
298.86809
298.42001
297.8995
297.53511
297.55687
296.59767
287.83634
291.66996
289.67616
290.97185
290.43092
290.92344
290.87377
291.08989
291.2009
291.35726
291.5071
291.66495
291.82811
291.99679
292.17096
292.35048
292.5352
292.72489
292.91927
293.11802
293.32074
293.52698
293.73622
293.94787
294.1613
294.3758
294.59063
294.80498
295.01803
295.2289
295.43671
295.64056
295.83956
296.03284
296.21953
296.39883
296.56996
296.7322
296.8849
297.02746
297.15936
297.28013
297.38938
297.48676
297.57199
297.64486
297.70518
297.75287
297.7879
297.81034
297.82037
297.81835
297.80484
297.78065
297.74698
297.70546
297.65829
297.60833
297.55916
297.51513
297.48124
297.46314
297.46691
297.49889
297.56518
297.67053
297.81689
298.00188
298.21767
298.44906
298.67011
298.84415
298.93551
298.91908
298.72767
298.28625
297.80084
297.48571
297.56547
296.42425
287.63978
291.53697
289.53849
290.84564
290.34152
290.81885
290.7947
291.02741
291.16045
291.32759
291.4929
291.66551
291.84415
292.02869
292.21907
292.41505
292.61642
292.82282
293.0339
293.24918
293.46817
293.69025
293.91476
294.14098
294.36812
294.59532
294.8217
295.0463
295.26819
295.48638
295.69989
295.90777
296.10907
296.30291
296.48844
296.66488
296.83152
296.98772
297.13293
297.26667
297.38855
297.49824
297.59549
297.68012
297.75201
297.81107
297.85731
297.89078
297.91163
297.92007
297.91649
297.90141
297.87558
297.84003
297.79616
297.7458
297.69139
297.63597
297.58331
297.53781
297.50448
297.48877
297.49645
297.53325
297.60438
297.71343
297.86095
298.043
298.24999
298.46536
298.66362
298.81093
298.8726
298.81406
298.58094
298.1623
297.71189
297.43808
297.58377
296.27308
287.48193
291.43275
289.43492
290.76481
290.27259
290.77971
290.79977
291.0184
291.17034
291.3518
291.53508
291.72541
291.92223
292.1253
292.33444
292.54933
292.76962
292.99486
293.22453
293.45801
293.69464
293.93364
294.17417
294.41532
294.65614
294.8956
295.13266
295.36623
295.59525
295.81865
296.03538
296.24445
296.44493
296.63595
296.81673
296.98657
297.14488
297.29117
297.42502
297.54614
297.6543
297.74935
297.83122
297.89991
297.95546
297.99797
298.02759
298.04454
298.04912
298.04172
298.02287
297.99329
297.95392
297.90597
297.85103
297.79116
297.72893
297.6676
297.61103
297.56367
297.53046
297.51662
297.52747
297.56806
297.6426
297.75347
297.89982
298.07621
298.27156
298.46827
298.64144
298.75967
298.78853
298.69232
298.43943
298.04886
297.6321
297.39863
297.6119
296.14197
287.36477
291.36476
289.37092
290.73469
290.30938
290.78418
290.82947
291.06166
291.23913
291.43861
291.6426
291.85371
292.07164
292.29608
292.52669
292.76304
293.00461
293.25078
293.50085
293.75402
294.00939
294.26599
294.52277
294.77862
295.03237
295.28284
295.52881
295.7691
296.00253
296.22798
296.44439
296.65079
296.84631
297.03018
297.20175
297.36048
297.50597
297.63791
297.7561
297.86047
297.95099
298.02773
298.09082
298.14043
298.17679
298.20017
298.21087
298.20927
298.1958
298.17101
298.13557
298.09037
298.03651
297.9754
297.90882
297.83897
297.76861
297.70108
297.64034
297.59082
297.5573
297.54472
297.55788
297.60105
297.67745
297.78818
297.93103
298.09923
298.28043
298.45635
298.60287
298.69084
298.68797
298.56498
298.30976
297.94648
297.56359
297.37339
297.64294
296.03473
287.29462
291.33988
289.39389
290.75775
290.36741
290.83899
290.92993
291.17236
291.37657
291.59803
291.82576
292.0609
292.30308
292.55189
292.80681
293.0672
293.33235
293.6014
293.87342
294.14734
294.42202
294.69623
294.96867
295.23801
295.50288
295.76193
296.01382
296.25727
296.49107
296.71412
296.92541
297.12408
297.30941
297.48082
297.63788
297.78029
297.9079
298.02067
298.11866
298.20204
298.27102
298.3259
298.36699
298.39466
298.4093
298.41133
298.4012
298.3794
298.3465
298.30317
298.25021
298.18864
298.11972
298.04502
297.96648
297.88646
297.80784
297.73404
297.66899
297.61706
297.58281
297.5708
297.58528
297.62973
297.70632
297.81491
297.95203
298.10973
298.27476
298.42862
298.54825
298.60702
298.57728
298.43903
298.19185
297.85766
297.51216
297.3622
297.67206
295.9576
287.28435
291.36435
289.50476
290.8342
290.50266
290.96846
291.10107
291.35924
291.59288
291.84062
292.09567
292.35844
292.62832
292.90472
293.18687
293.47387
293.76472
294.05827
294.35324
294.64827
294.94191
295.23263
295.51888
295.79911
296.07177
296.33538
296.58854
296.82997
297.05851
297.27317
297.47315
297.65779
297.82664
297.97941
298.11599
298.23642
298.34084
298.42952
298.50283
298.56117
298.60502
298.63486
298.6512
298.65456
298.64547
298.62447
298.59211
298.54898
298.49577
298.43321
298.36224
298.28398
298.1998
298.11142
298.02092
297.93078
297.84397
297.76392
297.69453
297.63997
297.60459
297.59244
297.60709
297.65152
297.7266
297.83112
297.96044
298.10568
298.25311
298.38455
298.47846
298.51142
298.46175
298.31822
298.08619
297.78374
297.47869
297.36026
297.70504
295.91683
287.34184
291.45095
289.66554
290.96774
290.71111
291.17237
291.35314
291.63317
291.89944
292.17817
292.46476
292.75921
293.06059
293.36799
293.6803
293.99626
294.31446
294.63336
294.9513
295.26655
295.57731
295.88177
296.17814
296.46468
296.73974
297.00183
297.24959
297.48188
297.69775
297.89649
298.07761
298.24084
298.38611
298.51354
298.62342
298.71614
298.79221
298.85223
298.89683
298.92666
298.9424
298.94471
298.93424
298.91161
298.87746
298.83239
298.77704
298.71205
298.63818
298.55624
298.46724
298.37237
298.27312
298.17131
298.06911
297.96912
297.87435
297.78821
297.71446
297.65709
297.62015
297.60715
297.62071
297.66391
297.73586
297.83454
297.95434
298.0857
298.21487
298.32458
298.39534
298.40747
298.3454
298.20504
297.99392
297.72559
297.46775
297.39033
297.74244
295.91484
287.47546
291.60604
289.90144
291.17912
291.00324
291.46536
291.69677
292.00611
292.30951
292.62464
292.94775
293.27845
293.61535
293.9571
294.30211
294.64861
294.99471
295.33838
295.67755
296.01008
296.33386
296.64683
296.94704
297.2327
297.50221
297.75422
297.98765
298.20168
298.39579
298.56974
298.72352
298.85737
298.97173
299.06718
299.14442
299.20425
299.24752
299.27509
299.28784
299.2866
299.27219
299.24539
299.20691
299.15746
299.09769
299.02826
298.94981
298.86304
298.76872
298.66772
298.5611
298.45012
298.33633
298.22162
298.10825
297.99886
297.89648
297.80447
297.7264
297.666
297.62701
297.6125
297.62403
297.66463
297.73202
297.82341
297.93244
298.04926
298.16052
298.25031
298.30163
298.29876
298.232
298.10284
297.91828
297.68575
297.48073
297.45683
297.78421
295.95574
287.69714
291.83466
290.22543
291.47433
291.38989
291.86024
292.14653
292.49369
292.84014
293.19781
293.56293
293.93456
294.3107
294.68937
295.06835
295.4453
295.81773
296.18314
296.53898
296.88279
297.21222
297.52513
297.81959
298.094
298.34709
298.57795
298.78601
298.97107
299.13324
299.27291
299.39071
299.48746
299.56413
299.62176
299.66146
299.68436
299.69157
299.68415
299.66311
299.62942
299.58394
299.52748
299.46079
299.38455
299.29942
299.20603
299.10504
298.99713
298.88308
298.7638
298.64037
298.51409
298.38657
298.25973
298.13589
298.01769
297.90815
297.81052
297.7282
297.6646
297.62293
297.60592
297.61545
297.65173
297.71341
297.79648
297.89417
297.99666
298.09142
298.16424
298.20085
298.18962
298.12619
298.01577
297.86395
297.6754
297.51393
297.5335
297.83007
296.04504
288.02503
292.1357
290.6499
291.86994
291.88662
292.3754
292.72227
293.11679
293.51339
293.91999
294.33238
294.74877
295.16645
295.58263
295.99438
296.39866
296.79242
297.17264
297.53647
297.88127
298.20473
298.50491
298.78032
299.02991
299.25312
299.44981
299.62024
299.76502
299.88507
299.98151
300.05562
300.10879
300.14246
300.15804
300.15695
300.14051
300.10999
300.06653
300.0112
299.94496
299.86865
299.78306
299.68886
299.58671
299.4772
299.36092
299.23849
299.11057
298.97794
298.84149
298.70234
298.56183
298.42158
298.28354
298.15004
298.02371
297.90749
297.8045
297.71795
297.65094
297.60631
297.5863
297.59218
297.62375
297.67886
297.7531
297.83955
297.9288
298.00947
298.06926
298.09673
298.08417
298.0315
297.94559
297.83027
297.68873
297.57446
297.6245
297.87754
296.18729
288.48666
292.50467
291.19242
292.38613
292.51619
293.03632
293.4509
293.90242
294.35621
294.81722
295.28055
295.74333
296.20192
296.65264
297.09171
297.51542
297.92022
298.30283
298.66042
298.99063
299.29169
299.56241
299.80224
300.01116
300.18968
300.33872
300.45957
300.55376
300.62301
300.66911
300.6939
300.6992
300.68675
300.6582
300.61509
300.55881
300.49063
300.41167
300.32292
300.22526
300.11946
300.00617
299.88601
299.75951
299.6272
299.4896
299.34727
299.20084
299.05105
298.89882
298.74525
298.59171
298.43983
298.29158
298.14925
298.01544
297.893
297.78489
297.69411
297.62346
297.57542
297.55181
297.55342
297.57953
297.62762
297.69305
297.76906
297.84695
297.91669
297.96799
297.99209
297.98469
297.94855
297.89038
297.81149
297.71446
297.64844
297.72075
297.92479
296.39238
289.13331
292.99259
291.88367
293.05378
293.31009
293.87573
294.36498
294.88181
295.39843
295.91705
296.43184
296.93855
297.43239
297.90867
298.3629
298.79094
299.18924
299.5549
299.88581
300.18064
300.43889
300.66075
300.84709
300.9993
301.11915
301.20875
301.27036
301.30632
301.31897
301.3106
301.28336
301.23928
301.1802
301.10779
301.02355
300.92878
300.82464
300.7121
300.59202
300.46511
300.33199
300.1932
300.04921
299.90045
299.74734
299.59033
299.42992
299.26669
299.10137
298.93485
298.76825
298.60293
298.44054
298.28302
298.13265
297.99195
297.86366
297.75058
297.6555
297.58095
297.52907
297.50132
297.49808
297.51833
297.5593
297.61642
297.68335
297.75232
297.81475
297.86224
297.88836
297.89139
297.87559
297.84685
297.80444
297.7492
297.72481
297.81131
297.97277
296.68616
289.97939
293.62673
292.76208
293.91121
294.30362
294.93013
295.50065
296.08906
296.67127
297.24637
297.80719
298.34788
298.86258
299.34599
299.79355
300.20167
300.5678
300.89049
301.16936
301.40498
301.59874
301.75267
301.86929
301.95141
302.00204
302.02421
302.0209
301.99495
301.94903
301.88557
301.8068
301.71467
301.61094
301.4971
301.37445
301.24411
301.107
300.96389
300.81544
300.66217
300.50452
300.34288
300.17758
300.00893
299.83726
299.66293
299.48638
299.30817
299.12897
298.94969
298.77143
298.59554
298.42366
298.25774
298.09998
297.95283
297.81891
297.70089
297.60133
297.52254
297.46639
297.43401
297.42551
297.4397
297.47379
297.52349
297.58308
297.64587
297.70468
297.75277
297.78548
297.80269
297.80921
297.80968
297.80152
297.78581
297.79692
297.8894
298.00964
297.10946
290.90959
294.44697
293.86335
295.00224
295.53834
296.2421
296.89956
297.56119
298.20472
298.82562
299.41547
299.96742
300.47554
300.93527
301.34358
301.69891
302.00115
302.25145
302.45201
302.60579
302.7163
302.78738
302.82297
302.827
302.80323
302.75519
302.68614
302.599
302.49641
302.38064
302.25371
302.11731
301.9729
301.8217
301.66472
301.50277
301.33654
301.16654
300.9932
300.81685
300.63776
300.45614
300.2722
300.08614
299.8982
299.70866
299.51792
299.32648
299.13503
298.94442
298.75576
298.57038
298.38992
298.21627
298.05159
297.89824
297.75874
297.63562
297.53128
297.44785
297.38694
297.3495
297.33546
297.34357
297.37128
297.41469
297.46888
297.52817
297.58669
297.63908
297.68173
297.71498
297.7431
297.76876
297.78985
297.80829
297.84907
297.94073
298.02616
297.71872
292.12851
295.50177
295.23825
296.3867
297.07189
297.86398
298.60629
299.33006
300.01473
300.65311
301.23698
301.76057
302.22022
302.61436
302.94341
303.20945
303.41587
303.567
303.66776
303.72331
303.73889
303.71954
303.66999
303.59463
303.49737
303.38172
303.25073
303.10704
302.95291
302.79025
302.62064
302.4454
302.26561
302.08211
301.89559
301.70657
301.51545
301.3225
301.12793
300.93188
300.73445
300.53573
300.33578
300.13473
299.93272
299.72999
299.52688
299.32388
299.12163
298.92099
298.72303
298.52908
298.34073
298.15984
297.9885
297.829
297.68377
297.55523
297.44567
297.35707
297.29092
297.24801
297.22825
297.23049
297.25249
297.29092
297.34161
297.3998
297.46062
297.51977
297.57433
297.62348
297.67053
297.71602
297.75819
297.80127
297.86422
297.95718
298.02538
298.57519
293.68771
296.87532
296.96604
298.14322
298.97173
299.84385
300.64737
301.39777
302.07826
302.68254
303.20594
303.64712
304.00744
304.29044
304.50137
304.64651
304.73276
304.76715
304.75656
304.70748
304.62586
304.51706
304.38581
304.2362
304.07176
303.89548
303.70987
303.51701
303.31859
303.11602
302.91038
302.70256
302.49322
302.28284
302.07179
301.8603
301.64851
301.43648
301.22423
301.01172
300.79893
300.5858
300.37232
300.15851
299.94447
299.73039
299.51657
299.30346
299.0917
298.88213
298.67579
298.47398
298.27825
298.09041
297.91248
297.74669
297.5954
297.46097
297.34562
297.25129
297.17939
297.13069
297.10518
297.10193
297.11909
297.15395
297.20304
297.26227
297.32725
297.39436
297.46138
297.52581
297.58867
297.64906
297.70566
297.76494
297.84467
297.9466
298.01658
299.67166
295.71365
298.67339
299.13088
300.33911
301.28264
302.19042
302.9959
303.70529
304.30989
304.80959
305.20723
305.50879
305.7223
305.85697
305.92251
305.92851
305.88408
305.79752
305.67631
305.52695
305.35504
305.16536
304.9619
304.74796
304.52628
304.29907
304.0681
303.83478
303.60022
303.36525
303.13051
302.89643
302.6633
302.4313
302.20049
301.97086
301.74234
301.51481
301.28812
301.06211
300.83663
300.61154
300.38673
300.16218
299.93792
299.71411
299.49101
299.26908
299.04891
298.83132
298.61733
298.4082
298.20543
298.01077
297.82617
297.65382
297.49603
297.35514
297.23338
297.13271
297.0546
296.99993
296.96882
296.96064
296.974
297.00677
297.05611
297.11838
297.18946
297.26607
297.34489
297.42227
297.49789
297.57114
297.63999
297.71256
297.80315
297.9102
297.99243
301.15701
298.31926
300.9929
301.7877
302.97305
303.97577
304.83081
305.54159
306.11699
306.56078
306.88325
307.09671
307.21482
307.25141
307.21963
307.13158
306.99795
306.82801
306.62963
306.40939
306.17272
305.92404
305.66695
305.40431
305.13839
304.87097
304.60343
304.33681
304.07187
303.80915
303.549
303.29164
303.03714
302.7855
302.53661
302.29031
302.04639
301.80462
301.56473
301.32646
301.08953
300.8537
300.61877
300.38457
300.15102
299.91812
299.68598
299.45487
299.22519
298.99754
298.7727
298.55165
298.33563
298.12606
297.92463
297.73324
297.55403
297.38928
297.24135
297.11254
297.00495
296.92024
296.85949
296.8231
296.81076
296.82148
296.85363
296.90489
296.97197
297.05077
297.13724
297.22763
297.31822
297.40595
297.48979
297.56949
297.65418
297.75553
297.8702
297.9657
303.09482
301.57578
303.83363
304.91333
306.06775
306.90671
307.58884
308.0927
308.44044
308.65036
308.74344
308.73969
308.65747
308.51298
308.31999
308.08999
307.83236
307.55471
307.26307
306.96222
306.6559
306.34701
306.03777
305.72985
305.42451
305.12264
304.82487
304.5316
304.24306
303.95932
303.68036
303.40605
303.1362
302.87055
302.60882
302.35066
302.09573
301.84365
301.59407
301.34663
301.10098
300.85681
300.61386
300.37192
300.13087
299.89067
299.65144
299.41338
299.17691
298.94258
298.71116
298.48359
298.26105
298.04493
297.83683
297.63861
297.45234
297.28028
297.12482
296.98838
296.8733
296.78157
296.71468
296.6734
296.65775
296.66704
296.69998
296.7545
296.82756
296.91508
297.01247
297.11524
297.21855
297.31872
297.41394
297.50525
297.60111
297.71208
297.83616
297.94962
305.50478
305.47498
307.43757
308.38146
309.24861
309.8352
310.21911
310.42118
310.47738
310.41714
310.26694
310.04873
309.7803
309.47582
309.14631
308.80033
308.44436
308.08335
307.72098
307.36001
307.00243
306.64968
306.30277
305.96234
305.62881
305.30236
304.98304
304.67075
304.36532
304.06649
303.77395
303.48734
303.20626
302.93029
302.659
302.39193
302.12864
301.86867
301.61158
301.35695
301.10438
300.85353
300.60407
300.35578
300.1085
299.86217
299.61687
299.37281
299.13036
298.89008
298.65268
298.41909
298.19045
297.96809
297.75357
297.54867
297.35538
297.17592
297.01267
296.86817
296.74502
296.6457
296.57234
296.52632
296.50808
296.51711
296.55208
296.61102
296.69095
296.78777
296.89655
297.01217
297.1296
297.2442
297.35318
297.45794
297.5658
297.68565
297.81659
297.94106
308.53221
309.8557
311.14462
311.81744
312.26996
312.45723
312.4603
312.32052
312.07806
311.76293
311.39825
311.00122
310.58448
310.15725
309.72617
309.29599
308.87003
308.45063
308.03934
307.63716
307.24471
306.86227
306.48992
306.12758
305.77502
305.43195
305.098
304.77274
304.45572
304.14645
303.84443
303.54914
303.26005
302.97664
302.69837
302.42472
302.15517
301.8892
301.62634
301.36612
301.10811
300.85192
300.59721
300.34371
300.09126
299.83977
299.5893
299.34004
299.09235
298.84675
298.60396
298.36489
298.13063
297.90249
297.68199
297.47085
297.27098
297.08449
296.91368
296.76109
296.62947
296.52182
296.44105
296.3896
296.36875
296.37819
296.41616
296.48038
296.5679
296.67458
296.79529
296.92459
297.05689
297.18683
297.31074
297.42935
297.54898
297.67705
297.8123
297.93936
312.44125
314.16282
314.66674
314.82712
314.74939
314.49477
314.12429
313.67985
313.19108
312.67839
312.15552
311.63174
311.11315
310.6037
310.10591
309.62127
309.15058
308.69419
308.25211
307.82413
307.40988
307.0089
306.62067
306.24459
305.88008
305.52651
305.18325
304.84968
304.52516
304.20906
303.90077
303.59968
303.30517
303.01665
302.73353
302.45524
302.18122
301.91092
301.64384
301.37947
301.11736
300.8571
300.59833
300.34076
300.0842
299.82855
299.57386
299.32029
299.06819
298.81809
298.57067
298.32684
298.08771
297.85457
297.62892
297.41246
297.20703
297.01468
296.83751
296.67782
296.53827
296.42199
296.33253
296.27353
296.24781
296.25652
296.29798
296.36807
296.46348
296.57975
296.71175
296.85411
297.00087
297.14574
297.28411
297.41586
297.54641
297.68167
297.8188
297.94227
317.3686
317.68497
317.37668
316.98418
316.43923
315.82614
315.17905
314.52309
313.87202
313.23418
312.61409
312.01415
311.43538
310.87796
310.34159
309.82565
309.32937
308.85186
308.39221
307.94948
307.52277
307.11115
306.71376
306.32973
305.95825
305.59852
305.24976
304.91122
304.58219
304.26196
303.94984
303.64516
303.34728
303.05555
302.76937
302.48813
302.21125
301.93817
301.66834
301.40127
301.13647
300.87352
300.61205
300.35174
300.09239
299.83388
299.57624
299.31963
299.06438
298.81099
298.56018
298.31283
298.07007
297.83319
297.60371
297.38337
297.17411
296.97785
296.79644
296.63179
296.48662
296.36333
296.26502
296.19566
296.1594
296.15999
296.20213
296.28003
296.38344
296.50723
296.64793
296.80058
296.95928
297.11697
297.26787
297.41078
297.55
297.69028
297.82768
297.94621
319.33248
319.4741
318.85212
318.06802
317.26665
316.46661
315.68651
314.93365
314.21108
313.51954
312.85853
312.22692
311.6233
311.04611
310.49381
309.96486
309.45783
308.97131
308.50402
308.05473
307.6223
307.20565
306.80377
306.4157
306.04053
305.6774
305.32548
304.98399
304.65218
304.3293
304.01467
303.70759
303.4074
303.11346
302.82515
302.54186
302.26299
301.98799
301.71631
301.44744
301.18089
300.91624
300.65309
300.39113
300.13014
299.86998
299.61066
299.35232
299.09527
298.84
298.58719
298.33774
298.09274
297.85351
297.62156
297.39859
297.18635
296.98686
296.80257
296.63602
296.48865
296.36196
296.25751
296.17835
296.13077
296.11544
296.12957
296.2269
296.33772
296.46454
296.60914
296.76715
296.93251
297.09793
297.25657
297.40653
297.55148
297.69536
297.83336
297.94885
309.04821
309.31389
306.27282
303.81012
302.7123
302.46069
302.4005
302.3915
302.3257
302.24679
302.16943
302.0895
302.01086
301.93129
301.85172
301.7709
301.68898
301.60591
301.52183
301.43684
301.35112
301.26484
301.17819
301.09137
301.00455
300.91794
300.83172
300.74608
300.6612
300.57727
300.49446
300.41297
300.33297
300.25465
300.17822
300.10388
300.03183
299.96229
299.89546
299.83158
299.77085
299.7135
299.65975
299.60979
299.56384
299.52206
299.48456
299.45149
299.42276
299.39824
299.37772
299.36073
299.34648
299.33439
299.32301
299.31081
299.29592
299.27593
299.24774
299.20758
299.15106
299.07331
298.96832
298.82879
298.65042
298.42812
298.16895
297.87581
297.58596
297.30683
297.11294
296.96792
297.00148
297.05008
297.47939
297.97214
298.66307
299.2226
299.34959
298.76505
308.96725
307.22653
303.78297
302.05938
301.6022
301.60664
301.68258
301.69252
301.68985
301.67407
301.65349
301.62166
301.58297
301.53818
301.48925
301.43612
301.37963
301.31997
301.25756
301.19275
301.12586
301.0572
300.98707
300.91572
300.84344
300.77046
300.69703
300.62338
300.54974
300.47634
300.4034
300.33115
300.25979
300.18957
300.12071
300.05344
299.988
299.92463
299.86355
299.80502
299.74925
299.69649
299.64695
299.60085
299.55839
299.51973
299.48498
299.45422
299.42741
299.40436
299.38479
299.36821
299.35398
299.3408
299.32754
299.31261
299.29392
299.26878
299.23413
299.18643
299.12161
299.03487
298.92043
298.77237
298.58699
298.36101
298.10226
297.81592
297.53767
297.27778
297.10303
296.99473
297.03996
297.11352
297.56337
298.06161
298.74667
299.26119
299.36397
298.72
308.46263
305.59602
303.1148
301.57784
301.32658
301.36222
301.40698
301.38089
301.36187
301.32861
301.30041
301.26556
301.23095
301.19261
301.15243
301.10968
301.06496
301.01801
300.96905
300.91817
300.8655
300.81118
300.75534
300.69815
300.63976
300.58036
300.52012
300.45922
300.39788
300.33627
300.27461
300.21312
300.15201
300.09151
300.03185
299.97328
299.91604
299.86037
299.80652
299.75475
299.70528
299.65836
299.61423
299.57309
299.53514
299.50054
299.46941
299.44178
299.41759
299.39667
299.37863
299.36299
299.34929
299.33559
299.32096
299.30365
299.28142
299.25168
299.21145
299.15728
299.08511
298.99031
298.86775
298.71273
298.52216
298.29452
298.03825
297.76016
297.49486
297.25353
297.09843
297.02006
297.08228
297.1967
297.64776
298.14899
298.82375
299.29107
299.37446
298.67322
307.75574
304.50361
302.05704
300.91899
300.95551
300.95508
300.98709
300.9494
300.94399
300.91606
300.89912
300.87242
300.84801
300.8197
300.79061
300.75948
300.72691
300.69252
300.65648
300.61879
300.5795
300.53867
300.49638
300.45269
300.40772
300.36158
300.31439
300.2663
300.21744
300.16799
300.11812
300.06801
300.01787
299.9679
299.91833
299.86939
299.8213
299.77432
299.72869
299.68465
299.64245
299.60233
299.56451
299.52921
299.49661
299.46687
299.44009
299.41629
299.39538
299.37715
299.36121
299.34695
299.33377
299.31999
299.30438
299.28515
299.26005
299.22645
299.18133
299.12121
299.04217
298.94008
298.81046
298.6496
298.45526
298.22751
297.97528
297.70679
297.45558
297.23257
297.09777
297.04116
297.12715
297.29558
297.73294
298.23614
298.89502
299.31487
299.38094
298.62812
307.3173
303.52228
301.27572
300.39236
300.5369
300.49065
300.54502
300.50685
300.51816
300.49483
300.48984
300.47148
300.45804
300.43996
300.42178
300.40178
300.38064
300.35794
300.33378
300.30817
300.28112
300.25264
300.22276
300.19154
300.15903
300.12531
300.09045
300.05455
300.01774
299.98012
299.94184
299.90306
299.86394
299.82466
299.78543
299.74644
299.70793
299.6701
299.6332
299.59746
299.56311
299.53037
299.49947
299.47061
299.44397
299.41967
299.3978
299.37835
299.36122
299.34616
299.33276
299.32033
299.30788
299.2945
299.2785
299.2579
299.23042
299.19341
299.14383
299.0783
298.99321
298.88481
298.74932
298.58384
298.38725
298.16093
297.91423
297.65659
297.42041
297.21544
297.10079
297.06383
297.17457
297.38236
297.81781
298.32248
298.95968
299.33414
299.38361
298.58344
306.84977
302.56426
300.61914
299.88763
300.10563
300.0276
300.10681
300.06658
300.09498
300.07723
300.08491
300.07521
300.07264
300.06454
300.05666
300.04701
300.03633
300.02424
300.01079
299.99599
299.97987
299.96242
299.94367
299.92366
299.9024
299.87996
299.85638
299.83174
299.80612
299.7796
299.7523
299.72433
299.69583
299.66696
299.63788
299.60877
299.57982
299.55124
299.52323
299.496
299.46977
299.44475
299.42113
299.3991
299.3788
299.36035
299.34379
299.3291
299.31614
299.30462
299.29411
299.28392
299.27312
299.26038
299.24413
299.2224
299.19288
299.15288
299.09942
299.02924
298.93898
298.82524
298.68499
298.51612
298.31867
298.09514
297.8553
297.6096
297.38919
297.20229
297.10599
297.08688
297.22493
297.45901
297.90245
298.40769
299.0177
299.34834
299.38428
298.53652
306.47148
301.66392
300.10279
299.44766
299.71244
299.60577
299.70709
299.66278
299.70459
299.68965
299.70663
299.70309
299.70875
299.70865
299.70865
299.70709
299.70461
299.70104
299.69634
299.69052
299.68357
299.67549
299.66627
299.65593
299.64449
299.63196
299.61838
299.6038
299.58826
299.57183
299.55459
299.53664
299.51806
299.499
299.47958
299.45995
299.44028
299.42074
299.40151
299.38277
299.3647
299.34749
299.33131
299.3163
299.30258
299.29022
299.27925
299.26959
299.26107
299.25338
299.24603
299.2383
299.2292
299.21744
299.20134
299.17893
299.14786
299.10546
299.04877
298.9747
298.88011
298.76202
298.61815
298.44714
298.25013
298.03063
297.79882
297.56601
297.36187
297.19344
297.11434
297.10895
297.27775
297.53322
297.98695
298.49125
299.0696
299.35989
299.38124
298.48572
306.15965
300.84415
299.68158
299.05378
299.3591