/*--------------------------------*- C++ -*----------------------------------*\
  =========                 |
  \\      /  F ield         | OpenFOAM: The Open Source CFD Toolbox
   \\    /   O peration     | Website:  https://openfoam.org
    \\  /    A nd           | Version:  12
     \\/     M anipulation  |
\*---------------------------------------------------------------------------*/
FoamFile
{
    format      ascii;
    class       volScalarField;
    location    "1000";
    object      alphat;
}
// * * * * * * * * * * * * * * * * * * * * * * * * * * * * * * * * * * * * * //

dimensions      [1 -1 -1 0 0 0 0];

internalField   nonuniform List<scalar> 
16200
(
0.0004816813365
0.001645508396
0.002738028911
0.003589959167
0.003851790555
0.003394432783
0.002501416215
0.001371544893
0.0007071716019
0.0001867508097
5.836218154e-06
2.63833067e-06
2.391534521e-06
2.353672155e-06
1.868109873e-06
1.610089188e-06
1.40603473e-06
1.262185609e-06
1.168942269e-06
1.108952059e-06
1.074575049e-06
1.062983471e-06
1.071371567e-06
1.098034571e-06
1.142605285e-06
1.206314344e-06
1.292413637e-06
1.40682125e-06
1.559456496e-06
1.766995606e-06
2.058042466e-06
2.482749128e-06
3.131105299e-06
4.170676051e-06
5.931509403e-06
9.098810241e-06
1.515085882e-05
2.734920626e-05
5.29895512e-05
0.0001085804937
0.0002318952899
0.0005102139396
0.001146850736
0.001165319949
0.001165854921
0.001165501283
0.001164498756
0.001164195649
0.001164206593
0.001164316838
0.001164442713
0.001164556512
0.001164653368
0.001164737323
0.001164815604
0.001164897714
0.001164993929
0.001165122001
0.001165294118
0.001165566809
0.0004703411578
0.001592956191
0.002621228867
0.003370781557
0.003469018581
0.002898009076
0.002025757031
0.001003548244
0.0005544634124
4.113723587e-05
2.676706999e-06
2.199076469e-06
2.003752498e-06
1.966767667e-06
1.662320789e-06
1.429439123e-06
1.244934083e-06
1.1149868e-06
1.032406667e-06
9.805192651e-07
9.52013344e-07
9.439955806e-07
9.536920873e-07
9.793379524e-07
1.0204806e-06
1.078160815e-06
1.155303076e-06
1.257333092e-06
1.393475876e-06
1.579297502e-06
1.841241332e-06
2.224994982e-06
2.81169084e-06
3.751596084e-06
5.339960175e-06
8.189124896e-06
1.362013609e-05
2.45482739e-05
4.749439853e-05
9.721096303e-05
0.000207450103
0.0004562143126
0.001025277022
0.00116515416
0.001165729876
0.001165498225
0.001164501032
0.001164192973
0.001164204185
0.001164316862
0.001164445681
0.001164562175
0.001164661195
0.001164746656
0.001164825899
0.001164908146
0.0011650042
0.001165131495
0.001165303476
0.001165579927
0.0004606931357
0.001543583801
0.002509199037
0.003154113557
0.003096452503
0.002440798973
0.001551482603
0.000730475515
0.0003671226151
1.396079823e-05
2.075383291e-06
1.839813847e-06
1.681883616e-06
1.647137156e-06
1.470161569e-06
1.261453681e-06
1.096127515e-06
9.796896269e-07
9.070880462e-07
8.624527344e-07
8.388196974e-07
8.332114756e-07
8.428850323e-07
8.66057563e-07
9.022606826e-07
9.524657009e-07
1.019473864e-06
1.108574941e-06
1.228824116e-06
1.395267435e-06
1.632712501e-06
1.982892899e-06
2.518970353e-06
3.376010344e-06
4.81923658e-06
7.398287405e-06
1.229767832e-05
2.212737464e-05
4.27120665e-05
8.719360073e-05
0.0001855577256
0.000406938222
0.0009121205051
0.001165082964
0.001165654056
0.001165502979
0.001164517838
0.001164203297
0.001164211632
0.001164323746
0.001164453154
0.00116457065
0.001164670674
0.001164756918
0.001164836649
0.001164918885
0.001165014662
0.001165141274
0.001165313157
0.001165593416
0.0004536764167
0.001497855218
0.002399365584
0.002908705506
0.002723065897
0.002030612455
0.001101173945
0.0005394776058
0.000178716372
4.926063191e-06
1.729897951e-06
1.555905171e-06
1.42702495e-06
1.394334467e-06
1.301980148e-06
1.113864509e-06
9.650638493e-07
8.603730305e-07
7.963041176e-07
7.5772318e-07
7.379749352e-07
7.34015021e-07
7.431705261e-07
7.637578934e-07
7.954383216e-07
8.393213668e-07
8.983867384e-07
9.781857281e-07
1.088003114e-06
1.242683049e-06
1.465776486e-06
1.795959654e-06
2.300584554e-06
3.104249483e-06
4.452250292e-06
6.853337063e-06
1.140376546e-05
2.051735409e-05
3.957374391e-05
8.068860468e-05
0.0001714536547
0.0003753733782
0.000839926538
0.001165120703
0.001165643168
0.001165514213
0.001164551712
0.001164230257
0.001164232404
0.001164340359
0.001164467332
0.001164583541
0.001164682938
0.001164768873
0.001164848374
0.001164930234
0.001165025486
0.001165151391
0.001165323043
0.001165606549
0.0004478309505
0.001455350555
0.002293489504
0.002669351539
0.002363761693
0.001674900643
0.0007919874921
0.0004092725249
4.245735857e-05
1.992127674e-06
1.458411273e-06
1.31937351e-06
1.214273249e-06
1.184341074e-06
1.147110176e-06
9.784994815e-07
8.454453833e-07
7.520061437e-07
6.959074301e-07
6.628207841e-07
6.464840327e-07
6.438830177e-07
6.525141777e-07
6.70919388e-07
6.990209553e-07
7.38241567e-07
7.919496606e-07
8.661178707e-07
9.702689931e-07
1.118950856e-06
1.334505209e-06
1.653040103e-06
2.137306386e-06
2.903871809e-06
4.18302509e-06
6.452826406e-06
1.074272328e-05
1.931608043e-05
3.720626052e-05
7.571943316e-05
0.0001605348279
0.0003506076496
0.0007825501212
0.001165238678
0.001165682554
0.001165530871
0.001164598362
0.001164269592
0.001164263053
0.001164364142
0.001164486403
0.001164599607
0.001164697164
0.001164781982
0.001164860744
0.001164941981
0.001165036586
0.001165161814
0.001165333234
0.001165619762
0.000442645563
0.001415663793
0.002189784685
0.002430668994
0.002017151127
0.001307112945
0.0005860947119
0.0002814828886
1.655043843e-05
1.508489522e-06
1.238363743e-06
1.124964807e-06
1.038705525e-06
1.011080383e-06
1.006889453e-06
8.55906816e-07
7.372683428e-07
6.543291515e-07
6.056162712e-07
5.776432155e-07
5.645727794e-07
5.634749539e-07
5.720738729e-07
5.892264946e-07
6.152263706e-07
6.519392521e-07
7.032132384e-07
7.754200618e-07
8.782083817e-07
1.025800289e-06
1.239607682e-06
1.55393185e-06
2.028350713e-06
2.774018745e-06
4.011432863e-06
6.198968678e-06
1.032304768e-05
1.854877318e-05
3.567946245e-05
7.247425989e-05
0.0001532994098
0.0003339420825
0.0007433505578
0.001165421764
0.001165766318
0.001165571921
0.00116465451
0.001164319178
0.001164302294
0.001164394359
0.001164509972
0.001164618652
0.001164713269
0.00116479622
0.00116487377
0.001164954135
0.001165047982
0.001165172547
0.001165343724
0.001165632973
0.0004374150923
0.001377600428
0.002086127264
0.002181806338
0.001690208935
0.0009571087715
0.0004403237901
0.0001665623003
5.225072304e-06
1.252104527e-06
1.053381757e-06
9.602516142e-07
8.891046076e-07
8.639312829e-07
8.777152303e-07
7.435903882e-07
6.388877872e-07
5.663742237e-07
5.250074679e-07
5.021938036e-07
4.925558169e-07
4.933200287e-07
5.025253483e-07
5.194432411e-07
5.448242207e-07
5.807834744e-07
6.320741691e-07
7.051069509e-07
8.095396163e-07
9.59307591e-07
1.175794559e-06
1.491224275e-06
1.963486177e-06
2.700185846e-06
3.915724024e-06
6.056629658e-06
1.0083183e-05
1.809892793e-05
3.475799994e-05
7.045337776e-05
0.0001486480469
0.0003228983113
0.0007166463599
0.001165650096
0.001165881895
0.001165629825
0.001164717169
0.001164376326
0.001164348098
0.001164429607
0.001164537115
0.001164640096
0.001164730904
0.001164811388
0.001164887345
0.001164966642
0.001165059657
0.001165183588
0.001165354534
0.001165646249
0.0004314307261
0.001339179427
0.001978660426
0.001929720855
0.00139746906
0.0006932958464
0.0003410144143
6.06296619e-05
2.355485929e-06
1.053250537e-06
8.970369902e-07
8.196359036e-07
7.612271314e-07
7.388739494e-07
7.607617266e-07
6.427336332e-07
5.513836995e-07
4.890155256e-07
4.547610638e-07
4.369661929e-07
4.307654521e-07
4.33628019e-07
4.439829098e-07
4.615660755e-07
4.873796772e-07
5.246814607e-07
5.778583923e-07
6.537385507e-07
7.620139244e-07
9.165223053e-07
1.137784063e-06
1.459158555e-06
1.935748851e-06
2.673682028e-06
3.884416113e-06
6.009415207e-06
9.99755748e-06
1.792303615e-05
3.436206326e-05
6.950143714e-05
0.0001462646961
0.0003168126301
0.0007010124073
0.001165907323
0.001166018828
0.001165698198
0.001164783645
0.00116443868
0.001164398716
0.001164468689
0.001164567063
0.001164663466
0.001164749793
0.001164827336
0.0011649014
0.00116497947
0.001165071606
0.001165194937
0.001165365671
0.001165659599
0.0004248130737
0.001298346642
0.001843857348
0.001675640506
0.001118542753
0.0005162814274
0.0002591887672
3.13519554e-05
1.435269732e-06
8.922941857e-07
7.675529881e-07
7.025924266e-07
6.54348008e-07
6.345494216e-07
6.578884301e-07
5.543910269e-07
4.752165454e-07
4.222903029e-07
3.946607634e-07
3.815995556e-07
3.787542905e-07
3.838764935e-07
3.955660151e-07
4.145506973e-07
4.422323141e-07
4.8177313e-07
5.3808193e-07
6.181491899e-07
7.317511038e-07
8.927970628e-07
1.12185984e-06
1.452037383e-06
1.938199421e-06
2.685621465e-06
3.905334345e-06
6.039206803e-06
1.003664181e-05
1.796850326e-05
3.439049976e-05
6.941189456e-05
0.0001457088799
0.0003147166667
0.0006942746993
0.001166179134
0.001166167696
0.001165771068
0.001164851854
0.001164504176
0.001164452518
0.001164510448
0.001164599043
0.001164688275
0.001164769644
0.001164843903
0.001164915852
0.001164992583
0.00116508382
0.001165206593
0.001165377142
0.001165673044
0.0004173969931
0.001255034459
0.001693762631
0.001426113396
0.0008281978229
0.000390317244
0.0001843357988
1.760343496e-05
1.12058497e-06
7.597889601e-07
6.591314639e-07
6.042704802e-07
5.641739529e-07
5.468016709e-07
5.676558237e-07
4.773568305e-07
4.093704824e-07
3.65302023e-07
3.438963577e-07
3.35320555e-07
3.357174438e-07
3.428877742e-07
3.567138976e-07
3.77578301e-07
4.075224652e-07
4.500739217e-07
5.1037516e-07
5.955726085e-07
7.156018251e-07
8.845995734e-07
1.123432424e-06
1.465321441e-06
1.965451474e-06
2.729300523e-06
3.969601466e-06
6.133297278e-06
1.018053792e-05
1.820117278e-05
3.477963273e-05
7.005789909e-05
0.0001467150924
0.0003160347363
0.0006951539239
0.001166454221
0.001166320904
0.001165843459
0.001164920158
0.001164571107
0.001164508119
0.001164553877
0.001164632376
0.001164714089
0.001164790199
0.001164860942
0.001164930629
0.00116500595
0.00116509629
0.001165218557
0.001165388951
0.001165686597
0.0004089315264
0.001208751784
0.001533438407
0.001188687812
0.000602189124
0.0003001254723
0.0001220179
1.202463478e-05
9.210406874e-07
6.494091585e-07
5.678930099e-07
5.212344138e-07
4.877650529e-07
4.727070275e-07
4.890252717e-07
4.107645638e-07
3.530948301e-07
3.173066388e-07
3.016692246e-07
2.972242166e-07
3.003124009e-07
3.100361734e-07
3.258675776e-07
3.488824155e-07
3.815465158e-07
4.276691939e-07
4.925826929e-07
5.836073742e-07
7.10917221e-07
8.890072467e-07
1.139229062e-06
1.495242911e-06
2.0129918e-06
2.799051175e-06
4.069671e-06
6.280870937e-06
1.041232625e-05
1.859202228e-05
3.547530715e-05
7.133128331e-05
0.0001490560515
0.0003202717043
0.0007025438966
0.001166723919
0.001166472503
0.00116591134
0.001164987364
0.001164638119
0.001164564374
0.001164598125
0.001164666474
0.001164740526
0.001164811223
0.001164878322
0.001164945664
0.001165019543
0.001165109012
0.001165230829
0.0011654011
0.00116570027
0.0003989901866
0.001158217766
0.001368403881
0.0009521692841
0.0004567167128
0.0002369068656
5.881914237e-05
6.684214838e-06
7.468784079e-07
5.57283424e-07
4.907199845e-07
4.51007501e-07
4.23049516e-07
4.10275522e-07
4.212431469e-07
3.538548812e-07
3.05577146e-07
2.773727852e-07
2.669152723e-07
2.65823296e-07
2.718760325e-07
2.837626075e-07
3.01625083e-07
3.270387388e-07
3.627965069e-07
4.129195308e-07
4.829098979e-07
5.80295529e-07
7.155635634e-07
9.036745055e-07
1.166618184e-06
1.538757825e-06
2.077170387e-06
2.890311111e-06
4.19954494e-06
6.473500174e-06
1.071912946e-05
1.911946249e-05
3.643800403e-05
7.315424542e-05
0.0001525698902
0.0003270770825
0.00071566405
0.001166981988
0.001166618103
0.001165971627
0.00116505262
0.001164704175
0.001164620375
0.001164642496
0.001164700846
0.001164767263
0.001164832516
0.00116489593
0.001164960901
0.001165033337
0.001165121978
0.001165243407
0.001165413591
0.001165714073
0.0003872484974
0.001100967811
0.001197246091
0.0007230986323
0.0003591642012
0.000185723085
3.039855127e-05
3.468173769e-06
6.089662962e-07
4.803246597e-07
4.257956531e-07
3.918743054e-07
3.684583564e-07
3.577436301e-07
3.631328334e-07
3.054131749e-07
2.656068356e-07
2.44266084e-07
2.383761538e-07
2.404305332e-07
2.489477655e-07
2.628336821e-07
2.828243028e-07
3.10884156e-07
3.500456047e-07
4.044960918e-07
4.799102316e-07
5.840640413e-07
7.278227244e-07
9.266984572e-07
1.203443471e-06
1.593346624e-06
2.154947421e-06
2.999277224e-06
4.354252354e-06
6.704284685e-06
1.109056811e-05
1.976636275e-05
3.763677544e-05
7.546644965e-05
0.0001571318977
0.0003361818603
0.000733916251
0.001167224185
0.00116675463
0.00116602208
0.001165115352
0.001164768513
0.001164675427
0.001164686442
0.001164735098
0.001164794034
0.001164853911
0.001164913668
0.001164976288
0.001165047313
0.001165135185
0.001165256289
0.00116542642
0.001165728011
0.0003741258969
0.001035849843
0.001023368118
0.0005467452284
0.0002796067869
0.0001389356776
1.844587411e-05
1.903173745e-06
5.028883807e-07
4.143362459e-07
3.709917857e-07
3.417336514e-07
3.218834032e-07
3.129132609e-07
3.129481215e-07
2.639608652e-07
2.319235577e-07
2.168251364e-07
2.145763025e-07
2.198427705e-07
2.304788723e-07
2.463207029e-07
2.685825195e-07
2.995126779e-07
3.423167668e-07
4.013290726e-07
4.82414485e-07
5.936364093e-07
7.462906563e-07
9.565103056e-07
1.247997822e-06
1.656906132e-06
2.243785653e-06
3.122792581e-06
4.529717152e-06
6.967673415e-06
1.151848718e-05
2.051958613e-05
3.904839365e-05
7.822337782e-05
0.0001626511868
0.0003473915577
0.0007568700743
0.001167447871
0.001166880083
0.001166061173
0.001165175192
0.001164830596
0.001164729016
0.001164729548
0.001164768921
0.001164820626
0.001164875272
0.001164931458
0.001164991786
0.001165061454
0.001165148629
0.001165269472
0.001165439586
0.00116574209
0.0003606500456
0.000964949955
0.0008340825356
0.0004240952539
0.0002285492553
0.0001017914252
1.29642802e-05
1.101737094e-06
4.195544321e-07
3.572242264e-07
3.222283709e-07
2.979682072e-07
2.811919797e-07
2.739326719e-07
2.693482359e-07
2.28479609e-07
2.036690857e-07
1.942062551e-07
1.954657005e-07
2.031738717e-07
2.157241201e-07
2.335535615e-07
2.582331847e-07
2.922074896e-07
3.388160998e-07
4.025405145e-07
4.89458852e-07
6.079547552e-07
7.697954895e-07
9.917918594e-07
1.298580768e-06
1.727661219e-06
2.341550226e-06
3.258219514e-06
4.722575784e-06
7.259170918e-06
1.199643761e-05
2.136900509e-05
4.06553708e-05
8.139216516e-05
0.0001690616479
0.0003605661257
0.0007842174441
0.001167651637
0.001166993301
0.001166087964
0.001165231934
0.001164890073
0.001164780786
0.001164771509
0.001164802084
0.001164846876
0.001164896492
0.001164949235
0.001165007362
0.001165075746
0.001165162307
0.001165282953
0.001165453086
0.001165756313
0.0003473899225
0.0008863981881
0.0006812141559
0.0003521310401
0.0001948756945
5.765025356e-05
8.72430559e-06
6.946930546e-07
3.53725049e-07
3.07873895e-07
2.795415436e-07
2.593396932e-07
2.457992118e-07
2.401733878e-07
2.318017185e-07
1.984285787e-07
1.802583747e-07
1.753885562e-07
1.800249546e-07
1.897805852e-07
2.041452422e-07
2.240254461e-07
2.512388156e-07
2.88367157e-07
3.388694911e-07
4.073847113e-07
5.002246049e-07
6.261183767e-07
7.973370755e-07
1.031417817e-06
1.354016667e-06
1.80411026e-06
2.446449935e-06
3.403368752e-06
4.930079566e-06
7.575184692e-06
1.251941273e-05
2.230701039e-05
4.244498633e-05
8.494957709e-05
0.0001763175826
0.000375610276
0.0008157508373
0.001167834978
0.001167093755
0.001166109742
0.001165285488
0.001164946735
0.001164830501
0.001164812113
0.001164834416
0.00116487266
0.001164917487
0.001164966949
0.001165022989
0.00116509018
0.001165176216
0.00116529673
0.001165466926
0.001165770679
0.0003368592759
0.0007990581317
0.0005595915967
0.0002959597545
0.00016401686
3.219294611e-05
4.198343928e-06
4.748532777e-07
3.010999508e-07
2.659647333e-07
2.428627205e-07
2.259469246e-07
2.148981534e-07
2.110075666e-07
1.996886371e-07
1.732388079e-07
1.611197505e-07
1.605624943e-07
1.676469583e-07
1.791904038e-07
1.953324933e-07
2.173197229e-07
2.471347249e-07
2.874657723e-07
3.418908292e-07
4.152174717e-07
5.140064237e-07
6.473521509e-07
8.280569211e-07
1.074435579e-06
1.413214659e-06
1.884993976e-06
2.556998471e-06
3.556445993e-06
5.15001396e-06
7.912892568e-06
1.308361408e-05
2.33280701e-05
4.440840819e-05
8.888017422e-05
0.0001843897294
0.0003924646275
0.0008513431644
0.001167998033
0.00116718097
0.001166129801
0.001165335852
0.001165000483
0.001164878024
0.001164851224
0.001164865803
0.001164897889
0.001164938197
0.001164984561
0.001165038645
0.001165104746
0.001165190353
0.001165310799
0.001165481129
0.00116578519
0.0003323554214
0.0007058221664
0.0004677916353
0.000250434832
0.0001345567913
1.940191615e-05
2.031343769e-06
3.482367087e-07
2.577454188e-07
2.299641207e-07
2.109903515e-07
1.968478149e-07
1.87869008e-07
1.855128943e-07
1.723841372e-07
1.524307389e-07
1.454410026e-07
1.488176778e-07
1.578698633e-07
1.710291895e-07
1.889323736e-07
2.130553906e-07
2.454928886e-07
2.890266921e-07
3.473571153e-07
4.254694999e-07
5.301852283e-07
6.709807157e-07
8.612155047e-07
1.120008088e-06
1.475258537e-06
1.969269524e-06
2.671981838e-06
3.716007584e-06
5.380633497e-06
8.270139087e-06
1.368627294e-05
2.442839947e-05
4.654004193e-05
9.317495905e-05
0.0001932623362
0.0004110991908
0.000890932977
0.001168141397
0.001167254691
0.001166148263
0.001165383082
0.0011650513
0.001164923292
0.001164888764
0.001164896168
0.001164922502
0.001164958575
0.001165002043
0.001165054316
0.001165119437
0.001165204718
0.001165325164
0.0011654957
0.001165799843
0.0003369648269
0.000611409503
0.0003857325134
0.0002167794053
0.0001076431671
1.288783463e-05
1.003212224e-06
2.716424505e-07
2.211220115e-07
1.987226505e-07
1.83162768e-07
1.714926762e-07
1.643998925e-07
1.63470177e-07
1.495930598e-07
1.356933434e-07
1.335074008e-07
1.396478238e-07
1.503030634e-07
1.649654457e-07
1.846176685e-07
2.108782954e-07
2.45923295e-07
2.926241424e-07
3.54807035e-07
4.376427202e-07
5.482238383e-07
6.964241316e-07
8.961825238e-07
1.167463094e-06
1.539394694e-06
2.056091642e-06
2.790430063e-06
3.880919182e-06
5.620600916e-06
8.645342127e-06
1.43254977e-05
2.560569324e-05
4.883702713e-05
9.783037014e-05
0.0002029310469
0.0004315087577
0.0009345141464
0.001168265965
0.001167314956
0.001166165236
0.001165427281
0.001165099226
0.001164966298
0.001164924699
0.001164925472
0.001164946461
0.001164978593
0.001165019374
0.001165069989
0.001165134248
0.001165219306
0.001165339825
0.001165510642
0.001165814634
0.0003520282273
0.0005242136121
0.0003324271418
0.0001957694292
6.369998955e-05
9.184171551e-06
5.25093111e-07
2.210182624e-07
1.90217595e-07
1.719665223e-07
1.592692109e-07
1.497839147e-07
1.443816324e-07
1.447888387e-07
1.31025917e-07
1.226214257e-07
1.243964585e-07
1.325646018e-07
1.445816005e-07
1.606862761e-07
1.820759694e-07
2.104545606e-07
2.480655844e-07
2.978706298e-07
3.638262414e-07
4.512959056e-07
5.676540075e-07
7.231863966e-07
9.324336694e-07
1.216239759e-06
1.605018187e-06
2.144795036e-06
2.91159393e-06
4.050323916e-06
5.868941474e-06
9.037422426e-06
1.500015584e-05
2.685890993e-05
5.129881286e-05
0.0001028473931
0.0002134009677
0.000453708606
0.0009821264593
0.001168372805
0.001167362002
0.001166180817
0.001165468577
0.001165144343
0.001165007075
0.00116495903
0.001164953699
0.001164969745
0.001164998232
0.001165036541
0.001165085655
0.001165149175
0.001165234115
0.001165354784
0.001165525909
0.001165829555
0.0003754989822
0.0004938635629
0.0002938133472
0.0001782568783
3.448217846e-05
3.838631098e-06
3.05774606e-07
1.853713608e-07
1.645232906e-07
1.494808566e-07
1.390922798e-07
1.31448905e-07
1.275451528e-07
1.290793742e-07
1.162237266e-07
1.12493683e-07
1.17472504e-07
1.271474837e-07
1.403967679e-07
1.579178571e-07
1.810263385e-07
2.114835241e-07
2.515975554e-07
3.044228831e-07
3.740521918e-07
4.660489522e-07
5.880796369e-07
7.508563046e-07
9.695425669e-07
1.265893815e-06
1.671660521e-06
2.234875601e-06
3.03491839e-06
4.223606115e-06
6.124993416e-06
9.445733216e-06
1.570976668e-05
2.818809447e-05
5.392683796e-05
0.0001082309426
0.0002246853937
0.0004777317908
0.001033850031
0.001168463072
0.001167396197
0.001166195099
0.001165507117
0.001165186762
0.001165045683
0.001164991781
0.001164980851
0.001164992347
0.00116501748
0.001165053533
0.001165101308
0.001165164212
0.001165249143
0.001165370034
0.00116554147
0.001165844594
0.0004039040969
0.0004378000974
0.0002679994554
0.0001603785798
1.893229938e-05
1.481803755e-06
2.067400968e-07
1.584472149e-07
1.430324223e-07
1.305226844e-07
1.219750925e-07
1.159266931e-07
1.134082344e-07
1.146668902e-07
1.046679299e-07
1.05070774e-07
1.122058903e-07
1.230802452e-07
1.375053019e-07
1.564240307e-07
1.812169708e-07
2.136944248e-07
2.5623099e-07
3.119779548e-07
3.851701162e-07
4.815780764e-07
6.091702448e-07
7.790984809e-07
1.007169077e-06
1.316078877e-06
1.738964633e-06
2.325957738e-06
3.160000366e-06
4.400336738e-06
6.388335617e-06
9.869959615e-06
1.645435103e-05
2.959413439e-05
5.672410308e-05
0.0001139890567
0.0002368042088
0.0005036257886
0.001089797775
0.001168537946
0.001167417977
0.001166208168
0.001165543057
0.001165226607
0.001165082202
0.001165022993
0.001165006944
0.001165014268
0.001165036336
0.001165070346
0.001165116941
0.001165179355
0.001165264384
0.001165385565
0.001165557313
0.001165859736
0.0004383597957
0.000409180866
0.0002572715342
0.0001399714012
1.116245775e-05
5.410764219e-07
1.60566727e-07
1.367716913e-07
1.247012385e-07
1.142838664e-07
1.073494734e-07
1.02775119e-07
1.013244127e-07
1.011371638e-07
9.589776956e-08
9.960057309e-08
1.082252287e-07
1.201406371e-07
1.357102311e-07
1.559954314e-07
1.824204103e-07
2.168441706e-07
2.617108553e-07
3.202728738e-07
3.969125999e-07
4.976147448e-07
6.306589029e-07
8.076495315e-07
1.045054166e-06
1.366539612e-06
1.806676314e-06
2.417783848e-06
3.286575895e-06
4.580257253e-06
6.658766442e-06
1.031008844e-05
1.723438319e-05
3.107867328e-05
5.969499742e-05
0.000120132522
0.0002497830345
0.0005314504231
0.001150107866
0.001168598595
0.001167427796
0.00116622011
0.001165576554
0.001165264013
0.001165116722
0.001165052719
0.001165032004
0.00116503552
0.001165054798
0.001165086976
0.00116513255
0.0011651946
0.001165279835
0.001165401367
0.001165573393
0.001165874974
0.0004759783837
0.0004017786652
0.0002558183242
9.607007635e-05
5.685840722e-06
2.222555771e-07
1.3446374e-07
1.186039194e-07
1.088842964e-07
1.004822959e-07
9.483440877e-08
9.147838846e-08
9.109664599e-08
9.051792197e-08
8.947064713e-08
9.551791722e-08
1.052813666e-07
1.181556894e-07
1.348350351e-07
1.564389059e-07
1.844292665e-07
2.207155436e-07
2.678145037e-07
3.29083736e-07
4.090582414e-07
5.13943415e-07
6.523386771e-07
8.363131163e-07
1.083013201e-06
1.417103278e-06
1.874633806e-06
2.510201598e-06
3.414504349e-06
4.763259482e-06
6.936276908e-06
1.076636966e-05
1.805072999e-05
3.264400294e-05
6.284508698e-05
0.0001266744285
0.0002636522524
0.0005612756647
0.001169767617
0.001168646154
0.001167426087
0.001166231004
0.001165607763
0.001165299115
0.001165149338
0.001165081017
0.001165056062
0.001165056116
0.001165072873
0.001165103423
0.001165148131
0.001165209942
0.001165295487
0.001165417418
0.001165589627
0.001165890304
0.0005329181042
0.000410839782
0.0002599244983
4.744814799e-05
1.56463108e-06
1.384877051e-07
1.158801602e-07
1.035333626e-07
9.561575273e-08
8.864387545e-08
8.413957907e-08
8.196561767e-08
8.264465199e-08
8.255316275e-08
8.490585127e-08
9.254033219e-08
1.031965399e-07
1.169753943e-07
1.34718704e-07
1.57581014e-07
1.870614962e-07
2.251219143e-07
2.743545766e-07
3.382260093e-07
4.214285518e-07
5.30394334e-07
6.740506669e-07
8.649426674e-07
1.120912811e-06
1.467650073e-06
1.942730731e-06
2.603118213e-06
3.543712208e-06
4.949315899e-06
7.220961661e-06
1.123919686e-05
1.890447843e-05
3.429279523e-05
6.618066832e-05
0.0001336293816
0.000278445538
0.0005931788255
0.00116984809
0.001168681715
0.001167413225
0.001166240928
0.001165636837
0.00116533205
0.001165180148
0.001165107948
0.001165079155
0.001165076073
0.001165090565
0.001165119686
0.00116516368
0.001165225375
0.001165311333
0.001165433685
0.001165605927
0.001165905723
0.0005889849984
0.0004111706071
0.0002578519108
2.255039374e-05
3.827470793e-07
1.131099121e-07
1.012926062e-07
9.106816521e-08
8.437098238e-08
7.861970786e-08
7.517941602e-08
7.414199617e-08
7.584833299e-08
7.686239582e-08
8.170784464e-08
9.039969087e-08
1.018210674e-07
1.164571214e-07
1.352104443e-07
1.592646215e-07
1.901569818e-07
2.2990358e-07
2.811750459e-07
3.475503357e-07
4.338834267e-07
5.468387232e-07
6.956789615e-07
8.934362441e-07
1.158665784e-06
1.518108113e-06
2.010911091e-06
2.696495261e-06
3.674187113e-06
5.138471874e-06
7.513007439e-06
1.172908813e-05
1.979689999e-05
3.602802876e-05
6.970860608e-05
0.0001410131274
0.0002941989863
0.0006272425989
0.001169913731
0.00116870633
0.001167389496
0.001166249955
0.001165663917
0.001165362947
0.001165209248
0.001165133576
0.001165101318
0.001165095411
0.001165107885
0.001165135766
0.001165179193
0.001165240894
0.00116532736
0.001165450121
0.001165622398
0.001165921192
0.0006448683119
0.000407010143
0.0002461414393
1.13742486e-05
1.50059945e-07
9.833756545e-08
8.912702897e-08
8.062699238e-08
7.490291203e-08
7.019808224e-08
6.777471448e-08
6.784204749e-08
7.052423779e-08
7.295014958e-08
7.945930805e-08
8.890632918e-08
1.010239329e-07
1.164686639e-07
1.361741811e-07
1.613521867e-07
1.935796215e-07
2.349289255e-07
2.881516639e-07
3.569424641e-07
4.463208463e-07
5.631886605e-07
7.171512243e-07
9.217383878e-07
1.196234808e-06
1.568459638e-06
2.079178544e-06
2.790361415e-06
3.805994689e-06
5.330867033e-06
7.81271978e-06
1.223671893e-05
2.072949008e-05
3.785302975e-05
7.343635343e-05
0.000148842482
0.0003109507526
0.0006635538787
0.001169965793
0.00116872102
0.001167355068
0.001166258153
0.001165689138
0.001165391932
0.001165236731
0.001165157963
0.001165122591
0.00116511415
0.001165124839
0.001165151663
0.001165194664
0.001165256492
0.001165343552
0.001165466695
0.00116563912
0.001165936658
0.0006791992095
0.0004018202269
0.0002217116636
6.772951438e-06
1.136290218e-07
8.640142846e-08
7.893061349e-08
7.18172832e-08
6.690407031e-08
6.31499665e-08
6.174335226e-08
6.288275331e-08
6.646090919e-08
7.030756459e-08
7.787337031e-08
8.792555495e-08
1.006904988e-07
1.168939776e-07
1.374928757e-07
1.637278991e-07
1.972171625e-07
2.400916084e-07
2.951861156e-07
3.663139153e-07
4.586636332e-07
5.793794435e-07
7.384161751e-07
9.498120746e-07
1.233598042e-06
1.618699137e-06
2.14754556e-06
2.884750811e-06
3.939203208e-06
5.526641552e-06
8.120401902e-06
1.27627558e-05
2.170372199e-05
3.977107949e-05
7.737128251e-05
0.0001571341309
0.0003287388007
0.0007021993615
0.001170005414
0.001168726796
0.001167318634
0.001166265585
0.001165712626
0.001165419121
0.001165262687
0.00116518117
0.001165143009
0.00116513231
0.001165141436
0.001165167378
0.001165210088
0.00116527216
0.00116535989
0.001165483382
0.001165656082
0.00116595208
0.0006773905578
0.0004028764574
0.0001862795811
2.665707841e-06
9.425634896e-08
7.650221604e-08
7.033176798e-08
6.43427905e-08
6.013942541e-08
5.73019661e-08
5.692739222e-08
5.907106315e-08
6.340354481e-08
6.85099932e-08
7.676781183e-08
8.734960893e-08
1.007182751e-07
1.176308508e-07
1.390664171e-07
1.662959116e-07
2.009801399e-07
2.45310507e-07
3.022073049e-07
3.756049449e-07
4.708644674e-07
5.953769804e-07
7.594536523e-07
9.776517335e-07
1.270765345e-06
1.668853042e-06
2.216056976e-06
2.979730852e-06
4.073916026e-06
5.725973705e-06
8.436398215e-06
1.330790723e-05
2.272110466e-05
4.178547246e-05
8.152071415e-05
0.0001659045351
0.0003476004336
0.0007432639971
0.001170033623
0.001168724313
0.001167284376
0.001166272312
0.001165734498
0.001165444624
0.0011652872
0.001165203253
0.001165162609
0.001165149912
0.001165157685
0.00116518291
0.00116522546
0.00116528789
0.001165376351
0.001165500161
0.001165673282
0.001165967424
0.000670782845
0.0004072148757
0.0001016186865
9.183271036e-07
8.132697623e-08
6.83059469e-08
6.310354772e-08
5.80224127e-08
5.446344763e-08
5.253971962e-08
5.318204933e-08
5.621084458e-08
6.097224217e-08
6.726800599e-08
7.602819842e-08
8.70919089e-08
1.010218165e-07
1.18595107e-07
1.408136322e-07
1.689797386e-07
2.047983541e-07
2.505230189e-07
3.091612917e-07
3.847710532e-07
4.828888994e-07
6.111572578e-07
7.802504038e-07
1.005255171e-06
1.307745975e-06
1.718942667e-06
2.284747283e-06
3.075352487e-06
4.210212824e-06
5.929007991e-06
8.761000877e-06
1.387279148e-05
2.378297861e-05
4.389917245e-05
8.589129985e-05
0.0001751687633
0.0003675700004
0.000786826337
0.001170051362
0.001168714012
0.001167252147
0.001166278388
0.001165754861
0.001165468544
0.001165310349
0.00116522427
0.001165181426
0.001165166974
0.001165173593
0.001165198257
0.001165240773
0.00116530367
0.001165392909
0.001165517014
0.001165690703
0.00116598263
0.0006583213089
0.0004080504788
5.645664254e-05
3.513216167e-07
7.177320013e-08
6.15019533e-08
5.701379504e-08
5.26752266e-08
4.974120866e-08
4.874527835e-08
5.033739698e-08
5.409936103e-08
5.936340938e-08
6.640186348e-08
7.557039752e-08
8.707747984e-08
1.015279e-07
1.197165989e-07
1.426689898e-07
1.717198778e-07
2.08619629e-07
2.556852566e-07
3.16013256e-07
3.937870886e-07
4.947218897e-07
6.267156701e-07
8.008125433e-07
1.032639574e-06
1.344568641e-06
1.769008978e-06
2.353670877e-06
3.171686921e-06
4.348193774e-06
6.135907907e-06
9.094513076e-06
1.445801329e-05
2.489060757e-05
4.611491305e-05
9.048909127e-05
0.0001849403976
0.000388678237
0.0008329562682
0.001170059505
0.001168696259
0.001167221812
0.001166283863
0.001165773815
0.001165490977
0.00116533221
0.001165244271
0.001165199493
0.001165183516
0.001165189169
0.001165213418
0.001165256019
0.001165319488
0.001165409534
0.001165533927
0.001165708319
0.001165997659
0.000639673052
0.0003989907058
2.780717692e-05
1.587255816e-07
6.419293984e-08
5.587909242e-08
5.191424556e-08
4.817846521e-08
4.587403238e-08
4.579869114e-08
4.821673778e-08
5.255394023e-08
5.828303463e-08
6.580402619e-08
7.532920845e-08
8.724495489e-08
1.021779946e-07
1.209409533e-07
1.445835626e-07
1.74474037e-07
2.124093129e-07
2.607710037e-07
3.227460803e-07
4.026456032e-07