/*--------------------------------*- C++ -*----------------------------------*\
  =========                 |
  \\      /  F ield         | OpenFOAM: The Open Source CFD Toolbox
   \\    /   O peration     | Website:  https://openfoam.org
    \\  /    A nd           | Version:  12
     \\/     M anipulation  |
\*---------------------------------------------------------------------------*/
FoamFile
{
    format      ascii;
    class       volScalarField;
    location    "1000";
    object      nut;
}
// * * * * * * * * * * * * * * * * * * * * * * * * * * * * * * * * * * * * * //

dimensions      [0 2 -1 0 0 0 0];

internalField   nonuniform List<scalar> 
16200
(
0.0005122802208
0.001749962438
0.002910117978
0.00381046873
0.00407755138
0.003574184522
0.002604367098
0.00139862258
0.0007121056373
0.0001877147129
5.863959623e-06
2.649398177e-06
2.399833483e-06
2.359722083e-06
1.870944027e-06
1.610470798e-06
1.404233987e-06
1.258289533e-06
1.162839556e-06
1.100371583e-06
1.063086858e-06
1.047949907e-06
1.05192046e-06
1.073008433e-06
1.110486475e-06
1.165109498e-06
1.239476138e-06
1.338576855e-06
1.470961463e-06
1.651173953e-06
1.904297e-06
2.274339007e-06
2.840079675e-06
3.747726871e-06
5.284429503e-06
8.044796077e-06
1.330852651e-05
2.389266954e-05
4.608658707e-05
9.410055208e-05
0.0002004128928
0.0004400075779
0.0009874511156
0.001002211977
0.001001787936
0.001000839761
0.0009995127282
0.0009989169335
0.0009986855991
0.0009986080009
0.0009985930902
0.0009986031515
0.0009986239901
0.0009986518835
0.0009986880087
0.0009987366863
0.0009988046101
0.0009989030704
0.0009990486483
0.0009992761638
0.0005054720672
0.00171160922
0.002814231043
0.003612874335
0.003705925266
0.003074982265
0.002119149058
0.001027719651
0.0005631439396
4.173197547e-05
2.714294821e-06
2.228328219e-06
2.028727807e-06
1.989247609e-06
1.679317544e-06
1.441962537e-06
1.253685641e-06
1.120533641e-06
1.035040874e-06
9.802239575e-07
9.48544237e-07
9.368725143e-07
9.421758265e-07
9.623929095e-07
9.967148949e-07
1.045729548e-06
1.111755299e-06
1.199369976e-06
1.31655279e-06
1.476929223e-06
1.703739934e-06
2.037104977e-06
2.54803802e-06
3.367592621e-06
4.752530534e-06
7.234072604e-06
1.195562353e-05
2.14349995e-05
4.129356937e-05
8.423018622e-05
0.0001792664818
0.0003934176276
0.0008827583364
0.001002071242
0.001001689655
0.001000848057
0.0009995246911
0.0009989226928
0.0009986894888
0.0009986121205
0.000998598257
0.0009986095303
0.0009986314422
0.0009986601121
0.0009986966829
0.0009987453593
0.0009988130062
0.0009989109398
0.0009990566134
0.0009992878624
0.000499427278
0.001672726433
0.002716230333
0.003407186869
0.003331345918
0.002603716747
0.001625696094
0.0007511355279
0.0003755774548
1.427223254e-05
2.12054647e-06
1.878272618e-06
1.715447424e-06
1.678086361e-06
1.495790038e-06
1.281362478e-06
1.111286908e-06
9.909687664e-07
9.150522784e-07
8.672506604e-07
8.403248687e-07
8.31043686e-07
8.363942963e-07
8.543002868e-07
8.839550317e-07
9.259126168e-07
9.824242175e-07
1.058008028e-06
1.160570052e-06
1.303347769e-06
1.508171053e-06
1.811653365e-06
2.277740767e-06
3.024095073e-06
4.281187177e-06
6.525593743e-06
1.078220722e-05
1.930470914e-05
3.71137797e-05
7.552123396e-05
0.0001603095137
0.0003508737003
0.0007852673618
0.001001970989
0.001001607085
0.00100084612
0.0009995385608
0.0009989331519
0.0009986979744
0.0009986198784
0.0009986060212
0.0009986176349
0.000998639967
0.0009986689745
0.0009987057062
0.0009987542624
0.0009988215576
0.0009989189805
0.0009990646313
0.0009992989258
0.000495275784
0.001634226669
0.002614178524
0.003160806335
0.002944152044
0.002172421168
0.00115321085
0.0005568076317
0.0001839326505
5.066396473e-06
1.778188325e-06
1.597817891e-06
1.463924929e-06
1.428543115e-06
1.331916257e-06
1.137391062e-06
9.833114591e-07
8.74384151e-07
8.068103636e-07
7.649670912e-07
7.418926327e-07
7.34277227e-07
7.391757451e-07
7.546204377e-07
7.799556303e-07
8.159058388e-07
8.649401167e-07
9.31877585e-07
1.024889499e-06
1.157060233e-06
1.349078925e-06
1.63478392e-06
2.07291168e-06
2.771846483e-06
3.944533263e-06
6.031781303e-06
9.981629433e-06
1.787766087e-05
3.435589732e-05
6.984340938e-05
0.0001480621353
0.0003235679312
0.0007229848456
0.001001892224
0.00100152878
0.00100081341
0.0009995417528
0.0009989403916
0.0009987059167
0.0009986278621
0.0009986140884
0.0009986259184
0.0009986485296
0.0009986777833
0.0009987146418
0.0009987631175
0.0009988301332
0.0009989271563
0.0009990728356
0.0009993100132
0.0004913414808
0.001595430796
0.002509850229
0.002911705252
0.002562027992
0.001791313459
0.0008279167101
0.0004237264201
4.388315989e-05
2.057677539e-06
1.505327091e-06
1.360365947e-06
1.250506441e-06
1.217904234e-06
1.177613356e-06
1.00245019e-06
8.640269218e-07
7.663104488e-07
7.067221622e-07
6.704120726e-07
6.508000231e-07
6.446052986e-07
6.490605043e-07
6.624406068e-07
6.843743878e-07
7.159241883e-07
7.599662765e-07
8.217461449e-07
9.096677565e-07
1.03652793e-06
1.221878815e-06
1.497201829e-06
1.91709015e-06
2.582788926e-06
3.694001106e-06
5.664599423e-06
9.384278971e-06
1.680585874e-05
3.226560043e-05
6.549190196e-05
0.0001385594826
0.0003021115519
0.0006734355737
0.001001836827
0.00100146084
0.001000762133
0.0009995396843
0.0009989470746
0.0009987147295
0.0009986368883
0.0009986229668
0.0009986347143
0.0009986573564
0.0009986866919
0.0009987235944
0.0009987719891
0.0009988387707
0.0009989354824
0.0009990812169
0.0009993210042
0.0004870220236
0.001555932662
0.002401648545
0.002655394666
0.002186267626
0.00139269252
0.000611509826
0.0002919166474
1.714881561e-05
1.561672728e-06
1.280875558e-06
1.16226231e-06
1.071702764e-06
1.041495753e-06
1.035196352e-06
8.779361805e-07
7.54174373e-07
6.671606645e-07
6.151263005e-07
5.840670331e-07
5.678332821e-07
5.632366283e-07
5.677532868e-07
5.799931137e-07
5.99974014e-07
6.292104058e-07
6.710509618e-07
7.311149193e-07
8.178991053e-07
9.438578342e-07
1.127647598e-06
1.399077008e-06
1.809866568e-06
2.456418042e-06
3.529727727e-06
5.426261896e-06
8.997911557e-06
1.611171673e-05
3.090420909e-05
6.263075107e-05
0.0001322338027
0.0002876297185
0.0006395176934
0.001001799344
0.001001402727
0.001000711148
0.0009995309547
0.0009989520907
0.0009987236277
0.000998646432
0.0009986323179
0.0009986438111
0.0009986663204
0.0009986956272
0.0009987325258
0.0009987808566
0.0009988474658
0.0009989439622
0.0009990898033
0.0009993319839
0.0004816553602
0.0015149259
0.002288248201
0.002381853359
0.00182712182
0.001013181585
0.0004582591534
0.0001727221776
5.416905398e-06
1.29815606e-06
1.089577319e-06
9.922180119e-07
9.173096409e-07
8.89697995e-07
9.019425359e-07
7.621296667e-07
6.528017088e-07
5.766002225e-07
5.32191069e-07
5.064969201e-07
4.938473659e-07
4.912265633e-07
4.964458528e-07
5.085474963e-07
5.280144577e-07
5.566123501e-07
5.985508256e-07
6.594534386e-07
7.477841093e-07
8.756860669e-07
1.061743021e-06
1.333846648e-06
1.742178487e-06
2.379931539e-06
3.432606119e-06
5.286046969e-06
8.768925521e-06
1.569414493e-05
3.006811395e-05
6.082866125e-05
0.0001281379704
0.0002779901458
0.0006163479426
0.001001776084
0.00100135281
0.001000660174
0.0009995171319
0.0009989558612
0.0009987326585
0.0009986564477
0.0009986420947
0.0009986531824
0.0009986754148
0.0009987045951
0.0009987414487
0.0009987897323
0.0009988562299
0.0009989526032
0.0009990986026
0.0009993429522
0.0004745538313
0.001470658734
0.002166345138
0.002100461457
0.001502234582
0.0007281464869
0.0003538832401
6.285489805e-05
2.438936284e-06
1.089312399e-06
9.267027058e-07
8.454702844e-07
7.838745109e-07
7.592797714e-07
7.798692974e-07
6.569540228e-07
5.616385429e-07
4.960797468e-07
4.591185068e-07
4.386752103e-07
4.296212533e-07
4.292053875e-07
4.356501687e-07
4.484744018e-07
4.684175043e-07
4.983394273e-07
5.42066989e-07
6.05585135e-07
6.973443713e-07
8.293540887e-07
1.019379321e-06
1.296301368e-06
1.707760796e-06
2.345561971e-06
3.392443912e-06
5.22949585e-06
8.674898386e-06
1.55151887e-05
2.968800253e-05
5.995121352e-05
0.0001259993154
0.0002726214433
0.000602701284
0.001001762853
0.001001308882
0.00100060831
0.0009994989478
0.0009989583594
0.0009987416085
0.0009986667287
0.0009986521466
0.0009986627339
0.0009986845886
0.0009987135735
0.0009987503585
0.0009987986192
0.0009988650696
0.0009989614115
0.0009991076258
0.0009993539316
0.0004659440554
0.001421338104
0.002011281905
0.001814680328
0.001191982397
0.000537853419
0.000267911315
3.238491329e-05
1.48158224e-06
9.19991344e-07
7.903279782e-07
7.222503518e-07
6.713594742e-07
6.495340775e-07
6.715838309e-07
5.640844865e-07
4.816618052e-07
4.260722184e-07
3.960715282e-07
3.80578775e-07
3.750136341e-07
3.769318081e-07
3.84751778e-07
3.98976047e-07
4.207244074e-07
4.527442615e-07
4.99331118e-07
5.665814438e-07
6.629816666e-07
8.005689761e-07
9.971232872e-07
1.281254855e-06
1.70035206e-06
2.345359625e-06
3.398433799e-06
5.240635253e-06
8.689949943e-06
1.552898262e-05
2.967603144e-05
5.981964523e-05
0.0001254376072
0.0002706893397
0.000596707476
0.001001756166
0.001001269084
0.001000554761
0.0009994775783
0.0009989598116
0.0009987504049
0.0009986771464
0.0009986623669
0.0009986723968
0.000998693806
0.0009987225498
0.0009987592561
0.0009988075239
0.0009988739934
0.0009989703936
0.0009991168791
0.0009993649325
0.0004557854822
0.001367403226
0.001837530197
0.001533573625
0.00087282953
0.0004035057054
0.0001898097743
1.810892312e-05
1.151645135e-06
7.797891708e-07
6.754693089e-07
6.181027251e-07
5.758372252e-07
5.566532037e-07
5.761116461e-07
4.827006636e-07
4.121737446e-07
3.659442888e-07
3.424646224e-07
3.316304722e-07
3.293944097e-07
3.333941052e-07
3.433230488e-07
3.593496397e-07
3.832058254e-07
4.17963257e-07
4.681029754e-07
5.398284495e-07
6.417367579e-07
7.860404241e-07
9.907547683e-07
1.284563621e-06
1.715081961e-06
2.373313845e-06
3.442674535e-06
5.308227911e-06
8.796584475e-06
1.570564829e-05
2.997675302e-05
6.032392655e-05
0.0001262232692
0.0002716972602
0.000597264999
0.001001753037
0.001001231762
0.001000498715
0.0009994540276
0.0009989604041
0.0009987589717
0.000998687575
0.000998672651
0.0009986821026
0.00099870303
0.0009987315099
0.0009987681416
0.0009988164528
0.0009988830095
0.0009989795556
0.0009991263678
0.0009993759654
0.0004439460185
0.001308832906
0.001651789633
0.001266298715
0.0006268112382
0.0003077748092
0.0001249230564
1.230014869e-05
9.41082358e-07
6.625364804e-07
5.783953678e-07
5.297745278e-07
4.945517708e-07
4.778896367e-07
4.926915335e-07
4.121622465e-07
3.526035298e-07
3.150916827e-07
2.976120258e-07
2.910202743e-07
2.915138717e-07
2.980311254e-07
3.098794649e-07
3.279027936e-07
3.542234628e-07
3.921516017e-07
4.463123785e-07
5.230372706e-07
6.311118805e-07
7.830462461e-07
9.972631848e-07
1.302800589e-06
1.747885056e-06
2.424359121e-06
3.518465559e-06
5.422723897e-06
8.979937266e-06
1.601980615e-05
3.054301031e-05
6.137021554e-05
0.0001281597211
0.0002752179811
0.0006034211249
0.001001751102
0.001001195586
0.001000439465
0.0009994292376
0.0009989603514
0.0009987672725
0.0009986979203
0.0009986829148
0.0009986917946
0.0009987122307
0.0009987404435
0.0009987770169
0.0009988254133
0.0009988921264
0.000998988903
0.0009991360947
0.0009993870375
0.0004300980532
0.00124475029
0.001461354872
0.001002391019
0.0004694908651
0.0002412398041
5.981841113e-05
6.790667099e-06
7.577885723e-07
5.644754778e-07
4.961071501e-07
4.549004853e-07
4.255385006e-07
4.113486192e-07
4.20730032e-07
3.518298751e-07
3.022235101e-07
2.72639271e-07
2.604903627e-07
2.573042677e-07
2.607264551e-07
2.693176933e-07
2.830500351e-07
3.03240191e-07
3.322999227e-07
3.737100705e-07
4.322244825e-07
5.143387342e-07
6.290991498e-07
7.894114083e-07
1.014241367e-06
1.333212838e-06
1.795489664e-06
2.494432903e-06
3.620492502e-06
5.57668733e-06
9.228691192e-06
1.645255851e-05
3.134034853e-05
6.28909307e-05
0.0001311068078
0.0002809488149
0.0006145031026
0.001001748544
0.001001159518
0.001000376417
0.0009994039821
0.0009989598433
0.0009987752873
0.0009987081089
0.00099869309
0.0009987014263
0.0009987213833
0.0009987493427
0.0009987858846
0.000998834413
0.0009989013524
0.0009989984409
0.0009991460615
0.0009993981544
0.0004140467742
0.001172979209
0.001265735312
0.0007507488822
0.0003650308425
0.0001875857212
3.0675406e-05
3.495457017e-06
6.128453547e-07
4.824816941e-07
4.267956913e-07
3.917790649e-07
3.672512527e-07
3.552868581e-07
3.591120815e-07
3.005292922e-07
2.598426107e-07
2.373561849e-07
2.298398799e-07
2.297806964e-07
2.355762011e-07
2.460261891e-07
2.616775561e-07
2.842037036e-07
3.162192134e-07
3.613349734e-07
4.244405764e-07
5.122371956e-07
6.340929949e-07
8.033862947e-07
1.039734067e-06
1.373540061e-06
1.85518956e-06
2.580166435e-06
3.744367013e-06
5.764043084e-06
9.533733349e-06
1.698891268e-05
3.234177654e-05
6.483363278e-05
0.0001349564803
0.0002886573068
0.0006299951658
0.001001744029
0.001001122787
0.001000309112
0.0009993788777
0.0009989590469
0.0009987830116
0.0009987180884
0.000998703125
0.0009987109621
0.0009987304696
0.0009987582029
0.0009987947491
0.0009988434602
0.0009989106959
0.0009990081738
0.0009991562678
0.0009994093196
0.0003963858958
0.001092776632
0.001069218946
0.0005590943522
0.0002807882365
0.0001391020715
1.845178813e-05
1.901086731e-06
5.01504771e-07
4.123434581e-07
3.683317271e-07
3.383113534e-07
3.175881323e-07
3.075078185e-07
3.061046428e-07
2.567769255e-07
2.24178883e-07
2.080509375e-07
2.041753974e-07
2.072244348e-07
2.150007503e-07
2.272159177e-07
2.448673037e-07
2.698790444e-07
3.050067622e-07
3.53977219e-07
4.218364456e-07
5.155298283e-07
6.447953035e-07
8.235440991e-07
1.072205515e-06
1.421911505e-06
1.92474126e-06
2.678777477e-06
3.886502864e-06
5.979912888e-06
9.887907647e-06
1.76173667e-05
3.352701707e-05
6.715958479e-05
0.0001396299034
0.0002981752342
0.0006495258546
0.001001736622
0.001001084847
0.001000237213
0.0009993543837
0.0009989580976
0.0009987904499
0.0009987278233
0.0009987129825
0.000998720376
0.0009987394767
0.0009987670224
0.0009988036157
0.0009988525633
0.0009989201651
0.0009990181052
0.0009991667122
0.0009994205347
0.0003783985555
0.001007113879
0.00085987922
0.0004271518328
0.0002272144457
0.0001009661607
1.284652776e-05
1.089971235e-06
4.143025821e-07
3.519420431e-07
3.166213855e-07
2.918505023e-07
2.743894684e-07
2.661279083e-07
2.603264116e-07
2.19504225e-07
1.943165975e-07
1.838256438e-07
1.833702297e-07
1.887189939e-07
1.982302865e-07
2.121935221e-07
2.319321968e-07
2.595372079e-07
2.978714947e-07
3.50782082e-07
4.234955662e-07
5.232324978e-07
6.601364759e-07
8.486998878e-07
1.110149531e-06
1.476760772e-06
2.002268764e-06
2.787952102e-06
4.043949943e-06
6.220352949e-06
1.028555775e-05
1.8329049e-05
3.488078638e-05
6.984014933e-05
0.0001450696518
0.0003093813015
0.0006728290148
0.0010017257
0.001001045328
0.001000160496
0.000999330824
0.0009989571015
0.0009987976131
0.0009987372922
0.0009987226377
0.0009987296506
0.0009987483972
0.0009987758019
0.0009988124907
0.000998861731
0.0009989297675
0.0009990282385
0.0009991773922
0.0009994317998
0.0003606950343
0.000914258801
0.0006919336154
0.0003497112327
0.0001917218739
5.661521597e-05
8.557691539e-06
6.801541525e-07
3.456012533e-07
3.000328282e-07
2.716152454e-07
2.510952295e-07
2.370015694e-07
2.30454338e-07
2.211672817e-07
1.880921143e-07
1.69594507e-07
1.636208824e-07
1.66368613e-07
1.735875361e-07
1.846966491e-07
2.004250171e-07
2.223143254e-07
2.525688486e-07
2.941487648e-07
3.510337843e-07
4.286513149e-07
5.345197742e-07
6.792157088e-07
8.778531424e-07
1.152528006e-06
1.536771444e-06
2.086205726e-06
2.905776482e-06
4.214302838e-06
6.4822147e-06
1.072229124e-05
1.91172849e-05
3.639194319e-05
7.285502937e-05
0.0001512359304
0.0003221927949
0.0006997250292
0.001001710884
0.001001003999
0.001000085489
0.0009993084099
0.000998956138
0.0009988045155
0.0009987464849
0.0009987320763
0.000998738776
0.0009987572279
0.0009987845444
0.0009988213812
0.000998870972
0.0009989395105
0.0009990385757
0.0009991883055
0.0009994431136
0.0003458687273
0.0008135707461
0.0005594389586
0.0002897129568
0.000159603928
3.127667166e-05
4.073195261e-06
4.597375422e-07
2.908412788e-07
2.561748255e-07
2.331555366e-07
2.160705245e-07
2.045709543e-07
1.99802357e-07
1.879244624e-07
1.618860122e-07
1.49360174e-07
1.475170768e-07
1.525219779e-07
1.613236957e-07
1.739598309e-07
1.914691446e-07
2.155347456e-07
2.484484705e-07
2.932702673e-07
3.541246493e-07
4.366540431e-07
5.486913988e-07
7.012686183e-07
9.101639323e-07
1.198385537e-06
1.600844479e-06
2.175256495e-06
3.030685359e-06
4.395625688e-06
6.763024565e-06
1.119477099e-05
1.997720837e-05
3.805272129e-05
7.619067458e-05
0.0001581031362
0.000336557945
0.0007301034962
0.001001691977
0.001000960388
0.001000015097
0.0009992872653
0.0009989552643
0.0009988111736
0.0009987553996
0.0009987412919
0.0009987477482
0.0009987659692
0.0009987932548
0.0009988302948
0.0009988802945
0.0009989494004
0.0009990491187
0.000999199452
0.0009994544733
0.0003371445257
0.0007085889864
0.0004600941939
0.0002417658387
0.0001294481806
1.863557522e-05
1.947967317e-06
3.331714035e-07
2.459624397e-07
2.187641501e-07
1.99986664e-07
1.857822084e-07
1.764252677e-07
1.732065029e-07
1.598809178e-07
1.403098301e-07
1.327466472e-07
1.345687832e-07
1.413322512e-07
1.51523719e-07
1.656419136e-07
1.849287651e-07
2.111614461e-07
2.467100467e-07
2.947393934e-07
3.595277428e-07
4.469425695e-07
5.6514477e-07
7.256425664e-07
9.448993705e-07
1.246922699e-06
1.668071756e-06
2.268364111e-06
3.161419958e-06
4.586392103e-06
7.060890346e-06
1.170055648e-05
2.090547143e-05
3.985816083e-05
7.983910552e-05
0.0001656573249
0.0003524503043
0.0007639104899
0.001001668926
0.001000914013
0.0009999493329
0.0009992674481
0.00099895452
0.0009988176049
0.0009987640411
0.0009987502849
0.0009987565678
0.0009987746244
0.0009988019391
0.0009988392395
0.0009988897065
0.0009989594431
0.0009990598693
0.0009992108305
0.0009994658751
0.0003373213165
0.0006046073907
0.0003732600554
0.0002067545581
0.0001023308982
1.223050403e-05
9.502799823e-07
2.566500298e-07
2.083213118e-07
1.865706363e-07
1.712738565e-07
1.596077394e-07
1.521758829e-07
1.503706238e-07
1.366287536e-07
1.229472408e-07
1.199049685e-07
1.242321111e-07
1.323825966e-07
1.438347682e-07
1.594000042e-07
1.804431827e-07
2.088096646e-07
2.469461104e-07
2.981264452e-07
3.66789399e-07
4.590358985e-07
5.833668039e-07
7.517843033e-07
9.814717152e-07
1.297482489e-06
1.737717005e-06
2.364683286e-06
3.29698978e-06
4.785430027e-06
7.374417771e-06
1.22379687e-05
2.190000905e-05
4.180566856e-05
8.379703916e-05
0.0001738943802
0.0003698647653
0.0008011396661
0.001001641788
0.001000864511
0.000999888094
0.0009992489693
0.0009989539311
0.0009988238273
0.0009987724186
0.0009987590604
0.0009987652393
0.000998783199
0.0009988106043
0.000998848223
0.0009988992155
0.0009989696438
0.0009990708288
0.0009992224359
0.0009994773136
0.0003472839841
0.0005100919816
0.000316633514
0.0001842076108
5.980015939e-05
8.604881535e-06
4.909249374e-07
2.06051468e-07
1.767751935e-07
1.592061029e-07
1.468046872e-07
1.373572989e-07
1.316287172e-07
1.311210154e-07
1.17769579e-07
1.09304066e-07
1.098929118e-07
1.160011236e-07
1.252944729e-07
1.379326445e-07
1.549160487e-07
1.776818509e-07
2.081329806e-07
2.487941651e-07
3.0305257e-07
3.755132447e-07
4.725185759e-07
6.029208849e-07
7.7923431e-07
1.019390554e-06
1.34953634e-06
1.809198897e-06
2.463558751e-06
3.43664355e-06
4.991880626e-06
7.702647794e-06
1.280598602e-05
2.295985019e-05
4.389464801e-05
8.806511792e-05
0.0001828183425
0.0003888138562
0.0008418241639
0.001001610692
0.001000811619
0.0009998312002
0.0009992318072
0.0009989535137
0.0009988298586
0.0009987805449
0.000998767627
0.0009987737697
0.0009987917001
0.000998819258
0.0009988572532
0.0009989088282
0.0009989800066
0.0009990819972
0.0009992342562
0.0009994887821
0.000364619301
0.0004723923489
0.0002753842699
0.0001654446848
3.194135612e-05
3.547819877e-06
2.819356598e-07
1.70390912e-07
1.507032533e-07
1.363591264e-07
1.262814292e-07
1.186896296e-07
1.144490445e-07
1.150153189e-07
1.027568512e-07
9.861989499e-08
1.020623303e-07
1.094499368e-07
1.197525121e-07
1.335385576e-07
1.519103458e-07
1.763538876e-07
2.088281165e-07
2.519386404e-07
3.091905173e-07
3.853605682e-07
4.870404741e-07
6.234450866e-07
8.07617915e-07
1.058265521e-06
1.402672353e-06
1.882073862e-06
2.56450146e-06
3.579837065e-06
5.205154594e-06
8.044994707e-06
1.340415021e-05
2.408496279e-05
4.612622101e-05
9.264737303e-05
0.0001924403059
0.0004093254016
0.0008860317889
0.001001575813
0.001000755146
0.0009997784278
0.0009992159192
0.0009989532766
0.000998835716
0.0009987884344
0.0009987759956
0.0009987821677
0.0009988001355
0.000998827908
0.0009988663373
0.0009989185508
0.0009989905346
0.0009990933728
0.000999246275
0.0009995002721
0.0003857223812
0.0004113533198
0.0002469927168
0.0001467516417
1.729292976e-05
1.350114612e-06
1.878714036e-07
1.43504344e-07
1.290564901e-07
1.172470065e-07
1.090140863e-07
1.030084559e-07
1.001134709e-07
1.004903709e-07
9.10016569e-08
9.058074516e-08
9.588596592e-08
1.042602657e-07
1.155094823e-07
1.304160864e-07
1.50137797e-07
1.762030403e-07
2.106287885e-07
2.561048166e-07
3.162585777e-07
3.960439265e-07
5.023093603e-07
6.446431103e-07
8.366343096e-07
1.097789698e-06
1.456573521e-06
1.95600789e-06
2.667152268e-06
3.726186199e-06
5.424869754e-06
8.401159277e-06
1.403243654e-05
2.527604313e-05
4.850285809e-05
9.755052959e-05
0.0002027770399
0.0004314396337
0.0009338585366
0.001001537358
0.001000694948
0.0009997295316
0.0009992012501
0.0009989532236
0.0009988414164
0.0009987961031
0.0009987841788
0.0009987904435
0.000998808514
0.000998836562
0.0009988754821
0.0009989283881
0.0009990012298
0.0009991049517
0.0009992584796
0.0009995117742
0.0004114366234
0.0003775714094
0.0002334098989
0.0001262280862
1.004863078e-05
4.857545387e-07
1.437358477e-07
1.219947047e-07
1.107785481e-07
1.01044387e-07
9.440393738e-08
8.983222461e-08
8.796547673e-08
8.71529652e-08
8.198323217e-08
8.444606561e-08
9.099656361e-08
1.002069719e-07
1.12366773e-07
1.283599475e-07
1.49381859e-07
1.770035358e-07
2.133025975e-07
2.610562022e-07
3.240181552e-07
4.073245236e-07
5.180878184e-07
6.662800508e-07
8.660515099e-07
1.137733337e-06
1.511010096e-06
2.030767301e-06
2.771270688e-06
3.875452793e-06
5.650832501e-06
8.77110223e-06
1.469121164e-05
2.653444018e-05
5.102822783e-05
0.0001027836813
0.0002138502539
0.000455207405
0.0009854221212
0.00100149555
0.001000630907
0.0009996842601
0.0009991877378
0.0009989533552
0.0009988469755
0.0009988035672
0.0009987921899
0.0009987986074
0.0009988168442
0.0009988452275
0.0009988846936
0.0009989383444
0.0009990120928
0.0009991167285
0.000999270854
0.0009995232784
0.0004388769598
0.0003640710474
0.0002284773253
8.536470188e-05
5.042622701e-06
1.965250026e-07
1.185243741e-07
1.041409425e-07
9.519193376e-08
8.740644556e-08
8.202852539e-08
7.862773053e-08
7.775964317e-08
7.669338935e-08
7.521885038e-08
7.967300923e-08
8.714727731e-08
9.711544172e-08
1.101502746e-07
1.271853535e-07
1.494490743e-07
1.78556565e-07
2.166483913e-07
2.665919888e-07
3.322711616e-07
4.190091739e-07
5.341894346e-07
6.881776915e-07
8.957003479e-07
1.177936489e-06
1.565830638e-06
2.106207846e-06
2.876721356e-06
4.027527291e-06
5.883014602e-06
9.15501084e-06
1.538118068e-05
2.786206228e-05
5.370701379e-05
0.0001083579073
0.0002256857551
0.0004806882958
0.001002175556
0.001001450628
0.001000562907
0.0009996423655
0.0009991753176
0.0009989536694
0.0009988524081
0.0009988108428
0.0009988000424
0.0009988066704
0.0009988251348
0.0009988539114
0.0009988939771
0.0009989484226
0.0009990231231
0.0009991286957
0.000999283372
0.0009995347763
0.0004826695004
0.0003659186758
0.0002284557939
4.152341013e-05
1.366345942e-06
1.205483629e-07
1.005265973e-07
8.944663105e-08
8.222648191e-08
7.583167439e-08
7.155926839e-08
6.926438572e-08
6.935754378e-08
6.878006336e-08
7.021976562e-08
7.598208472e-08
8.416165102e-08
9.483672017e-08
1.087046388e-07
1.267292943e-07
1.501716776e-07
1.806924247e-07
2.204970854e-07
2.725460212e-07
3.408565046e-07
4.309437073e-07
5.504685081e-07
7.101999614e-07
9.254551319e-07
1.218284237e-06
1.620930977e-06
2.182236283e-06
2.98342657e-06
4.182369676e-06
6.121477463e-06
9.55319693e-06
1.610323997e-05
2.926114732e-05
5.654453184e-05
0.0001142855953
0.0002383121905
0.0005079482064
0.001002145207
0.001001402844
0.001000490807
0.0009996036106
0.000999163925
0.0009989541626
0.0009988577281
0.0009988179456
0.0009988077495
0.0009988146428
0.0009988333939
0.0009988626201
0.0009989033367
0.0009989586245
0.0009990343186
0.0009991408415
0.0009992960018
0.0009995462594
0.000523673374
0.0003596907385
0.0002229558351
1.9424583e-05
3.289133483e-07
9.687028504e-08
8.643542584e-08
7.737664152e-08
7.134347502e-08
6.612326311e-08
6.285741134e-08
6.159608124e-08
6.259187848e-08
6.299426712e-08
6.651303894e-08
7.312024165e-08
8.189356405e-08
9.323323735e-08
1.078877819e-07
1.268464418e-07
1.514034569e-07
1.832662988e-07
2.247074157e-07
2.787826023e-07
3.496458598e-07
4.430086991e-07
5.66815733e-07
7.322486238e-07
9.552294219e-07
1.258702558e-06
1.676250088e-06
2.258806051e-06
3.091361317e-06
4.340002893e-06
6.366362258e-06
9.966080432e-06
1.685844614e-05
3.073419971e-05
5.954659044e-05
0.0001205801198
0.0002517602963
0.000537057675
0.001002111223
0.001001352472
0.001000414426
0.0009995677713
0.0009991534971
0.0009989548302
0.000998862948
0.0009988248905
0.0009988153242
0.0009988225347
0.0009988416293
0.0009988713589
0.0009989127755
0.0009989689505
0.0009990456754
0.0009991531505
0.0009993087356
0.0009995577144
0.0005626153208
0.0003494154761
0.0002093093531
9.638905e-06
1.268400919e-07
8.282601729e-08
7.478380983e-08
6.735269315e-08
6.226568357e-08
5.803986592e-08
5.571000047e-08
5.542221244e-08
5.724907842e-08
5.884671392e-08
6.371544495e-08
7.090961872e-08
8.021732084e-08
9.218022598e-08
1.075733953e-07
1.274105877e-07
1.530202741e-07
1.86158177e-07
2.291654806e-07
2.851958176e-07
3.585429798e-07
4.551190619e-07
5.831584585e-07
7.542646442e-07
9.84978997e-07
1.299163373e-06
1.731777738e-06
2.335927882e-06
3.200567321e-06
4.500530751e-06
6.617912362e-06
1.039421702e-05
1.76480494e-05
3.228402458e-05
6.271950722e-05
0.0001272557807
0.0002660625877
0.0005680908632
0.001002073859
0.00100129981
0.00100033351
0.000999534639
0.0009991439737
0.0009989556669
0.0009988680792
0.0009988316916
0.0009988227785
0.0009988303555
0.0009988498476
0.0009988801323
0.0009989222953
0.0009989794001
0.0009990571873
0.0009991656066
0.0009993215839
0.0009995691215
0.0005813769542
0.0003384627647
0.0001853893067
5.644905178e-06
9.444390446e-08
7.155166343e-08
6.510985548e-08
5.897741886e-08
5.467453114e-08
5.133323658e-08
4.990831726e-08
5.053520853e-08
5.310238369e-08
5.586561197e-08
6.15678681e-08
6.922341681e-08
7.902439979e-08
9.156935143e-08
1.076534153e-07
1.283154314e-07
1.549191471e-07
1.892700008e-07
2.337796355e-07
2.917017716e-07
3.67472869e-07
4.672096911e-07
5.994423333e-07
7.762052299e-07
1.014673521e-06
1.339649884e-06
1.787512165e-06
2.413618212e-06
3.311089699e-06
4.664058797e-06
6.876370694e-06
1.083815674e-05
1.847328379e-05
3.391339266e-05
6.606953667e-05
0.0001343267757
0.0002812514325
0.0006011217902
0.001002033349
0.001001245201
0.001000255142
0.0009995040207
0.000999135298
0.000998956667
0.000998873132
0.0009988383617
0.0009988301237
0.0009988381137
0.000998858055
0.0009988889437
0.0009989318971
0.0009989899708
0.0009990688465
0.0009991781951
0.0009993345388
0.0009995804612
0.0005688069289
0.0003331436064
0.0001531413321
2.184587949e-06
7.70221538e-08
6.228427645e-08
5.70353598e-08
5.194790105e-08
4.83228929e-08
4.58095205e-08
4.527132879e-08
4.67291005e-08
4.990250024e-08
5.367244841e-08
5.990595412e-08
6.796067518e-08
7.821921799e-08
9.130611729e-08
1.080356569e-07
1.294725806e-07
1.570169409e-07
1.925252901e-07
2.38481307e-07
2.982408439e-07
3.763857699e-07
4.792414372e-07
6.156395104e-07
7.980545138e-07
1.044309933e-06
1.380172917e-06
1.843479716e-06
2.491922477e-06
3.423004249e-06
4.830726006e-06
7.142016542e-06
1.129848714e-05
1.933541633e-05
3.562508975e-05
6.960289529e-05
0.0001418071201
0.0002973586481
0.0006362230054
0.001001989907
0.001001188734
0.001000182577
0.0009994757385
0.0009991274162
0.0009989578242
0.0009988781155
0.0009988449125
0.0009988373699
0.000998845817
0.0009988662564
0.0009988977952
0.00099894158
0.000999000659
0.000999080643
0.0009991909007
0.0009993475831
0.0009995917157
0.0005525381473
0.0003306606201
8.213341169e-05
7.399623668e-07
6.53375785e-08
5.46764468e-08
5.03159967e-08
4.606672382e-08
4.304518355e-08
4.132932771e-08
4.163644653e-08
4.380606908e-08
4.731648865e-08
5.201387703e-08
5.862470617e-08
6.703999735e-08
7.772199765e-08
9.131228784e-08
1.086446194e-07
1.308104329e-07
1.592470795e-07
1.958634548e-07
2.432167133e-07
3.04766708e-07
3.852433637e-07
4.911843897e-07
6.317288526e-07
8.19800477e-07
1.073885756e-06
1.42074012e-06
1.899699171e-06
2.570873378e-06
3.536367905e-06
5.000643958e-06
7.41508623e-06
1.177572081e-05
2.023557292e-05
3.7421623e-05
7.332523323e-05
0.0001497096474
0.0003144135391
0.0006734616058
0.001001943742
0.001001130353
0.001000115382
0.0009994496292
0.0009991202785
0.0009989591324
0.0009988830375
0.0009988513547
0.0009988445263
0.0009988534721
0.0009988744557
0.0009989066879
0.0009989513421
0.0009990114591
0.0009990925646
0.0009992037073
0.0009993606997
0.000999602864
0.000532021671
0.0003254765121
4.486550617e-05
2.783576253e-07
5.669941024e-08
4.841376072e-08
4.47132047e-08
4.114469443e-08
3.869088714e-08
3.775652509e-08
3.883003574e-08
4.157403559e-08
4.547031822e-08
5.073293071e-08
5.764606335e-08
6.639122113e-08
7.746439478e-08
9.15222389e-08
1.094184811e-07
1.322719772e-07
1.615583183e-07
1.99239764e-07
2.479482822e-07
3.112494897e-07
3.940239165e-07
5.030253141e-07
6.477059598e-07
8.414479437e-07
1.103415496e-06
1.461376371e-06
1.956206826e-06
2.6505215e-06
3.651255775e-06
5.173941275e-06
7.695826595e-06
1.227036033e-05
2.117481619e-05
3.930530642e-05
7.72416935e-05
0.0001580459286
0.0003324423333
0.0007128972962
0.00100189506
0.001001069984
0.001000053167
0.0009994255426
0.0009991138378
0.0009989605849
0.0009988879051
0.0009988576977
0.0009988516009
0.0009988610844
0.0009988826555
0.0009989156213
0.0009989611801
0.0009990223641