/*--------------------------------*- C++ -*----------------------------------*\
  =========                 |
  \\      /  F ield         | OpenFOAM: The Open Source CFD Toolbox
   \\    /   O peration     | Website:  https://openfoam.org
    \\  /    A nd           | Version:  12
     \\/     M anipulation  |
\*---------------------------------------------------------------------------*/
FoamFile
{
    format      ascii;
    class       volScalarField;
    location    "1000";
    object      T;
}
// * * * * * * * * * * * * * * * * * * * * * * * * * * * * * * * * * * * * * //

dimensions      [0 0 0 1 0 0 0];

internalField   nonuniform List<scalar> 
16200
(
294.4715791
294.4847062
294.3466101
293.9954312
293.2725096
291.773475
288.5867387
282.7593453
279.380361
279.1077099
279.2100242
279.3031327
279.4187939
279.5463673
279.6961445
279.8676057
280.0672393
280.2985423
280.5675284
280.8799605
281.2427174
281.6631456
282.1491793
282.7090067
283.3506349
284.0811532
284.905575
285.8251985
286.8354724
287.9236575
289.0670533
290.2331465
291.3828399
292.4764293
293.4801673
294.3708309
295.137077
295.7781138
296.3010488
296.7180357
297.0438015
297.2937128
297.4824154
297.6229886
297.7265439
297.802142
297.8569441
297.8964603
297.9248462
297.9451838
297.9597318
297.9701325
297.9775741
297.9829229
297.9868015
297.9896881
297.9918381
297.9935422
297.9949783
297.9971004
293.6464166
293.6212598
293.4243316
292.9776165
292.0742299
290.1734835
286.1719361
280.282066
278.1628089
278.0836298
278.1893587
278.2920127
278.4171107
278.5558458
278.7191213
278.9068513
279.1259627
279.3806394
279.6775007
280.0231293
280.425204
280.8919752
281.4322509
282.0550286
282.7688841
283.5809804
284.4955091
285.511548
286.6204263
287.8031878
289.0294834
290.2595965
291.450134
292.5615742
293.564494
294.4422639
295.190199
295.8126922
296.3199791
296.7254672
297.0438203
297.2896499
297.4766337
297.6169665
297.7210784
297.7975717
297.8533304
297.8937219
297.9228421
297.9437622
297.958754
297.9694818
297.9771577
297.9826664
297.9866558
297.9896059
297.9918164
297.99354
297.9949915
297.997242
292.9207167
292.8432187
292.57088
292.0094369
290.8928349
288.5129717
283.503549
278.3728447
277.1681691
277.2145538
277.3282498
277.4400472
277.5770915
277.7300063
277.91006
278.1177731
278.3604764
278.6431306
278.9730065
279.3575892
279.8054471
280.3258233
280.9284652
281.6231507
282.4187975
283.3220781
284.3353337
285.4538464
286.6627644
287.9348113
289.2307498
290.5041466
291.7095584
292.8107311
293.7853331
294.6251105
295.3328139
295.9181244
296.3941974
296.775392
297.0759988
297.3095615
297.4884763
297.6237395
297.7248017
297.7995382
297.8543295
297.8942141
297.923084
297.9438898
297.958835
297.9695467
297.9772178
297.9827232
297.9867082
297.9896485
297.9918584
297.9935694
297.9949887
297.9972211
292.3333966
292.1961988
291.8348381
291.1277973
289.7338333
286.7860962
280.8623911
276.9941425
276.4533789
276.5381257
276.6590638
276.7817995
276.9319159
277.1005531
277.2992437
277.529297
277.7984729
278.1126181
278.4797273
278.9082587
279.4077212
279.9883417
280.6606916
281.4350024
282.3198914
283.3204769
284.4356946
285.6549951
286.9551685
288.2991932
289.639377
290.9252171
292.113154
293.1738455
294.0942925
294.8752852
295.5265951
296.0623191
296.4976458
296.8471805
297.124341
297.3412536
297.5087731
297.6364857
297.7326834
297.8043604
297.8572651
297.8960043
297.9241864
297.9445815
297.9592812
297.9698448
297.9774245
297.9828707
297.986815
297.9897243
297.9919185
297.9936136
297.9950044
297.9972485
291.8895613
291.6889512
291.2303991
290.352954
288.5978084
284.880286
278.6086948
276.1538497
275.9707418
276.0686143
276.1996211
276.3351762
276.5004833
276.6873929
276.9075654
277.1632448
277.4626282
277.8125313
278.2217423
278.69975
279.2570221
279.9046731
280.6538169
281.5145721
282.4943158
283.5952077
284.8108497
286.122596
287.4970332
288.8871913
290.2391441
291.502404
292.6395977
293.6312859
294.4749344
295.1800297
295.7622719
296.2389609
296.6263249
296.9385357
297.1877232
297.3843554
297.5375938
297.6554996
297.7451034
297.812422
297.8624827
297.8993827
297.9263812
297.9460158
297.9602261
297.9704732
297.9778464
297.983156
297.9870077
297.9898529
297.9920073
297.9936749
297.9950266
297.9972644
291.6035083
291.3391147
290.7800792
289.7170042
287.5321696
282.791319
277.1145795
275.6937176
275.7255842
275.8218544
275.9644891
276.1143231
276.2963311
276.5034523
276.7473881
277.0314783
277.3644165
277.754069
278.2100667
278.742896
279.3638528
280.0846339
280.9163681
281.868212
282.9450285
284.1442158
285.451794
286.8389219
288.2612401
289.663557
290.9897933
292.1943664
293.2499074
294.1486325
294.8983171
295.5158671
296.0213122
296.4337447
296.7694136
297.0414282
297.2602981
297.4346826
297.571991
297.6787329
297.7606543
297.8227642
297.8693337
297.9039127
297.9293761
297.9479981
297.9615408
297.9713474
297.9784289
297.9835443
297.9872649
297.9900213
297.9921187
297.9937506
297.9950591
297.9972908
291.4719838
291.138331
290.4671184
289.1784801
286.4654021
280.6857907
276.1749021
275.4533963
275.6672333
275.7888922
275.9450726
276.1112039
276.3121575
276.5422617
276.8131904
277.1294721
277.5003096
277.9345978
278.4427533
279.0361085
279.7265421
280.5259019
281.4446222
282.489767
283.6620192
284.9518436
286.3354443
287.7725616
289.208963
290.5849736
291.847538
292.9605316
293.9090687
294.6972545
295.3419054
295.8655063
296.2906738
296.6369617
296.9197754
297.1506869
297.3383795
297.4896548
297.6101925
297.7049913
297.7785457
297.8348731
297.8774893
297.9093875
297.9330433
297.9504508
297.9631793
297.9724407
297.979157
297.9840275
297.9875828
297.9902276
297.992252
297.99384
297.9950997
297.9973204
291.4961466
291.0861436
290.2854062
288.6978706
285.2529807
278.8968672
275.8400622
275.6897235
275.8292707
275.9583431
276.1295172
276.3145532
276.5372589
276.7935893
277.0951278
277.4476264
277.8608025
278.3445372
278.9099758
279.5691206
280.3341003
281.216277
282.2243381
283.3616879
284.6227667
285.9888504
287.4247437
288.8791578
290.2911406
291.601711
292.7660143
293.7606796
294.5841012
295.2511567
295.7857012
296.2137527
296.5588732
296.8399589
297.0709188
297.2614787
297.4184092
297.5466886
297.6503512
297.7329751
297.7978768
297.8481335
297.8865351
297.9155313
297.9372014
297.9532563
297.9650665
297.9737059
297.9800019
297.9845884
297.9879515
297.9904663
297.992405
297.9939421
297.9951486
297.9973558
291.671943
291.1867568
290.2358952
288.2752571
283.8323392
277.7005011
275.8120854
276.0036716
276.1733315
276.3182212
276.5062052
276.7122252
276.9589967
277.2442944
277.5796125
277.9719598
278.4316041
278.9693486
279.5969363
280.3266931
281.1703833
282.1378804
283.2346847
284.4586594
285.795858
287.2165772
288.6739652
290.108083
291.4561109
292.6653315
293.7032053
294.5606351
295.2485025
295.7903974
296.2149069
296.5496408
296.8177351
297.0365956
297.2182111
297.3703136
297.497777
297.6038551
297.691063
297.7616785
297.8179394
297.8620546
297.8961364
297.9221197
297.9417022
297.9563182
297.9671409
297.9751048
297.9809402
297.9852133
297.9883632
297.9907335
297.9925758
297.9940558
297.9952051
297.997396
291.9741093
291.4063927
290.2712913
287.8649334
282.3217533
277.201113
276.4154082
276.5145339
276.6880132
276.8493443
277.0560892
277.2855159
277.5590971
277.8765549
278.249325
278.6856442
279.1963024
279.7928246
280.487229
281.2915834
282.216419
283.2688877
284.4496728
285.7491343
287.1430541
288.5899441
290.032818
291.4073307
292.6544796
293.7326659
294.6240366
295.3334956
295.8824331
296.3006362
296.6191773
296.8656156
297.0616333
297.2225996
297.3583659
297.4746532
297.5745313
297.6596705
297.7312167
297.790284
297.8381427
297.8762171
297.9060005
297.9289515
297.94641
297.9595467
297.969344
297.9766001
297.9819488
297.9858884
297.98881
297.9910247
297.9927624
297.9941803
297.9952689
297.9974413
292.3918488
291.7293777
290.3443113
287.3090837
280.9635629
277.0939221
277.0056908
277.1687192
277.3545807
277.535011
277.7627415
278.0182999
278.3217908
278.6749231
279.0890789
279.5735829
280.1396057
280.7990603
281.5637819
282.4448663
283.4506007
284.5840148
285.839184
287.1970376
288.6218318
290.0609891
291.4508506
292.7281703
293.8431899
294.7687104
295.5020012
296.0602486
296.4727167
296.7728484
296.9922608
297.1572115
297.2872458
297.3954043
297.4893486
297.572868
297.6473714
297.7131095
297.7700188
297.8181897
297.8580394
297.8902954
297.9158952
297.9358643
297.9512131
297.9628663
297.9716261
297.9781598
297.9830078
297.9866015
297.989285
297.9913362
297.9929632
297.9943147
297.9953395
297.9974916
292.917904
292.1501977
290.4560603
286.5272938
280.0552349
277.7628817
277.7890222
277.958858
278.158634
278.3604142
278.6115938
278.8961479
279.232728
279.6249535
280.0841361
280.6204914
281.2454016
281.9708005
282.8078033
283.7656686
284.8491836
286.0555754
287.3703792
288.7635361
290.1877574
291.5819839
292.8809662
294.028319
294.987679
295.7475443
296.3190452
296.7290294
297.0118407
297.2023193
297.3311146
297.422331
297.4929962
297.5537313
297.6100742
297.6640254
297.7155027
297.7635096
297.806931
297.8449701
297.8773022
297.9040438
297.9256401
297.9427287
297.9560206
297.9662147
297.973945
297.9797562
297.9840994
297.9873419
297.9897818
297.9916644
297.9931764
297.9944582
297.9954166
297.997547
293.5425967
292.6376735
290.5601481
285.5832425
279.8695793
278.5053402
278.6933422
278.8689239
279.0857821
279.3112367
279.5882199
279.9043606
280.2768718
280.7111802
281.2185666
281.8099501
282.4967077
283.2902832
284.2002817
285.232935
286.3879383
287.6548237
289.0088624
290.4084594
291.7965777
293.108133
294.282107
295.2738594
296.0626493
296.6520576
297.0646359
297.3339275
297.4967833
297.5876318
297.6350949
297.6606272
297.6785972
297.69726
297.7201742
297.7477278
297.7785283
297.8104998
297.8416258
297.8703496
297.8957081
297.9172881
297.9351032
297.949447
297.9607621
297.9695421
297.9762668
297.9813665
297.9852088
297.9881001
297.9902947
297.9920062
297.9934004
297.99461
297.9954999
297.9976073
294.2617007
293.1601885
290.54319
284.6401259
279.8800513
279.4566566
279.701385
279.8849192
280.1209725
280.371923
280.6768802
281.0271014
281.4385184
281.9182033
282.4773679
283.1272676
283.8787934
284.7420913
285.7241605
286.826751
288.042699
289.3520815
290.7189794
292.0913397
293.4061177
294.5998056
295.620999
296.4399418
297.0516923
297.472839
297.7343387
297.8735785
297.9277905
297.9296831
297.9052019
297.8729385
297.8446343
297.8263253
297.8197778
297.8239581
297.8363399
297.8539265
297.8739366
297.8941694
297.9131175
297.9299122
297.9441921
297.9559483
297.9653848
297.9728102
297.9785642
297.982972
297.9863236
297.9888683
297.9908189
297.9923588
297.993634
297.9947693
297.995589
297.9976728
295.0612222
293.6975168
290.3430227
283.976109
280.7046774
280.5171498
280.7913341
280.9896636
281.2477968
281.5273307
281.8638558
282.2520434
282.7066363
283.2359954
283.8510381
284.562812
285.3810864
286.3137697
287.3639958
288.5274121
289.7882538
291.115978
292.4639596
293.7726648
294.9782059
296.0242668
296.8729732
297.5105018
297.9461743
298.2066691
298.3282895
298.3498258
298.3073018
298.2308657
298.1434721
298.0608439
297.9922412
297.9416807
297.9093414
297.892956
297.8890308
297.8937918
297.9038156
297.9163596
297.9294559
297.9418467
297.9528472
297.9621842
297.9698508
297.9759906
297.9808166
297.9845581
297.9874337
297.9896397
297.9913501
297.9927197
297.9938758
297.9949355
297.9956837
297.9977433
295.9276363
294.1903452
289.9879618
283.8914563
281.6614201
281.6805167
281.9627356
282.1804492
282.4639258
282.7755252
283.1473864
283.5772993
284.0788407
284.6612725
285.3349732
286.1102171
286.9948976
287.9935133
289.1037705
290.3134743
291.5969378
292.913049
294.2067691
295.4156464
296.4805101
297.3567434
298.0219088
298.4772599
298.7437298
298.8549256
298.8497725
298.7665745
298.6390797
298.4944266
298.3525131
298.2263262
298.122855
298.0443196
297.9895164
297.9551219
297.9368256
297.930204
297.9312985
297.9369145
297.9446969
297.9530577
297.9610343
297.968124
297.9741345
297.979063
297.9830084
297.9861134
297.988531
297.9904088
297.9918848
297.9930867
297.9941246
297.9951077
297.9957834
297.9978188
296.8481232
294.6258489
289.605363
283.980426
282.794309
282.9289323
283.2188814
283.460665
283.7717562
284.1178118
284.5276342
285.0018512
285.5529232
286.1906057
286.9243584
287.762839
288.7108965
289.7680695
290.924959
292.1602142
293.4380281
294.7084303
295.9118691
296.9882431
297.8879286
298.580694
299.0594508
299.3383014
299.4466608
299.4221163
299.3040275
299.1288896
298.9275562
298.7240027
298.5351736
298.3715341
298.2380427
298.1353469
298.061054
298.0109455
297.9800278
297.9633384
297.9564767
297.955873
297.9588489
297.9635376
297.9687386
297.973751
297.9782203
297.9820137
297.9851286
297.9876292
297.9896092
297.9911712
297.9924199
297.9934578
297.9943793
297.9952854
297.9958863
297.9978994
297.7625421
294.9900131
289.3617247
284.4877522
284.0505272
284.2560654
284.5575897
284.826748
285.1678168
285.5509118
286.0015736
286.5229063
287.1261216
287.8207808
288.6146584
289.5135981
290.5180026
291.6209934
292.8049123
294.0389531
295.2784192
296.467683
297.5474474
298.4648839
299.1832158
299.6872968
299.9837269
300.0965018
300.0604388
299.9146451
299.6973209
299.4423333
299.1773719
298.9233018
298.6943199
298.4986234
298.3393847
298.2158922
298.1247394
298.060956
298.0189812
297.9934089
297.9794758
297.9733034
297.9719443
297.9732972
297.9759595
297.9790591
297.9820997
297.9848343
297.9871696
297.9890995
297.9906633
297.9919231
297.9929528
297.9938312
297.9946388
297.9954676
297.9959973
297.9979851
298.5736772
295.3017392
289.3672584
285.7322409
285.4167715
285.6604391
285.9781624
286.2785364
286.6527124
287.0760874
287.5707669
288.1417431
288.7985967
289.5497642
290.400408
291.3523952
292.4005333
293.5305638
294.7161789
295.9178953
297.0846178
298.1592172
299.0874269
299.8274361
300.3567638
300.6743416
300.7978282
300.7580125
300.5924331
300.339853
300.0362702
299.7125084
299.393072
299.0958983
298.8326956
298.6096564
298.428401
298.2870527
298.1813477
298.1056874
298.0540434
298.0206475
298.0004405
297.9892916
297.9840308
297.9823605
297.9827065
297.9840496
297.9857702
297.9875206
297.9891268
297.9905197
297.9916897
297.9926617
297.9934812
297.9942056
297.9949023
297.9956542
297.9961185
297.9980759
299.2545993
295.596356
289.7912627
286.8666026
286.8883278
287.1521234
287.4888136
287.8234316
288.2330196
288.6985816
289.2385366
289.8590299
290.5676081
291.3706915
292.2700235
293.2625364
294.3365604
295.4699158
296.6279866
297.764456
298.8253464
299.7565171
300.5127306
301.0652882
301.4057033
301.5447979
301.5082958
301.3309525
301.0509155
300.7053245
300.3273885
299.9447679
299.5789225
299.2451151
298.9528422
298.7065455
298.5065081
298.3498603
298.2316165
298.1456564
298.0855681
298.0452897
298.0195233
298.0039325
297.9951649
297.9907591
297.9889958
297.9887294
297.9892332
297.9900711
297.9909976
297.9918869
297.9926856
297.9933845
297.9940034
297.9945794
297.9951688
297.995845
297.9962481
297.9981716
299.8695984
295.889671
290.4346407
288.2682164
288.4569507
288.7343876
289.0938352
289.4637172
289.9089065
290.4160658
290.9998095
291.66666
292.4217789
293.2687266
294.2050065
295.221674
296.2998557
297.4094522
298.5088659
299.5479096
300.4738582
301.2396394
301.8116561
302.1746891
302.3325971
302.3053248
302.1237826
301.824375
301.4443439
301.0184283
300.5768053
300.1440509
299.738814
299.3739654
299.057061
298.7910264
298.5749979
298.4052634
298.2762312
298.1813492
298.1138934
298.0675656
298.0368765
298.0173244
298.0054079
297.9985297
297.9948479
297.9931089
297.9924932
297.9924868
297.9927811
297.9931995
297.9936491
297.9940897
297.9945176
297.9949514
297.9954376
297.9960398
297.9963836
297.9982719
300.5093871
296.2457905
291.1325444
289.7997797
290.1073374
290.4003135
290.7836493
291.188785
291.668866
292.2159175
292.8408065
293.5495215
294.3443542
295.2250233
296.1838021
297.2050492
298.2624942
299.3191312
300.3289015
301.241507
302.0094859
302.5957854
302.9794141
303.15755
303.1439606
302.9648849
302.6539581
302.2475027
301.7808769
301.2860325
300.7901108
300.3148019
299.876222
299.4851326
299.1474021
298.8646495
298.6350309
298.4541198
298.3158171
298.2132146
298.1393355
298.0876935
298.0526476
298.0295646
298.0148221
298.0057107
298.0002856
297.9972008
297.9955563
297.9947702
297.9944775
297.9944566
297.9945786
297.9947759
297.9950226
297.9953205
297.9957079
297.996238
297.9965242
297.9983765
301.1571948
296.7415761
292.3636312
291.4440797
291.8232106
292.1360587
292.5443663
292.9848734
293.499509
294.0848116
294.7479281
295.4931433
296.3191405
297.2207172
298.1841332
299.1868537
300.1960522
301.1699959
302.0615235
302.8240238
303.4184026
303.8190609
304.0170848
304.0200168
303.848853
303.5335975
303.1086968
302.6092158
302.0680836
301.5143584
300.9722923
300.4609512
299.9942058
299.5809763
299.2256708
298.928785
298.6876376
298.4971965
298.3509377
298.2416606
298.1621851
298.1058768
298.0669762
298.0407466
298.0234687
298.0123411
298.0053328
298.0010191
297.9984303
297.9969247
297.9960879
297.9956578
297.9954734
297.9954417
297.995517
297.9956857
297.9959788
297.9964391
297.9966686
297.9984853
301.871725
297.395099
293.7589504
293.1754336
293.5968133
293.9346743
294.3692425
294.8454177
295.3942782
296.0153882
296.712084
297.4857314
298.3306407
299.2360464
300.1820743
301.1400545
302.0724577
302.9357487
303.6851263
304.2807467
304.6936386
304.9096252
304.9302786
304.7710633
304.4576874
304.0218769
303.4975312
302.9177468
302.3127984
301.7089286
301.1277313
300.5859313
300.0954315
299.6635533
299.2934443
298.9846347
298.7337264
298.5351735
298.3820965
298.2670549
298.1827067
298.1223024
298.079992
298.0509588
298.0314066
298.0184591
298.0100136
298.0045782
298.0011232
297.9989547
297.9976141
297.9968035
297.9963329
297.9960863
297.9959998
297.996046
297.9962498
297.996642
297.9968127
297.9985991
302.6880144
298.4817789
295.2623091
294.98932
295.431915
295.8006825
296.261693
296.7717297
297.3517933
298.002761
298.7240581
299.5132755
300.3599559
301.2477293
302.151201
303.0370928
303.8656252
304.5945188
305.1842582
305.6037033
305.8343905
305.8724208
305.7277123
305.4212334
304.9812915
304.4398231
303.8293076
303.1805178
302.5210675
301.8745702
301.2602305
300.6927119
300.1822039
299.7346442
299.352092
299.0332461
298.7740931
298.5686503
298.4097402
298.2897262
298.2011385
298.1371405
298.0918145
298.0602834
298.0386911
298.0241012
298.0143512
298.0078926
298.0036436
298.0008646
297.9990582
297.9978942
297.9971567
297.9967089
297.9964701
297.9964005
297.99652
297.9968447
297.9969584
297.9987185
303.5808207
299.6166043
296.9270314
296.8882125
297.3386173
297.7389204
298.2231448
298.7610037
299.3647911
300.0351248
300.7674497
301.5550964
302.382788
303.2290038
304.0640147
304.8519687
305.553485
306.1302483
306.5500353
306.791122
306.8448321
306.7157516
306.4198986
305.9816317
305.4302352
304.796836
304.1120039
303.4040844
302.6981591
302.0154552
301.3730621
300.7838443
300.2565047
299.7957835
299.4027984
299.075529
298.8094326
298.5981532
298.4342633
298.3099665
298.217694
298.1505447
298.1025523
298.068796
298.0453739
298.0293018
298.0183682
298.0109764
298.006
298.0026592
298.0004225
297.9989307
297.9979447
297.9973089
297.996927
297.9967486
297.9967887
297.9970457
297.9971051
297.9988428
304.575054
300.728388
298.7260549
298.8599495
299.3114037
299.7387836
300.2407135
300.7978264
301.4150741
302.0915858
302.818751
303.5854524
304.3719317
305.1524974
305.8947837
306.5626753
307.1196578
307.5333773
307.7798502
307.8464273
307.7327893
307.4499953
307.0181163
306.4632196
305.8144234
305.1014258
304.3526785
303.5941587
302.8486202
302.1351644
301.4690286
300.8615136
300.3200341
299.8482915
299.4465859
299.1122725
298.8403502
298.6241431
298.4560133
298.3280351
298.2325638
298.162653
298.112304
298.0765656
298.0515026
298.0340931
298.0220858
298.0138433
298.0082007
298.0043434
298.0017094
297.9999141
297.9986971
297.9978858
297.9973697
297.9970894
297.9970547
297.9972435
297.9972555
297.9989694
305.6995551
301.9402721
300.629934
300.8820521
301.3329154
301.7810126
302.2941115
302.8608084
303.4797326
304.1476302
304.8519625
305.5774158
306.300577
306.9930547
307.6218408
308.1527778
308.5541303
308.8005964
308.8764035
308.7769023
308.5083891
308.0864793
307.5336112
306.8763292
306.1428503
305.3611282
304.5574763
303.7556595
302.9763408
302.2367521
301.5505185
300.9275843
300.3742462
299.8933012
299.4843358
299.1441598
298.8673728
298.6470232
298.4752959
298.344161
298.2459174
298.1735891
298.1211585
298.0836553
298.0571208
298.038505
298.0255237
298.016506
298.0102537
298.0059219
298.0029215
298.0008453
297.999414
297.9984392
297.9977977
297.9974223
297.9973173
297.997437
297.9974145
297.9990954
306.928213
303.4409617
302.6111244
302.9384067
303.3859598
303.8469596
304.3629261
304.9278008
305.5348481
306.1778953
306.8408575
307.5049182
308.1442318
308.7294262
309.22879
309.6118956
309.8529266
309.9338391
309.8463173
309.5922576
309.1828327
308.636579
307.9770232
307.2303568
306.4234783
305.5824934
304.7316754
303.892781
303.0846253
302.3228094
301.6195595
300.983643
300.4203824
299.9317838
299.5168069
299.1717817
298.8909582
298.6671456
298.4923794
298.3585464
298.2579054
298.1834637
298.1291958
298.090122
298.0622687
298.0425648
298.0287005
298.0189766
298.0121668
298.0073992
298.0040613
298.0017255
298.0000957
297.9989688
297.9982103
297.9977466
297.9975752
297.9976255
297.9975812
297.9992163
308.2278407
305.0898709
304.6401132
305.0128424
305.4523463
305.9167625
306.4255343
306.9756262
307.5558958
308.1571699
308.7604753
309.3445352
309.8825069
310.3457169
310.7053279
310.9357617
311.0174801
310.939214
310.6989353
310.3035555
309.767587
309.1112042
308.3581253
307.5336816
306.6632655
305.7711685
304.8797871
304.009091
303.1762789
302.3955368
301.6778773
301.0310436
300.4595062
299.9645747
299.5446546
299.1956511
298.9115054
298.6848188
298.5075002
298.3713704
298.2686616
298.1923757
298.1364879
298.0960173
298.0669825
298.0462978
298.0316334
298.0212667
298.0139471
298.0087798
298.0051314
298.0025561
298.0007424
297.9994743
297.998607
297.9980618
297.9978274
297.9978088
297.9977545
297.9993357
309.595945
306.850316
306.6906208
307.0851373
307.5121407
307.9689777
308.4591278
308.9805752
309.5187086
310.0617246
310.588679
311.0770488
311.5003901
311.8321055
312.047268
312.1255979
312.0535685
311.825782
311.4451937
310.9223286
310.273796
309.5204755
308.6856975
307.7936659
306.8682334
305.9319921
305.0056538
304.1076195
303.2536831
302.4568044
301.7269419
301.0709438
300.4925305
299.9923943
299.5684469
299.2162142
298.9293635
298.7003136
298.5208665
298.3827916
298.2783054
298.2004135
298.1430997
298.101388
298.0712955
298.0497274
298.0343383
298.0233868
298.0156017
298.0100681
298.0061341
298.003338
298.0013546
297.9999557
297.9989874
297.9983673
297.9980728
297.9979866
297.9979337
297.999452
311.0251813
308.6885248
308.7403096
309.1356696
309.5434757
309.9806927
310.4398483
310.9187316
311.4001351
311.8702386
312.3071161
312.6881529
312.9884515
313.1844305
313.2555558
313.1867472
312.9698201
312.6041726
312.0965036
311.4597844
310.7117873
309.8734681
308.9674327
308.0166577
307.0435184
306.0690646
305.112521
304.1909233
303.3188497
302.5081962
301.768003
301.1043319
300.5202383
300.0158634
299.5886752
299.2338591
298.9448371
298.7138678
298.5326621
298.3929503
298.286943
298.2076564
298.1490894
298.1062765
298.0752381
298.0528748
298.03683
298.0253469
298.017137
298.0112681
298.007072
298.0040728
298.0019327
298.0004127
297.9993513
297.9986625
297.9983102
297.998159
297.9981178
297.999564
312.4953392
310.5700662
310.770464
311.1393332
311.5204922
311.9266439
312.3431423
312.7670392
313.1793906
313.5650597
313.9020845
314.1687421
314.3425022
314.4032949
314.3349974
314.1272588
313.7763761
313.2854795
312.6639478
311.9262951
311.0908025
310.1781113
309.2099415
308.2080513
307.1934556
306.1858342
305.2031155
304.2611539
303.3734758
302.5510541
301.8021244
301.1320534
300.5433031
300.0355185
299.6057667
299.2489246
298.9581938
298.7256907
298.5430495
298.4019715
298.2946692
298.2141756
298.1545098
298.1107213
298.078838
298.0557597
298.0391221
298.0271564
298.0185594
298.0123838
298.0079474
298.0047616
298.0024773
298.0008455
297.9996983
297.9989468
297.9985384
297.9983262
297.998306
297.9996695
313.9619512
312.4555844
312.7289512
313.0722014
313.4189505
313.7841062
314.1480947
314.5069889
314.8409825
315.1343549
315.3659284
315.5156034
315.5636793
315.4937001
315.2936412
314.9572168
314.4843204
313.8808753
313.1580943
312.3313799
311.4190944
310.4413501
309.4189369
308.372468
307.3217398
306.285234
305.2797572
304.3201448
303.4190134
302.5865309
301.8302245
301.1548423
300.5623126
300.0518305
299.6200979
299.2617107
298.9696711
298.7359693
298.5521744
298.4099676
298.3015697
298.2200358
298.159409
298.1147578
298.0821208
298.0584003
298.0412276
298.0288241
298.0198747
298.0134192
298.0087627
298.0054057
298.0029889
298.001254
298.0000284
297.9992195
297.9987564
297.9984886
297.9984967
297.9997656
315.4250757
314.3108697
314.6028482
314.9128877
315.2185659
315.534452
315.8381634
316.1247744
316.3744084
316.5714035
316.6959551
316.7300086
316.6568203
316.4633559
316.141189
315.6873847
315.1046286
314.4008712
313.5885288
312.6834472
311.7038142
310.6691215
309.5992581
308.5138004
307.4314752
306.3697272
305.3443977
304.369444
303.4566935
302.6156091
301.8530907
301.1733316
300.5777766
300.06521
299.6319988
299.2724818
298.9794796
298.74487
298.5601672
298.4170396
298.3077221
298.2252956
298.163831
298.1184184
298.0851102
298.0608139
298.0431586
298.0303586
298.0210888
298.014378
298.0095204
298.0060066
298.0034681
298.0016385
298.0003416
297.99948
297.9989636
297.9986471
297.9986868
297.9998495
316.867718
316.0962218
316.3718726
316.6436881
316.9026156
317.1629273
317.4010554
317.6111568
317.7738747
317.8740601
317.8936088
317.8166525
317.6292842
317.3215291
316.8879955
316.3284314
315.6476418
314.8550178
313.9637345
312.9897981
311.9510904
310.86647
309.7549974
308.6353356
307.5252855
306.4414024
305.3986998
304.4103779
303.4875779
302.6391423
301.8714117
301.1880785
300.5901463
300.0760223
299.6417646
299.2814752
298.9878088
298.7525431
298.5671459
298.4232795
298.3131971
298.230009
298.1678164
298.1217334
298.0878285
298.0630165
298.0449265
298.0317678
298.0222072
298.0152639
298.0102228
298.0065657
298.0039156
298.0019993
298.0006378
297.9997275
297.9991593
297.9988022
297.9988709
297.9999225
318.2738651
317.7799396
318.0197886
318.2494957
318.4581607
318.6593428
318.8295249
318.9620933
319.038619
319.0447433
318.9641746
318.783178
318.4904227
318.0785693
317.5447225
316.8907422
316.1230255
315.2519778
314.2912367
313.2568063
312.1662122
311.0377169
309.8896464
308.7398736
307.6054076
306.5020451
305.4440905
304.4440909
303.5125883
302.6578761
301.8857926
301.1995754
300.599823
300.0845938
299.6496599
299.2889043
298.99483
298.7591248
298.5732181
298.4287713
298.3180596
298.2342255
298.1714026
298.1247309
298.0902964
298.0650233
298.0465424
298.0330596
298.0232354
298.0160806
298.0108724
298.0070845
298.0043323
298.0023369
298.000917
297.9999613
297.9993437
297.9989538
297.9990445
297.9999967
319.6251895
319.3386355
319.5342611
319.7195572
319.876802
320.0180738
320.120823
320.1777846
320.171657
320.0889854
319.9152566
319.6387095
319.2502762
318.7448386
318.1215268
317.3838544
316.5394154
315.5993341
314.5775265
313.4899128
312.3536665
311.1865172
310.006157
308.8297868
307.6737447
306.5531829
305.4817998
304.4715773
303.5325319
302.6724685
301.896772
301.2082636
300.6071681
300.0912201
299.6559255
299.2949642
299.0007001
298.7647404
298.5784828
298.4335925
298.3223699
298.2379916
298.1746249
298.1274372
298.0925336
298.0668487
298.0480166
298.0342415
298.0241785
298.0168319
298.0114715
298.0075645
298.0047191
298.0026518
298.0011794
298.0001811
297.9995168
297.9991015
297.9992095
298.0000631
320.9054832
320.7558729
320.9065997
321.0472711
321.1544711
321.237883
321.2763616
321.2620957
321.1789939
321.0145416
320.7559011
320.3930844
319.9189724
319.3302964
318.6278245
317.8163703
316.9044416
315.9036858
314.8281919
313.6937699
312.5172758
311.3159824
310.1070469
308.9071061
307.7319349
306.5961405
305.5129023
304.4937129
303.548126
302.6835092
301.9048357
301.2145439
300.6125119
300.0961725
299.6607833
299.2998355
299.0055648
298.7695066
298.5830328
298.4378162
298.3261849
298.241351
298.1775168
298.1298777
298.094559
298.0685067
298.0493596
298.035321
298.0250421
298.0175214
298.0120229
298.0080073
298.0050769
298.0029446
298.0014249
298.0003865
297.9996789
297.999244
297.9993596
298.0001237
322.1009459
322.0214274
322.1333548
322.2318858
322.2925813
322.3222691
322.3014503
322.2219185
322.068827
321.8305858
321.4958794
321.0562747
320.5063058
319.8442367
319.072164
318.1959381
317.2247826
316.1707454
315.0480358
313.8723613
312.6603114
311.4287805
310.1944835
308.973591
307.7814088
306.632084
305.5383532
304.5112836
303.5600198
302.6915363
301.9104304
301.2187871
300.6161615
300.0997044
299.6644413
299.3036878
299.0095616
298.7735339
298.586956
298.4415117
298.3295588
298.244346
298.1801106
298.132077
298.0963911
298.0700112
298.0505814
298.0363054
298.0258313
298.018153
298.0125291
298.0084148
298.0054069
298.0032161
298.0016537
298.0005774
297.99983
297.9993795
297.999498
298.0001822
323.2022744
323.1396072
323.2188999
323.2786931
323.2971028
323.278109
323.2038884
323.0658972
322.8504554
322.5468143
322.1449877
321.6378765
321.021404
320.2951043
319.4621623
318.5292723
317.5062401
316.4054411
315.2411869
314.0291093
312.7855892
311.5272174
310.2703521
309.0307842
307.8234317
306.6620556
305.5590144
304.5250052
303.56881
302.6970484
301.9139728
301.2213408
300.6184061
300.1020553
299.6670965
299.3066819
299.0128209
298.7769271
298.5903361
298.4447454
298.3325437
298.2470168
298.1824374
298.1340589
298.0980479
298.0713756
298.0516922
298.0372022
298.0265516
298.0187305
298.0129928
298.0087886
298.0057104
298.0034671
298.0018662
298.0007536
297.9999701
297.9995073
297.9996274
298.0002349
324.1712419
324.1211017
324.1708914
324.1958061
324.17659
324.1144827
323.9932193