/*--------------------------------*- C++ -*----------------------------------*\
  =========                 |
  \\      /  F ield         | OpenFOAM: The Open Source CFD Toolbox
   \\    /   O peration     | Website:  https://openfoam.org
    \\  /    A nd           | Version:  12
     \\/     M anipulation  |
\*---------------------------------------------------------------------------*/
FoamFile
{
    format      ascii;
    class       volVectorField;
    location    "1000";
    object      U;
}
// * * * * * * * * * * * * * * * * * * * * * * * * * * * * * * * * * * * * * //

dimensions      [0 1 -1 0 0 0 0];

internalField   nonuniform List<vector> 
16200
(
(184.0637309 -7.287012293e-17 -1.499813987)
(219.5097978 3.517075723e-17 -1.426345151)
(239.4572222 -2.442192095e-20 -1.601252284)
(255.1646372 0 -1.774023734)
(269.7274357 0 -1.96345305)
(284.8346816 -2.522894863e-17 -2.192467759)
(300.6146189 2.885240567e-17 -2.511953835)
(313.2199768 6.222538618e-17 -2.892475589)
(316.9624895 -1.210827772e-16 -3.021255074)
(316.9563375 1.083849898e-16 -2.997113127)
(316.6420991 -4.613449295e-17 -3.052756996)
(316.3435592 0 -3.03030229)
(315.9751172 0 -3.092099658)
(315.5692827 -5.362096378e-17 -3.09358355)
(315.0914047 4.475323628e-17 -3.151506742)
(314.5438042 0 -3.182583877)
(313.9047015 0 -3.24628834)
(313.1626811 8.19304361e-19 -3.307197457)
(312.2973882 4.43971104e-17 -3.390069872)
(311.2892959 -3.605094712e-17 -3.48385005)
(310.1145997 0 -3.597909676)
(308.7474848 -2.489794694e-17 -3.730202963)
(307.1593604 2.227986804e-17 -3.883672121)
(305.3198093 3.792188591e-17 -4.057038445)
(303.1977132 -3.185665126e-17 -4.247966266)
(300.7634682 -2.724752179e-17 -4.449879855)
(297.9926777 2.290930062e-17 -4.651182255)
(294.8717393 0 -4.833396968)
(291.4055862 0 -4.970489415)
(287.6268965 5.732328414e-17 -5.029974)
(283.6042907 -3.612627126e-17 -4.977649134)
(279.4445973 -1.039987848e-17 -4.7866604)
(275.2842292 0 -4.448465926)
(271.2694981 -4.588621418e-17 -3.979983686)
(267.532566 5.151433899e-17 -3.421894309)
(264.1724452 -8.876501455e-17 -2.828187072)
(261.2466155 7.483779248e-17 -2.252073546)
(258.7727251 0 -1.73447968)
(256.736248 0 -1.298690329)
(255.1001747 0 -0.9511287235)
(253.8143156 7.750357547e-17 -0.6859226136)
(252.8232197 -1.309801883e-16 -0.4904687502)
(252.0721601 1.102152517e-16 -0.3500710958)
(251.5111389 0 -0.2509138056)
(251.0970188 1.567628253e-16 -0.1814822715)
(250.7942505 -1.319006752e-16 -0.1329194605)
(250.5745311 -4.932401581e-20 -0.09876073659)
(250.4159722 1.871102511e-16 -0.07446881565)
(250.3020085 -3.153109177e-16 -0.05693644278)
(250.2203242 2.655777072e-16 -0.04406441694)
(250.1618762 2.238931081e-16 -0.03444067512)
(250.1200796 3.777408048e-16 -0.02711223477)
(250.0901658 -3.1882974e-16 -0.02142832254)
(250.0686553 8.082210066e-16 -0.01694330123)
(250.0530443 -4.557865186e-16 -0.01335005882)
(250.0413942 0 -0.01043848567)
(250.032621 1.638506985e-16 -0.008009315408)
(250.0255113 0 -0.005971476809)
(250.0196917 -4.753436256e-16 -0.00362858576)
(250.0130675 -3.971170993e-19 -0.003769473193)
(188.2285923 -1.538447939e-16 -4.161357505)
(224.800102 1.50475305e-16 -4.421382367)
(245.3330913 -5.444084278e-17 -4.917788214)
(261.4961985 -4.886438057e-17 -5.30864766)
(276.566139 5.047484037e-17 -5.701992693)
(292.2584264 0 -6.147391498)
(308.0874395 0 -6.710969129)
(318.3050625 6.696622463e-17 -7.144132454)
(320.2724333 -6.254337606e-17 -7.230699646)
(320.1250775 0 -7.194297653)
(319.7913062 0 -7.262764733)
(319.470967 0 -7.230584145)
(319.0756917 -6.638072465e-17 -7.297348082)
(318.6386673 5.538741189e-17 -7.292834119)
(318.1220113 -1.419821288e-18 -7.349881278)
(317.5278541 -1.189795563e-18 -7.375541349)
(316.8322786 0 -7.433478898)
(316.0222011 -2.524336999e-18 -7.485739178)
(315.0750351 0 -7.55701399)
(313.9687442 1.176101578e-18 -7.635488915)
(312.6767501 4.004090519e-18 -7.729355159)
(311.1701544 -2.892441201e-17 -7.835567429)
(309.4171723 -1.745553841e-17 -7.955251658)
(307.3842444 3.864454531e-17 -8.085006141)
(305.037657 0 -8.219315822)
(302.3465934 6.965212747e-18 -8.347323852)
(299.2881899 -1.185150357e-17 -8.451655016)
(295.8549549 0 -8.506696391)
(292.0645311 -3.470506123e-17 -8.478508565)
(287.9701058 1.448399481e-17 -8.327586293)
(283.6669292 -3.780812843e-17 -8.016506842)
(279.2883961 1.076831659e-17 -7.522236551)
(274.9884646 -3.690826562e-17 -6.848407141)
(270.9154053 -1.573466316e-17 -6.030313809)
(267.1878054 0 -5.128578383)
(263.8816603 4.598005008e-17 -4.21417386)
(261.0300586 -3.875821056e-17 -3.35187505)
(258.6310155 0 -2.588512626)
(256.6578366 1.121375698e-16 -1.948649156)
(255.0684837 -9.486619866e-17 -1.436698326)
(253.8129245 8.016338093e-17 -1.042691316)
(252.8386638 2.70632472e-16 -0.7488256524)
(252.0948355 -1.138755981e-16 -0.5348914311)
(251.5350018 0 -0.3818257553)
(251.1187862 4.852880839e-16 -0.2734940551)
(250.8125064 -5.443816167e-16 -0.1972104288)
(250.5889921 -3.43556503e-16 -0.1434857669)
(250.4269438 3.85415869e-16 -0.1054781488)
(250.310045 0 -0.07837619166)
(250.2260279 -2.727927959e-16 -0.05884735648)
(250.1658006 2.295339194e-16 -0.04460162759)
(250.1226924 5.796252243e-16 -0.03406761549)
(250.0918387 3.253724211e-16 -0.02616229157)
(250.0696864 -2.740687799e-16 -0.02013744142)
(250.0536315 9.239809516e-16 -0.01547943419)
(250.0417305 -7.793027396e-16 -0.01182934384)
(250.032727 -4.933753948e-16 -0.008900866133)
(250.0255471 5.558574232e-16 -0.006547092099)
(250.0196476 1.058119021e-15 -0.003918007539)
(250.0125642 9.803954487e-17 -0.003905330171)
(192.2755576 -1.589395854e-19 -6.920596287)
(229.9624273 1.616002823e-16 -7.682832771)
(251.0722278 -2.363811863e-16 -8.488207611)
(267.7100674 1.075924356e-16 -9.124353059)
(283.3202685 1.130463386e-16 -9.753755508)
(299.486336 -2.556179864e-16 -10.45175253)
(314.8635464 2.832833176e-16 -11.26540848)
(322.2350718 3.681400669e-19 -11.66419713)
(322.9577749 -2.636886948e-16 -11.73169191)
(322.7072591 1.147434343e-16 -11.67802293)
(322.3538136 0 -11.75470939)
(322.0071311 7.864894631e-17 -11.70783857)
(321.5766995 -6.556051186e-17 -11.77420957)
(321.0991341 -2.609644754e-18 -11.75936773)
(320.5332928 4.818232349e-17 -11.80961901)
(319.880843 3.764425043e-18 -11.82522936)
(319.1157025 -3.278552457e-17 -11.87217965)
(318.2228374 1.732154903e-18 -11.9116818)
(317.1772357 -4.652057362e-17 -11.96756243)
(315.9540215 3.654984277e-17 -12.02781759)
(314.5234909 -2.629350439e-20 -12.09896164)
(312.8532697 -2.099100558e-17 -12.17666186)
(310.9080407 1.754759582e-17 -12.25945088)
(308.651027 0 -12.34074972)
(306.046466 -4.245259968e-17 -12.41031602)
(303.0639882 7.004396659e-18 -12.45100596)
(299.6855327 3.687415607e-17 -12.4373918)
(295.9150163 2.130578539e-17 -12.33458188)
(291.7900994 1.839727713e-17 -12.09953287)
(287.392452 -1.485181726e-17 -11.68687027)
(282.8494305 1.936882268e-19 -11.06077028)
(278.3206017 -4.478576623e-17 -10.21011464)
(273.9705102 3.814771621e-17 -9.159303602)
(269.9387237 -9.824394386e-17 -7.967574911)
(266.3200497 2.766390906e-17 -6.716175948)
(263.1604452 0 -5.48953891)
(260.46517 -8.069454202e-17 -4.358420349)
(258.2117213 -6.855028246e-17 -3.370048844)
(256.361614 -1.605493577e-20 -2.54612448)
(254.868609 4.906974053e-17 -1.886666111)
(253.6837673 -8.258623054e-17 -1.376751193)
(252.7585734 -6.97282811e-17 -0.993550284)
(252.0471158 2.351277409e-16 -0.7120296232)
(251.5076672 2.971583981e-16 -0.5087055091)
(251.1037372 -1.665635025e-16 -0.3635703607)
(250.804545 2.803214531e-16 -0.2606857446)
(250.5849397 5.890971928e-16 -0.187941147)
(250.4249425 -3.961217456e-16 -0.1364500173)
(250.3090582 6.657242698e-16 -0.09985272265)
(250.2255058 -2.796789763e-16 -0.07367098412)
(250.1654694 -4.699001232e-16 -0.05478235446)
(250.1224282 1.973307931e-16 -0.04101869671)
(250.0915954 -6.630528835e-16 -0.03087329913)
(250.0694575 0 -0.02329873248)
(250.0534211 -1.871153227e-15 -0.01757182196)
(250.0415632 7.858369785e-16 -0.01318601652)
(250.032573 3.300421806e-16 -0.009761782004)
(250.0254539 -1.386141727e-16 -0.007091369601)
(250.0196574 -9.315525707e-16 -0.004140269466)
(250.0125911 0 -0.004037750014)
(196.0112715 -3.437400118e-16 -9.806793194)
(234.6847196 -1.694569876e-19 -11.17819569)
(256.3106474 0 -12.28586473)
(273.4540473 1.162179022e-19 -13.18918578)
(289.674048 -1.271501393e-16 -14.08006722)
(306.1613345 1.43414524e-16 -15.05389283)
(320.1100821 -3.015194702e-19 -16.03671596)
(324.8050517 -5.979124043e-19 -16.31608625)
(324.8880661 1.063539415e-18 -16.3810993)
(324.6089274 1.15724154e-16 -16.3078097)
(324.2304883 -9.750192502e-17 -16.39482995)
(323.8533401 1.276877869e-18 -16.33568599)
(323.3837522 -6.807102594e-17 -16.40304175)
(322.8604752 5.863537339e-17 -16.38113167)
(322.2391146 4.773946558e-17 -16.42681195)
(321.5204196 -4.244941179e-17 -16.43560849)
(320.6759939 -4.189802011e-18 -16.47407035)
(319.6884691 0 -16.50319382)
(318.5301512 0 -16.54499471)
(317.1730109 0 -16.58712706)
(315.5839781 -3.817526302e-17 -16.63386406)
(313.7270908 1.417477501e-17 -16.67911084)
(311.5637221 3.640036194e-17 -16.71806466)
(309.0547591 -2.040983577e-17 -16.73984392)
(306.1643296 2.615908332e-17 -16.7279651)
(302.865913 1.482446874e-17 -16.6572807)
(299.1514879 -2.544495584e-17 -16.49277011)
(295.0435981 2.14062097e-17 -16.18948413)
(290.6081631 -1.84230849e-17 -15.69644413)
(285.9615504 -3.030332056e-19 -14.96693683)
(281.2632229 2.681604552e-17 -13.97466075)
(276.6907704 4.620481299e-17 -12.7291932)
(272.4056971 0 -11.28158543)
(268.5252984 6.749562247e-17 -9.715789635)
(265.1115319 0 -8.129920288)
(262.176916 0 -6.615900796)
(259.6997063 2.082582845e-16 -5.244592279)
(257.639708 3.517857279e-17 -4.059155611)
(255.9497481 2.392122135e-16 -3.075714648)
(254.5819349 5.057524479e-17 -2.288699888)
(253.4902571 5.543657363e-16 -1.67812195)
(252.6314736 -2.15665807e-16 -1.216648476)
(251.9655992 -1.211508541e-16 -0.8752247603)
(251.4564198 -9.171919695e-16 -0.626783278)
(251.0720224 -1.734596237e-19 -0.4481784639)
(250.7851298 7.201478966e-16 -0.3208001472)
(250.5731151 6.050686565e-16 -0.2303409269)
(250.417729 -1.117663708e-15 -0.1661632851)
(250.3046153 -5.117205667e-16 -0.1205530724)
(250.2227179 2.862445484e-16 -0.08800975507)
(250.1636709 -1.200303688e-15 -0.06465488032)
(250.1212267 0 -0.0477698863)
(250.0907632 1.349438964e-15 -0.03545209542)
(250.0688644 1.13039791e-15 -0.02637141544)
(250.0529924 9.464183995e-16 -0.01960405841)
(250.0412616 0 -0.01450202235)
(250.0323437 6.621705913e-16 -0.01059296608)
(250.0252994 6.915504543e-17 -0.007624072512)
(250.0195987 -2.078036732e-15 -0.004372693334)
(250.012456 3.174850573e-15 -0.00417481138)
(199.3843868 -7.280176776e-16 -12.8678821)
(238.9599687 3.732578324e-16 -14.87008291)
(261.0579235 -1.407543524e-16 -16.29925446)
(278.6880879 -6.491460464e-22 -17.49189627)
(295.5276967 0 -18.66984851)
(312.1985511 3.140975539e-19 -19.94050145)
(323.5545167 3.160896495e-21 -20.9527462)
(326.2571034 0 -21.09781684)
(326.0849757 -2.204404879e-18 -21.17940602)
(325.7845037 -1.183663163e-16 -21.08798218)
(325.3735874 9.94310136e-17 -21.18557397)
(324.9595644 0 -21.11582371)
(324.443517 -7.170647061e-17 -21.18351663)
(323.8659638 -1.950224779e-18 -21.15546432)
(323.1794408 4.565645462e-17 -21.1953811)
(322.3833359 -8.200228347e-17 -21.19648047)
(321.4468926 7.297789058e-17 -21.22410587)
(320.3500298 3.616506768e-18 -21.2400286)
(319.0621105 0 -21.2638528)
(317.5516234 4.125671642e-17 -21.28299808)
(315.7819626 -4.330339896e-17 -21.29897387)
(313.7137288 3.685926929e-17 -21.30311269)
(311.3057445 -3.722462803e-17 -21.28594342)
(308.5182604 0 -21.23054208)
(305.3182859 -1.795136825e-17 -21.11231789)
(301.6878509 0 -20.89639915)
(297.635762 2.632656267e-17 -20.53704099)
(293.2116532 -2.21500318e-17 -19.9796937)
(288.5173514 0 -19.16914151)
(283.7062733 0 -18.06508391)
(278.9636378 0 -16.66065871)
(274.4712122 0 -14.99410672)
(270.3716716 0 -13.14579965)
(266.7481618 1.054342221e-16 -11.22148127)
(263.6244697 -1.492114143e-16 -9.329878479)
(260.9800432 1.015468662e-16 -7.563593974)
(258.7696559 -1.71686137e-16 -5.988041591)
(256.9397164 -1.822490184e-16 -4.638637883)
(255.4380226 -9.203694259e-17 -3.523980664)
(254.2175843 -1.558340151e-16 -2.632256439)
(253.2368828 -5.698713348e-16 -1.938599851)
(252.4588581 -2.955772484e-16 -1.411842334)
(251.8500167 4.356954058e-16 -1.019772425)
(251.3800871 8.373287499e-16 -0.7326108237)
(251.022123 -7.038300002e-16 -0.5248442234)
(250.7527233 -7.389074495e-16 -0.3758129068)
(250.5521327 -8.683535566e-16 -0.2694818666)
(250.4041394 1.040702908e-15 -0.1937994139)
(250.2957848 1.221662532e-15 -0.1399286067)
(250.2169463 -1.462503211e-16 -0.1015012097)
(250.1598682 1.347166679e-15 -0.07398331851)
(250.1186977 -1.844911968e-15 -0.05417022739)
(250.0890656 -2.914293754e-15 -0.03980402131)
(250.0677168 -1.002677723e-15 -0.02929751051)
(250.0522178 0 -0.02154206644)
(250.0407468 1.595117236e-15 -0.01575838086)
(250.0319973 -4.980878518e-16 -0.01138497849)
(250.0250745 -2.070572694e-16 -0.008131835948)
(250.0195143 1.832991136e-15 -0.004600294355)
(250.0123603 -3.034129548e-15 -0.004311453615)
(202.2730546 1.880372153e-19 -16.07822409)
(242.6776195 0 -18.74003898)
(265.2173818 1.504912518e-19 -20.50754591)
(283.3368146 -1.450452754e-19 -22.01305871)
(300.7474565 -3.144638788e-19 -23.50424281)
(317.2398989 0 -25.0608747)
(325.6428845 7.04338385e-19 -25.96658575)
(326.8683996 -1.30336509e-18 -25.99762142)
(326.5122964 1.131854824e-18 -26.09393848)
(326.1907694 -9.52120669e-19 -25.9828925)
(325.7420687 0 -26.08812881)
(325.2863422 8.494129692e-17 -26.00676635)
(324.7184471 -7.093154676e-17 -26.07038016)
(324.0797919 6.14351244e-17 -26.0340105)
(323.320028 -4.983384606e-17 -26.06446531)
(322.4365418 5.243583284e-18 -26.05530391)
(321.3960651 0 -26.06895747)
(320.1753735 -6.32205044e-17 -26.0686177)
(318.7407066 4.989211902e-17 -26.07052716)
(317.0570324 -1.058113875e-17 -26.06119498)
(315.0845374 8.922355782e-18 -26.03815629)
(312.7812291 0 -25.98875001)
(310.1049744 0 -25.89728435)
(307.0180777 0 -25.73917279)
(303.4946828 0 -25.4802052)
(299.5316962 -6.372478987e-17 -25.07460622)
(295.1630982 -3.894576175e-19 -24.46594334)
(290.4740931 -2.325557064e-17 -23.59301741)
(285.6067043 2.739575444e-19 -22.40366308)
(280.7470013 1.684134255e-17 -20.87451798)
(276.0924078 -2.930357493e-17 -19.02782403)
(271.811131 1.247594662e-16 -16.93491804)
(268.0120496 -8.535971896e-17 -14.70331865)
(264.7362953 -7.220887238e-17 -12.45385296)
(261.9688374 1.228671226e-16 -10.29797672)
(259.660055 -1.043356033e-16 -8.322394384)
(257.746906 0 -6.582725169)
(256.167659 -1.879705202e-16 -5.104346649)
(254.8689976 -2.853531349e-16 -3.887501108)
(253.8072971 1.068490807e-16 -2.914202121)
(252.9468547 1.062959128e-19 -2.155275902)
(252.2573904 2.655320044e-16 -1.576520672)
(251.7121355 -5.106276284e-16 -1.143438265)
(251.2868621 4.295364218e-16 -0.8243656659)
(250.9596775 1.442621807e-15 -0.5921442039)
(250.7111707 1.514011675e-16 -0.4246537256)
(250.5245961 -1.269243396e-16 -0.3045855521)
(250.3859266 0 -0.2188088187)
(250.2837412 -1.604483149e-15 -0.1576017988)
(250.2089734 1.491919272e-16 -0.113892844)
(250.1545796 2.246046023e-15 -0.08260340189)
(250.1151812 3.127518589e-15 -0.06011612109)
(250.0867226 4.176339745e-15 -0.04386609554)
(250.0661556 0 -0.03204045007)
(250.0511839 0 -0.02336604418)
(250.0400717 -1.605605305e-15 -0.01694536908)
(250.0315583 1.664866661e-16 -0.01213455696)
(250.0247897 -2.756070267e-16 -0.008613417398)
(250.0193895 -1.820461305e-15 -0.004822039036)
(250.0122245 -5.849501966e-18 -0.004445706015)
(204.6259525 -1.995539207e-19 -19.41937744)
(245.8296538 2.170343002e-16 -22.76654446)
(268.8121255 -3.389258265e-16 -24.89692538)
(287.4790447 1.653269554e-16 -26.74425485)
(305.406483 3.526752629e-19 -28.58666493)
(320.8404494 1.924238385e-16 -30.33563223)
(326.4915193 -1.902428736e-16 -31.03604154)
(326.9503266 1.349548734e-18 -30.97087328)
(326.2060684 -1.469379552e-16 -31.0698973)
(325.8587534 1.239892049e-16 -30.93427738)
(325.3658205 -1.62139341e-18 -31.04443761)
(324.8611377 0 -30.95468313)
(324.2331918 -3.631908691e-21 -31.01439087)
(323.5233221 -3.810767176e-18 -30.97192637)
(322.6786192 3.192640766e-18 -30.99306914)
(321.6939257 3.229398103e-17 -30.97388683)
(320.5335357 -3.606044295e-17 -30.97194166)
(319.1709538 0 -30.95191499)
(317.5694613 6.444235183e-18 -30.92565332)
(315.6908297 -3.275489463e-17 -30.87802796)
(313.4927128 3.658019125e-17 -30.80170452)
(310.931778 1.564533485e-17 -30.67893733)
(307.9671722 0 -30.48652659)
(304.5670232 -2.263560658e-17 -30.19070025)
(300.7184497 0 -29.74626572)
(296.4412613 -3.763561862e-19 -29.09612573)
(291.8034836 2.790003797e-17 -28.17531633)
(286.9318355 4.778183252e-17 -26.92245382)
(282.0065574 -4.094317986e-17 -25.29899271)
(277.2342865 0 -23.30958739)
(272.8061027 0 -21.01210164)
(268.8590436 9.754406259e-19 -18.51021666)
(265.4574861 -7.050855885e-19 -15.93192252)
(262.5981978 3.752538582e-17 -13.4042164)
(260.2310862 -1.589869687e-16 -11.03342106)
(258.2839252 -2.697757671e-17 -8.895048036)
(256.6823566 2.052720613e-16 -7.032167216)
(255.3616567 -2.706552747e-16 -5.459173604)
(254.2708311 2.59984172e-16 -4.16805118)
(253.3715596 2.751555586e-17 -3.135238756)
(252.6348241 -9.238145059e-17 -2.328051735)
(252.0373544 3.884706864e-17 -1.710102419)
(251.5590345 6.543096235e-17 -1.245425796)
(251.1815237 -9.33929629e-16 -0.9012213076)
(250.8878521 -7.37998976e-16 -0.6493290173)
(250.6625328 0 -0.4666980689)
(250.4918242 1.037976604e-15 -0.3351617358)
(250.3639207 0 -0.2408239985)
(250.2689981 0 -0.1733074445)
(250.1991113 0 -0.1249995953)
(250.1479902 -4.189623637e-15 -0.09039005295)
(250.1107842 -1.588521662e-15 -0.06552577603)
(250.0837942 -2.823013344e-15 -0.04758674436)
(250.0642126 -2.494821681e-15 -0.03456908555)
(250.049906 -1.827704002e-15 -0.02505824935)
(250.0392437 0 -0.01805362679)
(250.0310294 0 -0.01283791514)
(250.0244482 1.376021704e-16 -0.009066118086)
(250.0192323 1.809387952e-15 -0.005034348585)
(250.0120748 -1.156412794e-17 -0.004577331554)
(206.4111766 2.121313014e-19 -22.91022884)
(248.4156647 0 -26.9240559)
(271.8895898 1.822599212e-19 -29.46525162)
(291.1743294 -9.702393016e-22 -31.6862296)
(309.4974687 -2.004130845e-16 -33.91934022)
(322.7154455 2.089918856e-16 -35.66224112)
(326.0827123 0 -36.11082173)
(325.6178704 0 -35.97322067)
(325.2012523 1.502660683e-16 -36.09914709)
(324.8181624 2.083425601e-19 -35.95119007)
(324.2755332 -1.057204141e-16 -36.06375292)
(323.7127669 0 -35.96537475)
(323.0148872 2.317081354e-18 -36.01715141)
(322.2221775 6.629800592e-17 -35.96591572)
(321.2796429 -5.553158924e-17 -35.97232731)
(320.1791116 5.49387904e-18 -35.93692956)
(318.8825505 -4.65334928e-18 -35.91094262)
(317.3600829 7.850992304e-18 -35.86064252)
(315.5721694 -5.296660776e-17 -35.7928277)
(313.4777759 -3.847408026e-19 -35.69001179)
(311.033008 8.519545675e-17 -35.5389451)
(308.1952108 -4.792056721e-17 -35.31522954)
(304.928353 0 -34.98639717)
(301.2118901 -2.839643534e-19 -34.50785935)
(297.0535158 1.969328159e-17 -33.82278552)
(292.5047896 3.375721259e-17 -32.86435555)
(287.6749004 0 -31.56466764)
(282.7325345 0 -29.87226403)
(277.886322 -2.150817002e-17 -27.77418038)
(273.3451425 1.812351836e-17 -25.31166206)
(269.2739543 0 -22.57934762)
(265.7648081 -1.32916623e-16 -19.70716994)
(262.8329015 1.357579572e-16 -16.83386812)
(260.433598 -1.91924672e-17 -14.08331195)
(258.4886859 -6.787762716e-19 -11.55014494)
(256.9109457 -2.218482489e-16 -9.29524089)
(255.6210686 -4.446452458e-16 -7.348008765)
(254.5558135 4.137184322e-16 -5.712084732)
(253.669203 -3.328199798e-17 -4.371992821)
(252.9295507 0 -3.299541555)
(252.3149488 -4.733442058e-17 -2.459444861)
(251.8090525 -5.971205151e-16 -1.813951599)
(251.398093 0 -1.326359762)
(251.069273 0 -0.9633693598)
(250.8102558 -7.541373526e-16 -0.6963640984)
(250.609277 0 -0.5018135749)
(250.4554808 -9.265538481e-16 -0.3610528284)
(250.3392293 1.661749783e-15 -0.2596983662)
(250.2522834 -9.261826282e-17 -0.1869245284)
(250.1878319 -2.397532354e-15 -0.1347288484)
(250.1404018 2.193147946e-15 -0.09727631985)
(250.1056961 -3.5459515e-15 -0.07035312115)
(250.0803966 0 -0.05093574308)
(250.0619572 2.373403805e-15 -0.03686460004)
(250.0484241 5.897728841e-15 -0.02660770062)
(250.0382848 0 -0.01907726321)
(250.0304205 1.67317762e-16 -0.01349285312)
(250.0240547 -1.374306793e-16 -0.009489559447)
(250.0190422 1.799635838e-15 -0.005237807789)
(250.0119014 5.871412882e-15 -0.004706649018)
(207.6106124 -9.218804203e-16 -26.50863717)
(250.41731 2.545143754e-16 -31.20246772)
(274.4844859 -2.008690697e-19 -34.2012381)
(294.417495 4.024662011e-19 -36.83359211)
(312.7710632 4.278128738e-19 -39.4581652)
(323.2605011 -2.210644447e-16 -40.96292618)
(324.3265958 2.058287882e-16 -41.20818105)
(324.0542305 0 -41.03649245)
(323.5255708 1.534184176e-16 -41.1890193)
(323.0987986 2.379600727e-19 -41.01970656)
(322.4995391 -1.063140188e-16 -41.12818839)
(321.871151 0 -41.01817603)
(321.0950866 2.383786438e-18 -41.05482856)
(320.2093875 0 -40.98906341)
(319.1573858 -2.461497344e-20 -40.97273038)
(317.927349 0 -40.91236137)
(316.4789503 -3.822077612e-17 -40.85157819)
(314.7788971 -1.517366488e-19 -40.75787931)
(312.7852316 2.028416715e-17 -40.632054)
(310.4551317 4.620100749e-17 -40.45286348)
(307.7451662 -4.848284097e-17 -40.19954342)
(304.6167468 -1.669023495e-17 -39.83921162)
(301.0437298 -2.840330588e-17 -39.32871654)
(297.023814 2.386955169e-17 -38.61207986)
(292.5936221 2.072845338e-17 -37.62212692)
(287.844183 1.807817937e-17 -36.28700596)
(282.9285254 0 -34.54512683)
(278.0503184 -5.211956493e-17 -32.36718784)
(273.4296214 8.920695916e-17 -29.7761634)
(269.2564948 5.718648772e-17 -26.85331597)
(265.652916 1.460366546e-16 -23.72522739)
(262.6583993 1.10602983e-16 -20.53802997)
(260.2404981 0 -17.43054784)
(258.3201892 0 -14.51549097)
(256.7996997 1.003783299e-16 -11.87137751)
(255.5843501 2.551087927e-16 -9.542945083)
(254.5953767 1.916002591e-16 -7.54622471)
(253.7744741 3.234152913e-16 -5.875153285)
(253.0825142 5.463038861e-16 -4.508012489)
(252.495158 4.59989211e-16 -3.413077905)
(251.9976333 -4.837999474e-17 -2.553369969)
(251.5801858 6.908628128e-16 -1.890515104)
(251.2349257 -1.093072592e-15 -1.387689922)
(250.9541356 -5.734283976e-17 -1.011615733)
(250.7297263 8.171645785e-16 -0.7336609308)
(250.5533708 -8.05747509e-17 -0.5301836963)
(250.4169084 6.741911369e-17 -0.382319436)
(250.3127539 -3.608921597e-15 -0.2754325526)
(250.2341931 0 -0.1984290585)
(250.1755227 2.514720982e-15 -0.143050402)
(250.1320616 -2.095002956e-15 -0.1032343585)
(250.1000712 6.969914471e-15 -0.07457585577)
(250.0766236 -1.808346608e-16 -0.05389679442)
(250.0594447 -2.247241985e-15 -0.03891595745)
(250.0467691 -3.838433396e-15 -0.02800747395)
(250.0372118 -3.367802789e-15 -0.0200122951)
(250.0297391 0 -0.01409779653)
(250.023613 0 -0.009883075289)
(250.0188218 -3.582161835e-15 -0.005432385309)
(250.0117074 -5.806321763e-15 -0.004833493932)
(208.2958009 6.773849066e-20 -30.20093544)
(251.953922 -2.7705952e-16 -35.61361785)
(276.6922121 0 -39.11648934)
(297.2385835 4.51890348e-19 -42.20971054)
(314.8346409 -9.39611788e-19 -45.11493805)
(322.4282622 0 -46.21230187)
(322.1896191 -2.125250944e-16 -46.34989554)
(321.7819356 1.842177321e-16 -46.1365976)
(321.2291264 -1.245883556e-18 -46.29268979)
(320.751644 0 -46.1062053)
(320.088742 3.46765793e-18 -46.20586127)
(319.385455 9.274734638e-17 -46.08358634)
(318.5211116 -2.153860659e-18 -46.10002184)
(317.5302881 2.656401204e-19 -46.01506963)
(316.3550694 -5.834430212e-17 -45.96861397)
(314.979775 0 -45.87402213)
(313.3620455 4.863142475e-18 -45.76613812)
(311.4656236 -8.214123941e-18 -45.61276064)
(309.2472043 -2.806256611e-17 -45.40750616)
(306.6640682 1.162444778e-17 -45.12378979)
(303.6762138 2.022283345e-17 -44.73195211)
(300.2534748 4.801216019e-21 -44.1894159)
(296.3855996 0 -43.44194979)
(292.096158 2.509538105e-17 -42.4231492)
(287.4586232 4.289112775e-19 -41.05924617)
(282.6080113 -1.812657619e-17 -39.2813999)
(277.7372673 0 -37.04625203)
(273.070408 1.071717895e-16 -34.35838306)
(268.8176029 -1.140664121e-16 -31.28254257)
(265.1305439 -5.835932969e-17 -27.93706391)
(262.0773869 -1.326838681e-16 -24.47071292)
(259.6445008 1.52273817e-17 -21.03403784)
(257.7583549 -3.609020156e-17 -17.75631058)
(256.314838 -3.065422427e-16 -14.73334812)
(255.2053303 -2.934628101e-16 -12.02538978)
(254.3342827 -1.89515933e-16 -9.661221895)
(253.6277383 3.687693313e-16 -7.64478502)
(253.0346865 3.521316599e-16 -5.961868283)
(252.5238783 -1.132893088e-15 -4.585904232)
(252.0785133 -4.397976556e-16 -3.482737534)
(251.6906725 -2.465885887e-17 -2.614524547)
(251.3566862 -4.148654611e-17 -1.942896591)
(251.0739782 1.113965419e-15 -1.431402416)
(250.8393858 9.056804927e-16 -1.047190365)
(250.6486322 4.895427698e-17 -0.7619553056)
(250.496497 0 -0.552232223)
(250.3772818 -2.195631797e-15 -0.3991951095)
(250.2853012 1.83453034e-15 -0.2881482513)
(250.2152716 -9.570322803e-17 -0.2078795668)
(250.1625449 -1.101230528e-20 -0.14998883)
(250.1232045 1.990547018e-16 -0.1082716699)
(250.094059 -3.638627015e-15 -0.07819377202)
(250.0725679 0 -0.0564669005)
(250.0567305 2.570231725e-15 -0.04071975612)
(250.0449727 -1.247037577e-16 -0.02925474808)
(250.0360417 3.281491742e-15 -0.0208567484)
(250.028993 -2.689031814e-15 -0.01465193405)
(250.0231267 0 -0.01024634356)
(250.0185723 3.567245355e-15 -0.005618041769)
(250.0114913 5.759113683e-15 -0.004957680211)
(208.5059769 -5.213952522e-16 -33.98218534)
(253.1042617 -3.026762836e-16 -40.16029824)
(278.5801623 2.531234353e-16 -44.21921939)
(299.7031692 -4.959532397e-19 -47.83207164)
(315.4739911 -2.576616688e-16 -50.75232222)
(319.6516216 4.863540401e-16 -51.37079084)
(319.360005 -2.178413103e-16 -51.48681797)
(318.9556982 1.470044828e-18 -51.26051088)
(318.3497333 -1.580119602e-16 -51.42590138)
(317.8138329 -3.105417509e-19 -51.21788388)
(317.0796323 1.091908376e-16 -51.29959183)
(316.2914032 -9.783912764e-17 -51.15985644)
(315.327744 7.941856376e-17 -51.1471375)
(314.218701 0 -51.03409927)
(312.905695 -4.950641117e-17 -50.94594721)
(311.3691119 9.506023865e-17 -50.80290114)
(309.5652216 -2.9879756e-17 -50.62985758)
(307.4557781 3.408378021e-17 -50.39360642)
(304.9977046 -2.860295594e-17 -50.07954334)
(302.1508244 -2.471650213e-17 -49.65437694)
(298.8821799 2.059868502e-17 -49.07863003)
(295.1752281 1.782998291e-17 -48.29941548)
(291.0425743 0 -47.25196011)
(286.5416125 0 -45.86224411)
(281.7886439 -4.374626241e-17 -44.05672608)
(276.9616561 -3.816754083e-17 -41.7807545)
(272.281773 0 -39.02173742)
(267.9728365 -1.108887338e-16 -35.82628653)
(264.2135479 -9.539385323e-17 -32.30034075)
(261.102941 2.026770772e-17 -28.59050623)
(258.6519203 1.209784366e-16 -24.85525491)
(256.7991438 -1.015010382e-16 -21.23833164)
(255.4396881 -1.857426758e-16 -17.85220705)
(254.4542065 3.122998488e-16 -14.77272075)
(253.7310198 2.815027364e-16 -12.04171466)
(253.178887 2.376024734e-16 -9.673437925)
(252.7315986 -4.258172083e-16 -7.661616302)
(252.3467955 -3.165394481e-16 -5.985634474)
(252.001468 5.685781695e-16 -4.615458358)
(251.6861478 -2.992692117e-17 -3.515507364)
(251.3992748 8.301492366e-16 -2.647779288)
(251.1426584 4.225586623e-17 -1.974411478)
(250.9184293 2.236572333e-20 -1.45970038)
(250.7274361 -9.808695737e-16 -1.071522507)
(250.5687665 -4.98212113e-17 -0.7821524709)
(250.4399614 -1.453562637e-20 -0.5685187796)
(250.3375335 4.496529968e-15 -0.4120172378)
(250.2575244 0 -0.2980434167)
(250.195968 -9.710405608e-17 -0.2153886347)
(250.1492011 1.617056118e-16 -0.1556057527)
(250.1140303 2.083576363e-15 -0.1124203071)
(250.0877883 0 -0.08122235374)
(250.0683102 0 -0.05865268078)
(250.0538632 -1.524724364e-16 -0.04227818779)
(250.0430632 4.142501588e-15 -0.03034973137)
(250.03479 1.030077592e-16 -0.02161013086)
(250.0281896 2.610431531e-15 -0.0151549654)
(250.0225996 -1.096767694e-15 -0.01057915514)
(250.0182952 -1.777171225e-15 -0.005794639995)
(250.0112533 -5.739980623e-15 -0.005078853818)
(208.2499323 0 -37.84873251)
(253.9313271 6.439554536e-19 -44.85312781)
(280.1487327 0 -49.52914753)
(301.5785719 -2.79109663e-16 -53.66921613)
(314.8423863 7.737020882e-19 -56.3326342)
(316.6819488 5.050465976e-16 -56.55988197)
(316.0138792 -2.231762121e-16 -56.6715009)
(315.5857135 -1.921874835e-16 -56.39162345)
(314.9225143 -2.918522673e-18 -56.55832006)
(314.3189813 1.393837457e-16 -56.33174321)
(313.504531 0 -56.38911223)
(312.6202362 1.000219085e-16 -56.227741)
(311.5455241 -8.637673853e-17 -56.17727893)
(310.3051572 6.8721781e-17 -56.02579)
(308.8406068 -5.033118987e-17 -55.88158591)
(307.12856 0 -55.67134246)
(305.1246236 -1.023650309e-17 -55.40944679)
(302.7896848 -3.505113294e-17 -55.06060687)
(300.082776 -3.196110294e-19 -54.6013086)
(296.9693764 6.272446915e-17 -53.99038224)
(293.4282665 -2.123787968e-17 -53.17787442)
(289.4630592 -1.808422325e-17 -52.10063072)
(285.1170808 1.570373514e-17 -50.68542503)
(280.4884796 -1.321171827e-17 -48.85630198)
(275.7378388 6.915619189e-17 -46.55022702)
(271.0774834 -2.010509737e-17 -43.73957964)
(266.7378532 -8.442865434e-17 -40.45259512)
(262.9199015 8.543283526e-17 -36.77990193)
(259.7533187 7.265636927e-17 -32.8614317)
(257.2776982 -1.05065297e-17 -28.85942598)
(255.4502668 -1.052520004e-16 -24.92943103)
(254.1715464 -1.199885171e-16 -21.19947254)
(253.31605 1.890642701e-16 -17.76093497)
(252.7582567 1.71247381e-16 -14.66902914)
(252.3896714 0 -11.94860314)
(252.1270007 0 -9.601517696)
(251.9135183 -4.097085412e-16 -7.613388091)
(251.7160514 3.44788658e-16 -5.958908112)
(251.5196916 5.981208653e-16 -4.605829202)
(251.3218259 -5.027857506e-16 -3.517999907)
(251.126635 -1.612160047e-15 -2.65782389)
(250.940762 6.662344683e-16 -1.988322395)
(250.7704378 1.189809624e-15 -1.474809262)
(250.6199926 -3.020635895e-17 -1.086100353)
(250.4914424 0 -0.795228268)
(250.3847499 4.233825551e-17 -0.5796708842)
(250.2983866 -2.299188205e-15 -0.4211815012)
(250.2299423 5.904709545e-17 -0.3053624834)
(250.176647 -4.919983534e-17 -0.2211039122)
(250.1357424 0 -0.1599880623)
(250.104708 0 -0.1157297865)
(250.0813701 1.127116841e-16 -0.08368865163)
(250.0639212 2.981921703e-15 -0.06046806855)