/*--------------------------------*- C++ -*----------------------------------*\
  =========                 |
  \\      /  F ield         | OpenFOAM: The Open Source CFD Toolbox
   \\    /   O peration     | Website:  https://openfoam.org
    \\  /    A nd           | Version:  12
     \\/     M anipulation  |
\*---------------------------------------------------------------------------*/
FoamFile
{
    format      ascii;
    class       volScalarField;
    location    "650";
    object      alphat;
}
// * * * * * * * * * * * * * * * * * * * * * * * * * * * * * * * * * * * * * //

dimensions      [1 -1 -1 0 0 0 0];

internalField   nonuniform List<scalar> 
16200
(
0.0004836384757
0.001646397474
0.002740491543
0.003596000437
0.003868579785
0.003418475814
0.002525177864
0.001391211264
0.0007126915491
0.0002030072855
6.3037883e-06
2.697442527e-06
2.444901169e-06
2.409735449e-06
1.899049199e-06
1.636218527e-06
1.427764586e-06
1.28109641e-06
1.186358468e-06
1.12576505e-06
1.091483335e-06
1.080511089e-06
1.089815846e-06
1.117543618e-06
1.163257279e-06
1.228212354e-06
1.31577984e-06
1.432146788e-06
1.587746545e-06
1.800099755e-06
2.099061696e-06
2.536672564e-06
3.206199263e-06
4.281694307e-06
6.106893026e-06
9.397019542e-06
1.569752213e-05
2.842154511e-05
5.521030447e-05
0.0001133645966
0.0002424967314
0.0005341712524
0.001164195206
0.00116566893
0.001166053326
0.001165544445
0.001164542272
0.001164260022
0.001164267751
0.001164367551
0.001164482322
0.001164586562
0.001164675854
0.001164754119
0.00116482808
0.001164907239
0.001165000551
0.001165128314
0.001165296306
0.001165573115
0.0004726763492
0.00159588763
0.002627279241
0.003382627082
0.003492789734
0.002927742318
0.002052748402
0.00102026758
0.0005630602231
4.455845958e-05
2.761319493e-06
2.253052135e-06
2.052261388e-06
2.01681907e-06
1.689166091e-06
1.451957726e-06
1.263578512e-06
1.131184359e-06
1.04743218e-06
9.951833484e-07
9.669677547e-07
9.59725888e-07
9.704998807e-07
9.974155063e-07
1.039990234e-06
1.099337413e-06
1.178587125e-06
1.283568635e-06
1.424149618e-06
1.616759332e-06
1.888938072e-06
2.287979476e-06
2.897995901e-06
3.875469913e-06
5.528921673e-06
8.499602884e-06
1.417258071e-05
2.560667115e-05
4.964722408e-05
0.0001017870777
0.0002174847595
0.0004786989723
0.001076438448
0.0011655143
0.001165945782
0.001165560515
0.00116454925
0.00116426132
0.00116426865
0.001164370271
0.001164487452
0.001164593927
0.001164685017
0.001164764442
0.00116483919
0.001164918166
0.001165011356
0.001165137943
0.001165305905
0.001165586218
0.0004632639946
0.001548912736
0.002519393005
0.003174373501
0.003125881848
0.002472905085
0.001587105274
0.0007460207462
0.0003796844283
1.447646128e-05
2.127041453e-06
1.885904516e-06
1.723200176e-06
1.689247469e-06
1.49139781e-06
1.279261336e-06
1.110974236e-06
9.9277372e-07
9.195945631e-07
8.751000322e-07
8.522103996e-07
8.477878886e-07
8.589329951e-07
8.837829003e-07
9.218887159e-07
9.743751158e-07
1.044355398e-06
1.137603676e-06
1.263797924e-06
1.438699662e-06
1.688002701e-06
2.05486744e-06
2.615311063e-06
3.510467244e-06
5.018473107e-06
7.716832712e-06
1.285128717e-05
2.316826272e-05
4.479919745e-05
9.158315284e-05
0.0001951042277
0.0004281910352
0.000960213075
0.001165440048
0.001165877378
0.001165582789
0.001164568039
0.00116427342
0.001164277794
0.001164378733
0.001164496329
0.001164603607
0.001164695504
0.001164775502
0.001164850614
0.001164929349
0.001165022274
0.001165147863
0.001165315803
0.00116559972
0.0004562005562
0.001505536208
0.002413484888
0.002934805202
0.002755322517
0.00206092479
0.001132718025
0.0005506197835
0.0001895816072
5.355476265e-06
1.770469031e-06
1.593674411e-06
1.461070594e-06
1.428770992e-06
1.3180811e-06
1.127515658e-06
9.767436922e-07
8.710705861e-07
8.070853592e-07
7.692203949e-07
7.507166069e-07
7.48369213e-07
7.593803749e-07
7.820397747e-07
8.1610165e-07
8.628969115e-07
9.257385791e-07
1.010598523e-06
1.127242048e-06
1.291074956e-06
1.526445501e-06
1.87343619e-06
2.402210849e-06
3.243239812e-06
4.654210523e-06
7.170466571e-06
1.194648409e-05
2.152536802e-05
4.15766307e-05
8.487297432e-05
0.0001805087701
0.0003954554189
0.000885231052
0.001165460068
0.001165862278
0.001165610477
0.001164601048
0.001164299555
0.00116429821
0.001164395411
0.001164510842
0.001164616972
0.001164708284
0.001164787945
0.001164862799
0.001164941039
0.001165033467
0.001165158116
0.001165325879
0.001165612893
0.000450083758
0.001464839867
0.00231058932
0.0026973431
0.002396364994
0.001703880958
0.0008124971829
0.0004201052163
4.56970654e-05
2.066595361e-06
1.491020526e-06
1.349791863e-06
1.241968035e-06
1.212192348e-06
1.159555839e-06
9.892729316e-07
8.550393085e-07
7.612380083e-07
7.057166849e-07
6.737435977e-07
6.589621393e-07
6.582241933e-07
6.689588991e-07
6.897398872e-07
7.206145908e-07
7.632079307e-07
8.211445783e-07
9.007034031e-07
1.011788209e-06
1.169473641e-06
1.39692869e-06
1.731698524e-06
2.239271754e-06
3.041797635e-06
4.381296334e-06
6.761000157e-06
1.126542791e-05
2.028004934e-05
3.911175498e-05
7.96858663e-05
0.0001690966937
0.0003695618332
0.0008252563344
0.001165550977
0.00116588855
0.001165642768
0.001164644976
0.00116433633
0.00116432711
0.001164418222
0.00116452951
0.001164633004
0.001164722682
0.001164801323
0.00116487548
0.001164953051
0.001165044869
0.001165168666
0.00116533624
0.001165626157
0.0004445731656
0.001426214736
0.002208515345
0.00245878443
0.002047742458
0.001340048877
0.0006020383982
0.0002920350795
1.708470627e-05
1.543760707e-06
1.264549301e-06
1.14947318e-06
1.061387577e-06
1.033877281e-06
1.01736172e-06
8.651784736e-07
7.458176947e-07
6.628459921e-07
6.149342891e-07
5.882367929e-07
5.768417497e-07
5.77721294e-07
5.885655203e-07
6.082628388e-07
6.371919712e-07
6.773573058e-07
7.328002299e-07
8.101557058e-07
9.194472152e-07
1.075456402e-06
1.300464717e-06
1.630205006e-06
2.126860488e-06
2.906812955e-06
4.201566002e-06
6.493200071e-06
1.082005819e-05
1.946234387e-05
3.748116338e-05
7.621888293e-05
0.0001613746868
0.0003518083115
0.0007835935679
0.001165700596
0.001165951568
0.001165676037
0.001164697151
0.001164382018
0.001164363451
0.001164446568
0.001164552012
0.001164651542
0.001164738631
0.001164815613
0.001164888668
0.00116496539
0.001165056504
0.001165179513
0.00116534688
0.001165639428
0.0004390377838
0.001388699179
0.002105415985
0.002209138423
0.001716956329
0.0009818767176
0.0004517869385
0.0001744835622
5.93480826e-06
1.27714068e-06
1.076392783e-06
9.812949015e-07
9.087956783e-07
8.835274582e-07
8.877170464e-07
7.524243448e-07
6.470980449e-07
5.746402738e-07
5.341350919e-07
5.126503872e-07
5.047180051e-07
5.074592779e-07
5.188645785e-07
5.382101587e-07
5.663033285e-07
6.054062752e-07
6.604189865e-07
7.380531084e-07
8.483611179e-07
1.005856191e-06
1.232768361e-06
1.562755379e-06
2.056122314e-06
2.825328464e-06
4.095046952e-06
6.334061528e-06
1.055151693e-05
1.895936142e-05
3.645460822e-05
7.397980791e-05
0.0001562545235
0.0003397327118
0.0007545819001
0.00116589244
0.001166043194
0.001165717923
0.001164755126
0.001164434408
0.001164405565
0.001164479297
0.001164577591
0.001164672112
0.001164755849
0.001164830654
0.001164902283
0.001164978009
0.001165068363
0.001165190653
0.001165357823
0.001165652772
0.0004327036827
0.001350473298
0.001997951698
0.001954129838
0.001419652375
0.0007122330118
0.0003496565775
5.758848358e-05
2.35980286e-06
1.075727009e-06
9.165728579e-07
8.378230204e-07
7.783223565e-07
7.557837076e-07
7.70494795e-07
6.513333043e-07
5.594469537e-07
4.972263013e-07
4.63878895e-07
4.474067966e-07
4.428129524e-07
4.474443558e-07
4.596813567e-07
4.792816339e-07
5.073530048e-07
5.472514576e-07
6.035950092e-07
6.834974222e-07
7.970436175e-07
9.586379183e-07
1.189644499e-06
1.524720901e-06
2.021283435e-06
2.789931723e-06
4.051688354e-06
6.268884354e-06
1.043636675e-05
1.873044389e-05
3.595626846e-05
7.281895189e-05
0.000153427887
0.0003326801789
0.0007367999023
0.001166112437
0.001166155206
0.001165768673
0.001164816618
0.001164491518
0.001164451988
0.001164515412
0.001164605608
0.001164694324
0.001164774109
0.001164846323
0.001164916269
0.001164990883
0.001165080446
0.001165202083
0.001165369077
0.001165666197
0.000425673766
0.001309459803
0.001863422704
0.001696775502
0.001141334112
0.0005274364922
0.0002653945361
3.334934763e-05
1.455895287e-06
9.107049428e-07
7.838851791e-07
7.178890937e-07
6.689208745e-07
6.490027892e-07
6.672931477e-07
5.627839583e-07
4.831713578e-07
4.304308328e-07
4.03637754e-07
3.917254886e-07
3.901978071e-07
3.967019908e-07
4.098389136e-07
4.303574035e-07
4.597893837e-07
5.014532917e-07
5.604561126e-07
6.440579252e-07
7.624131861e-07
9.299764186e-07
1.168128104e-06
1.511199469e-06
2.016212468e-06
2.792584074e-06
4.06024646e-06
6.280634023e-06
1.044642222e-05
1.872476687e-05
3.588746391e-05
7.253338422e-05
0.000152459771
0.0003296906997
0.0007280860207
0.001166347988
0.0011662795
0.001165823203
0.001164879819
0.001164551584
0.001164501336
0.001164553937
0.001164635417
0.001164717772
0.001164793172
0.001164862489
0.001164930563
0.001165003984
0.001165092749
0.001165213804
0.001165380652
0.001165679721
0.0004177794646
0.001265352336
0.001711253148
0.001443472206
0.0008447804171
0.0003968259201
0.0001878024742
1.774937737e-05
1.123321041e-06
7.746909619e-07
6.726501595e-07
6.169962556e-07
5.764662221e-07
5.590247952e-07
5.765183626e-07
4.852657247e-07
4.168471868e-07
3.728941272e-07
3.521344508e-07
3.444290707e-07
3.457958175e-07
3.539869246e-07
3.688623269e-07
3.9088823e-07
4.222276302e-07
4.665532523e-07
5.291860975e-07
6.175224729e-07
7.41859671e-07
9.1685838e-07
1.164156471e-06
1.518147252e-06
2.036024536e-06
2.827107116e-06
4.112417714e-06
6.357260252e-06
1.056257096e-05
1.890914182e-05
3.618571601e-05
7.299765374e-05
0.0001530859893
0.000330188723
0.0007271565749
0.001166588911
0.001166409398
0.001165877216
0.001164943272
0.001164613116
0.001164552417
0.001164594013
0.001164666442
0.001164742095
0.001164812824
0.001164879034
0.00116494511
0.001165017288
0.00116510527
0.001165225822
0.001165392554
0.001165693356
0.0004088706742
0.001217776418
0.001547876297
0.001202931082
0.0006117235635
0.0003044221083
0.0001236881822
1.193260503e-05
9.212396065e-07
6.60683335e-07
5.784851911e-07
5.312459661e-07
4.975349509e-07
4.823850633e-07
4.965426888e-07
4.174208769e-07
3.593670098e-07
3.23671808e-07
3.085403392e-07
3.047521211e-07
3.085639936e-07
3.190252269e-07
3.356506783e-07
3.595895428e-07
3.934073373e-07
4.410431579e-07
5.07996696e-07
6.018238013e-07
7.3304206e-07
9.166491271e-07
1.174734149e-06
1.542073197e-06
2.076492301e-06
2.888137731e-06
4.200991683e-06
6.488330413e-06
1.076834075e-05
1.925506804e-05
3.679744498e-05
7.410409594e-05
0.000155079289
0.00033367753
0.0007328993062
0.001166827223
0.001166539553
0.001165927183
0.00116500589
0.001164674914
0.001164604228
0.001164634903
0.001164698181
0.001164766968
0.00116483287
0.001164895853
0.001164959858
0.001165030773
0.001165118009
0.001165238137
0.001165404789
0.001165707113
0.0003986316365
0.001165802774
0.001379745766
0.0009638127571
0.0004614079611
0.0002390516774
5.922103155e-05
6.581632072e-06
7.488951596e-07
5.654738721e-07
4.985676919e-07
4.58314341e-07
4.301386385e-07
4.171822816e-07
4.267983853e-07
3.587567537e-07
3.102581834e-07
2.822224697e-07
2.722179956e-07
2.716666123e-07
2.782614723e-07
2.906978749e-07
3.091800631e-07
3.353493811e-07
3.720763159e-07
4.23497419e-07
4.952753888e-07
5.951625036e-07
7.339694411e-07
9.271366645e-07
1.197361718e-06
1.580072057e-06
2.134116742e-06
2.971280765e-06
4.320156548e-06
6.665623962e-06
1.105107704e-05
1.974116601e-05
3.768323249e-05
7.577462477e-05
0.000158276411
0.0003398023066
0.0007445219961
0.001167057004
0.001166665905
0.001165970362
0.001165066882
0.00116473604
0.001164655961
0.001164675996
0.001164730209
0.001164792118
0.001164853144
0.001164912851
0.001164974762
0.001165044424
0.001165130963
0.001165250749
0.00116541736
0.001165721
0.0003867138509
0.0011070526
0.001205707685
0.0007316152795
0.0003587884398
0.0001856366159
3.017932891e-05
3.35505094e-06
6.100152039e-07
4.854095267e-07
4.307048308e-07
3.964682996e-07
3.729492438e-07
3.621029924e-07
3.66785405e-07
3.086977538e-07
2.688575829e-07
2.477537115e-07
2.422623641e-07
2.447528777e-07
2.53678055e-07
2.67979609e-07
2.884535015e-07
3.171260826e-07
3.570984058e-07
4.126611968e-07
4.896376185e-07
5.960161964e-07
7.429676404e-07
9.464611084e-07
1.229930668e-06
1.629682761e-06
2.205930481e-06
3.07282034e-06
4.465042118e-06
6.882351075e-06
1.140050848e-05
2.035037339e-05
3.881205343e-05
7.794839851e-05
0.0001625509884
0.0003482894464
0.0007614147037
0.001167274082
0.001166785515
0.001166004728
0.001165125697
0.001164795789
0.001164706987
0.001164716806
0.00116476218
0.001164817315
0.001164873504
0.001164929952
0.001164989786
0.001165058227
0.001165144134
0.001165263653
0.001165430269
0.001165735024
0.0003735247333
0.001040533317
0.001029598459
0.0005501186536
0.0002811507714
0.0001393007091
1.841295216e-05
1.854151579e-06
5.038835489e-07
4.173411039e-07
3.737186165e-07
3.443486862e-07
3.245218794e-07
3.154653198e-07
3.152297496e-07
2.660595274e-07
2.340890842e-07
2.192319798e-07
2.173113293e-07
2.22892411e-07
2.33826014e-07
2.499802893e-07
2.726125467e-07
3.040297642e-07
3.475060421e-07
4.074681395e-07
4.899124673e-07
6.031013362e-07
7.586237223e-07
9.730483684e-07
1.270733294e-06
1.688815983e-06
2.289423265e-06
3.189638759e-06
4.631620228e-06
7.133010266e-06
1.18085149e-05
2.106953102e-05
4.016048863e-05
8.058024888e-05
0.0001678102962
0.0003589396427
0.0007831348651
0.00116747572
0.001166896375
0.001166030425
0.001165181975
0.001164853657
0.001164756832
0.001164756954
0.001164793821
0.001164842375
0.001164893837
0.00116494709
0.001165004899
0.001165072171
0.001165157521
0.001165276845
0.00116544352
0.001165749189
0.0003600477144
0.0009684554057
0.0008385959915
0.0004258121432
0.0002293263245
0.0001017325928
1.29529914e-05
1.077935282e-06
4.20395649e-07
3.58905279e-07
3.238818934e-07
2.993292547e-07
2.825721291e-07
2.752009921e-07
2.706136747e-07
2.296879223e-07
2.050084778e-07
1.957724153e-07
1.972822832e-07
2.052040346e-07
2.179563727e-07
2.360090806e-07
2.609652592e-07
2.95323321e-07
3.424844573e-07
4.070118279e-07
4.95102437e-07
6.153249658e-07
7.797321408e-07
1.005552077e-06
1.318055602e-06
1.755686721e-06
2.38246138e-06
3.319109021e-06
4.816543432e-06
7.41311999e-06
1.22686428e-05
2.188844896e-05
4.171082882e-05
8.363667173e-05
0.0001739865145
0.0003716084416
0.0008093633651
0.001167660308
0.001166997131
0.001166054061
0.001165235506
0.001164909301
0.001164805159
0.001164796161
0.001164824922
0.001164867153
0.00116491405
0.001164964214
0.001165020075
0.001165086249
0.001165171126
0.001165290326
0.001165457122
0.001165763497
0.0003468270155
0.000888811648
0.0006842294668
0.0003517945607
0.0001947668395
5.725421543e-05
8.489217339e-06
6.806498261e-07
3.537945716e-07
3.083702413e-07
2.800608258e-07
2.597982127e-07
2.461490743e-07
2.404442386e-07
2.322976205e-07
1.989924993e-07
1.809993289e-07
1.763319205e-07
1.811297076e-07
1.91013032e-07
2.054999968e-07
2.255280966e-07
2.529428837e-07
2.903720732e-07
3.413213929e-07
4.105016934e-07
5.043407093e-07
6.317404429e-07
8.05250247e-07
1.042809757e-06
1.370687575e-06
1.828770596e-06
2.483238852e-06
3.459033412e-06
5.017056866e-06
7.719076216e-06
1.277585319e-05
2.279942873e-05
4.345011674e-05
8.709381904e-05
0.0001810323753
0.000386196576
0.0008398827267
0.001167827093
0.001167086605
0.001166075807
0.001165286187
0.001164962507
0.001164851736
0.001164834226
0.001164855327
0.00116489154
0.001164934072
0.001164981283
0.001165035296
0.001165100454
0.001165184948
0.001165304095
0.001165471076
0.001165777947
0.0003364136358
0.0008006103968
0.000560808633
0.000296527425
0.0001641434135
3.199538386e-05
4.099223441e-06
4.684987535e-07
3.006101802e-07
2.65674203e-07
2.426587118e-07
2.257581703e-07
2.147435863e-07
2.106716291e-07
1.9971946e-07
1.733929299e-07
1.614432857e-07
1.610286617e-07
1.681971796e-07
1.798010806e-07
1.960085416e-07
2.180879289e-07
2.480478795e-07
2.886054768e-07
3.433797365e-07
4.172425732e-07
5.168718861e-07
6.515260954e-07
8.342766346e-07
1.083829251e-06
1.42750374e-06
1.9067785e-06
2.590244379e-06
3.607595948e-06
5.230923934e-06
8.048027365e-06
1.332629698e-05
2.379683511e-05
4.536928736e-05
9.093569451e-05
0.0001889172439
0.0004026412295
0.0008745572776
0.00116797597
0.001167164096
0.00116609582
0.001165333999
0.001165013162
0.001164896423
0.001164871014
0.001164884928
0.001164915455
0.001164953851
0.001164998266
0.001165050547
0.001165114783
0.001165198984
0.001165318153
0.001165485378
0.001165792539
0.0003320492924
0.0007067781887
0.0004684152059
0.0002506794725
0.0001345405455
1.929697165e-05
1.988720772e-06
3.450804965e-07
2.57055304e-07
2.293627564e-07
2.104713584e-07
1.963505076e-07
1.873921214e-07
1.849001139e-07
1.72116841e-07
1.522932571e-07
1.454443389e-07
1.489002607e-07
1.579861261e-07
1.711657561e-07
1.890977176e-07
2.132729992e-07
2.45808334e-07
2.894957759e-07
3.480843022e-07
4.266177322e-07
5.320323349e-07
6.739642595e-07
8.660317e-07
1.127736211e-06
1.48755171e-06
1.988633443e-06
2.702231728e-06
3.763321249e-06
5.456364655e-06
8.397774331e-06
1.391714021e-05
2.487676913e-05
4.746251752e-05
9.515279434e-05
0.0001976241705
0.0004209094747
0.0009133182891
0.00116810729
0.001167229273
0.001166114236
0.001165378982
0.001165061229
0.001164939144
0.001164906444
0.001164913652
0.001164938844
0.001164973348
0.00116501514
0.001165065816
0.001165129231
0.001165213236
0.001165332501
0.0011655
0.001165807269
0.0003368259413
0.0006119350642
0.0003857763656
0.0002167949894
0.0001074342332
1.282861541e-05
9.82161706e-07
2.696523309e-07
2.202563811e-07
1.979050306e-07
1.824079986e-07
1.707574908e-07
1.63672749e-07
1.626425524e-07
1.490996005e-07
1.353338791e-07
1.332563412e-07
1.394357585e-07
1.500975305e-07
1.647575748e-07
1.844117321e-07
2.106903476e-07
2.457848466e-07
2.925725755e-07
3.549319772e-07
4.380901085e-07
5.492477854e-07
6.984381479e-07
8.998490494e-07
1.173821481e-06
1.550041575e-06
2.073453632e-06
2.818193902e-06
3.925036206e-06
5.691998391e-06
8.766681397e-06
1.454641662e-05
2.603680668e-05
4.972673021e-05
9.974111086e-05
0.0002071477887
0.0004409936812
0.0009561536921
0.001168221708
0.001167282082
0.001166131182
0.001165421217
0.001165106728
0.001164979877
0.001164940475
0.001164941456
0.001164961668
0.001164992537
0.001165031889
0.001165081096
0.001165143797
0.001165227705
0.001165347141
0.001165514925
0.00116582213
0.0003520706138
0.0005242582475
0.0003320482906
0.0001956254023
6.332819775e-05
9.019749996e-06
5.153667507e-07
2.19482257e-07
1.891760365e-07
1.70974883e-07
1.583365621e-07
1.488817862e-07
1.434917213e-07
1.438337702e-07
1.3040081e-07
1.221260586e-07
1.239762413e-07
1.321538603e-07
1.441574767e-07
1.602399273e-07
1.816061728e-07
2.099685998e-07
2.475801787e-07
2.974169634e-07
3.634782687e-07
4.511872137e-07
5.680189095e-07
7.244197224e-07
9.351714035e-07
1.221489999e-06
1.614332525e-06
2.160535922e-06
2.937341444e-06
4.091840143e-06
5.936800475e-06
9.153608235e-06
1.521291193e-05
2.727578425e-05
5.216116854e-05
0.0001047012347
0.0002174923558
0.0004629071436
0.001003098448
0.001168320065
0.001167322665
0.001166146771
0.001165460816
0.001165149716
0.001165018637
0.001164973098
0.00116496832
0.001164983908
0.0011650114
0.001165048502
0.00116509638
0.001165158478
0.001165242394
0.001165362074
0.001165530137
0.001165837115
0.0003757199137
0.0004943032395
0.00029383648
0.0001782345268
3.429089019e-05
3.776246998e-06
3.017583645e-07
1.840503292e-07
1.634324386e-07
1.484447123e-07
1.381122114e-07
1.305054152e-07
1.266404348e-07
1.280750215e-07
1.155646206e-07
1.119440953e-07
1.16957768e-07
1.266172664e-07
1.398336401e-07
1.573116402e-07
1.803716981e-07
2.107798634e-07
2.508514103e-07
3.036621222e-07
3.733369107e-07
4.655031507e-07
5.879230495e-07
7.514698571e-07
9.715427331e-07
1.270265537e-06
1.679921387e-06
2.249338371e-06
3.059077804e-06
4.263071127e-06
6.190055916e-06
9.557843531e-06
1.591606156e-05
2.859362801e-05
5.476708461e-05
0.0001100377482
0.0002286704925
0.0004866813715
0.001054228829
0.00116840331
0.00116735129
0.00116616111
0.001165497906
0.00116519028
0.001165055467
0.001165004324
0.001164994241
0.001165005554
0.001165029929
0.001165064973
0.001165111665
0.001165173273
0.001165257301
0.001165377293
0.001165545612
0.001165852219
0.0004042154437
0.0004378026351
0.0002680045963
0.0001603532003
1.883775906e-05
1.460570105e-06
2.048291143e-07
1.573006765e-07
1.420170592e-07
1.295540462e-07
1.210513909e-07
1.150531658e-07
1.125384919e-07
1.139019051e-07
1.040336881e-07
1.045096608e-07
1.116448197e-07
1.224829749e-07
1.368570292e-07
1.557136781e-07
1.804352336e-07
2.128346356e-07
2.552932712e-07
3.109848221e-07
3.841725352e-07
4.806926549e-07
6.08607041e-07
7.792287871e-07
1.008596221e-06
1.319772149e-06
1.746418157e-06
2.339448533e-06
3.182958562e-06
4.438253264e-06
6.451289307e-06
9.979007072e-06
1.665580355e-05
2.999111359e-05
5.754731537e-05
0.0001157584234
0.0002407015845
0.00051236272
0.001109654702
0.00116847244
0.001167368297
0.001166174296
0.001165532623
0.001165228522
0.001165090427
0.001165034184
0.001165019229
0.001165026606
0.00116504812
0.001165081297
0.001165126947
0.001165188179
0.001165272425
0.001165392773
0.001165561307
0.001165867433
0.0004387240475
0.0004092461157
0.0002573166011
0.0001399042691
1.111186031e-05
5.334335999e-07
1.593417584e-07
1.357858358e-07
1.23802011e-07
1.134192186e-07
1.065306137e-07
1.019763231e-07
1.005250687e-07
1.004433398e-07
9.530834822e-08
9.904494371e-08
1.076443555e-07
1.195084365e-07
1.350126534e-07
1.552200063e-07
1.815533681e-07
2.158742689e-07
2.606336296e-07
3.191054525e-07
3.957004619e-07
4.964694905e-07
6.297846857e-07
8.074118222e-07
1.046048936e-06
1.369727465e-06
1.813537893e-06
2.430573807e-06
3.308679861e-06
4.617082296e-06
6.720245849e-06
1.041702221e-05
1.74325337e-05
3.146978365e-05
6.050611463e-05
0.0001218738526
0.000253610938
0.000540010346
0.001169511694
0.001168528459
0.00116737405
0.001166186421
0.001165565108
0.001165264556
0.00116512359
0.001165062716
0.001165043301
0.00116504707
0.001165065973
0.001165097472
0.001165142222
0.001165203194
0.001165287762
0.001165408489
0.001165577181
0.001165882742
0.0004764160952
0.0004019437763
0.000255881187
9.570281073e-05
5.627899799e-06
2.19715867e-07
1.335227138e-07
1.177532277e-07
1.080945481e-07
9.972535988e-08
9.409845896e-08
9.0758112e-08
9.037401266e-08
8.989865658e-08
8.892631195e-08
9.497509584e-08
1.046960326e-07
1.175088629e-07
1.34112137e-07
1.556250339e-07
1.835061052e-07
2.196687371e-07
2.666362924e-07
3.277872356e-07
4.076856252e-07
5.126034399e-07
6.512326099e-07
8.358040191e-07
1.08369495e-06
1.419934271e-06
1.881090618e-06
2.52252931e-06
3.436063552e-06
4.799406713e-06
6.996866139e-06
1.087207934e-05
1.824704717e-05
3.303184312e-05
6.364894487e-05
0.0001283970089
0.0002674288062
0.0005696940666
0.001169666037
0.00116857236
0.001167368895
0.001166197573
0.001165595499
0.001165298497
0.001165155034
0.001165089968
0.001165066483
0.001165066957
0.001165083491
0.001165113498
0.001165157487
0.001165218316
0.001165303304
0.001165424411
0.001165593271
0.001165898117
0.0005334470938
0.000411008786
0.0002599734752
4.72908759e-05
1.548058005e-06
1.37374026e-07
1.150878693e-07
1.02804571e-07
9.491548128e-08
8.796846123e-08
8.348092365e-08
8.132087175e-08
8.199810734e-08
8.200439441e-08
8.440087478e-08
9.20130784e-08
1.02616697e-07
1.163269358e-07
1.339857436e-07
1.567456507e-07
1.861019864e-07
2.240219055e-07
2.731043619e-07
3.368357235e-07
4.199387055e-07
5.289125078e-07
6.727779219e-07
8.642427799e-07
1.121382241e-06
1.470251083e-06
1.948944651e-06
2.615192803e-06
3.565001853e-06
4.985159248e-06
7.281198764e-06
1.134451855e-05
1.910036929e-05
3.467989599e-05
6.698203951e-05
0.0001353424719
0.0002821889528
0.0006014915575
0.001169743214
0.001168605112
0.001167353126
0.001166207831
0.001165623932
0.001165330461
0.001165184842
0.00116511599
0.001165088802
0.00116508628
0.001165100679
0.001165129374
0.00116517274
0.001165233541
0.001165319043
0.001165440515
0.001165609635
0.001165913524
0.0005895857801
0.0004112926694
0.0002578712589
2.248532983e-05
3.788929247e-07
1.123454119e-07
1.006056928e-07
9.043020139e-08
8.375183348e-08
7.80194161e-08
7.459439792e-08
7.357111302e-08
7.527663293e-08
7.637702532e-08
8.1236273e-08
8.989049186e-08
1.012530764e-07
1.158147771e-07
1.344763094e-07
1.584179246e-07
1.891746189e-07
2.287675492e-07
2.798747336e-07
3.460937385e-07
4.323107522e-07
5.452576891e-07
6.942928174e-07
8.926124113e-07
1.159007399e-06
1.520586987e-06
2.017021588e-06
2.708499552e-06
3.695451626e-06
5.174349479e-06
7.573389225e-06
1.183481102e-05
1.999372028e-05
3.641687215e-05
7.051223966e-05
0.0001427260506
0.0002979277744
0.0006354864236
0.001169806463
0.001168627664
0.001167326953
0.001166217268
0.001165650534
0.001165360562
0.001165213093
0.001165140833
0.001165110288
0.001165105055
0.001165117543
0.001165145101
0.001165187976
0.001165248864
0.001165334964
0.001165456782
0.001165626274
0.001165928938
0.0006453114911
0.000407023373
0.0002461145945
1.134350214e-05
1.49110342e-07
9.769560068e-08
8.853660576e-08
8.007211331e-08
7.435947951e-08
6.966937183e-08
6.726156525e-08
6.734341014e-08
7.002407457e-08
7.251818189e-08
7.901639686e-08
8.841673607e-08
1.004710355e-07
1.158364317e-07
1.354436413e-07
1.605005369e-07
1.925838588e-07
2.337696816e-07
2.868178535e-07
3.554407973e-07
4.446923718e-07
5.615426202e-07
7.156949672e-07
9.208457257e-07
1.1965192e-06
1.570907753e-06
2.085305602e-06
2.802455247e-06
3.827451508e-06
5.367085705e-06
7.873707359e-06
1.234359287e-05
2.0928556e-05
3.824606984e-05
7.424701644e-05
0.0001505647151
0.0003146839364
0.0006717669512
0.001169856913
0.001168640948
0.001167290501
0.001166225954
0.001165675427
0.001165388908
0.001165239868
0.001165164551
0.001165130972
0.001165123297
0.001165134091
0.001165160679
0.001165203191
0.001165264281
0.001165351053
0.001165473195
0.001165643182
0.001165944323
0.0006793200418
0.0004018603437
0.0002216680865
6.753540987e-06
1.129239889e-07
8.586112693e-08
7.842601787e-08
7.133722691e-08
6.64298668e-08
6.268820911e-08
6.129859257e-08
6.245162161e-08
6.602515126e-08
6.991759893e-08
7.745536904e-08
8.745560181e-08
1.001535869e-07
1.162734002e-07
1.367684013e-07
1.628757951e-07
1.962147647e-07
2.389188014e-07
2.938313298e-07
3.647836007e-07
4.570004948e-07
5.776957754e-07
7.369249148e-07
9.488958742e-07
1.233884093e-06
1.621193886e-06
2.153792531e-06
2.897074286e-06
3.961046548e-06
5.563481252e-06
8.18242632e-06
1.287149908e-05
2.19063224e-05
4.01707643e-05
7.819380421e-05
0.0001588754018
0.0003324961375
0.000710421748
0.001169895592
0.001168645899
0.001167256289
0.00116623395
0.001165698724
0.001165415601
0.001165265244
0.001165187193
0.001165150885
0.001165141023
0.001165150327
0.001165176106
0.00116521838
0.001165279784
0.001165367291
0.001165489735
0.001165660349
0.001165959632
0.0006775110312
0.0004029613561
0.0001862132076
2.656948349e-06
9.37023589e-08
7.604823669e-08
6.99002118e-08
6.392726794e-08
5.972633104e-08
5.690109256e-08
5.654498779e-08
5.869926287e-08
6.303953224e-08
6.815179467e-08
7.63714899e-08
8.689806069e-08
1.001967713e-07
1.170221012e-07
1.383494029e-07
1.654468111e-07
1.999759205e-07
2.441312441e-07
3.008409601e-07
3.74058637e-07
4.6918319e-07
5.936774308e-07
7.579557546e-07
9.767490535e-07
1.271102094e-06
1.671460047e-06
2.222513185e-06
2.99240743e-06
4.09632056e-06
5.763692008e-06
8.499866106e-06
1.34192143e-05
2.292851296e-05
4.219426467e-05
8.236002673e-05
0.0001676749108
0.0003514026204
0.0007515381684
0.001169923434
0.001168642947
0.001167224174
0.001166241312
0.001165720528
0.001165440739
0.001165289292
0.001165208808
0.001165170055
0.001165158247
0.001165166259
0.001165191382
0.001165233536
0.001165295365
0.001165383655
0.001165506383
0.001165677758
0.001165974819
0.0006709088521
0.0004073071731
0.0001013910542
9.141740164e-07
8.088094468e-08
6.792505782e-08
6.273199845e-08
5.765983932e-08
5.410250105e-08
5.219279711e-08
5.285366388e-08
5.588800923e-08
6.065141273e-08
6.693377949e-08
7.565053759e-08
8.665680985e-08
1.005143961e-07
1.179976992e-07
1.401049133e-07
1.681360742e-07
2.037956073e-07
2.493423895e-07
3.077905178e-07
3.83218423e-07
4.81202469e-07
6.094590262e-07
7.787687423e-07
1.004396349e-06
1.308174343e-06
1.721717785e-06
2.291490343e-06
3.088491675e-06
4.233336829e-06
5.967843883e-06
8.826299277e-06
1.398733966e-05
2.399646321e-05
4.431956839e-05
8.675247713e-05
0.0001769787357
0.0003714388736
0.0007951976562
0.001169941307
0.001168632475
0.001167194028
0.001166248092
0.001165740937
0.001165464411
0.001165312082
0.001165229444
0.001165188512
0.001165174987
0.001165181892
0.001165206503
0.001165248652
0.001165311012
0.001165400118
0.001165523123
0.001165695387
0.001165989842
0.0006584520002
0.0004081456082
5.634484649e-05
3.493863393e-07
7.139590157e-08
6.11792713e-08
5.669101133e-08
5.235487273e-08
4.942405942e-08
4.844519588e-08
5.005356683e-08
5.381489123e-08
5.907351837e-08
6.608616754e-08
7.5208589e-08
8.665665837e-08
1.010329818e-07
1.191297539e-07
1.419688383e-07
1.708826405e-07
2.076204884e-07
2.545068337e-07
3.146434005e-07
3.922353351e-07
4.930403967e-07
6.250322954e-07
7.993654669e-07
1.031849486e-06
1.345122934e-06
1.772000138e-06
2.360768914e-06
3.185386965e-06
4.372182395e-06
6.176085762e-06
9.162014404e-06
1.457646937e-05
2.511144152e-05
4.654945852e-05
9.137737838e-05
0.0001868009464
0.0003926369189
0.0008414733569
0.001169950019
0.001168614794
0.00116716573
0.001166254336
0.001165760038
0.001165486701
0.001165333679
0.001165249144
0.001165206283
0.001165191255
0.00116519723
0.001165221466
0.001165263722
0.001165326714
0.001165416652
0.001165539937
0.001165713208
0.001166004659
0.0006397975212
0.0003990768841
2.752364499e-05
1.580865056e-07
6.38492413e-08
5.559305456e-08
5.162958551e-08
4.789248161e-08
4.55942996e-08
4.553843609e-08
4.79681782e-08
5.229850968e-08
5.801485987e-08
6.5503074e-08
7.498072125e-08
8.683631553e-08
1.01693996e-07
1.203637384e-07
1.438916566e-07
1.736430854e-07
2.114151027e-07
2.595972082e-07
3.213808741e-07
4.01099955e-07