/*--------------------------------*- C++ -*----------------------------------*\
  =========                 |
  \\      /  F ield         | OpenFOAM: The Open Source CFD Toolbox
   \\    /   O peration     | Website:  https://openfoam.org
    \\  /    A nd           | Version:  12
     \\/     M anipulation  |
\*---------------------------------------------------------------------------*/
FoamFile
{
    format      ascii;
    class       volScalarField;
    location    "650";
    object      Ma;
}
// * * * * * * * * * * * * * * * * * * * * * * * * * * * * * * * * * * * * * //

dimensions      [];

internalField   nonuniform List<scalar> 
16200
(
0.5322841911
0.6346139546
0.6923107542
0.7379986244
0.7808561953
0.8264022441
0.8766749181
0.922825627
0.9398005507
0.9402919905
0.939171761
0.9381132517
0.9368106337
0.93537537
0.9336902386
0.9317620437
0.9295178415
0.9269183551
0.9238955912
0.9203838838
0.9163042728
0.9115715279
0.9060926195
0.8997702418
0.8925077196
0.8842173796
0.8748337196
0.8643323737
0.8527553952
0.8402395174
0.8270377121
0.8135180318
0.8001274531
0.7873252856
0.7755097799
0.7649652563
0.7558434348
0.7481739407
0.741890977
0.7368641528
0.73292713
0.7299014569
0.7276140446
0.7259086954
0.7246517571
0.7237338306
0.7230682258
0.7225881833
0.722243304
0.7219962094
0.721819473
0.7216931427
0.7216027744
0.7215378003
0.7214906995
0.7214552803
0.7214288697
0.7214065014
0.7213895288
0.7213666932
0.5444540298
0.649983509
0.7094427328
0.7566081752
0.8012655079
0.8492757164
0.9013350149
0.941302904
0.951030027
0.9507476456
0.9495621407
0.9484180796
0.9470181388
0.9454663393
0.9436400509
0.9415410056
0.9390917867
0.936245628
0.932928162
0.9290649724
0.9245687496
0.9193449393
0.9132917977
0.9063042105
0.8982802813
0.8891320737
0.8788029167
0.867292071
0.8546858903
0.8411880357
0.827133121
0.8129651756
0.7991759259
0.7862220895
0.7744551131
0.764087445
0.7551972485
0.7477562341
0.7416636415
0.7367754774
0.7329271465
0.7299497982
0.7276823692
0.7259794068
0.7247155182
0.7237867682
0.7231097539
0.7226193605
0.7222658694
0.7220119876
0.7218301179
0.721700043
0.7216070156
0.7215402874
0.721491947
0.7214559793
0.7214288373
0.7214065266
0.7213892304
0.7213650714
0.5562461997
0.6649875379
0.7262400636
0.7749967902
0.8216492207
0.8720488177
0.9249512662
0.9558308277
0.9602960662
0.9594666252
0.9582095109
0.9569663206
0.9554414911
0.9537411512
0.9517391702
0.9494306455
0.9467342404
0.9435949988
0.9399319824
0.9356614995
0.9306872681
0.9249046573
0.9182022655
0.9104665407
0.9015910883
0.8914917027
0.8801298414
0.8675442813
0.8538871973
0.8394513545
0.8246668902
0.8100512445
0.7961211331
0.783301588
0.7718695858
0.7619464275
0.7535268689
0.7465217038
0.7407955595
0.7361927014
0.7325525362
0.7297187041
0.7275453066
0.7259011229
0.7246723829
0.7237637447
0.7230977337
0.722613071
0.7222624042
0.7220098234
0.7218285109
0.721698664
0.7216057495
0.7215391387
0.7214909073
0.7214551945
0.7214280782
0.7214061321
0.721389142
0.7213651483
0.5671868488
0.6788661199
0.7418027984
0.7923422002
0.8413493826
0.893907803
0.9448951268
0.965965689
0.9672692287
0.9662713919
0.9649320757
0.9635757464
0.961915292
0.9600514062
0.9578557608
0.9553148972
0.952343335
0.9488768262
0.9448270871
0.9401002972
0.9345902813
0.9281816158
0.9207531951
0.9121850091
0.9023718071
0.8912439721
0.8787978667
0.8651337598
0.8504929919
0.8352734981
0.8199991509
0.8052370767
0.7914910835
0.7791171891
0.768292844
0.7590385308
0.7512675679
0.7448373514
0.7395862812
0.7353537632
0.7319881874
0.7293492646
0.7273090204
0.7257528243
0.7245805862
0.7237073671
0.7230631357
0.7225916754
0.7222489431
0.7220011197
0.7218226791
0.7216945933
0.7216028005
0.721536948
0.7214892551
0.7214540191
0.7214271211
0.7214055461
0.7213888465
0.7213646898
0.577340906
0.6918345435
0.7563927022
0.8087576587
0.8603528806
0.9150485882
0.9596276938
0.9724386081
0.972272764
0.9711769462
0.9697310482
0.9682403817
0.9664212284
0.9643658928
0.9619452069
0.959135524
0.9558469512
0.9520048222
0.9475123158
0.9422641771
0.9361431817
0.9290231129
0.920775383
0.9112793726
0.9004413157
0.8882215659
0.8746719873
0.8599784236
0.8444921039
0.828721814
0.8132670553
0.7987060889
0.7854856948
0.7738590961
0.7638883285
0.755493103
0.7485145339
0.7427683307
0.738076824
0.7342816641
0.7312446112
0.7288440082
0.7269714613
0.7255302391
0.724435143
0.7236128047
0.7230017123
0.7225516623
0.722222709
0.7219837553
0.721811047
0.7216866923
0.721597363
0.7215331646
0.7214866172
0.7214522252
0.7214258397
0.7214047407
0.721388484
0.7213643514
0.5864670137
0.7036533538
0.7697874509
0.8240367595
0.878246827
0.9345619059
0.9697567544
0.9762883905
0.9752400433
0.9740598541
0.972489747
0.9708468135
0.968849928
0.9665790629
0.9639049376
0.9607917711
0.9571442109
0.9528757556
0.9478798083
0.9420392976
0.9352267945
0.927308406
0.9181539433
0.9076514338
0.8957317729
0.8824034457
0.8677971502
0.8522081638
0.8361101355
0.8201112146
0.8048492612
0.7908637563
0.7785011182
0.767887742
0.7589666946
0.7515671676
0.7454737455
0.7404754023
0.7363897098
0.7330677279
0.730388463
0.7282506561
0.7265662208
0.7252566791
0.7242520499
0.723490939
0.7229208197
0.72249798
0.7221870171
0.7219599403
0.7217950797
0.7216759242
0.721590062
0.7215281918
0.7214832398
0.7214499691
0.7214243025
0.7214037526
0.7213880045
0.7213638806
0.5943538886
0.714207708
0.7819626564
0.8383429767
0.8951897368
0.9507052939
0.9757651351
0.9784699158
0.976187973
0.974903428
0.9731928205
0.9713751216
0.9691750862
0.9666569388
0.9636916836
0.9602300757
0.9561707596
0.9514152925
0.9458476857
0.9393406628
0.9317592749
0.9229663639
0.9128367763
0.9012774474
0.888259677
0.8738624646
0.8583212743
0.8420597127
0.8256707848
0.8098296163
0.7951601707
0.7821116592
0.7708969524
0.7615061733
0.7537723091
0.7474518021
0.7422914002
0.7380685317
0.734606331
0.7317711751
0.7294620261
0.7275988
0.7261135897
0.7249457817
0.7240403008
0.7233475972
0.7228241713
0.7224329573
0.7221433046
0.7219305463
0.7217752948
0.7216625887
0.7215810649
0.7215221198
0.7214791658
0.7214472737
0.721422515
0.7214025939
0.7213874327
0.7213633624
0.6008165281
0.7233888573
0.7929609373
0.851832276
0.9113557879
0.9617887957
0.9782282764
0.976671511
0.9751562099
0.9737436333
0.9718683429
0.9698457254
0.967409544
0.9646056825
0.9613059532
0.957447212
0.9529220109
0.9476204675
0.9414177987
0.934178082
0.9257613936
0.9160321388
0.9048787624
0.8922415686
0.8781541811
0.8627935484
0.8465235687
0.8299009403
0.813612639
0.798349106
0.7846620833
0.7728674107
0.7630271143
0.7550007306
0.7485299047
0.7433202891
0.7390998235
0.7356481162
0.7328023178
0.730448419
0.7285068358
0.7269185559
0.7256350475
0.7246126166
0.7238103034
0.7231898633
0.7227165246
0.7223597494
0.7220936388
0.7218969105
0.7217525452
0.7216472205
0.7215707001
0.7215151457
0.7214745078
0.7214442033
0.721420505
0.7214012805
0.7213867657
0.7213627665
0.6057634893
0.7311045665
0.8028567029
0.8644644878
0.9260970084
0.9681464532
0.9750203329
0.974013646
0.9722212888
0.9706437575
0.9685833765
0.9663295757
0.9636280881
0.960504421
0.9568311407
0.9525307932
0.9474892028
0.9415851571
0.9346853486
0.9266471837
0.9173302265
0.906609229
0.8944006746
0.880699346
0.8656280348
0.8494879228
0.832783104
0.8161860763
0.8004299987
0.7861584136
0.773798114
0.7635047804
0.7551900085
0.7486009889
0.7434125692
0.739302262
0.7359962764
0.7332874473
0.7310330113
0.7291411212
0.7275539892
0.726232838
0.7251472153
0.7242690375
0.7235703688
0.7230234689
0.7226017701
0.7222809572
0.7220397316
0.7218601416
0.7217275362
0.7216302587
0.721559234
0.721507426
0.7214693531
0.7214408058
0.7214182926
0.7213998235
0.7213860105
0.7213621038
0.6094033424
0.7377198892
0.8119761184
0.8763543721
0.9380243684
0.9703502917
0.9708885199
0.9694076555
0.9675322972
0.9657684423
0.9634997546
0.9609855547
0.9579854034
0.9545029346
0.9504107979
0.9456169608
0.9399998674
0.9334277651
0.9257606249
0.916853843
0.9065748254
0.8948222558
0.8815603739
0.8668637759
0.850970748
0.8343232741
0.8175577062
0.8014217189
0.7866318457
0.7737240674
0.7629628762
0.7543366392
0.7476224226
0.7424813345
0.7385475995
0.7354912103
0.733050446
0.7310393159
0.7293388555
0.7278803655
0.7266272571
0.7255596189
0.7246634738
0.7239248346
0.7233275322
0.7228533811
0.7224833552
0.7221989339
0.7219831632
0.7218212822
0.7217009429
0.7216121306
0.7215469302
0.7214991179
0.7214637914
0.7214371306
0.7214158993
0.7213982334
0.7213851696
0.7213613701
0.6119016724
0.7434994709
0.8205892414
0.8879573025
0.9457824833
0.9652797734
0.9648176369
0.9632572219
0.9612306512
0.9592510379
0.9567451126
0.9539354072
0.950596021
0.9467077157
0.9421424125
0.9367941212
0.9305344966
0.9232240992
0.9147207395
0.9048854836
0.8936049147
0.8808180718
0.8665594788
0.8510099997
0.8345441857
0.8177449276
0.8013497236
0.786122452
0.772696737
0.7614530649
0.7524769682
0.745600752
0.740493607
0.7367599254
0.7340177044
0.7319463025
0.7303060787
0.7289371546
0.7277460186
0.7266868494
0.7257429749
0.7249116454
0.7241936023
0.7235873648
0.7230872168
0.7226835184
0.7223640571
0.7221156114
0.7219252525
0.7217812159
0.7216733449
0.7215932076
0.72153402
0.7214903606
0.7214579028
0.7214332216
0.7214133447
0.7213965208
0.7213842465
0.7213605666
0.613271276
0.7485738787
0.8286217061
0.8986901892
0.9493889268
0.9593898302
0.9572602643
0.95557721
0.9533803266
0.9511570628
0.9483824359
0.9452393913
0.9415168956
0.9371730378
0.9320787175
0.926115772
0.9191508079
0.9110408148
0.9016475604
0.8908476146
0.8785611949
0.8647876148
0.8496561457
0.8334773091
0.8167709076
0.8002396571
0.784669213
0.7707717204
0.7590403443
0.7496723457
0.7425786121
0.7374605156
0.7339111878
0.7315065836
0.7298688831
0.7286992757
0.7277865546
0.7269993154
0.72626954
0.7255731146
0.7249115685
0.7242974466
0.7237444227
0.7232619509
0.7228534739
0.7225168919
0.7222460644
0.7220325469
0.7218670851
0.721740684
0.7216452375
0.7215738124
0.7215207079
0.7214812788
0.72145176
0.7214291193
0.721410647
0.721394697
0.7213832431
0.7213596921
0.613514904
0.7531354652
0.8362858726
0.9072283527
0.9464254271
0.9507132316
0.9482503276
0.9464573177
0.9440511517
0.9415512588
0.9384726114
0.9349566948
0.9308072994
0.9259609016
0.9202868453
0.9136564822
0.9059331465
0.896975029
0.8866557624
0.8748807401
0.8616231599
0.8469671744
0.8311610232
0.8146580002
0.7981125538
0.782303732
0.7679977723
0.7557902419
0.7459948769
0.7386206782
0.7334253521
0.7300123102
0.7279305659
0.7267519585
0.72611828
0.7257606905
0.7254996411
0.7252325617
0.7249158226
0.7245452751
0.7241387138
0.7237220846
0.7233202667
0.7229521585
0.7226291381
0.7223556864
0.7221310146
0.7219509376
0.7218095158
0.7217002829
0.7216170269
0.7215542147
0.7215071675
0.7214719804
0.7214454273
0.7214248598
0.7214078229
0.7213927735
0.7213821619
0.7213587465
0.612775022
0.7573632111
0.8438228101
0.9125977788
0.9395801664
0.9406369788
0.9379160774
0.9359603072
0.9333204702
0.9305171144
0.927103686
0.923180038
0.9185629244
0.913168365
0.9068637535
0.899513
0.890980462
0.8811338258
0.8698707618
0.8571427449
0.8429983077
0.8276318238
0.8114289807
0.7949819838
0.7790449141
0.764411454
0.7517587448
0.7415158011
0.7338014956
0.7284518099
0.7251036846
0.7232975101
0.7225665771
0.7224975255
0.7227621772
0.7231260616
0.7234420797
0.7236354414
0.7236850752
0.7236047559
0.7234265523
0.7231879851
0.7229235288
0.7226601559
0.7224160549
0.7222013998
0.7220200784
0.7218716691
0.721753196
0.7216604792
0.7215890389
0.7215346357
0.7214935448
0.7214625579
0.721438961
0.7214204752
0.721404888
0.7213907598
0.7213810055
0.7213577294
0.6114261115
0.7614394767
0.8507245215
0.9143617478
0.930161827
0.9292567464
0.926405618
0.9242455314
0.9213412306
0.9181983754
0.914406873
0.9100265905
0.904885603
0.898882717
0.8918854676
0.8837562522
0.8743677385
0.8636081372
0.8514142954
0.8378036923
0.8229234721
0.8070977477
0.7908543642
0.7749001016
0.7600315614
0.7469869975
0.7362963103
0.7281946688
0.7226133692
0.7192450266
0.7176425825
0.717315732
0.7178048389
0.7187245886
0.7197828335
0.7207809359
0.7216033137
0.7222010061
0.7225732838
0.7227497087
0.7227746924
0.7226956339
0.7225551413
0.722387029
0.7222152854
0.7220549736
0.7219140393
0.7217953638
0.7216986017
0.7216216257
0.7215615273
0.7215152527
0.7214799593
0.7214530892
0.7214324097
0.7214159939
0.7214018569
0.7213886648
0.7213797751
0.7213566407
0.6099229227
0.7658130831
0.8559340735
0.9102967151
0.9185113713
0.9167847256
0.9137993954
0.9113738022
0.9081611874
0.9046292464
0.9004046469
0.8955103679
0.8897855394
0.8831160623
0.8753724091
0.8664217701
0.8561534265
0.844489325
0.8314240683
0.8170642787
0.8016776661
0.7857261892
0.7698625339
0.7548625781
0.7414964209
0.730381912
0.7218647964
0.7159834338
0.7125063085
0.7110196674
0.711028076
0.7120374262
0.7136117194
0.7154017923
0.7171540064
0.7187049169
0.7199684217
0.7209189549
0.7215737791
0.7219761543
0.7221810349
0.7222441644
0.722214985
0.7221330639
0.7220272955
0.7219169162
0.7218133731
0.72172243
0.7216460638
0.7215839788
0.7215346836
0.7214962039
0.7214665077
0.7214436391
0.7214258151
0.7214114411
0.721398744
0.7213864968
0.7213784562
0.7213554807
0.6087149714
0.7700033561
0.8584824078
0.901146912
0.9053733948
0.903156873
0.9000061122
0.8972687945
0.8937135851
0.8897552455
0.8850565531
0.879606245
0.8732536107
0.865875488
0.8573486433
0.8475536825
0.8364095446
0.8238909034
0.8100729789
0.7951732182
0.7795914203
0.7639178683
0.7488904407
0.7352916276
0.723798634
0.7148612032
0.7086281906
0.7049587047
0.7034935429
0.7037505728
0.7052167933
0.7074145954
0.7099423287
0.7124908983
0.7148450857
0.7168746311
0.7185202682
0.7197772118
0.7206784022
0.7212788438
0.7216424063
0.7218318183
0.7219022184
0.7218979775
0.7218521145
0.7217874101
0.7217183182
0.7216531076
0.7215957963
0.7215477163
0.7215086481
0.7214775954
0.7214532669
0.7214342612
0.7214192127
0.7214068394
0.7213955623
0.7213842612
0.7213770406
0.7213542498
0.6086032137
0.773431999
0.8578648219
0.8907652757
0.8908625527
0.8883819745
0.8850368057
0.88195206
0.8780219936
0.8736006271
0.8683855674
0.8623344882
0.8553074121
0.8471789748
0.8378403011
0.8271994237
0.8152227632
0.8019584733
0.7875825421
0.7724353801
0.7570431961
0.7420943502
0.7283574407
0.7165535541
0.7072152507
0.7005999045
0.69666828
0.6951316393
0.6955417536
0.6973824711
0.7001474056
0.7033892547
0.7067465213
0.7099509759
0.7128240254
0.7152658112
0.7172410146
0.7187630415
0.7198783401
0.7206518889
0.721155031
0.721456296
0.7216155344
0.7216811016
0.721689465
0.721666401
0.7216289356
0.7215875072
0.7215479218
0.7215129528
0.7214835185
0.7214595055
0.7214402968
0.7214249991
0.7214126331
0.7214022088
0.7213923229
0.7213819595
0.7213755851
0.7213529486
0.610427033
0.7753857477
0.8541407368
0.8768148225
0.8751768405
0.8725132081
0.8689159732
0.8654354161
0.8610830982
0.85614677
0.8503605609
0.8436570254
0.8359110508
0.827005811
0.8168583186
0.8054193586
0.7927193874
0.7788962867
0.7642386045
0.7492095908
0.7344398014
0.7206690196
0.708634959
0.6989382679
0.6919349967
0.687689175
0.6859984391
0.6864642593
0.6885861872
0.691842139
0.6957495703
0.6998996594
0.7039731192
0.7077412551
0.7110593011
0.7138546753
0.7161131215
0.7178638003
0.7191646989
0.7200892014
0.72071487
0.721115014
0.721353353
0.721481525
0.7215388645
0.7215536693
0.7215451584
0.7215256433
0.7215024928
0.7214797537
0.7214593592
0.7214419909
0.7214276436
0.7214158882
0.7214061024
0.7213975674
0.7213890356
0.7213795986
0.7213740518
0.7213515792
0.6143438077
0.7753432933
0.8451541128
0.8614617388
0.8582819314
0.8554102036
0.8515119859
0.8475889892
0.8427711443
0.8372778957
0.8308828992
0.8235017081
0.8150290313
0.8053675605
0.7944710108
0.7823466289
0.7691034639
0.7549816859
0.7403859907
0.7258884014
0.7121870178
0.7000165869
0.6900243944
0.6826501788
0.6780619973
0.6761487962
0.6765798042
0.6788851142
0.6825435029
0.6870478582
0.6919504139
0.696884567
0.7015726679
0.7058229236
0.7095211148
0.7126187704
0.715119968
0.7170674089
0.7185288739
0.7195847886
0.720317854
0.720805288
0.7211139617
0.7212981988
0.7213997035
0.7214488866
0.7214668309
0.7214674615
0.7214595102
0.7214481468
0.7214362081
0.7214250904
0.7214153421
0.7214069573
0.7213996429
0.721392931
0.721385709
0.721377182
0.7213724657
0.7213501438
0.6193997769
0.7733452517
0.8319803816
0.8441000813
0.840050833
0.8369483886
0.8327138081
0.8283229532
0.8230204119
0.8169573012
0.8099483328
0.8019007934
0.7927336987
0.7823799191
0.7708415067
0.7581967706
0.7446477363
0.7305447534
0.71640124
0.7028676278
0.6906599722
0.6804496397
0.6727461126
0.6678089349
0.665626178
0.6659426732
0.6683371938
0.6723027413
0.6773217706
0.6829162052
0.6886788689
0.6942859091
0.6994990662
0.7041601374
0.7081820519
0.7115374295
0.7142461936
0.7163626225
0.7179627726
0.7191329366
0.7199600351
0.7205244557
0.7208956142
0.721130013
0.7212713031
0.7213516578
0.7213937392
0.7214128597
0.7214189377
0.721418132
0.7214140833
0.721408829
0.721403418
0.7213982294
0.7213932739
0.7213883141
0.7213823522
0.72137472
0.7213708299
0.7213486443
0.6233169945
0.7692573298
0.8179778616
0.825185455
0.8205580419
0.8171866136
0.8125978333
0.8077243073
0.8019276897
0.7952936523
0.7876775227
0.7789889116
0.7691775893
0.7582200062
0.7461816049
0.7332270794
0.7196613933
0.7059415567
0.6926660551
0.6805193865
0.6701797207
0.6622046596
0.6569373229
0.6544577498
0.6545979566
0.6569951125
0.6611733896
0.6666164671
0.672827808
0.6793666477
0.6858683859
0.6920503286
0.6977104234
0.7027205097
0.70701738
0.7105919762
0.7134778571
0.715739168
0.717458935
0.7187283193
0.7196376824
0.7202699588
0.7206965972
0.7209758503
0.7211529567
0.7212615531
0.7213256349
0.7213617047
0.7213807132
0.7213896892
0.7213929879
0.7213932211
0.7213918898
0.7213897232
0.7213870124
0.7213837297
0.7213789738
0.7213722269
0.7213691664
0.7213470793
0.6263685516
0.7626445931
0.8009089725
0.8049631102
0.7999767482
0.7962723485
0.7913085451
0.7859312152
0.7796219429
0.7724099343
0.7641913551
0.7548925453
0.7445046743
0.7330639491
0.7207140023
0.7077157433
0.6944754348
0.6815373973
0.669546563
0.659170215
0.6509970665
0.6454364432
0.6426570703
0.6425767428
0.6449043541
0.6492056445
0.6549806322
0.6617242685
0.6689720391
0.6763242939
0.6834583636
0.6901298603
0.6961693527
0.7014752239
0.7060050918
0.7097657507
0.7128024672
0.7151877828
0.7170105823
0.7183660503
0.7193473338
0.7200393906
0.7205152736
0.7208346218
0.7210439597
0.7211781303
0.7212622516
0.721313845
0.7213447582
0.7213627846
0.721372914
0.7213782731
0.7213807708
0.7213814541
0.7213808734
0.7213791897
0.7213755832
0.7213697202
0.7213674988
0.7213454496
0.6276223114
0.7534022854
0.7821000361
0.7836347127
0.778369967
0.7742548243
0.7688847176
0.7629748306
0.7561288593
0.7483362804
0.7395363647
0.7296885155
0.7188378084
0.7070931808
0.6946849859
0.6819693032
0.6694382538
0.6576908186
0.6473721426
0.6390828926
0.6332838203
0.630220721
0.6298977139
0.6320985054
0.6364441519
0.6424611811
0.6496490889
0.6575280035
0.6656713757
0.6737212821
0.6813946935
0.6884820501
0.6948429072
0.7003989161
0.7051257938
0.7090440276
0.7122089324
0.7147001944
0.716611617
0.7180416974
0.7190858183
0.7198305226
0.7203501057
0.7207052902
0.7209436284
0.7211009511
0.7212033176
0.72126912
0.7213109838
0.7213373749
0.7213538461
0.7213639856
0.7213700695
0.7213734342
0.7213748701
0.721374705
0.72137219
0.72136722
0.7213657901
0.7213437812
0.6264821201
0.7376081107
0.7615384405
0.7611042768
0.7556162775
0.7510132746
0.7452128381
0.7387628967
0.7313849551
0.7230492843
0.713741679
0.7034680922
0.6923372007
0.6805377721
0.6683869924
0.6563244376
0.6449016539
0.6347321543
0.6264152183
0.6204450639
0.6171330436
0.616564112
0.6186002077
0.622923756
0.6291010121
0.6366454166
0.6450727674
0.6539366779
0.6628507531
0.6714973164
0.679629788
0.6870697686
0.6937023373
0.6994694485
0.7043625244
0.7084138827
0.7116874733
0.7142690677
0.7162565974
0.7177512755
0.7188502607
0.7196413143
0.7201996711
0.7205868835
0.7208513127
0.7210295916
0.7211485648
0.7212273664
0.7212792966
0.7213134115
0.7213357637
0.7213503548
0.7213597916
0.721365674
0.7213690144
0.7213702857
0.7213688048
0.7213647412
0.7213639583
0.7213420815
0.6226289652
0.7206764569
0.7391121849
0.7371681012
0.7315100788
0.7264000842
0.7201820276
0.7132342934
0.7053830268
0.6965995124
0.6869201282
0.6764077627
0.6652413386
0.6536910088
0.6421529676
0.6311293012
0.6211969079
0.6129418381
0.6068779193
0.6033671543
0.6025672562
0.6044185115
0.608669958
0.6149352219
0.6227537642
0.6316454342
0.6411531922
0.6508681396
0.6604436524
0.6695995894
0.678122252
0.6858608216
0.6927227292
0.6986676115
0.7037005246
0.7078640276
0.7112295081
0.7138879315
0.7159406933
0.7174912234
0.718638072
0.7194699126
0.7200626664
0.7204785011
0.720766403
0.7209636484
0.7210977336
0.7211884233
0.7212496015
0.7212908426
0.7213186429
0.7213373739
0.7213499401
0.721358182
0.7213633173
0.7213659411
0.7213654387
0.7213622898
0.7213620766
0.7213403593
0.6158586206
0.701857805
0.7149222183
0.7118319346
0.7060293338
0.7004457273
0.6938496554
0.6864788391
0.6782506239
0.6691547073
0.6592832948
0.6487641528
0.6378489182
0.6268836019
0.6163267224
0.6067137905
0.5986093147
0.5925335776
0.5888864867
0.5878874864
0.5895506824
0.5936960313
0.5999906785
0.608008301
0.6172834239
0.6273556437
0.6378011683
0.6482495262
0.6583918687
0.6679822698
0.6768363122
0.6848274272
0.6918825702
0.6979767827
0.703126983
0.7073846244
0.7108275238
0.7135510912
0.7156596303
0.7172583702
0.7184469314
0.7193146441
0.7199379041
0.7203793155
0.7206883333
0.7209027429
0.7210505769
0.7211521345
0.7212218044
0.7212696154
0.7213024577
0.7213250339
0.7213405163
0.7213509654
0.7213577885
0.7213616799
0.7213621039
0.7213598775
0.7213600903
0.7213386355
0.6062435659
0.6816341684
0.689227531
0.6852470369
0.6792945721
0.6732887827
0.6663679256
0.6586659018
0.6501826324
0.6409409403
0.6310926455
0.6208335859
0.6104840611
0.6004521134
0.5912339922
0.5833650615
0.5773613739
0.5736477392
0.5724950828
0.5739839111
0.5780043139
0.5842837063
0.5924362664
0.6020192696
0.6125780449
0.6236801448
0.634937562
0.6460171789
0.6566450343
0.6666059092
0.6757412475
0.6839457269
0.6911633552
0.6973826235
0.7026308081
0.7069671201
0.7104749581
0.7132535484
0.7154096364
0.7170499014
0.7182747661
0.719174004
0.7198243088
0.7202885707
0.720616582
0.7208465221
0.7210068619
0.7211183509
0.7211958136
0.7212496772
0.7212871812
0.7213133243
0.7213315197
0.7213440304
0.7213524368
0.7213575103
0.7213588134
0.7213575109
0.7213580209
0.7213369292
0.5940113425
0.6586677705
0.6621982457
0.6575072023
0.6514166355
0.6450588508
0.6378924357
0.6299804322
0.6213980613
0.6122127004
0.602636927
0.5929319951
0.5834759294
0.5747180682
0.5671633014
0.5613137164
0.557607356
0.5563552668
0.5576973598
0.5615893184
0.5678216361
0.5760566921
0.5858803071
0.596851165
0.6085357648
0.6205338784
0.6324933642
0.6441161779
0.6551599668
0.665436786
0.6748108081
0.6831953073
0.6905492103
0.6968727916
0.7022024143
0.7066040908
0.7101660887
0.7129909227
0.715187389
0.7168633242
0.7181197292
0.719046643
0.7197209093
0.7202055791
0.7205506703
0.7207946594
0.7209663704
0.7210869311
0.7211715411
0.7212309763
0.721272786
0.7213022338
0.7213229492
0.7213373822
0.72134727
0.7213534401
0.7213555811
0.7213551975
0.7213558616
0.7213352554
0.5794349257
0.6335331246
0.6339608193
0.6287018325
0.6225147991
0.6159022696
0.6086001818
0.6006320313
0.5921416474
0.5832473485
0.5742196661
0.5653765069
0.5571366118
0.5499655982
0.5443474923
0.5407227446
0.5394312726
0.5406638017
0.544437788
0.5506044888
0.5588801412
0.5688868266
0.5802013905
0.5923963806
0.6050655324
0.6178422655
0.6304088239
0.6424993315
0.6538997068
0.6644460722
0.6740225361
0.6825586655
0.6900264814
0.6964366307
0.7018334916
0.7062890725
0.709895911
0.7127593659
0.7149899552
0.7166964273
0.7179801737
0.7189313507
0.7196268292
0.7201297155
0.72049016
0.720746853
0.7209288993
0.721057742
0.7211489025
0.7212134622
0.7212592446
0.72129175
0.7213148024
0.721331025
0.7213422949
0.7213494771
0.7213524213
0.7213529423
0.7213536217
0.721333631
0.5626104391
0.6065278918
0.6046479087
0.5989679666
0.5927332998
0.5859924371
0.5786961562
0.5708564806
0.5626795359
0.5543350851
0.5461437903
0.5384661952
0.5317409868
0.5264242235
0.5229528591
0.5216848644
0.5228520737
0.5265284067
0.5326245547
0.5409101571
0.5510508396
0.562648928
0.5752865034
0.5885579286
0.6020870646
0.6155404982
0.6286324959
0.641126219
0.6528326663
0.6636091286
0.6733572038
0.6820207736
0.6895834037
0.6960649226
0.701516821
0.7060164262
0.7096600402
0.7125554913
0.7148147421
0.7165472461
0.717854629
0.7188270405
0.7195412768
0.7200604118
0.7204346497
0.7207028245
0.7208942593
0.7210306579
0.7211278175
0.7211970859
0.7212465298
0.72128186
0.7213070761
0.7213249626
0.7213375171
0.7213456288
0.7213493483
0.7213507479
0.7213513045
0.7213320713
0.543646481
0.5778558238
0.5742868196
0.5684510538
0.5622535069
0.5555396093
0.5484229361
0.5409226487
0.533300415
0.5257736068
0.5187016339
0.5124706233
0.5075174321
0.504264796
0.5030819848
0.5042320768
0.507838037
0.5138678891
0.5221449284
0.5323795225
0.5442072029
0.5572262958
0.5710338364
0.5852504597
0.5995308268
0.6135730165
0.6271205375
0.6399624877
0.6519320072
0.6629049884
0.6727984032
0.6815687601
0.6892098585
0.6957497035
0.7012461384
0.7057812367
0.7094546378
0.7123763213
0.7146594599
0.7164140379
0.717741784
0.7187327388
0.7194635387
0.7199971529
0.7203837731
0.7206623178
0.7208622748
0.7210055614
0.72110821
0.7211818004
0.7212346146
0.7212725506
0.7212997666
0.7213191975
0.7213329412
0.7213419033
0.7213463759
0.7213486127
0.7213489255
0.7213305941
0.5226770175
0.5477954943
0.5431578349
0.5373823994
0.5313350529
0.5248184499
0.5180709231
0.5111302076
0.5043054546
0.4978544917
0.4921616432
0.4876199661
0.4846434519
0.4836016312
0.4847821375
0.4883487962
0.4943221752
0.5025798408
0.5128779329
0.5248876602
0.5382310954
0.5525138196
0.567353928
0.5824002377
0.597337398
0.6118926457
0.6258358331
0.6389790639
0.6511749764
0.6623158193
0.6723321208
0.6811915797
0.6888971191
0.6954840714
0.7010159885
0.705579204
0.7092763302
0.7122192275
0.7145220782
0.7162952504
0.7176404652
0.7186475692
0.7193929695
0.7199394697
0.7203371944
0.7206250963
0.7208327821
0.7209823419
0.7210900072
0.7211675601
0.7212234723
0.7212638083
0.7212928695
0.7213137315
0.7213285706
0.7213383087
0.7213435177
0.7213465333
0.7213465094
0.7213292252
0.4999028326
0.5167482678
0.5116939691
0.5060274114
0.5002588722
0.4941126108
0.487925386
0.4817607487
0.4759653562
0.4708268998
0.4667389612
0.464082861
0.4632311706
0.4644854796
0.4680446234
0.4739755838
0.4822079348
0.4925461597
0.5046983695
0.5183135599
0.5330129272
0.5484168631
0.5641678821
0.5799431436
0.5954555524
0.6104589089
0.6247465905
0.6381510271
0.6505420231
0.6618262427
0.6719462181
0.6808796191
0.6886375536
0.6952619616
0.7008215561
0.7054065161
0.709122115
0.7120818609
0.7144007751
0.7161894842
0.7175496099
0.7185707341
0.719328978
0.71988693
0.7202946019
0.7205909387
0.7208056269
0.7209608937
0.721073139
0.72115432
0.721213076
0.7212556182
0.7212863796
0.7213085651
0.7213244075
0.7213348536
0.7213407866
0.7213445061
0.7213440928
0.7213279918
0.4753190101
0.4850835585
0.4800800556
0.4746510084
0.4692941602
0.4636922499
0.4582546258
0.453073032
0.4485198726
0.4449003702
0.4426015206
0.4419761852
0.4433409388
0.4469203063
0.4528232487
0.4610273489
0.4713853246
0.4836459262
0.4974860707
0.5125459948
0.5284549429
0.5448527822
0.5614078099
0.5778245205
0.5938418585
0.6092375694
0.6238259149
0.6374572512
0.650016514
0.6614231138
0.6716302641
0.6806245707
0.6884245291
0.6950780737
0.7006586107
0.7052598073
0.708989328
0.7119621274
0.7142939184
0.7160954797
0.7174682562
0.7185015078
0.7192710233
0.7198391355
0.7202557065
0.720559638
0.7207806633
0.7209411162
0.7210575374
0.7211420361
0.7212033982
0.7212479653
0.7212802905
0.7213036974
0.7213204529
0.7213315472
0.7213381937
0.7213425269
0.7213417198
0.7213268309
0.4495043405
0.4531953556
0.4485612615
0.4435008282
0.4387006571
0.4338173016
0.4293109697
0.4253015701
0.4221756126
0.4202437094
0.4198718147
0.4213705921
0.4249904414
0.4308748753
0.4390467401
0.4494049196
0.4617403555
0.475762092
0.4911298448
0.5074851779
0.5244713205
0.5417500933
0.5590155353
0.5759977292
0.5924593076
0.6081994139
0.6230507778
0.6368795572
0.6495840517
0.6610949829
0.671375116
0.6804191098
0.6882521659
0.6949276872
0.700523369
0.7051360563
0.7088755694
0.7118581342
0.7142000277
0.7160120898
0.7173955248
0.7184392236
0.7192186055
0.7197957162
0.7202202374
0.7205309989
0.7207577524
0.7209229124
0.7210431362
0.7211306643
0.7211944113
0.7212408333
0.721274595
0.7212991258
0.7213167071
0.7213283994
0.721335746
0.7213405882
0.7213393947
0.7213257734
0.4226522399
0.4214749487
0.4174093535
0.4128467116
0.4087368355
0.4047289945
0.4013141189
0.398637662
0.3970886708
0.3969713256
0.3986179279
0.4022862435
0.4081543235
0.416284953
0.4266220367
0.4389981224
0.4531570587
0.4687821213
0.4855268584
0.503041302
0.5209863112
0.5390465461
0.5569408023
0.574422646
0.5912761173
0.6073193307
0.622401327
0.6364022068
0.6492321063
0.6608318285
0.6711727249
0.6802567512
0.6881152311
0.6948065812
0.7004124339
0.7050325399
0.7087786688
0.7117681637
0.7141177549
0.7159382665
0.7173306087
0.7183832671
0.7191712618
0.7197563275
0.7201879412
0.7205048373
0.7207367625
0.7209061892
0.7210298713
0.7211201616
0.7211860872
0.7212342055
0.7212692851
0.7212948463
0.7213131698
0.7213254197
0.7213334446
0.721338686
0.7213371707
0.7213248321
0.3950754584
0.3902756319
0.3868872114
0.3829447348
0.3796413183
0.3766422218
0.3744507106
0.3732339703
0.3733732479
0.3751555064
0.3788686916
0.3847096594
0.3927813821
0.4030694914
0.4154483309
0.4296969579
0.4455255662
0.4626032076
0.4805855459
0.4991358523
0.5179345069
0.5366887689
0.5551406372
0.5730649993
0.5902650777
0.6065757239
0.6218603871
0.636011488
0.6489496799
0.6606247886
0.6710159218
0.6801316817
0.6880090073
0.6947109317
0.7003227146
0.7049467717
0.7086966376
0.7116906368
0.7140458563
0.715873039
0.7172727578
0.718333064
0.7191285577
0.719720644
0.7201585771
0.720480977
0.7207175661
0.720890856
0.7210176789
0.7211104844
0.7211783972
0.7212280643
0.7212643515
0.7212908532
0.7213098409
0.7213226165
0.7213312862
0.7213368316