/*--------------------------------*- C++ -*----------------------------------*\
  =========                 |
  \\      /  F ield         | OpenFOAM: The Open Source CFD Toolbox
   \\    /   O peration     | Website:  https://openfoam.org
    \\  /    A nd           | Version:  12
     \\/     M anipulation  |
\*---------------------------------------------------------------------------*/
FoamFile
{
    format      ascii;
    class       volScalarField;
    location    "650";
    object      nut;
}
// * * * * * * * * * * * * * * * * * * * * * * * * * * * * * * * * * * * * * //

dimensions      [0 2 -1 0 0 0 0];

internalField   nonuniform List<scalar> 
16200
(
0.00051075948
0.001738573381
0.002892132339
0.003789875557
0.004066559347
0.003574839941
0.002612140693
0.001410269452
0.0007133747466
0.0002027821703
6.294204277e-06
2.692357046e-06
2.438568351e-06
2.401368217e-06
1.890552419e-06
1.626850859e-06
1.417471383e-06
1.269592411e-06
1.173217556e-06
1.110506893e-06
1.073513996e-06
1.05904653e-06
1.063857417e-06
1.085821945e-06
1.124151486e-06
1.179627055e-06
1.254958412e-06
1.355382353e-06
1.489913196e-06
1.673843024e-06
1.933333797e-06
2.313982205e-06
2.897302356e-06
3.834938462e-06
5.425566984e-06
8.289167656e-06
1.37623411e-05
2.47907857e-05
4.795751229e-05
9.814686988e-05
0.0002094033097
0.0004603620078
0.001002087979
0.001002249787
0.001001766903
0.001000737818
0.000999449006
0.0009988986035
0.0009986844388
0.0009986122917
0.000998598262
0.0009986076323
0.0009986273974
0.0009986542874
0.0009986895513
0.0009987376402
0.0009988049524
0.0009989033669
0.000999048322
0.0009992763939
0.0005038741668
0.001700837296
0.00279779202
0.003596179702
0.003701420777
0.003082430401
0.002131897606
0.001037687923
0.0005678633601
4.487726858e-05
2.780217483e-06
2.266957802e-06
2.063257517e-06
2.025584984e-06
1.694572019e-06
1.454530466e-06
1.263680851e-06
1.129000787e-06
1.042920637e-06
9.881089294e-07
9.569177339e-07
9.460722472e-07
9.523774409e-07
9.736797035e-07
1.009150698e-06
1.059452745e-06
1.127099241e-06
1.217040385e-06
1.337834532e-06
1.503860655e-06
1.73928153e-06
2.085539434e-06
2.61612119e-06
3.467302903e-06
4.907062054e-06
7.491112005e-06
1.241717566e-05
2.232499424e-05
4.311188475e-05
8.810688962e-05
0.0001877851644
0.0004125335209
0.0009263006737
0.0010021188
0.001001682459
0.001000760772
0.0009994631562
0.0009989060394
0.0009986896483
0.000998617444
0.0009986042254
0.0009986146133
0.0009986353012
0.0009986628399
0.0009986984722
0.0009987464624
0.000998813481
0.0009989112705
0.0009990563337
0.000999288088
0.0004976428871
0.001663204015
0.002702456679
0.003398099964
0.003333111694
0.002615379128
0.001649856276
0.0007611635547
0.0003853179864
1.468082053e-05
2.155907476e-06
1.909992294e-06
1.743626238e-06
1.707349557e-06
1.505457351e-06
1.289266235e-06
1.117550215e-06
9.964058633e-07
9.205030073e-07
8.732121109e-07
8.472320383e-07
8.391953732e-07
8.459571727e-07
8.653798113e-07
8.966861915e-07
9.405819341e-07
9.996111056e-07
1.078732733e-06
1.186400552e-06
1.3364542e-06
1.55144432e-06
1.869150195e-06
2.355901925e-06
3.13449071e-06
4.446343297e-06
6.791700912e-06
1.124748395e-05
2.018341739e-05
3.888123812e-05
7.924652024e-05
0.0001684236768
0.0003689574554
0.0008262214035
0.001002021488
0.001001608638
0.001000774405
0.0009994783158
0.0009989171639
0.000998698589
0.0009986255687
0.0009986123002
0.0009986229795
0.000998644044
0.0009986718744
0.0009987076413
0.0009987554617
0.0009988221271
0.0009989193434
0.0009990643874
0.0009992991609
0.0004930941978
0.001626352855
0.002603679661
0.003158113631
0.002950663473
0.002184773073
0.001176139637
0.0005634159426
0.0001933926664
5.458964996e-06
1.803944438e-06
1.622359231e-06
1.485843753e-06
1.45115955e-06
1.336811746e-06
1.14149306e-06
9.867557308e-07
8.777812102e-07
8.108786776e-07
7.701199934e-07
7.48496002e-07
7.42563412e-07
7.492773769e-07
7.666610025e-07
7.941575647e-07
8.327043177e-07
8.850763868e-07
9.564638356e-07
1.055443393e-06
1.195556171e-06
1.398138544e-06
1.698195083e-06
2.156833426e-06
2.887424524e-06
4.113451381e-06
6.298341662e-06
1.043966209e-05
1.873102698e-05
3.605529082e-05
7.339928984e-05
0.0001557657216
0.000340666385
0.0007615816211
0.001001942031
0.001001535687
0.001000761115
0.0009994837591
0.0009989252447
0.0009987069041
0.0009986337818
0.0009986205532
0.0009986314302
0.0009986527579
0.0009986808131
0.0009987166926
0.0009987643994
0.0009988307839
0.0009989275502
0.0009990726244
0.0009993102613
0.000488722469
0.001589356934
0.002502836601
0.002912724917
0.002572029288
0.001805497236
0.0008418526928
0.0004309946584
4.679323047e-05
2.115125924e-06
1.524952754e-06
1.379120297e-06
1.267481686e-06
1.235335145e-06
1.17977897e-06
1.004505872e-06
8.661414089e-07
7.689460695e-07
7.10486119e-07
6.756342602e-07
6.577707552e-07
6.535078827e-07
6.600340227e-07
6.756694943e-07
7.001688088e-07
7.347827583e-07
7.826136939e-07
8.491652523e-07
9.43154173e-07
1.077809715e-06
1.273373289e-06
1.562538801e-06
2.002224073e-06
2.698425653e-06
3.860835829e-06
5.924758521e-06
9.826777729e-06
1.762370259e-05
3.388482945e-05
6.886624413e-05
0.0001458490953
0.0003182586669
0.0007098331206
0.001001882671
0.001001469036
0.001000731141
0.0009994842491
0.0009989326336
0.000998715845
0.0009986428053
0.0009986294332
0.0009986402591
0.0009986616424
0.0009986897907
0.00099872572
0.0009987733323
0.0009988394865
0.0009989359049
0.0009990810341
0.0009993212686
0.0004841522926
0.001551654624
0.002397939942
0.002659681241
0.002198283585
0.001415026377
0.0006226056243
0.0003001223041
1.754111279e-05
1.583810673e-06
1.296226878e-06
1.176938214e-06
1.085329543e-06
1.055514828e-06
1.036758776e-06
8.796914412e-07
7.563081995e-07
6.700445575e-07
6.192916161e-07
5.898021328e-07
5.754017198e-07
5.728290618e-07
5.795458602e-07
5.942028471e-07
6.169002124e-07
6.492754539e-07
6.948413615e-07
7.594365764e-07
8.518712403e-07
9.850722411e-07
1.178435318e-06
1.462987977e-06
1.892669162e-06
2.568333979e-06
3.690356282e-06
5.675397431e-06
9.419583119e-06
1.688802863e-05
3.243697755e-05
6.581899796e-05
0.0001391131716
0.0003028564028
0.0006738261442
0.00100183922
0.001001408444
0.001000683498
0.000999478635
0.0009989384177
0.0009987247664
0.0009986522087
0.0009986386637
0.0009986492945
0.000998670596
0.0009986987492
0.0009987346947
0.0009987822437
0.0009988482338
0.0009989444103
0.0009990896456
0.0009993322661
0.0004787368609
0.001512421581
0.002287487155
0.002389301626
0.001839481923
0.001030689403
0.0004662372492
0.0001793888354
6.096421042e-06
1.311372784e-06
1.104143832e-06
1.005317145e-06
9.296711752e-07
9.022034483e-07
9.046101619e-07
7.648033819e-07
6.55773283e-07
5.802759966e-07
5.371145098e-07
5.129750494e-07
5.021390168e-07
5.015074479e-07
5.08859103e-07
5.232472995e-07
5.452070802e-07
5.766352469e-07
6.218600077e-07
6.867660938e-07
7.801552668e-07
9.146663988e-07
1.10960587e-06
1.394095226e-06
1.820371479e-06
2.485763086e-06
3.584524892e-06
5.521470254e-06
9.166920894e-06
1.642618754e-05
3.151274607e-05
6.383304673e-05
0.0001346209395
0.0002923421449
0.0006486966717
0.001001808893
0.001001354674
0.001000630088
0.0009994682759
0.0009989429771
0.0009987337251
0.0009986619656
0.0009986482138
0.0009986585207
0.0009986796185
0.0009987076977
0.0009987436316
0.0009987911463
0.0009988570381
0.0009989530734
0.0009990984668
0.0009993432534
0.0004716663685
0.001469883249
0.002168384941
0.002108980404
0.001513765278
0.0007422731989
0.0003599595161
5.915969234e-05
2.423551465e-06
1.103754161e-06
9.393815241e-07
8.574404733e-07
7.952163929e-07
7.706281739e-07
7.837904211e-07
6.606870678e-07
5.655708061e-07
5.00668613e-07
4.649041575e-07
4.459401971e-07
4.385517817e-07
4.398847314e-07
4.48125783e-07
4.628190094e-07
4.848031647e-07
5.170196241e-07
5.635004071e-07
6.304783957e-07
7.267435468e-07
8.647932595e-07
1.063116682e-06
1.351702166e-06
1.780164722e-06
2.444117535e-06
3.534452766e-06
5.450051911e-06
9.048292778e-06
1.620278703e-05
3.10464019e-05
6.277905059e-05
0.0001321066844
0.0002861525895
0.0006332236001
0.001001788161
0.0010013065
0.001000574934
0.0009994538095
0.0009989463043
0.0009987425529
0.000998671911
0.0009986579642
0.0009986678645
0.0009986886723
0.0009987166218
0.0009987525305
0.0009988000447
0.0009988659071
0.0009989619
0.000999107509
0.000999354253
0.0004630924929
0.001422047471
0.002016742721
0.001823681483
0.001207597573
0.0005456248643
0.0002724058609
3.420415533e-05
1.492117357e-06
9.322696293e-07
8.014129934e-07
7.327599142e-07
6.814943518e-07
6.597039494e-07
6.765097123e-07
5.687403689e-07
4.864486617e-07
4.314280834e-07
4.024680055e-07
3.882208625e-07
3.83991717e-07
3.872488506e-07
3.964220777e-07
4.120338029e-07
4.353267993e-07
4.691884327e-07
5.180876688e-07
5.883553143e-07
6.888051968e-07
8.31943971e-07
1.036244041e-06
1.331367611e-06
1.766538843e-06
2.436230287e-06
3.530187957e-06
5.446160872e-06
9.039045186e-06
1.617357661e-05
3.095235915e-05
6.248155161e-05
0.0001311951914
0.0002834611572
0.000625548229
0.001001773969
0.001001262418
0.001000517441
0.0009994362452
0.0009989485991
0.0009987511951
0.0009986819424
0.0009986678306
0.0009986772734
0.0009986977321
0.0009987255152
0.0009987613963
0.0009988089475
0.0009988748504
0.0009989708966
0.0009991167789
0.0009993652747
0.0004529574489
0.001369042822
0.001843932768
0.001542139284
0.000884831913
0.0004076431005
0.0001921510639
1.81437798e-05
1.147268895e-06
7.90132065e-07
6.850554906e-07
6.272388189e-07
5.847969513e-07
5.656642029e-07
5.816398347e-07
4.878362323e-07
4.172988099e-07
3.714575056e-07
3.48755347e-07
3.388399076e-07
3.375625134e-07
3.425267705e-07
3.53408522e-07
3.704589026e-07
3.955217512e-07
4.317982623e-07
4.839253461e-07
5.58323235e-07
6.639018832e-07
8.133244964e-07
1.025266807e-06
1.329412653e-06
1.775090137e-06
2.456576374e-06
3.564357387e-06
5.499163234e-06
9.122404589e-06
1.630957211e-05
3.117628984e-05
6.283186157e-05
0.000131658242
0.0002837717619
0.0006245659281
0.001001763641
0.001001221048
0.001000456987
0.0009994164539
0.0009989500268
0.0009987595919
0.0009986919579
0.0009986777289
0.0009986866938
0.0009987067712
0.0009987343704
0.0009987702328
0.0009988178626
0.0009988838774
0.00099898007
0.000999126282
0.0009993763288
0.0004412454107
0.001310973575
0.001658012418
0.001274655441
0.000633500909
0.0003106184893
0.0001259692952
1.214238572e-05
9.364071298e-07
6.70540637e-07
5.861472844e-07
5.371914515e-07
5.019089353e-07
4.852440707e-07
4.978278271e-07
4.168415812e-07
3.571938452e-07
3.199546727e-07
3.030545565e-07
2.971323676e-07
2.983205025e-07
3.055125807e-07
3.180630982e-07
3.368857012e-07
3.641926232e-07
4.034090878e-07
4.593067577e-07
5.384210982e-07
6.498342779e-07
8.064881714e-07
1.027436451e-06
1.342669048e-06
1.802018432e-06
2.500371817e-06
3.630570023e-06
5.599862086e-06
9.283920596e-06
1.658588355e-05
3.16715931e-05
6.373666947e-05
0.0001332994463
0.0002866561052
0.0006293192563
0.001001755003
0.001001181245
0.001000393028
0.0009993952627
0.0009989507769
0.0009987677152
0.0009987018801
0.0009986875913
0.0009986960819
0.0009987157684
0.0009987431824
0.0009987790454
0.0009988267992
0.0009988929976
0.0009989894267
0.0009991360219
0.0009993874223
0.0004276950096
0.001247194819
0.001467007135
0.001010449431
0.000472387013
0.0002422992151
5.997608145e-05
6.659204802e-06
7.567279606e-07
5.704289719e-07
5.019998044e-07
4.604203613e-07
4.309623872e-07
4.166513515e-07
4.246674867e-07
3.553870631e-07
3.057506563e-07
2.764402568e-07
2.647751501e-07
2.621201583e-07
2.660464882e-07
2.751275968e-07
2.893977162e-07
3.102354206e-07
3.401213792e-07
3.826379482e-07
4.426797479e-07
5.269366165e-07
6.447333393e-07
8.093874378e-07
1.040469753e-06
1.368512314e-06
1.844190754e-06
2.563707169e-06
3.723682239e-06
5.741012604e-06
9.512484922e-06
1.698381856e-05
3.240394006e-05
6.51282155e-05
0.0001359775685
0.0002918079901
0.0006391258353
0.00100174634
0.001001142083
0.001000325112
0.0009993733663
0.0009989510205
0.0009987755505
0.0009987116483
0.0009986973621
0.0009987054014
0.0009987247065
0.0009987519484
0.0009987878399
0.0009988357665
0.0009989022204
0.0009989989719
0.0009991460005
0.0009993985606
0.0004120462908
0.001175535837
0.001270631309
0.0007573058208
0.0003635215083
0.0001869506008
3.03634801e-05
3.37168151e-06
6.120687622e-07
4.861321179e-07
4.304384224e-07
3.952124695e-07
3.706560418e-07
3.585986667e-07
3.617264152e-07
3.029470229e-07
2.623383577e-07
2.401404678e-07
2.330262619e-07
2.333818151e-07
2.395475451e-07
2.503617898e-07
2.664287579e-07
2.894792876e-07
3.221892584e-07
3.68259713e-07
4.327101e-07
5.224255888e-07
6.47036655e-07
8.203133107e-07
1.062455233e-06
1.404734809e-06
1.898965758e-06
2.643291968e-06
3.839396742e-06
5.916640855e-06
9.799086704e-06
1.74884576e-05
3.334629734e-05
6.695366827e-05
0.0001395832147
0.000298991161
0.0006534600379
0.001001736353
0.001001102849
0.001000252891
0.0009993513325
0.0009989509114
0.0009987830963
0.0009987212188
0.0009987069992
0.0009987146245
0.000998733573
0.0009987606679
0.0009987966232
0.0009988447742
0.000998911555
0.0009990087097
0.0009991562184
0.000999409747
0.0003948114013
0.001095237192
0.001073450092
0.000561417743
0.0002817812474
0.0001391728048
1.838064122e-05
1.848442521e-06
5.014566284e-07
4.144739838e-07
3.702804063e-07
3.402137972e-07
3.19559371e-07
3.094192521e-07
3.077648265e-07
2.583550602e-07
2.258822601e-07
2.10013897e-07
2.064559001e-07
2.097951073e-07
2.178367228e-07
2.303244488e-07
2.482955237e-07
2.737273744e-07
3.094374828e-07
3.592332808e-07
4.282750272e-07
5.236802764e-07
6.554383522e-07
8.378335693e-07
1.091855433e-06
1.449476548e-06
1.964122401e-06
2.736377598e-06
3.974169319e-06
6.121913268e-06
1.013660386e-05
1.808828693e-05
3.4478237e-05
6.917375877e-05
0.0001440360229
0.0003080333524
0.0006719401847
0.001001724096
0.001001063007
0.001000177374
0.0009993295991
0.0009989505782
0.0009987903595
0.0009987305623
0.000998716472
0.0009987237313
0.00099874236
0.0009987693428
0.0009988054031
0.0009988538322
0.0009989210106
0.0009990186434
0.0009991666754
0.0009994209833
0.0003772109499
0.001009368144
0.0008634157764
0.0004283241201
0.0002276117916
0.000100775231
1.281867065e-05
1.065124802e-06
4.145995881e-07
3.531485049e-07
3.178502249e-07
2.928291584e-07
2.754136051e-07
2.670595795e-07
2.612706965e-07
2.204409099e-07
1.954056774e-07
1.851397857e-07
1.84919448e-07
1.904619613e-07
2.001521198e-07
2.143117064e-07
2.342936789e-07
2.6223649e-07
3.01058864e-07
3.546796491e-07
4.284280165e-07
5.296845294e-07
6.688374706e-07
8.607363638e-07
1.127149745e-06
1.501160036e-06
2.037783392e-06
2.840657551e-06
4.12506264e-06
6.352897799e-06
1.051937724e-05
1.877438452e-05
3.578429218e-05
7.175931584e-05
0.000149277132
0.0003188095557
0.0006942907889
0.00100170891
0.001001022096
0.001000104918
0.0009993084891
0.0009989501255
0.0009987973524
0.0009987396611
0.0009987257604
0.000998732709
0.0009987510637
0.0009987779765
0.0009988141877
0.0009988629504
0.0009989305957
0.0009990287764
0.0009991773711
0.0009994322695
0.0003598889265
0.0009162344312
0.0006946374875
0.0003491331498
0.000191518121
5.619569709e-05
8.323361389e-06
6.66091112e-07
3.45480652e-07
3.003548333e-07
2.719777818e-07
2.514129428e-07
2.372259398e-07
2.306114266e-07
2.215500481e-07
1.885560523e-07
1.702337971e-07
1.644518991e-07
1.673486993e-07
1.746837304e-07
1.859035332e-07
2.017660863e-07
2.238396585e-07
2.543686026e-07
2.963550739e-07
3.538427278e-07
4.323587222e-07
5.395706821e-07
6.862937137e-07
8.879861633e-07
1.167267472e-06
1.558446384e-06
2.118367017e-06
2.954208445e-06
4.289664158e-06
6.606434707e-06
1.094298608e-05
1.95399996e-05
3.725312134e-05
7.468952401e-05
0.0001552654194
0.0003312336874
0.0007203237922
0.001001690369
0.001000979425
0.001000036009
0.0009992882275
0.0009989496352
0.0009988040908
0.0009987485075
0.0009987348531
0.0009987415507
0.0009987596838
0.0009987865744
0.0009988229861
0.0009988721386
0.0009989403179
0.0009990391118
0.0009991883036
0.0009994436041
0.0003454447564
0.0008152528395
0.000560733799
0.0002903061839
0.0001597317389
3.108663671e-05
3.977606022e-06
4.536272736e-07
2.903806224e-07
2.559066307e-07
2.329719339e-07
2.159037055e-07
2.044397943e-07
1.99504433e-07
1.879769118e-07
1.620537885e-07
1.496853713e-07
1.479745462e-07
1.530583449e-07
1.619181958e-07
1.746186496e-07
1.922189985e-07
2.164261287e-07
2.495586186e-07
2.947122062e-07
3.560688892e-07
4.393720192e-07
5.525958702e-07
7.070031339e-07
9.187063351e-07
1.211220771e-06
1.620208302e-06
2.2045537e-06
3.075444178e-06
4.466017151e-06
6.880023576e-06
1.140404861e-05
2.038017684e-05
3.887675888e-05
7.795035868e-05
0.0001619741147
0.0003452510595
0.0007499214987
0.001001668242
0.001000934439
0.0009999709112
0.0009992689603
0.0009989491697
0.0009988105924
0.0009987571008
0.0009987437455
0.0009987502545
0.0009987682227
0.000998795143
0.000998831807
0.0009988814061
0.0009989501841
0.000999049652
0.0009991994687
0.000999454984
0.0003370456391
0.0007099892919
0.0004609753337
0.0002421222822
0.0001294990464
1.854454882e-05
1.908244372e-06
3.303293028e-07
2.454290342e-07
2.183042789e-07
1.995985175e-07
1.854109218e-07
1.760725664e-07
1.727305077e-07
1.597237363e-07
1.402637364e-07
1.328263493e-07
1.347226209e-07
1.415217949e-07
1.517392466e-07
1.65894209e-07
1.852429895e-07
2.115827983e-07
2.472953723e-07
2.955871403e-07
3.607885931e-07
4.488664722e-07
5.681190963e-07
7.302765737e-07
9.521298384e-07
1.258177066e-06
1.685506312e-06
2.295256843e-06
3.203076922e-06
4.652563963e-06
7.171733267e-06
1.190006695e-05
2.129146907e-05
4.065004806e-05
8.1533407e-05
0.0001693882518
0.0003608327218
0.0007830237846
0.001001642441
0.001000886704
0.0009999097257
0.0009992507728
0.0009989487752
0.0009988168759
0.0009987654461
0.0009987524389
0.0009987588223
0.0009987766851
0.0009988036898
0.0009988406597
0.0009988907616
0.0009989602006
0.0009990603987
0.0009992108574
0.0009994664051
0.0003375434109
0.0006057645465
0.0003736630488
0.0002069540128
0.0001022270324
1.218566703e-05
9.312903768e-07
2.550085892e-07
2.076967519e-07
1.859743079e-07
1.707254446e-07
1.590703326e-07
1.516429213e-07
1.497479667e-07
1.363032817e-07
1.22732588e-07
1.197859546e-07
1.241525043e-07
1.323173374e-07
1.437794721e-07
1.593626991e-07
1.804435181e-07
2.088818881e-07
2.4713207e-07
2.985130071e-07
3.675133522e-07
4.603278425e-07
5.855942207e-07
7.555283655e-07
9.876358456e-07
1.307446785e-06
1.753571403e-06
2.389598035e-06
3.336081624e-06
4.848094108e-06
7.480122372e-06
1.242929688e-05
2.227170807e-05
4.257020864e-05
8.543500267e-05
0.0001775028501
0.0003779714989
0.0008196192407
0.001001612984
0.00100083589
0.0009998524358
0.0009992337045
0.0009989484854
0.0009988229602
0.0009987735527
0.0009987609383
0.0009987672593
0.0009987850776
0.0009988122228
0.0009988495528
0.0009989002133
0.0009989703732
0.0009990713532
0.0009992224591
0.0009994778617
0.0003478355253
0.0005108526528
0.0003166659184
0.0001843071739
5.952839927e-05
8.462371465e-06
4.824860669e-07
2.048795298e-07
1.760277498e-07
1.584852823e-07
1.461252695e-07
1.366969636e-07
1.309755442e-07
1.304116024e-07
1.173445707e-07
1.089862051e-07
1.096428483e-07
1.157668844e-07
1.25059861e-07
1.37694418e-07
1.546782479e-07
1.774573672e-07
2.079445698e-07
2.486784575e-07
3.030842597e-07
3.75819143e-07
4.733131656e-07
6.045563147e-07
7.822698948e-07
1.02470379e-06
1.358469813e-06
1.823789003e-06
2.486886724e-06
3.473668686e-06
5.051705201e-06
7.804178724e-06
1.299064581e-05
2.331981711e-05
4.463646625e-05
8.965544811e-05
0.0001863212214
0.000396678223
0.000859736886
0.001001579955
0.001000781755
0.0009997989453
0.0009992177619
0.0009989483237
0.000998828864
0.0009987814326
0.0009987692522
0.0009987755725
0.0009987934076
0.0009988207504
0.000998858495
0.0009989097687
0.000998980707
0.000999082516
0.0009992342636
0.0009994893473
0.0003654660231
0.0004735966254
0.0002758367013
0.0001656736278
3.181282525e-05
3.495707012e-06
2.786628639e-07
1.694283006e-07
1.499239421e-07
1.356106582e-07
1.255712768e-07
1.180039544e-07
1.137946371e-07
1.142757763e-07
1.023091397e-07
9.826376632e-08
1.017415458e-07
1.091258004e-07
1.19413969e-07
1.331817794e-07
1.515365796e-07
1.759700075e-07
2.084489664e-07
2.51598388e-07
3.089529116e-07
3.853447637e-07
4.874491813e-07
6.246191844e-07
8.101007669e-07
1.062915639e-06
1.41080427e-06
1.895682853e-06
2.586598016e-06
3.615253961e-06
5.262761992e-06
8.143260916e-06
1.358358309e-05
2.443566149e-05
4.684978134e-05
9.419848789e-05
0.0001958538805
0.0004169793944
0.0009034412417
0.00100154349
0.001000724117
0.0009997491073
0.0009992029292
0.0009989483062
0.0009988346053
0.0009987890997
0.0009987773909
0.0009987837708
0.0009988016836
0.000998829281
0.0009988674941
0.0009989194342
0.000998991206
0.0009990938851
0.0009992462583
0.0009995008545
0.0003867337631
0.0004120785743
0.0002474079942
0.0001469673706
1.723494018e-05
1.333025931e-06
1.86439141e-07
1.426942384e-07
1.283431752e-07
1.165588102e-07
1.0835504e-07
1.023867631e-07
9.949295458e-08
9.99645534e-08
9.057740673e-08
9.021974994e-08
9.553284759e-08
1.038883591e-07
1.151104192e-07
1.299855778e-07
1.496744193e-07
1.757091212e-07
2.101142763e-07
2.555997235e-07
3.158195631e-07
3.957843422e-07
5.024242301e-07
6.454656836e-07
8.386974057e-07
1.10193927e-06
1.464105061e-06
1.968887503e-06
2.688337453e-06
3.760413257e-06
5.480835826e-06
8.497013683e-06
1.420801278e-05
2.561984101e-05
4.921248301e-05
9.907061701e-05
0.000206117167
0.0004389142817
0.0009508256999
0.001001503756
0.001000662838
0.0009997027451
0.0009991891751
0.0009989484434
0.0009988402013
0.0009987965687
0.000998785366
0.0009987918637
0.0009988099142
0.0009988378227
0.0009988765573
0.0009989292155
0.0009990018726
0.0009991054547
0.0009992584267
0.0009995123751
0.0004125634084
0.0003783139097
0.0002338411823
0.0001263817123
1.002017841e-05
4.797363371e-07
1.428791626e-07
1.213163266e-07
1.101598404e-07
1.004419321e-07
9.383261099e-08
8.927299697e-08
8.740483956e-08
8.668400401e-08
8.159700883e-08
8.40926282e-08
9.063160733e-08
9.981248417e-08
1.119353739e-07
1.278865152e-07
1.488618088e-07
1.764358107e-07
2.126936478e-07
2.604319116e-07
3.234310415e-07
4.06884144e-07
5.179846646e-07
6.668429923e-07
8.67807734e-07
1.141522186e-06
1.518116542e-06
2.043139716e-06
2.791830775e-06
3.908869602e-06
5.705687856e-06
8.865343584e-06
1.486423431e-05
2.687361781e-05
5.172812276e-05
0.0001042807609
0.0002171325163
0.0004625331611
0.001002005788
0.001001460942
0.001000597796
0.0009996596673
0.0009991764592
0.0009989487415
0.0009988456682
0.0009988038549
0.0009987931898
0.0009987998613
0.0009988181082
0.0009988463833
0.0009988856912
0.0009989391173
0.000999012708
0.0009991172161
0.0009992707495
0.0009995238998
0.0004401230968
0.000364880714
0.0002289321383
8.518639207e-05
5.000164256e-06
1.94621663e-07
1.178948659e-07
1.035677197e-07
9.465814187e-08
8.688967196e-08
8.152255467e-08
7.813133765e-08
7.726150133e-08
7.628270724e-08
7.486967929e-08
7.933193824e-08
8.678198866e-08
9.671394947e-08
1.097050547e-07
1.266895749e-07
1.488948748e-07
1.779406436e-07
2.159747024e-07
2.658834412e-07
3.3157791e-07
4.184388086e-07
5.339304449e-07
6.885574715e-07
8.972449065e-07
1.18148408e-06
1.572663726e-06
2.118267985e-06
2.896911074e-06
4.060476884e-06
5.937247162e-06
9.248387253e-06
1.555289161e-05
2.819882557e-05
5.44012945e-05
0.000109839896
0.0002289256213
0.0004878954744
0.001002134525
0.001001415256
0.001000528866
0.0009996196783
0.0009991647355
0.0009989492037
0.0009988510211
0.0009988109734
0.0009988008749
0.0009988077737
0.0009988262738
0.0009988549699
0.0009988949011
0.000998949143
0.0009990237116
0.0009991291592
0.0009992832166
0.0009995354158
0.0004840685872
0.0003667259981
0.0002288952881
4.145807294e-05
1.354324463e-06
1.197859971e-07
1.000088418e-07
8.896599296e-08
8.175926028e-08
7.537626845e-08
7.111231703e-08
6.882673629e-08
6.891974724e-08
6.842387995e-08
6.990230628e-08
7.565486116e-08
8.380335474e-08
9.443796357e-08
1.082570824e-07
1.262239471e-07
1.495981899e-07
1.800461505e-07
2.197805537e-07
2.717800537e-07
3.400902305e-07
4.302841698e-07
5.501044363e-07
7.104599216e-07
9.268679103e-07
1.221692154e-06
1.627621479e-06
2.194154539e-06
3.003471996e-06
4.215161702e-06
6.175536287e-06
9.646411166e-06
1.627482842e-05
2.959764385e-05
5.723725892e-05
0.0001157603851
0.0002415251994
0.000515067423
0.001002103442
0.001001366924
0.001000455899
0.0009995825856
0.000999153956
0.0009989498309
0.0009988562739
0.0009988179387
0.0009988084335
0.0009988156107
0.0009988344192
0.0009988635887
0.0009989041914
0.0009989592947
0.0009990348812
0.0009991412727
0.0009992958289
0.0009995469079
0.0005251909716
0.0003604354925
0.0002233554815
1.940198359e-05
3.26189153e-07
9.637858467e-08
8.599289906e-08
7.696134919e-08
7.093492403e-08
6.57229848e-08
6.246558586e-08
6.121492377e-08
6.221243397e-08
6.268680948e-08
6.62220954e-08
7.280837523e-08
8.154683487e-08
9.28428261e-08
1.074443217e-07
1.263388814e-07
1.508205081e-07
1.826022732e-07
2.239642607e-07
2.779797758e-07
3.488325746e-07
4.422925719e-07
5.663877324e-07
7.324409613e-07
9.565771143e-07
1.262056805e-06
1.68291033e-06
2.270731039e-06
3.111462895e-06
4.372917038e-06
6.42066172e-06
1.00597956e-05
1.703105774e-05
3.107253509e-05
6.024180314e-05
0.0001220556539
0.0002549622383
0.0005441203141
0.001002068945
0.001001316199
0.001000378697
0.0009995482034
0.0009991440716
0.0009989506223
0.0009988614389
0.0009988247648
0.0009988158774
0.0009988233817
0.0009988425515
0.0009988722452
0.0009989135654
0.0009989695735
0.0009990462127
0.0009991535455
0.0009993085805
0.0009995583609
0.0005640208742
0.0003500257183
0.0002096351524
9.628871003e-06
1.262471347e-07
8.242051329e-08
7.440884679e-08
6.699601109e-08
6.191104933e-08
5.769150218e-08
5.537153535e-08
5.509581673e-08
5.692474277e-08
5.858005749e-08
6.344698394e-08
7.061401776e-08
7.988434519e-08
9.180086332e-08
1.071372434e-07
1.269051484e-07
1.524345124e-07
1.854855588e-07
2.284077419e-07
2.843717738e-07
3.577028628e-07
4.543722239e-07
5.826997096e-07
7.544321461e-07
9.863170675e-07
1.302536567e-06
1.738504099e-06
2.347989279e-06
3.220903122e-06
4.533820581e-06
6.672836906e-06
1.048906303e-05
1.782279614e-05
3.262628016e-05
6.34212588e-05
0.0001287401306
0.0002692696831
0.0005751294871
0.001002031257
0.001001263362
0.001000296992
0.0009995163553
0.000999135034
0.0009989515756
0.0009988665276
0.0009988314643
0.0009988232175
0.0009988310953
0.0009988506773
0.0009988809436
0.0009989230251
0.0009989799789
0.0009990577002
0.000999165966
0.0009993214572
0.0009995697592
0.0005824827054
0.000339046053
0.000185648561
5.6376765e-06
9.400746233e-08
7.121614349e-08
6.479407588e-08
5.867281106e-08
5.436870572e-08
5.103312888e-08
4.962038853e-08
5.02595937e-08
5.282712455e-08
5.563078979e-08
6.131877696e-08
6.894388919e-08
7.870558973e-08
9.120187491e-08
1.072260218e-07
1.278150172e-07
1.54335155e-07
1.885955161e-07
2.330161987e-07
2.908684049e-07
3.666214957e-07
4.664526607e-07
5.989795493e-07
7.763828532e-07
1.016048027e-06
1.343103323e-06
1.794387456e-06
2.425929477e-06
3.33181858e-06
4.697955529e-06
6.932279597e-06
1.093473693e-05
1.865125442e-05
3.426164415e-05
6.678193195e-05
0.0001358282236
0.0002844805218
0.0006081705803
0.001001990584
0.001001208743
0.001000221211
0.0009994868755
0.0009991267965
0.0009989526878
0.00099887155
0.0009988380493
0.000998830464
0.0009988387592
0.0009988588021
0.0009988896874
0.0009989325712
0.0009989905087
0.0009990693359
0.0009991785212
0.0009993344434
0.0009995810837
0.0005698330995
0.0003337269588
0.0001533184813
2.180700728e-06
7.66854391e-08
6.20073306e-08
5.676914119e-08
5.168760822e-08
4.805979821e-08
4.555311479e-08
4.502925273e-08
4.649773145e-08
4.968180874e-08
5.346148663e-08
5.967362431e-08
6.769610861e-08
7.791390256e-08
9.095035075e-08
1.076176728e-07
1.289793272e-07
1.564378402e-07
1.918537463e-07
2.377186989e-07
2.974071692e-07
3.755351637e-07
4.784903593e-07
6.151941224e-07
7.982707059e-07
1.04575908e-06
1.383758424e-06
1.850575363e-06
2.504583449e-06
3.444268954e-06
4.865442281e-06
7.199248696e-06
1.139738481e-05
1.951768635e-05
3.598142477e-05
7.033012521e-05
0.0001433342337
0.0003006273664
0.0006433181818
0.001001947117
0.001001152281
0.001000150934
0.0009994596091
0.0009991193138
0.0009989539547
0.0009988765146
0.0009988445304
0.0009988376262
0.0009988463804
0.0009988669304
0.0009988984783
0.0009989422029
0.0009990011594
0.0009990811099
0.0009991911966
0.0009993475214
0.0009995923139
0.000553487199
0.0003312153758
8.206726794e-05
7.376737329e-07
6.507246083e-08
5.444870939e-08
5.008990314e-08
4.58422683e-08
4.281830075e-08
4.111153751e-08
4.143384295e-08
4.361084711e-08
4.712755578e-08
5.182078128e-08
5.84067659e-08
6.678877975e-08
7.742898069e-08
9.096759108e-08
1.082363096e-07
1.30325758e-07
1.586748791e-07
1.951981605e-07
2.424597563e-07
3.03939489e-07
3.844028526e-07
4.904519038e-07
6.313180131e-07
8.200783918e-07
1.075441291e-06
1.424501669e-06
1.907077101e-06
2.583972483e-06
3.558297669e-06
5.036376998e-06
7.47396417e-06
1.187750482e-05
2.042321349e-05
3.778815711e-05
7.40716076e-05
0.0001512713529
0.0003177404857
0.0006806418414
0.001001901049
0.00100109391
0.001000085776
0.0009994344124
0.000999112543
0.0009989553717
0.000998881429
0.0009988509172
0.0009988447121
0.0009988539647
0.0009988750657
0.0009989073172
0.0009989519184
0.0009990119258
0.00099909301
0.0009992039764
0.0009993606718
0.0009996034298
0.0005328955935
0.0003259997521
4.483778943e-05
2.772027621e-07
5.64780977e-08
4.822457441e-08
4.451929556e-08
4.094837429e-08
3.849423974e-08
3.75721585e-08
3.86597243e-08
4.140682036e-08
4.530395731e-08
5.055358032e-08
5.744034886e-08
6.615161607e-08
7.718232196e-08
9.118778382e-08
1.09019731e-07
1.317962753e-07
1.609941936e-07
1.985829222e-07
2.472004959e-07
3.104336486e-07
3.932006502e-07
5.023212645e-07
6.473433237e-07
8.418064624e-07
1.105103933e-06
1.465351604e-06
1.963921307e-06
2.664137994e-06
3.67396905e-06
5.210876219e-06
7.756660685e-06
1.237559068e-05
2.136890216e-05
3.968419644e-05
7.801166604e-05
0.0001596515637
0.0003358471956
0.0007202040277
0.001001852573
0.001001033542
0.00100002538
0.0009994111515
0.0009991064429
0.0009989569336
0.0009988862996
0.000998857218
0.0009988517288
0.0009988615169
0.0009988832101
0.0009989162033
0.000998961714