/*--------------------------------*- C++ -*----------------------------------*\
  =========                 |
  \\      /  F ield         | OpenFOAM: The Open Source CFD Toolbox
   \\    /   O peration     | Website:  https://openfoam.org
    \\  /    A nd           | Version:  12
     \\/     M anipulation  |
\*---------------------------------------------------------------------------*/
FoamFile
{
    format      ascii;
    class       surfaceScalarField;
    location    "650";
    object      phi;
}
// * * * * * * * * * * * * * * * * * * * * * * * * * * * * * * * * * * * * * //

dimensions      [1 0 -1 0 0 0 0];

internalField   nonuniform List<scalar> 
32120
(
-0.0006297917565
-0.04539518925
0.04602498101
-0.001416948483
-0.06451142544
0.06529858402
-0.002389148271
-0.08387259743
0.08484479849
-0.003562027847
-0.1065919099
0.1077647908
-0.004862075346
-0.1345841425
0.1358841916
-0.006082162924
-0.1702733965
0.1714934865
-0.007148371125
-0.2165058474
0.2175720593
-0.009994832532
-0.2731051302
0.2759515976
-0.01759321942
-0.3316815456
0.3392799418
-0.02798910136
-0.3954679209
0.4058638157
-0.04037820521
-0.4707147886
0.4831039087
-0.05508360232
-0.5604021426
0.5751075592
-0.07256271982
-0.6670989391
0.6845780795
-0.09333987705
-0.7941476242
0.814924808
-0.11803069
-0.9453340222
0.9700248657
-0.147372134
-1.125291962
1.154633441
-0.182233583
-1.339434824
1.374296312
-0.2236526261
-1.594256566
1.635675652
-0.2728588267
-1.897424205
1.946630453
-0.3313179107
-2.258060858
2.316519993
-0.4007734286
-2.686961224
2.756416795
-0.4833067229
-3.19691255
3.279445901
-0.5814054867
-3.803020957
3.901119774
-0.6980539015
-4.523107086
4.639755557
-0.8368423753
-5.378140905
5.516929423
-1.002104607
-6.392744288
6.558006568
-1.199084674
-7.595764005
7.7927441
-1.43413291
-9.02095431
9.256002576
-1.714917159
-10.70783468
10.98861895
-2.050611408
-12.7028463
13.03854061
-2.452014754
-15.06097611
15.46237952
-2.931582039
-17.84800722
18.3275746
-3.503430511
-21.14342861
21.71527719
-4.183468124
-25.04385077
25.72388847
-4.989784442
-29.66669389
30.47301031
-5.943327757
-35.15406379
36.1076072
-7.06876318
-41.67694949
42.80238501
-8.395327176
-49.44006472
50.76662885
-9.957538216
-58.68762196
60.24983309
-11.79567796
-69.71038462
71.54852451
-13.95604152
-82.85425875
85.01462236
-16.49093078
-98.53084519
101.0657346
-19.45831522
-117.2302822
120.1976667
-22.92097807
-139.5368961
142.9995591
-26.94481493
-166.148138
170.1719748
-31.59580045
-197.8975297
202.5485153
-36.93488555
-235.782392
241.1214771
-43.00978612
-280.9974867
287.0723874
-49.84215299
-334.9759171
341.8082839
-57.40796214
-399.4390766
407.0048858
-65.60801086
-476.4578886
484.6579373
-74.22407936
-568.5282611
577.1443296
-82.85434956
-678.6645455
687.2948157
-90.81899801
-810.5159056
818.480554
-97.02295538
-968.5122099
974.7161673
-99.75720446
-1158.047933
1160.782182
-96.41256568
-1385.717256
1382.372617
-83.06690319
-1659.615475
1646.269813
-53.89471195
-1989.706918
1960.534727
-2388.370151
2334.797082
-0.0005574906389
-0.04483769776
-0.001265052575
-0.06380386166
-0.002130270213
-0.08300737831
-0.003153752465
-0.105568426
-0.004265607606
-0.1334722851
-0.005302874576
-0.1692361261
-0.006296306648
-0.2155124097
-0.0101490844
-0.2692523436
-0.0175890501
-0.3242415673
-0.02681071522
-0.3862462395
-0.03777260161
-0.4597528825
-0.05081817679
-0.5473565443
-0.06633664649
-0.6515804426
-0.0848004211
-0.7756838188
-0.1067629624
-0.9233714457
-0.1328895465
-1.099165338
-0.1639642206
-1.308360106
-0.2009241724
-1.557296565
-0.2448800487
-1.853468276
-0.2971574136
-2.205783436
-0.359336128
-2.624782452
-0.4333085548
-3.122940061
-0.5213473006
-3.714982156
-0.6261931094
-4.418261217
-0.7511639925
-5.253169977
-0.9002938463
-6.243614385
-1.078503589
-7.417554231
-1.291797549
-8.807660305
-1.547457242
-10.4521749
-1.854182135
-12.3961213
-2.22212344
-14.69303466
-2.662810329
-17.40732009
-3.189072127
-20.61716665
-3.815140076
-24.41778244
-4.55706128
-28.9247726
-5.433407949
-34.2777165
-6.466137737
-40.64421964
-7.681423564
-48.22477805
-9.110329693
-57.25871582
-10.78926839
-68.03144504
-12.76023273
-80.88329441
-15.07078264
-96.22029464
-17.77372134
-114.5273437
-20.92629524
-136.384322
-24.58862921
-162.485804
-28.8209598
-193.6651988
-33.67899835
-230.9243533
-39.20647784
-275.470007
-45.42351661
-328.7588781
-52.30883172
-392.5537614
-59.77297982
-468.9937403
-67.6185757
-560.6826652
-75.48172717
-670.8013939
-82.7463419
-803.2512909
-88.41960024
-962.8389514
-90.95166571
-1155.515868
-87.97587772
-1388.693043
-75.93433386
-1671.657019
-49.54169765
-2016.099554
-2436.893352
-0.0004381960889
-0.04439950048
-0.0009773392885
-0.06326471605
-0.001620630287
-0.08236408534
-0.002333622342
-0.1048554317
-0.003000910905
-0.1328049933
-0.003491037312
-0.1687459948
-0.004177837924
-0.2148256011
-0.008276629052
-0.2651535404
-0.01503836238
-0.3174798174
-0.02325458395
-0.3780299971
-0.0330187034
-0.4499887382
-0.04463679936
-0.5357384194
-0.05845594616
-0.6377612624
-0.07489779173
-0.759241935
-0.09445377829
-0.903815416
-0.1177166188
-1.075902449
-0.1453847471
-1.280691925
-0.1782955461
-1.524385708
-0.2174448858
-1.814318876
-0.2640272106
-2.159201048
-0.319474137
-2.569335465
-0.38551024
-3.056903894
-0.4642188702
-3.636273472
-0.5581301179
-4.324349913
-0.6703351874
-5.140964872
-0.8046344105
-6.109315123
-0.9657130743
-7.25647555
-1.15932592
-8.614047438
-1.392448584
-10.21905222
-1.673337587
-12.11523224
-2.011454722
-14.35491747
-2.417300511
-17.0014742
-2.90231817
-20.13214895
-3.479054688
-23.84104579
-4.161654513
-28.24217275
-4.966600616
-33.47277021
-5.913536527
-39.69728373
-7.026019699
-47.11229465
-8.33211846
-55.95261707
-9.864820851
-66.49874243
-11.66224459
-79.08587072
-13.76762855
-94.11491051
-16.22903827
-112.0659341
-19.09863309
-133.5147271
-22.43124499
-159.1531922
-26.28185903
-189.8145847
-30.70140982
-226.5048025
-35.73002851
-270.4413883
-41.38650088
-323.1024057
-47.65215128
-386.2881109
-54.44660159
-462.19929
-61.59172822
-553.5375385
-68.75857154
-663.6345506
-75.38969605
-796.6201664
-80.58628802
-957.6423594
-82.94476795
-1153.157388
-80.32122957
-1391.316582
-69.49213591
-1682.486113
-45.66800248
-2039.923688
-2480.762787
-0.0003314212908
-0.04406807792
-0.0007254031991
-0.06287073169
-0.001180296319
-0.08190919016
-0.001628083086
-0.1044076425
-0.001896526042
-0.132536547
-0.001860423037
-0.1687820924
-0.002761966023
-0.2139240496
-0.006987006285
-0.2609284874
-0.01305537937
-0.3114114274
-0.02031170067
-0.370773655
-0.02893503552
-0.4413653788
-0.03919689127
-0.5254765351
-0.05140162388
-0.625556497
-0.0659239298
-0.7447195916
-0.08319943806
-0.8865398655
-0.103756468
-1.055345372
-0.1282190603
-1.256229281
-0.1573383532
-1.495266359
-0.1920108147
-1.779646357
-0.2333152233
-2.117896577
-0.282549651
-2.520100978
-0.3412863697
-2.998167114
-0.4114414534
-3.56611834
-0.4953710888
-4.240420226
-0.5959967099
-5.040339221
-0.7169576594
-5.988354142
-0.8627788188
-7.110654375
-1.039024354
-8.437801893
-1.252385002
-10.00569155
-1.510635668
-11.85698154
-1.822451288
-14.04310181
-2.197195019
-16.6267304
-2.644878559
-19.68446536
-3.176438916
-23.30948534
-3.804316125
-27.61429551
-4.54319301
-32.73389321
-5.410739778
-38.82973693
-6.428261352
-46.09477292
-7.621204008
-54.7596744
-9.019507267
-65.10043901
-10.65779811
-77.44757987
-12.57538998
-92.19731853
-14.81602505
-109.825299
-17.42721631
-130.9035357
-20.45895999
-156.1214486
-23.96145613
-186.3120885
-27.98130494
-222.4849537
-32.55539717
-265.867296
-37.70137865
-317.9564242
-43.40307339
-380.5864162
-49.58855038
-456.013813
-56.09751055
-547.0285784
-62.63322774
-657.0988334
-68.69231124
-790.5610829
-73.46245061
-952.8722201
-75.67455079
-1150.945287
-73.38942576
-1393.601707
-63.69071433
-1692.184824
-42.24433636
-2061.370066
-2520.337504
-0.0002289302335
-0.04383914607
-0.0004755375593
-0.06262412178
-0.0007352594951
-0.08164946595
-0.0009180883962
-0.1042248108
-0.0008106309797
-0.1326440004
-0.0002698804575
-0.1693228366
-0.001548600043
-0.21264532
-0.005600678808
-0.2568763945
-0.01093314224
-0.3060789458
-0.01728294378
-0.3644238316
-0.02483538647
-0.4338129105
-0.03382930946
-0.5164825826
-0.04453279684
-0.6148529758
-0.05727891197
-0.7319734381
-0.07245384611
-0.8713648885
-0.09052736169
-1.037271809
-0.1120547059
-1.234701886
-0.1377053117
-1.469615699
-0.1682806314
-1.749070982
-0.2047500564
-2.081427094
-0.2482909947
-2.476559987
-0.3003485459
-2.946109507
-0.3627135667
-3.503753277
-0.4376259898
-4.165507756
-0.5279023796
-4.950062806
-0.6370833958
-5.879173102
-0.769583821
-6.978153936
-0.930801407
-8.276584298
-1.127116424
-9.809376509
-1.365731834
-11.61836608
-1.654410003
-13.75442358
-2.001287805
-16.27985254
-2.414962457
-19.27079066
-2.904901815
-22.81954591
-3.482077347
-27.03711992
-4.159657371
-32.0563131
-4.953643353
-38.0357509
-5.883399212
-45.16501695
-6.97206673
-53.67100684
-8.246867318
-63.8256383
-9.739278971
-75.95516821
-11.48505173
-90.45154569
-13.52398868
-107.7863621
-15.89936334
-128.528161
-18.65676276
-153.3640492
-21.84203509
-183.1268161
-25.49785557
-218.8291332
-29.65821337
-261.7069381
-34.33979978
-313.2748378
-39.52884998
-375.397366
-45.1613257
-450.3813373
-51.09345557
-541.0964485
-57.05833194
-651.1339571
-62.60237169
-785.0170431
-66.99298236
-948.4816094
-69.08483325
-1148.853437
-67.12705352
-1395.559487
-58.48568264
-1700.826195
-39.2451801
-2080.610568
-2555.942599
-0.0001459157759
-0.04369322871
-0.0002619325548
-0.06250810259
-0.0003396291155
-0.08157176721
-0.0002583213128
-0.1043061159
0.0002123230641
-0.1331146407
0.001009242826
-0.17011975
-0.0005462412407
-0.2110898263
-0.004127883487
-0.2532947391
-0.008788492596
-0.3014183201
-0.01433327999
-0.3588790244
-0.02092930879
-0.4272168587
-0.02878643378
-0.5086254311
-0.03813794923
-0.6055014301
-0.04927615815
-0.7208351951
-0.06253928342
-0.8581017254
-0.07834028738
-1.021470764
-0.09716948306
-1.215872646
-0.1196219471
-1.447163187
-0.1464176744
-1.722275206
-0.1784389669
-2.049405752
-0.2167747945
-2.438224114
-0.2627841473
-2.900100107
-0.3181784323
-3.448358957
-0.3851274264
-4.098558723
-0.4663873322
-4.868802878
-0.5654410285
-5.780119385
-0.6866198257
-6.856975121
-0.8351429996
-8.128061104
-1.017002146
-9.627517336
-1.238695759
-11.39667243
-1.50695272
-13.48616658
-1.828655972
-15.95814924
-2.211089009
-18.88835758
-2.662454418
-22.36818045
-3.192507037
-26.50706726
-3.813160194
-31.43565987
-4.538998801
-37.30991225
-5.387696417
-44.31631925
-6.380350956
-52.67835227
-7.541746138
-62.66424303
-8.900516434
-74.59639788
-10.48917975
-88.86288231
-12.34395772
-105.9315841
-14.50426595
-126.3678528
-17.01168598
-150.8566291
-19.90812009
-180.230382
-23.23270487
-215.5045484
-27.01684645
-257.9227965
-31.27646702
-309.0152172
-36.00014011
-370.6736929
-41.13123733
-445.2502401
-46.54135821
-535.6863276
-51.99117447
-645.6841408
-57.07315376
-779.9350639
-61.12820972
-944.4265534
-63.12503907
-1146.856607
-61.48616283
-1397.198363
-53.83746126
-1708.474897
-36.64837473
-2097.799655
-2587.871872
-7.764854148e-05
-0.0436155787
-7.396843429e-05
-0.06251178061
3.134055245e-05
-0.08167707424
0.0004021155237
-0.1046768884
0.001287967914
-0.1340004894
0.001978636226
-0.1708104124
0.0002966614926
-0.209407843
-0.003037410265
-0.2499606559
-0.007060863597
-0.2973948528
-0.01184687239
-0.3540929991
-0.01753859292
-0.421525119
-0.02431906904
-0.501844933
-0.03238989282
-0.5974305814
-0.0420064006
-0.7112186592
-0.05346508561
-0.8466430093
-0.06713070036
-1.007805115
-0.08344073079
-1.199562579
-0.1029320506
-1.427671829
-0.1262635529
-1.698943666
-0.1542547121
-2.021414552
-0.187932735
-2.404546056
-0.2285984963
-2.859434306
-0.2779136807
-3.399043744
-0.3380121353
-4.038460236
-0.4116292553
-4.795185738
-0.502225105
-5.68952352
-0.6140507622
-6.745149441
-0.7520848736
-7.990026965
-0.9218004459
-9.457801725
-1.128847436
-11.18962539
-1.378851
-13.23616296
-1.67750008
-15.6595001
-2.030942253
-18.53491535
-2.44635193
-21.95277072
-2.932508439
-26.0209107
-3.500288458
-30.8678798
-4.163060121
-36.64714054
-4.937004559
-43.54237474
-5.841390118
-51.77396667
-6.898801523
-61.60683156
-8.135301549
-73.35989783
-9.58047679
-87.41770702
-11.2672993
-104.2447616
-13.23168655
-124.4034655
-15.51158933
-148.5767263
-18.14534738
-177.5966239
-21.16892235
-212.4809734
-24.61144385
-254.480275
-28.48824075
-305.1384203
-32.79018327
-366.3717503
-37.46761971
-440.5728037
-42.40647989
-530.7474674
-47.39304122
-640.6975795
-52.06236158
-775.2657435
-55.82324352
-940.6656715
-57.74960235
-1144.930248
-56.42374178
-1398.524223
-49.7108904
-1715.187748
-34.43491973
-2113.075625
-2616.390225
-1.908695909e-05
-0.04359649045
9.433180726e-05
-0.0626251976
0.0003877664754
-0.08197050719
0.001058438024
-0.1053475577
0.002355389391
-0.1352974374
0.002745171339
-0.1712001892
0.0007762708508
-0.2074389352
-0.002176166106
-0.2470082095
-0.005577819645
-0.2939931878
-0.009633814395
-0.3500369909
-0.01446358185
-0.416695336
-0.02022719327
-0.4960813038
-0.02709985764
-0.5905578969
-0.03530572143
-0.7030127729
-0.04510690856
-0.8368417975
-0.05682842801
-0.9960835683
-0.07086497398
-1.185526005
-0.08770654699
-1.410830225
-0.1079635755
-1.678686608
-0.1324071215
-1.996970973
-0.162021144
-2.374932006
-0.198074894
-2.823380525
-0.2422169341
-3.354901682
-0.2965887797
-3.984088363
-0.3639442137
-4.727830285
-0.4477328004
-5.605734918
-0.5520785539
-6.640803664
-0.6815991603
-7.860506325
-0.8410934854
-9.29830736
-1.035256772
-10.99546205
-1.268627079
-13.00279261
-1.545846863
-15.38228027
-1.872153174
-18.208609
-2.253927912
-21.57099594
-2.699179651
-25.57565892
-3.217918373
-30.34914103
-3.822446553
-36.04261232
-4.527607933
-42.83721331
-5.351017486
-50.95055708
-6.313270081
-60.6445789
-7.438097653
-72.23507023
-8.752434361
-86.10337027
-10.28631002
-102.7108859
-12.07247801
-122.6172975
-14.14561302
-146.5035913
-16.54085248
-175.2013844
-19.29132883
-209.7304971
-22.42418435
-251.3474195
-25.95433653
-301.6082681
-29.87492139
-362.4511655
-34.14289486
-436.3048302
-38.65759224
-526.23277
-43.22909795
-636.1260738
-47.53196585
-770.9628756
-51.03780993
-937.1598274
-52.91772527
-1143.050333
-51.90149519
-1399.540454
-46.07503981
-1721.014203
-32.58886209
-2126.561803
-2641.735888
3.486976011e-05
-0.04363135918
0.0002600932439
-0.06285041936
0.0007507095395
-0.08246112184
0.001713292638
-0.1063101386
0.003250203773
-0.1368343453
0.003327216788
-0.1712771975
0.001335120109
-0.205446832
-0.001071593201
-0.2446014878
-0.00393902091
-0.2911257499
-0.007362779497
-0.3466132205
-0.01144150201
-0.4126165999
-0.01631410881
-0.4912086814
-0.02213251337
-0.5847394748
-0.02909343604
-0.6960518305
-0.03742993663
-0.8285052754
-0.04743397451
-0.986079507
-0.0594657613
-1.173494194
-0.07397881112
-1.396317149
-0.09154839427
-1.661116999
-0.1129156352
-1.975603705
-0.139047727
-2.348799892
-0.1712183348
-2.791209891
-0.2111053003
-3.315014698
-0.2608959327
-3.934297708
-0.3233760184
-4.665350177
-0.4019480086
-5.527162908
-0.5005040906
-6.542247556
-0.6231472484
-7.737863131
-0.7738708605
-9.147583704
-0.9563901445
-10.81294272
-1.174267665
-12.78491503
-1.431308424
-15.12523946
-1.732072578
-17.9078448
-2.082353482
-21.22071499
-2.489546476
-25.16846589
-2.962917373
-29.87577009
-3.513815214
-35.49171445
-4.155870243
-42.19515822
-4.905194504
-50.20123279
-5.780576149
-59.7691972
-6.803638417
-71.21200793
-7.99891582
-84.90809283
-9.393783902
-101.3160178
-11.01814391
-120.9929374
-12.90372864
-144.6180065
-15.08281305
-173.0223
-17.5860256
-207.2272845
-20.43880328
-248.4946418
-23.65582745
-298.3912439
-27.23249692
-358.874496
-31.13205677
-432.4052703
-35.2664242
-522.0984026
-39.46789997
-631.924598
-43.44771739
-766.9830582
-46.73571769
-933.8718271
-48.59291277
-1141.193138
-47.885391
-1400.247975
-42.90282321
-1725.996771
-31.09710221
-2138.367524
-2664.122347
9.072487399e-05
-0.04372208321
0.0004398052377
-0.06319949812
0.001143474212
-0.08316478929
0.002429641177
-0.1075963036
0.003935171146
-0.1383398723
0.003418110724
-0.1707601328
0.001776882443
-0.2038055979
-0.0002232969309
-0.2426013012
-0.002592860233
-0.288756178
-0.005429349457
-0.3437767212
-0.008815808787
-0.409230129
-0.01287316792
-0.4871513091
-0.01773434751
-0.5798782803
-0.02357278
-0.6902133814
-0.03059712089
-0.8214809164
-0.03907208216
-0.9776045258
-0.04933142307
-1.163234832
-0.06180478841
-1.383843761
-0.07705150043
-1.645870266
-0.09580956884
-1.956845614
-0.1190611369
-2.325548305
-0.148116344
-2.762154662
-0.1847101272
-3.278420899
-0.2310886337
-3.887919185
-0.2900450657
-4.606393722
-0.3648479161
-5.452360035
-0.4590155426
-6.448079901
-0.5759926453
-7.620885993
-0.7189051198
-9.004671189
-0.8905593905
-10.64128841
-1.0937275
-12.58174688
-1.331606262
-14.88736066
-1.608286913
-17.63116411
-1.9291301
-20.89987177
-2.301026699
-24.79656925
-2.732583013
-29.44421374
-3.234278989
-34.99001844
-3.818634189
-41.61080298
-4.50038981
-49.51947714
-5.296694945
-58.97289203
-6.227265532
-70.28143732
-7.314473595
-83.82088474
-8.583306222
-100.0471852
-10.06110746
-119.5151362
-11.77697906
-142.9021349
-13.76065597
-171.0386231
-16.04057457
-204.9473659
-18.64073302
-245.8944833
-21.57575959
-295.4562174
-24.84332629
-355.6069293
-28.41269994
-428.8358967
-32.20766243
-518.3034401
-36.08129093
-628.0509695
-39.77899437
-763.2853547
-42.88469203
-930.7661294
-44.74276724
-1139.335063
-44.34544806
-1400.645294
-40.1708369
-1730.171382
-29.94927568
-2148.589085
-2683.740166
0.0001465595272
-0.04386864177
0.0006275151467
-0.06368045202
0.001546612939
-0.08408388538
0.003161554252
-0.1092112427
0.004456526888
-0.1396348416
0.003676196798
-0.169979798
0.002309406451
-0.2024388016
0.0006792942982
-0.2409711817
-0.001258164155
-0.2868187108
-0.003584746209
-0.3414501289
-0.006369989918
-0.4064448736
-0.009717827146
-0.4838034586
-0.01374382709
-0.5758522657
-0.01860082687
-0.6853563654
-0.02447805717
-0.8156036686
-0.03162204951
-0.9704605147
-0.04035299135
-1.154503871
-0.0510943822
-1.37310235
-0.06441273147
-1.632551898
-0.08106949019
-1.940188835
-0.102089169
-2.30452861
-0.1288412831
-2.73540253
-0.1631273816
-3.244134786
-0.2072362682
-3.843810284
-0.263904094
-4.549725876
-0.3361417204
-5.380122382
-0.426947456
-6.357274138
-0.5390170797
-7.508816335
-0.6746384434
-8.869049785
-0.8358629818
-10.48006382
-1.024891184
-12.39271863
-1.24452323
-14.66772857
-1.498541905
-17.3771454
-1.791980059
-20.60643358
-2.131292895
-24.45725639
-2.52448458
-29.05102202
-2.981233439
-34.53326956
-3.513038503
-41.07899788
-4.133391387
-48.89912423
-4.857955414
-58.24832796
-5.704727703
-69.43466501
-6.694137904
-82.83147451
-7.849034044
-98.89228902
-9.194477258
-118.169693
-10.75723539
-141.3393768
-12.5648054
-169.231053
-14.6437267
-202.8684446
-17.01682288
-243.5213871
-19.69884649
-292.7741937
-22.6897782
-352.6159976
-25.96468582
-425.5609891
-29.45858396
-514.809542
-33.04406431
-624.4654891
-36.49846368
-759.8309554
-39.45604188
-927.8085512
-41.33862381
-1137.452481
-41.25544157
-1400.728477
-37.85911383
-1733.56771
-29.13764375
-2157.310555
-2700.75859
0.0001932884225
-0.04406192921
0.0008110460328
-0.06429820773
0.001945726382
-0.08521856383
0.0037626535
-0.1110281672
0.00456122502
-0.1404334095
0.003829706913
-0.169248275
0.002733228975
-0.2013423174
0.001433755845
-0.239671701
-0.0001132770975
-0.2852716689
-0.001976135432
-0.3395872602
-0.004214469559
-0.4042065276
-0.006919084461
-0.4810988304
-0.01019487959
-0.5725764558
-0.01418337617
-0.6813678527
-0.01906580093
-0.8107212268
-0.02508200696
-0.9644442906
-0.03255141021
-1.14703445
-0.04190445181
-1.36374929
-0.05372897985
-1.620727353
-0.06882649378
-1.925091303
-0.08828525358
-2.285069835
-0.1135518847
-2.710135882
-0.1464888064
-3.211197848
-0.1893757478
-3.800923328
-0.244787484
-4.494314124
-0.3153395497
-5.309570296
-0.4033992934
-6.269214367
-0.5109039486
-7.401311648
-0.6394205223
-8.740533176
-0.7904465091
-10.3290378
-0.9658230768
-12.21734203
-1.168121392
-14.46543021
-1.400923291
-17.14434346
-1.668995387
-20.33836146
-1.978397421
-24.14785433
-2.336573327
-28.69284609
-2.752457725
-34.11738514
-3.236613082
-40.59484249
-3.801394492
-48.3343428
-4.461125064
-57.58859736
-5.232258223
-68.66353183
-6.133486401
-81.93024631
-7.1857537
-97.8400217
-8.412097954
-116.9433487
-9.837228814
-139.9142459
-11.48669487
-167.581587
-13.38542355
-200.9697159
-15.55531445
-241.3514962
-18.01143024
-290.3180779
-20.7561108
-349.871317
-23.77005083
-422.547049
-26.99896208
-511.5806307
-30.33381614
-621.1306351
-33.58187772
-756.5828938
-36.42442127
-924.9660077
-38.35536974
-1135.521532
-38.59269854
-1400.491148
-35.95095801
-1736.209451
-28.65700109
-2164.604512
-2715.326944
0.0002452936084
-0.04430722183
0.001018178978
-0.06507109172
0.002406244364
-0.08660662772
0.004263173684
-0.1128850945
0.004596544862
-0.1407667779
0.003930645819
-0.1685823723
0.003104510424
-0.2005161774
0.002123240138
-0.2386904252
0.000942623097
-0.2840910454
-0.0004956711672
-0.3381489585
-0.002245743166
-0.4024564471
-0.004391392057
-0.4789531719
-0.007031693
-0.5699361443
-0.0103015835
-0.6780979506
-0.01437856466
-0.8066442333
-0.01950178084
-0.9593210612
-0.02599911405
-1.140537103
-0.03432307424
-1.355425316
-0.04509991804
-1.609950496
-0.0591911455
-1.911000062
-0.07776275236
-2.266498216
-0.1023392569
-2.685559363
-0.1348123204
-3.178724766
-0.1773648136
-3.758370816
-0.232281344
-4.439397574
-0.3016636706
-5.240187946
-0.3872058123
-6.183672202
-0.4901645142
-7.298352918
-0.6115625611
-8.619135095
-0.752551093
-10.18804923
-0.9147863324
-12.05510675
-1.100724582
-14.27949193
-1.31380724
-16.93126077
-1.55856503
-20.09360364
-1.840686252
-23.86573308
-2.167088857
-28.36644346
-2.54601908
-33.7384549
-2.98718329
-40.15367825
-3.501908097
-47.81961798
-4.103314215
-56.98719121
-4.806476086
-67.96036995
-5.628544445
-81.10817793
-6.588777858
-96.87978828
-7.708434269
-115.8236923
-9.010430061
-138.6122501
-10.51863986
-166.0733772
-12.25665012
-199.2317056
-14.24568548
-239.3624608
-16.50130508
-288.0624583
-19.02827882
-347.3443433
-21.81279922
-419.7625286
-24.81080781
-508.5826221
-27.93069192
-618.010751
-31.00786478
-753.5057209
-33.76761082
-922.2062616
-35.77118796
-1133.517955
-36.33785905
-1399.924477
-34.43277631
-1738.114533
-28.50462982
-2170.532659
-2727.575969
0.0002984833153
-0.04460570401
0.001226992435
-0.06599959905
0.002849965223
-0.08822959858
0.004579805107
-0.1146149318
0.00468383617
-0.1408708055
0.004183318134
-0.1680818498
0.00356536846
-0.1998982223
0.002821562578
-0.2379466128
0.001917405237
-0.2831868805
0.0008019571584
-0.3370335018
-0.000572804679
-0.4010816757
-0.002282957145
-0.4772430089
-0.004423467431
-0.5677956226
-0.007125938377
-0.6753954677
-0.01057185717
-0.8031983021
-0.01501415977
-0.954878746
-0.02080819129
-1.134743059
-0.02845025474
-1.34778324
-0.03862733847
-1.599773401
-0.05227530049
-1.897352087
-0.07063141284
-2.248142091
-0.09526739117
-2.660923371
-0.1280376985
-3.145954444
-0.1709196833
-3.715488817
-0.2257857163
-4.384531528
-0.2941577219
-5.171815926
-0.3770978889
-6.100732013
-0.4753290165
-7.200121764
-0.5895264299
-8.504937653
-0.7206735051
-10.05690212
-0.8703640549
-11.90541617
-1.041003799
-14.10885215
-1.235919921
-16.73634463
-1.459419269
-19.87010427
-1.716835598
-23.60831673
-2.01459426
-28.06868477
-2.360307736
-33.39274141
-2.762905727
-39.75108023
-3.232791867
-47.34973182
-3.782013413
-56.43796964
-4.424424594
-67.31795875
-5.175815586
-80.35678692
-6.053967631
-96.00163622
-7.078591592
-114.7990683
-8.271058574
-137.4197831
-9.653832682
-164.690603
-11.24942201
-197.6361162
-13.07862041
-237.5332624
-15.15767412
-285.9834046
-17.4938736
-345.0081438
-20.07881964
-417.1775826
-22.87830354
-505.7831382
-25.817285
-615.0717695
-28.75773982
-750.5652661
-31.46633996
-919.4976615
-33.56737918
-1131.416916
-34.4747305
-1399.017125
-33.29395024
-1739.295314
-28.68020056
-2175.146408
-2737.618914
0.000376513563
-0.044982217
0.001484184816
-0.06710726952
0.00325179057
-0.08999720345
0.004592937494
-0.1159560776
0.004527962056
-0.1408058285
0.004156397882
-0.1677102837
0.003722674973
-0.1994644971
0.003191438866
-0.2374153739
0.002536530106
-0.2825319685
0.001712202761
-0.3362091707
0.0006722400425
-0.4000417085
-0.0006570920856
-0.4759136717
-0.002375152453
-0.5660775564
-0.004622881757
-0.6731477319
-0.007599414537
-0.8002217621
-0.011585484
-0.9508926688
-0.01697618358
-1.129352351
-0.02432051836
-1.340438897
-0.03437261724
-1.589721292
-0.0481419132
-1.883582781
-0.06692373682
-2.229360255
-0.09227808626
-2.635569009
-0.125924832
-3.112307679
-0.1695272795
-3.671886349
-0.2244644448
-4.329594346
-0.2916855689
-5.104594784
-0.3717362756
-6.020681287
-0.4649847859
-7.106873231
-0.5719375516
-8.397984859
-0.6935409604
-9.935298683
-0.8313978214
-11.76755928
-0.9878895271
-13.95236042
-1.16623412
-16.55800001
-1.370519199
-19.66581916
-1.605740435
-23.37309547
-1.877865274
-27.79655991
-2.19392925
-33.07667742
-2.562163984
-39.38284547
-2.992151598
-46.9197442
-3.494991359
-55.93512985
-4.083466685
-66.72948341
-4.772179352
-79.66807424
-5.577632938
-95.19618262
-6.51820628
-113.858495
-7.613968015
-136.3240214
-8.886222255
-163.4183488
-10.35665523
-196.1656833
-12.04586858
-235.8440491
-13.97099524
-284.0582779
-16.14195516
-342.8371839
-18.55570954
-414.7638282
-21.1875964
-503.1512514
-23.97840651
-612.2809594
-26.81534124
-747.7283314
-29.50408292
-916.8089198
-31.72817533
-1129.192824
-32.99012429
-1397.755177
-32.52671058
-1739.758727
-29.18578398
-2178.487335
-2745.552571
0.0004875207114
-0.04546973687
0.001776281711
-0.06839602899
0.003565483307
-0.0917864034
0.004404772763
-0.116795365
0.004318244009
-0.140719297
0.004093577333
-0.1674856137
0.003834896232
-0.1992058119
0.00349831564
-0.2370787887
0.003061843459
-0.282095491
0.002480106399
-0.3356274276
0.001702484644
-0.3992640801
0.0006502153771
-0.4748613953
-0.0007860797964
-0.5646412538
-0.00276228696
-0.6711715171
-0.005500074729
-0.7974839664
-0.00931220298
-0.9470805329
-0.01463942545
-1.124025121
-0.02209261972
-1.332985695
-0.03249783773
-1.579316064
-0.04692808553
-1.869152522
-0.06669835061
-2.209589975
-0.09328216331
-2.608985181
-0.1281528161
-3.077437017
-0.1725758391
-3.627463317
-0.2274208171
-4.274749358
-0.2931454401
-5.03887015
-0.3699365986
-5.943890112
-0.4579809915
-7.018828817
-0.557753332
-8.298212495
-0.6702429484
-9.82280904
-0.7970916056
-11.6407106
-0.9406590696
-13.80879293
-1.104050139
-16.39460892
-1.291136678
-19.47873261
-1.50659582
-23.15763632
-1.755975687
-27.54718003
-2.045792713
-32.78686038
-2.383658813
-39.04497935
-2.778433201
-46.5249698
-3.240388788
-55.47317425
-3.781378027
-66.18849416
-4.414981715
-79.03447054
-5.15661036
-94.45455397
-6.023524322
-112.991581
-7.034715629
-135.31283
-8.210573732
-162.2424907
-9.572212415
-194.8040446
-11.14028109
-234.2759804
-12.93300264
-282.2655563
-14.96305595
-340.8071305
-17.23275641
-412.4941277
-19.72674302
-500.6572647
-22.40105048
-609.6066519
-25.16690275
-744.9624791
-27.86695963
-914.1088629
-30.24061708
-1126.819166
-31.87370702
-1396.122087
-32.12604392
-1739.50639
-30.02574846
-2180.587631
-2751.458161
0.0006489370427
-0.04611867362
0.002077883178
-0.06982497415
0.003784830257
-0.09349334949
0.004419293776
-0.1174298272
0.004378884768
-0.1406788864
0.004255390778
-0.1673621177
0.004109331458
-0.1990597503
0.003894084035
-0.2368635385
0.003587328492
-0.2817887322
0.003142323411
-0.3351824188
0.002502798643
-0.398624551
0.001582722492
-0.4739413143
0.0002605233699
-0.5633190492
-0.001638132431
-0.6692728556
-0.004364686152
-0.7947574063
-0.008274950773
-0.9431702623
-0.01386894584
-1.118431118
-0.02182877179
-1.325025862
-0.0330471515
-1.568097675
-0.04862681479
-1.853572847
-0.06983019391
-2.188386578
-0.09795380879
-2.580861548
-0.1341402583
-3.04125055
-0.1792185387
-3.582385021
-0.2336041691
-4.220363715
-0.297394851
-4.975079454
-0.3705809546
-5.870703993
-0.453307683
-6.93610207
-0.5461063121
-8.205413843
-0.6500458663
-9.718869461
-0.7668105463
-11.5239459
-0.8987290102
-13.67687444
-1.048787356
-16.24455055
-1.220649203
-19.30687074
-1.418697023
-22.95958848
-1.648101347
-27.31777569
-1.914919053
-32.52004267
-2.226220197
-38.73367819
-2.590237357
-46.16095263
-3.016532213
-55.04687937
-3.516163384
-65.68886298
-4.101847978
-78.44878593
-4.788084
-93.76831793
-5.591213377
-112.1884516
-6.529374085
-134.3746693
-7.622277202
-161.1495876
-8.890709198
-193.5356126
-10.35560805
-232.8110815
-12.0364997
-280.5846647
-13.94897047
-338.8946598
-16.10072107
-410.3423771
-18.48552872
-498.2724571
-21.07416346
-607.0180172
-23.80088125
-742.2357613
-26.54351696
-911.3662272
-29.09437011
-1124.268313
-31.11787505
-1394.098582
-32.08956746
-1738.534698
-31.20679528
-2181.470403
-2755.402112
0.000873243306
-0.04699191613
0.002375092817
-0.0713268222
0.003921621365
-0.09503987647
0.004336602567
-0.1178448065
0.004309320927
-0.1406516024
0.004244375303
-0.1672971692
0.004158749147
-0.1989741207
0.004007619717
-0.2367124051
0.003766356946
-0.281547465
0.003385060291
-0.3348011173
0.002799177175
-0.3980386627
0.001910639535
-0.4730527713
0.0005769513538
-0.5619853553
-0.001406481013
-0.6672894178
-0.004334459614
-0.7918294217
-0.008619729514
-0.9388849871
-0.01482620166
-1.112224639
-0.0236942301
-1.316157826
-0.03614989391
-1.555642
-0.05326839696
-1.836454329
-0.07618066746
-2.165474292
-0.1059238151
-2.551118386
-0.1432729457
-3.003901412
-0.1886417455
-3.537016217
-0.2420991048
-4.166906349
-0.3035297949
-4.913648755
-0.372865572
-5.801368202
-0.4503060071
-6.858661619
-0.5364836964
-8.119236135
-0.6325541171
-9.62279902
-0.7402327365
-11.41626726
-0.8618054534
-13.55530171
-1.000137478
-16.10621851
-1.158696713
-19.1483115
-1.341599585
-22.7766856
-1.55368356
-27.1056917
-1.800606897
-32.27311932
-2.088974301
-38.44531077
-2.42648605
-45.82344087
-2.822102993
-54.65126241
-3.286223406
-65.22474256
-3.830850123
-77.9041592
-4.469741935
-93.12942612
-5.218517909
-111.4396756
-6.094676273
-133.4985109
-7.11748305
-160.1267808