/*--------------------------------*- C++ -*----------------------------------*\
  =========                 |
  \\      /  F ield         | OpenFOAM: The Open Source CFD Toolbox
   \\    /   O peration     | Website:  https://openfoam.org
    \\  /    A nd           | Version:  12
     \\/     M anipulation  |
\*---------------------------------------------------------------------------*/
FoamFile
{
    format      ascii;
    class       volScalarField;
    location    "650";
    object      rho;
}
// * * * * * * * * * * * * * * * * * * * * * * * * * * * * * * * * * * * * * //

dimensions      [1 -3 0 0 0 0 0];

internalField   nonuniform List<scalar> 
16200
(
0.9468818031
0.9469754612
0.9475598968
0.9488326525
0.9512935572
0.9562267403
0.9666644922
0.9864186863
0.9990029982
1.000742455
1.001176884
1.001792982
1.002502032
1.003382978
1.004429897
1.005696221
1.007204052
1.009005662
1.011144221
1.013679833
1.0166733
1.020195704
1.024321809
1.029130707
1.034699424
1.041096921
1.048372904
1.056542572
1.065566053
1.075325471
1.085608474
1.096112113
1.106476364
1.116340895
1.125403185
1.133456596
1.14039908
1.146220788
1.150980731
1.154783575
1.157758393
1.160042069
1.161766525
1.163050578
1.163995729
1.164684996
1.165184055
1.165543408
1.165801109
1.165985328
1.166116699
1.166210193
1.166276566
1.166323563
1.166356461
1.166379576
1.166394409
1.166407399
1.166406333
1.166417107
0.9380629002
0.9382844726
0.9390415311
0.9405989774
0.9436042156
0.949771256
0.9628156772
0.9831372904
0.9914714283
0.9925568057
0.9930724184
0.9937667892
0.994573207
0.9955700483
0.9967514418
0.9981756115
0.9998676147
1.001884534
1.004274564
1.007103912
1.010440331
1.014362162
1.018951427
1.024293634
1.030470512
1.037552117
1.045582284
1.054558175
1.064404135
1.074946779
1.085905436
1.096913806
1.107575503
1.117533874
1.126526609
1.134406933
1.141133093
1.14674219
1.151321613
1.154987277
1.157867279
1.160091154
1.161781397
1.163048238
1.163986406
1.16467426
1.165174519
1.165536014
1.165795913
1.165982023
1.166114863
1.166209408
1.166276505
1.166323907
1.166357163
1.166380212
1.166395266
1.166407809
1.166406587
1.166416569
0.9308930085
0.9312665342
0.9322417695
0.9341364384
0.9377868905
0.9454691913
0.9618687329
0.9800135622
0.9852354092
0.9859285713
0.9865105615
0.9872876637
0.9881870325
0.9892955773
0.9906090664
0.9921908685
0.9940704442
0.9963105762
0.9989656732
1.002108503
1.005813903
1.010167088
1.015256993
1.021175226
1.028007243
1.035820627
1.044645218
1.054446529
1.06509565
1.076347368
1.087845469
1.099168439
1.109905567
1.119730984
1.128444703
1.135971965
1.142334358
1.147613303
1.151920089
1.155377246
1.158108172
1.160231755
1.16185835
1.163087094
1.164003857
1.164680579
1.165175637
1.165535138
1.165794625
1.165981003
1.166114317
1.166209325
1.16627679
1.166324427
1.16635789
1.166380896
1.166396098
1.166408313
1.166407091
1.166417157
0.9251550485
0.9256915747
0.9269266837
0.929252951
0.9337480695
0.9432516693
0.9629629656
0.9772011466
0.9800479119
0.9806792341
0.981346512
0.982218549
0.9832292855
0.9844711391
0.9859423318
0.9877111689
0.9898117982
0.9923123307
0.9952733064
0.9987740143
1.002897124
1.007736224
1.013388884
1.019953059
1.027514476
1.036129592
1.045800197
1.056441815
1.067852809
1.079702613
1.091560709
1.102969401
1.113533649
1.122987169
1.131210968
1.138209158
1.144064977
1.148898868
1.152840332
1.156014114
1.158535782
1.160511326
1.162037095
1.163199389
1.164073575
1.164723645
1.165202321
1.165551876
1.165805362
1.165988114
1.16611921
1.166212838
1.166279409
1.166326445
1.166359518
1.166382162
1.166397193
1.166408993
1.166407559
1.166417381
0.9209161294
0.9216287433
0.9231574259
0.926011087
0.9316445009
0.9436485457
0.9650235774
0.9746262995
0.9762107709
0.9768921404
0.9776530584
0.9786348033
0.9797733488
0.9811663427
0.9828152482
0.9847932182
0.987140066
0.9899302514
0.9932323927
0.9971345229
1.00172937
1.007119797
1.013410117
1.020698798
1.029061939
1.038531343
1.049063778
1.060505394
1.072565345
1.08482407
1.096793328
1.108012451
1.118138413
1.126990789
1.134542408
1.140874329
1.146122718
1.15043701
1.153956547
1.156802625
1.159079582
1.160878629
1.162280958
1.163359167
1.164177333
1.164790731
1.165245712
1.165580081
1.165823871
1.166000425
1.166127537
1.166218581
1.166283449
1.166329354
1.166361671
1.166383755
1.166398445
1.166409798
1.16640811
1.166417806
0.9182296087
0.9191263762
0.9209696275
0.9244166465
0.9314545219
0.9469072809
0.9668530773
0.972899131
0.9738411461
0.9746094611
0.9754684525
0.9765676382
0.9778448963
0.9794029236
0.9812482312
0.9834598373
0.9860852013
0.9892066504
0.9929023275
0.9972692906
1.002408849
1.00842927
1.015435284
1.02351759
1.032732459
1.043073591
1.054434604
1.066572765
1.079097734
1.091511216
1.10329906
1.114038751
1.123473232
1.131525059
1.138259612
1.14382548
1.148398991
1.152147048
1.155210409
1.157701783
1.1597116
1.161315171
1.162578108
1.163559124
1.164310789
1.164879367
1.165304478
1.165619087
1.165849857
1.166017839
1.166139295
1.166226595
1.166288964
1.166333201
1.166364395
1.166385702
1.166399877
1.166410725
1.166408705
1.166418249
0.9170561591
0.9181620584
0.920366553
0.9245409973
0.9333218183
0.9525346625
0.9689013468
0.9724639044
0.9729301339
0.9738021385
0.9747751897
0.9760111205
0.9774517158
0.9792045635
0.981282565
0.9837707099
0.9867245182
0.9902336258
0.9943845431
0.9992811739
1.00503058
1.011742881
1.019518748
1.028434325
1.038514758
1.049698054
1.0617928
1.074450775
1.087184862
1.099446304
1.110739263
1.120721018
1.129245291
1.136342606
1.142161813
1.146904001
1.150770821
1.15393505
1.156531214
1.158659204
1.160393698
1.161793677
1.162909386
1.16378602
1.164464926
1.164983488
1.165374585
1.165666235
1.165881585
1.166039232
1.166153765
1.166236423
1.16629567
1.166337811
1.16636759
1.166387939
1.166401468
1.166411761
1.166409359
1.166418778
0.9173759213
0.9187261347
0.9213588072
0.9265181451
0.937754593
0.9594291886
0.971277372
0.9728542722
0.9735190463
0.9745167799
0.9756284326
0.9770280844
0.978662489
0.9806435571
0.9829911926
0.9857959388
0.9891212613
0.993063362
0.9977165028
1.003190403
1.009596716
1.017045297
1.025627528
1.035394193
1.046320918
1.058265974
1.070931964
1.083860984
1.096491588
1.108269183
1.118764528
1.12774796
1.135194923
1.141236659
1.146089092
1.149988137
1.153146194
1.15573178
1.157867161
1.159636483
1.161097768
1.162293902
1.163260461
1.16402989
1.164632936
1.165098519
1.165453002
1.165719549
1.165917781
1.166063798
1.166170443
1.166247758
1.166303384
1.16634308
1.166371201
1.166390437
1.166403208
1.166412896
1.166410066
1.166419372
0.9191831056
0.9207888546
0.9239279385
0.9303523429
0.9450312496
0.9665587789
0.9741436308
0.9748716623
0.9756540457
0.9767767867
0.9780366532
0.9796118289
0.9814556212
0.9836837562
0.98632414
0.9894729705
0.9932022686
0.9976152621
1.002814189
1.008913939
1.016027658
1.024257967
1.033675228
1.044287375
1.055997148
1.068559429
1.081560639
1.094449277
1.106631682
1.117600104
1.127033953
1.134835218
1.141097356
1.146035527
1.149912482
1.152981336
1.155452516
1.157482341
1.159176634
1.16060217
1.161800257
1.162798443
1.163618681
1.164281693
1.164808468
1.16522007
1.165536745
1.165777026
1.165957125
1.166090676
1.166188781
1.166260256
1.166311896
1.166348882
1.16637516
1.166393157
1.166405081
1.166414125
1.166410829
1.166420041
0.9223260638
0.9242218207
0.9279954972
0.9359579756
0.954638487
0.9733720968
0.9772618434
0.9781789247
0.9790981053
0.9803673146
0.9817994685
0.9835761012
0.9856583514
0.9881653386
0.9911340583
0.9946670783
0.9988460881
1.003781881
1.009584404
1.016370651
1.024247961
1.033299413
1.043556995
1.054964498
1.067329706
1.080289723
1.09332234
1.105819298
1.117209105
1.127080408
1.135248778
1.141749667
1.146778692
1.150612615
1.153540302
1.155816552
1.157639865
1.159148879
1.160430573
1.161533884
1.162484022
1.163294326
1.163974387
1.164534366
1.164986452
1.165344569
1.16562334
1.165836984
1.165998489
1.166119127
1.1662083
1.166273617
1.166321021
1.16635511
1.166379406
1.166396066
1.166407075
1.166415443
1.166411647
1.166420783
0.9266223298
0.9288722701
0.9335249839
0.9436674152
0.9655376543
0.9799721019
0.9818059821
0.98271608
0.9837842998
0.9852151079
0.9868398563
0.98884165
0.9911918468
0.9940135746
0.9973541225
1.001321984
1.006007638
1.011526856
1.017992751
1.025518064
1.034195606
1.044075899
1.055132819
1.067222298
1.080039957
1.09310661
1.105819583
1.11756576
1.127851524
1.136398664
1.143168076
1.148315637
1.152115608
1.154882631
1.156913092
1.158451208
1.159676617
1.160707072
1.161609824
1.162416398
1.163137005
1.163772122
1.164320336
1.164782461
1.165162874
1.165469119
1.165710736
1.165897998
1.166040903
1.166148501
1.166228576
1.166287567
1.166330591
1.166361661
1.166383882
1.166399132
1.166409178
1.166416846
1.166412522
1.1664216
0.9320443327
0.9347045972
0.9404717116
0.9537757552
0.9766961251
0.9865407618
0.9873448933
0.9883939778
0.9896232775
0.9912364274
0.9930821147
0.995344065
0.998004895
1.001191026
1.004958789
1.009419379
1.014670586
1.020829266
1.028005052
1.036299173
1.045779878
1.056450995
1.068207924
1.080796364
1.093791907
1.106620337
1.118645947
1.129308463
1.138238093
1.145307965
1.150615925
1.154414965
1.157031637
1.158796586
1.159998754
1.160863098
1.161546259
1.1621438
1.162703516
1.163240574
1.163751566
1.164225563
1.16465151
1.165022059
1.165334755
1.165591509
1.165797328
1.165958928
1.166083574
1.166178259
1.166249247
1.166301874
1.166340458
1.166368447
1.166388537
1.166402328
1.166411377
1.166418325
1.166413454
1.166422495
0.9385217198
0.941710734
0.9488619898
0.9660060418
0.9869687797
0.9929570534
0.9939513854
0.9952035099
0.996622475
0.9984518179
1.000554039
1.003112201
1.00611994
1.00970616
1.01393709
1.018929793
1.024786617
1.031623142
1.039538758
1.048612275
1.058868224
1.070242928
1.082535058
1.095369712
1.108211189
1.120430243
1.131417787
1.140719053
1.148115915
1.153631469
1.157478932
1.159980266
1.161489163
1.162334236
1.162786167
1.163045325
1.163243536
1.163454294
1.163707001
1.164001902
1.16432349
1.164650878
1.164964678
1.165250508
1.165499988
1.165710116
1.165881905
1.166018892
1.166125872
1.166207961
1.166270018
1.166316341
1.166350495
1.166375389
1.166393324
1.166405629
1.166413663
1.166419872
1.166414445
1.166423471
0.946088113
0.9500242162
0.9591092233
0.9798288166
0.9977210071
1.000890875
1.001758264
1.003203226
1.00481598
1.006868586
1.009236562
1.012103868
1.015477173
1.0194889
1.02421549
1.02977663
1.036276053
1.043820751
1.052493147
1.062331741
1.073296162
1.085231023
1.097823815
1.110588338
1.122908647
1.134153722
1.143800765
1.151538137
1.157305795
1.161259206
1.163698121
1.164985376
1.165480477
1.165496618
1.165279345
1.165001892
1.164771187
1.164639755
1.164620146
1.164699303
1.164851149
1.16504623
1.165258036
1.165466175
1.16565719
1.165823825
1.165963596
1.166077232
1.166167318
1.166237266
1.166290649
1.166330806
1.166360596
1.166382421
1.166398203
1.166409013
1.166416024
1.166421479
1.166415499
1.16642453
0.9545061294
0.9594418471
0.9712145649
0.9941022523
1.007504196
1.009489913
1.010475405
1.012124749
1.013953875
1.016261926
1.018935521
1.022159499
1.02595263
1.030448285
1.035729057
1.041911995
1.049095016
1.05736781
1.066780691
1.07731967
1.088866964
1.101152434
1.113746609
1.126078604
1.137505149
1.147451763
1.15552801
1.1615819
1.165698812
1.16813881
1.169257823
1.1694349
1.169019067
1.168299266
1.167492341
1.166743942
1.1661372
1.165705355
1.165445883
1.165334077
1.165334762
1.165411195
1.165530841
1.16566822
1.165805551
1.16593192
1.166041811
1.166133483
1.166207556
1.166265912
1.166310953
1.166345139
1.166370675
1.166389487
1.166403141
1.16641246
1.166418451
1.166423142
1.166416626
1.166425673
0.963713866
0.9700490167
0.9849821275
1.007617491
1.016956112
1.018857513
1.020062915
1.021953432
1.02404699
1.026661622
1.029693993
1.033327962
1.037591988
1.042617932
1.048491429
1.055323279
1.063200673
1.072187402
1.082287838
1.093413251
1.105343307
1.117699629
1.129946576
1.141467726
1.151657072
1.160048885
1.166408651
1.170739462
1.173246648
1.174263352
1.174174038
1.173354503
1.172132133
1.170766669
1.169445218
1.168286841
1.167352687
1.166658686
1.166189073
1.165909083
1.165775803
1.165746347
1.165783128
1.16585639
1.165944695
1.166034007
1.166116187
1.166187336
1.166246338
1.166293707
1.166330789
1.166359238
1.166380661
1.166396539
1.166408107
1.166415953
1.166420936
1.166424858
1.166417829
1.166426903
0.9738649896
0.9820221017
1.000111435
1.021409704
1.027606122
1.029257161
1.030704031
1.032846106
1.035220903
1.038158998
1.041568879
1.045632977
1.050389803
1.055969701
1.062458397
1.069953683
1.078520008
1.088176666
1.098861619
1.110394141
1.122443682
1.134528309
1.146055556
1.156409207
1.165079762
1.171744937
1.176326963
1.178963588
1.179948841
1.179658792
1.178483892
1.176782822
1.174854663
1.172928042
1.171161047
1.169648028
1.168430328
1.167508618
1.166855662
1.166428112
1.166176535
1.166052915
1.166015462
1.166030852
1.166074571
1.166129928
1.166186532
1.166238604
1.166283502
1.166320519
1.166350052
1.166373026
1.166390498
1.166403539
1.166413077
1.166419477
1.166423467
1.166426623
1.166419109
1.166428222
0.9851840878
0.9954630494
1.016122869
1.035329387
1.038924603
1.040596991
1.04229189
1.044694694
1.047370207
1.050655707
1.054472599
1.059001626
1.064289098
1.070459051
1.077589458
1.085753468
1.094973733
1.105205783
1.116304827
1.127991449
1.139834339
1.151279023
1.161722473
1.170609392
1.177562764
1.182416394
1.185233653
1.186257522
1.185839364
1.18437256
1.18223689
1.179765157
1.177225045
1.174814293
1.172663791
1.170845514
1.169383283
1.168264494
1.16745208
1.166895432
1.166539671
1.166332534
1.166228758
1.16619206
1.166195354
1.166219704
1.166252787
1.166287198
1.16631895
1.166346259
1.166368669
1.166386444
1.16640014
1.166410456
1.166418028
1.166423019
1.166426039
1.166428437
1.166420448
1.16642963
0.9978812014
1.010175194
1.032410966
1.047545977
1.05094548
1.052782553
1.054751983
1.057453252
1.060476985
1.064160729
1.068437648
1.073481851
1.079341186
1.086124125
1.09388898
1.102671164
1.112441631
1.12308344
1.134356359
1.145884825
1.157161899
1.167603299
1.176645914
1.183846816
1.188973288
1.192008935
1.193132844
1.192661054
1.190974511
1.188464236
1.185488278
1.182348952
1.179282039
1.176455989
1.173976912
1.171896901
1.170224469
1.168935586
1.167984817
1.167315465
1.166868128
1.166587055
1.166424135
1.166340649
1.166307372
1.166303475
1.166314988
1.166333096
1.166352639
1.166370876
1.16638659
1.16639945
1.166409556
1.166417263
1.166422943
1.166426565
1.166428646
1.166430302
1.166421842
1.166431128
1.012179962
1.02623724
1.048581153
1.061411626
1.063862685
1.06598561
1.068267576
1.071302095
1.074711256
1.078825913
1.083588288
1.08916007
1.095584908
1.102948469
1.111280985
1.120571044
1.130725957
1.141546159
1.152701113
1.163728296
1.174081539
1.183196332
1.19059551
1.195977179
1.199249246
1.200524478
1.200067547
1.198237533
1.195422829
1.191998428
1.188294298
1.184580734
1.181062813
1.177882081
1.175122515
1.17281877
1.170966119
1.16953075
1.168460163
1.167692571
1.167164853
1.16681841
1.166602818
1.166477362
1.166411051
1.166381467
1.166373236
1.166376331
1.166384562
1.166394346
1.166403785
1.166412015
1.166418718
1.166423941
1.166427804
1.166430106
1.166431284
1.166432217
1.166423287
1.166432717
1.028058056
1.043714294
1.065248889
1.075813909
1.077926943
1.0803677
1.082961284
1.086333052
1.090129647
1.094669531
1.099902923
1.105974257
1.112918464
1.120791663
1.129586589
1.139233426
1.149564289
1.160291807
1.171002625
1.181182693
1.190286698
1.197817522
1.203417706
1.206928552
1.208387862
1.208007011
1.206106404
1.203063357
1.199257677
1.195039904
1.190709154
1.186504271
1.182601837
1.179119217
1.176120895
1.173626373
1.171619533
1.170058239
1.168884036
1.168030916
1.167432712
1.167028523
1.16676606
1.16660299
1.166506869
1.166453953
1.166427678
1.166416968
1.166414741
1.166416665
1.166420241
1.166424118
1.166427609
1.166430472
1.1664326
1.166433631
1.166433948
1.166434176
1.166424772
1.166434398
1.045202229
1.06242049
1.083245858
1.09107904
1.093029031
1.095786115
1.098690305
1.102396585
1.106575546
1.111528287
1.117212663
1.123750267
1.131160234
1.139458989
1.148588448
1.158407903
1.168667632
1.178999242
1.188931546
1.197941609
1.205528303
1.211298329
1.215027917
1.216691112
1.216431393
1.214528339
1.21133213
1.207219714
1.202551853
1.197650325
1.192783132
1.188159527
1.183930298
1.180191407
1.176990332
1.174333478
1.172194969
1.170525593
1.1692619
1.16833439
1.167674421
1.167219249
1.166915096
1.166718335
1.166595331
1.166521239
1.166478487
1.166455101
1.166443216
1.166437846
1.166435951
1.166435749
1.166436213
1.166436842
1.166437317
1.166437133
1.166436634
1.166436163
1.166426275
1.166436175
1.06340773
1.081760726
1.100387447
1.107001367
1.108977918
1.112041703
1.115261544
1.119308684
1.123877821
1.129243733
1.135368637
1.142341421
1.150153463
1.158768804
1.168066486
1.177829742
1.187733037
1.197348755
1.206184735
1.21375019
1.219626785
1.223543776
1.225407602
1.225303449
1.223452783
1.220176042
1.215832802
1.210786951
1.205374276
1.199886451
1.19456171
1.189582265
1.185075951
1.181119981
1.177747079
1.174952367
1.172701618
1.170939616
1.169598725
1.168606567
1.167892505
1.167392336
1.167051113
1.16682418
1.166676939
1.166583637
1.16652585
1.166490832
1.166470041
1.16645791
1.166450921
1.166446903
1.166444521
1.166443042
1.166441945
1.166440603
1.166439335
1.166438162
1.166427778
1.166438042
1.0824587
1.101574437
1.11771447
1.123480535
1.12563678
1.1290272
1.132595609
1.13700891
1.14198801
1.147768379
1.1543095
1.161657249
1.169763905
1.178533442
1.187778432
1.197211879
1.206450546
1.21503893
1.222502862
1.228419392
1.232475865
1.234525776
1.234589754
1.232837891
1.229542924
1.225044057
1.219695715
1.213840981
1.207788103
1.201799292
1.196085268
1.19080402
1.186063196
1.181923684
1.178405447
1.175493895
1.173147647
1.171306393
1.169898988
1.168850693
1.168089281
1.167549408
1.167175224
1.166921274
1.166752186
1.16664146
1.16656996
1.166524276
1.166495278
1.166476888
1.166465161
1.166457577
1.166452527
1.166449061
1.166446474
1.166444035
1.166442046
1.166440157
1.166429327
1.166439985
1.102004308
1.120749936
1.135773149
1.140722385
1.143165023
1.146883726
1.150816413
1.15559115
1.160959163
1.167106
1.173980809
1.181580756
1.189811983
1.198516304
1.207443535
1.216250677
1.224522464
1.23180969
1.23769023
1.241832672
1.244037859
1.244270977
1.242644459
1.239387114
1.23480042
1.229225878
1.223003362
1.216451198
1.209849844
1.20343387
1.19738916
1.191852291
1.186913285
1.182618862
1.178977952
1.17596759
1.173540261
1.17163132
1.170166686
1.169069693
1.168266853
1.167691953
1.167288465
1.167010322
1.166821539
1.166695013
1.166611006
1.166555548
1.166518991
1.166494811
1.166478684
1.166467775
1.166460226
1.166454893
1.166450897
1.166447424
1.166444759
1.166442133
1.16643098
1.166441989
1.122608735
1.141097292
1.154531651
1.158949609
1.161705811
1.165709863
1.169972581
1.175053098
1.180733963
1.187146492
1.194220904
1.201901321
1.210043578
1.218429804
1.226757586
1.2346492
1.241686951
1.247459477
1.251621146
1.253942287
1.254331474
1.252845391
1.249664321
1.245052914
1.239323942
1.232810017
1.225831106
1.21867953
1.211609173
1.204829397
1.198504023
1.192750864
1.187644608
1.183219689
1.179475479
1.176381776
1.173885783
1.171919162
1.170405373
1.16926618
1.168427118
1.167821328
1.167391786
1.167091977
1.166885441
1.166744585
1.166649176
1.166584761
1.166541248
1.166511717
1.166491506
1.166477499
1.166467615
1.166460531
1.166455205
1.166450762
1.166447466
1.166444087
1.166432745
1.166444044
1.144123185
1.162836629
1.174012733
1.178093712
1.181141522
1.185374458
1.189911133
1.195224798
1.201120806
1.207673362
1.214786063
1.222348076
1.230165736
1.237970886
1.245426744
1.252146817
1.257739721
1.261856089
1.264239499
1.264760122
1.263418066
1.260340712
1.255753441
1.249938521
1.24320763
1.235877678
1.228246325
1.220580415
1.213109295
1.206019772
1.199456268
1.193520233
1.188273034
1.183738425
1.17990748
1.17674371
1.174189757
1.17217412
1.170618198
1.169442489
1.16857178
1.167938756
1.167486054
1.167166841
1.166944299
1.166790449
1.166684647
1.166612028
1.166562116
1.166527642
1.166503646
1.166486758
1.166474695
1.16646597
1.166459392
1.166454046
1.166450158
1.166446014
1.166434634
1.166446135
1.166247166
1.18526593
1.194018818
1.197945883
1.201266258
1.205685303
1.210434347
1.215897102
1.221893082
1.228437793
1.235404718
1.242631184
1.249881206
1.256851915
1.263194361
1.268539151
1.272544183
1.274936104
1.275549168
1.274342107
1.271387001
1.266861901
1.261018376
1.254142887
1.246538
1.238501412
1.230308104
1.22220102
1.214387376
1.207034046
1.200268507
1.194177964
1.188812192
1.184185642
1.180282137
1.177059706
1.174457024
1.172399879
1.17080794
1.169600689
1.168702362
1.168045341
1.167572056
1.167235465
1.166998494
1.166832861
1.166717585
1.166637454
1.166581658
1.166542624
1.166515122
1.166495556
1.166481464
1.166471205
1.166463451
1.16645727
1.166452827
1.166447911
1.166436654
1.166448236
1.188962018
1.207455898
1.21455088
1.218410876
1.221948361
1.226483372
1.231352655
1.236850563
1.242804262
1.249170304
1.25579085
1.26245871
1.268907802
1.274819748
1.279855907
1.283685312
1.286029461
1.286694861
1.285599186
1.282773386
1.278342169
1.272517183
1.265561643
1.257757047
1.249392332
1.240744733
1.232067505
1.223581781
1.215475137
1.207896979
1.200960021
1.194739066
1.189273771
1.184570435
1.180606521
1.177335241
1.17469181
1.172599673
1.17097705
1.169742619
1.168820223
1.168142073
1.167650501
1.167298351
1.167048374
1.166872058
1.166748148
1.166661142
1.166599939
1.166556698
1.166525953
1.166503903
1.166487923
1.166476234
1.166467377
1.166460431
1.166455459
1.166449777
1.166438809
1.166450325
1.212146933
1.229732826
1.235473221
1.239294063
1.242978945
1.247548836
1.252434508
1.257838197
1.263591098
1.269595042
1.275664786
1.281560713
1.287002651
1.291676369
1.29527239
1.297512195
1.298186162
1.297176359
1.294471313
1.290156614
1.284393261
1.277412351
1.26947861
1.260862941
1.251838649
1.242662731
1.233568393
1.224757253
1.216399627
1.208629684
1.201547283
1.195216398
1.189667816
1.184900658
1.180886764
1.177575091
1.174897812
1.172776345
1.171127695
1.169869908
1.168926574
1.168229842
1.167722033
1.167355956
1.167094256
1.166908256
1.166776482
1.166683186
1.166617018
1.166569901
1.166536158
1.166511806
1.166494075
1.166481051
1.166471166
1.166463524
1.166458045
1.166451611
1.1664411
1.166452383
1.235609785
1.25197907
1.256647445
1.260435293
1.264176393
1.268675679
1.2734498
1.278609186
1.283987924
1.289442229
1.294767114
1.299704357
1.303975406
1.307286677
1.309370609
1.310007378
1.309054139
1.306459071
1.30226694
1.296601891
1.289648727
1.281646672
1.272855629
1.263533009
1.253936106
1.244302817
1.234848284
1.225756894
1.217183888
1.209250167
1.202044374
1.195620991
1.190002983
1.185183105
1.181128194
1.177783422
1.175078272
1.172932399
1.171261788
1.169984006
1.1690225
1.168309445
1.167787231
1.167408693
1.167136433
1.166941659
1.166802724
1.166703677
1.166632952
1.166582267
1.166545757
1.166519275
1.166499921
1.166485655
1.166474813
1.166466545
1.16646057
1.166453419
1.166443523
1.166454393
1.259164496
1.274081551
1.277883236
1.281608307
1.285304538
1.28960994
1.294129853
1.298891378
1.303727103
1.308459589
1.312874296
1.316707799
1.319696338
1.321578816
1.322136094
1.321206804
1.318707896
1.314641906
1.309095704
1.30221891
1.2942105
1.285310011
1.2757689
1.265830082
1.255735408
1.245705334
1.235938976
1.226605643
1.217847445
1.209773723
1.202463298
1.19596229
1.190286716
1.185423648
1.181335437
1.177963867
1.175236028
1.173070036
1.171381023
1.1700862
1.169108966
1.168381599
1.167846618
1.167456941
1.167175173
1.166972453
1.166827001
1.166722699
1.166647796
1.16659383
1.166554768
1.166526318
1.166505463
1.166490043
1.166478317
1.166469488
1.166463023
1.166455205
1.166446072
1.166456333
1.2826465
1.295894851
1.29896217
1.302540464
1.306074804
1.310065342
1.314193105
1.318412154
1.322560221
1.32643028
1.329810221
1.332444252
1.334092949
1.334534373
1.333598837
1.331178651
1.327241144
1.321831351
1.31506607
1.307110563
1.29817042
1.28848127
1.278284156
1.267807701
1.257279439
1.246904261
1.236867225
1.227324507
1.21840679
1.210213323
1.202814285
1.196248383
1.190525426
1.185627369
1.181512518
1.178119604
1.175373575
1.1731912
1.171486901
1.170177635
1.169186838
1.168446949
1.167900669
1.167501042
1.16721072
1.167000809
1.166849432
1.166740331
1.166661602
1.166604622
1.166563211
1.166532947
1.166510705
1.166494213
1.166481676
1.166472348
1.166465393
1.166456979
1.166448725
1.166458181
1.305739695
1.317067557
1.319610022
1.322933429
1.326204254
1.329773922
1.333391995
1.336949446
1.340291724
1.343198086
1.345463894
1.346851884
1.347152806
1.346185686
1.343827274
1.340016297
1.334760644
1.32813724
1.320283103
1.311371949
1.301611133
1.291230011
1.280458538
1.269511944
1.258604911
1.247928626
1.237655887
1.227931468
1.21887609
1.210580158
1.203106207
1.196486325
1.190724729
1.185798744
1.181662999
1.178253455
1.175493137
1.173297631
1.171580769
1.170259347
1.169256899
1.168506082
1.167949816
1.167541313
1.167243301
1.167026888
1.166870127
1.166756651
1.16667442
1.166614675
1.166571104
1.16653917
1.16651565
1.166498166
1.16648489
1.166475119
1.166467668
1.166458749
1.166451447
1.166459925
1.327980121
1.337381833
1.339564449
1.342547973
1.34546394
1.348517233
1.351524703
1.354326838
1.35678033
1.358661859
1.359779263
1.359919795
1.358906524
1.356597555
1.352910659
1.347823047
1.341374143
1.333664067
1.324842732
1.315087393
1.304604367
1.293615736
1.282340424
1.270981552
1.259742605
1.248802751
1.238324142
1.228441665
1.219267325
1.210883747
1.203346653
1.196682187
1.190889492
1.185941674
1.181789999
1.178367905
1.175596684
1.173390877
1.171663834
1.170332264
1.169319858
1.168559531
1.167994458
1.167578044
1.167273128
1.16705084
1.166889193
1.16677173
1.166686299
1.166624021
1.166578467
1.166544998
1.166520303
1.1665019
1.166487958
1.166477793
1.166469839
1.166460523
1.166454197
1.166461596
1.349285374
1.356773377
1.35863262
1.361174329
1.363644329
1.366102364
1.368424809
1.370411793
1.371933165
1.37277002
1.372746546
1.371676819
1.369415145
1.365854826
1.360948349
1.354703923
1.347184957
1.338508029
1.328830711
1.318330767
1.307212121
1.295689375
1.283970971
1.272249486
1.260718733
1.24954741
1.238888449
1.228868164
1.219590904
1.211132412
1.203542302
1.196841342
1.191024044
1.186059643
1.181896316
1.178465193
1.175685992
1.17347234
1.171737191
1.170397235
1.169376364
1.168607788
1.168034961
1.167611508
1.167300397
1.167072808
1.16690673
1.166785639
1.166697286
1.166632691
1.166585319
1.166550444
1.166524668
1.166505418
1.166490884
1.166480362
1.166471898
1.166462314
1.166456949
1.166463203
1.36918886
1.374951578
1.376535402
1.378593909
1.380568612
1.382387473
1.383984629
1.385132782
1.385716106
1.385525396
1.384402639
1.382188149
1.378765099
1.374057175
1.368045448
1.360762735
1.352290436
1.342756664
1.332323136
1.321166537
1.309487789
1.297494366
1.285385102
1.27334374
1.261555555
1.25018029
1.239362888
1.229222205
1.219855838
1.211333408
1.203699015
1.196968536
1.19113223
1.186155762
1.18198446
1.178547331
1.175762669
1.17354329
1.171801836
1.170455032
1.169427012
1.168651302
1.168071665
1.167641955
1.167325295
1.167092925
1.166922834
1.166798444
1.166707429
1.166640715
1.166591681
1.16655552
1.166528751
1.166508723
1.166493667
1.166482816
1.166473847
1.166464132
1.166459656
1.166464755
1.387666843
1.391883913
1.393156621
1.394680823
1.396119398
1.397279379
1.398142448
1.398462832
1.398136304
1.396965885
1.394811358
1.391537255
1.38705246
1.381306465
1.374303504
1.366095835
1.3567783
1.346487145
1.335386079
1.323650107
1.311476938
1.299067651
1.286612585
1.274288208
1.262272136
1.250716632
1.239759672
1.229513614
1.220070066
1.211493173
1.20382203
1.197068038
1.191217525
1.186232858
1.182056718
1.178616162
1.175828186
1.173604896
1.171858689
1.170506373
1.169472353
1.168690497
1.168104888
1.167669624
1.167347995
1.16711132
1.166937597
1.166810211
1.166716771
1.166648125
1.166597572
1.166560237
1.166532557
1.16651182
1.16649631
1.166485146
1.16647569
1.166465976
1.166462248
1.16646627
1.40436022
1.407319817
1.40829673
1.409297984
1.410208366
1.410732396
1.410888256
1.410422259
1.409240243
1.407159835
1.404057105
1.399819297
1.394377367
1.387702586
1.379817854
1.370790745
1.360726335
1.349766731
1.338076516
1.325828754
1.313218282
1.300440675
1.287678888
1.275103227
1.262884828
1.251169603
1.240089442
1.229751029
1.220240629
1.211617469
1.203916071
1.197143723
1.191283108
1.186293524
1.182115201
1.178673393
1.175883915
1.173658251
1.171908613
1.170551934
1.169512913
1.168725775
1.168134935
1.167694746
1.167368671
1.167128119
1.16695111
1.166821006
1.16672536
1.166654953
1.166603016
1.16656461
1.166536095
1.166514714
1.166498814
1.166487345
1.166477433
1.16646782
1.166464671
1.166467809
1.419213625
1.421213568
1.421910144
1.422424351
1.422832715
1.422763734
1.422259262
1.421066781
1.419100122
1.416192282
1.412233903
1.407132574
1.400838014
1.393339728
1.38467572
1.374925773
1.364203022
1.352654101
1.340443787
1.32774312
1.314745136
1.301640665
1.288606131
1.275806449
1.263407965
1.251550844
1.240361693
1.229942222
1.220373917
1.211711563
1.203985488
1.197199179
1.19133193
1.186340183
1.182161884
1.178720624
1.175931145
1.173704385
1.171952424
1.170592354
1.169549191
1.168757522
1.168162102
1.167717541
1.167387487
1.167143445
1.166963465
1.166830895
1.166733243
1.166661232
1.166608035
1.166568654
1.166539374
1.166517414
1.166501181
1.166489408
1.166479079
1.166469632
1.166467015
1.166469414
1.432262613
1.433596407
1.434025177
1.434098613
1.434039313
1.4334299
1.43232399
1.430475886
1.427804556
1.424157719
1.419439324
1.413573883
1.406527373
1.398304438
1.388955466
1.378570058
1.367268154
1.355200082
1.342530306
1.329428174
1.316086274
1.302691172
1.289413354
1.276413399
1.263854259
1.251870788
1.240585014
1.230094298
1.220475822
1.21178035
1.204034345
1.197237776
1.191366776
1.186375125
1.18219864
1.178759378
1.175971103
1.173744278
1.171990902
1.17062825
1.169581665
1.168786109
1.168186672
1.167738228
1.167404608
1.167157419
1.166974751