/*--------------------------------*- C++ -*----------------------------------*\
  =========                 |
  \\      /  F ield         | OpenFOAM: The Open Source CFD Toolbox
   \\    /   O peration     | Website:  https://openfoam.org
    \\  /    A nd           | Version:  12
     \\/     M anipulation  |
\*---------------------------------------------------------------------------*/
FoamFile
{
    format      ascii;
    class       volVectorField;
    location    "650";
    object      U;
}
// * * * * * * * * * * * * * * * * * * * * * * * * * * * * * * * * * * * * * //

dimensions      [0 1 -1 0 0 0 0];

internalField   nonuniform List<vector> 
16200
(
(183.4719648 -7.307686673e-17 -1.496323764)
(218.7469061 3.529753722e-17 -1.420657514)
(238.5753144 -2.452429659e-20 -1.594066479)
(254.1668304 0 -1.764759139)
(268.5996836 0 -1.951620142)
(283.5536275 -2.522646243e-17 -2.177337659)
(299.1920092 2.884154841e-17 -2.491513047)
(311.7949977 6.226555279e-17 -2.870247022)
(315.6132161 -1.212859846e-16 -3.004113767)
(315.6163729 1.08636935e-16 -2.983036878)
(315.2977998 -4.627898134e-17 -3.042628084)
(314.9954322 0 -3.024062029)
(314.6227802 0 -3.091245852)
(314.2126287 -5.383489845e-17 -3.098198788)
(313.7301241 4.493777729e-17 -3.163206243)
(313.1779 0 -3.201930355)
(312.534235 0 -3.274845096)
(311.7879299 8.233821904e-19 -3.34604011)
(310.9187897 4.459458815e-17 -3.440737444)
(309.9074933 -3.621331274e-17 -3.547712393)
(308.7304391 0 -3.676430216)
(307.3620426 -2.501095695e-17 -3.824649662)
(305.7740174 2.238303435e-17 -3.995023632)
(303.9364019 3.809665617e-17 -4.185660731)
(301.8188419 -3.200486157e-17 -4.393252021)
(299.392989 -2.737217903e-17 -4.60983242)
(296.6363431 2.301502134e-17 -4.822090592)
(293.5379525 0 -5.00963808)
(290.1061923 0 -5.144552279)
(286.3777146 5.755756972e-17 -5.192960781)
(282.4246761 -3.627527912e-17 -5.120630858)
(278.3552971 -1.043947736e-17 -4.902728986)
(274.3037494 0 -4.534568924)
(270.410402 -4.600732702e-17 -4.037500113)
(266.7993864 5.16552721e-17 -3.455710773)
(263.5618327 -8.893525691e-17 -2.844911347)
(260.7492016 7.498105789e-17 -2.258256725)
(258.3755094 0 -1.735425927)
(256.4247383 0 -1.297988412)
(254.8598949 0 -0.9507560677)
(253.6317587 7.755312779e-17 -0.6866579348)
(252.6863998 -1.310372566e-16 -0.4923618166)
(251.9708409 1.102615283e-16 -0.352832081)
(251.4368851 0 -0.2541632277)
(251.0430689 1.567899814e-16 -0.1848879016)
(250.7553308 -1.319223432e-16 -0.1362431417)
(250.5466132 -4.668554075e-20 -0.1018605348)
(250.3960446 1.871259535e-16 -0.07727862527)
(250.2878505 -3.153249018e-16 -0.05944003955)
(250.2103221 2.655899969e-16 -0.04627305324)
(250.1548634 2.238995498e-16 -0.03637757117)
(250.1152184 3.777460944e-16 -0.02880305079)
(250.0868568 -3.188338441e-16 -0.0228954827)
(250.0664632 8.082255439e-16 -0.0182068965)
(250.0516776 -4.557885621e-16 -0.01443067629)
(250.0405558 0 -0.01135017224)
(250.0322538 1.638506556e-16 -0.008777488613)
(250.0252076 0 -0.006644091733)
(250.0198718 -4.753426669e-16 -0.004058400518)
(250.012881 -3.971159928e-19 -0.004552350008)
(187.3868013 -1.543496152e-16 -4.145009895)
(223.7055084 1.510355005e-16 -4.398500284)
(244.0846322 -5.463294883e-17 -4.890540537)
(260.1145329 -4.898212874e-17 -5.276966477)
(275.0493664 5.05125072e-17 -5.665437756)
(290.601553 0 -6.105414212)
(306.3301703 0 -6.662119012)
(316.6323721 6.706774684e-17 -7.099117985)
(318.6679762 -6.272413235e-17 -7.191780148)
(318.5239659 0 -7.158153455)
(318.1856967 0 -7.230901651)
(317.8616417 0 -7.202732357)
(317.4621172 -6.670041192e-17 -7.275220101)
(317.0207635 5.566229823e-17 -7.27645019)
(316.4994509 -1.427827508e-18 -7.340952289)
(315.9006456 -1.196619639e-18 -7.374636332)
(315.2005087 0 -7.44217721)
(314.3862172 -2.538257897e-18 -7.505118907)
(313.4354184 0 -7.588543983)
(312.3264061 1.184406561e-18 -7.680419498)
(311.0330116 4.028080563e-18 -7.78889237)
(309.5268935 -2.90816603e-17 -7.910541734)
(307.7770665 -1.754666803e-17 -8.045927297)
(305.751103 3.885770209e-17 -8.190730455)
(303.416863 0 -8.33822277)
(300.7456184 7.005116635e-18 -8.476093182)
(297.7171444 -1.191747237e-17 -8.58537457)
(294.3271865 0 -8.638788126)
(290.5971041 -3.486935256e-17 -8.600918304)
(286.5835415 1.455460372e-17 -8.431668986)
(282.3833698 -3.796825101e-17 -8.094863272)
(278.1280649 1.080849977e-17 -7.570864115)
(273.9656781 -3.703190949e-17 -6.867950643)
(270.0359589 -1.57801084e-17 -6.025655398)
(266.4487407 0 -5.107106982)
(263.2730437 4.606528152e-17 -4.183707622)
(260.5376742 -3.883017791e-17 -3.319071185)
(258.238864 0 -2.558072269)
(256.3499669 1.122509078e-16 -1.923219015)
(254.8300136 -9.494112477e-17 -1.417219869)
(253.6305666 8.021070886e-17 -1.028935563)
(252.7008877 2.707528972e-16 -0.7399226207)
(251.9919006 -1.139224354e-16 -0.5297436542)
(251.4588651 0 -0.3793715191)
(251.0629635 4.853784095e-16 -0.2728429463)
(250.7718815 -5.444633867e-16 -0.1976832363)
(250.559612 -3.43593195e-16 -0.144601758)
(250.4058106 3.854439577e-16 -0.1069181824)
(250.2949223 0 -0.0799396673)
(250.2152685 -2.72802461e-16 -0.06041397425)
(250.1582013 2.29540518e-16 -0.04610237631)
(250.1173825 5.79634953e-16 -0.03546449821)
(250.0881871 3.253753702e-16 -0.02743392106)
(250.0672434 -2.740705729e-16 -0.02127216767)
(250.0520691 9.239845346e-16 -0.0164784874)
(250.0407757 -7.793040033e-16 -0.01268601761)
(250.0322454 -4.933752757e-16 -0.009639741697)
(250.0252183 5.558568461e-16 -0.007199494915)
(250.0197792 1.058116625e-15 -0.004323317677)
(250.0123783 9.803931225e-17 -0.004688793598)
(191.154175 -1.595207185e-19 -6.880044734)
(228.5118956 1.621944157e-16 -7.633054113)
(249.4426897 -2.371119271e-16 -8.429944127)
(265.9375847 1.077772358e-16 -9.059124917)
(281.418095 1.130755352e-16 -9.681634154)
(297.4832843 -2.554226956e-16 -10.37319253)
(312.8352308 2.832340379e-16 -11.18226237)
(320.3438653 3.684611869e-19 -11.59111032)
(321.1127098 -2.646842418e-16 -11.66444382)
(320.8614615 1.153094657e-16 -11.61336978)
(320.5035653 0 -11.69440878)
(320.1533982 7.909012685e-17 -11.65148253)
(319.7189976 -6.593895962e-17 -11.72357728)
(319.2375192 -2.625245541e-18 -11.7143642)
(318.6675869 4.846867344e-17 -11.77194139)
(318.0112837 3.78665339e-18 -11.79533058)
(317.2426997 -3.298647685e-17 -11.85148131)
(316.3472028 1.741951533e-18 -11.90106837)
(315.300212 -4.680820314e-17 -11.96818702)
(314.0774572 3.677969414e-17 -12.04050346)
(312.6500203 -2.30637364e-20 -12.12429127)
(310.9865615 -2.111796761e-17 -12.21464575)
(309.0531132 1.765976547e-17 -12.30936701)
(306.8145813 0 -12.40092517)
(304.2372494 -4.27055382e-17 -12.47799335)
(301.2932056 7.048654768e-18 -12.52220579)
(297.9673212 3.707545089e-17 -12.50677394)
(294.2669014 2.140951947e-17 -12.39541727)
(290.2329342 1.847525253e-17 -12.14424023)
(285.9489623 -1.493663526e-17 -11.70847856)
(281.5409445 1.857726747e-19 -11.05502489)
(277.1628634 -4.494809245e-17 -10.1771101)
(272.9704967 3.827264598e-17 -9.10361615)
(269.0938805 -9.849713943e-17 -7.89683584)
(265.6199215 2.773450243e-17 -6.638947377)
(262.5895665 0 -5.413456032)
(260.0059693 -8.080984866e-17 -4.289113496)
(257.8467013 -6.862553662e-17 -3.310846408)
(256.0746252 -1.672096347e-20 -2.498292636)
(254.6453731 4.910322165e-17 -1.849920279)
(253.5119773 -8.264112617e-17 -1.349829915)
(252.6277739 -6.976388095e-17 -0.9747299393)
(251.9485526 2.35208784e-16 -0.6995073897)
(251.4341106 2.972266352e-16 -0.5008401747)
(251.0493226 -1.665983685e-16 -0.3589992039)
(250.7645983 2.803589343e-16 -0.2583522463)
(250.5558076 5.891575034e-16 -0.1870689846)
(250.4038188 -3.961502157e-16 -0.1364938301)
(250.2938247 6.657583833e-16 -0.1004426916)
(250.2145835 -2.796880485e-16 -0.07456303527)
(250.1576936 -4.699100487e-16 -0.05581836893)
(250.1169478 1.973349696e-16 -0.04209794172)
(250.0877888 -6.630603816e-16 -0.03193002645)
(250.0668825 0 -0.02429013004)
(250.0517427 -1.871160755e-15 -0.01847767901)
(250.0405296 7.858382481e-16 -0.01398040786)
(250.0320085 3.300421644e-16 -0.01046553195)
(250.0250969 -1.386141806e-16 -0.00771967525)
(250.0197515 -9.31550854e-16 -0.004531594314)
(250.0123971 0 -0.004818629232)
(194.619322 -3.451268996e-16 -9.7353392)
(232.914088 -1.700234641e-19 -11.09208062)
(254.3516356 0 -12.18844988)
(271.3587516 1.163707957e-19 -13.08312209)
(287.4684256 -1.271642277e-16 -13.96640476)
(303.9011268 1.433974898e-16 -14.93422979)
(317.9456773 -3.020587537e-19 -15.9200472)
(322.7627737 -5.995589138e-19 -16.21166507)
(322.8645262 1.068835674e-18 -16.28092541)
(322.5833851 1.163837498e-16 -16.20959165)
(322.201159 -9.809991986e-17 -16.30035651)
(321.8212839 1.284342149e-18 -16.24435037)
(321.3486733 -6.850172566e-17 -16.31652239)
(320.8227159 5.901154354e-17 -16.29905663)
(320.1988422 4.804805032e-17 -16.35070014)
(319.4783276 -4.272641363e-17 -16.36566623)
(318.6330948 -4.217876088e-18 -16.41138756)
(317.6463695 0 -16.4483055)
(316.4911424 0 -16.49857935)
(315.1403001 0 -16.54946486)
(313.5619099 -3.842222134e-17 -16.60492091)
(311.7213894 1.427054243e-17 -16.65831738)
(309.5817564 3.663178819e-17 -16.70425116)
(307.1058168 -2.054030257e-17 -16.73108817)
(304.2599658 2.631703536e-17 -16.72142635)
(301.0203997 1.490991508e-17 -16.6489779)
(297.3822286 -2.55835039e-17 -16.47746206)
(293.3711247 2.152501039e-17 -16.16095409)
(289.055007 -1.851378492e-17 -15.64862131)
(284.5494114 -2.936742069e-19 -14.89575281)
(280.0089202 2.693098957e-17 -13.8798093)
(275.6026531 4.636845667e-17 -12.61470286)
(271.4822441 0 -11.15483864)
(267.7562986 6.766791338e-17 -9.58556476)
(264.4809519 0 -8.004431751)
(261.6660893 0 -6.501492896)
(259.2898808 2.085286733e-16 -5.145231952)
(257.3136287 3.522108109e-17 -3.976536175)
(255.6923425 2.394009469e-16 -3.009697749)
(254.3804059 5.060584523e-17 -2.237878991)
(253.3338691 5.546356517e-16 -1.640364898)
(252.5112521 -2.157527373e-16 -1.189553919)
(251.8740671 -1.211843312e-16 -0.8564505939)
(251.3873829 -9.173972441e-16 -0.6142508166)
(251.0204093 -1.655558632e-19 -0.4401666736)
(250.746847 7.202425145e-16 -0.3159610228)
(250.5449172 6.051222752e-16 -0.2276642615)
(250.397086 -1.117740095e-15 -0.1649201363)
(250.2895899 -5.117449379e-16 -0.1202326944)
(250.2118461 2.862536862e-16 -0.08826244862)
(250.15586 -1.200335049e-15 -0.06524480662)
(250.1156684 0 -0.04854048542)
(250.0868622 1.349454835e-15 -0.03629735617)
(250.0661944 1.130406398e-15 -0.0272202327)
(250.051224 9.46422334e-16 -0.02041577707)
(250.0401609 0 -0.01523333717)
(250.0317092 6.621709512e-16 -0.01126001304)
(250.0249153 6.915488955e-17 -0.008225608975)
(250.0196594 -2.078033632e-15 -0.004747197771)
(250.0122509 3.174846899e-15 -0.004945463019)
(197.7984094 -7.310212912e-16 -12.76161426)
(236.9819679 3.743911906e-16 -14.74508168)
(258.8975313 -1.410354062e-16 -16.1612734)
(276.4128386 -6.427966282e-22 -17.34472216)
(293.1764666 0 -18.51610346)
(309.8376886 3.142428116e-19 -19.78238826)
(321.3513139 3.13799428e-21 -20.80615069)
(324.1684435 0 -20.96067457)
(323.9937532 -2.216049775e-18 -21.04488488)
(323.6917818 -1.190744026e-16 -20.95411854)
(323.2781042 1.000435355e-16 -21.05406182)
(322.8625264 0 -20.9859031)
(322.3448554 -7.215548092e-17 -21.05678924)
(321.7663305 -1.960344115e-18 -21.03120133)
(321.0793842 4.594877756e-17 -21.07484657)
(320.2840371 -8.252523381e-17 -21.07958902)
(319.3499972 7.344831789e-17 -21.11152909)
(318.2579456 3.639246553e-18 -21.13187443)
(316.9781228 0 -21.16031345)
(315.4801222 4.151771886e-17 -21.18394347)
(313.7286481 -4.357887035e-17 -21.20409169)
(311.6858407 3.708669817e-17 -21.21175587)
(309.3123698 -3.745578769e-17 -21.19700588)
(306.5707117 0 -21.14218815)
(303.4305378 -1.805595453e-17 -21.02174339)
(299.876895 0 -20.79972396)
(295.921537 2.645822041e-17 -20.42954752)
(291.6160486 -2.226384392e-17 -19.85660829)
(287.0618163 0 -19.02709474)
(282.4081891 0 -17.90374452)
(277.8326812 0 -16.48359005)
(273.5073878 0 -14.80822057)
(269.5658983 0 -12.95971956)
(266.0848122 1.056284783e-16 -11.04363857)
(263.0846191 -1.494485684e-16 -9.167077002)
(260.5442962 1.016723323e-16 -7.420323425)
(258.4200326 -1.718917583e-16 -5.866433979)
(256.6605853 -1.823977743e-16 -4.538819823)
(255.2162997 -9.21207617e-17 -3.444593269)
(254.0425165 -1.559289534e-16 -2.570993864)
(253.0996489 -5.701495667e-16 -1.892682028)
(252.3521769 -2.956814083e-16 -1.378394866)
(251.7678343 4.358036398e-16 -0.9960930042)
(251.317359 8.375047902e-16 -0.7163329299)
(250.9746684 -7.039375354e-16 -0.5140083854)
(250.717116 -7.389966631e-16 -0.3688717059)
(250.5256099 -8.684314847e-16 -0.2652593347)
(250.3845113 1.04077098e-15 -0.1914316707)
(250.2813468 1.221717798e-15 -0.1387976506)
(250.2063909 -1.462548212e-16 -0.101174313)
(250.1522062 1.347199848e-15 -0.07416181515)
(250.1131868 -1.844944032e-15 -0.05465125249)
(250.0851546 -2.91432729e-15 -0.04044741157)
(250.0650065 -1.002684885e-15 -0.03000793573)
(250.0503958 0 -0.02226065)
(250.039598 1.595120602e-15 -0.01642660834)
(250.031308 -4.980881701e-16 -0.01201420116)
(250.0246646 -2.070572456e-16 -0.008705714682)
(250.0195462 1.832988202e-15 -0.004953433425)
(250.0121417 -3.034126257e-15 -0.005068783607)
(200.6100265 1.887197398e-19 -15.93989273)
(240.6359823 0 -18.58081181)
(263.0092938 1.5064566e-19 -20.33472391)
(281.0387695 -1.450929034e-19 -21.83136658)
(298.4148539 -3.142616105e-19 -23.31812346)
(314.9570909 0 -24.87453818)
(323.5057856 7.061731199e-19 -25.79673911)
(324.8245566 -1.308423386e-18 -25.83200344)
(324.4733839 1.137785132e-18 -25.9302064)
(324.1511407 -9.57530921e-19 -25.8189933)
(323.7006065 0 -25.92528538)
(323.2442993 8.542522332e-17 -25.84396853)
(322.6759816 -7.133999342e-17 -25.90927486)
(322.0378612 6.178983153e-17 -25.87338544)
(321.2795527 -5.012351491e-17 -25.90510856)
(320.3991449 5.272493469e-18 -25.896678)
(319.3639191 0 -25.9112315)
(318.151479 -6.358639619e-17 -25.91151002)
(316.7290066 5.018449867e-17 -25.91392692)
(315.062643 -1.063852852e-17 -25.90482764)
(313.114018 8.974635875e-18 -25.88164292)
(310.8429397 0 -25.83136882)
(308.2095407 0 -25.73776876)
(305.1788135 0 -25.57551544)
(301.7277903 0 -25.30965972)
(297.8560481 -6.401264426e-17 -24.89391475)
(293.5993244 -3.722606608e-19 -24.27191857)
(289.0426327 -2.333770087e-17 -23.38351328)
(284.3247471 2.576589994e-19 -22.17881427)
(279.6251204 1.690140998e-17 -20.63764677)
(275.1323136 -2.937741651e-17 -18.7853354)
(271.0055704 1.250300321e-16 -16.69506013)
(267.3468232 -8.550563707e-17 -14.47448106)
(264.1932763 -7.233916432e-17 -12.24311657)
(261.5288833 1.230492432e-16 -10.11028577)
(259.3051205 -1.044619583e-16 -8.160361108)
(257.4612184 0 -6.446867555)
(255.9381068 -1.880709741e-16 -4.993541479)
(254.6849958 -2.855012067e-16 -3.799492649)
(253.6603928 1.069012257e-16 -2.846075598)
(252.8302515 1.024980746e-19 -2.103850005)
(252.165534 2.656172296e-16 -1.538653082)
(251.6404017 -5.107557236e-16 -1.116235785)
(251.2313581 4.296019154e-16 -0.8053118181)
(250.9171219 1.442827024e-15 -0.5791513183)
(250.6788213 1.514160039e-16 -0.4160606823)
(250.500195 -1.269363398e-16 -0.2991155151)
(250.3676478 0 -0.2155106283)
(250.2701362 -1.604555702e-15 -0.1557842759)
(250.1989115 1.49197646e-16 -0.1130639412)
(250.1471918 2.246096894e-15 -0.08241782021)
(250.1098055 3.127569452e-15 -0.06033545688)
(250.0828622 4.176386829e-15 -0.04432321842)
(250.0634452 0 -0.03262055227)
(250.0493356 0 -0.02399503443)
(250.03889 -1.605608645e-15 -0.01755194085)
(250.0308263 1.664867208e-16 -0.01272564583)
(250.0243565 -2.756070046e-16 -0.00916122725)
(250.0193964 -1.82045872e-15 -0.005153514042)
(250.0119912 -5.849487657e-18 -0.005189793887)
(202.9810372 -2.002986062e-19 -19.2542534)
(243.8346902 2.174166846e-16 -22.58026315)
(266.6723972 -3.391589141e-16 -24.69701009)
(285.274448 1.653275248e-16 -26.53633006)
(303.2030787 3.527427728e-19 -28.37556823)
(318.7590073 1.92639911e-16 -30.13262971)
(324.4949887 -1.907336595e-16 -30.85249372)
(324.9686263 1.355551205e-18 -30.78927406)
(324.304849 -1.476754859e-16 -30.89176933)
(323.9569214 1.246374105e-16 -30.7563158)
(323.4644074 -1.629088111e-18 -30.86624012)
(322.9606303 0 -30.77388598)
(322.3339631 -2.040793626e-21 -30.83259247)
(321.6265765 -3.828433464e-18 -30.78767943)
(320.7855469 3.209667516e-18 -30.80693261)
(319.8064285 3.245568508e-17 -30.78520042)
(318.6540959 -3.624260771e-17 -30.78074586)
(317.3029254 0 -30.75787644)
(315.7172489 6.473189005e-18 -30.7285474)
(313.8602115 -3.290859267e-17 -30.67735877)
(311.6912251 3.676038528e-17 -30.59666558)
(309.1691226 1.571167396e-17 -30.46824646)
(306.2555725 0 -30.2684759)
(302.9212992 -2.272378567e-17 -29.96333467)
(299.1556628 0 -29.507663)
(294.9798544 -3.481631392e-19 -28.84467909)
(290.4617871 2.801067181e-17 -27.91026108)
(285.7257852 4.795393242e-17 -26.64469789)
(280.9468261 -4.107443845e-17 -25.01188353)
(276.3239362 0 -23.01903604)
(272.0399784 0 -20.72584608)
(268.225069 9.199328399e-19 -18.23642529)
(264.9392483 -6.656303738e-19 -15.67781353)
(262.1777107 3.756615784e-17 -13.17515781)
(259.890995 -1.591316798e-16 -10.83258472)
(258.0088585 -2.699783397e-17 -8.723506197)
(256.4595144 2.053981879e-16 -6.889246902)
(255.1808218 -2.707454551e-16 -5.342910817)
(254.1240476 2.601166029e-16 -4.075644033)
(253.2526663 2.752305927e-17 -3.063446879)
(252.5389754 -9.24109938e-17 -2.273516409)
(251.9606278 3.88581174e-17 -1.669590583)
(251.4981474 6.544286111e-17 -1.215995332)
(251.1336658 -9.340896123e-16 -0.8803202902)
(250.8505957 -7.380964419e-16 -0.6348336786)
(250.6337935 0 -0.4569064438)
(250.4698387 1.03804848e-15 -0.3287526189)
(250.3472271 0 -0.2368016073)
(250.2564092 0 -0.1709388495)
(250.1896816 0 -0.1237559897)
(250.1409796 -4.189715182e-15 -0.08989539159)
(250.1056185 -1.588546771e-15 -0.0655170223)
(250.0800375 -2.82304449e-15 -0.04787730102)
(250.0615391 -2.494839296e-15 -0.03502970687)
(250.0480568 -1.827711809e-15 -0.02560302633)
(250.038044 0 -0.01860106207)
(250.0302659 0 -0.01339113262)
(250.0239946 1.376021257e-16 -0.00958977049)
(250.0192176 1.809385362e-15 -0.005346388356)
(250.0118257 -1.156410036e-17 -0.005308267148)
(204.8447533 2.126368586e-19 -22.72393198)
(246.5423331 0 -26.71975326)
(269.8975947 1.821760819e-19 -29.24811038)
(289.1497363 -6.473450152e-22 -31.46385719)
(307.5130139 -2.004150702e-16 -33.69717715)
(320.8851535 2.09263329e-16 -35.46187295)
(324.5158322 0 -35.92899281)
(323.9333289 0 -35.78844895)
(323.4965968 1.509174616e-16 -35.91016653)
(323.1150991 2.060234809e-19 -35.75858809)
(322.5730578 -1.061612088e-16 -35.87061291)
(322.0126592 0 -35.76895689)
(321.3177125 2.327533313e-18 -35.81891975)
(320.5293548 6.656944431e-17 -35.7642275)
(319.5926218 -5.575787984e-17 -35.76747113)
(318.500106 5.518361088e-18 -35.7279801)
(317.214473 -4.669592938e-18 -35.69751172)
(315.7068861 7.878071089e-18 -35.64188068)
(313.9390967 -5.317824104e-17 -35.56782988)
(311.8716946 -3.783387665e-19 -35.45755666)
(309.462699 8.551269884e-17 -35.29759576)
(306.6715045 -4.810761412e-17 -35.06340881)
(303.4640694 0 -34.72265704)
(299.8214817 -2.69867274e-19 -34.23117661)
(295.7524119 1.975845501e-17 -33.53280536)
(291.308343 3.386885298e-17 -32.56150829)
(286.5967334 0 -31.25049655)
(281.7824062 0 -29.55005895)
(277.0680127 -2.154581607e-17 -27.44934299)
(272.6553488 1.815868636e-17 -24.99125326)
(268.7029792 0 -22.27109438)
(265.2985221 -1.330994552e-16 -19.41827778)
(262.4551781 1.359144679e-16 -16.57007236)
(260.1284383 -1.921116946e-17 -13.84841234)
(258.2416663 -6.44128624e-19 -11.34594484)
(256.7099463 -2.219567862e-16 -9.121761079)
(255.4564564 -4.448653325e-16 -7.20385026)
(254.4202362 4.139561093e-16 -5.594835539)
(253.5571902 -3.329527196e-17 -4.278614855)
(252.837044 0 -3.226705085)
(252.2388597 -4.734529623e-17 -2.403792166)
(251.7469134 -5.97228488e-16 -1.772295515)
(251.3478154 0 -1.295816617)
(251.0290136 0 -0.9414380917)
(250.7783572 -7.542118744e-16 -0.6809549726)
(250.5842566 0 -0.4912403881)
(250.4360347 -9.266180514e-16 -0.3539950498)
(250.3242395 1.66182604e-15 -0.2551505768)
(250.2408149 -9.262136656e-17 -0.1841385887)
(250.179121 -2.397595549e-15 -0.1331588177)
(250.1338372 2.193193586e-15 -0.09652961683)
(250.1007938 -3.546002399e-15 -0.07015211413)
(250.0767836 0 -0.05108144825)
(250.0593497 2.37342043e-15 -0.03721818674)
(250.0465946 5.897753846e-15 -0.02707483445)
(250.0370803 0 -0.01956886132)
(250.0296355 1.673178343e-16 -0.01400893735)
(250.023584 -1.374307226e-16 -0.009990537192)
(250.0190091 1.799633499e-15 -0.005532108969)
(250.0116357 5.871407857e-15 -0.005424481254)
(206.1684075 -9.240524808e-16 -26.30858293)
(248.7274256 2.545830006e-16 -30.99098537)
(272.7084891 -2.0078771e-19 -33.9793304)
(292.644913 4.021659385e-19 -36.60989674)
(311.0773666 4.277501005e-19 -39.23957707)
(321.6467247 -2.212527712e-16 -40.76706806)
(322.8164161 2.062808618e-16 -41.0188793)
(322.584584 0 -40.84726438)
(322.0604592 1.539097422e-16 -41.00031645)
(321.636054 2.351512455e-19 -40.82736095)
(321.0385358 -1.066506868e-16 -40.93444039)
(320.4137779 0 -40.82007977)
(319.6421808 2.389701676e-18 -40.85379655)
(318.7627209 0 -40.78322554)
(317.7188713 -2.104733902e-20 -40.7619931)
(316.4997808 0 -40.6953902)
(315.0659744 -3.832550475e-17 -40.62740182)
(313.3853154 -1.56918794e-19 -40.52506231)
(311.4171714 2.033983973e-17 -40.38916729)
(309.1202049 4.63221631e-17 -40.19846851)
(306.4525199 -4.861912917e-17 -39.9324512)
(303.3769086 -1.672150739e-17 -39.55861577)
(299.8682702 -2.846539078e-17 -39.0343179)
(295.9248301 2.392568685e-17 -38.30413008)
(291.5831122 2.076576866e-17 -37.30157717)
(286.9330826 1.808830759e-17 -35.95572824)
(282.1250549 0 -34.20618112)
(277.3581938 -5.216915188e-17 -32.02516297)
(272.8469566 8.927936493e-17 -29.43723583)
(268.7758143 5.722279275e-17 -26.52452207)
(265.262541 1.46129517e-16 -23.41348556)
(262.3444431 1.106587834e-16 -20.24929891)
(259.9887686 0 -17.16923815)
(258.1176123 0 -14.28424765)
(256.6351528 1.004411407e-16 -11.67113502)
(255.4489636 2.552314415e-16 -9.373148353)
(254.4824814 1.916797337e-16 -7.405149201)
(253.6792941 3.235301885e-16 -5.760252709)
(253.0017594 5.464226504e-16 -4.416247493)
(252.4265853 4.600775424e-16 -3.341201425)
(251.9396576 -4.838861986e-17 -2.498151059)
(251.5315803 6.90987127e-16 -1.848906594)
(251.1946221 -1.093201969e-15 -1.356939717)
(250.9211222 -5.73487144e-17 -0.9893327165)
(250.7030155 8.172438944e-16 -0.7178383258)
(250.5320097 -8.058001204e-17 -0.5191916698)
(250.4000043 6.742337527e-17 -0.3748714976)
(250.2995016 -3.609077516e-15 -0.2705404367)
(250.2238907 0 -0.1953504042)
(250.1675777 2.514786545e-15 -0.1412381512)
(250.1259861 -2.095040366e-15 -0.1022913333)
(250.095469 6.970009043e-15 -0.07421850602)
(250.0731842 -1.80836192e-16 -0.05392003164)
(250.0569265 -2.24725612e-15 -0.03917577424)
(250.0449766 -3.838449399e-15 -0.0284042741)
(250.036014 -3.367809866e-15 -0.02045189919)
(250.0289416 0 -0.01457788467)
(250.0231282 0 -0.01036262016)
(250.0187728 -3.582157231e-15 -0.005710490542)
(250.0114247 -5.806316925e-15 -0.005540345705)
(207.0119649 6.618628524e-20 -29.99542591)
(250.4962455 -2.769747963e-16 -35.40680299)
(275.1887941 0 -38.90384201)
(295.7679586 4.509833317e-19 -41.99852988)
(313.4823319 -9.38619734e-19 -44.92169746)
(321.296941 0 -46.04255698)
(320.9961019 -2.129493001e-16 -46.18141148)
(320.5892575 1.846264196e-16 -45.96180927)
(320.0360922 -1.246290207e-18 -46.1156575)
(319.5621051 0 -45.92416182)
(318.9021529 3.472322646e-18 -46.02159135)
(318.2040025 9.292466724e-17 -45.89351468)
(317.3459662 -2.163339179e-18 -45.90536341)
(316.3636353 2.619247192e-19 -45.81376383)
(315.1993298 -5.844513957e-17 -45.76021501)
(313.8382812 0 -45.6569306)
(312.23895 4.874119175e-18 -45.53913947)
(310.3660552 -8.232199798e-18 -45.37440483)
(308.1772857 -2.810432556e-17 -45.15655282)
(305.6309216 1.165146366e-17 -44.85923799)
(302.6879134 2.024897657e-17 -44.45328273)
(299.3188419 1.20345056e-20 -43.89672369)
(295.5138616 0 -43.13595148)
(291.2964105 2.51187794e-17 -42.10496586)
(286.7391349 4.076873143e-19 -40.73045501)
(281.9753095 -1.815532884e-17 -38.94453353)
(277.1947111 0 -36.70512387)
(272.6169252 1.072380754e-16 -34.01799349)
(268.4475978 -1.141525616e-16 -30.94890389)
(264.8346785 -5.840408312e-17 -27.6165283)
(261.844074 -1.327649518e-16 -24.16915591)
(259.461551 1.518969011e-17 -20.75631659)
(257.6142732 -3.610037912e-17 -17.50589802)
(256.1996725 -3.065841034e-16 -14.51220357)
(255.1110926 -2.935075731e-16 -11.83402545)
(254.2549999 -1.895412197e-16 -9.498882224)
(253.5592864 3.68822277e-16 -7.509711945)
(252.9744554 3.521837604e-16 -5.851597599)
(252.470386 -1.13309413e-15 -4.497550462)
(252.0310122 -4.398818752e-16 -3.413245718)
(251.6488128 -2.466260484e-17 -2.560867899)
(251.3202615 -4.149132034e-17 -1.902224434)
(251.0427635 1.114095177e-15 -1.401137801)
(250.8130629 9.057536716e-16 -1.025087836)
(250.626778 4.89582613e-17 -0.7461215864)
(250.4786117 0 -0.5411202923)
(250.3628293 -2.195729104e-15 -0.3915752144)
(250.2737518 1.83460365e-15 -0.2830682896)
(250.2061324 -9.570577232e-17 -0.204618436)
(250.1553789 -1.058999396e-20 -0.1480105954)
(250.117638 1.990611164e-16 -0.107183978)
(250.0897783 -3.638674098e-15 -0.07771420733)
(250.0693219 0 -0.05638951859)
(250.0543185 2.570247729e-15 -0.04089915092)
(250.0432309 -1.247043732e-16 -0.02958883456)
(250.0348604 3.281498384e-15 -0.02124852291)
(250.0281908 -2.689034226e-15 -0.01509749053)
(250.0226305 0 -0.01070525056)
(250.0185096 3.567240911e-15 -0.005883387309)
(250.0111913 5.75910949e-15 -0.005653415824)
(207.422384 -5.219733182e-16 -33.78438513)
(251.9255446 -3.02434583e-16 -39.9735676)
(277.3981887 2.526726951e-16 -44.03242595)
(298.5779236 -4.95484786e-19 -47.64788259)
(314.4336884 -2.575625265e-16 -50.5882074)
(318.7140892 4.865532079e-16 -51.21882205)
(318.4545908 -2.180963564e-16 -51.33914124)
(318.0558292 1.473161639e-18 -51.10983602)
(317.4514076 -1.582037076e-16 -51.27248777)
(316.9198926 -3.070146684e-19 -51.05754714)
(316.1896388 1.092744223e-16 -51.13580515)
(315.4077988 -9.790354218e-17 -50.98857024)
(314.4519593 7.94714402e-17 -50.96910714)
(313.3531241 0 -50.84709578)
(312.0528723 -4.95268461e-17 -50.74944736)
(310.5323361 9.510756307e-17 -50.59554552)
(308.7483929 -2.990177588e-17 -50.41084431)
(306.6634942 3.409596146e-17 -50.16211027)
(304.2352606 -2.861601361e-17 -49.83494061)
(301.4241539 -2.47091538e-17 -49.39616951)
(298.197737 2.060666471e-17 -48.80663896)
(294.5397515 1.78250357e-17 -48.01401368)
(290.4628388 0 -46.95424096)
(286.0239375 0 -45.55381217)
(281.3379612 -4.376945849e-17 -43.73950519)
(276.5805839 -3.815496512e-17 -41.45745049)
(271.9698227 0 -38.69630584)
(267.7258331 -1.10889839e-16 -35.50354777)
(264.0241697 -9.536976332e-17 -31.98565017)
(260.9618154 2.026623068e-17 -28.28934673)
(258.5488392 1.209544825e-16 -24.57260846)
(256.7242409 -1.015217103e-16 -20.97829846)
(255.3842464 -1.85728418e-16 -17.61773885)
(254.4111179 3.123507352e-16 -14.56548494)
(253.694972 2.815462372e-16 -11.8621274)
(253.1462916 2.376386522e-16 -9.520793326)
(252.7003849 -4.258794653e-16 -7.534304503)
(252.316081 -3.16586233e-16 -5.88140054)
(251.9712069 5.686570425e-16 -4.531657162)
(251.6567789 -2.992993046e-17 -3.449333784)
(251.3714302 8.302163141e-16 -2.596449298)
(251.1169465 4.2259468e-17 -1.935297877)
(250.8953036 2.204670972e-20 -1.430421966)
(250.7071422 -9.809468452e-16 -1.049997016)
(250.5513458 -4.982399378e-17 -0.7666162014)
(250.4252919 -1.419992424e-20 -0.557522564)
(250.3253812 4.496711275e-15 -0.4044019372)
(250.2475965 0 -0.2929054599)
(250.187954 -9.710631755e-17 -0.2120387875)
(250.142802 1.617088736e-16 -0.1535279763)
(250.1089749 2.083609142e-15 -0.1112340863)
(250.0838384 0 -0.08065183653)
(250.0652694 0 -0.0584952355)
(250.0515697 -1.524731863e-16 -0.04239009502)
(250.0413825 4.142516338e-15 -0.03062873)
(250.0336336 1.030079069e-16 -0.02195839276)
(250.0273892 2.610433728e-15 -0.01556774083)
(250.0220943 -1.096767515e-15 -0.01101685129)
(250.0182206 -1.777169025e-15 -0.006048174753)
(250.0109357 -5.73997648e-15 -0.005762902717)
(207.3960749 0 -37.67156643)
(253.0525217 6.431801575e-19 -44.698213)
(279.3031653 0 -49.37775377)
(300.8189924 -2.786239182e-16 -53.52682779)
(314.1149544 7.749550439e-19 -56.22098606)
(316.0689236 5.048254445e-16 -56.4504513)
(315.4022827 -2.232240184e-16 -56.56001498)
(314.9788609 -1.922838684e-16 -56.27703745)
(314.3179085 -2.913599784e-18 -56.44079103)
(313.7199931 1.393664333e-16 -56.20453214)
(312.9106346 0 -56.25600263)
(312.0336972 9.997653411e-17 -56.0850316)
(310.9675011 -8.633107341e-17 -56.02594896)
(309.7376264 6.868101617e-17 -55.86399546)
(308.2856006 -5.030705273e-17 -55.70908836)
(306.5887337 0 -55.48715414)
(304.6031651 -1.023571281e-17 -55.2130366)
(302.2904025 -3.502735915e-17 -54.85140792)
(299.6100711 -3.159100421e-19 -54.37896773)
(296.5280496 6.269111964e-17 -53.75476928)
(293.0232727 -2.122597557e-17 -52.92913234)
(289.0991744 -1.808106282e-17 -51.83919931)
(284.7987061 1.569247723e-17 -50.41228458)
(280.2192971 -1.320468947e-17 -48.57317894)
(275.5198556 6.909743251e-17 -46.25931674)
(270.9101626 -2.007097391e-17 -43.44347816)
(266.6181094 -8.43661256e-17 -40.15487713)
(262.8421487 8.540736495e-17 -36.48487685)
(259.710093 7.264746835e-17 -32.573713)
(257.2607023 -1.050167573e-17 -28.58376361)
(255.4512041 -1.052436255e-16 -24.67022891)
(254.1828867 -1.199506201e-16 -20.96043526)
(253.3315242 1.890546014e-16 -17.54482498)
(252.7730937 1.712170751e-16 -14.47749046)
(252.4006757 0 -11.78215381)
(252.1324329 0 -9.459639442)
(251.9128844 -4.096965334e-16 -7.49471084)
(251.7097923 3.447892194e-16 -5.861444388)
(251.508862 5.981357356e-16 -4.52720937)
(251.3077769 -5.028054862e-16 -3.455688654)
(251.1107577 -1.612261297e-15 -2.609290647)
(250.9242994 6.662669119e-16 -1.951169357)
(250.7543771 1.189865426e-15 -1.446855209)
(250.6050274 -3.020804833e-17 -1.06543067)
(250.4779888 0 -0.7802142947)
(250.3729947 4.23398542e-17 -0.5689677841)
(250.2883465 -2.299271872e-15 -0.413707797)
(250.2215242 5.90485914e-17 -0.3002701928)
(250.1696962 -4.920103151e-17 -0.2177422545)
(250.1300796 0 -0.1578666994)
(250.1001523 0 -0.1144849229)
(250.0777504 1.127127095e-16 -0.0830549345)
(250.0610909 2.981942761e-15 -0.06024931724)