/*--------------------------------*- C++ -*----------------------------------*\
  =========                 |
  \\      /  F ield         | OpenFOAM: The Open Source CFD Toolbox
   \\    /   O peration     | Website:  https://openfoam.org
    \\  /    A nd           | Version:  12
     \\/     M anipulation  |
\*---------------------------------------------------------------------------*/
FoamFile
{
    format      ascii;
    class       volScalarField;
    location    "0.102";
    object      Ma;
}
// * * * * * * * * * * * * * * * * * * * * * * * * * * * * * * * * * * * * * //

dimensions      [];

internalField   nonuniform List<scalar> 
16000
(
0.62777244
0.74560191
0.70071475
0.72523325
0.71019753
0.71711427
0.71141337
0.71292202
0.71027492
0.70982337
0.70819636
0.70705592
0.7056363
0.70425025
0.70278164
0.70126623
0.69969277
0.69806286
0.69637525
0.69462947
0.69282513
0.69096208
0.68904043
0.68706054
0.68502311
0.68292917
0.68078009
0.67857766
0.67632403
0.67402181
0.67167399
0.66928402
0.66685577
0.66439352
0.66190195
0.6593861
0.65685136
0.65430341
0.65174815
0.64919166
0.64664015
0.64409984
0.64157693
0.63907752
0.63660748
0.63417248
0.63177781
0.62942842
0.62712881
0.62488302
0.62269456
0.62056646
0.6185012
0.61650074
0.61456656
0.6126996
0.61090033
0.60916873
0.60750428
0.60590577
0.60437132
0.60289868
0.60148518
0.60012749
0.59882139
0.59756146
0.59634049
0.5951494
0.59397766
0.5928142
0.59164775
0.59046608
0.58925504
0.58800004
0.58669149
0.58532466
0.58384635
0.5826108
0.5803931
0.58017523
0.63227588
0.75084786
0.70409848
0.72990989
0.71405035
0.72142772
0.71528126
0.71690595
0.71407669
0.71355156
0.71183644
0.71057949
0.70906772
0.70756671
0.70598872
0.70435597
0.70266259
0.70090845
0.69909296
0.69721568
0.69527648
0.69327548
0.69121312
0.68909018
0.6869078
0.6846675
0.68237125
0.6800214
0.6776208
0.67517271
0.6726809
0.67014956
0.66758333
0.66498729
0.6623669
0.65972796
0.65707658
0.65441912
0.65176208
0.64911209
0.64647575
0.64385962
0.64127011
0.63871337
0.63619527
0.63372128
0.63129643
0.62892527
0.62661179
0.62435946
0.62217115
0.62004918
0.61799528
0.61601068
0.61409608
0.61225171
0.61047732
0.60877225
0.60713539
0.60556506
0.60405894
0.60261432
0.60122819
0.59989689
0.598616
0.5973799
0.59618128
0.59501096
0.59385822
0.59271174
0.59155999
0.59039048
0.58918882
0.58794025
0.58663303
0.58525824
0.58383521
0.58241396
0.58060879
0.57983052
0.63648258
0.75566125
0.70773123
0.73398445
0.71766786
0.72514941
0.71884366
0.72035783
0.71747316
0.71679137
0.71500773
0.71361264
0.71199611
0.71036781
0.70866474
0.70690037
0.70507141
0.70317749
0.70121827
0.69919365
0.69710383
0.69494934
0.69273109
0.69045037
0.68810887
0.68570877
0.68325269
0.68074376
0.67818558
0.67558229
0.67293853
0.6702594
0.66755049
0.66481779
0.66206767
0.65930682
0.65654215
0.65378075
0.65102978
0.64829635
0.64558748
0.64290997
0.6402703
0.63767459
0.63512848
0.63263708
0.63020494
0.62783599
0.62553351
0.62330015
0.62113794
0.61904826
0.61703193
0.61508924
0.61321999
0.61142351
0.60969874
0.60804427
0.60645828
0.60493853
0.60348219
0.6020861
0.60074682
0.59946036
0.59822199
0.59702587
0.59586455
0.59472873
0.59360761
0.59248976
0.59136355
0.59021647
0.58903409
0.58780114
0.5865054
0.58514483
0.58374026
0.5822582
0.58064129
0.57962456
0.64032571
0.76005189
0.71078159
0.73755162
0.72082907
0.72841784
0.72194706
0.72333011
0.72038145
0.71952298
0.71765633
0.71610665
0.71436711
0.71259514
0.71074929
0.70883633
0.70685495
0.70480476
0.70268577
0.70049824
0.69824279
0.69592042
0.69353255
0.69108107
0.68856839
0.68599741
0.68337159
0.68069497
0.67797214
0.67520826
0.67240902
0.66958062
0.66672973
0.6638634
0.66098901
0.65811418
0.65524666
0.65239426
0.64956469
0.64676548
0.64400388
0.64128673
0.63862041
0.6360107
0.63346278
0.63098112
0.6285695
0.62623096
0.62396781
0.62178166
0.61967345
0.61764345
0.61569141
0.61381652
0.61201758
0.61029295
0.60864071
0.60705863
0.60554421
0.60409462
0.60270652
0.60137634
0.60010022
0.59887388
0.59769234
0.59654959
0.59543807
0.59434844
0.59326985
0.5921908
0.59109966
0.58998401
0.58882934
0.58761985
0.58634448
0.58500639
0.58361491
0.58213144
0.58063028
0.57943485
0.64379282
0.76395748
0.71358145
0.74049064
0.7233746
0.73112297
0.72453402
0.72572722
0.72273141
0.72166238
0.71970179
0.71797966
0.71609849
0.71416715
0.71216148
0.71008385
0.70793395
0.70571158
0.70341702
0.70105091
0.69861434
0.69610889
0.69353666
0.69090033
0.68820319
0.68544917
0.68264281
0.67978933
0.67689455
0.67396491
0.6710074
0.66802951
0.66503917
0.6620446
0.65905427
0.65607676
0.65312063
0.65019429
0.64730586
0.64446311
0.64167326
0.63894293
0.63627804
0.63368375
0.63116442
0.62872356
0.62636384
0.62408713
0.62189447
0.6197862
0.61776193
0.61582069
0.61396097
0.61218081
0.6104779
0.60884961
0.60729312
0.6058054
0.60438328
0.60302334
0.60172183
0.60047474
0.59927791
0.59812678
0.59701615
0.59593991
0.59489045
0.59385843
0.59283304
0.59180279
0.59075616
0.58968093
0.58856254
0.58738515
0.58613966
0.58483079
0.58345845
0.58200205
0.58057335
0.57926702
0.64683102
0.76729283
0.71592667
0.74297226
0.72557943
0.73318325
0.7264635
0.72746975
0.72442733
0.72313615
0.7210696
0.71916428
0.71712562
0.71502199
0.71284126
0.71058339
0.70824854
0.70583687
0.70334911
0.70078652
0.69815093
0.69544479
0.69267123
0.68983406
0.68693782
0.68398779
0.68098996
0.67795104
0.67487841
0.67178004
0.66866448
0.66554067
0.6624179
0.65930566
0.65621348
0.65315082
0.65012687
0.64715044
0.64422981
0.64137259
0.63858564
0.63587494
0.63324555
0.63070159
0.62824617
0.62588146
0.62360868
0.62142819
0.61933951
0.61734145
0.61543218
0.61360931
0.61187
0.61021109
0.60862916
0.60712062
0.60568177
0.60430887
0.60299812
0.60174563
0.60054724
0.59939866
0.59829546
0.59723289
0.59620565
0.59520755
0.59423103
0.59326683
0.59230424
0.59133185
0.59033838
0.58931187
0.58823781
0.58710084
0.58589375
0.58462015
0.58327536
0.5818624
0.58049344
0.57910569
0.6494138
0.77004164
0.71781797
0.74495899
0.72731777
0.73458238
0.72790009
0.72852816
0.72549976
0.72392546
0.72173862
0.71963898
0.71742282
0.71512832
0.71275098
0.7102903
0.70774699
0.705122
0.70241694
0.69963407
0.69677636
0.69384756
0.6908522
0.68779564
0.68468406
0.68152449
0.67832473
0.67509332
0.67183948
0.66857299
0.66530408
0.6620433
0.65880132
0.65558881
0.65241622
0.64929364
0.6462306
0.64323591
0.64031756
0.63748254
0.6347368
0.63208517
0.62953136
0.6270779
0.62472625
0.62247679
0.62032896
0.61828129
0.61633157
0.61447693
0.61271393
0.61103876
0.60944724
0.60793503
0.60649768
0.60513069
0.60382964
0.60259015
0.60140793
0.6002787
0.59919807
0.59816152
0.59716447
0.59620211
0.59526907
0.59435923
0.59346514
0.59257771
0.59168639
0.59077998
0.5898475
0.58887729
0.58785509
0.58676653
0.58560574
0.58437345
0.58306467
0.58170713
0.58039396
0.57894591
0.65158504
0.77223605
0.71930032
0.74648081
0.72864531
0.73555355
0.72883801
0.72934169
0.72590276
0.72405345
0.72171016
0.71938964
0.71696136
0.71444388
0.7118369
0.70914061
0.7063565
0.70348661
0.70053376
0.69750156
0.69439453
0.6912181
0.68797863
0.68468347
0.68134087
0.67796
0.67455084
0.6711241
0.66769109
0.66426357
0.66085355
0.65747311
0.6541342
0.65084842
0.6476268
0.64447961
0.64141618
0.63844476
0.63557238
0.63280478
0.63014636
0.62760015
0.62516788
0.62285001
0.62064584
0.61855361
0.61657063
0.61469343
0.61291791
0.61123941
0.60965297
0.60815331
0.60673505
0.60539279
0.60412118
0.60291501
0.60176925
0.60067909
0.5996399
0.59864718
0.59769639
0.59678297
0.59590231
0.59504959
0.59421955
0.59340619
0.59260229
0.59179902
0.59098607
0.59015256
0.58928784
0.58838055
0.58741698
0.5863842
0.58527671
0.58409131
0.58282695
0.58153542
0.58027663
0.57878301
0.65341186
0.77390366
0.72032923
0.74753439
0.72931458
0.73556897
0.72895182
0.72865234
0.72560312
0.72346468
0.72091562
0.71833803
0.71565549
0.71287565
0.70999999
0.70702993
0.703968
0.70081766
0.69758331
0.69427039
0.69088545
0.68743612
0.68393114
0.68038033
0.67679454
0.67318552
0.66956581
0.66594856
0.66234734
0.65877591
0.65524798
0.65177694
0.64837562
0.64505606
0.64182924
0.63870492
0.63569146
0.63279572
0.63002294
0.6273768
0.62485934
0.62247112
0.62021129
0.61807769
0.61606709
0.61417527
0.61239727
0.61072751
0.60915997
0.60768834
0.60630616
0.60500696
0.6037843
0.60263193
0.60154385
0.60051434
0.59953802
0.59860982
0.59772498
0.59687894
0.5960672
0.59528525
0.59452861
0.59379258
0.59307208
0.59236135
0.5916535
0.59094005
0.59021107
0.58945605
0.58866465
0.58782582
0.58692678
0.58595633
0.58490815
0.58377459
0.58256248
0.58134504
0.58013974
0.57861623
0.6548905
0.77501646
0.72083086
0.74791258
0.72925978
0.7350491
0.72846767
0.72778321
0.72452757
0.72203762
0.71923314
0.71636106
0.71338093
0.71029642
0.70711003
0.70382496
0.70044541
0.69697684
0.69342588
0.68980048
0.6861099
0.68236466
0.67857656
0.67475855
0.67092457
0.66708941
0.66326847
0.6594775
0.65573229
0.65204841
0.64844086
0.64492381
0.64151026
0.63821182
0.63503848
0.63199846
0.62909807
0.62634171
0.62373185
0.62126916
0.61895254
0.6167794
0.61474575
0.6128465
0.61107559
0.60942628
0.60789131
0.6064631
0.60513391
0.60389597
0.60274165
0.6016635
0.60065437
0.59970746
0.5988164
0.59797522
0.59717845
0.59642101
0.5956982
0.59500559
0.59433885
0.59369371
0.59306591
0.59245099
0.59184416
0.59124
0.59063203
0.59001223
0.58937117
0.58869875
0.58798488
0.58721885
0.58638926
0.5854867
0.58450273
0.58342548
0.58227311
0.5811349
0.5799799
0.57844447
0.65595693
0.77546962
0.72072638
0.74674757
0.72843053
0.73367656
0.72718852
0.72590692
0.72252206
0.71965516
0.71653789
0.7133257
0.70999891
0.7065615
0.70301731
0.69937186
0.69563181
0.69180539
0.68790239
0.68393412
0.67991345
0.67585469
0.67177346
0.66768646
0.66361126
0.65956598
0.65556896
0.65163839
0.64779193
0.64404634
0.64041711
0.63691813
0.63356139
0.63035677
0.62731189
0.62443203
0.62172015
0.61917698
0.61680115
0.61458941
0.61253687
0.61063727
0.60888323
0.60726654
0.60577841
0.60440969
0.60315109
0.60199334
0.60092733
0.59994425
0.59903566
0.59819355
0.59741041
0.59667927
0.59599368
0.59534776
0.59473619
0.59415411
0.59359709
0.593061
0.59254186
0.59203573
0.59153869
0.59104662
0.59055512
0.59005918
0.58955282
0.58902861
0.5884777
0.58789044
0.5872569
0.58656678
0.58581049
0.58498021
0.58406417
0.58304746
0.5819623
0.58090625
0.57979548
0.57826766
0.6565208
0.77509841
0.71990313
0.74494192
0.72698534
0.73138303
0.72497169
0.72308244
0.71946399
0.71617995
0.71268595
0.70907867
0.70534909
0.70150388
0.69754917
0.69349367
0.68934763
0.68512326
0.68083464
0.6764977
0.67212999
0.66775053
0.6633795
0.65903791
0.65474717
0.6505287
0.64640343
0.64239136
0.63851103
0.63477917
0.63121023
0.62781615
0.62460612
0.62158649
0.61876073
0.61612961
0.61369131
0.61144173
0.60937475
0.60748262
0.60575628
0.60418568
0.60276013
0.60146855
0.60029974
0.59924263
0.59828636
0.59742051
0.59663513
0.59592086
0.59526894
0.59467126
0.59412037
0.59360947
0.5931324
0.59268363
0.59225824
0.59185181
0.59146038
0.59108025
0.59070791
0.59033988
0.58997267
0.58960258
0.58922564
0.58883734
0.58843228
0.5880037
0.58754345
0.58704232
0.58649043
0.5858781
0.58519787
0.58444292
0.58359735
0.58264543
0.58163482
0.58066172
0.57958608
0.57809137
0.65652113
0.77383008
0.71822518
0.74238183
0.72465957
0.72806817
0.7216919
0.71914057
0.71520588
0.7114533
0.70751006
0.70344106
0.69924306
0.69492694
0.69050277
0.68598396
0.68138598
0.67672661
0.67202575
0.6673052
0.6625883
0.65789958
0.65326426
0.64870775
0.64425506
0.63993021
0.63575561
0.63175149
0.62793541
0.62432185
0.62092189
0.61774311
0.61478957
0.61206191
0.60955765
0.60727148
0.60519567
0.60332051
0.60163476
0.60012605
0.59878129
0.59758705
0.59652981
0.59559626
0.59477351
0.5940492
0.59341166
0.59284994
0.59235391
0.5919142
0.59152227
0.59117036
0.59085147
0.59055933
0.59028836
0.59003364
0.58979086
0.58955623
0.58932637
0.58909816
0.58886865
0.58863491
0.58839392
0.58814247
0.58787707
0.58759376
0.58728775
0.58695305
0.58658229
0.58616666
0.58569636
0.58516257
0.58455995
0.58388182
0.58310821
0.58222553
0.58129608
0.58040405
0.57935637
0.57791234
0.65593841
0.77156587
0.71562248
0.73873128
0.72132146
0.72361749
0.71719975
0.71393501
0.70957299
0.70528029
0.70080238
0.69619091
0.69144788
0.68659012
0.68163402
0.67659976
0.67151002
0.66638991
0.66126666
0.65616913
0.65112725
0.64617143
0.64133182
0.63663753
0.63211585
0.62779151
0.62368592
0.61981671
0.61619729
0.61283666
0.60973941
0.60690588
0.60433254
0.60201238
0.59993546
0.59808951
0.59646042
0.59503287
0.59379077
0.59271773
0.59179742
0.59101387
0.59035169
0.5897963
0.589334
0.58895204
0.5886387
0.58838326
0.58817601
0.58800816
0.58787185
0.58776009
0.58766667
0.58758615
0.58751377
0.5874454
0.58737752
0.58730707
0.58723137
0.58714796
0.58705449
0.58694863
0.58682789
0.58668958
0.58653071
0.58634787
0.58613694
0.58589275
0.58560873
0.58527647
0.58488643
0.58443091
0.58390624
0.58330471
0.58260351
0.58179501
0.58095252
0.58013593
0.5791088
0.57773317
0.65471358
0.76813447
0.71204187
0.7339027
0.71680922
0.71786192
0.7112945
0.70724816
0.70233099
0.69740291
0.69229003
0.68704274
0.68167088
0.67619959
0.67065425
0.66506416
0.6594612
0.65387958
0.64835515
0.64292463
0.63762473
0.6324911
0.62755733
0.62285386
0.61840706
0.61423851
0.6103644
0.60679538
0.60353645
0.60058732
0.59794282
0.59559352
0.59352646
0.59172589
0.59017402
0.58885169
0.58773902
0.58681597
0.58606274
0.58546014
0.58498988
0.58463473
0.58437865
0.58420689
0.58410593
0.58406357
0.5840688
0.5841118
0.58418383
0.58427717
0.58438505
0.58450154
0.5846215
0.58474052
0.58485481
0.5849612
0.585057
0.58513997
0.58520818
0.58525988
0.58529334
0.58530684
0.58529846
0.585266
0.58520701
0.5851186
0.58499733
0.5848389
0.58463747
0.58438513
0.58407291
0.58369442
0.58324669
0.58271989
0.58209066
0.58136169
0.58061142
0.57986181
0.57884648
0.57755655
0.65279211
0.76329747
0.70752767
0.72770547
0.71091582
0.71057577
0.70370635
0.6987821
0.69316041
0.68747898
0.68161986
0.67563919
0.66955839
0.66341346
0.65724154
0.65108354
0.64498272
0.63898392
0.63313235
0.62747224
0.62204537
0.61688968
0.61203793
0.60751665
0.60334552
0.59953693
0.59609613
0.59302157
0.5903056
0.58793535
0.58589364
0.58416007
0.58271195
0.58152519
0.58057512
0.57983712
0.57928717
0.57890222
0.57866053
0.57854181
0.57852739
0.5786002
0.57874483
0.57894741
0.57919562
0.57947852
0.57978651
0.58011118
0.58044522
0.58078232
0.58111705
0.58144475
0.58176153
0.58206409
0.58234973
0.58261624
0.58286184
0.58308511
0.58328488
0.58346008
0.58360964
0.58373241
0.58382702
0.5838918
0.58392477
0.5839236
0.5838855
0.58380693
0.5836828
0.58350582
0.58326806
0.58296441
0.58259134
0.58213601
0.58157762
0.58093304
0.58027937
0.57958859
0.57857792
0.57738592
0.65011593
0.75666556
0.70195988
0.71987517
0.70333243
0.70141245
0.69404713
0.68812293
0.68163701
0.67507482
0.6683603
0.6615594
0.65470959
0.6478614
0.64106731
0.63438282
0.62786437
0.62156763
0.61554535
0.60984542
0.60450895
0.59956891
0.59504915
0.590964
0.58731849
0.58410891
0.58132385
0.57894543
0.57695068
0.57531286
0.5740028
0.57299004
0.57224379
0.57173376
0.57143077
0.57130715
0.5713371
0.57149686
0.57176475
0.57212119
0.57254869
0.57303168
0.57355645
0.57411099
0.57468484
0.57526896
0.5758556
0.57643811
0.57701087
0.57756916
0.57810903
0.57862722
0.57912108
0.57958849
0.58002781
0.58043781
0.58081758
0.58116649
0.58148408
0.58176996
0.58202366
0.58224459
0.58243191
0.58258443
0.58270065
0.58277874
0.58281655
0.58281118
0.58275818
0.58265118
0.58248373
0.58225175
0.58194985
0.58156203
0.58107307
0.58051566
0.5799596
0.57932327
0.57831988
0.57721216
0.64654981
0.74757087
0.69472713
0.70995966
0.69360225
0.68989637
0.68181098
0.67475345
0.66724564
0.65967843
0.65201463
0.64433531
0.63670058
0.62918103
0.62184819
0.61477333
0.6080242
0.60166214
0.59573945
0.59029744
0.58536511
0.58095879
0.57708246
0.57372882
0.57088077
0.56851326
0.56659515
0.56509115
0.56396345
0.5631733
0.56268217
0.5624527
0.56244941
0.56263917
0.56299147
0.56347856
0.56407548
0.56475994
0.56551226
0.56631516
0.56715356
0.56801444
0.56888659
0.56976045
0.5706279
0.57148212
0.57231743
0.57312912
0.57391335
0.57466702
0.57538768
0.57607343
0.57672285
0.57733494
0.57790906
0.5784449
0.57894236
0.57940153
0.5798226
0.58020577
0.58055116
0.58085868
0.58112797
0.58135831
0.58154865
0.58169764
0.58180366
0.58186432
0.58187579
0.58183287
0.58173088
0.58156636
0.58133121
0.58100702
0.58058627
0.58011555
0.57965203
0.57906661
0.57807935
0.57704571
0.64180566
0.73602737
0.68540026
0.69739799
0.68114562
0.67546594
0.66639599
0.65805334
0.64937092
0.64069153
0.63202557
0.62347801
0.61513831
0.60710015
0.59945195
0.59227372
0.58563297
0.579582
0.5741562
0.56937371
0.56523616
0.56173036
0.55883066
0.55650158
0.55470058
0.55338062
0.55249244
0.55198646
0.55181431
0.55192986
0.55229004
0.55285525
0.55358957
0.55446084
0.55544049
0.55650344
0.55762779
0.55879459
0.55998755
0.56119275
0.56239843
0.56359465
0.56477315
0.56592708
0.56705086
0.56813996
0.56919079
0.57020055
0.57116714
0.57208901
0.57296511
0.5737948
0.5745778
0.57531411
0.57600401
0.57664797
0.57724663
0.57780072
0.57831099
0.57877815
0.57920285
0.57958544
0.57992599
0.58022423
0.58047952
0.58069099
0.58085742
0.5809768
0.5810459
0.58106091
0.58101895
0.58091667
0.5807431
0.58047914
0.58012601
0.57973916
0.57935753
0.57881613
0.57785601
0.57690834
0.63552431
0.72303556
0.67342032
0.68160103
0.66524316
0.65739845
0.64703271
0.63723419
0.62725975
0.61743554
0.60783197
0.59858338
0.58980572
0.58160568
0.57407175
0.56727103
0.56124688
0.55601876
0.55158369
0.54791908
0.54498633
0.54273483
0.54110591
0.54003639
0.53946164
0.53931801
0.53954459
0.54008444
0.54088534
0.54190015
0.54308687
0.54440847
0.54583267
0.54733151
0.54888102
0.55046078
0.55205348
0.55364462
0.55522209
0.5567759
0.55829787
0.55978137
0.56122114
0.56261303
0.5639539
0.56524141
0.56647393
0.56765043
0.56877035
0.56983355
0.57084022
0.57179084
0.57268611
0.57352692
0.57431429
0.57504941
0.57573351
0.57636785
0.57695368
0.57749217
0.57798435
0.57843098
0.57883254
0.57918912
0.57950053
0.57976629
0.5799855
0.5801564
0.58027643
0.58034324
0.58035545
0.58030922
0.58019143
0.57998463
0.57969885
0.57939155
0.5790783
0.57857208
0.57765073
0.5768026
0.62737819
0.70603664
0.65795092
0.66168018
0.64484875
0.63463345
0.62268784
0.61133066
0.6000954
0.58930287
0.57907994
0.56957715
0.56091151
0.55317084
0.54640854
0.54064441
0.53586719
0.53203929
0.5291025
0.52698399
0.5256021
0.52487131
0.52470631
0.52502497
0.52575049
0.52681262
0.52814827
0.52970161
0.53142392
0.53327308
0.53521304
0.5372132
0.53924777
0.54129521
0.54333763
0.54536032
0.54735125
0.54930072
0.55120099
0.55304598
0.55483104
0.55655266
0.55820836
0.55979648
0.56131605
0.56276669
0.56414848
0.56546191
0.56670775
0.56788707
0.5690011
0.57005126
0.57103905
0.57196611
0.5728341
0.57364475
0.5743998
0.57510093
0.57574981
0.57634795
0.57689673
0.57739726
0.57785032
0.5782564
0.57861567
0.578928
0.5791927
0.57940829
0.57957296
0.57968568
0.57974592
0.57974889
0.57968048
0.57952739
0.5793079
0.57907519
0.57881776
0.57833721
0.57746392
0.57673137
0.61671902
0.68405048
0.63759416
0.63621783
0.61848627
0.60578185
0.59218815
0.57943814
0.56731506
0.55611611
0.54598302
0.53703674
0.52934304
0.5229205
0.51774356
0.51375077
0.51085384
0.50894694
0.50791521
0.5076418
0.50801327
0.50892324
0.51027471
0.51198113
0.51396664
0.51616571
0.51852242
0.52098956
0.52352761
0.52610377
0.52869103
0.53126735
0.53381484
0.53631917
0.53876896
0.54115533
0.54347142
0.54571212
0.54787374
0.54995377
0.55195065
0.55386366
0.55569268
0.55743819
0.55910105
0.5606825
0.56218404
0.56360741
0.56495449
0.56622729
0.56742791
0.5685585
0.56962124
0.57061834
0.57155197
0.57242431
0.57323746
0.57399345
0.57469426
0.57534171
0.57593742
0.57648278
0.57697887
0.57742649
0.57782615
0.57817798
0.57848146
0.57873546
0.57893898
0.57909202
0.57919417
0.57923945
0.57921406
0.57911066
0.57895437
0.57878968
0.57857865
0.57812084
0.57730485
0.57669741
0.60239341
0.6549719
0.61043102
0.60345523
0.58454573
0.56946618
0.55464459
0.54120196
0.52910307
0.51856435
0.50965842
0.50240237
0.49674598
0.4925897
0.48979822
0.48821561
0.48767809
0.48802411
0.48910148
0.4907717
0.49291215
0.49541652
0.49819427
0.50116935
0.50427864
0.50747029
0.51070208
0.51393993
0.51715659
0.52033044
0.52344453
0.52648575
0.52944412
0.53231222
0.53508473
0.53775801
0.54032979
0.54279894
0.54516518
0.547429
0.54959143
0.55165397
0.55361848
0.5554871
0.55726218
0.55894624
0.56054189
0.56205185
0.56347885
0.56482566
0.56609503
0.56728969
0.56841234
0.56946561
0.57045207
0.57137424
0.5722345
0.57303515
0.57377839
0.57446626
0.5751006
0.575683
0.5762148
0.57669707
0.57713059
0.57751566
0.57785195
0.57813876
0.57837588
0.57856396
0.57870216
0.57878346
0.57879575
0.57873806
0.57863941
0.57853258
0.57835976
0.57793407
0.57719681
0.57667651
0.58242683
0.61645379
0.57427087
0.56159232
0.54201115
0.52498878
0.51009119
0.49738094
0.48682592
0.4784689
0.47221235
0.46789632
0.46530934
0.46421695
0.46438082
0.46557395
0.46758976
0.47024682
0.47338999
0.47688944
0.48063836
0.48455006
0.48855503
0.49259808
0.49663586
0.5006346
0.50456835
0.50841739
0.51216701
0.51580648
0.51932825
0.52272726
0.52600045
0.52914634
0.53216465
0.53505607
0.53782207
0.54046465
0.5429863
0.5453898
0.54767821
0.54985475
0.55192278
0.5538857
0.555747
0.55751014
0.55917858
0.56075577
0.56224507
0.56364981
0.56497323
0.56621849
0.56738864
0.56848667
0.56951543
0.57047766
0.57137598
0.57221287
0.57299069
0.57371166
0.57437774
0.57499073
0.57555215
0.5760633
0.57652514
0.57693811
0.57730211
0.5776169
0.57788293
0.57810102
0.57826963
0.57838149
0.57842747
0.5784124
0.57836526
0.57830443
0.57815779
0.57776159
0.57711291
0.57672649
0.55420569
0.56598956
0.52775938
0.50928145
0.48860259
0.4731003
0.46009853
0.45019747
0.44313235
0.43865985
0.43643323
0.43608852
0.43726751
0.43964328
0.44293078
0.44689046
0.45132638
0.4560817
0.46103294
0.46608424
0.47116213
0.47621091
0.48118894
0.48606551
0.4908184
0.49543196
0.49989561
0.50420262
0.50834921
0.51233388
0.51615681
0.51981947
0.52332429
0.5266744
0.52987343
0.53292537
0.53583448
0.53860514
0.54124184
0.54374911
0.54613145
0.54839334
0.55053923
0.55257344
0.55450024
0.5563238
0.55804818
0.55967732
0.56121505
0.56266509
0.56403102
0.56531631
0.56652428
0.56765813
0.56872092
0.56971557
0.57064484
0.57151136
0.57231761
0.57306589
0.57375831
0.57439678
0.57498298
0.57551836
0.57600401
0.57644051
0.57682802
0.57716677
0.57745752
0.57770087
0.57789462
0.5780322
0.57810831
0.57813205
0.57812906
0.57810435
0.57798136
0.57762719
0.57707794
0.57679282
0.51361355
0.50104444
0.46377675
0.44585231
0.4284081
0.41618964
0.407869
0.4032298
0.40161743
0.40244517
0.40514351
0.40922482
0.41428636
0.42000939
0.4261482
0.43251754
0.43898017
0.44543601
0.4518132
0.45806109
0.46414483
0.4700412
0.47573559
0.48121965
0.4864896
0.49154496
0.49638762
0.50102111
0.50545015
0.5096802
0.51371725
0.51756757
0.52123759
0.52473378
0.52806255
0.53123026
0.53424312
0.53710718
0.53982833
0.54241229
0.54486458
0.54719055
0.54939535
0.55148397
0.55346121
0.55533169
0.55709987
0.55877005
0.56034635
0.56183276
0.56323309
0.564551
0.56579
0.56695344
0.56804451
0.56906626
0.57002154
0.57091307
0.57174344
0.57251499
0.57322994
0.57389026
0.57449775
0.57505394
0.57556002
0.57601671
0.57642447
0.57678384
0.57709569
0.57736013
0.57757469
0.57773419
0.57783671
0.57789278
0.57792218
0.57792124
0.57782199
0.57752681
0.57708486
0.57686133
0.45172183
0.41911948
0.38939299
0.37452986
0.36368328
0.35887733
0.3583111
0.36106473
0.36614594
0.37279421
0.38042352
0.38860883
0.39704937
0.40553781
0.41393432
0.422147
0.43011744
0.43781044
0.4452067
0.45229779
0.4590826
0.46556487
0.47175146
0.47765123
0.4832742
0.48863097
0.49373238
0.49858924
0.50321215
0.5076114
0.51179694
0.51577829
0.51956457
0.52316446
0.52658625
0.52983783
0.53292669
0.53585999
0.53864452
0.54128678
0.54379293
0.54616888
0.54842024
0.55055241
0.55257051
0.55447947
0.55628401
0.55798861
0.55959761
0.56111515
0.56254516
0.56389145
0.56515762
0.56634713
0.56746326
0.56850911
0.5694876
0.57040155
0.57125354
0.57204602
0.57278122
0.57346118
0.57408776
0.57466253
0.57518673
0.57566125
0.57608679
0.57646411
0.57679396
0.57707616
0.57730851
0.57748761
0.57761373
0.57769611
0.57774757
0.57776009
0.57768129
0.57744786
0.57710974
0.57693362
0.35587988
0.32238095
0.30475489
0.30026972
0.30165332
0.30792328
0.31710059
0.32791838
0.33950233
0.35130055
0.36297699
0.37433539
0.38526794
0.39572152
0.40567645
0.41513309
0.42410346
0.43260607
0.44066267
0.44829631
0.45553015
0.46238672
0.46888758
0.4750531
0.48090236
0.48645319
0.49172218
0.49672476
0.50147526
0.50598701
0.51027239
0.51434295
0.51820946
0.52188196
0.52536987
0.52868202
0.53182667
0.53481163
0.53764425
0.54033145
0.54287981
0.54529554
0.54758454
0.54975241
0.5518045
0.55374588
0.5555814
0.55731569
0.55895317
0.56049807
0.5619544
0.56332602
0.56461661
0.56582966
0.56696849
0.56803626
0.56903592
0.56997031
0.57084207
0.57165365
0.57240731
0.57310515
0.57374902
0.57434053
0.57488098
0.57537141
0.5758127
0.57620567
0.57655093
0.57684822
0.57709604
0.57729268
0.57743946
0.57754304
0.57761019
0.57763231
0.57757427
0.57740044
0.57715194
0.57700354
0.2166898
0.21540785
0.22079429
0.23419829
0.25151221
0.26990726
0.2881784
0.30567496
0.32216767
0.33759243
0.35197431
0.36537365
0.37786414
0.38952105
0.40041612
0.4106154
0.42017859
0.42915923
0.43760505
0.4455586
0.45305778
0.46013642
0.46682479
0.47315001
0.47913648
0.48480621
0.49017911
0.49527326
0.50010513
0.50468976
0.50904094
0.51317136
0.5170927
0.52081579
0.52435066
0.52770665
0.53089247
0.53391628
0.53678572
0.53950797
0.5420898
0.54453759
0.54685739
0.54905493
0.55113564
0.55310468
0.55496697
0.5567272
0.55838983
0.55995912
0.56143914
0.56283376
0.56414667
0.56538141
0.56654131
0.56762953
0.56864905
0.5696027
0.57049315
0.57132286
0.57209412
0.57280901
0.57346941
0.57407694
0.57463297
0.57513863
0.57559489
0.57600255
0.57636207
0.57667327
0.57693534
0.57714773
0.57731184
0.57743157
0.57750969
0.57753964
0.57750136
0.57737762
0.57719625
0.57705929
0.091983085
0.12189737
0.15933521
0.19299693
0.22314186
0.24967973
0.27323082
0.29426107
0.31318664
0.33033372
0.34596522
0.36029177
0.37348428
0.38568266
0.39700259
0.40754067
0.41737822
0.42658435
0.43521817
0.44333065
0.45096601
0.45816287
0.46495514
0.47137279
0.47744242
0.48318775
0.48863005
0.4937885
0.4986804
0.50332148
0.50772609
0.51190736
0.51587732
0.51964709
0.52322695
0.52662642
0.52985436
0.53291906
0.53582825
0.5385892
0.54120874
0.54369332
0.54604902
0.54828159
0.55039651
0.55239895
0.55429385
0.55608591
0.55777961
0.55937922
0.56088881
0.56231225
0.56365326
0.56491536
0.5661019
0.56721604
0.56826078
0.56923894
0.57015319
0.57100602
0.5717997
0.57253632
0.57321774
0.57384557
0.57442118
0.57494574
0.5754202
0.57584529
0.57622136
0.57654828
0.57682568
0.5770535
0.57723281
0.57736556
0.57745244
0.57748897
0.57746416
0.57736979
0.57722458
0.57709362
0.010974311
0.29745592
0.47243955
0.52050808
0.5302836
0.53080471
0.53048186
0.53162469
0.53310478
0.53459031
0.53607382
0.53751834
0.53894141
0.54034887
0.54175351
0.54316473
0.5445839
0.54601156
0.54744747
0.54889065
0.55033966
0.55179272
0.55324784
0.55470289
0.55615571
0.55760409
0.55904584
0.56047881
0.56190089
0.56331001
0.56470417
0.56608139
0.56743973
0.56877729
0.57009219
0.57138254
0.57264652
0.57388225
0.57508789
0.5762616
0.5774015
0.57850574
0.57957242
0.58059968
0.58158564
0.5825284
0.5834261
0.58427689
0.58507894
0.58583044
0.58652966
0.58717489
0.58776451
0.58829698
0.58877089
0.58918497
0.58953823
0.5898299
0.59005963
0.59022718
0.59033223
0.59037491
0.59035582
0.59027564
0.59013482
0.58993418
0.58967305
0.58935354
0.58896786
0.58852818
0.5879976
0.58744684
0.58672147
0.58609762
0.58505998
0.58450321
0.5829304
0.58252635
0.58030591
0.57989602
0.064526616
0.38549569
0.52301278
0.54811791
0.54898303
0.54716174
0.54630762
0.5464493
0.54665508
0.54696122
0.54735272
0.54790981
0.5485872
0.54935594
0.55018709
0.55107733
0.55202009
0.55301087
0.55404429
0.55511518
0.55621879
0.55735067
0.55850662
0.55968263
0.56087492
0.56207987
0.56329401
0.56451402
0.56573672
0.56695904
0.568178
0.56939073
0.57059444
0.57178642
0.57296402
0.57412466
0.57526579
0.57638495
0.57747967
0.57854757
0.57958626
0.58059341
0.58156672
0.58250391
0.58340275
0.58426105
0.58507666
0.58584749
0.5865715
0.58724674
0.58787132
0.58844345
0.58896144
0.58942373
0.58982891
0.59017575
0.59046333
0.59069099
0.59085849
0.59096569
0.59101243
0.59099901
0.59092618
0.59079478
0.59060543
0.59035903
0.59005522
0.5896957
0.58927361
0.58879885
0.58823876
0.58765473
0.5869088
0.58625277
0.58520535
0.58460599
0.58303087
0.58259901
0.58033112
0.57997957
0.15000633
0.46672946
0.54274224
0.55551725
0.55416519
0.55323003
0.55322257
0.5537832
0.55420078
0.55472596
0.55523208
0.55579957
0.55638764
0.55701752
0.55768067
0.55838174
0.55911688
0.55988635
0.56068862
0.56152201
0.56238472
0.5632748
0.56419013
0.56512846
0.56608741
0.56706448
0.5680571
0.56906259
0.57007823
0.57110124
0.57212881
0.5731581
0.57418625
0.5752104
0.57622768
0.57723523
0.5782302
0.57920974
0.58017107
0.58111137
0.5820279
0.58291794
0.58377881
0.58460787
0.58540256
0.58616035
0.58687882
0.58755561
0.58818845
0.58877518
0.58931374
0.58980223
0.59023884
0.59062197
0.59095016
0.5912222
0.59143719
0.59159455
0.59169414
0.5917359
0.59171978
0.59164623
0.59151612
0.5913304
0.59108984
0.5907954
0.5904469
0.59004578
0.58958569
0.58907501
0.58848359
0.58786672
0.58709731
0.58641202
0.58534839
0.58471304
0.58312683
0.58267166
0.58035928
0.58005692
0.23276196
0.51405489
0.55641479
0.5639138
0.56125403
0.56148484
0.56154939
0.56214866
0.56242463
0.56287949
0.56325764
0.56371514
0.56417576
0.5646682
0.56517777
0.56571257
0.56626992
0.56685196
0.56745858
0.56808971
0.56874506
0.56942414
0.5701262
0.57085027
0.57159515
0.57235942
0.57314147
0.57393949
0.57475149
0.57557531
0.57640865
0.57724907
0.57809403
0.57894085
0.57978679
0.58062904
0.58146472
0.58229091
0.58310465
0.58390299
0.58468295
0.58544157
0.58617592
0.58688311
0.58756031
0.58820474
0.58881372
0.58938467
0.58991511
0.5904027
0.59084522
0.59124064