/*--------------------------------*- C++ -*----------------------------------*\
  =========                 |
  \\      /  F ield         | OpenFOAM: The Open Source CFD Toolbox
   \\    /   O peration     | Website:  https://openfoam.org
    \\  /    A nd           | Version:  12
     \\/     M anipulation  |
\*---------------------------------------------------------------------------*/
FoamFile
{
    format      ascii;
    class       volScalarField;
    location    "0.102";
    object      omega;
}
// * * * * * * * * * * * * * * * * * * * * * * * * * * * * * * * * * * * * * //

dimensions      [0 0 -1 0 0 0 0];

internalField   nonuniform List<scalar> 
16000
(
1090.4831
2191.5975
1068.3849
643.69555
454.19198
315.88946
239.69003
180.95181
145.78673
118.04156
100.31402
85.859601
75.156523
66.208656
58.909648
52.758799
47.566492
43.137639
39.331984
36.037594
33.170375
30.659387
28.446315
26.484618
24.736796
23.173678
21.771103
20.510411
19.375793
18.352821
17.428438
16.592343
15.836329
15.153453
14.537787
13.983824
13.486381
13.040567
12.642291
12.28811
11.974151
11.696334
11.451694
11.237534
11.050791
10.888337
10.747746
10.626713
10.523031
10.434613
10.359591
10.296336
10.243324
10.19921
10.162821
10.133261
10.109928
10.092564
10.081449
10.077215
10.077794
10.077829
10.077117
10.07588
10.074006
10.071488
10.068348
10.064676
10.060643
10.056478
10.052352
10.048298
10.044145
10.039277
10.035653
10.032169
10.028266
10.030005
10.02394
10.038082
1132.1931
2182.9865
1060.8549
644.02379
454.33793
318.75136
240.74898
182.7442
146.61058
119.06599
100.85233
86.420018
75.514276
66.519116
59.133922
52.932923
47.693751
43.230094
39.397132
36.081029
33.196955
30.673656
28.451865
26.484336
24.732529
23.166899
21.762586
20.500577
19.365141
18.342097
17.418123
16.582559
15.827057
15.144559
14.529172
13.975454
13.478333
13.032857
12.634748
12.280679
11.967073
11.689632
11.445233
11.231299
11.044945
10.882896
10.742679
10.622011
10.518706
10.430672
10.356009
10.293098
10.240414
10.196612
10.160494
10.131122
10.107853
10.090333
10.0786
10.073191
10.0733
10.073311
10.072525
10.071231
10.069317
10.066779
10.063645
10.060006
10.056026
10.05192
10.047852
10.043849
10.03982
10.035282
10.031882
10.028437
10.025108
10.024492
10.024129
10.038901
1172.3155
2184.5709
1049.5382
640.38774
450.9856
318.99774
239.65343
182.9323
146.16384
119.22041
100.69829
86.430233
75.410889
66.420736
59.002612
52.79005
47.540062
43.071246
39.23711
35.922069
33.040948
30.522599
28.307192
26.347253
24.603452
23.04616
21.650054
20.395847
19.267833
18.252186
17.33552
16.50691
15.757933
15.081439
14.47158
13.922962
13.430648
12.989733
12.595757
12.245372
11.935377
11.661361
11.420017
11.208793
11.025058
10.865429
10.727389
10.60867
10.507124
10.420687
10.347432
10.285769
10.234181
10.191349
10.156071
10.127386
10.104634
10.087439
10.075716
10.069716
10.069225
10.069122
10.068209
10.066799
10.064792
10.062183
10.059008
10.055363
10.05141
10.047345
10.043317
10.039336
10.035359
10.03112
10.027957
10.024735
10.02153
10.019974
10.022088
10.034766
1210.6475
2193.0119
1039.8009
636.97791
447.22431
319.03136
238.25997
182.95747
145.57708
119.27464
100.49327
86.379029
75.266669
66.275453
58.831239
52.608797
47.351205
42.879605
39.046724
35.735045
32.85888
30.347357
28.140033
26.189342
24.455084
22.907599
21.521125
20.276086
19.156705
18.149562
17.241288
16.42067
15.679223
15.00968
14.40624
13.86354
13.376771
12.941131
12.552011
12.2059
11.900044
11.629976
11.392201
11.184087
11.003329
10.846456
10.710889
10.594373
10.494793
10.410135
10.338439
10.278149
10.227755
10.185968
10.151595
10.123654
10.10146
10.084619
10.07299
10.066686
10.065523
10.065253
10.064182
10.062627
10.060499
10.057794
10.054551
10.050872
10.046915
10.042858
10.038831
10.034831
10.030839
10.026843
10.023946
10.020991
10.017791
10.015837
10.019554
10.02916
1247.0024
2211.468
1031.5694
633.29992
442.7217
318.32924
236.1886
182.4985
144.61477
119.05181
100.10071
86.151778
74.983873
65.998424
58.545289
52.323881
47.069576
42.604165
38.78055
35.479396
32.614411
30.115229
27.920837
25.983776
24.263043
22.729017
21.355572
20.122884
19.015014
18.018975
17.121545
16.311222
15.57949
14.918948
14.323851
13.788854
13.309254
12.880405
12.497633
12.157107
11.856549
11.591514
11.358361
11.154237
10.977232
10.823821
10.691355
10.577589
10.480432
10.397953
10.328154
10.269522
10.220558
10.18001
10.146705
10.119651
10.098143
10.081769
10.070359
10.063915
10.062204
10.061704
10.060441
10.058706
10.056426
10.053596
10.050257
10.046511
10.042517
10.038436
10.034374
10.03032
10.026245
10.022543
10.019939
10.017272
10.014111
10.012115
10.016671
10.024167
1281.2396
2237.4507
1027.6693
630.34571
438.75529
317.00025
233.643
181.63194
143.38237
118.58995
99.564941
85.77057
74.581939
65.606872
58.159264
51.94851
46.706688
42.255172
38.447573
35.16307
32.314604
29.832533
27.655296
25.735571
24.031861
22.514528
21.157127
19.939655
18.845909
17.863329
16.978977
16.181046
15.461029
14.811363
14.226371
13.700715
13.229777
12.809076
12.434011
12.100309
11.80609
11.547034
11.319451
11.120107
10.947526
10.798187
10.669359
10.558815
10.464462
10.384496
10.316872
10.260131
10.212788
10.17363
10.141519
10.115462
10.094733
10.078909
10.067803
10.061345
10.059219
10.058439
10.056952
10.055009
10.052551
10.049572
10.046112
10.042271
10.038204
10.034062
10.02993
10.025798
10.021568
10.018239
10.015955
10.013606
10.010577
10.00864
10.013112
10.019264
1313.3191
2268.5486
1027.7587
627.54206
434.8387
315.03461
231.01295
180.39432
141.98572
117.89242
98.895137
85.234355
74.057226
65.098766
57.670018
51.479742
46.259473
41.829664
38.044711
34.783088
31.956635
29.496614
27.34104
25.442056
23.759065
22.261879
20.923745
19.724567
18.647789
17.681225
16.812376
16.029107
15.32297
14.686207
14.113218
13.598671
13.138012
12.7269
12.360952
12.035553
11.748772
11.496643
11.2756
11.081874
10.914385
10.769719
10.645059
10.5382
10.447016
10.369881
10.304693
10.250061
10.204515
10.166886
10.136082
10.11112
10.09126
10.076058
10.065325
10.058953
10.056535
10.055434
10.053695
10.051517
10.048856
10.045707
10.042103
10.03814
10.033964
10.029721
10.025483
10.021258
10.016945
10.013993
10.012047
10.010048
10.007254
10.005454
10.009649
10.014571
1343.3524
2302.2149
1029.3546
624.41463
430.98763
312.42182
228.37733
178.92716
140.47207
116.97977
98.108115
84.551648
73.410799
64.476089
57.077586
50.91696
45.726768
41.326387
37.569832
34.337235
31.538365
29.105399
26.976361
25.099621
23.441188
21.967837
20.652446
19.474917
18.418254
17.470537
16.619877
15.853785
15.163927
14.542311
13.983419
13.481925
13.033333
12.633396
12.278002
11.963136
11.684945
11.440667
11.227106
11.039949
10.878189
10.73875
10.618759
10.516019
10.428328
10.354305
10.291778
10.239442
10.195844
10.159859
10.130452
10.106665
10.087744
10.073226
10.062917
10.056703
10.054104
10.052649
10.050635
10.048201
10.045315
10.041975
10.03821
10.0341
10.029783
10.025398
10.021014
10.016672
10.012426
10.00985
10.008251
10.006631
10.004184
10.002552
10.006178
10.01019
1371.4335
2336.2507
1027.6624
620.50677
426.1939
309.10959
224.84079
177.06381
138.62907
115.8835
97.199287
83.721345
72.63552
63.734017
56.376866
50.254376
45.102829
40.740179
37.014851
33.817384
31.05201
28.651452
26.554702
24.709033
23.079567
21.634183
20.345295
19.192954
18.159689
17.23371
16.403928
15.657503
14.986285
14.381998
13.839218
13.352625
12.917783
12.530535
12.186833
11.882641
11.614359
11.378942
11.173793
10.994693
10.839288
10.705576
10.590791
10.492566
10.408661
10.337986
10.278307
10.228418
10.186889
10.152637
10.124694
10.102138
10.084212
10.070429
10.06058
10.054568
10.051874
10.050044
10.047736
10.045026
10.041898
10.038349
10.034404
10.03013
10.025644
10.021081
10.016517
10.012002
10.008069
10.005867
10.004609
10.003383
10.001391
10.000004
10.002915
10.006522
1397.6547
2369.0344
1019.1118
615.51353
419.69628
305.357
220.48128
174.73221
136.74039
114.60462
96.158364
82.738078
71.72331
62.864523
55.559779
49.479073
44.373715
40.057639
36.378122
33.224367
30.500088
28.138363
26.079505
24.269337
22.673534
21.260392
20.001933
18.878488
17.872108
16.97093
16.164783
15.440629
14.790524
14.205842
13.681264
13.211473
12.792086
12.419039
12.088446
11.796333
11.539017
11.313314
11.117151
10.94601
10.797674
10.670159
10.561451
10.468103
10.388296
10.321154
10.264476
10.217143
10.177771
10.14531
10.11887
10.097579
10.080684
10.067676
10.058312
10.05252
10.049788
10.047573
10.044955
10.041957
10.038571
10.034797
10.030657
10.026202
10.021529
10.016763
10.012004
10.007269
10.003929
10.002098
10.001162
10.000323
9.9988689
9.9978428
10.000071
10.002889
1422.1298
2399.8874
1010.1533
609.44786
411.54903
301.20867
215.87553
172.20234
134.75113
113.14486
94.972565
81.594828
70.662526
61.847047
54.603735
48.586134
43.540769
39.282764
35.657686
32.556248
29.880664
27.564416
25.549569
23.780628
22.223434
20.84697
19.623082
18.532429
17.556617
16.683507
15.903537
15.204312
14.577859
14.015104
13.510839
13.059745
12.657499
12.30011
11.983861
11.704873
11.459552
11.244503
11.058036
10.895595
10.754808
10.633658
10.530692
10.442584
10.367464
10.303997
10.250477
10.205776
10.168613
10.137974
10.113047
10.093027
10.077178
10.064971
10.056115
10.050536
10.047785
10.045186
10.042248
10.038953
10.035298
10.031286
10.026936
10.022288
10.017419
10.012432
10.007492
10.002865
10.000049
9.9985894
9.9979522
9.9974738
9.9965929
9.996034
9.9977884
9.999997
1444.9855
2429.8359
996.70664
601.8303
402.01544
296.65058
211.09492
169.41737
132.73709
111.50971
93.614823
80.261257
69.415375
60.675106
53.512268
47.572179
42.600208
38.412069
34.851847
31.811926
29.193407
26.929672
24.965105
23.243258
21.730032
20.394508
19.209545
18.155787
17.214404
16.372977
15.620437
14.948834
14.348633
13.810194
13.3284
12.897922
12.514515
12.174232
11.873569
11.608758
11.376334
11.173479
10.997208
10.843885
10.711095
10.596692
10.499699
10.416866
10.346115
10.286455
10.236444
10.194463
10.159538
10.130722
10.107289
10.088521
10.073707
10.06231
10.053985
10.048602
10.045808
10.042835
10.039572
10.035974
10.032043
10.027784
10.023214
10.018363
10.013292
10.008094
10.002938
9.9987848
9.9964711
9.9953795
9.9950243
9.9948705
9.9945438
9.9945346
9.9960883
9.9976276
1466.5334
2457.941
979.34573
593.33778
391.99179
291.68331
206.24492
166.43495
130.67137
109.67737
92.020013
78.720629
67.986877
59.342598
52.278799
46.433357
41.549075
37.443775
33.959466
30.990648
28.438069
26.234537
24.326357
22.657844
21.194545
19.902552
18.761007
17.748447
16.845469
16.039899
15.320628
14.679275
14.107766
13.59586
13.138477
12.730256
12.367086
12.045026
11.760828
11.510929
11.291773
11.100462
10.9349
10.791086
10.666655
10.559728
10.468703
10.391269
10.325117
10.269159
10.222271
10.183285
10.150643
10.123641
10.101659
10.084098
10.070283
10.059683
10.051914
10.04672
10.0438
10.040473
10.036884
10.032984
10.028774
10.024261
10.019464
10.014403
10.009125
10.003761
9.9984848
9.9950582
9.9932182
9.9924919
9.9924207
9.9925626
9.9927152
9.9932497
9.9949601
9.9961872
1487.0075
2480.4565
957.82929
584.27704
381.52155
286.36114
201.4104
163.26135
128.48302
107.55256
90.172265
76.962007
66.364126
57.841174
50.897122
45.164825
40.384181
36.375494
32.979416
30.091444
27.614456
25.479792
23.631872
22.023047
20.616479
19.377538
18.284523
17.317811
16.457402
15.691207
15.007929
14.399375
13.858388
13.37492
12.943616
12.559003
12.217206
11.91425
11.647123
11.41262
11.207273
11.028057
10.873248
10.739014
10.622882
10.522795
10.437754
10.365674
10.30453
10.252395
10.208508
10.172101
10.141967
10.116799
10.096215
10.079791
10.066923
10.057074
10.049874
10.044906
10.041719
10.03806
10.03415
10.029951
10.025463
10.020694
10.015664
10.010394
10.004908
9.9994033
9.9945323
9.9916904
9.9902998
9.9899378
9.9901718
9.9906019
9.9911427
9.9921264
9.9940106
9.9953301
1506.6657
2492.6821
932.2067
574.57179
370.67446
280.71513
196.66598
159.81742
126.0517
105.14243
88.044145
74.967515
64.534538
56.160617
49.359788
43.761427
39.102512
35.204866
31.910985
29.111132
26.719658
24.663791
22.890126
21.348768
20.005655
18.825279
17.78599
16.869174
16.055198
15.331821
14.687535
14.114073
13.603641
13.149978
12.746016
12.385983
12.066375
11.783162
11.533474
11.314603
11.123199
10.956972
10.812835
10.688084
10.580352
10.487296
10.408029
10.340922
10.284167
10.236248
10.195377
10.161349
10.133337
10.110206
10.091005
10.075634
10.063644
10.054474
10.047812
10.043158
10.039537
10.035565
10.031343
10.026852
10.022091
10.017067
10.011798
10.006321
10.000669
9.9949774
9.9910094
9.9886948
9.9877189
9.987717
9.9882843
9.9890172
9.9898725
9.991251
9.9934391
9.9953131
1525.728
2484.0523
902.8657
564.26551
359.49747
274.75185
192.00497
155.97573
123.30022
102.40197
85.605823
72.714341
62.481992
54.289752
47.65935
42.217585
37.701307
33.925909
30.749716
28.058484
25.766162
23.800017
22.109178
20.643292
19.370042
18.254395
17.273881
16.40887
15.64442
14.966545
14.363382
13.827259
13.350633
12.927308
12.551289
12.216191
11.919
11.655706
11.42337
11.220006
11.041991
10.887381
10.753815
10.638319
10.538834
10.45333
10.379768
10.317449
10.264684
10.220452
10.182932
10.151206
10.125073
10.103684
10.086032
10.071654
10.060471
10.051901
10.045663
10.041273
10.037243
10.032967
10.028448
10.023674
10.018646
10.013372
10.007865
10.002165
9.9964429
9.9911932
9.9878939
9.9860739
9.9854768
9.9858202
9.9867364
9.9878006
9.9889411
9.9906688
9.9932546
9.9958909
1544.3613
2434.453
871.28879
553.39296
348.04703
268.38367
187.11704
151.70818
120.11521
99.283302
82.823514
70.177739
60.19055
52.218919
45.78918
40.52378
36.17307
32.550303
29.511983
26.944642
24.765502
22.900571
21.301766
19.919208
18.719415
17.673293
16.756282
15.948998
15.236209
14.605679
14.044876
13.54667
13.10385
12.710714
12.362295
12.05192
11.776838
11.533325
11.318096
11.129886
10.96505
10.821651
10.698096
10.591389
10.49944
10.420584
10.353125
10.295433
10.246388
10.205481
10.1709
10.141725
10.117303
10.097452
10.081144
10.06786
10.057409
10.049389
10.043456
10.039208
10.034826
10.030259
10.025458
10.020415
10.015127
10.009609
10.003879
9.9979754
9.9921275
9.987896
9.9851967
9.9838268
9.9835754
9.9842361
9.9854866
9.9868943
9.9883346
9.9904142
9.9933928
9.9964485
1562.4282
2399.2295
839.44076
541.89571
336.3257
261.06926
182.07583
146.91148
116.38291
95.728364
79.662047
67.333544
57.644791
49.939803
43.736803
38.691693
34.539408
31.093531
28.214462
25.788223
23.735585
21.983029
20.481386
19.189289
18.071198
17.098248
16.247182
15.499045
14.838684
14.255674
13.737379
13.276975
12.867704
12.503955
12.180944
11.894541
11.640747
11.416456
11.218807
11.045078
10.892981
10.760227
10.645988
10.547589
10.46276
10.389954
10.327689
10.274594
10.229425
10.191522
10.159609
10.132678
10.110094
10.091579
10.076492
10.064221
10.054449
10.046959
10.041257
10.036962
10.032287
10.027443
10.022378
10.017082
10.011547
10.005786
9.9998429
9.9938666
9.9885558
9.985045
9.9829081
9.9819498
9.9820151
9.9829569
9.9844966
9.9862195
9.9879603
9.9903478
9.9936183
9.9969518
1579.4729
2356.9365
806.67092
529.44023
324.23037
252.57461
176.68786
141.47032
111.99462
91.675899
76.087744
64.160849
54.825975
47.437964
41.527672
36.743906
32.824451
29.582172
26.882622
24.613581
22.695512
21.065281
19.671572
18.474027
17.439827
16.541609
15.757071
15.068214
14.459699
13.921654
13.444784
13.020983
12.644116
12.309118
12.011667
11.747837
11.514089
11.307399
11.125204
10.965215
10.825359
10.703587
10.59796
10.50721
10.428995
10.361831
10.304354
10.255365
10.213789
10.178649
10.149148
10.124296
10.103446
10.086104
10.072058
10.060629
10.051555
10.044581
10.039144
10.034553
10.029637
10.024536
10.019225
10.013693
10.007929
10.001944
9.995823
9.9898557
9.9855324
9.9826461
9.9810087
9.980429
9.9807879
9.981974
9.9837389
9.9857074
9.9877255
9.9903814
9.9938303
9.9974348
1594.833
2289.1376
772.2458
515.53155
310.99339
242.75035
170.63842
135.2447
106.84954
87.066824
72.074618
60.64037
51.751572
44.761498
39.198382
34.719418
31.066498
28.051418
25.544493
23.4459
21.676221
20.173924
18.891059
17.789731
16.839467
16.014991
15.295103
14.662198
14.104465
13.611004
13.173394
12.784295
12.43792
12.129626
11.855666
11.612742
11.397653
11.207466
11.03978
10.892351
10.763328
10.651096
10.554253
10.470426
10.398242
10.336233
10.28311
10.237755
10.199206
10.166911
10.139531
10.116497
10.097173
10.081075
10.067943
10.057232
10.048707
10.042151
10.03695
10.032028
10.026899
10.021568
10.016026
10.01027
10.004301
9.9981239
9.991912
9.9866295
9.9829927
9.9806678
9.9794669
9.9792319
9.9798651
9.9812658
9.9831985
9.9853364
9.987584
9.9904662
9.9940245
9.9978405
1607.4101
2220.1164
735.26477
499.58681
296.97342
231.40006
163.45692
128.06698
100.87053
81.871105
67.616882
56.813353
48.483826
41.969758
36.808857
32.671477
29.312069
26.53859
24.240872
22.319916
20.701892
19.329332
18.157253
17.150492
16.281323
15.527176
14.867583
14.289117
13.778771
13.32658
12.925397
12.568442
12.250376
11.966832
11.714369
11.490275
11.292078
11.116815
10.962391
10.826625
10.707656
10.604527
10.514846
10.437332
10.370545
10.313187
10.264034
10.222054
10.186387
10.15629
10.130826
10.109389
10.091422
10.076455
10.064146
10.054065
10.045973
10.039688
10.034628
10.029431
10.024105
10.018576
10.012828
10.006858
10.000702
9.9944425
9.988353
9.9839617
9.9809151
9.9790653
9.9782374
9.9783071
9.9791926
9.9807832
9.982843
9.985089
9.9875079
9.9905794
9.9942039
9.9981364
1614.3993
2136.4764
695.49053
479.90851
281.90008
218.2045
154.6684
119.79925
94.057309
76.136472
62.799021
52.788603
45.12023
39.149725
34.43361
30.661715
27.606999
25.09029
23.005037
21.262497
19.79435
18.54822
17.483074
16.566703
15.773731
15.08405
14.481423
13.952231
13.485441
13.070862
12.70261
12.374691
12.082287
11.821366
11.588567
11.381272
11.198103
11.036046
10.893322
10.768092
10.658547
10.562952
10.479876
10.407955
10.34593
10.292663
10.247052
10.207978
10.174965
10.146856
10.123052
10.102976
10.086166
10.072231
10.060653
10.051148
10.043444
10.03731
10.032243
10.026822
10.021303
10.015601
10.009691
10.003543
9.9971834
9.9908442
9.9855323
9.981761
9.9792387
9.9777904
9.9772739
9.9775993
9.9787021
9.9804551
9.9826216
9.9849591
9.9875228
9.9907399
9.994408
9.9983448
1610.6261
2033.8475
652.40972
454.19944
265.59421
202.81201
144.0318
110.46618
86.56151
69.991928
57.808116
48.714738
41.781005
36.39735
32.150341
28.754341
26.004864
23.743623
21.866514
20.295742
18.969961
17.842553
16.877033
16.044668
15.322684
14.693016
14.141249
13.655578
13.22623
12.845284
12.506199
12.203881
11.934065
11.693245
11.478454
11.287141
11.117121
10.966577
10.833768
10.717139
10.615213
10.526471
10.44923
10.382306
10.324471
10.274698
10.232318
10.19597
10.164945
10.138595
10.116266
10.097362
10.081604
10.068399
10.057446
10.04844
10.041146
10.035161
10.029871
10.024283
10.018577
10.0127
10.006647
10.000409
9.9940249
9.9877893
9.983243
9.9799875
9.9778976
9.9767917
9.9765385
9.9770646
9.9783291
9.9801994
9.9824523
9.9848951
9.9876207
9.9909609
9.9946606
9.9984864
1589.9468
1902.56
606.23141
421.78419
248.06088
185.01367
131.76997
100.39497
78.734514
63.764816
52.866552
44.758032
38.58996
33.806093
30.03075
27.005567
24.549224
22.530695
20.848797
19.43681
18.24111
17.221052
16.3449
15.58754
14.928846
14.352631
13.846045
13.399172
13.003332
12.651558
12.337832
12.057657
11.807216
11.58339
11.383555
11.20546
11.047125
10.906766
10.782759
10.673607
10.578
10.495109
10.422924
10.360371
10.306339
10.259813
10.219881
10.185711
10.156441
10.13151
10.110507
10.092684
10.077651
10.065055
10.054586
10.046005
10.038945
10.033083
10.027609
10.021895
10.01604
10.010001
10.003777
9.9973979
9.9910329
9.9854587
9.9814277
9.9785992
9.9768415
9.9760094
9.9759842
9.9766736
9.9780279
9.9799515
9.9822442
9.9847838
9.9876885
9.9911714
9.9949266
9.9986425
1543.5159
1742.4848
558.11923
383.45556
230.20481
165.08092
118.57006
90.21237
71.035187
57.780562
48.19952
41.078725
35.663885
31.460526
28.135898
25.462058
23.279918
21.476518
19.969881
18.698698
17.61731
16.690739
15.891767
15.198854
14.59465
14.064849
13.596955
13.183
12.815271
12.488302
12.196092
11.934701
11.700708
11.491314
11.304155
11.137202
10.988668
10.856943
10.740547
10.638102
10.548314
10.469961
10.401861
10.342726
10.29158
10.247456
10.209538
10.177274
10.149602
10.125983
10.105877
10.088834
10.074432
10.062302
10.052247
10.043875
10.036961
10.031138
10.02551
10.0197
10.013754
10.007632
10.001322
9.9948668
9.9885538
9.9836688
9.9800581
9.9775757
9.976063
9.9754032
9.9755252
9.9764034
9.9777868
9.9797136
9.9819874
9.9845568
9.9875662
9.9911702
9.9950644
9.99874
1463.1874
1580.35
509.0636
343.96462
206.23445
145.77182
105.37452
80.60869
63.920813
52.353124
44.022419
37.831748
33.113196
29.436325
26.51403
24.150976
22.211156
20.59796
19.241573
18.090792
17.106404
16.258557
15.52387
14.883803
14.323419
13.830545
13.395159
13.008959
12.665209
12.358302
12.083593
11.837425
11.616729
11.418971
11.242004
11.083973
10.943232
10.818286
10.707738
10.610279
10.524679
10.449858
10.385106
10.328812
10.280115
10.238102
10.201961
10.170953
10.144414
10.121698
10.102322
10.085856
10.072012
10.060294
10.050447
10.042218
10.035354
10.029495
10.023705
10.017774
10.011727
10.005541
9.9992127
9.9928037
9.9866791
9.9822824
9.9790307
9.9768474
9.9755683
9.9750553
9.9751219
9.976221
9.977625
9.9795519
9.981806
9.9843654
9.9873532
9.9908853
9.9947533
9.9985133
1350.7948
1492.0657
462.93648
296.59995
182.38278
127.63486
93.44499
72.105269
57.764835
47.775385
40.55283
35.168173
31.041383
27.803629
25.211848
23.101378
21.357569
19.898437
18.663156
17.609399
16.703383
15.919371
15.237046
14.640166
14.11556
13.652463
13.24197
12.876752
12.55086
12.259816
11.998693
11.7643
11.553823
11.364957
11.195739
11.044471
10.909647
10.789892
10.683926
10.590531
10.508535
10.43679
10.374173
10.319751
10.272577
10.231806
10.196665
10.166494
10.140823
10.118815
10.100035
10.084039
10.070455
10.058963
10.049274
10.041135
10.034293
10.02838
10.022449
10.016376
10.010178
10.003847
9.9974127
9.9910257
9.9853685
9.9812432
9.978239
9.9762435
9.9751265
9.9747723
9.9751231
9.9760755
9.977559
9.9794942
9.9817734
9.9843736
9.987374
9.9908352
9.9946125
9.9983636
1217.8881
1250.4725
422.76164
254.34038
160.19955
112.50825
83.57371
65.238295
52.899051
44.246873
37.943793
33.201672
29.533651
26.629777
24.285305
22.360923
20.759173
19.410202
18.262821
17.278708
16.428746
15.690271
15.045336
14.479452
13.980717
13.539237
13.146969
12.797159
12.484237
12.203601
11.951483
11.724741
11.520791
11.337467
11.172934
11.025596
10.894033
10.776947
10.67313
10.58145
10.500887
10.430709
10.369358
10.315998
10.26971
10.229675
10.195135
10.165409
10.139885
10.118027
10.099349
10.083429
10.0699
10.058438
10.048766
10.040631
10.033782
10.02785
10.02189
10.015769
10.009504
10.003086
9.9965543
9.9901149
9.9846715
9.9806909
9.9778242
9.9759532
9.9749491
9.9746501
9.9750468
9.9760297
9.9775335
9.9794684
9.9817654
9.9844033
9.9874203
9.990831
9.9945243
9.9982578
1098.4097
1112.6421
390.08762
223.63088
143.60478
101.38018
76.262021
60.235861
49.419967
41.770301
36.140793
31.864644
28.526262
25.860711
23.691753
21.898667
20.396406
19.123622
18.035104
17.096869
16.282879
15.572798
14.950453
14.402856
13.919865
13.491143
13.109429
12.768343
12.462644
12.187972
11.940736
11.71797
11.517225
11.336454
11.173921
11.028121
10.89771
10.781459
10.678216
10.586883
10.506405
10.435767
10.374007
10.320192
10.273451
10.232974
10.198014
10.167893
10.142002
10.119796
10.100792
10.084568
10.070753
10.059023
10.049098
10.040726
10.033665
10.027585
10.021708
10.015638
10.00945
10.00312
9.9966811
9.9903016
9.9847452
9.9807148
9.9778091
9.9759173
9.9749066
9.9746084
9.9750107
9.9759948
9.9774952
9.9794359
9.9817577
9.9844333
9.9874638
9.9908336
9.9944589
9.9981862
1043.5188
1071.5381
365.82717
206.54405
132.73207
93.825045
70.812157
56.258973
46.455168
39.511585
34.385897
30.4745
27.407679
24.948716
22.940085
21.273497
19.872429
18.681515
17.659859
16.776681
16.008382
15.336521
14.746393
14.226037
13.765547
13.35663
12.992263
12.666531
12.374463
12.111915
11.875446
11.662219
11.469885
11.296492
11.14039
11.000158
10.874537
10.76238
10.662613
10.574215
10.496199
10.427616
10.36755
10.315126
10.26952
10.229961
10.195739
10.166206
10.140776
10.118926
10.100192
10.084164
10.070485
10.05884
10.048957
10.040592
10.033506
10.027378
10.021436
10.015309
10.009068
10.002691
9.9962209
9.9898612
9.9845164
9.9805807
9.9777413
9.975881
9.9748741
9.9745654
9.9749781
9.9759428
9.9774269
9.9793585
9.9816889
9.9843868
9.9874329
9.9907923
9.994393
9.9981378
31573.149
79343.132
37180.207
10794.718
1423.0703
612.26016
434.69947
351.07568
290.84
236.54027
192.66964
159.37394
134.76212
116.49981
102.44783
90.958093
81.231857
72.934503
65.830765
59.704364
54.376551
49.711612
45.604717
41.970486
38.743527
35.859297
33.272379
30.942742
28.838486
26.93444
25.209133
23.643427
22.220611
20.925971
19.747955
18.676851
17.70391
16.821382
16.022191
15.299898
14.648888
14.063597
13.538957
13.070401
12.65344
12.283839
11.957768
11.671189
11.420416
11.202091
11.012943
10.849859
10.70987
10.59045
10.489086
10.40358
10.333613
10.278978
10.239636
10.218361
10.211517
10.209976
10.208457
10.206147
10.203348
10.200009
10.195659
10.188812
10.178813
10.166682
10.150114
10.134768
10.104296
10.087601
10.067152
10.069272
10.04114
10.066335
10.005354
10.035465
20003.627
59711.189
24741.095
5123.0137
974.6295
529.44673
398.29345
321.89105
264.36455
212.93999
174.58286
145.75204
124.68035
108.88267
96.411515
85.945372
77.022205
69.402111
62.855299
57.179883
52.221048
47.862719
44.012765
40.595133
37.547875
34.817882
32.363704
30.147893
28.142308
26.324314
24.674099
23.173928
21.808409
20.564005
19.430384
18.39856
17.460368
16.608609
15.836649
15.138463
14.508806
13.942349
13.434332
12.98043
12.576328
12.217996
11.901774
11.623733
11.38036
11.168429
10.984769
10.826374
10.69038
10.574368
10.475911
10.392786
10.324335
10.271027
10.232904
10.212856
10.206597
10.205235
10.20373
10.201453
10.198695
10.195381
10.191257
10.185019
10.175611
10.163912
10.147899
10.132888
10.103573
10.087498
10.06719
10.070018
10.041396
10.067697
10.005142
10.034679
28281.212
35596.122
13590.007
2564.8948
838.40145
499.42551
388.21351
306.56088
250.88179
201.33047
166.79053
139.65067
120.10003
105.19649
93.303276
83.246711
74.701862
67.406496
61.126664
55.673331
50.903191
46.707017
42.996848
39.699928
36.75541
34.11603
31.741622
29.595692
27.652158
25.889316
24.288055
22.831323
21.50442
20.294403
19.191642
18.18746
17.274022
16.444444
15.69233
15.011905
14.398142
13.845833
13.350428
12.907743
12.51357
12.164014
11.855528
11.584246
11.346783
11.139998
10.960791
10.806234
10.673555
10.560425
10.464343
10.383269
10.316077
10.263793
10.226605
10.207477
10.201661
10.200454
10.198978
10.196748
10.194035
10.190746
10.186641
10.18101
10.172245
10.161027
10.145619
10.130981
10.102899
10.087393
10.067172
10.07067
10.041596
10.068937
10.00509
10.034012
35857.798
24066.948
8384.8936
1551.4575
755.47356
476.07994
375.78224
290.57463
239.60149
190.62968
159.74129
133.72936
115.75007
101.6518
90.333499
80.682118
72.503793
65.511344
59.481549
54.237322
49.644622
45.600551
42.021376
38.837655
35.99184
33.436075
31.136454
29.056602
27.172037
25.461762
23.907343
22.492353
21.202715
20.026032
18.953331
17.976172
17.087035
16.27932
15.54684
14.884051
14.286122
13.747951
13.265192
12.833783
12.449616
12.108928
11.808274
11.543846
11.312391
11.110846
10.936181
10.785548
10.656329
10.546058
10.452424
10.373441
10.307709
10.256473
10.220248
10.201988
10.196691
10.195641
10.194197
10.192017
10.189353
10.18609
10.181989
10.176715
10.16863
10.157935
10.143178
10.128943
10.102111
10.087308
10.067105
10.071239
10.041737
10.070067
10.005174
10.033447
40404.782
20506.768
5898.2123
1229.7942
720.88058
458.62975
366.07465
278.0713
231.37975
182.46009
154.74656
129.12715
112.46637
98.836936
87.94545
78.594265
70.701912
63.941605
58.105733
53.025526
48.573579
44.651367
41.178079
38.086671
35.321562
32.837514
30.598649
28.574518
26.740145
25.074943
23.560996
22.182338
20.925383
19.778154
18.732219
17.779262
16.912034
16.124151
15.409584
14.762981
14.179663
13.654601
13.183631
12.762782
12.388026
12.055716
11.762491
11.504589
11.278878
11.082361
10.912072
10.765245
10.639346
10.531867
10.44062
10.363681
10.299502
10.249253
10.21395
10.196445
10.19171
10.190798
10.189392
10.187269
10.184654
10.181422
10.177336
10.172181
10.164792
10.154663
10.140602
10.126793
10.10124
10.087162
10.066975
10.071716
10.041836
10.071088
10.005374
10.032959
43209.536
19132.394
4532.4988
1157.242
700.31988
440.19164
358.53634
268.21737
225.10166
175.92865
150.82683
125.23196
109.75358
96.410561
85.888122
76.782852
69.13072
62.562725
56.889938
51.948758
47.616908
43.79922
40.417216
37.405793
34.711108
32.289289
30.104507
28.129658
26.339819
24.714873
23.237263
21.891398
20.664103
19.543748
18.522377
17.591722
16.744793
15.97537
15.277558
14.646165
14.076639
13.564
13.104256
12.693497
12.327769
12.003527
11.717478
11.4659
11.245779
11.054171
10.888181
10.745153
10.622431
10.517699
10.428812
10.353898
10.291389
10.242086
10.207685
10.190967
10.186726
10.185934
10.18457
10.182507
10.179944
10.176744
10.172678
10.167509
10.160727
10.151203
10.137883
10.124519
10.100268
10.086832
10.066775
10.072092
10.0419
10.072002
10.005671
10.032575
45434.339
17216.999
3636.951
1106.139
684.92279
427.52506
352.58645
260.31444
220.25188
170.73442
147.70715
121.95267
107.50388
94.317059
84.114148
75.208482
67.757359
61.349029
55.81347
50.990075
46.760692
43.032711
39.729494
36.787484
34.154219
31.787086
29.651575
27.719129
25.968683
24.379694
22.93473
21.618478
20.418105
19.322269
18.32343
17.413312
16.585173
15.832917
15.150753
14.533635
13.977104
13.47622
13.027145
12.626011
12.268926
11.952438
11.673307
11.427848
11.213158
11.02635
10.864637
10.725199
10.605611
10.503585
10.417027
10.344115
10.28336
10.234983
10.201462
10.185553
10.181735
10.181053
10.179736
10.177737
10.175228
10.172063
10.168021
10.162883
10.156444
10.147562
10.135023
10.122131
10.099167
10.08628
10.066506
10.072361
10.041933
10.072809
10.006051
10.032321
47076.266
14562.15
3067.0225
1075.0221