/*--------------------------------*- C++ -*----------------------------------*\
  =========                 |
  \\      /  F ield         | OpenFOAM: The Open Source CFD Toolbox
   \\    /   O peration     | Website:  https://openfoam.org
    \\  /    A nd           | Version:  12
     \\/     M anipulation  |
\*---------------------------------------------------------------------------*/
FoamFile
{
    format      ascii;
    class       volScalarField;
    location    "0.102";
    object      rho;
}
// * * * * * * * * * * * * * * * * * * * * * * * * * * * * * * * * * * * * * //

dimensions      [1 -3 0 0 0 0 0];

internalField   nonuniform List<scalar> 
16000
(
1.0571735
1.0900123
1.0778537
1.0861153
1.0822579
1.0857122
1.0847309
1.0865605
1.0867112
1.0879259
1.0885818
1.0896021
1.0904854
1.0914884
1.0924908
1.0935455
1.0946328
1.0957603
1.0969263
1.0981315
1.0993761
1.1006599
1.1019829
1.1033446
1.1047444
1.1061814
1.1076545
1.1091624
1.1107033
1.1122753
1.1138761
1.1155033
1.117154
1.1188251
1.1205133
1.1222149
1.1239261
1.125643
1.1273613
1.1290768
1.1307852
1.1324821
1.1341633
1.1358244
1.1374615
1.1390705
1.1406479
1.1421901
1.1436941
1.145157
1.1465763
1.1479497
1.1492756
1.1505523
1.1517787
1.1529541
1.1540779
1.1551498
1.15617
1.1571386
1.1580562
1.1589234
1.1597409
1.1605093
1.1612291
1.1619003
1.1625225
1.1630952
1.1636174
1.1640883
1.1645066
1.1648699
1.1651745
1.1654152
1.1655852
1.1656858
1.1657289
1.165525
1.1659136
1.1647576
1.0538878
1.087246
1.0744194
1.0832937
1.0792074
1.0829307
1.0818474
1.0838485
1.0839924
1.0853095
1.0860173
1.087113
1.0880709
1.0891487
1.0902322
1.0913686
1.0925417
1.0937574
1.0950145
1.0963136
1.0976544
1.0990368
1.1004604
1.1019243
1.1034277
1.1049693
1.1065476
1.1081607
1.1098065
1.1114825
1.1131861
1.114914
1.116663
1.1184295
1.1202094
1.1219986
1.1237929
1.1255878
1.1273786
1.1291608
1.1309297
1.1326807
1.1344095
1.1361117
1.1377834
1.1394206
1.1410201
1.1425785
1.1440932
1.1455617
1.146982
1.1483524
1.1496717
1.1509387
1.152153
1.1533143
1.1544224
1.1554777
1.1564807
1.1574319
1.1583321
1.1591823
1.1599834
1.1607362
1.1614412
1.1620985
1.1627078
1.1632683
1.1637792
1.1642395
1.1646476
1.165001
1.1652955
1.1655256
1.1656864
1.1657798
1.1657797
1.1656903
1.1658383
1.164912
1.0509055
1.0847239
1.0715374
1.0806974
1.0764684
1.0803955
1.0792831
1.0814052
1.0815911
1.0829923
1.0837748
1.0849481
1.0859926
1.0871543
1.0883293
1.089558
1.0908277
1.0921424
1.0935012
1.0949044
1.0963514
1.0978419
1.0993748
1.1009493
1.1025638
1.1042168
1.1059061
1.1076295
1.1093843
1.1111675
1.1129758
1.1148053
1.1166523
1.1185123
1.1203809
1.1222533
1.1241247
1.1259902
1.1278448
1.1296835
1.1315014
1.1332939
1.1350566
1.1367852
1.1384759
1.1401251
1.1417299
1.1432874
1.1447955
1.1462523
1.1476563
1.1490065
1.1503023
1.1515434
1.1527297
1.1538615
1.1549393
1.1559639
1.1569362
1.1578573
1.1587282
1.1595502
1.1603242
1.1610514
1.1617322
1.1623668
1.1629549
1.1634956
1.163988
1.1644309
1.1648227
1.1651604
1.1654397
1.1656552
1.1658031
1.1658794
1.1658641
1.1658135
1.1658119
1.1650997
1.0482477
1.0824442
1.0688516
1.0783619
1.0739983
1.0781598
1.0770246
1.0792858
1.0795235
1.081022
1.0818935
1.0831565
1.0843023
1.0855612
1.0868413
1.0881755
1.0895542
1.09098
1.0924521
1.0939703
1.0955339
1.0971422
1.098794
1.1004877
1.1022216
1.1039934
1.1058007
1.1076404
1.1095092
1.1114034
1.1133189
1.1152513
1.1171959
1.1191477
1.1211015
1.1230519
1.1249935
1.126921
1.128829
1.1307123
1.1325659
1.1343852
1.1361657
1.1379037
1.1395955
1.1412381
1.1428291
1.1443663
1.1458482
1.1472737
1.1486422
1.1499532
1.151207
1.152404
1.1535447
1.1546302
1.1556616
1.15664
1.157567
1.158444
1.1592723
1.1600535
1.1607888
1.1614793
1.1621256
1.1627279
1.1632857
1.1637982
1.1642643
1.1646828
1.1650517
1.1653679
1.1656266
1.1658229
1.1659521
1.1660074
1.1659827
1.1659328
1.1658462
1.1652767
1.0459602
1.080546
1.0665508
1.0763616
1.071856
1.0762927
1.0751475
1.0775536
1.0778637
1.0794673
1.0804467
1.0818088
1.0830694
1.0844362
1.0858315
1.0872812
1.0887782
1.0903243
1.0919188
1.0935612
1.0952506
1.0969858
1.0987651
1.1005866
1.1024478
1.1043458
1.1062773
1.1082385
1.1102253
1.1122329
1.1142566
1.1162909
1.1183304
1.1203691
1.1224012
1.1244208
1.1264219
1.1283987
1.1303456
1.1322574
1.1341291
1.1359562
1.1377348
1.1394613
1.141133
1.1427474
1.1443029
1.1457982
1.1472326
1.1486059
1.1499184
1.1511707
1.1523636
1.1534984
1.1545764
1.1555994
1.1565688
1.1574867
1.1583547
1.1591747
1.1599485
1.1606777
1.1613637
1.1620077
1.1626104
1.1631717
1.1636914
1.1641683
1.1646012
1.1649888
1.1653289
1.165618
1.1658515
1.1660241
1.16613
1.1661625
1.1661271
1.1660598
1.1659158
1.1654643
1.0440853
1.0790445
1.0647038
1.0748217
1.0702186
1.0748682
1.0737109
1.0762834
1.076681
1.0783955
1.0794944
1.0809588
1.0823406
1.0838215
1.0853391
1.0869126
1.0885372
1.0902139
1.0919417
1.0937196
1.0955463
1.0974198
1.0993379
1.1012975
1.1032955
1.105328
1.1073907
1.1094787
1.1115867
1.1137093
1.1158402
1.1179732
1.1201019
1.1222196
1.1243198
1.1263958
1.1284413
1.1304505
1.1324175
1.1343373
1.1362052
1.1380173
1.1397702
1.1414613
1.1430885
1.1446504
1.1461464
1.1475763
1.1489404
1.1502396
1.1514751
1.1526484
1.1537615
1.1548162
1.1558148
1.1567594
1.1576523
1.1584958
1.1592921
1.1600433
1.1607514
1.1614183
1.1620454
1.162634
1.1631846
1.1636973
1.1641715
1.164606
1.1649995
1.1653504
1.1656563
1.1659135
1.1661173
1.166262
1.1663404
1.1663488
1.1662999
1.1662065
1.1660175
1.1656672
1.042619
1.0779466
1.0632901
1.0737505
1.0690576
1.0739101
1.0727987
1.0755032
1.0760052
1.0778047
1.0790301
1.0806008
1.0821144
1.0837224
1.0853766
1.0870899
1.0888587
1.0906828
1.0925607
1.0944907
1.0964705
1.0984973
1.1005677
1.1026778
1.1048231
1.1069987
1.1091989
1.1114176
1.1136484
1.1158844
1.1181184
1.120343
1.1225509
1.1247347
1.1268871
1.1290014
1.1310709
1.1330897
1.1350525
1.1369546
1.1387921
1.1405618
1.1422614
1.1438892
1.1454446
1.1469273
1.1483379
1.1496775
1.1509476
1.1521502
1.1532877
1.1543626
1.1553775
1.1563352
1.1572386
1.1580905
1.1588935
1.1596504
1.1603636
1.1610356
1.1616685
1.1622641
1.1628241
1.1633495
1.163841
1.1642985
1.1647211
1.1651075
1.1654563
1.1657655
1.1660326
1.1662536
1.1664239
1.166537
1.1665847
1.1665679
1.1665021
1.1663748
1.16615
1.1658954
1.0414987
1.0771923
1.0622458
1.0730935
1.0682997
1.0733814
1.0722983
1.0751991
1.0757242
1.0776409
1.0790274
1.0807316
1.0824039
1.0841655
1.0859809
1.087858
1.089794
1.0917876
1.0938366
1.0959384
1.0980895
1.1002861
1.1025235
1.1047964
1.107099
1.1094248
1.1117666
1.1141169
1.1164679
1.1188114
1.1211388
1.1234421
1.1257127
1.127943
1.1301253
1.1322526
1.1343188
1.1363182
1.1382463
1.1400993
1.1418744
1.1435698
1.1451845
1.1467184
1.1481722
1.1495472
1.1508455
1.1520694
1.153222
1.1543062
1.1553256
1.1562834
1.1571833
1.1580288
1.1588231
1.1595695
1.1602712
1.1609311
1.1615518
1.1621359
1.1626856
1.1632028
1.163689
1.1641452
1.1645718
1.1649687
1.1653347
1.1656684
1.1659682
1.1662318
1.1664563
1.1666379
1.1667717
1.16685
1.1668646
1.166822
1.166736
1.1665687
1.1663156
1.1661537
1.0407201
1.0767683
1.061555
1.0728716
1.06789
1.073138
1.072146
1.0750809
1.0759263
1.0779867
1.079565
1.0814278
1.0832841
1.0852256
1.0872275
1.0892937
1.0914212
1.0936078
1.0958501
1.0981441
1.1004852
1.1028677
1.1052856
1.1077318
1.1101986
1.1126778
1.1151607
1.1176379
1.1201002
1.1225379
1.1249416
1.1273022
1.1296108
1.1318594
1.1340405
1.1361476
1.1381752
1.1401187
1.141975
1.1437417
1.1454177
1.1470028
1.1484981
1.149905
1.1512262
1.1524645
1.1536237
1.1547075
1.1557201
1.1566657
1.1575487
1.1583734
1.1591438
1.1598639
1.1605377
1.1611685
1.1617598
1.1623146
1.1628356
1.1633254
1.1637861
1.1642195
1.164627
1.1650094
1.165367
1.1656994
1.1660053
1.166283
1.1665306
1.1667456
1.1669249
1.1670646
1.1671596
1.1672009
1.1671812
1.167113
1.1670035
1.1667918
1.1665188
1.1664464
1.04032
1.0767131
1.0612599
1.0730015
1.0678819
1.0733895
1.0725472
1.0756898
1.0767115
1.0789218
1.0807216
1.0827709
1.0848382
1.0869887
1.0892048
1.0914874
1.0938327
1.0962368
1.0986951
1.1012017
1.1037501
1.1063328
1.1089416
1.1115672
1.1142
1.1168296
1.1194453
1.1220363
1.1245915
1.1271004
1.1295526
1.1319387
1.1342497
1.136478
1.1386168
1.1406609
1.1426062
1.14445
1.146191
1.1478291
1.1493653
1.1508017
1.1521413
1.1533879
1.1545458
1.1556198
1.1566148
1.1575362
1.1583892
1.1591789
1.1599105
1.1605888
1.1612183
1.1618035
1.1623482
1.1628562
1.1633309
1.1637752
1.1641918
1.1645831
1.1649511
1.1652974
1.1656232
1.1659292
1.1662153
1.1664809
1.1667245
1.1669442
1.1671378
1.1673025
1.167435
1.1675315
1.1675863
1.1675891
1.1675352
1.167442
1.167306
1.1670478
1.1667655
1.166779
1.0403668
1.0770979
1.0614133
1.0733406
1.068374
1.0741726
1.0735393
1.0768364
1.078138
1.0805252
1.0825813
1.0848516
1.0871611
1.0895528
1.0920137
1.094542
1.0971326
1.0997796
1.1024761
1.1052142
1.1079848
1.1107777
1.1135822
1.1163865
1.1191783
1.1219453
1.1246747
1.127354
1.1299712
1.1325148
1.1349745
1.1373408
1.1396058
1.1417631
1.1438077
1.1457365
1.1475478
1.1492415
1.1508191
1.152283
1.1536371
1.1548859
1.1560347
1.1570893
1.158056
1.158941
1.1597507
1.1604913
1.1611691
1.1617898
1.1623589
1.1628817
1.163363
1.163807
1.1642178
1.164599
1.1649539
1.1652851
1.1655953
1.1658865
1.1661605
1.1664187
1.1666619
1.1668905
1.1671044
1.1673024
1.1674831
1.1676441
1.1677831
1.1678968
1.167982
1.1680351
1.1680492
1.1680134
1.1679266
1.1678095
1.1676434
1.167338
1.1670576
1.1671572
1.0409406
1.077994
1.0621148
1.0743515
1.0695445
1.0755836
1.07521
1.0786873
1.0803027
1.0828953
1.0852423
1.0877722
1.0903585
1.0930269
1.0957664
1.0985723
1.1014371
1.1043522
1.1073079
1.1102928
1.1132948
1.1163004
1.1192958
1.1222664
1.1251974
1.1280742
1.1308823
1.1336082
1.1362393
1.1387645
1.1411739
1.1434599
1.1456165
1.1476399
1.1495282
1.1512813
1.1529011
1.1543908
1.155755
1.1569995
1.1581308
1.159156
1.1600826
1.1609183
1.1616708
1.1623476
1.1629561
1.1635031
1.1639954
1.164439
1.1648396
1.1652025
1.1655322
1.165833
1.1661087
1.1663626
1.1665976
1.1668163
1.1670207
1.1672126
1.1673936
1.1675646
1.1677262
1.1678785
1.1680209
1.1681523
1.1682707
1.1683739
1.1684588
1.1685222
1.1685609
1.1685712
1.168545
1.1684716
1.1683547
1.1682149
1.1680154
1.1676652
1.1673987
1.1675795
1.0420352
1.0794063
1.063359
1.0760172
1.071374
1.0776575
1.0776244
1.0812959
1.0832892
1.0861301
1.0888091
1.0916453
1.0945504
1.0975367
1.1005928
1.1037105
1.1068786
1.1100848
1.113315
1.1165542
1.119786
1.1229936
1.1261596
1.1292665
1.1322973
1.1352356
1.1380661
1.1407752
1.1433513
1.1457848
1.1480685
1.150198
1.152171
1.1539877
1.1556506
1.1571637
1.1585331
1.1597658
1.1608698
1.1618541
1.1627276
1.1634997
1.1641797
1.1647766
1.1652992
1.1657557
1.1661538
1.1665009
1.1668035
1.1670677
1.1672989
1.1675021
1.1676816
1.1678412
1.1679842
1.1681136
1.1682319
1.1683411
1.1684429
1.1685388
1.1686299
1.1687167
1.1687995
1.168878
1.1689515
1.1690184
1.1690768
1.1691239
1.1691566
1.1691715
1.1691657
1.1691347
1.1690697
1.1689613
1.1688181
1.1686567
1.1684209
1.1680323
1.1677927
1.1680417
1.0437059
1.0813884
1.0652105
1.0783179
1.073952
1.0804889
1.0808872
1.0847784
1.0872115
1.0903566
1.0934162
1.0966135
1.0998867
1.1032369
1.1066498
1.110112
1.1136074
1.1171185
1.1206265
1.1241116
1.1275532
1.1309303
1.1342225
1.1374099
1.1404738
1.1433976
1.146167
1.1487705
1.1511993
1.1534482
1.1555147
1.1573994
1.1591057
1.160639
1.1620069
1.1632184
1.1642834
1.165213
1.1660182
1.1667104
1.1673006
1.1677999
1.1682184
1.1685659
1.1688515
1.1690837
1.1692701
1.1694177
1.1695327
1.1696208
1.169687
1.1697354
1.1697701
1.1697941
1.1698103
1.1698211
1.1698284
1.1698338
1.1698386
1.1698437
1.1698498
1.1698571
1.1698655
1.1698745
1.1698828
1.1698889
1.1698905
1.1698847
1.1698681
1.1698374
1.1697897
1.1697199
1.1696184
1.1694789
1.1693143
1.169132
1.1688583
1.1684417
1.1682422
1.1685422
1.0460127
1.0839987
1.0677796
1.0813782
1.0773762
1.0841789
1.0851143
1.0892682
1.092213
1.0957374
1.0992389
1.1028607
1.1065561
1.1103159
1.1141205
1.11795
1.1217823
1.1255942
1.1293609
1.1330575
1.1366587
1.1401403
1.1434794
1.1466554
1.1496506
1.1524508
1.1550459
1.1574294
1.1595991
1.1615561
1.1633051
1.1648535
1.1662111
1.1673893
1.1684009
1.1692592
1.1699779
1.170571
1.1710516
1.1714329
1.1717269
1.1719452
1.1720982
1.1721958
1.1722467
1.1722589
1.1722394
1.1721946
1.1721301
1.1720506
1.1719605
1.1718633
1.171762
1.1716594
1.1715575
1.171458
1.1713624
1.1712717
1.1711868
1.171108
1.1710356
1.1709696
1.1709093
1.170854
1.1708022
1.1707522
1.1707013
1.1706466
1.1705845
1.170512
1.1704261
1.1703207
1.1701861
1.1700206
1.1698398
1.1696368
1.1693247
1.1688951
1.1687496
1.1690769
1.0490136
1.0872692
1.0711938
1.0852709
1.0817708
1.0888656
1.0904722
1.094964
1.0985042
1.1024977
1.1065087
1.1106174
1.1147831
1.1189867
1.1232016
1.1274003
1.1315533
1.13563
1.1395996
1.1434316
1.1470976
1.150572
1.1538326
1.1568623
1.1596486
1.1621843
1.1644674
1.1665003
1.1682897
1.1698457
1.1711811
1.1723106
1.1732504
1.174017
1.1746276
1.1750987
1.1754466
1.1756866
1.175833
1.1758993
1.1758976
1.1758391
1.1757338
1.1755906
1.1754174
1.1752214
1.1750085
1.1747841
1.1745529
1.1743187
1.1740849
1.1738542
1.1736289
1.1734109
1.1732016
1.1730022
1.1728134
1.1726358
1.1724697
1.1723152
1.172172
1.1720397
1.1719175
1.1718042
1.1716982
1.1715974
1.1714992
1.1714003
1.1712975
1.1711878
1.1710679
1.1709307
1.1707675
1.170582
1.1703899
1.1701664
1.1698175
1.1693911
1.1693132
1.1696395
1.0527797
1.0912089
1.0755794
1.0901483
1.0873422
1.0947952
1.0972231
1.1021478
1.1063645
1.110915
1.1154962
1.1201417
1.1248092
1.1294687
1.1340838
1.1386169
1.1430292
1.1472825
1.1513406
1.1551712
1.1587465
1.1620453
1.1650527
1.1677608
1.1701684
1.1722799
1.174105
1.1756577
1.1769548
1.1780156
1.1788606
1.1795106
1.1799866
1.1803088
1.1804968
1.1805687
1.1805413
1.1804301
1.1802492
1.1800111
1.1797272
1.1794072
1.1790602
1.1786936
1.1783142
1.1779276
1.1775388
1.177152
1.1767706
1.1763975
1.1760352
1.1756854
1.1753497
1.1750293
1.1747248
1.1744368
1.1741655
1.1739111
1.1736734
1.173452
1.1732463
1.1730557
1.1728788
1.1727143
1.1725604
1.1724149
1.1722749
1.1721373
1.171999
1.1718573
1.171708
1.1715435
1.1713573
1.1711582
1.1709589
1.1707163
1.1703365
1.1699269
1.1699228
1.1702313
1.0575028
1.0959695
1.0811728
1.0963385
1.0944232
1.1022973
1.1056901
1.1111438
1.116106
1.1212928
1.1264943
1.1317072
1.1368798
1.1419662
1.1469167
1.1516822
1.156216
1.1604763
1.1644283
1.1680455
1.1713103
1.1742144
1.1767581
1.1789493
1.1808023
1.1823362
1.1835739
1.1845404
1.1852618
1.1857645
1.1860743
1.1862157
1.1862122
1.186085
1.185854
1.1855368
1.1851495
1.1847062
1.1842194
1.1837
1.1831576
1.1826004
1.1820355
1.181469
1.180906
1.1803508
1.1798069
1.1792774
1.1787646
1.1782703
1.177796
1.1773427
1.1769112
1.1765019
1.176115
1.1757504
1.1754079
1.1750872
1.1747876
1.1745085
1.1742489
1.1740079
1.1737839
1.1735753
1.1733803
1.1731963
1.1730205
1.1728499
1.1726817
1.1725133
1.1723397
1.172153
1.1719502
1.1717438
1.1715404
1.1712819
1.1708826
1.1704998
1.1705658
1.1708566
1.0634635
1.1021319
1.0883683
1.1041784
1.1033596
1.1116963
1.1162033
1.1223061
1.1280846
1.1339793
1.1398293
1.1455959
1.1512094
1.1566062
1.1617247
1.1665105
1.1709188
1.1749166
1.1784835
1.1816115
1.1843039
1.1865739
1.1884426
1.1899368
1.1910872
1.1919267
1.1924888
1.1928067
1.1929122
1.1928351
1.1926032
1.1922417
1.1917733
1.1912184
1.1905947
1.1899182
1.1892023
1.1884592
1.1876988
1.18693
1.1861602
1.1853956
1.1846414
1.1839019
1.1831807
1.1824808
1.1818042
1.1811529
1.1805281
1.1799307
1.1793614
1.1788204
1.1783078
1.1778233
1.1773667
1.1769373
1.1765346
1.1761578
1.175806
1.1754782
1.1751732
1.1748897
1.174626
1.1743804
1.1741508
1.1739346
1.1737291
1.1735314
1.1733392
1.1731496
1.1729568
1.1727538
1.1725412
1.1723332
1.1721278
1.171857
1.1714537
1.1711111
1.171239
1.1715016
1.070848
1.1102175
1.0973665
1.1138989
1.1145235
1.1234124
1.129203
1.1361069
1.1427587
1.1493804
1.1558216
1.1620092
1.1678579
1.1732959
1.1782649
1.1827238
1.1866492
1.1900347
1.1928892
1.1952342
1.1971008
1.1985267
1.1995535
1.2002246
1.2005831
1.2006706
1.2005264
1.2001864
1.1996836
1.1990473
1.1983036
1.1974754
1.1965826
1.1956424
1.1946696
1.1936768
1.1926748
1.1916724
1.1906774
1.189696
1.1887333
1.1877935
1.1868801
1.1859957
1.1851425
1.1843218
1.1835349
1.1827824
1.1820647
1.181382
1.1807339
1.1801203
1.1795405
1.1789939
1.1784796
1.1779967
1.1775443
1.1771212
1.1767263
1.1763583
1.1760158
1.1756973
1.175401
1.1751251
1.1748672
1.174625
1.1743957
1.1741769
1.1739664
1.1737609
1.1735544
1.1733413
1.1731261
1.1729218
1.1727162
1.1724377
1.1720454
1.1717557
1.1719357
1.1721599
1.0797926
1.1201041
1.1087775
1.1260468
1.1285604
1.1381388
1.1453374
1.1531423
1.1606134
1.1678136
1.1745895
1.1808514
1.1865211
1.1915473
1.1959038
1.1995885
1.2026196
1.2050317
1.2068707
1.2081899
1.2090459
1.2094961
1.2095959
1.2093976
1.2089493
1.2082943
1.2074714
1.2065144
1.2054529
1.2043123
1.2031145
1.2018778
1.2006181
1.1993483
1.1980796
1.1968209
1.1955798
1.1943624
1.1931736
1.1920173
1.1908966
1.1898139
1.1887708
1.1877686
1.1868081
1.1858896
1.1850133
1.184179
1.1833861
1.1826343
1.1819226
1.1812502
1.1806161
1.1800191
1.1794582
1.178932
1.1784393
1.1779788
1.177549
1.1771486
1.1767759
1.1764293
1.1761068
1.1758067
1.1755266
1.1752641
1.1750168
1.1747826
1.1745593
1.1743432
1.1741285
1.1739121
1.173701
1.1735049
1.1733014
1.1730209
1.1726528
1.1724273
1.1726485
1.172827
1.0910444
1.1327046
1.1235064
1.1415721
1.1464227
1.1567711
1.1653061
1.1738869
1.1818535
1.1891812
1.1957447
1.201483
1.2063675
1.2104049
1.2136292
1.2160949
1.2178705
1.2190314
1.2196551
1.2198176
1.2195904
1.2190388
1.2182216
1.2171907
1.215991
1.2146613
1.2132344
1.2117383
1.2101963
1.2086279
1.2070493
1.2054738
1.2039124
1.2023737
1.2008651
1.1993921
1.1979592
1.1965699
1.1952267
1.1939315
1.1926856
1.1914896
1.190344
1.1892488
1.1882036
1.1872079
1.186261
1.1853619
1.1845097
1.1837032
1.1829411
1.1822222
1.181545
1.1809082
1.1803102
1.1797497
1.1792251
1.1787349
1.1782776
1.1778515
1.177455
1.1770863
1.1767435
1.1764247
1.1761277
1.1758503
1.1755903
1.175346
1.175115
1.1748933
1.1746759
1.1744625
1.1742614
1.174077
1.1738785
1.1736036
1.1732712
1.1731143
1.1733617
1.1734856
1.1061745
1.1491198
1.1428305
1.1615449
1.1690763
1.1800774
1.189462
1.1982447
1.2059763
1.2126343
1.2181831
1.2226469
1.2260853
1.2285851
1.230248
1.2311819
1.2314934
1.2312836
1.2306443
1.2296574
1.2283942
1.226916
1.2252745
1.2235131
1.221668
1.2197691
1.2178408
1.2159029
1.2139718
1.2120604
1.2101791
1.2083361
1.2065378
1.2047892
1.203094
1.2014549
1.1998738
1.1983519
1.1968898
1.1954877
1.1941455
1.1928625
1.191638
1.1904712
1.1893607
1.1883055
1.1873041
1.186355
1.1854568
1.1846079
1.1838067
1.1830516
1.1823409
1.1816729
1.1810461
1.1804588
1.1799092
1.1793959
1.1789172
1.1784712
1.1780564
1.1776708
1.1773126
1.17698
1.1766709
1.1763833
1.1761155
1.1758657
1.1756315
1.1754087
1.1751937
1.1749886
1.1748017
1.1746312
1.174441
1.174181
1.1738946
1.1738013
1.1740546
1.1741317
1.1266577
1.170648
1.1681792
1.1869817
1.1968955
1.2080092
1.2172128
1.2251038
1.231516
1.2365162
1.2402006
1.2427075
1.2441901
1.2448045
1.2446989
1.244008
1.2428503
1.2413279
1.2395264
1.2375174
1.2353594
1.2331003
1.2307786
1.2284253
1.2260652
1.2237179
1.2213988
1.21912
1.2168909
1.2147184
1.2126079
1.2105633
1.2085873
1.2066814
1.2048468
1.2030838
1.2013921
1.1997714
1.1982207
1.1967389
1.1953246
1.1939766
1.1926931
1.1914724
1.1903129
1.1892128
1.1881701
1.1871831
1.18625
1.1853687
1.1845376
1.1837547
1.1830182
1.1823264
1.1816773
1.1810693
1.1805006
1.1799696
1.1794744
1.1790133
1.1785846
1.1781865
1.1778172
1.1774749
1.1771578
1.1768641
1.1765923
1.1763409
1.1761071
1.1758871
1.1756788
1.1754859
1.175315
1.175159
1.1749807
1.1747446
1.1745118
1.1744777
1.1747254
1.1747468
1.1551158
1.1980847
1.200645
1.2187733
1.2290519
1.2389419
1.2465568
1.2522937
1.2562815
1.2587596
1.2599648
1.2601295
1.2594627
1.2581463
1.2563332
1.2541495
1.2516971
1.2490579
1.2462967
1.2434643
1.2406005
1.2377362
1.2348952
1.2320955
1.229351
1.226672
1.2240659
1.2215382
1.2190925
1.216731
1.2144552
1.2122654
1.2101614
1.2081425
1.2062077
1.2043555
1.2025843
1.2008923
1.1992775
1.197738
1.1962715
1.194876
1.1935493
1.1922891
1.1910934
1.18996
1.1888867
1.1878713
1.1869119
1.1860063
1.1851525
1.1843486
1.1835925
1.1828823
1.1822162
1.1815924
1.181009
1.1804644
1.1799567
1.1794843
1.1790453
1.1786381
1.1782611
1.1779123
1.1775904
1.1772937
1.1770211
1.1767707
1.1765401
1.1763259
1.1761275
1.1759489
1.1757941
1.1756524
1.1754904
1.1752875
1.1751114
1.1751227
1.1753488
1.1753304
1.1941108
1.2332355
1.2390168
1.2543645
1.2635135
1.2704349
1.2748226
1.2772257
1.2780061
1.2775301
1.2760979
1.2739579
1.2713072
1.2683001
1.2650557
1.2616649
1.2581965
1.2547023
1.251221
1.2477811
1.2444037
1.2411039
1.2378925
1.2347769
1.231762
1.2288506
1.2260442
1.223343
1.2207466
1.2182537
1.2158628
1.2135718
1.2113786
1.2092807
1.2072755
1.2053605
1.2035329
1.2017902
1.2001295
1.1985483
1.1970439
1.1956138
1.1942552
1.1929658
1.191743
1.1905845
1.1894879
1.1884508
1.1874711
1.1865466
1.1856751
1.1848546
1.1840829
1.1833582
1.1826785
1.182042
1.1814469
1.1808914
1.1803738
1.1798924
1.1794455
1.1790314
1.1786487
1.1782956
1.1779709
1.1776731
1.1774012
1.1771533
1.1769272
1.1767206
1.1765336
1.1763695
1.1762295
1.1761019
1.1759607
1.1757973
1.1756733
1.1757079
1.1758995
1.1758824
1.2418235
1.2744322
1.2816041
1.2914194
1.2963281
1.2986644
1.2988192
1.2974432
1.2949711
1.2917489
1.2880299
1.2840002
1.2797947
1.2755101
1.2712154
1.2669594
1.2627762
1.2586893
1.2547145
1.250862
1.247138
1.2435457
1.2400862
1.2367593
1.2335633
1.2304962
1.2275551
1.2247368
1.2220382
1.2194556
1.2169855
1.2146244
1.2123686
1.2102147
1.2081591
1.2061985
1.2043296
1.202549
1.2008538
1.1992407
1.1977069
1.1962493
1.1948654
1.1935522
1.1923072
1.1911278
1.1900116
1.1889561
1.1879589
1.187018
1.1861309
1.1852956
1.1845101
1.1837724
1.1830805
1.1824325
1.1818267
1.1812613
1.1807347
1.1802451
1.179791
1.1793708
1.1789831
1.1786264
1.1782994
1.178001
1.1777299
1.1774847
1.1772633
1.1770643
1.1768882
1.176737
1.1766099
1.1764961
1.1763778
1.1762546
1.176175
1.1762176
1.1763656
1.1763551
1.296022
1.3167206
1.3212812
1.3236498
1.3228505
1.3201924
1.316291
1.311637
1.3065521
1.3012544
1.295888
1.2905482
1.2852966
1.2801727
1.2752009
1.2703953
1.2657633
1.2613075
1.2570277
1.2529213
1.2489847
1.2452133
1.241602
1.2381455
1.2348384
1.2316752
1.2286505
1.2257593
1.2229964
1.2203569
1.2178361
1.2154295
1.2131327
1.2109415
1.208852
1.2068603
1.2049627
1.2031555
1.2014355
1.1997994
1.1982439
1.196766
1.1953628
1.1940314
1.1927692
1.1915735
1.1904417
1.1893714
1.1883602
1.1874058
1.186506
1.1856587
1.1848617
1.1841131
1.1834109
1.1827533
1.1821386
1.1815649
1.1810307
1.1805343
1.1800742
1.179649
1.1792571
1.1788974
1.1785686
1.1782697
1.1779995
1.1777566
1.1775396
1.1773476
1.1771808
1.1770399
1.176923
1.1768219
1.1767262
1.1766388
1.1765926
1.1766332
1.1767399
1.176742
1.3490069
1.3523118
1.3510843
1.3466102
1.340763
1.33417
1.3272963
1.3203839
1.3135794
1.3069623
1.3005754
1.2944391
1.2885604
1.2829384
1.2775676
1.27244
1.267546
1.2628757
1.2584189
1.2541656
1.2501063
1.2462317
1.2425331
1.2390022
1.2356314
1.2324134
1.2293411
1.2264084
1.223609
1.2209372
1.2183877
1.2159553
1.2136354
1.2114232
1.2093145
1.2073051
1.2053911
1.2035688
1.2018347
1.2001852
1.1986172
1.1971275
1.195713
1.194371
1.1930985
1.191893
1.1907519
1.1896726
1.1886528
1.1876902
1.1867824
1.1859275
1.1851233
1.1843678
1.183659
1.1829952
1.1823746
1.1817954
1.1812561
1.180755
1.1802907
1.1798618
1.1794668
1.1791047
1.1787743
1.1784745
1.1782043
1.1779627
1.1777486
1.1775613
1.1774006
1.1772662
1.1771558
1.1770643
1.1769868
1.1769265
1.1769018
1.1769339
1.1770056
1.1770185
1.3831194
1.3755253
1.3679682
1.3596847
1.3510778
1.3425629
1.3343065
1.3263831
1.3188212
1.3116242
1.3047837
1.2982848
1.2921106
1.2862431
1.2806644
1.2753578
1.2703071
1.2654975
1.2609151
1.2565474
1.2523825
1.2484096
1.2446187
1.2410007
1.2375469
1.2342496
1.2311014
1.2280954
1.2252254
1.2224854
1.2198697
1.2173733
1.2149911
1.2127185
1.2105511
1.2084848
1.2065156
1.2046396
1.2028533
1.2011534
1.1995364
1.1979992
1.1965389
1.1951524
1.1938371
1.1925903
1.1914092
1.1902916
1.1892348
1.1882367
1.187295
1.1864075
1.1855722
1.1847869
1.1840499
1.1833592
1.1827131
1.1821099
1.181548
1.1810257
1.1805415
1.1800941
1.1796822
1.1793046
1.1789602
1.178648
1.1783669
1.1781162
1.177895
1.1777028
1.1775391
1.177403
1.1772922
1.1772034
1.1771341
1.1770864
1.1770702
1.1770953
1.1771486
1.1771688
1.1643691
1.1689197
1.1834956
1.1954212
1.2009537
1.2022322
1.2023055
1.2019754
1.2020083
1.2017162
1.2014593
1.200905
1.2003121
1.1996614
1.1989688
1.1982361
1.1974673
1.196668
1.195843
1.1949967
1.194133
1.1932553
1.192367
1.1914708
1.1905696
1.1896657
1.1887612
1.1878583
1.1869587
1.1860641
1.1851762
1.1842964
1.1834263
1.1825671
1.1817201
1.1808867
1.180068
1.1792652
1.1784795
1.177712
1.1769639
1.1762363
1.1755303
1.174847
1.1741875
1.1735527
1.1729438
1.1723616
1.171807
1.171281
1.1707842
1.1703172
1.1698806
1.1694748
1.1691
1.1687562
1.1684433
1.168161
1.1679087
1.1676857
1.1674907
1.1673226
1.1671798
1.1670608
1.166964
1.1668872
1.1668294
1.1667856
1.1667594
1.1667323
1.1667348
1.1666883
1.1667418
1.1666061
1.1667856
1.1663868
1.1668096
1.165917
1.1665815
1.1650197
1.1600997
1.1709596
1.1873068
1.1956715
1.1979511
1.1978628
1.1973343
1.1970832
1.1967635
1.196459
1.1960632
1.1956646
1.1952179
1.1947357
1.1942138
1.1936595
1.1930739
1.19246
1.19182
1.1911563
1.1904713
1.1897672
1.1890463
1.1883109
1.1875632
1.1868054
1.1860396
1.1852678
1.1844921
1.1837145
1.1829369
1.1821612
1.181389
1.1806223
1.1798626
1.1791117
1.1783712
1.1776426
1.1769274
1.1762272
1.1755433
1.1748774
1.1742306
1.1736044
1.1730001
1.1724189
1.171862
1.1713305
1.1708254
1.1703477
1.1698982
1.1694777
1.1690866
1.1687254
1.1683944
1.1680935
1.1678225
1.1675811
1.1673688
1.1671847
1.1670276
1.1668961
1.1667887
1.1667039
1.1666399
1.1665946
1.1665667
1.1665516
1.166552
1.166551
1.1665751
1.1665539
1.166621
1.1665106
1.1666918
1.1663256
1.1667403
1.1658652
1.1665451
1.1649545
1.1605995
1.1740216
1.1857801
1.1921847
1.1931658
1.192684
1.1921718
1.191908
1.1916117
1.1913266
1.1909917
1.1906533
1.1902796
1.1898928
1.1894788
1.1890448
1.1885876
1.1881092
1.1876098
1.1870903
1.1865515
1.1859945
1.1854205
1.1848308
1.1842268
1.1836099
1.1829817
1.1823438
1.1816978
1.1810454
1.1803883
1.1797284
1.1790674
1.178407
1.1777492
1.1770956
1.176448
1.1758083
1.1751781
1.1745592
1.1739533
1.1733621
1.1727871
1.1722299
1.1716921
1.171175
1.1706802
1.1702088
1.169762
1.1693409
1.1689465
1.1685796
1.1682407
1.1679303
1.1676486
1.1673958
1.1671716
1.1669756
1.1668072
1.1666657
1.1665495
1.1664575
1.1663881
1.1663397
1.1663105
1.1662984
1.1663018
1.1663165
1.1663444
1.16637
1.1664167
1.1664204
1.1665027
1.1664153
1.1666014
1.1662633
1.1666726
1.1658131
1.1665083
1.1648919
1.1583264
1.1726931
1.1834057
1.188145
1.1879791
1.1875867
1.1871392
1.1869367
1.1866163
1.186362
1.1860464
1.18576
1.1854419
1.1851273
1.1847921
1.1844482
1.1840889
1.1837166
1.1833298
1.1829285
1.1825124
1.1820816
1.1816364
1.181177
1.180704
1.1802181
1.1797202
1.1792111
1.178692
1.1781643
1.1776291
1.1770881
1.1765426
1.1759944
1.175445
1.1748963
1.1743499
1.1738077
1.1732715
1.1727431
1.1722243
1.1717169
1.1712227
1.1707434
1.1702806
1.1698361
1.1694113
1.1690077
1.1686265
1.168269
1.1679362
1.1676289
1.167348
1.1670937
1.1668665
1.1666664
1.1664932
1.1663464
1.1662256
1.1661297
1.1660575
1.1660076
1.1659785
1.1659684
1.1659757
1.1659981
1.1660342
1.1660797
1.1661359
1.1661886
1.1662586
1.1662869
1.1663856
1.1663196
1.166513
1.1661993
1.1666065
1.1657606
1.1664705
1.1648328
1.1526539
1.1690501
1.1789523
1.1825106
1.1819615
1.1818725
1.181508
1.1814448
1.1811992
1.1810631
1.1808386
1.1806613
1.180441
1.1802336
1.1800039
1.1797696
1.1795206
1.179261
1.1789886
1.1787035
1.1784053
1.1780939
1.1777692
1.1774314
1.1770806
1.1767172
1.1763417
1.1759548
1.1755571
1.1751495
1.1747331
1.1743089
1.1738783
1.1734426
1.1730033
1.1725618
1.17212
1.1716793
1.1712417
1.170809
1.1703828
1.1699652
1.1695579
1.1691628
1.1687815
1.1684158
1.1680674
1.1677377
1.1674281
1.16714
1.1668743
1.1666322
1.1664142
1.1662209
1.1660526
1.1659094
1.165791
1.1656971
1.1656271
1.1655799
1.1655543
1.1655488
1.165562
1.1655921
1.1656374
1.1656957
1.1657654
1.1658426
1.1659278
1.166008
1.1661019
1.1661546
1.1662703
1.166225
1.1664266
1.166135
1.1665417
1.1657085
1.1664328
1.1647767
1.1465847
1.1654406
1.1739702
1.176886
1.1761826
1.176353
1.1760336
1.1761098
1.1759299
1.1759069
1.1757644
1.1756899
1.1755599
1.1754516
1.1753176
1.1751823
1.1750319
1.1748727
1.1747019
1.17452
1.1743267
1.1741218
1.1739051
1.1736767
1.1734364
1.1731846
1.1729213
1.1726469
1.1723619
1.1720669
1.1717625
1.1714497
1.1711295
1.1708028
1.170471
1.1701354
1.1697975
1.1694589
1.1691211
1.1687859
1.168455
1.1681303
1.1678135
1.1675064
1.1672108
1.1669284
1.1666609
1.1664099
1.1661766
1.1659625
1.1657687
1.1655961
1.1654454
1.1653172
1.1652117
1.1651291
1.165069
1.1650311
1.1650147
1.1650188
1.1650422
1.1650832
1.1651405
1.1652124
1.1652971
1.1653924
1.1654966
1.1656061
1.1657208
1.1658288
1.1659467
1.1660239
1.1661568
1.1661319
1.1663421
1.1660708
1.1664782
1.1656573
1.1663956
1.1647234
1.1413065
1.1620129
1.1690467
1.171658
1.1708506
1.1712256
1.1709142
1.1711022
1.170962
1.1710285
1.1709491
1.1709625
1.170908
1.1708782
1.1708186
1.1707631
1.1706941
1.1706193
1.1705351
1.1704421
1.1703398
1.1702277
1.1701058
1.1699737
1.1698313
1.1696787
1.1695158
1.1693428
1.16916
1.1689678
1.1687666
1.1685571
1.16834
1.1681163
1.1678869
1.1676531
1.167416
1.167177
1.1669377
1.1666995
1.1664641
1.1662332
1.1660084
1.1657914
1.165584
1.1653879
1.1652045
1.1650354
1.164882
1.1647456
1.1646272
1.1645277
1.1644479
1.1643882
1.164349
1.16433
1.1643312
1.1643521
1.1643919
1.1644496
1.1645239
1.1646133
1.1647163
1.1648313
1.1649564
1.1650896
1.1652291
1.1653713
1.1655159
1.1656518
1.165794
1.1658951
1.1660454
1.1660412
1.1662599
1.1660079
1.1664159
1.1656074
1.1663588
1.1646732
1.1363951
1.1589319
1.1644273
1.16692
1.1660051