/*--------------------------------*- C++ -*----------------------------------*\
  =========                 |
  \\      /  F ield         | OpenFOAM: The Open Source CFD Toolbox
   \\    /   O peration     | Website:  https://openfoam.org
    \\  /    A nd           | Version:  12
     \\/     M anipulation  |
\*---------------------------------------------------------------------------*/
FoamFile
{
    format      ascii;
    class       volVectorField;
    location    "0.102";
    object      U;
}
// * * * * * * * * * * * * * * * * * * * * * * * * * * * * * * * * * * * * * //

dimensions      [0 1 -1 0 0 0 0];

internalField   nonuniform List<vector> 
16000
(
(216.12662 -3.1358561e-17 -8.40747)
(253.10856 0 5.3998574)
(239.15815 0 -7.5908331)
(246.86406 4.961882e-17 3.8040618)
(242.16727 -4.8978387e-17 -5.9657832)
(244.37806 0 1.7633812)
(242.58095 0 -4.3320982)
(243.08752 8.3834549e-17 -0.024258426)
(242.24707 -7.9649026e-17 -3.1613761)
(242.12472 0 -1.2662484)
(241.6102 7.1969374e-17 -2.5654591)
(241.26213 -2.0504043e-16 -1.9837603)
(240.81775 1.2977739e-16 -2.4226057)
(240.38819 -1.2344932e-16 -2.3591206)
(239.93049 1.1712853e-16 -2.519812)
(239.45885 -3.4744917e-18 -2.5911575)
(238.96851 -3.3006367e-18 -2.6940146)
(238.46038 -9.73974e-17 -2.7860982)
(237.9339 1.9082233e-16 -2.8799153)
(237.38895 -9.0537854e-17 -2.9714974)
(236.82535 1.7221773e-16 -3.0612328)
(236.24304 -1.6324747e-16 -3.1484271)
(235.64202 0 -3.2325849)
(235.02237 1.5196098e-16 -3.313127)
(234.3843 -4.1113648e-18 -3.3894657)
(233.72809 -2.6522218e-16 -3.4609806)
(233.05414 1.2570645e-16 -3.5270443)
(232.363 0 -3.5870161)
(231.6553 0 -3.640258)
(230.93185 2.1831913e-16 -3.6861404)
(230.19357 -2.0341484e-16 -3.7240554)
(229.44152 0 -3.7534252)
(228.67689 0 -3.7737137)
(227.90101 0 -3.7844403)
(227.11535 5.1322185e-18 -3.7851899)
(226.32149 1.5575406e-16 -3.7756248)
(225.5211 -1.425796e-16 -3.7554961)
(224.71598 -1.3964972e-16 -3.7246512)
(223.90798 1.236511e-16 -3.683044)
(223.09903 0 -3.6307418)
(222.29107 -1.1835018e-16 -3.5679272)
(221.48609 1.1170938e-16 -3.4949019)
(220.68604 -2.1171646e-16 -3.4120851)
(219.89287 1.9974922e-16 -3.320009)
(219.10845 -1.950907e-16 -3.2193136)
(218.33459 3.5718334e-16 -3.1107347)
(217.57298 5.5989193e-18 -2.9950945)
(216.82522 2.9948077e-19 -2.8732858)
(216.09275 -1.5034938e-16 -2.7462572)
(215.37687 1.4220204e-16 -2.6149963)
(214.67875 -1.2560827e-16 -2.480513)
(213.99935 0 -2.3438215)
(213.33951 7.465793e-18 -2.2059238)
(212.69989 0 -2.0677931)
(212.08098 6.643862e-18 -1.9303584)
(211.48312 2.0688135e-16 -1.7944933)
(210.9065 -3.7813143e-16 -1.6610034)
(210.35113 1.0915554e-17 -1.5306159)
(209.81688 1.68033e-16 -1.4039688)
(209.30338 -1.4873804e-16 -1.2816168)
(208.81005 1.4010107e-16 -1.1640061)
(208.33617 -8.8160614e-18 -1.051516)
(207.88091 0 -0.94442101)
(207.44322 0 -0.84287669)
(207.02178 -1.1110117e-16 -0.74692365)
(206.6149 1.117775e-16 -0.65645529)
(206.22032 -9.9047258e-17 -0.57120331)
(205.83515 1.9333324e-16 -0.49073828)
(205.45602 -1.8867706e-16 -0.41450515)
(205.07937 8.364324e-17 -0.34188171)
(204.70164 5.281953e-18 -0.27220961)
(204.31899 0 -0.20478917)
(203.92706 4.7490196e-18 -0.13886054)
(203.52145 -4.5111452e-18 -0.073456229)
(203.0995 0 -0.0076084903)
(202.66028 -3.3740163e-17 0.055553958)
(202.18697 6.2455169e-17 0.11607486)
(201.79385 -3.1741529e-17 0.21827292)
(201.08307 0 0.099403054)
(201.02547 0 0.6182292)
(217.43971 0 -11.237384)
(254.74656 -3.7205822e-18 3.3512752)
(240.10993 -1.1959058e-16 -10.526962)
(248.32696 1.1024954e-16 1.7096518)
(243.27378 0 -8.8399698)
(245.71637 1.0143729e-16 -0.40235591)
(243.71413 -1.873175e-16 -7.0881953)
(244.30923 -1.0268462e-19 -2.3129832)
(243.37712 8.4415997e-17 -5.7611144)
(243.25533 0 -3.6726939)
(242.69977 -1.5248605e-16 -5.0496964)
(242.32258 1.4915874e-16 -4.4352496)
(241.84602 1.4186579e-16 -4.860331)
(241.38194 -2.6115469e-16 -4.7975217)
(240.88961 1.2005406e-16 -4.9380217)
(240.38148 1.1037202e-17 -5.0019873)
(239.85367 1.1541596e-16 -5.0892345)
(239.30679 -1.027906e-16 -5.1675702)
(238.74043 0 -5.2453288)
(238.15448 0 -5.3198162)
(237.54885 5.6722191e-18 -5.3909161)
(236.92357 -1.7794506e-16 -5.457923)
(236.27875 3.3741838e-16 -5.5202064)
(235.61461 -3.1529533e-16 -5.5770862)
(234.93147 1.4251121e-16 -5.6278677)
(234.2298 0 -5.6718418)
(233.51018 1.2429951e-16 -5.7082908)
(232.77334 -1.332863e-16 -5.7365035)
(232.02015 0 -5.7557822)
(231.2516 3.5224702e-18 -5.765455)
(230.46886 -1.336095e-17 -5.7648865)
(229.67324 0 -5.7534936)
(228.86617 0 -5.7307535)
(228.04924 -1.7049734e-16 -5.6962232)
(227.22415 3.385522e-16 -5.6495482)
(226.39272 -1.6257116e-16 -5.5904758)
(225.55686 -1.5898268e-16 -5.5188686)
(224.71856 1.4551053e-16 -5.4347099)
(223.87986 -1.1207937e-16 -5.3381148)
(223.04286 -2.8760606e-19 -5.2293335)
(222.20963 -2.6908955e-19 -5.1087541)
(221.38224 2.3264433e-16 -4.9769008)
(220.56271 -1.0976566e-16 -4.8344302)
(219.75299 0 -4.6821225)
(218.95495 2.0226103e-16 -4.520872)
(218.17032 1.193353e-17 -4.3516725)
(217.4007 -5.11216e-18 -4.1756009)
(216.64754 -1.6445076e-16 -3.9937993)
(215.91214 0 -3.8074556)
(215.1956 -1.4648636e-16 -3.6177835)
(214.49887 -8.8571915e-18 -3.4260025)
(213.8227 2.5999645e-16 -3.233317)
(213.16767 -1.3003123e-16 -3.0408989)
(212.53421 0 -2.8498691)
(211.92256 -2.0374691e-17 -2.6612826)
(211.33284 -2.111286e-16 -2.4761174)
(210.76501 3.611384e-16 -2.2952617)
(210.21888 -2.1519435e-16 -2.1195066)
(209.69413 0 -1.9495362)
(209.19024 -1.7073907e-16 -1.7859344)
(208.7065 1.7941863e-16 -1.6291614)
(208.24206 2.6676655e-17 -1.4795858)
(207.79597 0 -1.3374718)
(207.36709 -1.4183944e-16 -1.2029419)
(206.95404 7.31624e-18 -1.0759911)
(206.55507 1.1166406e-16 -0.95645626)
(206.16789 -1.9728741e-17 -0.84400097)
(205.7896 9.2961946e-17 -0.73811787)
(205.41676 -1.0507649e-16 -0.63816383)
(205.04576 5.5060428e-18 -0.54342369)
(204.67293 -5.1952614e-18 -0.45315251)
(204.29437 0 -0.36657851)
(203.90566 -4.6355379e-18 -0.28285979)
(203.50232 4.3846441e-18 -0.20097422)
(203.081 8.3047313e-18 -0.12065428)
(202.63936 9.8410506e-19 -0.044292501)
(202.18404 0 0.036102043)
(201.73106 3.022273e-17 0.11781571)
(201.15458 -5.7569095e-17 0.070972071)
(200.91269 2.5858862e-17 0.51058965)
(218.61441 0 -14.139912)
(256.23158 -1.223748e-16 1.1017819)
(241.08585 2.4957992e-16 -13.547048)
(249.58391 -2.2288036e-16 -0.55016885)
(244.26902 1.1007864e-16 -11.787019)
(246.84883 -3.2594877e-18 -2.7577413)
(244.7187 9.9209961e-17 -9.8901939)
(245.3397 -9.3959303e-17 -4.797684)
(244.35068 -5.5777172e-18 -8.4240274)
(244.20558 -5.2960285e-18 -6.2441742)
(243.61463 -1.006058e-17 -7.6320173)
(243.20137 1.3880365e-16 -7.0231868)
(242.68927 -1.4069644e-16 -7.4168917)
(242.1866 1.3808691e-16 -7.3610526)
(241.65507 -1.1862375e-16 -7.4801437)
(241.10607 -1.5547496e-17 -7.5360206)
(240.53613 0 -7.6076274)
(239.94582 -1.2306154e-20 -7.6710816)
(239.33484 -2.2613855e-16 -7.7317306)
(238.70318 -3.6863543e-19 -7.7875483)
(238.05087 1.7332992e-16 -7.8381023)
(237.37806 1.7026076e-17 -7.8826009)
(236.68501 -2.1535871e-17 -7.9202918)
(235.97211 0 -7.9503897)
(235.23988 7.1806324e-21 -7.9721027)
(234.48896 -1.6532622e-16 -7.9846357)
(233.72017 1.4770026e-16 -7.9872016)
(232.93448 8.2436289e-18 -7.9790294)
(232.13298 0 -7.9593827)
(231.31698 -7.3958047e-18 -7.9275669)
(230.48789 -1.5018643e-21 -7.8829491)
(229.64732 -1.990909e-16 -7.8249701)
(228.797 2.0050924e-16 -7.7531602)
(227.9388 1.1881926e-17 -7.6671576)
(227.07471 -1.7987495e-16 -7.5667173)
(226.20681 1.4845081e-16 -7.4517288)
(225.33727 -1.8089263e-16 -7.3222242)
(224.4683 1.5162008e-16 -7.1783881)
(223.60215 -1.4356468e-16 -7.0205602)
(222.74104 1.3530309e-16 -6.8492407)
(221.88716 1.5998729e-17 -6.665087)
(221.04266 0 -6.4689057)
(220.20957 1.9957644e-16 -6.2616462)
(219.38981 -2.4156694e-16 -6.0443857)
(218.58515 0 -5.8183126)
(217.79722 1.7929749e-16 -5.5847094)
(217.02744 -1.5733702e-16 -5.3449283)
(216.27707 1.6976483e-16 -5.1003709)
(215.54715 -1.7956504e-16 -4.8524639)
(214.83854 0 -4.6026361)
(214.15189 1.7707268e-16 -4.352297)
(213.48768 -1.330758e-16 -4.1028133)
(212.84617 0 -3.8554915)
(212.22751 0 -3.6115611)
(211.63164 1.2469406e-16 -3.3721589)
(211.05841 -2.082467e-16 -3.1383208)
(210.50751 1.22245e-16 -2.9109711)
(209.97852 1.8397897e-16 -2.6909177)
(209.4709 2.02e-19 -2.4788443)
(208.98396 1.7990814e-19 -2.2753173)
(208.51683 -3.2383282e-16 -2.0807726)
(208.06853 8.9369004e-17 -1.8955279)
(207.63797 0 -1.7198007)
(207.22391 1.4204128e-16 -1.5536529)
(206.82489 -1.6293075e-16 -1.3970087)
(206.4391 1.1136347e-16 -1.2496282)
(206.0642 1.3145849e-17 -1.1110897)
(205.69727 -8.5927145e-17 -0.98079338)
(205.33485 1.1538901e-17 -0.85800069)
(204.97329 2.1699921e-17 -0.74190554)
(204.6089 -1.0204606e-16 -0.63167891)
(204.23779 9.5972506e-17 -0.52646652)
(203.85553 -7.231231e-17 -0.42537649)
(203.45748 1.3621553e-16 -0.3275371)
(203.04011 -5.6172386e-17 -0.23293885)
(202.60325 -6.0611158e-17 -0.14213866)
(202.15398 5.0082874e-17 -0.049402076)
(201.68112 0 0.025874757)
(201.16521 3.2056778e-18 0.039364077)
(200.84567 -1.215789e-17 0.39738928)
(219.62934 0 -17.111843)
(257.56511 0 -1.2845236)
(241.83614 0 -16.700965)
(250.6617 1.0651037e-16 -2.9145714)
(245.07971 -1.2367629e-16 -14.861566)
(247.81556 -2.2026653e-16 -5.230538)
(245.54286 2.094933e-16 -12.809035)
(246.19234 -1.2408007e-17 -7.4093247)
(245.1388 5.9084472e-18 -11.196852)
(244.96629 -1.7374712e-16 -8.9469702)
(244.33525 1.7009588e-16 -10.325541)
(243.88033 1.0108935e-17 -9.7365331)
(243.32773 -1.5350573e-16 -10.090913)
(242.78108 1.3636194e-16 -10.043677)
(242.20518 -1.3708744e-20 -10.140106)
(241.61013 -8.1781902e-18 -10.185932)
(240.99301 0 -10.240283)
(240.35438 -7.3827364e-18 -10.286386)
(239.69405 -2.1015673e-16 -10.327252)
(239.01212 2.1219994e-16 -10.361303)
(238.30878 1.2596102e-17 -10.387881)
(237.58433 -1.1942313e-17 -10.406106)
(236.83919 2.1520569e-16 -10.415126)
(236.07394 -1.7142206e-16 -10.414065)
(235.28933 1.0165957e-17 -10.40204)
(234.48625 1.9276666e-16 -10.378183)
(233.66578 -1.2751491e-16 -10.341642)
(232.82916 0 -10.291605)
(231.97782 1.4734868e-16 -10.22731)
(231.11337 -1.2368118e-16 -10.148069)
(230.23759 2.4927138e-16 -10.053277)
(229.35239 -1.3311033e-17 -9.9424402)
(228.45985 -2.0938557e-16 -9.8151884)
(227.56218 1.736739e-16 -9.6712918)
(226.66166 -1.8709001e-16 -9.510675)
(225.76068 -3.028921e-20 -9.3334314)
(224.86164 2.0916017e-16 -9.1398304)
(223.96697 -3.1565943e-16 -8.9303215)
(223.07907 9.2903955e-17 -8.7055375)
(222.20029 3.5175328e-17 -8.466289)
(221.33288 -4.9739558e-17 -8.2135591)
(220.47897 0 -7.9484879)
(219.64053 -8.8508855e-17 -7.672359)
(218.81939 1.3862009e-16 -7.3865768)
(218.01713 -2.0931122e-16 -7.0926455)
(217.23517 1.9666738e-16 -6.7921453)
(216.47468 -2.086027e-16 -6.4867025)
(215.73662 3.9224554e-16 -6.1779659)
(215.02172 -3.073967e-16 -5.8675798)
(214.3305 3.0825373e-16 -5.5571582)
(213.66326 -1.4468354e-16 -5.2482623)
(213.02012 1.3619806e-16 -4.9423798)
(212.40101 -9.5743094e-17 -4.6409047)
(211.80571 3.0023443e-17 -4.3451263)
(211.23388 0 -4.0562137)
(210.68503 0 -3.7752117)
(210.1586 0 -3.503033)
(209.65392 2.3240841e-17 -3.2404565)
(209.17023 0 -2.9881237)
(208.70667 -1.6357888e-16 -2.7465451)
(208.2622 1.9149099e-16 -2.516095)
(207.83573 -1.0778453e-16 -2.297013)
(207.42604 -1.1975677e-19 -2.089436)
(207.03181 2.5216271e-16 -1.893344)
(206.6515 2.9618323e-17 -1.7085712)
(206.28326 -1.3830049e-16 -1.5347885)
(205.92473 5.186463e-17 -1.3714826)
(205.57298 -1.4570029e-16 -1.2179599)
(205.22454 -4.5526614e-17 -1.0733888)
(204.87575 -6.3996395e-17 -0.93687416)
(204.52292 -6.0012931e-17 -0.80749623)
(204.1622 5.6238537e-17 -0.68432292)
(203.78914 0 -0.56648761)
(203.39893 0 -0.45328383)
(202.98838 -1.5503002e-17 -0.34443316)
(202.55897 0 -0.23961211)
(202.114 6.8495572e-18 -0.13780782)
(201.64057 5.1585039e-17 -0.058167051)
(201.16189 -7.2873131e-17 -0.0028145501)
(200.78384 -1.2722429e-20 0.28183584)
(220.46623 0 -20.28249)
(258.72601 -8.8043295e-18 -3.7471683)
(242.45798 2.6632875e-16 -19.991268)
(251.52016 -2.4874857e-16 -5.405986)
(245.65318 2.5384095e-16 -18.052029)
(248.57871 -2.3223286e-16 -7.8574215)
(246.16596 -2.2138428e-16 -15.834486)
(246.83298 2.0956482e-16 -10.180015)
(245.71705 0 -14.073488)
(245.50685 0 -11.800568)
(244.83346 1.796052e-16 -13.134019)
(244.33009 -1.7014967e-16 -12.583289)
(243.73225 -1.0108228e-17 -12.88852)
(243.13645 2.8751241e-17 -12.849068)
(242.51126 -9.0987001e-18 -12.920715)
(241.86535 3.450941e-17 -12.952688)
(241.19635 0 -12.986793)
(240.50474 0 -13.01176)
(239.79049 -2.3568397e-16 -13.028991)
(239.05383 2.090174e-16 -13.037135)
(238.29507 0 -13.035345)
(237.51471 0 -13.022638)
(236.7134 -1.9018859e-16 -12.998029)
(235.89199 3.5992959e-16 -12.960535)
(235.05149 -1.7023544e-16 -12.909172)
(234.19313 -2.0168173e-17 -12.842986)
(233.31833 -3.8199187e-17 -12.76107)
(232.42871 -1.4474543e-16 -12.662581)
(231.52609 1.1950902e-16 -12.546763)
(230.61247 0 -12.412967)
(229.69004 -3.0610141e-17 -12.260672)
(228.76112 0 -12.089509)
(227.82817 0 -11.899274)
(226.89374 2.0665062e-16 -11.689949)
(225.96047 -2.1903332e-16 -11.461709)
(225.03101 2.2977033e-17 -11.214937)
(224.108 -2.168053e-17 -10.950224)
(223.19404 -4.0989684e-17 -10.668371)
(222.29165 -8.6294991e-20 -10.370381)
(221.4032 8.1972626e-20 -10.057446)
(220.53093 -7.7363541e-20 -9.7309376)
(219.67686 0 -9.3923779)
(218.84282 -1.2168962e-16 -9.0434228)
(218.03039 1.1427164e-16 -8.6858278)
(217.2409 0 -8.3214215)
(216.47543 -5.0651118e-17 -7.9520783)
(215.7348 1.903748e-16 -7.5796811)
(215.01959 -2.2317228e-16 -7.2060976)
(214.3301 -2.0997045e-16 -6.8331499)
(213.66646 1.5742223e-16 -6.4625904)
(213.02855 1.1103201e-16 -6.0960786)
(212.41608 -1.3859224e-16 -5.7351641)
(211.8286 -3.2493464e-17 -5.3812691)
(211.26553 -2.1346953e-16 -5.0356813)
(210.72616 1.1417067e-16 -4.699542)
(210.20973 -1.0708421e-16 -4.3738466)
(209.71537 1.0015974e-16 -4.0594424)
(209.24217 2.3468443e-16 -3.7570283)
(208.78918 -1.7552124e-16 -3.4671569)
(208.35535 0 -3.1902421)
(207.93953 -3.8410527e-17 -2.9265564)
(207.54048 -7.1900894e-17 -2.6762318)
(207.15691 1.3434666e-16 -2.4392933)
(206.78743 1.256972e-16 -2.215615)
(206.43042 -2.3489386e-16 -2.0049222)
(206.08401 8.2264345e-17 -1.8067825)
(205.74585 5.1281525e-17 -1.6205825)
(205.413 9.5871746e-17 -1.4455329)
(205.08202 1.3440474e-16 -1.280713)
(204.74925 2.5113437e-20 -1.1251411)
(204.41106 0 -0.97780393)
(204.06366 0 -0.83771671)
(203.7026 -3.4206601e-17 -0.70409359)
(203.32304 9.5977884e-17 -0.57626693)
(202.92241 -8.9771065e-17 -0.45349269)
(202.50261 -8.4041955e-17 -0.33581208)
(202.06386 5.2448983e-17 -0.22584819)
(201.59902 0 -0.13576226)
(201.14348 4.6078551e-17 -0.054507598)
(200.72882 2.2188515e-20 0.16841103)
(221.10304 0 -23.625786)
(259.6872 1.8942687e-20 -6.2855397)
(242.88457 9.0625999e-18 -23.376846)
(252.21022 2.8810132e-16 -8.0362575)
(246.07137 3.3502459e-19 -21.345885)
(249.10917 -5.0534159e-16 -10.635055)
(246.54192 -3.2525688e-19 -18.954836)
(247.23216 4.5578674e-16 -13.11342)
(246.05285 -2.0970798e-16 -17.051037)
(245.79983 -1.2439414e-17 -14.803874)
(245.08274 1.1814533e-17 -16.055836)
(244.52593 -1.7940019e-16 -15.556059)
(243.87921 1.9112835e-16 -15.804118)
(243.23008 -1.8160697e-16 -15.768377)
(242.55128 3.0592164e-16 -15.812945)
(241.84996 -3.0822941e-16 -15.826584)
(241.1243 1.3737499e-16 -15.837042)
(240.37479 0 -15.836875)
(239.60157 0 -15.826351)
(238.80506 1.4633852e-17 -15.804124)
(237.98585 -2.7748345e-17 -15.76913)
(237.1447 0 -15.720222)
(236.28261 1.9926599e-16 -15.656261)
(235.40077 4.749035e-19 -15.576134)
(234.50062 -3.5662841e-16 -15.47876)
(233.5838 1.685096e-16 -15.363118)
(232.6522 1.9938292e-17 -15.228279)
(231.70791 0 -15.073416)
(230.75323 -1.786201e-16 -14.897838)
(229.79065 1.3468962e-16 -14.701014)
(228.82281 -2.2336216e-16 -14.482587)
(227.8525 2.1023672e-16 -14.242408)
(226.88258 -2.2754333e-16 -13.980539)
(225.91598 2.1418109e-16 -13.697281)
(224.95564 7.592881e-17 -13.393167)
(224.00446 0 -13.068973)
(223.06526 0 -12.725716)
(222.14072 4.2319991e-17 -12.364638)
(221.23337 3.9860654e-17 -11.987194)
(220.34552 -3.7528704e-17 -11.59503)
(219.47925 3.5318342e-17 -11.189956)
(218.63636 6.6637003e-17 -10.773913)
(217.81837 -6.2588215e-17 -10.348947)
(217.0265 3.5288519e-16 -9.9171673)
(216.26169 -2.7604101e-16 -9.4807128)
(215.52457 5.1810943e-17 -9.0417205)
(214.81549 -4.8753501e-17 -8.6022884)
(214.13453 0 -8.1644485)
(213.48154 2.142883e-16 -7.7301383)
(212.85614 -1.6050516e-16 -7.3011798)
(212.25776 0 -6.8792583)
(211.68567 0 -6.4659119)
(211.13901 1.3207778e-16 -6.0625181)
(210.61681 -6.1732434e-17 -5.6702915)
(210.11805 0 -5.29028)
(209.64164 -1.6220757e-16 -4.923368)
(209.18647 1.0096937e-16 -4.5702801)
(208.75141 1.417294e-16 -4.2315855)
(208.3353 -1.7629546e-16 -3.9077032)
(207.93697 1.6478928e-16 -3.598912)
(207.55516 -1.537103e-16 -3.3053482)
(207.18854 6.7460792e-20 -3.027008)
(206.83575 0 -2.7637794)
(206.49534 6.2479914e-17 -2.5154097)
(206.16568 -2.9130179e-16 -2.2815001)
(205.84489 1.6291463e-16 -2.0615037)
(205.53063 0 -1.854703)
(205.22 -1.4164867e-16 -1.6602153)
(204.9096 8.7988234e-17 -1.4770386)
(204.59582 1.2309528e-16 -1.3041064)
(204.27508 3.5379809e-20 -1.1403184)
(203.9437 -7.1244241e-17 -0.98467513)
(203.59725 9.96414e-17 -0.83648275)
(203.23105 -1.5479441e-16 -0.69494605)
(202.84308 8.6583362e-17 -0.55892599)
(202.43485 2.6899839e-17 -0.42968289)
(202.00499 5.0215247e-17 -0.31165431)
(201.55404 0 -0.2063225)
(201.1175 -4.3747788e-17 -0.10363041)
(200.67569 2.0377088e-17 0.058466406)
(221.52462 0 -27.137822)
(260.44146 9.7965514e-18 -8.9306688)
(243.11008 -3.0553273e-16 -26.887889)
(252.71491 2.494547e-16 -10.808428)
(246.29188 2.5624905e-16 -24.73889)
(249.39712 -4.9977565e-16 -13.567769)
(246.7193 2.2988755e-16 -22.157846)
(247.37527 2.3274531e-16 -16.209244)
(246.15338 -2.2057592e-16 -20.113819)
(245.83505 3.9262719e-17 -17.943051)
(245.07349 0 -19.078422)
(244.45777 0 -18.638871)
(243.75717 -2.2330827e-17 -18.826244)
(243.04883 -1.6954272e-16 -18.790088)
(242.31003 1.4030845e-16 -18.806972)
(241.54658 1.9034048e-17 -18.798831)
(240.75732 -3.6081382e-17 -18.782722)
(239.94286 3.0784674e-16 -18.753579)
(239.10367 -2.2622284e-16 -18.710867)
(238.24051 2.4555028e-16 -18.653128)
(237.35433 -2.0291362e-16 -18.579087)
(236.44632 2.7512737e-17 -18.48744)
(235.51793 1.5631016e-16 -18.376917)
(234.57085 -1.9659712e-16 -18.246312)
(233.60704 0 -18.094493)
(232.6287 0 -17.92044)
(231.63827 0 -17.723272)
(230.63843 -1.9692257e-16 -17.50227)
(229.63203 1.8550087e-16 -17.25691)
(228.62212 -3.5151006e-17 -16.986885)
(227.61184 0 -16.692132)
(226.60446 -2.8179334e-16 -16.372847)
(225.60325 2.3551756e-16 -16.029495)
(224.61147 -5.5708841e-17 -15.662819)
(223.6323 1.5754841e-16 -15.273848)
(222.66879 -4.8954007e-17 -14.863869)
(221.72384 -1.8570459e-16 -14.43443)
(220.80008 2.1908301e-16 -13.98731)
(219.89991 -1.6447327e-16 -13.524489)
(219.02539 7.7585851e-17 -13.048117)
(218.17828 -7.2802113e-17 -12.560478)
(217.35999 1.3685628e-16 -12.06394)
(216.57157 -6.4127417e-17 -11.560931)
(215.81375 -2.41367e-16 -11.053882)
(215.0869 5.0895713e-16 -10.545195)
(214.39109 -2.1197607e-16 -10.037206)
(213.72609 -1.4938531e-16 -9.5321563)
(213.09143 9.2873828e-17 -9.0321581)
(212.48638 8.7370108e-17 -8.5391774)
(211.91005 -1.6344779e-16 -8.0550145)
(211.36137 1.5271208e-16 -7.581292)
(210.83918 0 -7.1194488)
(210.3422 1.3367271e-16 -6.6707358)
(209.86911 -1.8723237e-16 -6.2362187)
(209.41857 5.834922e-17 -5.8167825)
(208.98922 5.4378375e-17 -5.4131388)
(208.57972 0 -5.025836)
(208.18877 0 -4.655267)
(207.81508 0 -4.3016772)
(207.45736 0 -3.9651773)
(207.11427 0 -3.6457391)
(206.78443 -7.1447034e-17 -3.3432008)
(206.46646 0 -3.0572956)
(206.15888 -5.5143881e-20 -2.7876282)
(205.86007 2.3070923e-16 -2.5336656)
(205.56816 -2.1461729e-16 -2.2947401)
(205.28086 -9.9907854e-17 -2.0700285)
(204.99535 -1.8576033e-16 -1.8585617)
(204.70829 2.5892842e-16 -1.6592631)
(204.41612 4.5182603e-20 -1.4709872)
(204.11538 7.4576474e-17 -1.2925627)
(203.80249 0 -1.1230142)
(203.47309 0 -0.96170051)
(203.12283 0 -0.80754717)
(202.75008 -1.113293e-16 -0.65928127)
(202.35533 0 -0.51987978)
(201.93708 -9.6203964e-17 -0.39366766)
(201.50387 1.3413782e-16 -0.27169293)
(201.08502 8.3161514e-17 -0.15557667)
(200.62287 -1.9275054e-17 -0.046859631)
(221.73593 0 -30.827503)
(260.99586 0 -11.684557)
(243.14187 3.2144782e-16 -30.531076)
(253.03839 1.9288089e-17 -13.739542)
(246.3265 -2.6898514e-16 -28.242098)
(249.50737 0 -16.67858)
(246.69288 1.6116641e-17 -25.438994)
(247.39213 -3.0550379e-17 -19.458801)
(246.00295 0 -23.241296)
(245.61557 1.9258153e-16 -21.201578)
(244.80231 -4.1693677e-16 -22.198313)
(244.11701 1.974267e-16 -21.826819)
(243.35262 2.3433749e-17 -21.955634)
(242.57506 0 -21.914567)
(241.76624 2.1027283e-17 -21.902936)
(240.93085 -3.3919618e-16 -21.868665)
(240.0684 7.4772762e-17 -21.82145)
(239.17978 2.4997652e-16 -21.75763)
(238.26587 2.3740879e-16 -21.676176)
(237.32786 -2.5607526e-16 -21.575511)
(236.36722 0 -21.454194)
(235.38567 -2.8734507e-16 -21.31081)
(234.38525 2.4397341e-16 -21.144009)
(233.36828 -2.0564847e-16 -20.952558)
(232.33738 1.9382674e-16 -20.73536)
(231.2954 -1.8369698e-16 -20.491483)
(230.24548 3.4653936e-16 -20.220215)
(229.19093 -1.6353508e-16 -19.921067)
(228.13526 1.5466975e-16 -19.593827)
(227.08209 -2.9160438e-16 -19.238568)
(226.03509 1.3724722e-16 -18.855675)
(224.99795 1.2962452e-16 -18.445857)
(223.97429 -2.445763e-16 -18.01014)
(222.96761 5.6775125e-17 -17.549869)
(221.98121 -5.7864515e-19 -17.0667)
(221.01815 2.5446155e-16 -16.562555)
(220.08118 0 -16.039615)
(219.17272 1.9538269e-19 -15.500269)
(218.2948 0 -14.947071)
(217.44905 -7.9433973e-17 -14.382696)
(216.63669 -1.4928672e-16 -13.809894)
(215.85855 7.0093865e-17 -13.231435)
(215.11503 0 -12.650069)
(214.40616 -6.1771018e-17 -12.068477)
(213.73166 2.891235e-16 -11.489234)
(213.09089 -3.2459575e-16 -10.914777)
(212.48298 -3.0415103e-16 -10.347377)
(211.90681 2.8397906e-16 -9.7891169)
(211.36109 -1.7722643e-16 -9.2418786)
(210.84437 0 -8.7073332)
(210.35513 0 -8.186938)
(209.89175 7.2336175e-17 -7.6819383)
(209.45259 6.7507614e-17 -7.1933737)
(209.03603 1.2581069e-16 -6.722086)
(208.64045 -5.8667234e-17 -6.2687312)
(208.26428 -1.0928426e-16 -5.8337933)
(207.90604 -2.0380034e-16 -5.4175978)
(207.56428 -9.5082467e-17 -5.0203231)
(207.23762 1.7651785e-16 -4.6420106)
(206.92471 0 -4.2825783)
(206.62419 -7.6458935e-17 -3.9418146)
(206.33469 -1.42122e-16 -3.6193856)
(206.0548 1.3204246e-16 -3.3148604)
(205.78307 6.1242629e-17 -3.0276931)
(205.51792 5.6962204e-17 -2.7572132)
(205.25753 0 -2.5026307)
(204.9997 1.9637863e-16 -2.2630217)
(204.74169 1.8222232e-16 -2.0373389)
(204.48026 -2.5356881e-16 -1.8244396)
(204.21193 7.8421873e-17 -1.6231051)
(203.93339 -7.2693179e-17 -1.4321204)
(203.64112 -4.6685258e-20 -1.2505614)
(203.33098 2.498595e-16 -1.0777552)
(202.99904 -2.3157972e-16 -0.91225225)
(202.64376 5.3616689e-17 -0.75302194)
(202.26427 1.491588e-16 -0.60488513)
(201.8603 -4.6081341e-17 -0.47010849)
(201.44823 -4.2689794e-17 -0.33045689)
(201.04661 0 -0.20662866)
(200.56887 3.6571104e-17 -0.14690547)
(221.74761 3.9098239e-16 -34.704457)
(261.35536 5.4516e-19 -14.554589)
(242.95745 -3.5828078e-16 -34.322473)
(253.17396 0 -16.834847)
(246.09793 0 -31.820315)
(249.27107 -2.6730105e-16 -19.962516)
(246.36181 2.7041287e-16 -28.774757)
(246.88833 6.4136218e-17 -22.869734)
(245.58417 -2.4343647e-16 -26.470199)
(245.11595 2.302566e-16 -24.606765)
(244.24041 -2.4610033e-16 -25.443421)
(243.47263 2.0684754e-16 -25.135484)
(242.63227 -4.9072868e-17 -25.2052)
(241.77374 -4.6536373e-17 -25.149563)
(240.88334 -1.7634542e-16 -25.104339)
(239.96489 1.6656128e-16 -25.036142)
(239.01859 -3.5571215e-16 -24.949819)
(238.04572 5.9793679e-16 -24.842407)
(237.04772 -2.8251959e-16 -24.712483)
(236.02637 -2.6807685e-16 -24.558329)
(234.98379 2.5279863e-16 -24.378368)
(233.92241 -3.0108207e-17 -24.171115)
(232.84502 -2.2663232e-16 -23.935212)
(231.75473 2.1348873e-16 -23.669498)
(230.65494 2.5291469e-16 -23.37302)
(229.54932 -1.4260782e-16 -23.045087)
(228.44175 0 -22.685306)
(227.3363 2.5505903e-16 -22.293608)
(226.23711 -3.203664e-16 -21.870281)
(225.14837 1.1272116e-16 -21.41598)
(224.07424 -2.8501483e-16 -20.931739)
(223.01872 2.008057e-16 -20.41897)
(221.98563 -6.3277228e-17 -19.879444)
(220.97854 2.3779422e-16 -19.315264)
(220.00063 -2.2305459e-16 -18.728845)
(219.05474 -2.1023535e-16 -18.122854)
(218.14324 1.9704743e-16 -17.50017)
(217.26803 -4.6216295e-17 -16.863828)
(216.43054 0 -16.216958)
(215.6317 8.179192e-17 -15.56273)
(214.87195 -7.6338089e-17 -14.904297)
(214.15131 0 -14.24474)
(213.46936 1.3442991e-16 -13.587023)
(212.82532 -6.288482e-17 -12.933948)
(212.21808 -1.7632623e-16 -12.288129)
(211.64628 5.5001697e-16 -11.651959)
(211.10832 -2.0593963e-16 -11.0276)
(210.60245 9.6052405e-17 -10.416969)
(210.1268 -2.69336e-16 -9.8217333)
(209.67943 -1.8672832e-19 -9.243318)
(209.25837 1.5616622e-16 -8.6829099)
(208.86165 -1.4568868e-16 -8.141469)
(208.48734 -6.7800231e-17 -7.6197435)
(208.13355 -6.3155989e-17 -7.1182855)
(207.7985 -1.1793262e-16 -6.6374682)
(207.48049 2.1900379e-16 -6.1775044)
(207.17791 0 -5.7384629)
(206.88929 9.4642984e-17 -5.3202821)
(206.61319 -3.5218057e-16 -4.9227812)
(206.34829 2.4510242e-16 -4.5456727)
(206.09323 7.5854398e-17 -4.1885527)
(205.84667 1.4092034e-16 -3.8509118)
(205.60727 1.3093993e-16 -3.5321552)
(205.37362 -1.2114402e-16 -3.2315862)
(205.1442 -1.122625e-16 -2.9484008)
(204.91729 -3.1229983e-16 -2.6816927)
(204.6908 -4.2889066e-20 -2.4304464)
(204.4621 -8.9249159e-17 -2.1935468)
(204.22808 0 -1.9697909)
(203.9854 -2.2944079e-16 -1.7578976)
(203.73083 7.074994e-17 -1.5566407)
(203.46099 0 -1.3651515)
(203.17199 1.2105373e-16 -1.1826113)
(202.86048 0 -1.007194)
(202.52459 1.0343026e-16 -0.83854969)
(202.16193 -1.4334471e-16 -0.68309375)
(201.77473 1.3247988e-16 -0.53929106)
(201.38641 -8.1596355e-17 -0.38193111)
(201.00171 7.5367615e-17 -0.25478948)
(200.51348 0 -0.23997522)
(221.54649 -4.1073521e-16 -38.775032)
(261.5067 3.6274224e-16 -17.558643)
(242.52123 -3.3238764e-16 -38.291908)
(253.05105 3.3049466e-16 -20.107208)
(245.58401 3.1650934e-16 -35.456912)
(248.80932 -1.7985785e-17 -23.43276)
(245.78879 -2.8339757e-16 -32.194454)
(246.2586 -2.6902998e-16 -26.473686)
(244.86681 2.8635014e-16 -29.819239)
(244.29088 0 -28.159431)
(243.3426 2.8572838e-17 -28.820569)
(242.47976 0 -28.56396)
(241.55076 -1.285208e-16 -28.574071)
(240.59897 2.4266312e-16 -28.4922)
(239.61477 0 -28.405555)
(238.60155 0 -28.293125)
(237.56029 0 -28.156717)
(236.4929 3.9085988e-17 -27.993642)
(235.40155 0 -27.802178)
(234.28885 -2.4446464e-16 -27.580512)
(233.15775 3.2937935e-16 -27.326998)
(232.01164 1.246362e-16 -27.040189)
(230.85424 1.7673404e-16 -26.718847)
(229.68961 -2.7760445e-16 -26.362038)
(228.52211 -5.2313336e-17 -25.96915)
(227.35631 -2.4758674e-16 -25.53994)
(226.19692 1.863418e-16 -25.074573)
(225.04875 -2.2010053e-16 -24.573649)
(223.91655 8.2345607e-17 -24.038204)
(222.80498 7.7858346e-17 -23.469723)
(221.71849 0 -22.870125)
(220.66122 2.7701199e-16 -22.241729)
(219.63693 -2.601754e-16 -21.587228)
(218.64894 0 -20.909629)
(217.70003 -2.3002277e-16 -20.212205)
(216.79244 2.1544999e-16 -19.498422)
(215.92784 -1.015402e-16 -18.77187)
(215.10728 1.901059e-16 -18.036201)
(214.33127 -2.6711888e-16 -17.295046)
(213.59975 1.2914492e-19 -16.551961)
(212.91217 -1.5607574e-16 -15.810363)
(212.26753 -7.3045011e-17 -15.073481)
(211.66446 -1.3710352e-16 -14.344319)
(211.10125 2.5558128e-16 -13.62562)
(210.57594 -1.1926868e-16 -12.919852)
(210.0864 0 -12.229194)
(209.63035 -3.8521614e-19 -11.555532)
(209.20544 9.7032223e-17 -10.900469)
(208.80931 0 -10.26533)
(208.4396 8.4402867e-17 -9.6511774)
(208.094 7.8924563e-17 -9.0588326)
(207.77027 -7.327753e-17 -8.488892)
(207.46628 2.728273e-16 -7.9417495)
(207.18002 -2.5363068e-16 -7.4176187)
(206.9096 -1.1796255e-16 -6.916554)
(206.65328 -1.0958751e-16 -6.4384713)
(206.40943 1.0175723e-16 -5.9831657)
(206.17659 1.887597e-16 -5.5503259)
(205.95339 -3.5013974e-16 -5.1395447)
(205.73852 4.0578931e-16 -4.7503296)
(205.53073 -1.503571e-16 -4.3820875)
(205.32875 1.3936954e-16 -4.0341398)
(205.13131 -1.2901371e-16 -3.7057375)
(204.93709 2.389377e-16 -3.3960419)
(204.74468 -3.3169255e-16 -3.1041265)
(204.55247 2.0446781e-16 -2.8289809)
(204.3585 -8.1535486e-20 -2.5695117)
(204.16032 8.7398603e-17 -2.3245465)
(203.95496 0 -2.092826)
(203.73925 0 -1.8730215)
(203.51 0 -1.6639291)
(203.26396 -1.2702038e-16 -1.4647077)
(202.99768 1.4473971e-20 -1.2742755)
(202.70838 0 -1.090552)
(202.39344 0 -0.91429565)
(202.04901 9.188748e-17 -0.752903)
(201.68099 -1.6934368e-16 -0.59967314)
(201.31804 0 -0.42557562)
(200.94923 0 -0.29815828)
(200.45638 -1.3193413e-16 -0.31931934)
(221.09804 2.7729572e-17 -43.048637)
(261.41173 -7.8537192e-16 -20.718815)
(241.80508 3.4773464e-16 -42.400473)
(252.39705 -2.1724835e-17 -23.561382)
(244.75423 3.7306099e-16 -39.216506)
(248.01022 -3.5179888e-16 -27.127661)
(244.90227 0 -35.731162)
(245.23995 -3.1690785e-16 -30.270243)
(243.79673 2.3297145e-16 -33.283249)
(243.09615 2.2128368e-16 -31.851559)
(242.0616 -2.388575e-16 -32.331965)
(241.08957 0 -32.107755)
(240.05745 1.9261364e-19 -32.056123)
(238.99875 0 -31.934144)
(237.90749 3.8478511e-16 -31.794653)
(236.78707 -7.2689945e-16 -31.624285)
(235.63944 3.4317624e-16 -31.423018)
(234.4674 -4.0539149e-17 -31.18826)
(233.27414 -3.8524736e-17 -30.918109)
(232.06333 3.6618153e-17 -30.61074)
(230.83908 -6.8374033e-17 -30.264597)
(229.60593 -3.2392281e-16 -29.878427)
(228.36878 3.0486833e-16 -29.451348)
(227.13281 5.7472487e-17 -28.982913)
(225.90344 -2.7238783e-16 -28.473128)
(224.68618 -7.0286208e-19 -27.92252)
(223.48657 2.8930756e-16 -27.332133)
(222.31002 -1.8158629e-16 -26.703543)
(221.16175 -6.1849474e-19 -26.038847)
(220.04664 0 -25.34063)
(218.96912 0 -24.61193)
(217.93311 -7.1465164e-17 -23.856173)
(216.94191 1.3379069e-16 -23.077116)
(215.99815 0 -22.278755)
(215.10377 -1.1826198e-16 -21.465248)
(214.25999 2.21284e-16 -20.640828)
(213.46734 -1.0367218e-16 -19.80971)
(212.72568 -1.9428988e-16 -18.976021)
(212.03428 9.0283427e-17 -18.143719)