/*--------------------------------*- C++ -*----------------------------------*\
  =========                 |
  \\      /  F ield         | OpenFOAM: The Open Source CFD Toolbox
   \\    /   O peration     | Website:  https://openfoam.org
    \\  /    A nd           | Version:  12
     \\/     M anipulation  |
\*---------------------------------------------------------------------------*/
FoamFile
{
    format      ascii;
    class       volScalarField;
    location    "250";
    object      k;
}
// * * * * * * * * * * * * * * * * * * * * * * * * * * * * * * * * * * * * * //

dimensions      [0 2 -2 0 0 0 0];

internalField   nonuniform List<scalar> 
16200
(
419.5081182
474.5997606
432.0903633
392.1799981
341.6992761
265.387387
155.4712997
48.47304524
6.111424386
0.2426561314
0.003025495309
0.001041355095
0.0009942085226
0.0009687026576
0.0009544364738
0.0009457640956
0.0009401317931
0.0009367561407
0.0009350212877
0.0009343903031
0.0009345953541
0.0009354710479
0.0009369229806
0.0009388860296
0.0009413190113
0.000944198515
0.0009475020423
0.000951193029
0.0009552130825
0.0009594742561
0.0009638580179
0.0009682218525
0.0009724159563
0.0009763039636
0.0009797837105
0.0009827919223
0.0009853046127
0.0009873217864
0.0009888615432
0.0009899438142
0.0009905872191
0.0009907933881
0.0009905352405
0.0009897315956
0.0009882240188
0.0009858048069
0.0009843399205
0.0009837173316
0.0009834667874
0.0009833847512
0.0009833894492
0.0009834555834
0.0009835860614
0.0009838014749
0.0009841372843
0.0009846486296
0.000985415836
0.0009865700504
0.0009883203853
0.0009910958539
435.8859022
488.7930026
439.6295828
392.818678
332.9344459
243.3410498
122.8380121
29.74379012
2.692033773
0.06804959018
0.00125737948
0.001025856149
0.000984154114
0.0009608779564
0.0009479089932
0.000940135998
0.0009351682224
0.0009323019885
0.000930985785
0.0009307178715
0.0009312550711
0.0009324474896
0.0009342152018
0.0009365021795
0.0009392703609
0.0009424963372
0.0009461525423
0.0009501910576
0.0009545370201
0.0009590822269
0.0009636888426
0.0009682021763
0.0009724718168
0.0009763729284
0.0009798216097
0.0009827764091
0.0009852304882
0.0009871973963
0.0009887003555
0.0009897618956
0.0009903993166
0.0009906151794
0.0009903853791
0.0009896366777
0.0009882239589
0.0009859151309
0.0009844290168
0.0009838001978
0.0009835513148
0.0009834746604
0.0009834861076
0.0009835589235
0.0009836950322
0.0009839141198
0.000984250921
0.0009847597257
0.0009855212316
0.0009866682247
0.0009884186578
0.00099123506
451.9689752
502.1728224
445.8230215
391.2760719
320.2475398
216.2217225
90.14611354
16.38587809
1.015378613
0.01703476903
0.001100709093
0.001012847502
0.0009750440065
0.000953869298
0.0009421348124
0.0009352163868
0.0009308917396
0.0009285263369
0.0009276261897
0.0009277251367
0.0009286042092
0.0009301274332
0.0009322274531
0.0009348562333
0.0009379775024
0.0009415656484
0.0009455849728
0.000949972405
0.0009546315088
0.0009594297961
0.0009642093691
0.0009688062825
0.0009730754087
0.0009769098334
0.0009802502494
0.0009830804637
0.0009854132185
0.0009872755989
0.0009886963688
0.0009896994855
0.0009903000475
0.0009904995496
0.0009902749512
0.0009895582937
0.0009882118907
0.0009860099507
0.000984512538
0.0009838803868
0.0009836333951
0.0009835615486
0.0009835791021
0.0009836581758
0.000983799827
0.0009840228839
0.0009843613928
0.000984868853
0.0009856260751
0.0009867673481
0.0009885181909
0.0009913721183
467.1203823
513.8291472
450.0686043
386.6318947
302.180408
183.4024984
60.31417059
7.937204092
0.3244640398
0.003874253839
0.001065446825
0.001001078213
0.0009668729661
0.000947704691
0.000937157316
0.0009310527038
0.0009273493104
0.0009254741623
0.0009249856299
0.0009254523015
0.0009266787856
0.0009285414684
0.0009309843574
0.0009339661578
0.0009374506753
0.0009414068913
0.0009457867075
0.000950506202
0.000955442802
0.0009604382218
0.0009653174071
0.0009699142328
0.0009740975684
0.000977785857
0.000980948974
0.0009835968833
0.0009857616657
0.0009874817966
0.0009887903952
0.0009897108732
0.0009902550699
0.0009904215947
0.0009901869938
0.0009894868959
0.0009881900598
0.0009860758656
0.0009845827584
0.0009839533805
0.0009837104086
0.0009836439262
0.0009836676248
0.0009837529546
0.0009839003196
0.0009841278113
0.0009844688187
0.0009849761085
0.0009857305174
0.0009868676052
0.000988619566
0.0009915083125
481.3383558
524.1015152
452.3423984
378.7546866
279.4544521
146.7103066
36.2062485
3.503756026
0.09470902526
0.001458085828
0.001046327518
0.0009904898421
0.0009596461262
0.0009423854401
0.0009329787315
0.0009276526074
0.0009245526709
0.0009231605929
0.0009230818303
0.0009239187245
0.0009254992794
0.0009277116997
0.0009305105027
0.0009338597397
0.0009377200563
0.0009420498298
0.0009467821562
0.000951806192
0.0009569697643
0.0009620900638
0.0009669815878
0.0009714858432
0.0009754954336
0.0009789606584
0.0009818832046
0.0009842985439
0.0009862558998
0.000987802556
0.000988973996
0.0009897914873
0.0009902624797
0.0009903814488
0.0009901232724
0.000989425794
0.0009881633969
0.0009861214716
0.0009846438762
0.0009840214321
0.0009837837192
0.0009837227386
0.0009837524081
0.0009838438653
0.0009839970066
0.0009842292953
0.0009845735019
0.0009850817207
0.0009858347052
0.0009869691207
0.0009887229534
0.0009916437572
494.5280392
533.1126956
452.2835129
366.6361374
250.9436657
109.4009503
20.95636894
1.46189881
0.02669547249
0.001168206857
0.001030865602
0.0009810485917
0.0009533488768
0.0009378963724
0.000929580899
0.0009249970797
0.0009224807465
0.0009215628973
0.0009218917727
0.0009231037228
0.000925049704
0.0009276288708
0.000930803382
0.0009345386743
0.0009387868034
0.0009434887206
0.0009485519402
0.0009538339915
0.0009591529298
0.0009643071141
0.0009691111713
0.000973426132
0.000977177475
0.0009803518162
0.0009829825691
0.0009851279191
0.0009868505345
0.0009882031982
0.0009892213941
0.0009899227137
0.0009903092653
0.0009903705105
0.0009900787373
0.0009893729368
0.000988132297
0.0009861464291
0.0009846953974
0.0009840842197
0.0009838532064
0.0009837980286
0.0009838336149
0.0009839311391
0.0009840901577
0.0009843276058
0.0009846756843
0.0009851858751
0.0009859387863
0.0009870720185
0.0009888285709
0.0009917788067
506.6759971
540.9049855
449.6854417
348.8765687
215.3480503
74.66785647
11.25039079
0.5767506762
0.007478666729
0.001108832078
0.001017129318
0.0009726761308
0.0009479113311
0.000934168811
0.0009268976096
0.0009230275978
0.0009210837546
0.0009206420491
0.0009213888777
0.0009229940387
0.0009253301217
0.0009283030706
0.0009318778787
0.0009360160403
0.0009406553464
0.0009457131399
0.00095106577
0.0009565368888
0.0009619187628
0.0009670009924
0.0009716116383
0.0009756431305
0.0009790607419
0.0009818887717
0.000984189654
0.0009860398435
0.0009875109629
0.0009886578253
0.0009895136249
0.0009900910079
0.0009903860517
0.00099038267
0.0009900499419
0.0009893272037
0.0009880979166
0.0009861542412
0.000984738725
0.0009841423847
0.000983919271
0.0009838701421
0.0009839115908
0.0009840151288
0.0009841801204
0.0009844230655
0.00098477565
0.0009852887966
0.000986042925
0.0009871764209
0.0009889365708
0.000991913663
517.4971029
547.1319786
444.1651397
325.2850179
174.4266663
46.41114561
5.693480161
0.2314181325
0.002648668031
0.001080834472
0.001004883899
0.0009653238207
0.0009432954762
0.0009311745067
0.0009249118214
0.0009217430676
0.0009203751764
0.0009204234047
0.0009216082739
0.0009236290362
0.000926377926
0.0009297653856
0.0009337549974
0.0009382988512
0.0009433144523
0.0009486897457
0.0009542659099
0.0009598335161
0.0009651675655
0.0009700628946
0.0009743752603
0.0009780383674
0.000981060685
0.0009835021966
0.0009854493996
0.0009869915194
0.0009882044364
0.0009891417155
0.0009898322868
0.0009902829028
0.0009904832145
0.0009904113447
0.0009900328123
0.0009892867105
0.0009880605007
0.0009861472968
0.0009847746932
0.0009841962514
0.0009839821176
0.0009839392947
0.0009839865925
0.0009840961256
0.0009842672024
0.0009845159751
0.0009848736714
0.0009853907072
0.0009861472882
0.0009872824451
0.0009890470831
0.0009920485191
526.3519413
551.1897462
434.1491901
295.1906038
132.2624827
27.30415624
2.779415427
0.09718657535
0.001630271586
0.001060485377
0.0009941530913
0.0009590623092
0.0009395800416
0.0009289941007
0.0009237032377
0.0009212230963
0.000920431281
0.000920977864
0.0009226118631
0.0009250586619
0.0009282280736
0.0009320344386
0.0009364369895
0.0009413725167
0.0009467296847
0.0009523603069
0.0009580693758
0.0009636201785
0.0009687836571
0.0009733763109
0.0009772945707
0.0009805195078
0.0009831020829
0.0009851329748
0.000986716322
0.0009879483127
0.0009889047141
0.0009896350675
0.0009901625348
0.0009904873913
0.0009905927464
0.0009904509304
0.0009900237698
0.0009892496835
0.000988020076
0.0009861284615
0.0009848043927
0.0009842462725
0.0009840420122
0.0009840057285
0.0009840588861
0.0009841744222
0.0009843517103
0.0009846066349
0.0009849700232
0.0009854918341
0.0009862520449
0.0009873902033
0.0009891602038
0.00099218352
533.0028993
553.0634355
417.8699875
256.7978281
92.07708073
15.50625346
1.293332867
0.04118731389
0.00138150095
0.001043443531
0.0009850276185
0.0009540115763
0.0009368793883
0.0009277222547
0.0009233420028
0.0009215161131
0.0009212810714
0.0009223179506
0.0009244009429
0.0009272792218
0.0009308741941
0.000935097523
0.0009398998043
0.0009451973066
0.0009508412947
0.0009566408762
0.0009623690222
0.0009677746085
0.000972641456
0.0009768237914
0.000980268149
0.0009830042459
0.0009851209923
0.0009867326749
0.0009879540936
0.0009888829369
0.0009895911766
0.0009901222168
0.0009904924628
0.0009906954769
0.0009907079515
0.0009904966092
0.0009900196226
0.0009892144177
0.0009879763722
0.0009861002981
0.0009848288102
0.000984292859
0.0009840991953
0.0009840696645
0.0009841287179
0.0009842502941
0.0009844339363
0.0009846953356
0.000985064975
0.0009855924034
0.0009863573634
0.0009874998031
0.0009892760035
0.0009923187818
537.8272435
552.7523563
395.0236398
211.5189715
58.37641869
8.444931815
0.5951873283
0.01854844647
0.001290596006
0.001028947711
0.0009774819799
0.0009501601099
0.0009351823633
0.0009273447146
0.0009238107912
0.0009226008315
0.0009228966067
0.0009244065492
0.0009269338467
0.0009302513851
0.0009342837263
0.000938925866
0.0009441062814
0.0009497156492
0.000955566747
0.0009614244348
0.0009670390189
0.0009721642374
0.0009766150362
0.000980295805
0.0009832074153
0.0009854247674
0.0009870672735
0.0009882647743
0.000989136041
0.0009897756193
0.0009902488846
0.0009905916941
0.000990813194
0.0009909002969
0.0009908235898
0.0009905445045
0.0009900177227
0.0009891794413
0.0009879289867
0.0009860651896
0.0009848489006
0.0009843364252
0.0009841539126
0.0009841313229
0.000984196328
0.0009843240073
0.000984514163
0.0009847823596
0.0009851587903
0.0009856926384
0.0009864634109
0.000987611348
0.00098939453
0.0009924543899
541.0448837
549.1074914
365.1213604
164.2794934
35.44558883
4.379292807
0.2750225016
0.009163727308
0.001210900855
0.001016455971
0.0009712135964
0.000947274583
0.000934313772
0.0009277464509
0.0009250508816
0.0009244462121
0.0009252666327
0.0009272494086
0.0009302158237
0.0009339655395
0.0009384307379
0.0009434833509
0.0009490072098
0.000954852273
0.0009608004543
0.0009665833451
0.0009719417901
0.0009766554228
0.000980586854
0.0009836972855
0.0009860404817
0.0009877293003
0.0009889046341
0.0009897039318
0.0009902441566
0.0009906131414
0.0009908677784
0.0009910356168
0.0009911184528
0.000991096843
0.0009909357107
0.0009905915964
0.0009900159392
0.0009891435375
0.0009878774479
0.0009860252038
0.000984865524
0.0009843773617
0.0009842064034
0.0009841909177
0.0009842619478
0.0009843958172
0.0009845926613
0.0009848679789
0.0009852517246
0.0009857927574
0.0009865703527
0.0009877249354
0.0009895158108
0.0009925904041
542.5641999
540.593506
325.6832391
118.4147268
21.37574695
2.301291377
0.1317449095
0.005101204543
0.001147059008
0.001005693529
0.0009660368946
0.0009451993751
0.0009341256883
0.0009287777409
0.0009269126333
0.000926957392
0.000928358381
0.0009308718974
0.0009342873297
0.0009384505647
0.0009433061775
0.0009487206811
0.0009545274042
0.0009605069458
0.000966414626
0.0009719752856
0.0009769372436
0.0009811230923
0.000984455159
0.0009869520019
0.0009887138434
0.000989882005
0.0009906095993
0.000991034663
0.0009912678314
0.0009913877779
0.0009914418587
0.0009914490941
0.0009914041546
0.0009912816942
0.0009910414912
0.0009906356369
0.0009900126274
0.0009891057568
0.0009878212853
0.0009859821
0.0009848794466
0.0009844160363
0.0009842569024
0.0009842486595
0.0009843258019
0.0009844659694
0.0009846696916
0.0009849524551
0.0009853440246
0.000985892972
0.000986678347
0.0009878406487
0.0009896398547
0.0009927268616
542.1688042
526.0327473
276.9750286
79.24749805
12.97329361
1.242223359
0.06785265159
0.003263885614
0.001101845255
0.0009966167297
0.0009620890715
0.0009440679366
0.0009347294584
0.0009305155522
0.00092943586
0.0009301305272
0.0009321203568
0.0009351728477
0.0009390859689
0.0009436985143
0.0009488951189
0.0009545749572
0.0009605586835
0.0009665501708
0.0009722660362
0.0009774541413
0.0009818931057
0.0009854588165
0.0009881388115
0.0009900042492
0.0009911919209
0.0009918614028
0.0009921696057
0.0009922495398
0.0009922023426
0.000992096109
0.0009919682947
0.0009918295792
0.0009916679494
0.0009914527055
0.0009911390332
0.0009906750272
0.0009900065638
0.0009890653954
0.0009877600712
0.0009859373265
0.0009848913328
0.0009844527886
0.0009843056369
0.0009843047542
0.0009843881077
0.0009845346998
0.0009847455026
0.0009850360385
0.0009854359266
0.0009859934857
0.0009867875432
0.0009879585458
0.0009897666534
0.0009928637805
540.1109103
504.3377324
225.0770377
51.3033356
7.578300053
0.6703546802
0.03524398357
0.002216841019
0.00106671234
0.0009891030613
0.0009594442133
0.0009439897711
0.0009362441172
0.0009330820574
0.0009327394654
0.0009340398024
0.0009365784136
0.0009401330277
0.0009445279341
0.0009495723919
0.0009551236379
0.0009609664054
0.0009669721207
0.0009728314523
0.0009782068855
0.00098288219
0.0009866939482
0.0009895761052
0.0009915791869
0.0009928182099
0.000993455068
0.0009936579828
0.0009935807533
0.0009933473139
0.0009930473856
0.0009927379158
0.0009924466122
0.0009921762839
0.0009919088086
0.0009916087227
0.0009912271725
0.0009907086965
0.000989996877
0.0009890219629
0.0009876934461
0.0009858920486
0.0009849017502
0.0009844879294
0.0009843528259
0.0009843594026
0.0009844490756
0.0009846022345
0.0009848203319
0.000985118968
0.0009855276561
0.0009860944927
0.0009868980826
0.0009880786651
0.0009898961823
0.0009930011593
537.3124119
472.2866637
176.3518649
35.0510169
4.65161063
0.3664672695
0.01826902907
0.001643342975
0.001042094308
0.0009833379534
0.0009579574378
0.0009449024395
0.0009386254195
0.0009364470807
0.000936804935
0.0009386921783
0.0009417620039
0.000945799404
0.0009506124612
0.0009560020058
0.0009618254886
0.0009677753464
0.0009736345126
0.0009791986689
0.0009840950347
0.0009881386016
0.0009912469814
0.0009934125636
0.0009947394605
0.000995375594
0.0009954966896
0.000995271487
0.0009948455463
0.0009943311607
0.0009938057592
0.0009933152136
0.0009928779915
0.0009924896724
0.0009921266627
0.0009917493276
0.0009913053041
0.0009907359877
0.0009899829792
0.0009889751455
0.0009876211281
0.0009858471821
0.0009849111771
0.0009845217409
0.0009843986792
0.0009844127993
0.0009845089082
0.0009846687896
0.0009848944055
0.0009852014701
0.0009856194273
0.0009861961768
0.0009870100977
0.0009882010516
0.0009900284001
0.0009931389764
534.8945718
427.1926249
132.2165891
24.88328698
2.929396394
0.2082363188
0.01020284043
0.001365328871
0.001025845372
0.0009791654496
0.000957552
0.0009466971263
0.0009418163372
0.0009405938657
0.0009416427925
0.0009440943645
0.0009476605456
0.0009521325294
0.0009573111389
0.0009629666875
0.0009689015312
0.0009748260953
0.0009804134311
0.0009855116979
0.0009898012602
0.000993124575
0.0009954849038
0.0009969294078
0.0009976020611
0.0009976723712
0.0009973201115
0.0009967083021
0.0009959708817
0.0009952071904
0.0009944822836
0.0009938314706
0.0009932647019
0.0009927710527
0.0009923221076
0.0009918746284
0.0009913732357
0.0009907565592
0.0009899645056
0.0009889247713
0.0009875429128
0.0009858034311
0.0009849200133
0.0009845544783
0.0009844433962
0.0009844651319
0.0009845678
0.0009847345711
0.0009849679376
0.000985283759
0.0009857114419
0.0009862987104
0.0009871237093
0.0009883257738
0.0009901632514
0.000993277191
534.0927575
371.2384124
96.94044834
16.37849902
1.787141061
0.1158624141
0.005757250715
0.001205444138
0.001014179318
0.0009764453566
0.0009581987919
0.0009493443351
0.0009457770183
0.000945460571
0.00094718347
0.0009502075971
0.0009542567827
0.0009590952535
0.0009645426474
0.0009703532491
0.0009762685493
0.0009819655346
0.0009871681569
0.0009916406477
0.0009952162026
0.000997766938
0.0009993660235
0.001000108861
0.001000165011
0.0009997151975
0.000998935592
0.0009979791723
0.0009969663793
0.0009959832555
0.0009950829522
0.0009942910004
0.0009936096636
0.0009930222573
0.0009924961718
0.0009919850912
0.0009914310668
0.0009907703009
0.0009899412605
0.000988870778
0.0009874586604
0.0009857613257
0.0009849285905
0.0009845863713
0.0009844871654
0.0009845165804
0.0009846259367
0.0009847997743
0.0009850411304
0.0009853660363
0.0009858038887
0.0009864022532
0.0009872390244
0.000988452901
0.0009903006733
0.0009934157469
536.0494288
309.2866033
67.67845438
10.89329459
1.079965989
0.06195386141
0.003284710837
0.001115672229
0.001006171925
0.0009751763179
0.0009599263458
0.0009528832065
0.0009505186959
0.0009510374341
0.0009533904052
0.0009569570792
0.0009614532065
0.0009666182178
0.0009722132052
0.0009780272321
0.0009837630964
0.0009890707178
0.0009937383629
0.0009974690706
0.001000259433
0.001002019808
0.001002871781
0.00100295026
0.001002437944
0.001001518062
0.001000357761
0.0009990973555
0.0009978430924
0.0009966680552
0.0009956143056
0.0009946985174
0.0009939161254
0.000993245407
0.0009926501414
0.0009920814104
0.0009914790956
0.0009907772689
0.0009899131754
0.0009888131894
0.0009873682798
0.0009857212554
0.000984937183
0.0009846176269
0.0009845301646
0.0009845673166
0.0009846834951
0.000984864584
0.0009851141738
0.0009854484902
0.0009858969435
0.0009865069517
0.0009873561383
0.0009885824627
0.0009904405916
0.0009935545742
540.5367814
246.6777053
50.35528784
7.58244549
0.6480242521
0.03173418629
0.002045755245
0.001070107804
0.001001091021
0.000975297909
0.0009627212417
0.000957327823
0.0009560663176
0.0009573585217
0.0009602858613
0.0009643134526
0.0009691601596
0.00097455534
0.0009801976207
0.0009858396423
0.0009912251337
0.0009959926936
0.0009999651658
0.001002909778
0.001004882606
0.001005862335
0.001006002207
0.00100546559
0.001004438308
0.001003099396
0.001001603562
0.001000077213
0.0009986125557
0.0009972704894
0.0009960829837
0.0009950588183
0.0009941874324
0.0009934427374
0.00099278543
0.0009921644114
0.0009915177452
0.000990777632
0.0009898802728
0.0009887520958
0.0009872717057
0.0009856834989
0.0009849460172
0.0009846484309
0.0009845725606
0.0009846175032
0.0009847406425
0.0009849291739
0.0009851872459
0.0009855312963
0.000985990768
0.0009866129385
0.0009874751382
0.0009887144457
0.0009905829133
0.0009936935897
544.848247
188.1551383
40.29049028
5.404936553
0.3824762748
0.01570896493
0.001473411176
0.001047479826
0.0009983290747
0.0009767809376
0.0009665844354
0.0009626812257
0.0009624086618
0.000964395632
0.0009678245784
0.0009722258399
0.0009773046338
0.0009827699047
0.0009883245836
0.0009936308377
0.0009985027652
0.00100259811
0.001005771328
0.001007909111
0.0010090638
0.001009293938
0.001008771121
0.001007675375
0.001006188215
0.001004479839
0.001002690751
0.00100093323
0.0009992861465
0.0009977992357
0.0009964954368
0.0009953765758
0.0009944268737
0.0009936164839
0.0009929034896
0.0009922349813
0.0009915475124
0.0009907716345
0.0009898426411
0.0009886876436
0.0009871688754
0.0009856482493
0.0009849552799
0.0009846789505
0.0009846145088
0.0009846672941
0.0009847975363
0.0009849937067
0.000985260512
0.0009856146164
0.0009860855104
0.0009867203323
0.0009875960977
0.000988848824
0.0009907275281
0.0009938326977
548.6778325
148.5033501
31.12674298
3.706253496
0.2073889752
0.007140682104
0.001213949761
0.001035739244
0.0009975001402
0.0009795668481
0.0009714863152
0.0009688982555
0.0009694952316
0.0009720809995
0.0009759179918
0.0009805797752
0.0009857558427
0.0009911361828
0.0009964100685
0.001001245302
0.001005466228
0.001008791053
0.001011122304
0.001012438369
0.001012801463
0.001012329286
0.001011201677
0.001009605157
0.001007711946
0.001005680584
0.001003636852
0.001001679357
0.0009998746713
0.0009982624803
0.000996857742
0.0009956562076
0.0009946375828
0.0009937688029
0.0009930057487
0.0009922940203
0.0009915689285
0.0009907595663
0.0009898004133
0.0009886200291
0.0009870597008
0.0009856156338
0.0009849651258
0.0009847093361
0.000984656154
0.0009847168334
0.000984854324
0.000985058334
0.000985334125
0.0009856985988
0.0009861813038
0.0009868292368
0.0009877190686
0.0009889855683
0.0009908743117
0.0009939717891
549.9531234
126.6049654
25.14264537
2.447063225
0.09779558868
0.003049388131
0.001113965246
0.001029814412
0.0009983666157
0.0009835699979
0.0009773368552
0.0009758869841
0.0009772351185
0.0009803112366
0.0009844456581
0.0009892368026
0.0009943595339
0.0009994904047
0.001004313106
0.001008548978
0.001012012301
0.00101450445
0.001015980921
0.001016492811
0.001016110313
0.001014993512
0.001013322485
0.001011282691
0.001009034105
0.001006722236
0.001004458461
0.001002328607
0.001000388121
0.0009986677648
0.0009971755002
0.0009959018001
0.0009948224786
0.0009939017245
0.0009930935721
0.0009923424083
0.0009915825331
0.0009907417426
0.0009897537512
0.0009885494983
0.000986944043
0.0009855857304
0.0009849756829
0.0009847397225
0.0009846976304
0.0009847662557
0.0009849111428
0.0009851231957
0.000985408225
0.0009857833778
0.0009862782667
0.0009869397398
0.0009878440854
0.0009891246344
0.0009910231258
0.0009941107412
547.0029084
116.9111922
20.63201308
1.501192756
0.03667162799
0.001545169447
0.001083365639
0.001027135737
0.001000780986
0.0009886532513
0.0009840048882
0.0009835440651
0.0009855189728
0.0009889647515
0.0009932690753
0.0009980427453
0.00100295332
0.001007675916
0.001011910368
0.001015432801
0.001018066906
0.001019700899
0.001020339561
0.001020086692
0.001019016796
0.001017318021
0.001015164631
0.001012735988
0.001010178445
0.001007624138
0.001005170892
0.001002892859
0.00100083557
0.0009990219289
0.0009974537984
0.0009961170797
0.0009949842396
0.0009940171283
0.0009931682395
0.0009923809854
0.0009915888573
0.0009907184908
0.0009897028332
0.0009884763523
0.0009868357466
0.00098555858
0.0009849870572
0.0009847702309
0.0009847390613
0.0009848156855
0.0009849681195
0.0009851884203
0.0009854829392
0.0009858690735
0.0009863765018
0.0009870519125
0.0009879711662
0.0009892659601
0.0009911738173
0.0009942494198
538.8145231
115.3373109
16.73299483
0.8453330646
0.01048567899
0.001199317071
0.001073447709
0.001026771574
0.001004498782
0.0009946636498
0.0009913916574
0.0009917657563
0.0009942303209
0.0009979088776
0.001002237772
0.001006836923
0.001011377897
0.001015549218
0.001019083655
0.001021814424
0.001023586629
0.001024369871
0.001024210693
0.001023247495
0.001021554546
0.001019336977
0.001016759392
0.001013991953
0.001011167101
0.001008403975
0.001005787984
0.001003382779
0.001001225144
0.0009993310974
0.0009976972028
0.0009963054057
0.0009951252953
0.0009941167327
0.0009932309336
0.0009924105406
0.0009915884133
0.0009906901425
0.0009896478467
0.0009884004241
0.0009867347508
0.0009855341964
0.0009849993368
0.0009848009697
0.0009847805596
0.0009848652376
0.00098502537
0.0009852541241
0.0009855583815
0.000985955791
0.0009864760954
0.0009871658083
0.0009881003101
0.0009894094641
0.0009913262178
0.0009943876822
525.2020682
109.5992306
12.82815562
0.4334779468
0.002671542417
0.001157917387
0.001068160656
0.001028093167
0.001009353767
0.001001503457
0.0009993976249
0.001000438319
0.001003237624
0.001006995809
0.001011192404
0.00101546042
0.001019488256
0.001022991467
0.00102574616
0.001027638885
0.001028557671
0.001028523349
0.001027621868
0.001026010537
0.001023760399
0.001021084758
0.001018136721
0.00101507555
0.001012020193
0.001009077617
0.001006322055
0.001003807827
0.001001564041
0.0009996007038
0.0009979097764
0.0009964697801
0.0009952478291
0.0009942020938
0.0009932827357
0.0009924318054
0.0009915816876
0.0009906570275
0.0009895889981
0.0009883215899
0.0009866408189
0.0009855125734
0.0009850125941
0.0009848320351
0.0009848222281
0.0009849150161
0.0009850829993
0.0009853204113
0.0009856346518
0.0009860436202
0.0009865771172
0.0009872814628
0.000988231497
0.000989555046
0.0009914801439
0.000994525377
506.3453035
98.63478989
9.156040236
0.1985064953
0.001659152993
0.001141950137
0.00106532536
0.001030921625
0.001015217719
0.001009052779
0.001007895239
0.001009420669
0.001012386975
0.001016064
0.00101997251
0.001023766565
0.001027163159
0.001029914625
0.001031844652
0.001032891062
0.001032990311
0.00103218921
0.001030609329
0.0010284148
0.001025671418
0.001022594336
0.001019324386
0.00101600939
0.001012755683
0.001009659102
0.001006783955
0.001004176319
0.001001858594
0.0009998355384
0.0009980951134
0.0009966128709
0.0009953537928
0.0009942746122
0.0009933246282
0.0009924454536
0.0009915691394
0.0009906194725
0.0009895265106
0.0009882397495
0.0009865537036
0.0009854936896
0.0009850268888
0.0009848635125
0.000984864159
0.0009849651151
0.0009851411012
0.0009853873737
0.0009857118364
0.0009861326355
0.0009866796192
0.0009873988923
0.0009883646861
0.000989702586
0.0009916353972
0.0009946623449
482.8333139
84.53517102
6.088449353
0.09288592376
0.001409213167
0.00113065763
0.001064611962
0.001035049399
0.001021924455
0.00101715425
0.001016724155
0.001018547389
0.00102151137
0.001024951541
0.001028430816
0.001031633242
0.001034313216
0.001036264869
0.00103735987
0.001037585678
0.001036911503
0.001035405458
0.001033214156
0.001030500374
0.001027323423
0.001023896403
0.001020347581
0.001016813639
0.001013389432
0.001010160755
0.001007183182
0.001004495535
0.001002114354
0.001000039811
0.0009982563851
0.0009967370434
0.0009954449264
0.0009943355454
0.000993357501
0.000992452104
0.0009915512013
0.0009905778012
0.0009894606227
0.0009881548011
0.0009864731551
0.0009854775132
0.0009850422689
0.0009848954768
0.0009849064348
0.0009850156182
0.0009851997582
0.0009854550904
0.000985790007
0.0009862228946
0.0009867836353
0.0009875180933
0.0009884998151
0.0009898519447
0.0009917917642
0.0009947984178
455.0435249
70.56990324
3.931847724
0.04150636534
0.001300156192
0.001122915131
0.001065684418
0.001040236606
0.001029274883
0.00102562319
0.001025704549
0.001027643085
0.001030445066
0.001033509406
0.001036443547
0.001038968837
0.001040881915
0.001042019477
0.001042298764
0.001041750393
0.001040358976
0.001038214784
0.001035478421
0.001032305959
0.001028749726
0.001025018642
0.001021228647
0.001017505971
0.00101393525
0.001010593273
0.001007527974
0.001004771793
0.001002336151
0.001000217201
0.0009983963732
0.0009968443824
0.0009955227728
0.0009943860165
0.0009933821565
0.0009924523222
0.000991528279
0.0009905323346
0.0009893915904
0.0009880666126
0.0009863989247
0.0009854640035
0.0009850587724
0.0009849279926
0.0009849491276
0.0009850665984
0.0009852590409
0.000985523627
0.0009858692203
0.0009863144386
0.0009868891804
0.0009876390416
0.0009886367991
0.0009900029627
0.0009919490165
0.000994933415
422.75004
57.26437663
2.508176705
0.01582527717
0.001249589497
0.001118116676
0.001068232207
0.001046240098
0.00103705866
0.001034266227
0.00103465458
0.001036539433
0.00103903883
0.001041613548
0.001043917855
0.001045714723
0.001046843774
0.001047181885
0.001046687603
0.001045424618
0.001043376144
0.001040660908
0.00103744285
0.001033867388
0.001029980451
0.001025985521
0.001021987116
0.001018101733
0.00101440508
0.001010965897
0.001007825454
0.001005010572
0.001002528187
0.001000370916
0.0009985175181
0.0009969367274
0.000995588702
0.0009944270306
0.0009933993205
0.0009924466281
0.0009915007567
0.0009904833957
0.0009893196961
0.0009879749958
0.0009863307698
0.0009854531136
0.0009850764278
0.0009849611146
0.0009849922994
0.0009851181176
0.000985319008
0.0009855930356
0.0009859495174
0.0009864072905
0.0009869962492
0.0009877616908
0.0009887755299
0.0009901554582
0.0009921069096
0.0009950671447
385.9687256
45.15119724
1.536965171
0.006636716182
0.001223996469
0.001115688864
0.001071948058
0.001052822904
0.001045067093
0.001042894519
0.00104340543
0.001045089338
0.001047171673
0.001049173445
0.001050796106
0.001051845359
0.001052201295
0.001051776548
0.001050565104
0.001048650292
0.00104600861
0.001042786885
0.00103914574
0.00103521719
0.001031042457
0.001026818569
0.001022640009
0.001018614254
0.001014809269
0.001011286633
0.001008081801
0.001005216634
0.001002694129
0.001000503772
0.0009986219678
0.0009970157054
0.0009956439332
0.0009944594889
0.0009934096501
0.0009924354996
0.0009914689969
0.0009904313094
0.0009892452568
0.0009878796698
0.0009862684526
0.0009854447911
0.0009850952549
0.0009849948881
0.0009850360021
0.0009851702267
0.0009853797057
0.0009856633543
0.0009860309235
0.0009865014555
0.0009871048163
0.0009878859724
0.0009889158756
0.0009903092261
0.0009922651811
0.0009951994176
346.1199785
33.97858495
0.8768913379
0.003254621478
0.00120864057
0.001115125837
0.00107651527
0.001059772549
0.001053113515
0.001051335904
0.001051810415
0.001053174799
0.0010547556
0.001056132861
0.00105705314
0.001057362919
0.001056978167
0.001055841835
0.00105397602
0.001051469696
0.001048301648
0.00104463341
0.001040621924
0.001036384323
0.001031959212
0.001027536527
0.001023202031
0.001019055018
0.001015156729
0.001011562385
0.001008302357
0.001005394112
0.001002837168
0.00100061823
0.000998711612
0.0009970827567
0.0009956895535
0.0009944842027
0.0009934137444
0.0009924193798
0.0009914333465
0.0009903764088
0.000989168646
0.0009877802271
0.0009862117432
0.0009854389792
0.0009851152654
0.0009850293486
0.0009850802768
0.0009852229648
0.0009854411668
0.0009857346057
0.000986113446
0.0009865969181
0.0009872148337
0.0009880117931
0.000989057678
0.0009904640381