/*--------------------------------*- C++ -*----------------------------------*\
  =========                 |
  \\      /  F ield         | OpenFOAM: The Open Source CFD Toolbox
   \\    /   O peration     | Website:  https://openfoam.org
    \\  /    A nd           | Version:  12
     \\/     M anipulation  |
\*---------------------------------------------------------------------------*/
FoamFile
{
    format      ascii;
    class       volScalarField;
    location    "250";
    object      nut;
}
// * * * * * * * * * * * * * * * * * * * * * * * * * * * * * * * * * * * * * //

dimensions      [0 2 -1 0 0 0 0];

internalField   nonuniform List<scalar> 
16200
(
0.0004993903083
0.00168505633
0.002806802444
0.003690391427
0.003998289213
0.003554303807
0.002623998374
0.001440996313
0.0007129097806
0.0002888152821
8.877060977e-06
2.872974966e-06
2.57155678e-06
2.404048743e-06
1.89085041e-06
1.611750062e-06
1.392818402e-06
1.245806906e-06
1.158245168e-06
1.108005706e-06
1.085022578e-06
1.084415527e-06
1.101722739e-06
1.134544308e-06
1.182710067e-06
1.248205266e-06
1.335340613e-06
1.451518343e-06
1.608608825e-06
1.825679947e-06
2.134175778e-06
2.588395631e-06
3.286902956e-06
4.417401711e-06
6.356535585e-06
9.895184438e-06
1.675446964e-05
3.074783028e-05
6.045187119e-05
0.0001253369195
0.0002701829516
0.0005988066635
0.001002537837
0.001002167298
0.001001328956
0.0009999717329
0.0009991547
0.000998813714
0.0009986794604
0.000998633055
0.0009986234551
0.0009986298359
0.0009986447518
0.0009986670267
0.0009986984316
0.0009987436475
0.0009988085888
0.0009989057493
0.0009990491553
0.0009992777566
0.000491852261
0.001649133185
0.002718284268
0.003510102159
0.003655168842
0.003086713959
0.002163757141
0.001064532152
0.0005788510065
6.097895753e-05
3.066573404e-06
2.41272558e-06
2.171007628e-06
2.120935991e-06
1.681874259e-06
1.430254083e-06
1.233582788e-06
1.10206657e-06
1.026283848e-06
9.845564839e-07
9.673612644e-07
9.698744987e-07
9.88083553e-07
1.019885657e-06
1.065341644e-06
1.126532638e-06
1.207724991e-06
1.316107601e-06
1.463059922e-06
1.66650601e-06
1.955419999e-06
2.379133762e-06
3.026769544e-06
4.068217059e-06
5.844166802e-06
9.069820549e-06
1.52990309e-05
2.797382677e-05
5.482383578e-05
0.0001133815868
0.0002439188188
0.0005397104461
0.001002420525
0.00100209041
0.001001303124
0.00100000565
0.000999173325
0.0009988252855
0.0009986882809
0.0009986411741
0.0009986317469
0.0009986385789
0.0009986539509
0.0009986765179
0.0009987080113
0.0009987529338
0.0009988173992
0.0009989138352
0.0009990572403
0.0009992893979
0.0004852175558
0.00161423323
0.002630166826
0.003327056443
0.003308999291
0.002637568393
0.001727917022
0.000787680347
0.0004143322337
1.675240811e-05
2.285447034e-06
2.025683602e-06
1.829058544e-06
1.781625741e-06
1.483167682e-06
1.258681826e-06
1.084336479e-06
9.682423203e-07
9.037028371e-07
8.698043456e-07
8.576471081e-07
8.625202704e-07
8.808460047e-07
9.108287134e-07
9.527588956e-07
1.008867167e-06
1.083507026e-06
1.183852222e-06
1.321012556e-06
1.512067527e-06
1.784004495e-06
2.181986996e-06
2.787035028e-06
3.753576092e-06
5.391496341e-06
8.351079332e-06
1.404197531e-05
2.558185729e-05
4.99484269e-05
0.0001029298503
0.0002206600591
0.0004866342268
0.001002325955
0.001002024593
0.001001272331
0.001000032764
0.0009991909552
0.000998837668
0.0009986981808
0.0009986501469
0.00099864057
0.0009986475728
0.0009986632009
0.0009986859373
0.0009987174707
0.0009987621523
0.0009988261883
0.0009989220184
0.0009990653356
0.000999300523
0.0004803591936
0.001581015061
0.002540419942
0.003117213643
0.002950725223
0.002217018824
0.001248148448
0.0005796734086
0.0002274801611
7.421540024e-06
1.898173898e-06
1.714241792e-06
1.553922478e-06
1.509391643e-06
1.308804556e-06
1.10799863e-06
9.53390781e-07
8.512259725e-07
7.96622619e-07
7.696066796e-07
7.617614857e-07
7.684998297e-07
7.866538987e-07
8.148082624e-07
8.535810144e-07
9.054758745e-07
9.750556755e-07
1.069585065e-06
1.200035508e-06
1.382908731e-06
1.643783818e-06
2.024820056e-06
2.601132175e-06
3.515969079e-06
5.057533782e-06
7.831028627e-06
1.314753245e-05
2.390361436e-05
4.656953245e-05
9.575803188e-05
0.0002048315869
0.000450744507
0.001002244413
0.001001964275
0.001001237683
0.001000045285
0.0009992030041
0.0009988480859
0.0009987074556
0.0009986589079
0.0009986492487
0.0009986563922
0.0009986722419
0.0009986951487
0.0009987267496
0.0009987712656
0.0009988349743
0.0009989303284
0.0009990736227
0.0009993116629
0.0004757626037
0.001548707069
0.002449034814
0.002886583618
0.002587839507
0.001844205105
0.0008901421209
0.0004533110954
7.077140132e-05
2.441888971e-06
1.599856183e-06
1.452924777e-06
1.322867528e-06
1.28236356e-06
1.150696699e-06
9.721948356e-07
8.361718621e-07
7.472248515e-07
7.016893173e-07
6.806699751e-07
6.762712618e-07
6.84167958e-07
7.017035483e-07
7.279661861e-07
7.639817592e-07
8.125605466e-07
8.784641174e-07
9.690268249e-07
1.095102059e-06
1.27272854e-06
1.526379168e-06
1.895844507e-06
2.45150446e-06
3.327611663e-06
4.795145027e-06
7.423802818e-06
1.244720418e-05
2.258656857e-05
4.390799534e-05
9.007884651e-05
0.0001922238017
0.0004219749566
0.0009456052742
0.001001911185
0.001001201816
0.001000047927
0.0009992116753
0.0009988576259
0.0009987166774
0.0009986677859
0.0009986579908
0.0009986651786
0.0009986811679
0.0009987042099
0.0009987358848
0.0009987803019
0.0009988437674
0.0009989387665
0.000999082078
0.0009993227214
0.000470882563
0.001516212009
0.002354711521
0.0026491926
0.002227018955
0.00149606003
0.0006617747607
0.0003301756549
2.03461871e-05
1.68452304e-06
1.356789711e-06
1.236421917e-06
1.131053354e-06
1.094513326e-06
1.009897323e-06
8.513799595e-07
7.319678554e-07
6.548798416e-07
6.171190516e-07
6.009813511e-07
5.992026271e-07
6.07877253e-07
6.248939376e-07
6.498175315e-07
6.840182993e-07
7.305735322e-07
7.944369978e-07
8.830257363e-07
1.007132204e-06
1.182497415e-06
1.432845019e-06
1.796289943e-06
2.339737027e-06
3.19078886e-06
4.607958668e-06
7.135782487e-06
1.195323404e-05
2.165700134e-05
4.202397932e-05
8.603819162e-05
0.0001831947439
0.0004012161903
0.0008969523902
0.001001864025
0.001001164808
0.001000040339
0.000999216518
0.0009988659229
0.000998725586
0.000998676607
0.0009986666885
0.000998673867
0.0009986899464
0.0009987131075
0.0009987448737
0.0009987892583
0.0009988525735
0.0009989473381
0.0009990907278
0.0009993337656
0.0004653912941
0.001482563318
0.002255374866
0.002398121595
0.001877765396
0.001094194494
0.0004931283844
0.0002065637134
8.503239212e-06
1.378651455e-06
1.152853132e-06
1.052610826e-06
9.669393293e-07
9.340254137e-07
8.807693857e-07
7.407674425e-07
6.367854091e-07
5.709333947e-07
5.403904384e-07
5.287774507e-07
5.29507128e-07
5.391546999e-07
5.561354116e-07
5.804423649e-07
6.13744803e-07
6.593236868e-07
7.224876588e-07
8.107026848e-07
9.347227057e-07
1.110079567e-06
1.360330787e-06
1.721978688e-06
2.259588892e-06
3.09584714e-06
4.480267966e-06
6.939747381e-06
1.161509269e-05
2.101492772e-05
4.070849415e-05
8.318140614e-05
0.000176725031
0.0003861376486
0.0008611503236
0.001001822034
0.00100112718
0.001000024366
0.0009992181713
0.0009988731717
0.0009987342292
0.0009986853804
0.0009986753471
0.0009986824682
0.0009986985934
0.0009987218589
0.0009987537352
0.0009987981504
0.0009988614045
0.0009989560509
0.0009990995803
0.0009993448001
0.0004588001287
0.001446424712
0.002148325528
0.002130478669
0.00155595955
0.0007864360581
0.0003792676409
9.796496775e-05
2.98105604e-06
1.154687483e-06
9.779813931e-07
8.93821116e-07
8.239831723e-07
7.947954641e-07
7.618029151e-07
6.396145011e-07
5.505224292e-07
4.957429761e-07
4.722618144e-07
4.650825652e-07
4.682824523e-07
4.789419264e-07
4.960508368e-07
5.201123818e-07
5.530931392e-07
5.987063584e-07
6.622876879e-07
7.514878513e-07
8.770616049e-07
1.054453373e-06
1.306633964e-06
1.670408612e-06
2.207722722e-06
3.038149655e-06
4.405242162e-06
6.824839018e-06
1.141402704e-05
2.062538855e-05
3.989200001e-05
8.136335842e-05
0.0001724997455
0.0003760383319
0.0008366060925
0.001001784031
0.001001088945
0.00100000123
0.0009992169624
0.000998879398
0.0009987425546
0.0009986940519
0.000998683931
0.0009986909659
0.0009987071075
0.0009987304717
0.0009987624816
0.0009988069893
0.0009988702718
0.0009989649128
0.0009991086475
0.0009993558447
0.0004508888487
0.001405599093
0.002019515428
0.001856616141
0.001259169991
0.0005809185903
0.0002937180128
4.035359939e-05
1.565973192e-06
9.736606709e-07
8.324489335e-07
7.613487842e-07
7.041349805e-07
6.78612101e-07
6.576062754e-07
5.515122686e-07
4.758603447e-07
4.311335319e-07
4.138490126e-07
4.104151273e-07
4.156121302e-07
4.270356795e-07
4.441635326e-07
4.682096635e-07
5.015171259e-07
5.478935109e-07
6.128494661e-07
7.041238543e-07
8.325228495e-07
1.013510769e-06
1.270043131e-06
1.638540552e-06
2.180081403e-06
3.012012899e-06
4.374422691e-06
6.777496633e-06
1.132646094e-05
2.044406267e-05
3.948553259e-05
8.039631528e-05
0.0001701080305
0.0003699961625
0.0008212120095
0.001001748905
0.001001050003
0.0009999724329
0.0009992133748
0.0009988847118
0.0009987505556
0.0009987025927
0.0009986924194
0.0009986993528
0.0009987154933
0.0009987389573
0.000998771128
0.0009988157889
0.000998879187
0.0009989739318
0.0009991179367
0.0009993669101
0.0004412424433
0.001358973467
0.001856902179
0.001581049438
0.0009427928535
0.000433517066
0.0002100744297
1.957461611e-05
1.157836979e-06
8.256287806e-07
7.1247329e-07
6.524370536e-07
6.05552198e-07
5.836092832e-07
5.689434967e-07
4.768448457e-07
4.127567012e-07
3.765575253e-07
3.641314697e-07
3.633958329e-07
3.699867837e-07
3.819836184e-07
3.995362297e-07
4.239823218e-07
4.58131388e-07
5.06012894e-07
5.731748391e-07
6.674022313e-07
7.996310672e-07
9.854798603e-07
1.248066896e-06
1.623767879e-06
2.173349495e-06
3.013005869e-06
4.381513015e-06
6.788063799e-06
1.13362492e-05
2.044153507e-05
3.943141359e-05
8.016054533e-05
0.0001692907115
0.0003674334817
0.0008136536076
0.001001715593
0.001001010094
0.0009999393148
0.0009992078426
0.0009988892094
0.0009987582215
0.0009987109723
0.0009987007897
0.0009987076203
0.0009987237537
0.0009987473263
0.0009987796889
0.0009988245629
0.0009988881613
0.000998983116
0.0009991274523
0.0009993780059
0.000429526614
0.001306310964
0.001677539584
0.001315365577
0.0006761397534
0.0003292915883
0.000137493222
1.266780114e-05
9.376841817e-07
6.997324355e-07
6.097417113e-07
5.587519645e-07
5.204445463e-07
5.019185511e-07
4.903889633e-07
4.113762384e-07
3.57971498e-07
3.295259935e-07
3.212480808e-07
3.226038547e-07
3.301034344e-07
3.428937358e-07
3.612144673e-07
3.86662747e-07
4.222486535e-07
4.722253682e-07
5.422291003e-07
6.400894474e-07
7.76929049e-07
9.686542677e-07
1.238698175e-06
1.623666603e-06
2.18447918e-06
3.037098876e-06
4.420853496e-06
6.84797702e-06
1.142926367e-05
2.059234357e-05
3.968009525e-05
8.055367341e-05
0.0001698268766
0.0003678587774
0.0008128137631
0.001001683173
0.001000968894
0.0009999031217
0.0009992007913
0.0009988929985
0.0009987655544
0.0009987191695
0.0009987090256
0.0009987157631
0.0009987318937
0.0009987555904
0.0009987881792
0.0009988333254
0.0009988972064
0.000998992474
0.0009991371971
0.0009993891385
0.0004159446184
0.001246867701
0.001490447625
0.00106286489
0.0004987166393
0.0002552035076
6.780217806e-05
6.482542755e-06
7.601372643e-07
5.926886206e-07
5.202578211e-07
4.763862471e-07
4.44650395e-07
4.289383426e-07
4.183342432e-07
3.517796962e-07
3.087565011e-07
2.87954184e-07
2.838582678e-07
2.87264012e-07
2.959149667e-07
3.093966331e-07
3.287190808e-07
3.556758384e-07
3.932120765e-07
4.45698176e-07
5.189730818e-07
6.209836243e-07
7.630539064e-07
9.614777807e-07
1.240143841e-06
1.636111502e-06
2.210850552e-06
3.080901976e-06
4.487796573e-06
6.950387841e-06
1.15944931e-05
2.087707154e-05
4.019439996e-05
8.149971219e-05
0.0001715536439
0.0003709109414
0.0008178731574
0.001001650873
0.001000926043
0.0009998649288
0.0009991926009
0.0009988961826
0.0009987725621
0.0009987271691
0.0009987171145
0.0009987237782
0.0009987399193
0.0009987637615
0.0009987966138
0.0009988420907
0.0009989063352
0.0009990020151
0.0009991471721
0.0009994003123
0.0004006381728
0.001179153288
0.001297316369
0.0008005502288
0.0003757922176
0.0001939706139
3.109671975e-05
3.05725622e-06
6.166964313e-07
5.014804031e-07
4.425884435e-07
4.052203737e-07
3.78874048e-07
3.657608403e-07
3.547858282e-07
2.994937221e-07
2.658566383e-07
2.517807212e-07
2.513174353e-07
2.569108026e-07
2.669195324e-07
2.812958147e-07
3.017292812e-07
3.304182201e-07
3.702528753e-07
4.255636091e-07
5.024035474e-07
6.089556582e-07
7.567596799e-07
9.625506832e-07
1.250806444e-06
1.659228189e-06
2.250178004e-06
3.141495724e-06
4.578402419e-06
7.089598529e-06
1.182295263e-05
2.128014304e-05
4.094488371e-05
8.293899807e-05
0.0001743438078
0.0003763087677
0.0008281945952
0.001001618081
0.001000881194
0.0009998256435
0.0009991836063
0.0009988988608
0.0009987792586
0.0009987349629
0.0009987250492
0.0009987316658
0.0009987478378
0.0009987718522
0.0009988050078
0.0009988508728
0.0009989155595
0.0009990117439
0.0009991573768
0.0009994115303
0.0003837451477
0.001101660816
0.001100898444
0.0005885053997
0.0002938042482
0.0001443672079
1.819997542e-05
1.662403523e-06
5.062795116e-07
4.2493757e-07
3.776337715e-07
3.459253002e-07
3.24088567e-07
3.133118945e-07
3.013526464e-07
2.558926165e-07
2.302626252e-07
2.215480761e-07
2.235306374e-07
2.309048912e-07
2.422541781e-07
2.579591086e-07
2.797670907e-07
3.102491662e-07
3.525489265e-07
4.109566574e-07
4.916020148e-07
6.029845631e-07
7.569281099e-07
9.706316917e-07
1.269330114e-06
1.691384505e-06
2.300496082e-06
3.216407314e-06
4.689395769e-06
7.260977162e-06
1.210750937e-05
2.178945564e-05
4.190904668e-05
8.482645462e-05
0.0001781019228
0.0003838419695
0.0008433021239
0.001001584328
0.001000834025
0.0009997860035
0.0009991740916
0.0009989011238
0.0009987856618
0.0009987425483
0.0009987328267
0.0009987394284
0.000998755658
0.0009987798754
0.0009988133759
0.0009988596858
0.0009989248896
0.0009990216554
0.0009991678094
0.0009994227948
0.000366120256
0.001016872942
0.0008940271699
0.0004431395212
0.0002339324461
0.0001023633654
1.262476044e-05
9.643267442e-07
4.204636739e-07
3.608155338e-07
3.235048291e-07
2.96457589e-07
2.781219352e-07
2.692677775e-07
2.561362363e-07
2.19396504e-07
2.007458052e-07
1.964710649e-07
2.005158921e-07
2.090316177e-07
2.214420799e-07
2.38606312e-07
2.621023735e-07
2.945363912e-07
3.393901056e-07
4.010926241e-07
4.85750391e-07
6.021666575e-07
7.62565513e-07
9.846275289e-07
1.294374334e-06
1.731165422e-06
2.360119575e-06
3.303545114e-06
4.818053956e-06
7.46075572e-06
1.244249872e-05
2.239561474e-05
4.306974078e-05
8.712816575e-05
0.0001827567311
0.0003933541148
0.0008628419699
0.001001549273
0.001000784263
0.0009997465923
0.0009991642928
0.0009989030531
0.000998791793
0.0009987499279
0.000998740448
0.0009987470712
0.0009987633898
0.0009987878442
0.0009988217327
0.0009988685432
0.0009989343355
0.0009990317379
0.0009991784665
0.0009994341067
0.0003488878495
0.0009245806655
0.0007177750184
0.0003538735772
0.0001941938571
5.650125754e-05
7.170427607e-06
6.058157805e-07
3.500112781e-07
3.049790982e-07
2.751355228e-07
2.529871306e-07
2.378257578e-07
2.309467137e-07
2.172022062e-07
1.885790853e-07
1.761442362e-07
1.75344081e-07
1.812249421e-07
1.90806527e-07
2.042503013e-07
2.227848036e-07
2.480350665e-07
2.827042136e-07
3.302220026e-07
3.952906675e-07
4.841066198e-07
6.056991733e-07
7.727908627e-07
1.003577668e-06
1.324933788e-06
1.777351274e-06
2.427613603e-06
3.401154272e-06
4.962135796e-06
7.685906964e-06
1.282349623e-05
2.309148574e-05
4.441424848e-05
8.981940517e-05
0.0001882568202
0.0004047328537
0.0008865602239
0.00100151268
0.001000731683
0.0009997078573
0.0009991544016
0.0009989047212
0.0009987976749
0.0009987571082
0.0009987479176
0.0009987546013
0.0009987710436
0.000998795772
0.0009988300924
0.000998877458
0.0009989439068
0.0009990419888
0.0009991893428
0.0009994454642
0.0003347715451
0.000823930799
0.0005757004838
0.0002973535644
0.0001624033805
3.031175388e-05
3.363466319e-06
4.249993614e-07
2.924659867e-07
2.572311317e-07
2.332689018e-07
2.152803697e-07
2.030390916e-07
1.979349323e-07
1.840709822e-07
1.628342743e-07
1.558131064e-07
1.579498931e-07
1.65094014e-07
1.756558436e-07
1.902431137e-07
2.10162939e-07
2.37220053e-07
2.742618193e-07
3.24537392e-07
3.929463722e-07
4.859924371e-07
6.128707305e-07
7.868328171e-07
1.026651013e-06
1.360086362e-06
1.828902091e-06
2.50176936e-06
3.507778406e-06
5.119818703e-06
7.9340358e-06
1.324711863e-05
2.387180849e-05
4.593349723e-05
9.288296852e-05
0.0001945669663
0.0004179017037
0.0009142841988
0.001001474396
0.001000676108
0.0009996701314
0.000999144571
0.000998906191
0.0009988033314
0.0009987640991
0.0009987552425
0.0009987620275
0.000998778631
0.0009988036719
0.0009988384688
0.0009988864428
0.0009989536123
0.0009990524243
0.0009992004326
0.0009994568628
0.0003267101755
0.0007184699193
0.0004716303146
0.0002463054712
0.0001304279839
1.793048995e-05
1.614284039e-06
3.18198371e-07
2.46116867e-07
2.178824578e-07
1.983843593e-07
1.835430876e-07
1.738184162e-07
1.700916677e-07
1.564812332e-07
1.416630764e-07
1.388912176e-07
1.434758274e-07
1.517327809e-07
1.632604229e-07
1.790253092e-07
2.003968472e-07
2.294291242e-07
2.68725238e-07
3.217812943e-07
3.935011504e-07
4.90797357e-07
6.230515973e-07
8.040204852e-07
1.053116685e-06
1.399043645e-06
1.884938436e-06
2.581578242e-06
3.62222243e-06
5.289641577e-06
8.203284967e-06
1.371085633e-05
2.473287859e-05
4.762141767e-05
9.630781874e-05
0.0002016651779
0.0004328134482
0.000945907507
0.001001434338
0.001000617403
0.0009996336534
0.0009991349204
0.0009989075174
0.0009988087864
0.0009987709126
0.000998762432
0.0009987693598
0.0009987861636
0.0009988115569
0.0009988468751
0.000998895509
0.0009989634585
0.0009990630675
0.000999211733
0.0009994682969
0.0003275061133
0.0006133850855
0.0003790843731
0.0002088987285
0.0001011271231
1.182132696e-05
7.822712077e-07
2.496181067e-07
2.074901136e-07
1.846088583e-07
1.686646375e-07
1.564831595e-07
1.489621603e-07
1.465123693e-07
1.338312165e-07
1.24602837e-07
1.252895163e-07
1.31466398e-07
1.4074177e-07
1.533178451e-07
1.702913781e-07
1.931853585e-07
2.241831759e-07
2.655949731e-07
3.214099741e-07
3.964562847e-07
4.979985491e-07
6.356967895e-07
8.237785748e-07
1.08236539e-06
1.441140993e-06
1.944726557e-06
2.666209693e-06
3.743519886e-06
5.470455508e-06
8.492257235e-06
1.421294219e-05
2.567230998e-05
4.947448438e-05
0.0001000881479
0.0002095406877
0.0004494456825
0.0009813791485
0.001001392471
0.001000555465
0.0009995985869
0.0009991255419
0.0009989087472
0.0009988140636
0.0009987775625
0.0009987694968
0.0009987766091
0.0009987936532
0.0009988194396
0.0009988553235
0.000998904667
0.0009989734518
0.000999073925
0.0009992232419
0.0009994797601
0.0003385374086
0.0005149755449
0.0003171195786
0.0001846800358
5.770655237e-05
7.05444766e-06
4.128209913e-07
2.019523719e-07
1.746577917e-07
1.56127193e-07
1.431959689e-07
1.334378403e-07
1.278764573e-07
1.266365913e-07
1.155575733e-07
1.110878076e-07
1.143649236e-07
1.216600256e-07
1.318458908e-07
1.454728304e-07
1.636838793e-07
1.881025034e-07
2.208955421e-07
2.644580155e-07
3.229758536e-07
4.013755756e-07
5.071505022e-07
6.503363006e-07
8.456178421e-07
1.113878405e-06
1.485824986e-06
2.007663767e-06
2.754992424e-06
3.870906796e-06
5.66138457e-06
8.799951616e-06
1.475223918e-05
2.668882139e-05
5.149128388e-05
0.000104222458
0.0002181919385
0.000467796288
0.001002003292
0.001001348804
0.001000490208
0.000999565037
0.0009991165049
0.0009989099208
0.0009988191861
0.0009987840634
0.0009987764486
0.0009987837865
0.0009988011115
0.0009988273322
0.0009988638257
0.0009989139264
0.0009989836006
0.0009990849869
0.0009992349536
0.0009994912455
0.0003579441051
0.0004755862976
0.0002799412218
0.0001667286512
3.04242923e-05
2.885841498e-06
2.523893959e-07
1.668690768e-07
1.474449112e-07
1.323749354e-07
1.219181738e-07
1.143276491e-07
1.103412554e-07
1.101683217e-07
1.011787606e-07
1.004353189e-07
1.055921101e-07
1.137571358e-07
1.247819732e-07
1.3940337e-07
1.588466283e-07
1.847326486e-07
2.192203157e-07
2.649910771e-07
3.26142843e-07
4.078843928e-07
5.178737107e-07
6.66572014e-07
8.69128075e-07
1.147226668e-06
1.532643893e-06
2.073265297e-06
2.847396382e-06
4.003796899e-06
5.861790963e-06
9.125711436e-06
1.532815693e-05
2.778209043e-05
5.367223843e-05
0.000108713005
0.0002276253964
0.0004878808049
0.001001974312
0.001001303381
0.001000421552
0.0009995330639
0.0009991078607
0.0009989110725
0.0009988241757
0.0009987904305
0.0009987832995
0.0009987909035
0.0009988085501
0.0009988352461
0.0009988723922
0.0009989232957
0.0009989939129
0.0009990962427
0.0009992468595
0.0009995027449
0.0003813458018
0.0004179263041
0.0002498839867
0.0001471772126
1.638639757e-05
1.099809278e-06
1.774639413e-07
1.399142656e-07
1.251923162e-07
1.128439905e-07
1.044257864e-07
9.860883321e-08
9.588940918e-08
9.616860249e-08
9.008136767e-08
9.21990497e-08
9.852818964e-08
1.074320217e-07
1.192498325e-07
1.348445474e-07
1.554856094e-07
1.827954347e-07
2.189663162e-07
2.668864536e-07
3.306172004e-07
4.156580181e-07
5.298421699e-07
6.840680845e-07
8.939665968e-07
1.182055406e-06
1.581228095e-06
2.141139377e-06
2.943000731e-06
4.141739749e-06
6.071218051e-06
9.469142535e-06
1.594052518e-05
2.895254165e-05
5.601922327e-05
0.0001135650613
0.0002378540644
0.0005097293415
0.001001942837
0.001001256276
0.001000349407
0.0009995026943
0.0009990996466
0.0009989122317
0.0009988290533
0.0009987966788
0.0009987900621
0.0009987979716
0.00099881598
0.0009988431918
0.0009988810326
0.0009989327825
0.000999004392
0.0009991076881
0.0009992589506
0.0009995142482
0.0004089785254
0.0003813663491
0.0002353846055
0.0001254375724
9.583787465e-06
3.970683939e-07
1.390224154e-07
1.183578241e-07
1.067475998e-07
9.670089489e-08
8.996100028e-08
8.553594755e-08
8.397079162e-08
8.378505403e-08
8.159898229e-08
8.57063137e-08
9.284123639e-08
1.02418951e-07
1.150103803e-07
1.31570601e-07
1.533647115e-07
1.820555459e-07
2.19883013e-07
2.698673699e-07
3.361268159e-07
4.24422037e-07
5.427822912e-07
7.025474521e-07
9.198544551e-07
1.218080124e-06
1.631286003e-06
2.21098284e-06
3.041488812e-06
4.284414142e-06
6.289380224e-06
9.830095869e-06
1.658956085e-05
3.020127865e-05
5.85354179e-05
0.0001187865753
0.0002488966858
0.000533384722
0.00100190893
0.001001207594
0.001000273654
0.0009994739301
0.0009990918881
0.0009989134232
0.000998833838
0.0009988028234
0.0009987967487
0.0009988050018
0.0009988234116
0.0009988511793
0.0009988897555
0.0009989423931
0.0009990150393
0.0009991193187
0.0009992712167
0.0009995257434
0.0004380813519
0.0003660004164
0.0002301930019
8.24294226e-05
4.124875814e-06
1.711925538e-07
1.153893346e-07
1.006043715e-07
9.140618638e-08
8.320346952e-08
7.777323514e-08
7.464921954e-08
7.418201379e-08
7.426343988e-08
7.512480454e-08
8.051297311e-08
8.82954788e-08
9.85183568e-08
1.11877726e-07
1.293759892e-07
1.522665798e-07
1.822873572e-07
2.217196854e-07
2.737008716e-07
3.424408282e-07
4.339501513e-07
5.564706979e-07
7.217876e-07
9.465715904e-07
1.255081376e-06
1.682598244e-06
2.282574309e-06
3.142639786e-06
4.43161696e-06
6.516146436e-06
1.020864104e-05
1.727582155e-05
3.15299943e-05
6.122511877e-05
0.0001243877634
0.0002607768293
0.000558900374
0.001001872663
0.001001157475
0.001000202118
0.0009994467556
0.0009990846022
0.0009989146679
0.0009988385478
0.0009988088785
0.000998803371
0.0009988120045
0.0009988308545
0.0009988592174
0.000998898568
0.0009989521325
0.0009990258555
0.0009991311283
0.0009992836467
0.0009995372168
0.0004796998627
0.0003666222312
0.00023011762
3.900835062e-05
1.006479176e-06
1.134839747e-07
9.773718857e-08
8.616105164e-08
7.848859613e-08
7.178247905e-08
6.758286227e-08
6.569532277e-08
6.626399539e-08
6.711859761e-08
7.015522313e-08
7.637452008e-08
8.471546216e-08
9.556306637e-08
1.096719954e-07
1.28063346e-07
1.519912859e-07
1.832893507e-07
2.242768455e-07
2.781937931e-07
3.493693123e-07
4.440550841e-07
5.707235318e-07
7.416072623e-07
9.739394323e-07
1.292882749e-06
1.734990097e-06
2.355740295e-06
3.246286704e-06
4.583210761e-06
6.751473004e-06
1.060497534e-05
1.800007353e-05
3.294076442e-05
6.409339574e-05
0.000130380503
0.0002735217604
0.0005863381199
0.001001834117
0.001001105795
0.00100013473
0.0009994211429
0.0009990777993
0.0009989159838
0.0009988431991
0.0009988148576
0.0009988099405
0.0009988189898
0.0009988383177
0.0009988673138
0.0009989074763
0.0009989620041
0.0009990368396
0.0009991431089
0.0009992962279
0.0009995486546
0.0005244867408
0.000363497512
0.0002256361728
1.821328916e-05
2.234374935e-07
9.386138995e-08
8.354214039e-08
7.408712399e-08
6.76586319e-08
6.225137196e-08
5.92141526e-08
5.84833564e-08
5.998734856e-08
6.184878171e-08
6.630032158e-08
7.309667454e-08
8.194827428e-08
9.339341611e-08
1.082174811e-07
1.274440971e-07
1.523676849e-07
1.84888294e-07
2.273852913e-07
2.831845864e-07
3.567572235e-07
4.545832124e-07
5.853917225e-07
7.618629663e-07
1.001818136e-06
1.331348326e-06
1.788329211e-06
2.430353324e-06
3.352314381e-06
4.739120188e-06
6.995397031e-06
1.101941019e-05
1.876326265e-05
3.44359839e-05
6.714594586e-05
0.0001367779925
0.0002871616454
0.0006157663215
0.001001793386
0.001001052458
0.001000071328
0.0009993970554
0.000999071484
0.0009989173854
0.0009988478066
0.0009988207734
0.0009988164677
0.0009988259665
0.000998845809
0.0009988754751
0.0009989164849
0.0009989720102
0.0009990479891
0.0009991552513
0.0009993089469
0.0009995600425
0.0005667465371
0.0003547883726
0.0002127236159
9.313611808e-06
1.221911872e-07
7.994511616e-08
7.185986939e-08
6.409795687e-08
5.869321991e-08
5.44196437e-08
5.2476561e-08
5.279257196e-08
5.509626965e-08
5.79607189e-08
6.328020484e-08
7.052734242e-08
7.985503404e-08
9.186472043e-08
1.073598202e-07
1.273657408e-07
1.532527427e-07
1.869452596e-07
2.309074998e-07
2.88540841e-07
3.644782702e-07
4.654159428e-07
6.003630054e-07
7.824516177e-07
1.030111829e-06
1.370390334e-06
1.842536838e-06
2.506346712e-06
3.460678616e-06
4.899356338e-06
7.248066138e-06
1.145240741e-05
1.956655784e-05
3.601841316e-05
7.038912483e-05
0.0001435947079
0.0003017292708
0.0006472589221
0.001001750573
0.001000997382
0.001000011745
0.000999374451
0.0009990656571
0.000998918885
0.0009988523835
0.0009988266374
0.0009988229622
0.0009988329428
0.0009988533351
0.0009988837068
0.0009989255971
0.0009989821514
0.0009990592997
0.0009991675446
0.0009993217886
0.0009995713659
0.0005899788403
0.0003439049547
0.0001890153116
5.67700563e-06
9.137708532e-08
6.882595023e-08
6.227197185e-08
5.583322525e-08
5.129052745e-08
4.80496105e-08
4.714062129e-08
4.836715332e-08
5.132226448e-08
5.504183988e-08
6.090457993e-08
6.85408649e-08
7.831335591e-08
9.08519697e-08
1.06972362e-07
1.277137174e-07
1.545265875e-07
1.893486029e-07
2.347295427e-07
2.94154441e-07
3.724265278e-07
4.764577003e-07
6.155462245e-07
8.032883507e-07
1.058741585e-06
1.409935732e-06
1.897547133e-06
2.583664274e-06
3.571344387e-06
5.063939661e-06
7.509638401e-06
1.190444165e-05
2.041114792e-05
3.769085561e-05
7.382940085e-05
0.0001508454327
0.000317258245
0.0006808920265
0.001001705794
0.001000940486
0.0009999558135
0.0009993532843
0.0009990603159
0.0009989204925
0.0009988569416
0.00099883246
0.0009988294327
0.0009988399259
0.0009988609018
0.0009988920129
0.0009989348146
0.0009989924268
0.000999070765
0.000999179977
0.0009993347369
0.0009995826083
0.0005776903303
0.0003386319614
0.0001571775988
2.209626016e-06
7.421597571e-08
5.975123033e-08
5.434913072e-08
4.896093735e-08
4.517799458e-08
4.291891039e-08
4.297036829e-08
4.495074767e-08
4.841590592e-08
5.279735696e-08
5.903881043e-08
6.702836083e-08
7.721571477e-08
9.024830714e-08
1.069530587e-07
1.283976083e-07
1.560923733e-07
1.920087027e-07
2.387635929e-07
2.999457258e-07
3.805256975e-07
4.876412678e-07
6.308808499e-07
8.243178119e-07
1.087659434e-06
1.449943599e-06
1.953327864e-06
2.662285592e-06
3.684315609e-06
5.232934459e-06
7.780322508e-06
1.237604696e-05
2.129829354e-05
3.945620812e-05
7.747337659e-05
0.0001585451663
0.0003337825708
0.0007167425522
0.001001659176
0.001000881677
0.0009999033713
0.0009993335077
0.0009990554553
0.0009989222158
0.0009988614911
0.0009988382505
0.000998835887
0.0009988469217
0.0009988685136
0.000998900396
0.0009989441376
0.0009990028337
0.0009990823766
0.0009991925355
0.0009993477744
0.0009995937498
0.0005615083862
0.0003363142232
8.466095622e-05
7.448414902e-07
6.27326462e-08
5.230594206e-08
4.779946372e-08
4.326579481e-08
4.017660106e-08
3.885208802e-08
3.974734254e-08
4.231768622e-08
4.611462025e-08
5.104148818e-08
5.758405877e-08
6.589926352e-08
7.647263252e-08
8.996668725e-08
1.072222807e-07
1.2934684e-07
1.578722065e-07
1.948502431e-07
2.429393052e-07
3.058504337e-07
3.887169768e-07
4.989101089e-07
6.463164801e-07
8.454923556e-07
1.116822009e-06
1.490374603e-06
2.009844505e-06
2.742183881e-06
3.799584927e-06
5.406387275e-06
8.060297705e-06
1.286770413e-05
2.222915486e-05
4.131717431e-05
8.132728153e-05
0.0001667081791
0.0003513348161
0.0007548845637
0.001001610862
0.001000820828
0.0009998542608
0.0009993150731
0.0009990510679
0.0009989240607
0.0009988660407
0.000998844017
0.0009988423316
0.0009988539352
0.0009988761737
0.0009989088575
0.0009989535647
0.0009990133678
0.0009990941241
0.0009992052046
0.0009993608814
0.0009996047668
0.0005408739615
0.0003313674363
4.608203768e-05
2.786721876e-07
5.435022584e-08
4.616446121e-08
4.233409529e-08
3.853349653e-08
3.612596849e-08
3.567699467e-08
3.726467459e-08
4.027575035e-08
4.435727487e-08
4.965581449e-08
5.645967439e-08
6.507584402e-08
7.600819348e-08
8.993453347e-08
1.077131708e-07
1.304903443e-07
1.598037953e-07
1.978125858e-07
2.472051851e-07
3.118205463e-07
3.969607868e-07
5.10227057e-07
6.618212687e-07
8.667853024e-07
1.146207459e-06
1.531212502e-06
2.067087305e-06
2.823359074e-06
3.917174021e-06
5.584375232e-06
8.349771339e-06
1.337990912e-05
2.320487029e-05
4.327634401e-05
8.539700816e-05
0.0001753478722
0.0003699454203
0.0007953871104
0.001001561018
0.001000757765
0.0009998083298
0.0009992979316
0.0009990471448
0.0009989260317
0.0009988705978
0.0009988497664
0.0009988487718
0.0009988609702
0.0009988838841
0.0009989173972
0.0009989630928