/*--------------------------------*- C++ -*----------------------------------*\
  =========                 |
  \\      /  F ield         | OpenFOAM: The Open Source CFD Toolbox
   \\    /   O peration     | Website:  https://openfoam.org
    \\  /    A nd           | Version:  12
     \\/     M anipulation  |
\*---------------------------------------------------------------------------*/
FoamFile
{
    format      ascii;
    class       volScalarField;
    location    "250";
    object      p;
}
// * * * * * * * * * * * * * * * * * * * * * * * * * * * * * * * * * * * * * //

dimensions      [1 -1 -2 0 0 0 0];

internalField   nonuniform List<scalar> 
16200
(
82189.50698
82196.35489
82205.32939
82216.98921
82232.27585
82252.41415
82279.23333
82314.76098
82359.46089
82413.1602
82477.13774
82553.30109
82643.49222
82750.86543
82877.84768
83028.65615
83206.88765
83417.82005
83666.61276
83959.77767
84304.14711
84707.53715
85178.1204
85724.36389
86354.22568
87074.26736
87888.12869
88794.59031
89785.31676
90842.90373
91940.36704
93043.19886
94113.94365
95118.06187
96028.60866
96828.88419
97512.16777
98080.28274
98541.1434
98906.64058
99190.59852
99407.18049
99569.75273
99690.12229
99778.25678
99842.2073
99888.29169
99921.31822
99944.90005
99961.68288
99973.60121
99982.05659
99988.03963
99992.28728
99995.24605
99997.41581
99998.69419
100000.1765
99999.72132
100001.9952
81408.28322
81416.55988
81426.14258
81439.04562
81456.17065
81478.91817
81509.57187
81549.66824
81599.71901
81659.47875
81730.51348
81815.09021
81915.10671
82034.18661
82174.886
82341.92354
82539.21259
82772.58229
83047.71575
83371.79432
83752.36204
84197.96816
84717.43836
85319.68119
86012.71999
86802.55487
87691.31218
88674.91844
89740.55064
90864.98697
92015.26585
93152.48667
94237.94587
95239.37976
96134.78173
96913.36993
97573.66549
98121.22984
98565.79704
98919.71255
99196.18196
99408.4622
99568.88204
99688.45083
99776.51211
99840.73039
99887.18752
99920.58094
99944.46385
99961.47633
99973.55771
99982.11551
99988.16232
99992.42862
99995.41088
99997.54654
99998.8463
100000.2554
99999.78609
100002.0031
80759.37497
80768.52961
80779.27454
80793.76518
80813.06779
80838.87417
80873.85594
80918.80655
80974.24869
81040.18461
81118.47028
81211.78906
81322.05984
81453.4451
81608.68023
81793.05887
82010.91205
82268.70855
82572.75708
82930.94228
83351.5005
83843.60147
84416.56118
85079.52631
85840.33899
86704.02789
87670.46769
88731.5441
89868.56886
91051.45198
92241.10802
93395.2879
94475.9309
95455.08411
96317.24082
97058.28982
97682.2693
98198.25423
98617.62877
98952.84442
99216.30961
99420.07618
99575.23521
99691.74608
99778.1377
99841.51627
99887.58999
99920.83821
99944.68198
99961.69681
99973.78851
99982.34955
99988.39364
99992.64084
99995.61396
99997.70571
99999.00689
100000.3499
99999.86543
100002.0551
80235.5312
80245.4135
80257.77176
80274.19723
80296.13207
80325.65009
80365.47466
80415.89251
80477.37902
80550.45966
80637.11409
80740.55721
80862.73569
81008.41787
81180.55202
81385.03414
81626.62873
81912.41424
82249.28204
82645.74316
83110.68335
83653.91009
84285.30586
85014.26787
85848.18528
86790.3674
87837.13085
88974.65548
90176.84631
91406.04074
92617.69645
93768.14169
94822.44015
95759.09394
96570.35274
97259.15382
97834.82183
98309.50454
98695.81188
99005.96734
99251.35679
99442.62898
99589.47816
99700.64148
99783.68558
99845.01542
99889.85148
99922.35572
99945.74784
99962.48223
99974.39122
99982.82636
99988.77916
99992.95149
99995.87364
99997.90372
99999.18196
100000.4591
99999.94493
100002.0969
79838.87252
79849.78887
79864.07495
79882.78261
79907.86219
79941.89183
79987.2721
80043.92472
80112.26342
80193.55022
80289.77757
80404.7434
80540.38656
80702.10134
80893.05212
81119.73263
81387.37312
81703.69823
82076.29717
82514.4757
83027.9946
83627.48518
84323.38404
85124.93744
86038.15295
87063.15389
88190.88369
89400.05969
90656.09739
91914.01991
93125.66862
94248.82284
95254.48699
96129.52361
96874.60684
97499.47237
98017.99055
98444.61285
98792.54926
99073.39689
99297.28274
99473.31355
99609.69086
99713.84079
99792.28606
99850.64605
99893.5815
99924.8721
99947.48506
99963.71305
99975.28551
99983.49127
99989.28322
99993.33673
99996.17592
99998.12963
99999.36848
100000.5799
100000.0304
100002.1527
79560.03327
79572.23053
79588.76668
79610.13359
79638.91961
79678.24997
79729.93357
79793.39926
79869.23639
79959.45394
80066.04529
80193.48805
80343.72521
80522.83614
80734.29593
80985.30944
81281.77305
81632.27439
82045.36164
82531.32793
83100.83633
83765.01243
84534.14164
85416.27718
86414.72123
87524.81147
88730.35862
90001.21533
91294.05899
92558.03796
93744.30483
94815.47639
95751.12775
96547.72729
97214.31712
97766.61172
98221.95405
98596.17679
98902.42153
99151.2788
99351.42068
99510.33466
99634.69382
99730.58732
99803.46264
99858.11368
99898.60024
99928.27862
99949.82843
99965.35055
99976.44857
99984.33092
99989.89827
99993.79169
99996.51898
99998.38169
99999.56668
100000.7112
100000.1195
100002.215
79380.70351
79394.45922
79413.60646
79438.17225
79471.48338
79516.90387
79575.71396
79646.55303
79730.8427
79831.3683
79950.00759
80092.03626
80259.48544
80459.23926
80695.23326
80975.49897
81306.73064
81698.41795
82160.04068
82702.649
83337.40299
84075.32035
84925.69423
85894.32548
86980.54027
88173.3683
89447.85713
90764.04292
92070.65713
93313.70553
94447.40184
95442.58063
96289.3446
96994.10982
97573.48563
98047.89185
98436.88844
98756.73034
99019.86327
99235.54582
99410.85899
99551.65013
99663.08169
99749.93073
99816.58177
99867.0012
99904.63554
99932.39926
99952.66467
99967.32228
99977.83439
99985.31627
99990.6065
99994.30532
99996.89681
99998.65581
99999.77565
100000.8517
100000.213
100002.2863
79305.29092
79321.1988
79343.27404
79371.66844
79410.60576
79463.0791
79529.63257
79608.97589
79703.79438
79817.08085
79950.67262
80110.77822
80299.5989
80524.88585
80791.09191
81107.00925
81480.0191
81920.26852
82437.84319
83044.1776
83750.64434
84567.95207
85503.986
86561.26577
87733.39567
89001.12018
90329.26587
91667.99862
92960.26792
94152.8737
95207.15777
96104.93637
96847.75328
97451.35409
97938.51036
98332.82132
98654.79405
98920.22954
99140.35806
99322.86861
99473.18384
99595.54131
99693.65328
99771.04643
99831.08659
99876.9382
99911.44414
99937.07618
99955.89243
99969.56395
99979.40268
99986.42245
99991.39292
99994.86866
99997.30472
99998.94906
99999.99452
100001.0006
100000.3117
100002.3659
79365.72433
79384.3458
79409.88131
79442.9514
79488.86976
79549.53102
79625.20608
79714.7892
79821.09758
79948.4208
80098.47962
80278.46991
80490.77823
80744.00258
81043.18687
81397.91131
81816.29489
82309.09422
82886.92756
83561.42891
84343.83249
85244.01533
86267.7321
87412.83485
88664.82485
89993.76383
91353.58552
92686.27301
93932.72569
95045.16936
95995.74827
96778.8992
97407.33713
97904.70185
98298.15224
98612.89631
98869.23835
99081.80566
99260.23232
99410.49714
99536.3629
99640.52986
99725.35201
99793.19256
99846.46491
99887.57662
99918.79293
99942.15534
99959.41123
99972.01091
99981.11245
99987.62392
99992.24204
99995.47246
99997.73767
99999.25843
100000.2222
100001.1574
100000.4174
100002.4539
79567.81961
79589.60368
79619.14969
79657.77862
79711.53092
79780.23449
79864.66197
79965.3415
80084.63972
80227.50954
80395.47348
80596.68599
80833.69353
81115.91097
81449.14263
81843.94096
82309.46587
82857.44856
83499.51745
84247.56851
85111.8195
86099.46324
87211.94227
88440.60534
89760.97195
91130.7386
92493.6982
93787.4097
94955.66353
95960.54601
96787.57151
97444.0569
97952.54885
98342.60814
98643.90056
98881.80485
99075.48254
99237.8599
99376.73864
99496.33892
99598.81793
99685.44262
99757.32097
99815.75462
99862.28408
99898.61716
99926.47824
99947.50026
99963.13106
99974.60474
99982.92643
99988.89737
99993.13969
99996.10833
99998.19113
99999.58128
100000.4578
100001.3226
100000.5287
100002.5501
79871.25782
79896.70381
79930.82651
79976.08057
80038.84176
80118.02627
80213.94334
80327.63972
80461.9903
80623.01262
80811.88343
81037.77972
81303.56194
81619.46746
81991.92599
82432.07388
82950.17318
83559.14663
84271.56118
85099.44116
86051.53378
87130.57244
88330.31491
89632.61933
91002.25779
92385.16695
93717.46415
94937.40599
95996.95473
96871.43994
97560.76183
98084.05982
98471.6135
98756.72122
98969.7991
99135.20885
99270.27871
99385.9002
99487.93718
99578.87983
99659.37623
99729.38438
99788.8894
99838.23997
99878.1895
99909.80945
99934.32651
99952.99278
99966.97281
99977.29344
99984.81109
99990.2217
99994.07292
99996.76859
99998.66084
99999.91521
100000.7009
100001.4959
100000.6444
100002.6545
80255.82078
80285.6179
80325.19479
80378.76318
80452.12184
80542.42073
80650.3472
80778.25735
80928.98811
81110.29644
81323.28788
81578.33473
81878.87106
82236.07223
82657.11151
83153.76188
83736.68178
84418.41345
85210.13849
86123.01984
87164.31611
88332.6617
89612.16254
90971.00104
92362.53013
93724.50488
94989.69812
96102.32801
97027.12455
97754.497
98298.13714
98686.94389
98956.46567
99141.63896
99272.15499
99370.47473
99451.65026
99524.37638
99592.58008
99657.10825
99717.22425
99771.71197
99819.55986
99860.27275
99893.9037
99920.95317
99942.19613
99958.53474
99970.86979
99980.03257
99986.73745
99991.57843
99995.03033
99997.44641
99999.14301
100000.2581
100000.9508
100001.6767
100000.7646
100002.7669
80726.5668
80761.705
80807.99248
80871.0373
80954.12789
81054.97366
81177.41376
81323.75452
81495.5152
81702.1691
81944.82225
82234.97844
82576.59683
82981.68482
83458.31515
84018.98674
84674.56575
85436.94295
86316.27545
87319.87248
88448.85723
89696.70026
91039.30136
92429.94695
93809.57642
95112.71819
96274.90166
97250.88856
98021.23089
98591.56952
98987.46101
99244.9306
99402.33843
99494.45344
99549.12455
99586.3326
99618.62789
99652.48438
99689.97166
99730.41872
99771.84374
99811.99356
99848.98339
99881.57944
99909.21839
99931.89386
99949.97535
99964.04711
99974.76732
99982.78512
99988.68101
99992.95178
99996.00203
99998.13585
99999.63426
100000.6081
100001.2064
100001.8657
100000.8889
100002.8876
81320.33396
81361.84965
81416.17222
81490.26564
81587.99266
81705.11621
81843.53786
82009.93532
82204.634
82438.55964
82712.71525
83039.76713
83424.31424
83879.19855
84413.45414
85040.05854
85770.23624
86615.39005
87584.15764
88678.99179
89893.4766
91207.08279
92586.76318
93976.88612
95307.33285
96513.31417
97540.05812
98356.49874
98959.98359
99369.98968
99621.1632
99753.89396
99807.18225
99814.22794
99800.28561
99782.54468
99771.00117
99769.98462
99779.83865
99798.52142
99822.95029
99849.96816
99876.93372
99901.97291
99923.98497
99942.51752
99957.5793
99969.4684
99978.62193
99985.52113
99990.62161
99994.32855
99996.97966
99998.83178
100000.1316
100000.9634
100001.4674
100002.0649
100001.017
100003.0165
82039.53919
82088.75675
82153.08417
82240.14032
82351.86836
82484.37998
82639.40685
82826.07648
83044.21794
83306.62985
83614.1376
83980.64103
84411.51898
84920.37838
85517.12148
86214.92525
87024.6267
87955.67031
89012.32697
90191.39911
91478.39208
92839.71398
94224.9121
95576.0592
96818.68238
97892.00252
98756.82484
99398.51742
99830.06304
100082.2324
100195.6877
100212.6478
100171.0256
100101.4774
100026.2373
99959.60584
99909.09799
99877.04147
99862.21473
99861.36043
99870.43653
99885.50709
99903.28169
99921.33599
99938.10416
99952.74421
99964.9462
99974.75246
99982.40018
99988.217
99992.54306
99995.69794
99997.95623
99999.5299
100000.6326
100001.3229
100001.734
100002.2677
100001.1487
100003.1543
82835.50761
82894.14907
82969.23986
83067.29917
83191.03728
83342.28601
83519.22612
83732.58555
83981.1713
84279.98001
84629.64278
85045.0136
85532.00472
86104.36881
86771.90873
87546.89588
88439.26188
89456.0133
90596.51345
91848.63758
93185.62556
94564.07209
95920.55523
97191.12253
98307.78245
99218.72029
99902.96826
100362.6835
100623.7689
100725.1688
100710.6579
100622.1954
100495.3694
100357.7074
100228.2588
100118.4943
100033.6031
99974.09134
99937.34507
99919.04521
99914.3237
99918.58028
99927.97237
99939.60619
99951.51611
99962.52184
99972.03348
99979.86611
99986.07717
99990.85465
99994.43264
99997.05127
99998.92602
100000.2266
100001.1351
100001.6853
100002.0053
100002.4637
100001.2842
100003.3017
83722.50043
83792.70705
83880.08731
83997.37257
84142.12377
84315.14713
84517.03137
84760.98156
85044.06498
85383.48175
85779.83018
86248.79253
86796.82329
87437.66705
88180.89169
89037.27899
90013.62196
91111.77302
92324.97344
93631.62549
94991.3512
96348.22799
97637.04397
98785.70944
99742.32347
100469.3612
100963.0452
101240.8426
101338.218
101299.1297
101168.0227
100985.0408
100782.6686
100585.0368
100408.0389
100260.477
100145.4171
100061.7398
100005.6111
99971.79582
99954.72215
99949.22821
99951.00552
99956.7624
99964.19152
99971.8203
99978.81407
99984.78685
99989.63518
99993.42075
99996.28064
99998.38172
99999.8844
100000.9188
100001.6371
100002.0495
100002.2796
100002.6508
100001.4223
100003.4581
84740.66539
84825.32298
84927.51506
85064.76202
85227.87594
85423.90961
85651.11918
85926.5467
86245.34883
86626.85663
87071.82037
87596.69236
88208.44296
88920.55163
89741.97121
90680.98891
91739.56838
92911.91718
94180.4325
95514.00993
96860.88465
98156.23091
99334.05815
100325.3099
101096.2063
101626.9299
101928.2203
102030.1085
101974.2983
101806.9356
101571.2749
101304.608
101035.9172
100785.9065
100567.4703
100386.963
100245.5506
100140.6839
100067.4731
100019.9005
99991.80019
99977.53948
99972.41957
99972.8137
99976.12401
99980.62641
99985.27306
99989.50069
99993.06234
99995.9058
99998.07986
99999.68405
100000.8277
100001.6041
100002.1372
100002.4146
100002.5556
100002.8411
100001.5612
100003.6225
85861.4077
85964.16708
86081.53536
86239.3394
86424.26808
86646.7403
86902.50201
87213.43838
87572.89344
88002.06263
88501.79135
89088.8011
89769.99845
90557.50486
91458.12696
92475.92618
93607.12743
94837.44529
96137.55635
97462.9337
98755.65313
99947.13982
100973.1286
101781.5414
102351.1949
102681.5782
102795.3861
102731.7348
102535.5978
102253.0278
101924.8082
101584.7886
101258.3395
100962.8685
100708.5041
100499.4011
100335.0492
100211.6569
100123.4287
100063.6844
100025.7606
100003.6333
99992.27894
99987.7904
99987.32383
99988.93964
99991.40484
99994.0003
99996.3514
99998.30347
99999.82516
100000.9543
100001.753
100002.2804
100002.6339
100002.7795
100002.8338
100003.0448
100001.7046
100003.7945
87094.90173
87218.29401
87348.36629
87525.46751
87734.42275
87989.45622
88280.02547
88632.8035
89039.51472
89522.70962
90083.06339
90736.82359
91490.16453
92352.80472
93328.21542
94414.86445
95601.31352
96863.56487
98162.06614
99439.81928
100635.5956
101683.4087
102526.7795
103134.42
103496.4615
103629.6486
103565.9339
103349.9253
103027.4298
102642.7473
102233.419
101829.6107
101453.1708
101118.4401
100833.0506
100599.2088
100414.9425
100275.3894
100173.9829
100103.4864
100056.8232
100027.6463
100010.6642
100001.7368
99997.81274
99996.76849
99997.2107
99998.28342
99999.49869
100000.6099
100001.5131
100002.1896
100002.6581
100002.9462
100003.1261
100003.1435
100003.115
100003.2545
100001.8561
100003.9739
88454.71142
88602.58141
88754.36373
88962.65707
89197.42352
89486.98567
89814.85646
90211.69102
90667.6616
91206.21591
91827.72779
92547.22762
93369.51405
94300.87534
95340.16512
96478.77721
97696.32589
98958.37229
100214.8005
101404.1774
102463.3026
103334.566
103975.0903
104371.5386
104527.5569
104472.4462
104244.5212
103890.7817
103456.0514
102981.7991
102501.9587
102043.0179
101623.519
101255.0147
100942.9187
100687.7305
100486.2123
100332.5846
100219.629
100139.644
100085.2124
100049.723
100027.6651
100014.7059
100007.6201
100004.1278
100002.6968
100002.3515
100002.5033
100002.8232
100003.1414
100003.3879
100003.5412
100003.6
100003.6128
100003.506
100003.3991
100003.4641
100002.016
100004.1603
89971.2125
90148.07343
90320.73529
90556.71305
90817.89717
91142.32875
91507.86267
91948.88981
92454.06578
93047.10771
93727.96356
94509.56201
95394.49465
96384.40081
97472.01329
98640.2765
99859.009
101083.7477
102257.1645
103318.1414
104206.4986
104877.0869
105303.2507
105487.4024
105445.3776
105214.8963
104837.8987
104361.4121
103828.053
103275.8624
102735.094
102228.7258
101772.2762
101374.8066
101039.7797
100766.211
100549.7726
100383.9033
100260.8358
100172.4828
100111.1489
100070.0091
100043.3747
100026.7551
100016.78
100011.0364
100007.8729
100006.2087
100005.3663
100004.9427
100004.7089
100004.5479
100004.4011
100004.2409
100004.093
100003.8664
100003.6856
100003.6739
100002.1852
100004.3528
91614.79314
91822.73091
92016.64084
92284.67988
92574.12558
92935.00345
93339.93221
93826.41344
94381.75244
95028.94701
95767.31198
96606.56755
97545.88213
98580.81881
99696.56142
100866.8178
102052.0428
103200.1846
104251.4339
105148.3839
105839.7149
106295.1844
106504.3659
106482.4274
106254.8671
105864.2821
105353.9441
104769.2688
104149.9435
103530.3448
102937.1692
102390.1454
101902.0783
101479.827
101125.1526
100835.7849
100606.4611
100429.9553
100298.0399
100202.3098
100134.8441
100088.6467
100057.8861
100037.9435
100025.3285
100017.5157
100012.7506
100009.8609
100008.0902
100006.9692
100006.2153
100005.6686
100005.2368
100004.8678
100004.566
100004.2243
100003.974
100003.883
100002.3646
100004.5502
93384.90508
93620.10917
93829.31344
94130.01239
94451.18478
94851.15305
95298.14718
95831.99074
96438.96788
97139.87719
97932.7331
98822.72578
99804.1572
100865.2953
101983.0413
103122.28
104236.0954
105268.6812
106162.5001
106867.6873
107345.4384
107580.8172
107577.9665
107361.4878
106963.663
106429.1709
105800.9229
105121.6869
104427.8837
103750.2403
103112.1346
102530.3512
102015.2899
101571.8789
101200.4003
100897.4741
100657.0361
100471.2964
100331.643
100229.4102
100156.4967
100105.7711
100071.2894
100048.3297
100033.3026
100023.588
100017.3431
100013.3153
100010.6784
100008.904
100007.6606
100006.7496
100006.0476
100005.4801
100005.031
100004.579
100004.264
100004.0912
100002.555
100004.7514
95257.37374
95525.51992
95758.88861
96093.55716
96449.87511
96892.21997
97384.19753
97966.33321
98624.35461
99375.29199
100214.8689
101142.6931
102147.1857
103208.8339
104296.5689
105368.1208
106372.3671
107254.0452
107961.982
108456.7391
108714.3701
108732.861
108528.611
108132.4502
107580.892
106918.5852
106186.9647
105425.584
104667.53
103940.0561
103263.5194
102652.0743
102114.0075
101652.561
101266.7347
100952.1905
100702.1778
100508.4286
100362.0103
100254.0458
100176.2908
100121.5095
100083.6705
100057.9703
100040.7386
100029.2761
100021.6639
100016.5796
100013.135
100010.7487
100009.0454
100007.7908
100006.8329
100006.077
100005.4873
100004.9303
100004.5548
100004.2976
100002.7573
100004.9556
97258.05397
97565.18608
97827.70459
98197.5576
98589.11044
99072.85666
99608.26359
100234.2299
100936.2252
101726.6495
102598.0144
103543.5879
104545.3687
105576.3063
106598.6256
107565.519
108425.3583
109127.3708
109629.7373
109905.3164
109944.476
109755.4981
109364.1751
108804.8654
108116.219
107341.4137
106519.7272
105687.2876
104873.9614
104103.7932
103394.4353
102757.7157
102200.0733
101723.2805
101325.2257
101000.7427
100742.4924
100541.8015
100389.4716
100276.4545
100194.3954
100135.9796
100095.1099
100066.9191
100047.6717
100034.6022
100025.7268
100019.6619
100015.4645
100012.5057
100010.3705
100008.7921
100007.5923
100006.6581
100005.9342
100005.2777
100004.8461
100004.5021
100002.9723
100005.1618
99404.20782
99753.40844
100045.3382
100448.633
100871.3398
101390.2718
101962.5374
102623.3643
103357.4145
104171.6706
105054.6992
105993.0062
106962.1953
107928.7466
108850.3432
109678.8607
110365.7754
110867.8473
111154.3804
111210.9031
111039.4227
110656.6145
110094.5507
109389.0253
108579.2482
107706.0625
106806.2253
105912.4744
105051.6757
104244.9668
103507.6061
102849.3745
102275.0992
101785.2714
101376.8144
101043.8448
100778.5179
100571.8168
100414.3228
100296.8515
100210.9645
100149.2898
100105.6822
100075.2267
100054.1353
100039.5879
100029.5452
100022.5702
100017.6715
100014.1772
100011.6368
100009.7536
100008.3255
100007.2227
100006.3711
100005.6208
100005.1369
100004.7043
100003.2009
100005.3688
101685.6321
102073.2224
102387.5596
102822.2178
103273.6662
103821.8656
104423.2407
105108.1664
105859.8062
106679.0196
107550.1512
108453.2517
109358.3726
110227.3899
111016.2073
111678.6619
112172.2644
112463.1657
112532.3128
112376.6864
112006.9166
111446.3046
110730.5081
109895.2058
108979.0856
108020.2215
107052.7349
106106.1483
105204.6028
104366.6336
103605.3954
102928.873
102340.4872
101839.6103
101422.3251
101082.125
100810.7299
100598.8311
100436.8284
100315.4305
100226.1376
100161.5388
100115.4563
100082.9398
100060.1607
100044.2537
100033.1321
100025.3125
100019.7604
100015.7658
100012.8454
100010.6757
100009.0324
100007.7704
100006.7973
100005.9593
100005.4264
100004.9042
100003.4435
100005.5747
104085.9494
104507.8542
104841.9075
105302.0829
105776.9991
106345.6839
106964.6481
107659.0346
108410.3454
109212.6977
110046.0551
110884.8971
111695.2852
112436.8492
113066.5656
113543.0193
113831.642
113908.6464
113766.0567
113410.0379
112857.0473
112135.6132
111282.8317
110333.1312
109324.0553
108290.7457
107264.7661
106272.6611
105336.1412
104471.4308
103689.8425
102997.7857
102397.4521
101887.2335
101462.4777
101116.1344
100839.5476
100623.1605
100457.2242
100332.3647
100240.0404
100172.8163
100124.495
100090.1018
100065.7772
100048.6188
100036.4998
100027.8965
100021.7359
100017.2738
100013.9975
100011.5586
100009.7129
100008.3009
100007.2123
100006.2929
100005.7136
100005.1017
100003.7008
100005.7762
106584.5871
107035.5761
107384.8045
107862.1122
108353.0254
108932.398
109555.9772
110242.7215
110973.1427
111734.9609
112504.0111
113250.4964
113938.5751
114528.1582
114979.725
115258.5168
115338.6737
115206.1528
114862.639
114320.74
113601.1304
112735.7972
111761.8525
110711.7456
109621.6168
108523.6762
107447.1184
106415.7803
105449.2236
104561.6325
103762.708
103057.4756
102447.049
101928.9571
101497.9021
101146.3574
100865.3409
100645.0851
100475.7199
100347.8095
100252.7861
100183.2036
100132.8557
100096.7525
100071.0118
100052.7012
100039.6601
100030.3294
100023.6024
100018.7038
100015.0942
100012.4027
100010.3667
100008.8135
100007.6155
100006.6213
100005.9975
100005.2966
100003.9731
100005.9693
109168.751
109641.0172
109998.0624
110479.0784
110973.323
111550.4112
112164.1082
112824.7722
113511.9557
114208.6079
114887.8214
115516.9917
116060.3052
116480.2067
116742.3996
116819.7001
116694.8161
116362.4442
115831.9833
115120.0502
114250.8646
113257.7651
112177.1361
111039.1029
109878.3523
108724.2852
107603.9479
106538.7545
105546.3756
104639.1986
103825.5124
103109.123
102490.1949
101965.4932
101529.1503
101173.2201
100888.4368
100664.8538
100492.5029
100361.9041
100264.4766
100192.7744
100140.5907
100102.9285
100075.8895
100056.5178
100042.624
100032.6183
100025.364
100020.058
100016.1368
100013.2085
100010.9938
100009.308
100008.0064
100006.9441
100006.2766
100005.4887
100004.2587
100006.1508
111782.019
112264.7132
112634.4486
113127.2147
113613.5166
114168.7761
114752.965
115367.2897
115989.776
116598.5598
117165.6493
117657.5928
118040.1636
118279.9951
118349.0113
118227.6679
117906.4428
117387.3856
116685.5824
115820.0603
114817.6079
113711.61
112537.2577
111322.2938
110099.976
108897.1085
107738.8148
106644.3612
105629.757
104705.8082
103879.5621
103153.7463
102527.6841
101997.4614
101556.7046
101197.0963
100909.1233
100682.6864
100507.7394
100374.7725
100275.2036
100201.595
100147.7474
100108.663
100080.4333
100060.084
100045.4017
100034.7698
100027.0249
100021.3389
100017.1263
100013.9762
100011.5943
100009.7839
100008.3846
100007.2611
100006.5499
100005.6786
100004.5538
100006.3245
114449.1995
114928.8289
115284.6198
115753.8231
116224.2518
116745.6249
117283.8151
117833.436
118372.0033
118874.147
119311.7359
119652.5498
119865.2777
119921.6458
119800.0965
119488.1531
118982.9217
118292.3167
117435.3564
116432.4471
115311.7862
114106.3269
112849.7108
111567.4372
110291.376
109046.0048
107854.7433
106734.9605
105701.2073
104762.8964
103925.9788
103192.2238
102560.205
102025.4013
101580.9869
101218.3147
100927.6545
100698.778
100521.5775
100386.5259
100285.0491
100209.7255
100154.369
100113.9866
100084.6645
100063.4144
100048.0028
100036.7901
100028.5889
100022.5487
100018.064
100014.7065
100012.1681
100010.2407
100008.7496
100007.5717
100006.8158
100005.8669
100004.8552
100006.4959
117105.027
117564.285
117904.4155
118343.7925
118779.7385
119250.9299
119726.0931
120193.7247
120631.2729
121012.1891
121308.5574
121490.5319
121530.7119
121406.1723
121101.5845
120610.623
119935.7833
119089.4736
118093.2518
116968.1259
115742.9287
114449.9555
113121.1126
111779.8595
110456.7799
109174.3035
107954.3402
106812.5899
105762.3193
104811.7109
103965.7419
103225.326
102588.3646
102049.7905
101602.3722
101237.1683
100944.2583
100713.304
100534.1507
100397.265
100294.0881
100217.2207
100160.4951
100118.9275
100088.6028
100066.5225
100050.4366
100038.6851
100030.0597
100023.6896
100018.951
100015.3997
100012.7152
100010.6783
100009.1012
100007.8755
100007.0732
100006.0541
100005.1614
100006.6646
119704.3711
120136.0521
120453.1213
120851.9044
121242.6031
121650.3496
122048.9014
122421.3784
122746.1232
122996.3587
123145.5866
123166.9739
123037.4348
122739.2217
122262.583
121606.3231
120777.1642
119790.8605
118670.4403
117436.9382
116119.4215
114749.4778
113357.1562
111964.0774
110599.7657
109284.8198
108039.8112
106878.9781
105814.45
104853.3198
103999.6947
103253.72
102612.6911
102071.0471
101621.1905
101253.9164
100959.1367
100726.4207
100545.579
100407.0804
100302.3883
100224.1307
100166.1623
100123.5118
100092.2667
100069.4212
100052.7117
100040.4607
100031.4412
100024.7639
100019.7886
100016.0565
100013.2358
100011.0962
100009.4392
100008.172
100007.321
100006.2406
100005.4712
100006.8293
122231.7753
122620.4533
122903.8754
123249.5631
123583.1841
123916.3761
124227.7271
124496.1064
124701.2787
124816.8046
124818.4775
124682.7296
124390.7453
123929.4859
123293.9653
122487.1574
121519.019
120407.7553
119177.043
117847.5966
116448.5977
115010.9369
113562.7004
112123.953
110723.3999
109379.9708
108113.0592
106935.6242
105858.783
104888.6605
104028.5811
103277.9975
102633.6551
102089.545
101637.7379
101268.7922
100972.4724
100738.2698
100555.9711
100416.0549
100310.0121
100230.5015
100171.4042
100127.7639
100095.6734
100072.1225
100054.8363
100042.1223
100032.7367
100025.7737
100020.5781
100016.6774
100013.7299
100011.4942
100009.7636
100008.4605
100007.5579
100006.427
100005.7833
100006.9874
124634.9845
124974.1486
125219.7353
125505.8354
125775.2467
126027.0429
126245.087
126405.2346
126488.964
126470.7751
126329.1795
126043.7427
125599.6556
124988.0015
124207.757
123265.2567
122172.8648
120950.5794
119622.1043
118207.7955
116736.8437
115239.5018
113741.8314
112262.8081
110830.309
109461.8317
108175.7243
106983.8269
105896.3494
104918.5543
104053.0566
103298.6828
102651.6756
102105.6184
101652.2801
101282.0059
100984.4304
100748.9799
100565.4263
100424.2642
100317.0163
100236.3758
100176.2521
100131.7064
100098.8392
100074.6378
100056.8185
100043.6754
100033.95
100026.7214
100021.3207
100017.2632
100014.1978
100011.8721
100010.0743
100008.7402
100007.7833
100006.6143
100006.0933
100007.1376
126901.5645
127180.7721
127380.948
127600.6487
127800.4289
127967.3836
128090.1564
128142.4907
128107.426
127960.8213
127683.7617
127258.8963
126674.9101
125926.5002
125015.8996
123952.0948
122749.2214
121428.5615
120013.5096
118524.2052
116989.6384
115439.5457
113898.0387
112383.5077
110922.7558
109532.1984
108229.2345
107024.7245
105928.0592
104943.7305
104073.7074
103316.2469
102667.1311
102119.5705
101665.0589
101293.7492
100995.1615
100758.6688
100574.0356
100431.778
100323.454
100241.7931
100180.7352
100135.3609
100101.7795
100076.9782
100058.6658
100045.1252
100035.0844
100027.6091
100022.0177
100017.8146
100014.6397
100012.2298
100010.3714
100009.0101
100007.9964
100006.8034
100006.3981
100007.2839
128988.2333
129206.1426
129361.2148
129514.482
129644.91
129728.8701
129758.9684
129707.9343
129560.3487
129293.7046
128891.3134
128338.9171
127628.1487
126756.8118
125729.833
124558.2532
123257.5132
121849.8413
120358.2244
118802.5793
117211.6678
115614.8598
114034.4889
112488.5009
111002.6934
109592.6311
108274.8402
107059.3217
105954.722
104964.8435
104091.0628
103331.1181
102680.3673
102131.6797
101676.2973
101304.1998
101004.8064
100767.4468
100581.8849
100438.6625
100329.3754
100246.7915
100184.8819
100138.748
100104.5095
100079.1544
100060.386
100046.477
100036.1437
100028.4393
100022.6708
100018.3324
100015.0559
100012.5674
100010.6551
100009.2691
100008.1969
100006.9955
100006.6968
100007.4341
130880.3021
131037.3151
131150.6032
131240.9904
131305.1266
131310.9169
131253.8641
131106.6089
130855.1462
130478.6316
129962.5494
129295.2979
128471.102
127490.3274
126360.1989
125093.3112
123706.1286
122221.6862
120662.4634
119047.8825
117407.0011
115768.8576
114154.0769
112579.8891
111071.8353
109644.5137
108313.6599
107088.5242
105977.0733
104982.4915
104105.6095
103343.6919
102691.705
102142.2052
101686.2036
101313.5241
101013.4972
100775.4179
100589.0552
100444.9804
100334.8286
100251.4073
100188.7196
100141.8881
100107.0441
100081.1774
100061.9868
100047.7364
100037.1316
100029.2145
100023.2815
100018.8178
100015.4469
100012.8853
100010.9257
100009.5161
100008.3849
100007.1909
100006.9857
100007.5842
132573.471
132674.7896
132749.5552
132782.2182
132784.4094
132718.4197
132581.5767
132347.009
132001.7202
131526.5343
130908.9931
130139.6699
129215.0411
128137.6585
126916.6614
125565.8066
124102.4906
122550.4972
120931.4849
119264.3833
117579.2007
115904.5258
114259.0519
112659.5149
111131.7076
109689.0892
108346.7056
107113.1586
105995.7895
104997.2282
104117.8006
103354.3386
102701.4454
102151.391
101694.9746
101321.8796
101021.3589
100782.6808
100595.6241
100450.7917
100339.8598
100255.6757
100192.2747
100144.801
100109.3978
100083.0577
100063.4759
100048.9087
100038.0519
100029.9373
100023.8516
100019.2717
100015.8131
100013.1837
100011.1832
100009.7499
100008.5612
100007.3877
100007.2594
100007.7206
134078.5078
134127.4819
134164.2998
134144.8064
134090.5777