/*--------------------------------*- C++ -*----------------------------------*\
  =========                 |
  \\      /  F ield         | OpenFOAM: The Open Source CFD Toolbox
   \\    /   O peration     | Website:  https://openfoam.org
    \\  /    A nd           | Version:  12
     \\/     M anipulation  |
\*---------------------------------------------------------------------------*/
FoamFile
{
    format      ascii;
    class       volScalarField;
    location    "250";
    object      T;
}
// * * * * * * * * * * * * * * * * * * * * * * * * * * * * * * * * * * * * * //

dimensions      [0 0 0 1 0 0 0];

internalField   nonuniform List<scalar> 
16200
(
296.5822707
296.5598756
296.4044058
296.060959
295.3927981
294.0517665
291.2227854
285.8512206
282.3553714
281.9622441
282.0524754
282.1320214
282.233762
282.3485255
282.4865901
282.6454127
282.8310197
283.0462856
283.2968613
283.5881045
283.9265691
284.3190974
284.7727292
285.2947112
285.8916455
286.5683386
287.3266569
288.1637683
289.0703131
290.0290346
291.0147502
291.9965389
292.9418667
293.8215427
294.6135736
295.305022
295.8917298
296.3766884
296.7680554
297.0769889
297.3160918
297.4978688
297.6339821
297.7345562
297.8080874
297.8613721
297.8997345
297.9272054
297.9468093
297.9607575
297.9706682
297.9777147
297.9827348
297.986357
297.988983
297.991041
297.9925384
297.993994
297.9948434
297.9971882
296.001533
295.9504516
295.7503314
295.3315729
294.5163416
292.8425126
289.3268014
283.7177094
281.3703362
281.2390219
281.3347431
281.4230468
281.5333924
281.658187
281.8085616
281.982324
282.1857768
282.4223827
282.6982448
283.0193627
283.3928552
283.8262091
284.3268926
284.9023673
285.5590848
286.3010572
287.1284432
288.0355327
289.0088155
290.0260159
291.0571294
292.0680447
293.0257922
293.9036238
294.6839473
295.3588413
295.9283594
296.3984168
296.7784277
297.0797763
297.3144291
297.4941137
297.6296267
297.7304661
297.8046498
297.8586988
297.8977744
297.9258464
297.945919
297.9602163
297.9703752
297.9775866
297.9827123
297.9863887
297.9890502
297.9910988
297.9926214
297.9940452
297.9948978
297.9973345
295.4876627
295.4003714
295.1464109
294.6409356
293.6528429
291.5616775
287.1416373
282.0365661
280.6150563
280.6261661
280.7305336
280.8273166
280.9484549
281.0859779
281.2514699
281.4432756
281.6679394
281.9295712
282.2347326
282.5900886
283.0033153
283.4824982
284.0354686
284.6697653
285.3914591
286.20335
287.1031853
288.0813346
289.1189497
290.1878412
291.2530359
292.2780278
293.2308881
294.0889345
294.8403264
295.482913
296.0213844
296.4645854
296.8232193
297.108714
297.3323076
297.5047093
297.635668
297.7338097
297.8064727
297.8597123
297.89838
297.9262612
297.9462468
297.9605048
297.9706417
297.9778325
297.9829364
297.9865821
297.9892183
297.9912233
297.9927332
297.9941176
297.9949283
297.9973307
295.0641278
294.9372363
294.6196776
294.005585
292.7983956
290.2155216
284.8323072
280.8004272
280.0760041
280.1424955
280.2536045
280.3604194
280.493196
280.6446066
280.8265654
281.038126
281.2860564
281.5751731
281.9124996
282.3053491
282.7619149
283.2908291
283.9002104
284.597485
285.387928
286.2723677
287.2450037
288.2909525
289.3849375
290.4925702
291.5747834
292.5945334
293.5231146
294.3436793
295.0510893
295.6491346
296.1468492
296.5555236
296.8867347
297.1516048
297.360423
297.5226821
297.646938
297.7407971
297.8107984
297.8624231
297.900124
297.9274305
297.9470708
297.9611162
297.971115
297.9782095
297.9832417
297.9868266
297.989416
297.9913682
297.9928539
297.9942015
297.9949754
297.9973757
294.7234209
294.5574129
294.1682986
293.415435
291.9014892
288.6535549
282.7117607
279.9737577
279.6939175
279.7810397
279.9010771
280.0193604
280.1654
280.3326757
280.5332388
280.7669864
281.0408887
281.3605152
281.7333949
282.167552
282.6717653
283.2552293
283.9262323
284.6916809
285.5552559
286.5145997
287.5588796
288.6665901
289.8053208
290.9349527
292.0140645
293.007538
293.8921914
294.6584871
295.3084538
295.8515545
296.3005348
296.6684942
296.9673794
297.2076818
297.3985463
297.5481242
297.6636883
297.7517377
297.8179326
297.8671005
297.9032282
297.9295292
297.9485227
297.9621468
297.9718647
297.9787666
297.9836619
297.987144
297.9896577
297.991542
297.9929878
297.9942965
297.9950244
297.9974115
294.4601049
294.2563647
293.7920689
292.8817059
290.9773898
286.7925189
281.1219091
279.4755553
279.44167
279.5384375
279.6688595
279.7999744
279.9606454
280.1455081
280.3666254
280.6249041
280.9275988
281.2811654
281.6937813
282.1742734
282.7319901
283.3764269
284.1154863
284.9546643
285.8948551
286.9290883
288.0400359
289.1985657
290.3652291
291.4956956
292.5488154
293.4942335
294.3163778
295.0139208
295.59589
296.0766566
296.4717423
296.7952645
297.0589801
297.2724268
297.4434422
297.5787649
297.6843503
297.7655622
297.8271531
297.87326
297.9073685
297.9323411
297.9504586
297.9635009
297.9728274
297.9794615
297.9841697
297.9875166
297.9899327
297.9917374
297.9931324
297.9944004
297.9950796
297.9974578
294.2653317
294.0175187
293.4663495
292.3683114
289.9961936
284.7239084
280.0576494
279.1766173
279.2999836
279.4051037
279.5473846
279.6932622
279.8707745
280.0760129
280.3209998
280.6078063
280.9440522
281.3371186
281.7958188
282.3296092
282.9480842
283.6604953
284.4735759
285.3903717
286.4077394
287.5127375
288.6803377
289.8733471
291.0463339
292.1532963
293.1565357
294.033162
294.7766674
295.3940627
295.9006051
296.3144599
296.6528612
296.9301458
297.1573676
297.3428477
297.4930091
297.6131602
297.7079523
297.7816303
297.8380448
297.8806372
297.9123784
297.9357627
297.9528147
297.9651397
297.9739797
297.9802806
297.9847571
297.9879397
297.9902386
297.9919529
297.9932875
297.9945116
297.9951399
297.9975081
294.1499959
293.8472369
293.188783
291.8299644
288.7989192
282.7491956
279.4112991
279.1227252
279.2700936
279.3854068
279.5416649
279.7051209
279.9026972
280.1321933
280.4055256
280.7259622
281.1014385
281.5400973
282.0511602
282.6443613
283.3291526
284.1141033
285.004167
285.9989275
287.0897494
288.256224
289.4647661
290.6705585
291.8243496
292.881861
293.8121307
294.6018319
295.254081
295.7835735
296.2105478
296.5556601
296.8367912
297.0677734
297.2585354
297.415994
297.5451095
297.6497886
297.7334301
297.7992096
297.8501114
297.8889001
297.9180386
297.9396506
297.955498
297.9670036
297.9752837
297.9811999
297.9854095
297.9884042
297.9905704
297.9921854
297.993452
297.9946298
297.995206
297.9975643
294.1410026
293.779449
292.9947163
291.2927784
287.3173858
281.230714
279.2532997
279.2216063
279.3708824
279.4995545
279.6714497
279.8546551
280.0746837
280.3311883
280.635924
280.9933639
281.4117609
281.8999189
282.4673496
283.1238186
283.8782249
284.7378404
285.7050203
286.7746601
287.93088
289.1442192
290.3724215
291.5648585
292.671763
293.6543601
294.4912492
295.1797794
295.7322821
296.1698392
296.5161491
296.7930425
297.0180959
297.2040505
297.3594079
297.4895756
297.5980602
297.6874325
297.759918
297.8176956
297.8629376
297.8977679
297.9241617
297.9438815
297.9584286
297.9690412
297.9767072
297.9821995
297.9861148
297.9889031
297.9909239
297.9924325
297.9936251
297.9947544
297.9952782
297.9976255
294.245331
293.8205442
292.873834
290.7464806
285.6310157
280.3220287
279.2534879
279.4470509
279.6091494
279.7530969
279.941883
280.1463522
280.3903502
280.6754432
281.0132425
281.4094715
281.8728729
282.4130359
283.0399083
283.7631676
284.5904759
285.5264354
286.5690595
287.7069343
288.9155594
290.1555725
291.3771428
292.5271872
293.5595158
294.4443202
295.1715954
295.7493416
296.1978519
296.5428955
296.8100539
297.0211442
297.1926714
297.3358634
297.4576133
297.5617925
297.6505089
297.7250905
297.7866871
297.8365671
297.8761574
297.9069878
297.9305761
297.9483406
297.9615307
297.9712035
297.9782187
297.9832599
297.986861
297.9894292
297.9912953
297.9926919
297.9938058
297.9948857
297.9953561
297.9976918
294.4425093
293.9373524
292.7568122
290.0343477
283.9674143
280.0499297
279.6913411
279.7916303
279.9624059
280.1241057
280.3321055
280.5606217
280.8317654
281.149035
281.5238474
281.96298
282.4756877
283.0722987
283.7629815
284.5570192
285.4601949
286.4729826
287.5866255
288.7811804
290.0230588
291.2639803
292.449024
293.5269672
294.4593672
295.2278648
295.8343959
296.2965429
296.6407361
296.8956018
297.0871564
297.2362371
297.3577225
297.4610682
297.5514866
297.6313495
297.7014566
297.7620036
297.8131714
297.8554102
297.8894737
297.9163509
297.9371373
297.9529297
297.9647387
297.9734475
297.9797907
297.9843635
297.9876374
297.9899761
297.991681
297.9929615
297.9939936
297.9950235
297.9954384
297.9977627
294.718391
294.1152912
292.6225235
289.0209029
282.5973088
279.9527196
280.077287
280.2250495
280.4095534
280.5916222
280.8219065
281.0784454
281.3816927
281.7371064
282.1559215
282.6457872
283.2160249
283.8768008
284.6372135
285.5051494
286.4838462
287.5691835
288.7441455
289.9777887
291.2274081
292.4389834
293.5563352
294.5343834
295.3458794
295.985063
296.465075
296.8112516
297.0540908
297.2233506
297.3442848
297.4360425
297.5115304
297.5783147
297.6399425
297.69737
297.7502019
297.79762
297.8389459
297.8739052
297.9026518
297.9256882
297.9437262
297.9575665
297.967997
297.9757361
297.9813991
297.9854951
297.9884347
297.9905383
297.9920778
297.9932394
297.9941878
297.9951669
297.9955245
297.9978381
295.0720115
294.3401341
292.4657025
287.76181
281.8171798
280.4786106
280.6018666
280.7536224
280.9552019
281.1610615
281.4173327
281.706149
282.0463169
282.44516
282.9138539
283.4608896
284.0953178
284.82643
285.6616
286.6052666
287.6556201
288.8027914
290.0220114
291.2710477
292.4982123
293.6480076
294.667932
295.522561
296.1979409
296.7006958
297.0534194
297.2869806
297.433926
297.5236865
297.5798603
297.6194564
297.6532429
297.6868933
297.7223685
297.7593242
297.7962942
297.8315668
297.8637114
297.8918188
297.9155146
297.934869
297.9502486
297.9621846
297.9712596
297.9780384
297.9830233
297.9866415
297.9892446
297.9911107
297.9924827
297.993524
297.9943876
297.9953134
297.9956144
297.997918
295.5253841
294.5992246
292.1945323
286.4703693
281.6439561
281.0194705
281.2377554
281.4016079
281.6230413
281.8553111
282.1401655
282.4638593
282.843617
283.2884483
283.8095022
284.4158279
285.1161772
285.9188101
286.8290553
287.8464581
288.9620571
290.1558114
291.3950032
292.6302611
293.8027052
294.8589918
295.7555829
296.4691889
296.999578
297.3643734
297.5932632
297.720385
297.7785814
297.795842
297.7935221
297.7862591
297.7826579
297.7865774
297.7985128
297.8169506
297.8394811
297.8636154
297.8872713
297.9089897
297.927935
297.9437962
297.9566325
297.9667321
297.97449
297.9803292
297.9846465
297.9877918
297.99006
297.9916891
297.9928934
297.993814
297.9945923
297.995462
297.9957075
297.9980025
296.0938759
294.8947527
291.7356438
285.3731553
281.7805733
281.7440576
281.9932747
282.1711927
282.4140298
282.6743144
282.9897122
283.3504576
283.7723975
284.265963
284.8421368
285.5100333
286.2776378
287.151281
288.1325041
289.2152307
290.3828357
291.6038808
292.8343029
294.0226576
295.1082459
296.0427027
296.7957121
297.3574068
297.7400781
297.9701505
298.0818763
298.1106264
298.0881673
298.0402886
297.9857833
297.9368595
297.9000361
297.8774877
297.8683871
297.8701881
297.8796612
297.8936492
297.9095115
297.9253158
297.9398271
297.9524012
297.9628253
297.9711698
297.97766
297.9825888
297.9862553
297.9889368
297.9908753
297.9922698
297.9933077
297.9941079
297.9948013
297.9956151
297.9958032
297.9980916
296.7472494
295.1623143
291.1018412
284.7641508
282.623877
282.5725073
282.8388468
283.0378933
283.3060909
283.5989004
283.9500447
284.3533697
284.8233734
285.3713526
286.0075848
286.740423
287.5762849
288.5185209
289.5636651
290.6983281
291.8963404
293.117843
294.3089392
295.4159225
296.3844538
297.1743765
297.7704031
298.1759807
298.4135656
298.5158198
298.5192172
298.4587149
298.3640392
298.2583391
298.1577374
298.0720811
298.0059452
297.9599795
297.932185
297.9191174
297.9168432
297.9216361
297.9303806
297.940741
297.9511384
297.960639
297.9687904
297.9754694
297.9807484
297.9848019
297.9878389
297.9900695
297.9916856
297.9928499
297.9937237
297.9944049
297.9950144
297.9957759
297.9959013
297.9981858
297.4555862
295.3608201
290.4254254
284.7930491
283.3903386
283.5046691
283.7820841
284.0070804
284.3045747
284.6341726
285.0256466
285.4761594
285.9988599
286.6054107
287.3049932
288.1043397
289.0068521
290.0112688
291.1082079
292.2761188
293.4783159
294.667014
295.7863809
296.7793576
297.6050048
298.2348633
298.6677122
298.9189005
299.0182265
299.0020672
298.907183
298.7669127
298.6083515
298.4518229
298.3108258
298.1929948
298.1011392
298.0345541
297.9902183
297.9639149
297.9511125
297.9476043
297.9498743
297.9552446
297.9618423
297.9684828
297.9745041
297.9796115
297.9837401
297.986957
297.989389
297.9911839
297.9924871
297.9934268
297.9941399
297.994704
297.9952308
297.9959381
297.9960065
297.9982847
298.1751943
295.4896196
289.8588405
284.9088164
284.3729872
284.5522754
284.8413634
285.0953044
285.4235663
285.7914419
286.2249558
286.7242496
287.3011651
287.9672557
288.7302834
289.5945033
290.5587894
291.6152985
292.7462546
293.9220775
295.0978214
296.2195457
297.2333973
298.0852675
298.7493537
299.2112422
299.4813257
299.5845644
299.55537
299.4316286
299.2489386
299.0382374
298.8237035
298.6228376
298.4466623
298.3007936
298.1864676
298.1017933
298.0428677
298.0048165
297.9826047
297.9716233
297.9680209
297.9688314
297.9719314
297.9759202
297.9799532
297.9835838
297.9866248
297.9890462
297.9908996
297.9922757
297.9932766
297.9939985
297.9945549
297.9950042
297.9954498
297.9960999
297.9961149
297.9983876
298.7861912
295.5778699
289.5482026
285.6531257
285.4810081
285.7039899
286.0099322
286.2958419
286.6575702
287.0666132
287.5452447
288.0959959
288.7291273
289.4551544
290.2794296
291.2024443
292.2177278
293.3100992
294.4523196
295.6055734
296.7206808
297.7421662
298.6196165
299.3115084
299.8037346
300.0966324
300.2096912
300.1747574
300.0284918
299.8085413
299.5483676
299.2760773
299.0128758
298.7735689
298.5669083
298.3967043
298.2628113
298.1623109
298.090547
298.0420905
298.0114855
297.9937894
297.9848715
297.9815245
297.9814126
297.9829498
297.9851322
297.9873798
297.9893961
297.9910638
297.9923663
297.9933416
297.9940517
297.9945632
297.9949676
297.9953047
297.9956711
297.9962622
297.9962241
297.9984939
299.3210578
295.6501037
289.6159006
286.7306821
286.7152954
286.9594498
287.286933
287.6092481
288.0083698
288.4622835
288.989325
289.5935861
290.2832931
291.0668529
291.9461404
292.9166957
293.9657023
295.0702791
296.1951537
297.2930446
298.313557
299.2045381
299.9226894
300.4431282
300.7607763
300.88929
300.8549116
300.6936245
300.4424493
300.1375405
299.8096556
299.4839144
299.1786471
298.9061683
298.6731892
298.4819281
298.3310384
298.2167201
298.1336779
298.076018
298.0379361
298.0142142
298.0004915
297.9933592
297.9903029
297.9895776
297.9900415
297.9909971
297.9920507
297.9930066
297.993786
297.994379
297.9948105
297.9951195
297.9953769
297.9956048
297.995895
297.9964298
297.9963382
297.9986033
299.7690503
295.7463266
290.1930178
287.8833803
288.0726597
288.3358457
288.688398
289.0492658
289.4871781
289.9865532
290.5617018
291.2173752
291.9593557
292.7929813
293.7157672
294.7173618
295.7777696
296.8662757
297.9407995
298.9508558
299.8463944
300.5829846
301.1281048
301.4718233
301.6184013
301.5914476
301.4216544
301.1467715
300.8028009
300.4236092
300.0369991
299.665139
299.3236772
299.0226764
298.767042
298.5576032
298.3919773
298.2656118
298.172673
298.1068802
298.0621423
298.0330167
298.0149537
298.0043784
297.9986256
297.9958152
297.9946856
297.9944364
297.9945875
297.9948727
297.9951569
297.9953863
297.9955515
297.9956663
297.9957821
297.995904
297.9961213
297.996599
297.996458
297.9987152
300.2525418
295.9101646
290.7068495
289.2526751
289.5573659
289.8379376
290.2165457
290.6155428
291.0912113
291.6339028
292.2540156
292.9559644
293.7425817
294.6151384
295.5658473
296.5776946
297.6233771
298.6652192
299.6565907
300.5486369
301.2945627
301.8605226
302.2264957
302.3948959
302.3787448
302.208152
301.9161724
301.5405322
301.1153105
300.671662
300.2344116
299.8229327
299.4504354
299.1249783
298.849886
298.6247836
298.4463994
298.3095417
298.2079249
298.1349483
298.0842873
298.050317
298.0283349
298.0146287
298.0064081
298.0016775
297.9990721
297.9977009
297.9970072
297.9966615
297.9964778
297.9963621
297.9962736
297.9962026
297.9961821
297.9962015
297.9963494
297.9967683
297.9965836
297.9988277
300.7677362
296.2464929
291.5486241
290.7694694
291.1461445
291.4492586
291.8545785
292.2913203
292.8038648
293.3874644
294.0487474
294.7906392
295.6122948
296.509927
297.4696758
298.4676529
299.4699752
300.4341389
301.312713
302.0611145
302.6397644
303.0266953
303.214101
303.2143056
303.0470422
302.7462059
302.345507
301.8814264
301.3856081
300.8863455
300.4056109
299.9602072
299.5611663
299.2147839
298.9230095
298.6844294
298.4950116
298.3490228
298.2397998
298.1604791
298.1045469
298.0662329
298.0407114
298.0241587
298.0136799
298.0071818
298.0032103
298.0007951
297.9993116
297.9983733
297.9977483
297.9973057
297.9969759
297.9967277
297.9965765
297.996497
297.9965789
297.9969375
297.9967151
297.9989397
301.3657142
296.7673879
293.0447317
292.4023239
292.8227747
293.1542122
293.5872341
294.0616006
294.6103116
295.2319814
295.9294521
296.7029376
297.547123
298.4524251
299.3986951
300.3558321
301.2851974
302.1425125
302.883072
303.4689662
303.8704929
304.0773421
304.092467
303.935413
303.6305098
303.2132955
302.7168961
302.1757938
301.6189807
301.0719278
300.553965
300.0795792
299.6578801
299.2936234
298.9875677
298.737405
298.5384539
298.384523
298.2686347
298.1837109
298.1230866
298.0808767
298.0521579
298.0330165
298.0204712
298.0123463
298.0071108
298.0037248
298.0015034
298.0000091
297.9989683
297.9982166
297.9976578
297.9972407
297.9969644
297.99679
297.9968094
297.997106
297.9968524
297.9990531
302.0891803
297.7022315
294.4200516
294.1409028
294.5841036
294.9485814
295.4096933
295.9201589
296.502515
297.1568809
297.8821257
298.6747791
299.5245294
300.4158414
301.322846
302.2107854
303.0388232
303.7641047
304.3475047
304.7596369
304.9818278
305.0136391
304.86685
304.5657543
304.1373725
303.6173265
303.0373603
302.4295603
301.8202534
301.2322449
300.6824735
300.1833682
299.7423558
299.3628523
299.0445867
298.7844814
298.5773002
298.4164648
298.2947363
298.2048628
298.1400602
298.0943541
298.0627455
298.0412488
298.0268119
298.0171896
298.0107845
298.0064961
298.0035858
298.0015704
298.0001383
297.9990947
297.9983187
297.9977412
297.9973453
297.9970799
297.9970404
297.9972732
297.9969957
297.9991668
302.9296698
298.8070522
296.035224
295.9830172
296.4355704
296.8349905
297.3220364
297.8634667
298.4727307
299.1498498
299.8895656
300.6841303
301.5181549
302.3706289
303.2112288
304.0026871
304.70474
305.2787138
305.6929861
305.927608
305.9744852
305.8407706
305.5449503
305.1139962
304.57612
303.9659692
303.3134481
302.6481109
301.9937386
301.3706901
300.7937749
300.2736095
299.8161548
299.4236624
299.0949717
298.8263417
298.6120618
298.4452266
298.3183813
298.224134
298.1556085
298.106763
298.0725408
298.0488999
298.0327308
298.0217298
298.0142426
298.0091155
298.0055623
298.0030586
298.0012587
297.9999397
297.9989583
297.9982286
297.9977185
297.9973664
297.9972712
297.9974386
297.9971452
297.9992803
303.8603478
299.9006676
297.7951423
297.9223763
298.3785786
298.8080105
299.3153647
299.8789383
300.5043378
301.1902654
301.9273173
302.7032527
303.4979583
304.285984
305.0343351
305.7056321
306.2627028
306.6730286
306.9134548
306.9734181
306.8534434
306.5665684
306.1357903
305.5891786
304.9550301
304.2663922
303.5511103
302.8362493
302.1432389
301.4902353
300.8901724
300.3520789
299.8806405
299.4770977
299.1395184
298.863589
298.6431922
298.4711463
298.3398182
298.2417048
298.1698603
298.1181936
298.0816059
298.0560117
298.0382554
298.0259845
298.0174961
298.0115896
298.0074366
298.0044758
298.0023303
298.0007519
297.9995763
297.9987024
297.9980835
297.9976489
297.9975012
297.997602
297.997301
297.9993931
304.9474647
301.085052
299.6891273
299.9384281
300.3958866
300.8479215
301.3680565
301.9431488
302.5718677
303.2505734
303.965919
304.7014534
305.4332034
306.1327943
306.7666251
307.2994896
307.6992266
307.9405451
308.0088376
307.9019003
307.6265228
307.2003212
306.6488566
306.0001506
305.2818521
304.5251005
303.755641
302.998193
302.2720672
301.5934591
300.9736618
300.4203159
299.9369983
299.524068
299.1789232
298.8967536
298.6710926
298.4945242
298.3592691
298.2577374
298.1829321
298.1287283
298.0899978
298.062623
298.0434115
298.0299707
298.0205555
298.0139248
298.0092123
298.0058237
298.003354
298.0015312
298.0001723
297.9991622
297.9984397
297.9979272
297.9977298
297.9977631
297.9974633
297.999504
306.1627719
302.5398808
301.6810766
302.0095843
302.4646212
302.9310121
303.4547858
304.0290554
304.6466357
305.3008409
305.9747429
306.6484216
307.2953535
307.8860079
308.3881727
308.7706413
309.0073938
309.0805949
308.9835417
308.7207168
308.3031026
307.7518039
307.0934403
306.355175
305.563605
304.7478576
303.931667
303.1375971
302.383081
301.6825818
301.0459622
300.4796493
299.9862538
299.5653641
299.2137939
298.9263004
298.6961158
298.5156261
298.376932
298.272377
298.1949289
298.1384418
298.0977689
298.0687696
298.0482234
298.0337041
298.023431
298.0161273
298.0108932
298.0071045
298.0043304
298.0022779
298.0007464
297.9996075
297.9987865
297.9982007
297.997956
297.9979215
297.9976319
297.9996113
307.4667161
304.2115203
303.7387811
304.11352
304.5613094
305.0325328
305.54938
306.1089549
306.6995945
307.3114995
307.9247328
308.5168963
309.0604478
309.5264566
309.8857067
310.1121523
310.1862687
310.0972407
309.8451272
309.4391901
308.893224
308.2307077
307.4782968
306.6617706
305.8065337
304.9397132
304.0832027
303.257616
302.4787402
301.7595143
301.1085553
300.5312277
300.0292969
299.6016745
299.2446619
298.9526378
298.7185738
298.5346877
298.3929832
298.2857537
298.2059454
298.1474018
298.1049668
298.0744846
298.0527133
298.0371996
298.0261322
298.018203
298.0124827
298.0083198
298.0052607
298.0029923
298.0012981
298.0000379
297.9991235
297.9984692
297.998179
297.9980769
297.9978066
297.9997125
308.852704
306.0003242
305.8328901
306.2261038
306.6609418
307.1259222
307.6245952
308.1552759
308.7029067
309.2552104
309.7903254
310.2844898
310.7105497
311.0416643
311.2526696
311.3231478
311.2398032
310.9979738
310.6030762
310.0674301
309.4069706
308.6462581
307.8114447
306.9266542
306.0161201
305.1050564
304.2137127
303.3609635
302.5611591
301.8259005
301.162719
300.5760446
300.0669003
299.6335997
299.2719926
298.9761248
298.7387417
298.5519182
298.4075798
298.2979843
298.216067
298.15567
298.1116351
298.0797983
298.056902
298.040471
298.0286681
298.0201578
298.0139843
298.0094718
298.0061455
298.0036746
298.0018276
298.000453
297.99945
297.9987322
297.9983978
297.9982288
297.9979859
297.9998055
310.3036049
307.8728657
307.8863156
308.3258224
308.7403297
309.1855107
309.6531224
310.1407149
310.6304471
311.1078689
311.5504682
311.9343908
312.2339417
312.4254047
312.4881858
312.407388
312.1752676
311.7922422
311.267689
310.6157451
309.8539228
309.0068789
308.1000077
307.1556977
306.1970974
305.2476494
304.3261564
303.4499542
302.6321421
301.883147
301.2095499
300.6149561
300.0997324
299.6616615
299.2961923
298.9970764
298.756862
298.5675026
298.4208614
298.3091727
298.2253701
298.1633016
298.1178134
298.0847384
298.0608086
298.0435312
298.031047
298.0219969
298.0154011
298.0105622
298.0069859
298.004325
298.0023346
298.0008525
297.9997658
297.9989892
297.9986114
297.9983771
297.9981669
297.9998909
311.8030549
309.7992508
310.0109941
310.3808636
310.7700099
311.1838482
311.6082133
312.039836
312.4590462
312.8497012
313.1894226
313.4555626
313.6246876
313.676726
313.5957123
313.3717646
313.001816
312.4902703
311.8492739
311.0939716
310.2427786
309.3200211
308.3501773
307.3539486
306.3535029
305.3706875
304.4230447
303.5265532
302.6932257
301.9324554
301.2499891
300.6487003
300.1283726
299.6863141
299.3176163
299.0157693
298.7731486
298.5816048
298.4329524
298.3194122
298.2339237
298.1703468
298.1235375
298.0893302
298.0644505
298.046392
298.033277
298.0237254
298.0167365
298.0115928
298.0077827
298.0049439
298.002819
298.0012358
298.0000702
297.9992398
297.9988188
297.998522
297.9983467
297.9999792
313.3123018
311.7419604
312.018519
312.3703755
312.7249121
313.0974537
313.468176
313.8330646
314.1715937
314.4672125
314.6980023
314.8433489
314.882637
314.7995145
314.5823461
314.2255538
313.7298437
313.1026278
312.3578892
311.5112076
310.5813912
309.5922876
308.5673764
307.5257781
306.4888146
305.4769168
304.506535
303.5924526
302.7457363
301.9748675
301.2848565
300.6779235
300.1533306
299.7079591
299.3365799
299.0324499
298.7877929
298.5943722
298.443965
298.3287871
298.2417903
298.1768516
298.1288405
298.0935971
298.0678441
298.0490647
298.0353656
298.0253483
298.0179933
298.0125654
298.0085369
298.0055316
298.0032809
298.0016028
298.000363
297.9994835
297.9990191
297.9986635
297.998528
298.0000648
314.8196904
313.6574089
313.9558744
314.2721866
314.5842541
314.9061411
315.2147402
315.5049694
315.7561973
315.9522765
316.0722788
316.097938
316.0116946
315.8006989
315.4571337
314.978971
314.369864
313.6394322
312.8027924
311.8755407
310.8766295
309.8293825
308.756252
307.6748926
306.6059759
305.5686613
304.578455
303.6490895
302.7908056
302.0112766
301.3148587
300.7031856
300.1750502
299.726948
299.3533609
299.0473365
298.8009651
298.6059363
298.4539998
298.3373735
298.2490269
298.1828576
298.1337529
298.0975611
298.0710049
298.0515599
298.0373198
298.0268702
298.0191746
298.0134817
298.0092494
298.0060885
298.0037202
298.0019531
298.0006439
297.9997198
297.9992112
297.9988017
297.998709
298.0001445
316.3110841
315.5047688
315.7859682
316.0637003
316.3277811
316.5925075
316.8334582
317.0445749
317.2057998
317.301612
317.3127197
317.2232247
317.0185668
316.6890241
316.2300051
315.6423412
314.9319333
314.1099954
313.1922549
312.1940605
311.1344368
310.0361992
308.9207526
307.8044426
306.7074956
305.6479065
304.6403733
303.6977046
302.8294166
302.0424633
301.3406168
300.7249816
300.193926
299.7435948
299.368208
299.0606251
298.8128188
298.6164163
298.4631485
298.3452411
298.2556855
298.1884038
298.1383028
298.1012423
298.0739471
298.0538876
298.0391466
298.0282957
298.0202834
298.0143437
298.0099211
298.006615
298.004137
298.0022865
298.0009127
297.9999482
297.9993944
297.9989365
297.9988894
298.0002167
317.7678748
317.2503675
317.494792
317.7292237
317.9414684
318.1451949
318.3159049
318.4467377
318.5186076
318.5167879
318.4239275
318.2263219
317.9121946
317.4745233
316.9113726
316.2258574
315.4255535
314.5228253
313.5336348
312.4729969
311.3599803
310.2169374
309.0642266
307.9171355
306.7955255
305.716359
304.6936438
303.7393735
302.8624257
302.0691116
301.3626782
300.7437501
300.2103091
299.7581798
299.3813444
299.0724923
298.8234925
298.6259202
298.4714942
298.3524532
298.2618141
298.1935255
298.1425165
298.1046597
298.0766844
298.0560573
298.0408525
298.0296292
298.0213225
298.0151529
298.0105531
298.0071117
298.0045314
298.0026027
298.0011691
298.0001679
297.9995681
297.9990682
297.9990661
298.0002811
319.1706948
318.869159
319.067886
319.2565823
319.4157048
319.5575059
319.6584139
319.7108686
319.6969552
319.602846
319.4131152
319.1160724
318.7023982
318.1673881
317.5112695
316.7389661
315.8592732
314.8853913
313.8332971
312.717707
311.5576638
310.3751446
309.1895169
308.0152918
306.8719083
305.7754881
304.7394397
303.7750348
302.8905859
302.0918271
301.3815308
300.7598843
300.2245159
299.7709571
299.392973
299.0830993
298.8331134
298.6345471
298.4791137
298.3590687
298.267457
298.1982562
298.1464185
298.1078312
298.0792295
298.0580782
298.0424439
298.030875
298.0222947
298.0159114
298.0111465
298.007579
298.0049035
298.0029017
298.0014132
298.0003783
297.9997316
297.9991971
297.9992374
298.0003403
320.5021096
320.3434875
320.49582
320.638404
320.7457341
320.8276186
320.8618802
320.840383
320.7464942
320.5673115
320.289136
319.9021866
319.3992218
318.7775233
318.0390846
317.1902456
316.2406835
315.2042324
314.0968023
312.9328
311.7312544
310.5138792
309.2991463
308.1009035
306.9382366
305.8265719
304.7787888
303.8055174
302.9145673
302.1111527
301.3976149
300.773741
300.2368352
299.7821597
299.4032807
299.0925951
298.8417993
298.6423898
298.486079
298.365143
298.2726566
298.2026275
298.1500324
298.1107742
298.0815951
298.0599593
298.0439271
298.0320377
298.0232032
298.016621
298.0117024
298.0080177
298.0052536
298.0031835
298.0016448
298.0005786
297.9998845
297.9993235
297.9994017
298.0003955
321.7471669
321.6619873
321.774243
321.8732109
321.9323535
321.9585329
321.9312276
321.8418853
321.6752101
321.4191739
321.0616646
320.5945879
320.0124679
319.3142513
318.5034043
317.5873654
316.5764707
315.4850977
314.3290335
313.1222336
311.8840037
310.6358435
309.395376
308.1756784
306.9959049
305.8707403
304.8126079
303.8315665
302.934977
302.1275839
301.4113348
300.7856502
300.2475353
299.7920046
299.4124425
299.1011198
298.8496616
298.6495358
298.4924587
298.3707291
298.2774534
298.2066703
298.1533813
298.1135059
298.0837938
298.0617095
298.0453086
298.0331216
298.0240509
298.0172838
298.0122223
298.0084285
298.005582
298.0034483
298.001864
298.0007681
298.0000269
297.9994476
297.9995545
298.0004376
322.8957442
322.8283882
322.9069709
322.9658032
322.9810953
322.9567665
322.8739997
322.7238728
322.4923076
322.1680612
321.7405069
321.2029101
320.551321
319.7860912
318.9119182
317.9370899
316.8724922
315.7330082
314.5341576
313.2894004
312.0187405
310.7433977
309.4800618
308.2411019
307.0461499
305.909004
304.8417235
303.8538597
302.9523715
302.1415779
301.423066
300.7959192
300.2568671
299.8006958
299.420623
299.1088055
298.8568056
298.6560685
298.498318
298.3758777
298.2818864
298.2104141
298.1564876
298.1160428
298.0858378
298.063338
298.0465948
298.0341314
298.0248411
298.017902
298.0127075
298.0088123
298.0058891
298.0036962
298.0020708
298.000946
298.0001589
297.9995681
297.9996918
298.0004698
323.9072637
323.8532646
323.9013983
323.9240922
323.900369
323.831299
323.6996749