/*--------------------------------*- C++ -*----------------------------------*\
  =========                 |
  \\      /  F ield         | OpenFOAM: The Open Source CFD Toolbox
   \\    /   O peration     | Website:  https://openfoam.org
    \\  /    A nd           | Version:  12
     \\/     M anipulation  |
\*---------------------------------------------------------------------------*/
FoamFile
{
    format      ascii;
    class       volVectorField;
    location    "250";
    object      U;
}
// * * * * * * * * * * * * * * * * * * * * * * * * * * * * * * * * * * * * * //

dimensions      [0 1 -1 0 0 0 0];

internalField   nonuniform List<vector> 
16200
(
(178.9941698 -7.354599403e-17 -1.461882666)
(213.270932 3.558161204e-17 -1.383873977)
(232.4957099 -2.474408507e-20 -1.55223126)
(247.5630926 0 -1.717057331)
(261.4519044 0 -1.896823911)
(275.7924836 -2.512364641e-17 -2.112543327)
(290.8749821 2.876063993e-17 -2.40747003)
(303.4752108 6.25132745e-17 -2.771572858)
(307.7004534 -1.223281501e-16 -2.924563851)
(307.7903017 1.097588807e-16 -2.917202932)
(307.4875222 -4.693767823e-17 -2.996705779)
(307.21451 0 -2.993239051)
(306.8707709 0 -3.087057601)
(306.4867488 -5.481422899e-17 -3.116200643)
(306.02635 4.577691324e-17 -3.214251137)
(305.4983272 0 -3.285423104)
(304.8815683 0 -3.399009955)
(304.1664703 8.405917779e-19 -3.513593856)
(303.3332664 4.546920774e-17 -3.657986183)
(302.3633186 -3.693256679e-17 -3.818493209)
(301.2333273 0 -4.004865088)
(299.9185338 -2.550769769e-17 -4.212722869)
(298.3926209 2.28372945e-17 -4.442662698)
(296.6277998 3.88614e-17 -4.68920204)
(294.5972842 -3.266114824e-17 -4.944263227)
(292.2790723 -2.792103597e-17 -5.19351864)
(289.6600214 2.348949275e-17 -5.416116966)
(286.742272 0 -5.583743484)
(283.5504087 0 -5.66250082)
(280.1376349 5.862240343e-17 -5.617809826)
(276.5876472 -3.69780465e-17 -5.423068563)
(273.0086759 -1.062009966e-17 -5.069594887)
(269.5198795 0 -4.573232573)
(266.2334698 -4.658589589e-17 -3.973704219)
(263.2394507 5.23355783e-17 -3.325664178)
(260.5967253 -8.97667568e-17 -2.685643372)
(258.3318701 7.568644357e-17 -2.099936851)
(256.4433801 0 -1.597648414)
(254.9079942 0 -1.189958923)
(253.6885327 0 -0.8736984221)
(252.7399948 7.780645271e-17 -0.6370713766)
(252.0159832 -1.313338001e-16 -0.4646652222)
(251.4721167 1.10501215e-16 -0.3412413214)
(251.0692265 0 -0.2535903987)
(250.7740582 1.569376067e-16 -0.1913287772)
(250.5597938 -1.32038895e-16 -0.1467366027)
(250.4053059 -3.401276389e-20 -0.1143470785)
(250.2945325 1.872133277e-16 -0.09038582792)
(250.2153845 -3.154070352e-16 -0.07229842258)
(250.1590031 2.656596941e-16 -0.05836171685)
(250.1188921 2.239373371e-16 -0.0474129218)
(250.0903354 3.777795573e-16 -0.03866166249)
(250.0699618 -3.18859244e-16 -0.03156089885)
(250.0552413 8.082579053e-16 -0.0257266483)
(250.0445497 -4.558037859e-16 -0.02088362142)
(250.0361457 0 -0.01685724996)
(250.0299493 1.638518257e-16 -0.01339132467)
(250.0237687 0 -0.01078830896)
(250.0200098 -4.753410468e-16 -0.006880131458)
(250.0122831 -3.971127107e-19 -0.008860719813)
(182.2230868 -1.554831062e-16 -4.035100844)
(217.3753394 1.522382781e-16 -4.272572946)
(237.0752469 -5.500096346e-17 -4.748627033)
(252.5410577 -4.912500979e-17 -5.121213028)
(266.913847 5.039615042e-17 -5.494603377)
(281.8716148 0 -5.916479023)
(297.1551665 0 -6.445423558)
(307.7381937 6.752869939e-17 -6.886266764)
(310.1479369 -6.353690991e-17 -7.007655217)
(310.0590406 0 -6.985451467)
(309.7334719 0 -7.078864673)
(309.4387607 0 -7.064165655)
(309.0685073 -6.800591499e-17 -7.163752363)
(308.6542322 5.677968976e-17 -7.18596925)
(308.1556361 -1.458595998e-18 -7.282558036)
(307.5816674 -1.222722241e-18 -7.347020172)
(306.9093479 0 -7.4531587)
(306.1277087 -2.592514336e-18 -7.556882119)
(305.2151052 0 -7.686576527)
(304.1508877 1.213869555e-18 -7.827634433)
(302.9096583 4.118837706e-18 -7.988174574)
(301.464386 -2.970186153e-17 -8.162453883)
(299.7870038 -1.790802773e-17 -8.348476968)
(297.8486347 3.970771111e-17 -8.537632122)
(295.6225413 0 -8.717548356)
(293.0888804 7.162361805e-18 -8.868696254)
(290.2397945 -1.218181611e-17 -8.964066104)
(287.0869022 0 -8.968985492)
(283.6690508 -3.556362081e-17 -8.844334001)
(280.0573302 1.4866786e-17 -8.553660359)
(276.3532993 -3.867067789e-17 -8.074146196)
(272.6777557 1.099156693e-17 -7.407375025)
(269.1526433 -3.759025995e-17 -6.584405521)
(265.8821738 -1.599293912e-17 -5.661720089)
(262.9405572 0 -4.708902829)
(260.3680037 4.647424706e-17 -3.793370445)
(258.1750103 -3.917859948e-17 -2.96774415)
(256.3487059 0 -2.263442594)
(254.8608709 1.12819169e-16 -1.690848346)
(253.6734382 -9.532098541e-17 -1.243835383)
(252.743972 8.045410141e-17 -0.9062813102)
(252.0292433 2.713757889e-16 -0.6578392261)
(251.4884052 -1.141646064e-16 -0.4783358179)
(251.0848701 0 -0.3500560092)
(250.7873605 4.858633519e-16 -0.2587832075)
(250.5702098 -5.449046328e-16 -0.1937022598)
(250.4129757 -3.437948734e-16 -0.1469574727)
(250.2998636 3.856013841e-16 -0.1129909953)
(250.2188817 0 -0.08795294916)
(250.1611291 -2.728590211e-16 -0.06919259126)
(250.1200408 2.295786097e-16 -0.05489933929)
(250.0908338 5.796938847e-16 -0.04382589656)
(250.0700437 3.253943045e-16 -0.03511281398)
(250.05511 -2.740828127e-16 -0.02814841829)
(250.0442782 9.240113585e-16 -0.02252302041)
(250.0359158 -7.793173065e-16 -0.01792699615)
(250.0296298 -4.933786427e-16 -0.01408008281)
(250.0235997 5.558583428e-16 -0.01125513717)
(250.019807 1.058111851e-15 -0.007020132786)
(250.0117652 9.80390066e-17 -0.008949144315)
(185.3821125 -1.607676698e-19 -6.673803816)
(221.4193343 1.634098812e-16 -7.395630097)
(241.6057184 -2.384400926e-16 -8.163053585)
(257.4997869 1.079159275e-16 -8.768582667)
(272.4042309 1.126262463e-16 -9.366542678)
(287.9433913 -2.53535706e-16 -10.03126876)
(303.0684682 2.822586575e-16 -10.81200053)
(311.007231 3.679157281e-19 -11.24537787)
(312.1064657 -2.684133655e-16 -11.34748851)
(311.8874807 1.173805371e-16 -11.3062873)
(311.5406051 0 -11.40899067)
(311.2197964 8.068577932e-17 -11.37814404)
(310.8154365 -6.730830432e-17 -11.47756475)
(310.3624352 -2.681371189e-18 -11.48824138)
(309.816541 4.950436487e-17 -11.57695485)
(309.1866034 3.865464857e-18 -11.62958703)
(308.4477703 -3.371101488e-17 -11.72226856)
(307.5875233 1.778568444e-18 -11.80994459)
(306.5822918 -4.784384545e-17 -11.91967186)
(305.4092899 3.760836474e-17 -12.03640738)
(304.0410198 -1.612495883e-20 -12.16583815)
(302.4482748 -2.158318891e-17 -12.30019432)
(300.6014248 1.806880921e-17 -12.43388566)
(298.4709101 0 -12.5541698)
(296.0307735 -4.365969586e-17 -12.64325628)
(293.2647354 7.218549271e-18 -12.67518574)
(290.1726899 3.787220478e-17 -12.61562511)
(286.7795058 2.182493721e-17 -12.42291688)
(283.1427486 1.879294822e-17 -12.05365601)
(279.3549789 -1.528962833e-17 -11.47289269)
(275.5366004 1.571491176e-19 -10.66710496)
(271.8184888 -4.566419809e-17 -9.654215643)
(268.3202024 3.883737672e-17 -8.484944835)
(265.1320174 -9.966423631e-17 -7.233835719)
(262.3072438 2.806375307e-17 -5.983451991)
(259.8644322 0 -4.808013722)
(257.796231 -8.137511049e-17 -3.761879583)
(256.0782207 -6.899903712e-17 -2.874922472)
(254.6769309 -1.870976378e-20 -2.154231)
(253.5539615 4.927290108e-17 -1.589621209)
(252.6696673 -8.291925864e-17 -1.160588428)
(251.9848355 -6.994168937e-17 -0.8424155977)
(251.462803 2.356334095e-16 -0.6107555553)
(251.0704917 2.975940605e-16 -0.4441339589)
(250.7793733 -1.667833541e-16 -0.3250873872)
(250.5656763 2.805632549e-16 -0.2401356534)
(250.410223 5.894906117e-16 -0.1793137013)
(250.2979772 -3.963100481e-16 -0.1354470945)
(250.2174143 6.659530984e-16 -0.1034856962)
(250.1598674 -2.79741314e-16 -0.07990270859)
(250.1189013 -4.699702229e-16 -0.06225955823)
(250.0898003 1.973593124e-16 -0.04886294937)
(250.0691132 -6.631070174e-16 -0.0385419892)
(250.0543136 0 -0.03046128051)
(250.0435909 -1.871216156e-15 -0.02406882631)
(250.0354094 7.85851686e-16 -0.01892554714)
(250.0291854 3.300445807e-16 -0.01471240299)
(250.0233387 -1.386152522e-16 -0.01167712669)
(250.0196893 -9.315482549e-16 -0.007144478326)
(250.0117224 0 -0.009026752034)
(188.3140084 -3.479313515e-16 -9.419677167)
(225.1547792 -1.711309206e-19 -10.72150071)
(245.8067045 0 -11.77586001)
(262.1821704 1.161724689e-19 -12.63605125)
(277.7046364 -1.263389239e-16 -13.48501502)
(293.7033779 1.424474082e-16 -14.41851501)
(307.9171031 -3.02788125e-19 -15.39613379)
(313.1787854 -6.050928579e-19 -15.7283432)
(313.4920218 1.086489921e-18 -15.82222843)
(313.2310627 1.185954178e-16 -15.75873197)
(312.8595636 -1.001239041e-16 -15.87205307)
(312.5093564 1.310287765e-18 -15.82634377)
(312.0679094 -6.997149981e-17 -15.92543244)
(311.5723244 6.030199786e-17 -15.92617297)
(310.9745196 4.910849887e-17 -16.00709237)
(310.2828184 -4.368152124e-17 -16.04883372)
(309.4705112 -4.315235758e-18 -16.12782169)
(308.5233061 0 -16.19877869)
(307.4157132 0 -16.28629813)
(306.1228163 0 -16.3746731)
(304.6151393 -3.929420755e-17 -16.46650427)
(302.8614188 1.46069215e-17 -16.5516193)
(300.8306659 3.746894706e-17 -16.62046505)
(298.493221 -2.10174559e-17 -16.65566336)
(295.8252882 2.691208243e-17 -16.63320563)
(292.8167947 1.523902473e-17 -16.51965286)
(289.4794697 -2.612608266e-17 -16.27261609)
(285.8563945 2.2001088e-17 -15.84404692)
(282.0281482 -1.888902934e-17 -15.18913933)
(278.110304 -2.538676636e-19 -14.27957218)
(274.239416 2.742891652e-17 -13.11712887)
(270.5499147 4.709409633e-17 -11.74076206)
(267.1509082 0 -10.22246585)
(264.1119119 6.846359541e-17 -8.653147307)
(261.4614422 0 -7.124414788)
(259.1954573 0 -5.712757887)
(257.2896699 2.098665117e-16 -4.470337704)
(255.7098409 3.543261213e-17 -3.422751726)
(254.4187751 2.403724937e-16 -2.572341316)
(253.3790402 5.076415331e-17 -1.904439468)
(252.5546013 5.560634946e-16 -1.394433373)
(251.9110051 -2.162057227e-16 -1.013867269)
(251.4163205 -1.213634526e-16 -0.7349592287)
(251.0415485 -9.18505654e-16 -0.5331602068)
(250.7613759 -1.261359041e-19 -0.3883180409)
(250.5543513 7.207655968e-16 -0.2847015629)
(250.4029144 6.054273771e-16 -0.2105241418)
(250.2930709 -1.118174282e-15 -0.1571860327)
(250.2139607 -5.118851576e-16 -0.1185550231)
(250.1573138 2.863075428e-16 -0.09030199888)
(250.1169341 -1.200519158e-15 -0.06940308986)
(250.088242 0 -0.05374434527)
(250.0678581 1.34955201e-15 -0.04185650433)
(250.0533126 1.130460806e-15 -0.0326898353)
(250.0427852 9.464508377e-16 -0.02555149553)
(250.0348214 0 -0.01988058397)
(250.0287036 6.621773268e-16 -0.0153101156)
(250.0230291 6.91546827e-17 -0.01207538051)
(250.0195094 -2.07803042e-15 -0.007267850132)
(250.0115168 3.174851319e-15 -0.00909611522)
(191.0241732 -7.368665291e-16 -12.32028221)
(228.6434805 3.764169918e-16 -14.22423898)
(249.7471764 -1.41259381e-16 -15.58603954)
(266.6443176 -5.329471321e-22 -16.7259097)
(282.8685747 0 -17.8571013)
(299.221857 3.127669536e-19 -19.08663872)
(311.2638043 2.612561523e-21 -20.13567415)
(314.4619047 0 -20.33363401)
(314.3887646 -2.254154727e-18 -20.43820956)
(314.1040182 -1.214498112e-16 -20.35161788)
(313.7020305 1.021465857e-16 -20.4743297)
(313.3176144 0 -20.41419373)
(312.8335413 -7.371759254e-17 -20.51083265)
(312.2888561 -1.997110209e-18 -20.5011695)
(311.6320257 4.697256837e-17 -20.57132211)
(310.8704406 -8.436640953e-17 -20.59940493)
(309.9756437 7.510749926e-17 -20.65997951)
(308.9313281 3.721853022e-18 -20.70851157)
(307.7099654 0 -20.76640582)
(306.2842074 4.245398317e-17 -20.81756675)
(304.622325 -4.457708025e-17 -20.86139569)
(302.6908485 3.791701617e-17 -20.88506328)
(300.4577754 -3.830772076e-17 -20.87420946)
(297.8946924 0 -20.8052769)
(294.9827278 -1.845446557e-17 -20.64621482)
(291.72233 0 -20.3547171)
(288.1425015 2.699104034e-17 -19.88033845)
(284.3097829 -2.273460428e-17 -19.17091245)
(280.3308284 0 -18.18518421)
(276.3430801 0 -16.90823376)
(272.4932922 0 -15.36347163)
(268.9104871 0 -13.61437496)
(265.6845903 0 -11.75383412)
(262.8584862 1.065684963e-16 -9.885585457)
(260.4337978 -1.506149628e-16 -8.105306669)
(258.384658 1.023026064e-16 -6.486971763)
(256.6721162 -1.729122387e-16 -5.076879828)
(255.2544929 -1.831683315e-16 -3.894047892)
(254.092775 -9.254229677e-17 -2.934972965)
(253.1517318 -1.564269648e-16 -2.180296661)
(252.3996673 -5.716073736e-16 -1.601674065)
(251.8073505 -2.962477169e-16 -1.167581138)
(251.3479131 4.364015846e-16 -0.8475630609)
(250.996764 8.384718332e-16 -0.6147063905)
(250.7321084 -7.045417633e-16 -0.4467661489)
(250.5351253 -7.394939696e-16 -0.3262173944)
(250.3901353 -8.688702844e-16 -0.2397818817)
(250.2844233 1.041160178e-15 -0.1776631891)
(250.2079769 1.222042821e-15 -0.1327973887)
(250.153069 -1.462816151e-16 -0.1001497125)
(250.1138509 1.347396491e-15 -0.07617176958)
(250.0859561 -1.845137012e-15 -0.05836676648)
(250.066138 -2.914533892e-15 -0.04498957765)
(250.0520162 -1.002731393e-15 -0.03479134735)
(250.0418008 0 -0.02694490993)
(250.0341158 1.59515064e-15 -0.02077609684)
(250.0281656 -4.980931805e-16 -0.01586561698)
(250.022671 -2.070586434e-16 -0.01244273341)
(250.0193192 1.832984651e-15 -0.007386188091)
(250.0113411 -3.034131591e-15 -0.009157424407)
(193.4887923 1.900720284e-19 -15.36404772)
(231.8988751 0 -17.90358101)
(253.4597499 1.505242798e-19 -19.59319818)
(270.8960483 -1.442387482e-19 -21.03835546)
(287.8157343 -3.113443229e-19 -22.48261209)
(304.2638038 0 -24.01156285)
(313.4790671 7.098460155e-19 -24.98557653)
(315.117854 -1.325760418e-18 -25.05509779)
(314.8218287 1.158122164e-18 -25.17238301)
(314.5178611 -9.764109867e-19 -25.06152353)
(314.0807704 0 -25.18994992)
(313.6579979 8.717947388e-17 -25.11399534)
(313.1267968 -7.283560093e-17 -25.20320195)
(312.5273851 6.30939761e-17 -25.18021696)
(311.8051551 -5.119833812e-17 -25.23434937)
(310.9658904 5.383767366e-18 -25.24419601)
(309.9792178 0 -25.28068063)
(308.8262184 -6.495410924e-17 -25.3009974)
(307.476876 5.128255231e-17 -25.32276486)
(305.9009939 -1.086370326e-17 -25.32924204)
(304.0646112 9.169367092e-18 -25.31567491)
(301.9328674 0 -25.26512699)
(299.4746122 0 -25.15665163)
(296.6657502 0 -24.95866129)
(293.4965509 0 -24.6297473)
(289.9831839 -6.524598639e-17 -24.11868211)
(286.1774577 -3.224729596e-19 -23.36902968)
(282.1734909 -2.373457323e-17 -22.3291759)
(278.1042773 2.094541449e-19 -20.96830227)
(274.1241004 1.718173751e-17 -19.2922382)
(270.3804761 -2.973132903e-17 -17.35109982)
(266.9863588 1.263775465e-16 -15.23372632)
(264.0042997 -8.624479987e-17 -13.0506893)
(261.4467104 -7.297422054e-17 -10.91310461)
(259.2885966 1.239486275e-16 -8.915123455)
(257.484975 -1.050947915e-16 -7.123806992)
(255.9857362 0 -5.57677935)
(254.7447967 -1.886290553e-16 -4.285042751)
(253.7235049 -2.863053931e-16 -3.238804067)
(252.8900925 1.071827856e-16 -2.414187169)
(252.217839 8.257840748e-20 -1.779651353)
(251.6830044 2.660798408e-16 -1.301300575)
(251.2639059 -5.114582119e-16 -0.9467373469)
(250.9404591 4.299917215e-16 -0.6873516805)
(250.6944957 1.443994459e-15 -0.4993702823)
(250.5099638 1.515019259e-16 -0.3639169231)
(250.3732029 -1.270050565e-16 -0.2665509932)
(250.2729139 0 -0.1965142246)
(250.2000497 -1.604981801e-15 -0.1459719334)
(250.1475242 1.492311917e-16 -0.1092913294)
(250.1099111 2.246406016e-15 -0.08246981752)
(250.0831149 3.127879905e-15 -0.06267328901)
(250.0640649 4.176679157e-15 -0.04790942331)
(250.0504972 0 -0.03674917034)
(250.0406819 0 -0.0282415751)
(250.0333227 -1.605638733e-15 -0.02160928862)
(250.0275826 1.664881675e-16 -0.0163797301)
(250.0222722 -2.756089073e-16 -0.01278041588)
(250.0191023 -1.820456322e-15 -0.007500292802)
(250.0111247 -5.849451583e-18 -0.00921227158)
(195.7143938 -2.016104888e-19 -18.54814422)
(234.9559838 2.177640541e-16 -21.75540192)
(256.9987717 -3.380573124e-16 -23.79928233)
(275.0292246 1.640261891e-16 -25.57972192)
(292.5704886 3.499108185e-19 -27.37224081)
(308.3846376 1.924910524e-16 -29.12884987)
(314.6943536 -1.924266058e-16 -29.91328601)
(315.3341218 1.375420864e-18 -29.87363748)
(314.8301932 -1.502062068e-16 -29.99952153)
(314.5030927 1.269516466e-16 -29.86178474)
(314.0260535 -1.658310866e-18 -29.99179002)
(313.5586965 0 -29.89979759)
(312.9731351 5.55537029e-22 -29.9777498)
(312.309733 -3.899473634e-18 -29.94016846)
(311.5111244 3.273490047e-18 -29.97520547)
(310.5807057 3.309012387e-17 -29.96470159)
(309.4860827 -3.69624877e-17 -29.97414632)
(308.2054157 0 -29.96270724)
(306.7063066 6.595657047e-18 -29.94295958)
(304.9562224 -3.354281804e-17 -29.89622322)
(302.9200907 3.749817573e-17 -29.81179405)
(300.5634962 1.600473595e-17 -29.66684781)
(297.858806 0 -29.43281668)
(294.7898594 -2.31334346e-17 -29.06966242)
(291.3605948 0 -28.52684011)
(287.6080518 -2.818512222e-19 -27.74551241)
(283.6116671 2.851619147e-17 -26.66690081)
(279.4953056 4.876418183e-17 -25.24651808)
(275.4150345 -4.170879539e-17 -23.47200462)
(271.5329768 0 -21.37654379)
(267.9855764 0 -19.03950788)
(264.8592461 7.046525264e-19 -16.57273872)
(262.1831758 -5.0529803e-19 -14.09876805)
(259.9383608 3.778027495e-17 -11.72955616)
(258.0758337 -1.599106319e-16 -9.552323071)
(256.5356372 -2.710530982e-17 -7.623697331)
(255.2605851 2.060874815e-16 -5.970839124)
(254.2033104 -2.71293657e-16 -4.596149265)
(253.3275547 2.608315157e-16 -3.483659466)
(252.6060649 2.756540676e-17 -2.605447629)
(252.0175262 -9.257776086e-17 -1.92741762)
(251.5437571 3.892088311e-17 -1.413991184)
(251.1682017 6.551154853e-17 -1.031502484)
(250.8752103 -9.350038622e-16 -0.7502510472)
(250.6502093 -7.386582075e-16 -0.5454486331)
(250.4799332 0 -0.397277753)
(250.3527886 1.038483363e-15 -0.2904477462)
(250.2589608 0 -0.2134671804)
(250.1904366 0 -0.1578920948)
(250.1408361 0 -0.1176027325)
(250.1052089 -4.190277609e-15 -0.08821729392)
(250.0797743 -1.588701221e-15 -0.06661415616)
(250.061671 -2.823239081e-15 -0.05058640473)
(250.0487748 -2.494954003e-15 -0.03854653155)
(250.0394381 -1.827766979e-15 -0.02943281625)
(250.0324482 0 -0.02237579877)
(250.026956 0 -0.01685166435)
(250.0218366 1.376029513e-16 -0.01308756108)
(250.0188661 1.809382998e-15 -0.007609667267)
(250.0108919 -1.156403319e-17 -0.009260905122)
(197.6588325 2.133417092e-19 -21.9015945)
(237.7769557 0 -25.76818915)
(260.3530267 1.809014276e-19 -28.21247452)
(279.0751761 -2.503015755e-23 -30.36463612)
(297.1743157 -1.990239551e-16 -32.55054849)
(311.0868968 2.098424208e-16 -34.35103127)
(315.0585686 0 -34.89365363)
(314.8558289 0 -34.77528041)
(314.3997786 1.532281126e-16 -34.91607753)
(314.0416781 1.983873867e-19 -34.75498397)
(313.5173251 -1.079360105e-16 -34.88448473)
(312.9958987 0 -34.77839791)
(312.3451923 2.368677782e-18 -34.84294767)
(311.6046143 6.77031115e-17 -34.7904688)
(310.7145963 -5.671778821e-17 -34.80333833)
(309.6757003 5.617887805e-18 -34.76856519)
(308.4538969 -4.745505235e-18 -34.7443024)
(307.0247736 8.006490604e-18 -34.69155153)
(305.3543777 -5.410580973e-17 -34.6167661)
(303.4089449 -3.581536208e-19 -34.49844137)
(301.1536041 8.69878756e-17 -34.31922021)
(298.5559068 -4.896696494e-17 -34.0493422)
(295.5939291 0 -33.65183576)
(292.2630968 -2.334195378e-19 -33.07809615)
(288.5863974 2.009417097e-17 -32.26946124)
(284.6275543 3.442936309e-17 -31.1621034)
(280.4973617 0 -29.70018788)
(276.348434 0 -27.85457656)
(272.3523404 -2.17681613e-17 -25.63969773)
(268.6665149 1.836522992e-17 -23.12056814)
(265.4037168 0 -20.40478951)
(262.6153676 -1.341150148e-16 -17.6216394)
(260.2946306 1.367824285e-16 -14.89817295)
(258.3932001 -1.931739223e-17 -12.34055373)
(256.8427335 -4.855934102e-19 -10.02457885)
(255.5732793 -2.22578927e-16 -7.994150557)
(254.5247322 -4.46091786e-16 -6.26526229)
(253.651317 4.152391417e-16 -4.831902181)
(252.9208689 -3.337119697e-17 -3.672502107)
(252.311424 0 -2.755782915)
(251.8072802 -4.740916168e-17 -2.045785651)
(251.395709 -5.978841089e-16 -1.50590174)
(251.0650757 0 -1.101794515)
(250.8039635 0 -0.8031986844)
(250.6012486 -7.5467294e-16 -0.5847569428)
(250.4463721 0 -0.4260716603)
(250.3297787 -9.27004891e-16 -0.3112830944)
(250.2431442 1.662306354e-15 -0.228377058)
(250.1795141 -9.26408596e-17 -0.1684529661)
(250.1332466 -2.397996208e-15 -0.1250117073)
(250.0998982 2.193477459e-15 -0.09336677846)
(250.0760309 -3.546326526e-15 -0.07015973329)
(250.0590158 0 -0.05300307121)
(250.0468853 2.373529024e-15 -0.04017383608)
(250.0380902 5.89793141e-15 -0.03051396787)
(250.031505 0 -0.02307350225)
(250.0262906 1.673193433e-16 -0.0172816116)
(250.0213677 -1.374318647e-16 -0.0133642578)
(250.0186069 1.799632007e-15 -0.007714343853)
(250.0106346 5.871425499e-15 -0.009303797308)
(199.1904966 -9.261142287e-16 -25.3851439)
(240.2234819 2.532933486e-16 -29.93045371)
(263.440653 -1.98814114e-19 -32.82403123)
(282.9152843 3.974254201e-19 -35.39021812)
(301.2905594 4.250546783e-19 -37.98635416)
(312.4488691 -2.218985379e-16 -39.59392536)
(314.1793718 2.081625501e-16 -39.92522947)
(313.9696365 0 -39.76045773)
(313.4598705 1.56136108e-16 -39.9267294)
(313.0622243 2.265228138e-19 -39.74347957)
(312.484552 -1.082208226e-16 -39.86933291)
(311.9012722 0 -39.75031095)
(311.1771677 2.422360704e-18 -39.79763962)
(310.3496891 0 -39.72713144)
(309.3577879 -1.400159205e-20 -39.71080726)
(308.1987983 0 -39.64209012)
(306.8373099 -3.888152014e-17 -39.57026902)
(305.2464647 -1.642850357e-19 -39.45810665)
(303.3911562 2.064333304e-17 -39.30570153)
(301.2370486 4.699407156e-17 -39.08884976)
(298.7507597 -4.936221512e-17 -38.78391856)
(295.9039671 -1.693894253e-17 -38.35344067)
(292.6835994 -2.885192734e-17 -37.75026241)
(289.1014261 2.427467451e-17 -36.91583097)
(285.2061274 2.102023448e-17 -35.78498971)
(281.0942653 1.823065588e-17 -34.29447198)
(276.9090106 0 -32.39950144)
(272.8255434 -5.260605229e-17 -30.09535227)
(269.0187695 8.99142749e-17 -27.43011946)
(265.627019 5.755152039e-17 -24.50159582)
(262.7281873 1.468651946e-16 -21.44061259)
(260.3338775 1.110832545e-16 -18.38584586)
(258.4023301 0 -15.46093635)
(256.8606688 0 -12.76049132)
(255.6269646 1.007986898e-16 -10.34581098)
(254.6263973 2.559326025e-16 -8.247100803)
(253.7997112 1.921321663e-16 -6.469450084)
(253.1050844 3.241898514e-16 -4.999216407)
(252.5156905 5.471557329e-16 -3.810111009)
(252.0153057 4.606287056e-16 -2.868298128)
(251.5938298 -4.844141579e-17 -2.136642791)
(251.2437367 6.917364382e-16 -1.578092505)
(250.9580007 -1.094027213e-15 -1.15814872)
(250.7291482 -5.738563615e-17 -0.8464203601)
(250.5492852 8.177335139e-16 -0.617354027)
(250.4104122 -8.06135146e-17 -0.4502781676)
(250.3049284 6.745029534e-17 -0.3290070968)
(250.2259611 -3.610073298e-15 -0.2411900317)
(250.1676052 0 -0.1776080934)
(250.1249628 2.515202078e-15 -0.1314826491)
(250.0941097 -2.09528473e-15 -0.09789319614)
(250.0719658 6.970620229e-15 -0.07329360004)
(250.0561484 -1.808463914e-16 -0.05514946726)
(250.0448577 -2.24735155e-15 -0.04162557085)
(250.0366542 -3.838563723e-15 -0.03148239188)
(250.0305028 -3.367872027e-15 -0.02370115029)
(250.0255904 0 -0.01766991496)
(250.0208677 0 -0.01361071198)
(250.0183251 -3.582154592e-15 -0.007814280813)
(250.010356 -5.806335357e-15 -0.009340930693)
(200.2331285 6.135731219e-20 -28.9677792)
(242.2619917 -2.748875643e-16 -34.24114732)
(266.2662007 0 -37.64139321)
(286.5014933 4.441483676e-19 -40.67442278)
(304.4332498 -9.308090106e-19 -43.60156862)
(312.7412129 0 -44.82423852)
(312.8730074 -2.146226423e-16 -45.02103412)
(312.5316183 1.866665236e-16 -44.8021078)
(311.9886089 -1.257154887e-18 -44.97846575)
(311.5452955 0 -44.77481202)
(310.9097054 3.510556492e-18 -44.89161233)
(310.2587263 9.406668186e-17 -44.7585624)
(309.4557984 -2.208196869e-18 -44.78259091)
(308.5352712 2.496107994e-19 -44.68919773)
(307.4351828 -5.916745971e-17 -44.63674394)
(306.1490978 0 -44.52580862)
(304.6400204 4.939807247e-18 -44.39517431)
(302.8781192 -8.342563673e-18 -44.20843242)
(300.8267655 -2.843458855e-17 -43.95821835)
(298.4514666 1.181876667e-17 -43.61609084)
(295.7226108 2.047679367e-17 -43.15158112)
(292.6206553 2.597631696e-20 -42.51971947)
(289.1476786 0 -41.66335102)
(285.3382225 2.536627918e-17 -40.51359598)
(281.2723683 3.339737566e-19 -39.00138545)
(277.0830066 -1.83593805e-17 -37.07277998)
(272.941977 0 -34.70516038)
(269.0348344 1.079904633e-16 -31.9262547)
(265.5243 -1.149320324e-16 -28.82079084)
(262.5159905 -5.87590733e-17 -25.51585991)
(260.0453496 -1.334131949e-16 -22.1571725)
(258.0837377 1.501653936e-17 -18.88361493)
(256.5589744 -3.618344276e-17 -15.80822805)
(255.3800627 -3.06962552e-16 -13.00989947)
(254.4576155 -2.93845314e-16 -10.53396222)
(253.7166389 -1.897225195e-16 -8.397156819)
(253.1018098 3.691779308e-16 -6.594671327)
(252.5769906 3.52526456e-16 -5.106397837)
(252.1214631 -1.134361718e-15 -3.902358306)
(251.7248909 -4.404011535e-16 -2.94698049)
(251.3825796 -2.468692748e-17 -2.202588481)
(251.0918487 -4.152225107e-17 -1.632188708)
(250.8498986 1.114917218e-15 -1.201537077)
(250.6528558 9.062476528e-16 -0.8804697092)
(250.4957893 4.898447638e-17 -0.6435378038)
(250.3730699 0 -0.4700464373)
(250.2789288 -2.196387092e-15 -0.3436870776)
(250.2078748 1.835080065e-15 -0.251931378)
(250.1550156 -9.572278685e-17 -0.1853631094)
(250.1161829 -8.039666116e-21 -0.1370134283)
(250.0879701 1.990967602e-16 -0.101792415)
(250.0676583 -3.63898264e-15 -0.07601205672)
(250.0531172 0 -0.05702306767)
(250.0427212 2.570356096e-15 -0.04290036209)
(250.0351466 -1.247086466e-16 -0.03233758514)
(250.0294512 3.281557798e-15 -0.02425852382)
(250.024859 -2.689062551e-15 -0.01801724697)
(250.0203373 0 -0.0138274099)
(250.0180301 3.567238924e-15 -0.007909321682)
(250.0100559 5.759130652e-15 -0.009372045543)
(200.8664747 -5.213132777e-16 -32.65452174)
(244.0546531 -2.996026539e-16 -38.72216203)
(268.9578004 2.490796206e-16 -42.68917803)
(289.9316634 -4.897226781e-19 -46.24557287)
(306.2274624 -2.564983543e-16 -49.25400111)
(311.1807723 4.883851402e-16 -49.986784)
(311.0016869 -2.197398845e-16 -50.14158021)
(310.6383265 1.488797787e-18 -49.89394256)
(310.0494896 -1.596696923e-16 -50.07483361)
(309.5535606 -2.92904256e-19 -49.84206405)
(308.8535736 1.102368134e-16 -49.93469132)
(308.1261421 -9.875062826e-17 -49.77722554)
(307.2347196 8.018669353e-17 -49.76423264)
(306.2092617 0 -49.63644662)
(304.9876701 -4.995472639e-17 -49.53636504)
(303.5599001 9.596673875e-17 -49.37232749)
(301.8875583 -3.019807723e-17 -49.17186751)
(299.9379497 3.439042743e-17 -48.89799034)
(297.6740123 -2.88786978e-17 -48.53340005)
(295.0627266 -2.487403743e-17 -48.04066088)
(292.0810188 2.079226092e-17 -47.37861575)
(288.7232944 1.794043536e-17 -46.49470106)
(285.0150867 0 -45.32654477)
(281.021899 0 -43.80071162)
(276.8579501 -4.41432025e-17 -41.84903665)
(272.6894897 -3.832274268e-17 -39.43588972)
(268.7077168 0 -36.5724195)
(265.0922532 -1.113617546e-16 -33.32400316)
(261.9774909 -9.556129647e-17 -29.809434)
(259.4262205 2.030345311e-17 -26.17739947)
(257.4287882 1.210270018e-16 -22.57833465)
(255.920078 -1.017570931e-16 -19.14253523)
(254.8044008 -1.857914513e-16 -15.96697701)
(253.9797475 3.12773105e-16 -13.11258116)
(253.3549905 2.818679496e-16 -10.60873575)
(252.858834 2.378850649e-16 -8.459877937)
(252.4421472 -4.262888008e-16 -6.652767697)
(252.0755661 -3.168883052e-16 -5.162176101)
(251.7448178 5.691707459e-16 -3.955489919)
(251.4453433 -2.995042424e-17 -2.996169194)
(251.1775179 8.307017716e-16 -2.246549283)
(250.9430804 4.228418006e-17 -1.670106381)
(250.743037 1.954184331e-20 -1.233177273)
(250.5767473 -9.814656812e-16 -0.9060981253)
(250.4419539 -4.984323168e-17 -0.6637585616)
(250.3351853 -1.188152175e-20 -0.4856385687)
(250.2523614 4.49796189e-15 -0.3554712153)
(250.1892803 0 -0.2606824642)
(250.1420091 -9.712199782e-17 -0.1917614166)
(250.1070805 1.617312666e-16 -0.1416265866)
(250.0815909 2.083830159e-15 -0.1050759164)
(250.0631787 0 -0.0783209339)
(250.0499654 0 -0.0586269148)
(250.0405012 -1.524785882e-16 -0.04399991873)
(250.0335817 4.142628246e-15 -0.0330806073)
(250.0283584 1.030093953e-16 -0.02474616133)
(250.0240992 2.61046054e-15 -0.01832449396)
(250.01978 -1.096774707e-15 -0.01401471119)
(250.0177156 -1.777168136e-15 -0.007998988138)
(250.0097355 -5.739998052e-15 -0.009396799358)
(201.1830695 0 -36.46523717)
(245.7210403 6.361096592e-19 -43.40166276)
(271.552081 0 -47.99826107)
(293.0548641 -2.749013356e-16 -52.11149829)
(306.7886505 7.853025708e-19 -54.92690837)
(309.3000346 5.062196832e-16 -55.22059674)
(308.7162591 -2.24472121e-16 -55.35689224)
(308.3383589 -1.936269261e-16 -55.0575715)
(307.6969209 -2.90832004e-18 -55.23551241)
(307.1399711 1.4009555e-16 -54.9715346)
(306.3664837 0 -55.0284323)
(305.5496894 1.004652427e-16 -54.83827822)
(304.5542312 -8.676042271e-17 -54.77567728)
(303.4047032 6.901708934e-17 -54.5982957)
(302.039651 -5.05865724e-17 -54.42974269)
(300.4451678 0 -54.18818125)
(298.5825951 -1.030529393e-17 -53.89233424)
(296.419347 -3.520367936e-17 -53.50323122)
(293.9224135 -2.953880557e-19 -52.99319252)
(291.0640012 6.304739789e-17 -52.31459476)
(287.8309755 -2.134883402e-17 -51.41149491)
(284.2347018 -1.820198597e-17 -50.21889292)
(280.3298716 1.575602012e-17 -48.67199165)
(276.2212467 -1.327460399e-17 -46.70563465)
(272.0575479 6.926487876e-17 -44.26404718)
(268.0274821 -2.003041078e-17 -41.33676794)
(264.3269868 -8.446004622e-17 -37.97618562)
(261.1129091 8.563860341e-17 -34.28652776)
(258.4776752 7.284043198e-17 -30.41292119)
(256.436263 -1.048872904e-17 -26.51496573)
(254.9363675 -1.053770575e-16 -22.73771275)
(253.8833326 -1.198668835e-16 -19.19575662)
(253.1660104 1.891327751e-16 -15.96674847)
(252.6781913 1.711101092e-16 -13.09324211)
(252.3317944 0 -10.58987914)
(252.0620899 0 -8.45055104)
(251.8275783 -4.096789999e-16 -6.655277567)
(251.6061885 3.44833071e-16 -5.175067439)
(251.3900756 5.982923857e-16 -3.97565578)
(251.1801548 -5.029799224e-16 -3.020207218)
(250.9814428 -1.613027969e-15 -2.271522175)
(250.7996356 6.665264758e-16 -1.693865814)
(250.6391149 1.190301417e-15 -1.254399868)
(250.5021025 -3.022070377e-17 -0.9241623644)
(250.388721 0 -0.6785562354)
(250.2974372 4.235148258e-17 -0.4973880366)
(250.225705 -2.299862559e-15 -0.3645616436)
(250.170509 5.905941331e-17 -0.2675637147)
(250.1288108 -4.920958541e-17 -0.1968736398)
(250.097805 0 -0.1453629643)
(250.0750697 0 -0.1077670359)
(250.0585892 1.127200661e-16 -0.08023344005)
(250.0467314 2.982094402e-15 -0.05996842848)