/*--------------------------------*- C++ -*----------------------------------*\
  =========                 |
  \\      /  F ield         | OpenFOAM: The Open Source CFD Toolbox
   \\    /   O peration     | Website:  https://openfoam.org
    \\  /    A nd           | Version:  12
     \\/     M anipulation  |
\*---------------------------------------------------------------------------*/
FoamFile
{
    format      ascii;
    class       volScalarField;
    location    "0.002";
    object      Ma;
}
// * * * * * * * * * * * * * * * * * * * * * * * * * * * * * * * * * * * * * //

dimensions      [];

internalField   nonuniform List<scalar> 
16000
(
0.62022175
0.70549511
0.66747691
0.68775271
0.67455057
0.68094781
0.67545331
0.67699059
0.67429786
0.67390527
0.67213895
0.67097089
0.66947494
0.66803756
0.66651645
0.66495402
0.66334017
0.66167723
0.65996511
0.6582025
0.65638731
0.65451936
0.65259996
0.65062935
0.64860683
0.64653257
0.64440736
0.64223207
0.64000774
0.63773625
0.6354197
0.6330599
0.63065963
0.62822216
0.62575026
0.62324678
0.62071475
0.61815771
0.61557979
0.61298439
0.61037478
0.60775477
0.6051277
0.60249591
0.5998612
0.59722619
0.59459218
0.59196021
0.58933287
0.58671486
0.5841067
0.58148189
0.57874373
0.57573318
0.57240009
0.56911098
0.56681858
0.5666014
0.56861185
0.57168831
0.57434558
0.5759518
0.57668949
0.57695734
0.57703648
0.57705594
0.57705999
0.57706071
0.57706082
0.57706083
0.57706084
0.57706084
0.57706084
0.57706084
0.57706084
0.57706084
0.57706084
0.57706084
0.57706084
0.57706084
0.61662
0.70754084
0.66725123
0.68887266
0.67462365
0.68163046
0.67569825
0.67743153
0.67456783
0.67418403
0.67237413
0.67112803
0.66958252
0.66806388
0.66646841
0.6648187
0.66311151
0.66134853
0.65953175
0.65765992
0.65573015
0.65374276
0.65170085
0.64960562
0.64745616
0.64525296
0.64299824
0.64069404
0.63834157
0.6359432
0.63350247
0.63102189
0.62850472
0.62595623
0.62338061
0.62078044
0.61815834
0.61551838
0.61286558
0.61020332
0.60753474
0.60486459
0.60219663
0.59953265
0.59687363
0.59422124
0.59157699
0.58893935
0.58630517
0.58367207
0.58102941
0.57834178
0.57552103
0.5724549
0.56918851
0.56618727
0.56446964
0.56505693
0.56784493
0.57144759
0.57434164
0.57599975
0.57672144
0.57697007
0.57704032
0.57705689
0.57706019
0.57706074
0.57706083
0.57706084
0.57706084
0.57706084
0.57706084
0.57706084
0.57706084
0.57706084
0.57706084
0.57706084
0.57706084
0.57706084
0.61374372
0.70941377
0.66717043
0.68973594
0.67477188
0.68190419
0.67587259
0.67752966
0.67469601
0.674222
0.67229278
0.67093963
0.66933089
0.66771791
0.66603224
0.66428353
0.66247086
0.66059681
0.65866484
0.65667416
0.65462115
0.65250615
0.65033381
0.64810667
0.64582368
0.6434851
0.6410946
0.63865611
0.63617135
0.6336431
0.63107614
0.62847331
0.62583821
0.62317888
0.62050212
0.61781021
0.61510493
0.6123912
0.60967521
0.60696021
0.60424931
0.6015475
0.59885874
0.59618416
0.59352397
0.59087864
0.58825035
0.58563768
0.58303484
0.58043725
0.57782769
0.57515912
0.57232711
0.56920515
0.56586862
0.56289602
0.5615084
0.5628244
0.56654017
0.57089289
0.57418653
0.57598315
0.57672973
0.57697596
0.57704248
0.57705746
0.57706031
0.57706077
0.57706083
0.57706084
0.57706084
0.57706084
0.57706084
0.57706084
0.57706084
0.57706084
0.57706084
0.57706084
0.57706084
0.57706084
0.61156443
0.71102902
0.66704721
0.69040155
0.67478765
0.68205316
0.67578054
0.67751919
0.67443767
0.67381646
0.67189595
0.67041333
0.66872038
0.66699521
0.66519975
0.66333507
0.66140138
0.65940171
0.65734048
0.65521753
0.65302907
0.6507753
0.64846184
0.64609279
0.6436675
0.64118597
0.63865297
0.63607441
0.63345329
0.63079316
0.62809978
0.62537583
0.62262452
0.61985649
0.61708206
0.61430382
0.61152247
0.60874363
0.60597467
0.60321895
0.60047957
0.5977611
0.59506684
0.59239713
0.58975104
0.58712693
0.5845252
0.58194472
0.57937853
0.57682296
0.57426159
0.57164338
0.5688528
0.56575024
0.56244308
0.55962648
0.55873529
0.56093357
0.56561818
0.57063222
0.57419394
0.57603381
0.57675942
0.57698716
0.57704568
0.5770582
0.57706045
0.57706079
0.57706083
0.57706084
0.57706084
0.57706084
0.57706084
0.57706084
0.57706084
0.57706084
0.57706084
0.57706084
0.57706084
0.57706084
0.61001376
0.71221493
0.66682204
0.69081764
0.67460376
0.68193834
0.67540063
0.6767332
0.67388274
0.6729894
0.67114112
0.66951285
0.66771401
0.66585944
0.66393371
0.66193454
0.65986241
0.6577205
0.65551338
0.6532417
0.65090238
0.64849575
0.64602782
0.64350415
0.6409254
0.63829187
0.63560882
0.6328838
0.63012183
0.62732828
0.62451004
0.62166946
0.61880852
0.61593915
0.61307528
0.61022096
0.60737622
0.60454673
0.60174068
0.59896192
0.59621357
0.59349919
0.59082097
0.58817886
0.58557106
0.58299366
0.58044409
0.57792273
0.57542337
0.57294267
0.5704623
0.5679147
0.56515566
0.56203693
0.55873935
0.55615436
0.55597638
0.55930345
0.56505656
0.57065324
0.5743507
0.57614145
0.57680528
0.57700177
0.57704937
0.57705896
0.57706058
0.57706081
0.57706083
0.57706084
0.57706084
0.57706084
0.57706084
0.57706084
0.57706084
0.57706084
0.57706084
0.57706084
0.57706084
0.57706084
0.60898425
0.71298213
0.66643988
0.69095194
0.67418739
0.68123369
0.67473205
0.67590561
0.67301965
0.67192845
0.66998753
0.66820421
0.66627819
0.66427716
0.6622003
0.66004599
0.65781542
0.65551182
0.65313948
0.65069989
0.64819153
0.64561542
0.64297768
0.64028511
0.63754044
0.63474509
0.63190446
0.62902702
0.6261203
0.62319252
0.62025246
0.61730253
0.61434317
0.61138573
0.60844657
0.60553225
0.60264311
0.59978402
0.59696294
0.5941843
0.59145096
0.58876499
0.58612733
0.58353783
0.58099382
0.57848917
0.57601793
0.57358255
0.57117957
0.5688047
0.56643287
0.56396674
0.56122063
0.55806052
0.55480445
0.55262358
0.55347272
0.55818199
0.56500793
0.57100443
0.57465487
0.57629478
0.57686097
0.57701756
0.577053
0.57705965
0.57706069
0.57706082
0.57706083
0.57706084
0.57706084
0.57706084
0.57706084
0.57706084
0.57706084
0.57706084
0.57706084
0.57706084
0.57706084
0.57706084
0.60828472
0.71336597
0.66587435
0.6906738
0.67349987
0.68031755
0.67383868
0.67463732
0.67177302
0.67042675
0.66840794
0.66645192
0.66437285
0.66220389
0.65995215
0.65761872
0.65520621
0.65271816
0.65015853
0.6475297
0.64483221
0.6420684
0.63924469
0.63636893
0.63344627
0.63047995
0.62747566
0.62444233
0.62138995
0.61833012
0.61527404
0.61222522
0.60918316
0.60615725
0.60316424
0.60021337
0.5973063
0.59444647
0.59164023
0.58889211
0.58620427
0.58357698
0.58100996
0.57850273
0.57605195
0.57364974
0.57128674
0.5689665
0.56668871
0.56444282
0.56218736
0.55978227
0.55700317
0.5537785
0.55065684
0.54917863
0.55144965
0.55775679
0.56553576
0.57166366
0.57506824
0.57647059
0.57691788
0.57703218
0.57705606
0.57706018
0.57706076
0.57706083
0.57706084
0.57706084
0.57706084
0.57706084
0.57706084
0.57706084
0.57706084
0.57706084
0.57706084
0.57706084
0.57706084
0.57706084
0.60774218
0.71337498
0.66512235
0.68982508
0.67249804
0.67900946
0.67259787
0.67298736
0.67011664
0.66849409
0.66634945
0.66420025
0.6619387
0.65957675
0.65712426
0.65458547
0.65196484
0.64926684
0.64649564
0.64365477
0.64074702
0.63777661
0.63475089
0.63167895
0.62856824
0.62542422
0.62225345
0.61906552
0.61587257
0.61268915
0.60952875
0.60639678
0.60329317
0.60022513
0.59720773
0.59425183
0.5913607
0.58853613
0.58578177
0.58310129
0.58049562
0.57796302
0.57550132
0.5731087
0.57078164
0.56851132
0.56628535
0.56410793
0.56198223
0.55988238
0.557736
0.55534913
0.55248412
0.54921245
0.54640514
0.54606497
0.55020965
0.5581959
0.56663853
0.57256223
0.57553491
0.57664495
0.57696848
0.57704397
0.57705831
0.57706053
0.57706081
0.57706083
0.57706084
0.57706084
0.57706084
0.57706084
0.57706084
0.57706084
0.57706084
0.57706084
0.57706084
0.57706084
0.57706084
0.57706084
0.60720526
0.71297518
0.66413565
0.68836463
0.67115453
0.67726572
0.67094815
0.67087367
0.66797587
0.66605251
0.66374246
0.6613763
0.65890087
0.65631761
0.6536361
0.65086327
0.64800579
0.64506983
0.64206082
0.63898393
0.63584442
0.63264894
0.62940658
0.62612799
0.62282279
0.61949883
0.61616435
0.61283026
0.60951056
0.60622161
0.60297825
0.59978784
0.596652
0.5935764
0.59057311
0.58765258
0.58481886
0.58207213
0.57941296
0.57684305
0.57436162
0.57196446
0.56964628
0.56740271
0.56523025
0.56312007
0.56105819
0.55904963
0.55709887
0.55515082
0.5530822
0.55064558
0.54765017
0.54443282
0.5422909
0.54366375
0.55005698
0.55957682
0.56822372
0.57358954
0.57599051
0.57679643
0.57700794
0.57705225
0.57705972
0.57706072
0.57706083
0.57706084
0.57706084
0.57706084
0.57706084
0.57706084
0.57706084
0.57706084
0.57706084
0.57706084
0.57706084
0.57706084
0.57706084
0.57706084
0.60653659
0.71212527
0.6628242
0.68649674
0.66951477
0.67502534
0.66882526
0.66824188
0.6652799
0.66303649
0.66051224
0.65789883
0.65517368
0.65233529
0.64939194
0.64635271
0.64322667
0.6400225
0.63674797
0.63341071
0.63001882
0.62658191
0.62311161
0.61962056
0.61612053
0.61262183
0.60913511
0.60567329
0.60225195
0.59888795
0.595596
0.59238466
0.58925746
0.58621927
0.5832786
0.58044332
0.57771652
0.57509665
0.57258124
0.57016909
0.56785696
0.56563762
0.56350191
0.56144219
0.55945437
0.55753132
0.55566131
0.55384834
0.5520873
0.55027623
0.548222
0.54565502
0.54254045
0.53958688
0.53869162
0.54242697
0.55123108
0.56183837
0.57011165
0.57461277
0.57638383
0.57691222
0.5770348
0.57705726
0.57706047
0.57706081
0.57706084
0.57706084
0.57706084
0.57706084
0.57706084
0.57706084
0.57706084
0.57706084
0.57706084
0.57706084
0.57706084
0.57706084
0.57706084
0.57706084
0.60566229
0.7107965
0.66111837
0.6842777
0.66745634
0.67224237
0.66616187
0.66502999
0.66194958
0.65936322
0.65656989
0.65366935
0.65065228
0.64751837
0.644275
0.64093304
0.63750424
0.63400042
0.63043273
0.62681214
0.62315035
0.61946058
0.61575758
0.61205645
0.60837123
0.6047147
0.60110019
0.59754288
0.5940594
0.59066588
0.58737546
0.58419636
0.58113309
0.57818966
0.57537079
0.57268009
0.5701177
0.56767978
0.56536084
0.56315594
0.5610584
0.5590577
0.55714127
0.5552984
0.55352352
0.55181334
0.55016239
0.54856756
0.54699261
0.54527344
0.54314499
0.54037355
0.53724623
0.53499618
0.53611163
0.54279027
0.55380278
0.56475175
0.5720638
0.575505
0.5766833
0.57698943
0.57705049
0.57705979
0.57706079
0.57706084
0.57706084
0.57706084
0.57706084
0.57706084
0.57706084
0.57706084
0.57706084
0.57706084
0.57706084
0.57706084
0.57706084
0.57706084
0.57706084
0.57706084
0.60455588
0.70895429
0.65896678
0.6814625
0.66489502
0.66885201
0.66287026
0.66115355
0.65788272
0.65492304
0.65180038
0.64856319
0.64520541
0.64172941
0.63814286
0.63445863
0.63069155
0.62685727
0.62297126
0.61904898
0.61510667
0.61116181
0.60723281
0.60333753
0.59949225
0.59571206
0.59201256
0.58841055
0.58492272
0.58156329
0.57834234
0.57526596
0.57233757
0.56955921
0.56693143
0.56445256
0.56211834
0.55992161
0.55785346
0.55590463
0.55406441
0.5523192
0.55065427
0.5490572
0.5475219
0.54604948
0.54463907
0.54326778
0.54184071
0.54012018
0.53780409
0.53485514
0.53203425
0.53122038
0.53522756
0.54504549
0.55758303
0.56794641
0.57383319
0.57618839
0.57688172
0.57703352
0.57705817
0.5770608
0.57706088
0.57706085
0.57706084
0.57706084
0.57706084
0.57706084
0.57706084
0.57706084
0.57706084
0.57706084
0.57706084
0.57706084
0.57706084
0.57706084
0.57706084
0.57706084
0.603175
0.70653084
0.65629193
0.67801559
0.66172652
0.66475773
0.65883149
0.65649597
0.65294862
0.64957438
0.64605779
0.64242545
0.63867112
0.63480055
0.63082336
0.62675533
0.62261526
0.61842356
0.61420105
0.60996876
0.60574836
0.60156215
0.59743238
0.59337961
0.58942204
0.58557626
0.58185887
0.57828666
0.57487464
0.57163356
0.568569
0.56568271
0.56297449
0.56044258
0.55808262
0.55588733
0.55384721
0.5519509
0.55018539
0.54853696
0.54699107
0.54553183
0.54414376
0.54281562
0.54154422
0.54033319
0.53917394
0.53799999
0.53662937
0.53476867
0.53219428
0.52924607
0.52726178
0.52893978
0.53656557
0.5491775
0.56210262
0.57099334
0.57522245
0.57664599
0.57699384
0.57705457
0.57706105
0.57706104
0.57706088
0.57706084
0.57706084
0.57706084
0.57706084
0.57706084
0.57706084
0.57706084
0.57706084
0.57706084
0.57706084
0.57706084
0.57706084
0.57706084
0.57706084
0.57706084
0.60146704
0.70341402
0.65301692
0.67381802
0.65783267
0.65983887
0.65390145
0.65091163
0.64698903
0.64314262
0.63915992
0.63506362
0.63084877
0.62652569
0.62210815
0.61761647
0.61307471
0.60850909
0.60394673
0.59941496
0.59494132
0.59055299
0.58627566
0.58213185
0.57814058
0.57431817
0.57067986
0.56723969
0.56400845
0.56099127
0.55818735
0.555592
0.55319894
0.5510007
0.54898735
0.54714605
0.54546216
0.5439197
0.54250124
0.54118886
0.5399651
0.53881316
0.53771894
0.53667597
0.53568715
0.53475221
0.53383055
0.53278009
0.53133089
0.52919856
0.52641119
0.5239333
0.52381122
0.52899448
0.54037399
0.55474512
0.56670973
0.57351416
0.57616987
0.5769061
0.57704668
0.57706206
0.57706159
0.57706098
0.57706085
0.57706084
0.57706084
0.57706084
0.57706084
0.57706084
0.57706084
0.57706084
0.57706084
0.57706084
0.57706084
0.57706084
0.57706084
0.57706084
0.57706084
0.57706084
0.59937252
0.69945589
0.64910271
0.66874699
0.65307911
0.65395262
0.64790648
0.64421388
0.6398021
0.63540357
0.63087059
0.62623133
0.6214862
0.61665202
0.61174919
0.6068044
0.60184833
0.59691397
0.59203526
0.58724595
0.58257905
0.57806561
0.57373327
0.56960462
0.56569693
0.5620232
0.55859373
0.55541611
0.55249358
0.54982309
0.54739551
0.54519794
0.54321639
0.54143652
0.53984257
0.53841687
0.53714046
0.53599329
0.53495388
0.53400057
0.53311436
0.53228021
0.53148895
0.53074132
0.53004307
0.5293738
0.52862909
0.52757011
0.52588004
0.52343371
0.52076068
0.51952067
0.52250566
0.53190468
0.54641135
0.56092302
0.57075794
0.57528588
0.5767213
0.57702877
0.57706493
0.57706321
0.57706131
0.57706088
0.57706084
0.57706084
0.57706084
0.57706084
0.57706084
0.57706084
0.57706084
0.57706084
0.57706084
0.57706084
0.57706084
0.57706084
0.57706084
0.57706084
0.57706084
0.57706084
0.59684734
0.6944567
0.64460401
0.66265261
0.64728477
0.64690115
0.64061037
0.63613992
0.63110922
0.62605795
0.62088142
0.61561732
0.61027586
0.6048827
0.59946719
0.59406426
0.58871251
0.58345227
0.57832411
0.5733671
0.5686177
0.56410797
0.55986403
0.55590451
0.55224066
0.54887761
0.54581622
0.54305353
0.54058186
0.53838774
0.53645236
0.53475396
0.53327055
0.53198095
0.53086427
0.52989925
0.5290642
0.5283364
0.52769121
0.52710435
0.52655748
0.52604141
0.52555608
0.52510799
0.52469069
0.52423397
0.5235417
0.52229533
0.52024604
0.51764443
0.51573395
0.51698449
0.52418771
0.53774442
0.55383373
0.56673856
0.57378147
0.57635297
0.57698641
0.57707111
0.57706736
0.57706225
0.57706097
0.57706083
0.57706083
0.57706084
0.57706084
0.57706084
0.57706084
0.57706084
0.57706084
0.57706084
0.57706084
0.57706084
0.57706084
0.57706084
0.57706084
0.57706084
0.57706084
0.57706084
0.59383459
0.68807641
0.63921609
0.6552909
0.64017654
0.63837699
0.63167119
0.62632411
0.62053781
0.61472496
0.60881373
0.60285307
0.59686731
0.59089387
0.58497371
0.57915192
0.57347586
0.5679926
0.56274714
0.55778007
0.55312621
0.54881269
0.54485774
0.54126977
0.53804817
0.53518503
0.5326674
0.53047852
0.52859776
0.52700032
0.52565797
0.52454104
0.52362084
0.52287089
0.52226672
0.52178518
0.52140363
0.52109834
0.52084325
0.52061381
0.52039595
0.52019078
0.52000884
0.51985248
0.51967529
0.51932048
0.51849504
0.51689252
0.51454305
0.51231133
0.51221659
0.51734868
0.52926457
0.54583238
0.56139368
0.57139518
0.57566767
0.57688637
0.57708054
0.57707681
0.57706468
0.57706124
0.57706082
0.57706082
0.57706083
0.57706084
0.57706084
0.57706084
0.57706084
0.57706084
0.57706084
0.57706084
0.57706084
0.57706084
0.57706084
0.57706084
0.57706084
0.57706084
0.57706084
0.57706084
0.59020231
0.67979141
0.63256379
0.64626058
0.63135163
0.62796171
0.62064362
0.61430935
0.60763401
0.60095451
0.5942313
0.58752758
0.58088693
0.57436253
0.56800943
0.56188342
0.55603862
0.55052438
0.54538328
0.54064896
0.53634515
0.53248467
0.52906922
0.52608973
0.52352805
0.52135926
0.51955436
0.51808193
0.51690887
0.51600053
0.51532143
0.51483666
0.51451366
0.5143233
0.51423977
0.5142397
0.51430081
0.51439997
0.51451242
0.51461752
0.51471032
0.51480471
0.51491512
0.5150164
0.51498722
0.51456524
0.51340992
0.51139843
0.50911021
0.50808687
0.51135506
0.52128015
0.53735137
0.55481224
0.5678914
0.57448258
0.57666012
0.57708707
0.57709574
0.57707047
0.577062
0.57706077
0.57706079
0.57706083
0.57706084
0.57706084
0.57706084
0.57706084
0.57706084
0.57706084
0.57706084
0.57706084
0.57706084
0.57706084
0.57706084
0.57706084
0.57706084
0.57706084
0.57706084
0.57706084
0.58570662
0.66970758
0.62425414
0.63507674
0.620302
0.61516241
0.60699875
0.59954937
0.5918569
0.58422086
0.57664211
0.56920403
0.56197428
0.5550239
0.54842021
0.54222402
0.53648705
0.53124903
0.52653678
0.5223634
0.51872901
0.51562148
0.513018
0.51088672
0.50918924
0.50788318
0.50692486
0.50627095
0.50587929
0.50570918
0.50572173
0.5058806
0.50615311
0.5065107
0.50692853
0.50738417
0.5078563
0.50832392
0.50876746
0.50917601
0.50955815
0.50993723
0.51031212
0.51059382
0.5105563
0.50986055
0.50825512
0.50600909
0.50443045
0.50610799
0.5139296
0.52874811
0.54718651
0.56311874
0.57256513
0.5761926
0.57706742
0.57712871
0.57708303
0.57706416
0.57706072
0.5770607
0.57706081
0.57706084
0.57706084
0.57706084
0.57706084
0.57706084
0.57706084
0.57706084
0.57706084
0.57706084
0.57706084
0.57706084
0.57706084
0.57706084
0.57706084
0.57706084
0.57706084
0.57706084
0.5800555
0.6583099
0.61377091
0.6212225
0.60639461
0.59934368
0.59006187
0.58135069
0.57253982
0.56391564
0.55552984
0.54749006
0.53988574
0.53279795
0.52629291
0.52041925
0.51520697
0.51066682
0.50679211
0.50356065
0.50093798
0.49888011
0.49733652
0.4962526
0.49557219
0.4952398
0.49520242
0.49541062
0.49581893
0.49638574
0.49707329
0.49784791
0.49868039
0.49954569
0.5004217
0.50128749
0.50212305
0.50291138
0.50364303
0.5043229
0.50497344
0.50561308
0.50619308
0.50652406
0.50627355
0.50511744
0.50310268
0.50116866
0.5014801
0.50726438
0.5202737
0.53874364
0.55700704
0.569594
0.57530578
0.57696609
0.57717502
0.57710808
0.57706982
0.57706084
0.57706047
0.57706076
0.57706083
0.57706084
0.57706084
0.57706084
0.57706084
0.57706084
0.57706084
0.57706084
0.57706084
0.57706084
0.57706084
0.57706084
0.57706084
0.57706084
0.57706084
0.57706084
0.57706084
0.57706084
0.57296638
0.64362317
0.60039978
0.60391386
0.58871131
0.57957035
0.56891486
0.55884256
0.54892614
0.53944755
0.53050714
0.5222265
0.5146964
0.50798196
0.50211943
0.49711673
0.49295663
0.48960048
0.48699356
0.48507002
0.48375786
0.48298276
0.4826712
0.48275259
0.48316088
0.48383551
0.48472208
0.48577233
0.48694369
0.48819881
0.4895052
0.49083519
0.49216563
0.49347681
0.49475019
0.49596671
0.49710856
0.49816572
0.49914423
0.5000683
0.50096557
0.50182075
0.50249846
0.50269476
0.50203002
0.50037077
0.49837777
0.49752471
0.50132582
0.51210769
0.52970277
0.54952111
0.56526012
0.57374391
0.57666765
0.57721474
0.57715291
0.57708319
0.57706195
0.57705999
0.57706061
0.57706082
0.57706084
0.57706084
0.57706084
0.57706084
0.57706084
0.57706084
0.57706084
0.57706084
0.57706084
0.57706084
0.57706084
0.57706084
0.57706084
0.57706084
0.57706084
0.57706084
0.57706084
0.57706084
0.56389291
0.62472492
0.58292412
0.58189264
0.56592733
0.55457657
0.5424577
0.53113764
0.52040717
0.51052916
0.50161856
0.49377253
0.4870388
0.48142345
0.47689497
0.47339122
0.47082817
0.46910778
0.46812571
0.46777724
0.46796195
0.46858661
0.46956691
0.47082801
0.47230455
0.47394021
0.47568696
0.47750402
0.47935685
0.48121621
0.48305773
0.48486165
0.48661201
0.48829468
0.48989476
0.49139569
0.49278422
0.49406188
0.49525436
0.49640159
0.4975156
0.49850893
0.49912761
0.49898019
0.49778518
0.49579659
0.49426547
0.49617509
0.50442179
0.52028218
0.54066905
0.55925864
0.57110159
0.57596896
0.57719182
0.57722241
0.57711142
0.57706659
0.57705933
0.57706023
0.57706076
0.57706084
0.57706084
0.57706084
0.57706084
0.57706084
0.57706084
0.57706084
0.57706084
0.57706084
0.57706084
0.57706084
0.57706084
0.57706084
0.57706084
0.57706084
0.57706084
0.57706084
0.57706084
0.57706084
0.55180949
0.59973183
0.55959447
0.55352203
0.53649021
0.52300303
0.50973697
0.49773799
0.48695501
0.47758166
0.46967437
0.46324037
0.45822673
0.4545369
0.45204386
0.45060317
0.45006486
0.45028197
0.45111703
0.45244558
0.45415815
0.45616041
0.45837256
0.46072801
0.46317182
0.46565917
0.4681537
0.47062599
0.47305217
0.47541301
0.47769341
0.47988184
0.48196906
0.4839457
0.48580008
0.48751965
0.48910005
0.49055958
0.49194324
0.49329235
0.4945723
0.49558885
0.49597037
0.49532259
0.49358945
0.49173926
0.49177934
0.49743884
0.51075211
0.53053034
0.55129533
0.56678691
0.57452672
0.57697636
0.5773091
0.57716597
0.5770807
0.5770595
0.57705938
0.57706055
0.57706084
0.57706085
0.57706084
0.57706084
0.57706084
0.57706084
0.57706084
0.57706084
0.57706084
0.57706084
0.57706084
0.57706084
0.57706084
0.57706084
0.57706084
0.57706084
0.57706084
0.57706084
0.57706084
0.57706084
0.53489591
0.56639137
0.52823254
0.51697368
0.49917438
0.48396988
0.47053212
0.45908309
0.44957526
0.44204656
0.43640273
0.4324941
0.43012535
0.42908121
0.42914418
0.43010758
0.43178393
0.43400871
0.43664149
0.43956484
0.4426823
0.44591576
0.44920276
0.45249397
0.45575085
0.45894361
0.4620495
0.46505125
0.46793592
0.47069409
0.47331934
0.47580728
0.47815375
0.48035253
0.48239497
0.48427531
0.48600358
0.48761812
0.48917546
0.49069406
0.49205921
0.4929561
0.49292947
0.49172251
0.48979395
0.48846622
0.49149559
0.50151349
0.51935153
0.54111757
0.5601302
0.57175652
0.57628954
0.5773301
0.57725796
0.57711547
0.57706416
0.57705795
0.57705997
0.57706077
0.57706086
0.57706084
0.57706084
0.57706084
0.57706084
0.57706084
0.57706084
0.57706084
0.57706084
0.57706084
0.57706084
0.57706084
0.57706084
0.57706084
0.57706084
0.57706084
0.57706084
0.57706084
0.57706084
0.57706084
0.51065024
0.52222567
0.48714578
0.47071958
0.45193537
0.43784351
0.42600222
0.41697089
0.41049815
0.40636184
0.40424415
0.4038129
0.40474222
0.4067351
0.40953304
0.41291881
0.41671479
0.42077855
0.42499782
0.42928517
0.43357333
0.43781112
0.44196012
0.44599184
0.44988562
0.45362679
0.4572053
0.46061469
0.46385134
0.46691402
0.46980313
0.47251923
0.47506081
0.47742301
0.47960054
0.48159783
0.48344362
0.48519467
0.48690418
0.48854067
0.48988433
0.49051544
0.49000833
0.48826422
0.48641058
0.48680563
0.49317998
0.50767798
0.52871642
0.55047907
0.56658216
0.57457751
0.5770833
0.57738004
0.57719036
0.57708357
0.57705771
0.57705858
0.57706042
0.57706086
0.57706086
0.57706084
0.57706084
0.57706084
0.57706084
0.57706084
0.57706084
0.57706084
0.57706084
0.57706084
0.57706084
0.57706084
0.57706084
0.57706084
0.57706084
0.57706084
0.57706084
0.57706084
0.57706084
0.57706084
0.47507059
0.4641149
0.43013001
0.41381986
0.39780197
0.3866021
0.37891218
0.37456019
0.37294341
0.37352748
0.3757936
0.37929829
0.38367598
0.38863752
0.39396033
0.39947654
0.40506176
0.41062504
0.41610085
0.42144265
0.42661802
0.43160499
0.43638928
0.44096219
0.44531915
0.44945844
0.45338047
0.45708734
0.46058262
0.46387109
0.46695774
0.46984561
0.4725335
0.47501662
0.47729376
0.47938161
0.48132752
0.48319965
0.4850307
0.48672003
0.4879456
0.48820037
0.48720035
0.48529478
0.48373833
0.48659511
0.49648558
0.51463475
0.53730737
0.55770993
0.57072213
0.57605895
0.5773922
0.57732645
0.57713985
0.57706691
0.57705625
0.57705931
0.5770607
0.57706089
0.57706085
0.57706084
0.57706084
0.57706084
0.57706084
0.57706084
0.57706084
0.57706084
0.57706084
0.57706084
0.57706084
0.57706084
0.57706084
0.57706084
0.57706084
0.57706084
0.57706084
0.57706084
0.57706084
0.57706084
0.41987148
0.38999976
0.36255648
0.34896239
0.33890939
0.33439148
0.33372163
0.33606406
0.34050787
0.34635845
0.35308126
0.36028951
0.36771027
0.37515586
0.38250019
0.38966063
0.39658485
0.40324142
0.40961313
0.41569238
0.42147797
0.42697288
0.43218279
0.43711493
0.44177734
0.44617837
0.45032641
0.45423
0.45789812
0.46133989
0.4645632
0.46757204
0.47036469
0.47293672
0.47529198
0.47745924
0.47950003
0.48148412
0.48341135
0.48510188
0.48616119
0.48607611
0.48462525
0.48286638
0.48213754
0.48728429
0.50033877
0.52094131
0.54398971
0.56261671
0.57308968
0.5767816
0.57747851
0.57727408
0.57711006
0.57705885
0.57705649
0.57705979
0.57706084
0.57706089
0.57706085
0.57706084
0.57706084
0.57706084
0.57706084
0.57706084
0.57706084
0.57706084
0.57706084
0.57706084
0.57706084
0.57706084
0.57706084
0.57706084
0.57706084
0.57706084
0.57706084
0.57706084
0.57706084
0.57706084
0.33243181
0.3011364
0.28476787
0.28062377
0.28180109
0.28745461
0.29573972
0.3054948
0.31591624
0.32649962
0.33693924
0.34705793
0.35675968
0.36599838
0.37475835
0.3830419
0.39086174
0.39823616
0.40518612
0.41173348
0.41789988
0.42370619
0.42917213
0.43431609
0.43915494
0.44370408
0.44797765
0.45198903
0.45575129
0.4592769
0.46257592
0.46565322
0.46850741
0.47113588
0.47354873
0.47578609
0.47791964
0.48001463
0.48203821
0.4837428
0.48468031
0.4844055
0.48275268
0.48099293
0.48166931
0.48842362
0.50351308
0.52533257
0.54812107
0.5653512
0.57425007
0.57711377
0.5774966
0.5772441
0.57709514
0.57705516
0.5770568
0.57706003
0.57706091
0.57706089
0.57706084
0.57706084
0.57706084
0.57706084
0.57706084
0.57706084
0.57706084
0.57706084
0.57706084
0.57706084
0.57706084
0.57706084
0.57706084
0.57706084
0.57706084
0.57706084
0.57706084
0.57706084
0.57706084
0.57706084
0.20295655
0.20178796
0.20677498
0.21919283
0.23516943
0.25208889
0.26883707
0.28481628
0.29982012
0.31379473
0.32676839
0.33880129
0.34996541
0.36033355
0.36997474
0.37895225
0.38732309
0.39513815
0.40244265
0.40927674
0.41567599
0.42167204
0.42729299
0.43256385
0.43750677
0.4421414
0.44648545
0.45055541
0.45436708
0.45793517
0.46127121
0.46438064
0.46726237
0.46991571
0.47235607
0.47463193
0.47682198
0.47898749
0.48107464
0.48280796
0.48369974
0.48329195
0.48167292
0.4801709
0.48121803
0.4886925
0.50438239
0.52647894
0.54911537
0.56597186
0.57453136
0.5772146
0.57751356
0.57724336
0.57709201
0.57705357
0.57705658
0.57706006
0.57706095
0.57706089
0.57706084
0.57706083
0.57706084
0.57706084
0.57706084
0.57706084
0.57706084
0.57706084
0.57706084
0.57706084
0.57706084
0.57706084
0.57706084
0.57706084
0.57706084
0.57706084
0.57706084
0.57706084
0.57706084
0.57706084
0.08631008
0.11422011
0.14919042
0.18053892
0.20853543
0.23309986
0.25482292
0.27414733
0.29146857
0.3070967
0.3212818
0.33422421
0.34608653
0.35700182
0.36708004
0.37641287
0.38507741
0.39313896
0.40065326
0.40766815
0.41422497
0.42035964
0.4261035
0.43148395
0.43652489
0.44124725
0.44566965
0.44980926
0.45368239
0.45730392
0.46068498
0.46382974
0.46673541
0.46939989
0.47183906
0.47410534
0.47628106
0.47842783
0.48049345
0.48217467
0.48293457
0.48237868
0.48040519
0.47827441
0.47886091
0.48553498
0.50073898
0.52289255
0.54631376
0.56436164
0.57395502
0.57710699
0.57757384
0.57727766
0.5771024
0.57705386
0.57705559
0.57705981
0.57706094
0.57706091
0.57706084
0.57706083
0.57706084
0.57706084
0.57706084
0.57706084
0.57706084
0.57706084
0.57706084
0.57706084
0.57706084
0.57706084
0.57706084
0.57706084
0.57706084
0.57706084
0.57706084
0.57706084
0.57706084
0.57706084
0.48344126
0.50101917
0.50267182
0.50503139
0.50824385
0.51156959
0.51470367
0.51765333
0.52048973
0.52313984
0.52573337
0.52822757
0.53064487
0.53299543
0.53530638
0.53756991
0.53979026
0.54196664
0.5441015
0.54619572
0.54825026
0.55026547
0.55224138
0.55417843
0.55607647
0.5579355
0.55975529
0.56153574
0.56327656
0.56497748
0.5666382
0.56825859
0.56983818
0.57137671
0.57287421
0.57433027
0.5757436
0.57711352
0.5784409
0.57972988
0.58098289
0.5822027
0.58339962
0.58459016
0.58580997
0.58711599
0.58858099
0.59029178
0.59230905
0.59458424
0.59683374
0.59853485
0.59911918
0.59825308
0.5959809
0.59270032
0.58897237
0.58535156
0.58228312
0.58001277
0.57855107
0.57773186
0.57733
0.57715679
0.57709116
0.57706933
0.57706295
0.5770613
0.57706093
0.57706085
0.57706084
0.57706084
0.57706084
0.57706084
0.57706084
0.57706084
0.57706084
0.57706084
0.57706084
0.57706084
0.52797485
0.53619407
0.5353053
0.53535237
0.53570506
0.53635694
0.53713514
0.53805431
0.53910585
0.5402259
0.54142277
0.54267304
0.54398211
0.54533856
0.5467294
0.54815209
0.54960103
0.55107158
0.55255933
0.55405933
0.55556795
0.55708116
0.5585952
0.56010712
0.56161379
0.56311234
0.56460031
0.56607519
0.56753482
0.56897704
0.57039999
0.57180252
0.57318346
0.57454212
0.57587874
0.57719475
0.57849153
0.57977141
0.58103771
0.58229883
0.5835672
0.58485755
0.58619203
0.58759792
0.58911463
0.59079827
0.5927007
0.59484312
0.59716163
0.59944362
0.60130264
0.60224257
0.60189088
0.6001657
0.59728203
0.59364294
0.58971003
0.5859383
0.58272069
0.58030162
0.57871374
0.57780707
0.57735735
0.57716404
0.57709222
0.57706922
0.57706282
0.57706125
0.57706091
0.57706085
0.57706084
0.57706084
0.57706084
0.57706084
0.57706084
0.57706084
0.57706084
0.57706084
0.57706084
0.57706084
0.54914629
0.55278778
0.55196007
0.55204629
0.55216936
0.5525655
0.55291682
0.55334558
0.55383677
0.55435333
0.55495095
0.55558211
0.55627123
0.55701118
0.55779811
0.55863135
0.55950785
0.56042435
0.56137858
0.56236682
0.56338659
0.56443442
0.56550711
0.56660171
0.56771519
0.56884426
0.56998664
0.57113934
0.5723003
0.57346723
0.57463824
0.57581252
0.57698954
0.57816935
0.57935315
0.58054448
0.58174854
0.5829725
0.58422467
0.58551729
0.58686803
0.58829847
0.58983627
0.59151367
0.59335878
0.59539355
0.59761503
0.59995214
0.60223134
0.60414371
0.60529852
0.6053496
0.60412422
0.60170684
0.59836079
0.59442674
0.59028276
0.58633687
0.58297212
0.58043954
0.57877636
0.57782893
0.5773623
0.57716414
0.57709172
0.57706895
0.57706272
0.57706122
0.57706091
0.57706085
0.57706084
0.57706084
0.57706084
0.57706084
0.57706084
0.57706084
0.57706084
0.57706084
0.57706084
0.57706084
0.56346712
0.5665296
0.56565628
0.56561731
0.56545268
0.56557065
0.56561726
0.56573826
0.56592563
0.56611652
0.56637988
0.56665707
0.56698115
0.56734974
0.56776031
0.56821363
0.56870921
0.56924624
0.56982434
0.57044198
0.57109822
0.5717913
0.57251995
0.57328227
0.57407692
0.57490157
0.5757555
0.57663687
0.57754499
0.57847895
0.57943844
0.58042397
0.58143691
0.58247924
0.58355387
0.58466594
0.58582321
0.58703604
0.58831702
0.5896809
0.59114528
0.59272936
0.59445221
0.59633375
0.59837767
0.60055692
0.60280043
0.60496289
0.60680578