/*--------------------------------*- C++ -*----------------------------------*\
  =========                 |
  \\      /  F ield         | OpenFOAM: The Open Source CFD Toolbox
   \\    /   O peration     | Website:  https://openfoam.org
    \\  /    A nd           | Version:  12
     \\/     M anipulation  |
\*---------------------------------------------------------------------------*/
FoamFile
{
    format      ascii;
    class       surfaceScalarField;
    location    "0.002";
    object      phi;
}
// * * * * * * * * * * * * * * * * * * * * * * * * * * * * * * * * * * * * * //

dimensions      [1 0 -1 0 0 0 0];

internalField   nonuniform List<scalar> 
31760
(
-0.0010765562
-0.05196319
0.05315567
-0.0018764343
-0.062924197
0.063985418
-0.0027767697
-0.062015547
0.063126346
-0.0036878367
-0.067247111
0.068357822
-0.0046806747
-0.06898635
0.07018235
-0.0056817422
-0.073141688
0.074346728
-0.0067554257
-0.075999394
0.077281298
-0.0078501602
-0.07993038
0.081236084
-0.0089986934
-0.083452608
0.084817908
-0.010193438
-0.087486394
0.088903088
-0.011431861
-0.09149922
0.09296711
-0.012727858
-0.095799334
0.097332103
-0.014074381
-0.10024895
0.1018405
-0.015480573
-0.10492167
0.10658204
-0.016944952
-0.10980099
0.11152948
-0.018472689
-0.11490452
0.11670703
-0.0200662
-0.12024042
0.12212028
-0.021728408
-0.12582006
0.12778121
-0.023461989
-0.13165411
0.1337003
-0.025269815
-0.13775343
0.13988868
-0.027154987
-0.1441299
0.14635853
-0.029120903
-0.15079524
0.15312179
-0.031170507
-0.15776302
0.16019167
-0.033306918
-0.16504675
0.16758196
-0.035532446
-0.17266052
0.17530596
-0.037850818
-0.18061812
0.18337903
-0.040264791
-0.18893526
0.19181603
-0.042776404
-0.19762829
0.20063278
-0.045387656
-0.20671387
0.20984614
-0.048100914
-0.21620987
0.21947457
-0.050917473
-0.22613508
0.22953591
-0.053838361
-0.23650892
0.2400495
-0.056863849
-0.24735272
0.25103615
-0.059993735
-0.25868796
0.26251718
-0.063226044
-0.27053875
0.27451549
-0.066558068
-0.28292915
0.287055
-0.06998647
-0.29588459
0.30016103
-0.073506508
-0.30943298
0.31386058
-0.077111633
-0.32360334
0.32818176
-0.080793178
-0.33842773
0.34315558
-0.084540765
-0.35393904
0.35881433
-0.088340459
-0.37017348
0.37519219
-0.092175177
-0.38716943
0.3923258
-0.09602456
-0.40496741
0.4102547
-0.099863698
-0.42361117
0.4290211
-0.10366286
-0.44314835
0.44867177
-0.10738453
-0.46363206
0.46925712
-0.11098484
-0.48511842
0.49083381
-0.11441222
-0.50767092
0.51346715
-0.11759992
-0.53136152
0.53723174
-0.12043632
-0.55627423
0.5622203
-0.12267616
-0.5825257
0.58856246
-0.12382449
-0.61030779
0.61645798
-0.12330616
-0.63992701
0.6461948
-0.12142045
-0.67163694
0.67796018
-0.12083052
-0.70515449
0.71137789
-0.12685148
-0.73900493
0.74487793
-0.14197065
-0.77136995
0.77670293
-0.16180599
-0.80254393
0.80734587
-0.17946469
-0.83500795
0.8393177
-0.19161658
-0.87094848
0.87474019
-0.19885543
-0.91082095
0.91405927
-0.20301163
-0.95407876
0.95671954
-0.20545158
-1.0001346
1.0021084
-0.20678485
-1.0487022
1.0499155
-0.20715115
-1.0997413
1.1000814
-0.20649135
-1.1533266
1.152662
-0.20467957
-1.2095745
1.2077619
-0.20155373
-1.2686222
1.2654963
-0.19692781
-1.330614
1.325988
-0.19059893
-1.3957014
1.3893725
-0.18234549
-1.464043
1.4557896
-0.17191088
-1.5358115
1.5253769
-0.15902217
-1.6111842
1.5982955
-0.14336443
-1.6903524
1.6746947
-0.12459707
-1.7735167
1.7547493
-0.10234218
-1.8608869
1.838632
-0.076175185
-1.9526872
1.9265202
-0.045634194
-2.0491531
2.0186121
-2.1505365
2.1151059
-0.00095810375
-0.050876959
-0.0016782549
-0.062028033
-0.0025004357
-0.06101844
-0.003342041
-0.066228608
-0.0042239599
-0.067921567
-0.0051689009
-0.07201062
-0.0061239024
-0.074852167
-0.007149232
-0.078708699
-0.0081913396
-0.082207945
-0.0092964809
-0.086172921
-0.010441164
-0.090138696
-0.011645831
-0.094371193
-0.012897162
-0.098765705
-0.014205515
-0.10337204
-0.015569576
-0.10818562
-0.016993679
-0.11321843
-0.018479754
-0.11848081
-0.020031115
-0.12398263
-0.021650396
-0.12973533
-0.02334058
-0.13574933
-0.025104928
-0.14203614
-0.026946306
-0.14860785
-0.028868129
-0.15547747
-0.030873215
-0.16265895
-0.032965535
-0.17016512
-0.035147072
-0.17801156
-0.037421411
-0.1862124
-0.039790908
-0.19478507
-0.04225832
-0.20374556
-0.044825582
-0.21311233
-0.047494773
-0.22290388
-0.050267099
-0.23314026
-0.053143642
-0.24384273
-0.056124259
-0.25503375
-0.059207173
-0.26673862
-0.062390138
-0.2789811
-0.065669673
-0.29178729
-0.069042004
-0.30518501
-0.072500085
-0.31920568
-0.076036193
-0.33388093
-0.079640571
-0.34924458
-0.083300225
-0.3653347
-0.08699918
-0.38219132
-0.090718695
-0.39985532
-0.094435486
-0.41837216
-0.098121447
-0.43779075
-0.10174092
-0.45816699
-0.10524968
-0.47955953
-0.1085959
-0.50203093
-0.11171108
-0.52565229
-0.11447728
-0.55050331
-0.11663671
-0.57669542
-0.11768584
-0.60441683
-0.11705859
-0.63397354
-0.11510006
-0.66562942
-0.11457446
-0.69915455
-0.12098984
-0.73312531
-0.13684219
-0.76576105
-0.15744908
-0.79737453
-0.17555751
-0.83039789
-0.18787519
-0.86693629
-0.19518603
-0.90739384
-0.19946358
-0.95123195
-0.20212584
-0.9979002
-0.20378379
-1.0471511
-0.20457681
-1.0989707
-0.20445035
-1.1534571
-0.20328692
-1.2107385
-0.20094021
-1.270969
-0.19724273
-1.3343115
-0.19201027
-1.4009338
-0.1850352
-1.4710181
-0.17608892
-1.5447578
-0.16491482
-1.6223583
-0.15123296
-1.7040343
-0.13472841
-1.7900212
-0.11505593
-1.8805594
-0.091828259
-1.9759149
-0.064623169
-2.0763582
-2.1821949
-0.0007986244
-0.049939504
-0.0014721216
-0.061215409
-0.0022062559
-0.060132362
-0.0029823643
-0.06529445
-0.0037758943
-0.066963212
-0.0046471918
-0.070969245
-0.0055205747
-0.073802482
-0.006461828
-0.077585582
-0.0074252985
-0.081056579
-0.0084545211
-0.084948999
-0.0095151442
-0.088875913
-0.010632993
-0.093043137
-0.011795202
-0.097384606
-0.013011469
-0.1019273
-0.014281361
-0.10667714
-0.015608401
-0.11164215
-0.01699565
-0.1168329
-0.018445549
-0.12225975
-0.019961727
-0.12793305
-0.021546338
-0.13386461
-0.023203261
-0.14006409
-0.024935455
-0.14654444
-0.026746032
-0.15331845
-0.028638782
-0.16039936
-0.030616014
-0.16780127
-0.032681959
-0.17553763
-0.03483901
-0.18362443
-0.037090813
-0.19207784
-0.039439293
-0.20091531
-0.04188776
-0.21015364
-0.044437244
-0.2198134
-0.04708995
-0.22991317
-0.049847714
-0.24047434
-0.052710377
-0.25152123
-0.055677228
-0.26307928
-0.058745698
-0.27517341
-0.061913317
-0.28782899
-0.065175269
-0.30107578
-0.068525937
-0.31494521
-0.071957261
-0.32947027
-0.075458974
-0.34468591
-0.079019071
-0.36063057
-0.082622715
-0.37734569
-0.086250883
-0.39487384
-0.089881494
-0.41326068
-0.093487639
-0.43255634
-0.097035967
-0.45281779
-0.10048379
-0.47410694
-0.10378169
-0.49648511
-0.10686057
-0.52002565
-0.10959883
-0.54480958
-0.11173535
-0.57095096
-0.11276923
-0.59864381
-0.11216958
-0.62818846
-0.110363
-0.65982389
-0.11028159
-0.69330473
-0.11761034
-0.7272231
-0.13451053
-0.75992854
-0.15579003
-0.79187312
-0.17405589
-0.82546764
-0.18630144
-0.86264859
-0.19359328
-0.90370458
-0.19801529
-0.94809066
-0.20097633
-0.99530864
-0.20305446
-1.0451617
-0.20437269
-1.0976704
-0.20488445
-1.1529484
-0.20447901
-1.2111444
-0.20302107
-1.272427
-0.20036402
-1.3369685
-0.19633528
-1.4049626
-0.19075289
-1.4766005
-0.18340458
-1.5521061
-0.17406172
-1.6317012
-0.16246538
-1.7156306
-0.14833329
-1.8041533
-0.13135052
-1.8975422
-0.11116949
-1.9960959
-0.087398276
-2.1001294
-2.2099785
-0.00066514888
-0.049134523
-0.0012877577
-0.060464046
-0.0019436328
-0.059338979
-0.002660285
-0.064434675
-0.0033769608
-0.06609682
-0.0041771924
-0.070012445
-0.0049791806
-0.072838337
-0.0058681492
-0.076527983
-0.0067583112
-0.079991464
-0.0077224454
-0.083802256
-0.0087019237
-0.087706814
-0.0097369417
-0.091810323
-0.010815963
-0.096099086
-0.011947223
-0.10058001
-0.013131592
-0.10526671
-0.014372342
-0.11016482
-0.015672263
-0.11528518
-0.017034054
-0.12063808
-0.01846053
-0.12623382
-0.019955324
-0.13208338
-0.021520904
-0.13819746
-0.023161584
-0.14458702
-0.024880508
-0.15126599
-0.026680716
-0.1582477
-0.028566237
-0.16554508
-0.030539896
-0.17317247
-0.032605589
-0.18114484
-0.034766299
-0.1894793
-0.037025704
-0.19819241
-0.039385062
-0.20730314
-0.041847011
-0.2168304
-0.044413519
-0.22679309
-0.047086293
-0.23721256
-0.049866677
-0.24811331
-0.052754016
-0.25952247
-0.055745974
-0.27146605
-0.058839996
-0.28396906
-0.062032654
-0.29706162
-0.065317743
-0.31077715
-0.068687626
-0.32514909
-0.072132895
-0.34021314
-0.07564093
-0.35600954
-0.079197315
-0.37257986
-0.082783708
-0.38996824
-0.086377489
-0.40822187
-0.089952394
-0.42739076
-0.093474792
-0.44753364
-0.096904944
-0.46871287
-0.10019343
-0.49099318
-0.10327407
-0.5144483
-0.10602636
-0.53916255
-0.10818377
-0.56525609
-0.10924167
-0.59292704
-0.10871848
-0.62246609
-0.10717222
-0.65406908
-0.10784298
-0.68744462
-0.11656021
-0.72116777
-0.13484913
-0.75380226
-0.15678767
-0.7860223
-0.17499631
-0.82020642
-0.18699955
-0.85804904
-0.19422976
-0.89968344
-0.19884699
-0.9445626
-0.20220092
-0.99225478
-0.2048085
-1.0426228
-0.20677196
-1.09572
-0.20803625
-1.1516862
-0.20850778
-1.2106732
-0.20806225
-1.2728726
-0.20656926
-1.3384615
-0.20387721
-1.4076546
-0.19981114
-1.4806665
-0.19419377
-1.5577235
-0.18681046
-1.6390845
-0.17743495
-1.7250061
-0.16581295
-1.8157753
-0.15165286
-1.9117023
-0.13464677
-2.013102
-0.1144424
-2.1203337
-2.233766
-0.00054473501
-0.048456585
-0.0011369113
-0.05975223
-0.0017211028
-0.058628593
-0.0023852844
-0.063639323
-0.003032658
-0.065312008
-0.0037899502
-0.069112308
-0.0045229304
-0.071954986
-0.0053539354
-0.075539843
-0.0061713369
-0.079010489
-0.007062301
-0.082740795
-0.0079734209
-0.086617799
-0.0089373261
-0.090660438
-0.0099455299
-0.094896318
-0.011004553
-0.099317052
-0.01211644
-0.10394101
-0.01328371
-0.10877336
-0.014509562
-0.11382411
-0.015797114
-0.11910343
-0.01714953
-0.12462168
-0.018570263
-0.13038953
-0.020063273
-0.13641706
-0.021631107
-0.14271648
-0.023278464
-0.14929954
-0.025009015
-0.15618058
-0.026826073
-0.16337271
-0.028733503
-0.17088944
-0.030735246
-0.17874563
-0.032834928
-0.18695873
-0.035035674
-0.19554567
-0.037340248
-0.20452557
-0.039750583
-0.21391789
-0.042268169
-0.22374158
-0.044894938
-0.23401719
-0.047632813
-0.24476899
-0.050481321
-0.25602615
-0.053438802
-0.26781544
-0.056502759
-0.28016226
-0.059669745
-0.29309705
-0.062934181
-0.30665451
-0.066288824
-0.32086888
-0.069723834
-0.33577745
-0.073228129
-0.35142024
-0.076786793
-0.36784072
-0.080381757
-0.38508401
-0.083991191
-0.40319844
-0.087587402
-0.42223599
-0.091139257
-0.44225384
-0.094607637
-0.46331792
-0.097946282
-0.48549565
-0.10109268
-0.50886105
-0.10392153
-0.53350436
-0.10614877
-0.55954878
-0.10725006
-0.58719326
-0.10682988
-0.61671308
-0.10567714
-0.64825111
-0.10750729
-0.68144936
-0.11816441
-0.71484957
-0.13814375
-0.74730927
-0.1606191
-0.77978321
-0.17850209
-0.81457553
-0.19010303
-0.85307354
-0.1972612
-0.89523871
-0.20215368
-0.9405386
-0.20601463
-0.98861995
-0.20927604
-1.0394101
-0.21200775
-1.0929971
-0.21416232
-1.1495329
-0.21564382
-1.2091918
-0.21635535
-1.272161
-0.21616639
-1.3386505
-0.214951
-1.40887
-0.21255755
-1.48306
-0.20882041
-1.5614607
-0.20355529
-1.6443496
-0.19655689
-1.7320045
-0.18759661
-1.8247356
-0.17642485
-1.922874
-0.16275465
-2.0267722
-0.1462781
-2.1368103
-2.2533919
-0.00044596963
-0.047887936
-0.0010104608
-0.059077152
-0.001533937
-0.057988859
-0.0021604301
-0.062891744
-0.0027504394
-0.064594903
-0.0034651863
-0.068263847
-0.004135847
-0.07114427
-0.0049018783
-0.074627125
-0.0056629185
-0.078096379
-0.0064907794
-0.08175284
-0.0073462403
-0.085595146
-0.0082510339
-0.089580546
-0.0092005508
-0.093763311
-0.010199665
-0.098125326
-0.01125146
-0.10268695
-0.012359361
-0.10745301
-0.013526345
-0.11243385
-0.01475564
-0.11763926
-0.016051221
-0.12307887
-0.017416532
-0.12876389
-0.018855839
-0.13470349
-0.020372962
-0.14091018
-0.02197212
-0.14739522
-0.023657446
-0.15417302
-0.025433192
-0.16125643
-0.027303529
-0.16865879
-0.029271743
-0.17639578
-0.031342767
-0.18448317
-0.033520097
-0.19293918
-0.035806493
-0.20178352
-0.038204236
-0.21103589
-0.040714296
-0.22071617
-0.04333883
-0.23084338
-0.046078435
-0.24144297
-0.048934215
-0.2525432
-0.051904824
-0.26417296
-0.054987073
-0.27635916
-0.058177323
-0.28913201
-0.061470917
-0.30252629
-0.064860411
-0.31657823
-0.068337025
-0.33132549
-0.071889042
-0.3468095
-0.075503007
-0.36307342
-0.079161102
-0.38016474
-0.082840438
-0.39813432
-0.086514312
-0.41703406
-0.090153531
-0.43692003
-0.093721888
-0.45786202
-0.097178523
-0.47992822
-0.10046134
-0.50319428
-0.10343185
-0.52775474
-0.10576629
-0.55373921
-0.10691455
-0.58134678
-0.10664181
-0.61082687
-0.1060862
-0.64226937
-0.10962036
-0.67519234
-0.12280441
-0.70815133
-0.14464359
-0.74037727
-0.1673868
-0.77311593
-0.18465162
-0.80852775
-0.19574128
-0.8476432
-0.2028753
-0.89026326
-0.20816327
-0.93589436
-0.21266827
-0.98427152
-0.21672356
-1.0353862
-0.22036994
-1.0893559
-0.2235566
-1.146347
-0.22620675
-1.2065418
-0.22822229
-1.2701455
-0.22950533
-1.3373674
-0.22993457
-1.4084408
-0.22938169
-1.4836129
-0.22770208
-1.5631403
-0.22473243
-1.6473193
-0.22029311
-1.7364438
-0.21418585
-1.8308428
-0.20618435
-1.9308755
-0.19604601
-2.0369105
-0.18349556
-2.1493607
-2.26866
-0.00036868861
-0.047407665
-0.00091019175
-0.058433474
-0.0013811936
-0.057410256
-0.0019882182
-0.06217254
-0.0025306825
-0.063934553
-0.0031993301
-0.067470988
-0.0038160714
-0.070396998
-0.0045375313
-0.073768508
-0.0052515531
-0.077238873
-0.0060309532
-0.080822989
-0.0068395837
-0.08462909
-0.0076955331
-0.088559472
-0.0085979106
-0.092687655
-0.0095502423
-0.096990893
-0.010556732
-0.10148899
-0.01162035
-0.10618798
-0.012745276
-0.11109695
-0.013934852
-0.11622641
-0.015193261
-0.12158514
-0.016525234
-0.12718381
-0.017934497
-0.13303253
-0.019426104
-0.13914233
-0.0210042
-0.1455253
-0.022673361
-0.15219538
-0.024438482
-0.15916496
-0.026303439
-0.16644822
-0.02827343
-0.17405941
-0.030352521
-0.1820153
-0.032544562
-0.19033421
-0.034853504
-0.19903562
-0.037281019
-0.20814126
-0.03982876
-0.21767077
-0.042497442
-0.22764376
-0.045288802
-0.23808425
-0.048202528
-0.24902207
-0.051237705
-0.2604864
-0.054391679
-0.27250556
-0.057660119
-0.28511075
-0.061037891
-0.29833662
-0.06451819
-0.31222021
-0.068092378
-0.32680011
-0.071749469
-0.34211858
-0.075476237
-0.35821901
-0.079255106
-0.37515126
-0.083065027
-0.39296722
-0.086879327
-0.41172078
-0.090669978
-0.43146717
-0.094407552
-0.45227567
-0.098053128
-0.47421873
-0.1015426
-0.4973683
-0.1047051
-0.52182841
-0.10716468
-0.5477341
-0.10836866
-0.57528961
-0.10832975
-0.60469805
-0.10869391
-0.63599916
-0.11466289
-0.66853546
-0.13093119
-0.70094906
-0.15455221
-0.73292731
-0.17714127
-0.76597066
-0.19351576
-0.80199564
-0.20406799
-0.84165797
-0.21129751
-0.88463176
-0.21714112
-0.9304901
-0.22244875
-0.97906215
-0.22745549
-1.0303974
-0.232176
-1.084638
-0.23656201
-1.1419613
-0.24054646
-1.2025574
-0.24404799
-1.266644
-0.24697799
-1.3344374
-0.2492408
-1.406178
-0.25072213
-1.4821315
-0.251296
-1.5625664
-0.25082944
-1.6477858
-0.24916149
-1.7381118
-0.24611952
-1.8338848
-0.24151691
-1.9354782
-0.2351367
-2.0432907
-0.22674096
-2.1577565
-2.2793349
-0.00030526299
-0.047000738
-0.0008283631
-0.057815339
-0.0012505604
-0.056887887
-0.0018478574
-0.061470711
-0.0023477205
-0.0633247
-0.002982172
-0.066720447
-0.0035596008
-0.069697385
-0.0042413534
-0.072958109
-0.0049195714
-0.076425792
-0.0056597725
-0.079941065
-0.0064348948
-0.083705417
-0.0072563648
-0.087581992
-0.0081269085
-0.091653228
-0.00904915
-0.095896285
-0.010027692
-0.10032905
-0.011066712
-0.10495792
-0.012169632
-0.10979271
-0.013341706
-0.11484203
-0.014587121
-0.12011571
-0.015910834
-0.12562362
-0.017317742
-0.1313759
-0.018812648
-0.13738354
-0.020400596
-0.14365832
-0.022087493
-0.15021321
-0.023877287
-0.15706246
-0.02577558
-0.16421844
-0.027786642
-0.17169661
-0.029915456
-0.17951289
-0.032166368
-0.18768607
-0.034542772
-0.1962364
-0.037047233
-0.20518627
-0.039681592
-0.21455578
-0.042446542
-0.22436546
-0.045342037
-0.23463966
-0.048368563
-0.24540715
-0.051525081
-0.25669824
-0.054807944
-0.26854354
-0.058213023
-0.280974
-0.061735123
-0.29402442
-0.065367296
-0.30773274
-0.06910065
-0.32213851
-0.072925229
-0.33728367
-0.076827423
-0.35321328
-0.080791716
-0.36997702
-0.084797694
-0.38762932
-0.088820145
-0.40622578
-0.09283428
-0.42582007
-0.096815364
-0.44648073
-0.10072585
-0.46828387
-0.10448584
-0.49129883
-0.10787654
-0.51563833
-0.11046435
-0.54144663
-0.11176651
-0.56893
-0.11218575
-0.59822884
-0.11409854
-0.62929783
-0.12329548
-0.66130578
-0.14294057
-0.69312019
-0.16794766
-0.72488463
-0.18986426
-0.75828679
-0.20515758
-0.79489064
-0.21526204
-0.83499183
-0.22278266
-0.87819711
-0.22937673
-0.9241674
-0.2356664
-0.97282722
-0.24179873
-1.0242739
-0.24777124
-1.0786667
-0.25354014
-1.1361925
-0.25904788
-1.1970496
-0.26423136
-1.2614605
-0.2690206
-1.3296482
-0.27332461
-1.4018739
-0.27705942
-1.4783967
-0.28011538
-1.5595104
-0.28238053
-1.6455207
-0.28372422
-1.7367681
-0.28400182
-1.8336072
-0.28305238
-1.9364276
-0.28069158
-2.0456515
-0.27672583
-2.1617222
-2.2851366
-0.00025551564
-0.046652002
-0.00076757952
-0.057214484
-0.0011494826
-0.056412285
-0.0017333869
-0.060789034
-0.0021955336
-0.06275952
-0.0028063901
-0.066000809
-0.0033582662
-0.069031065
-0.0040129503
-0.07218255
-0.0046704867
-0.075641304
-0.0053859668
-0.079091919
-0.0061428931
-0.082808146
-0.0069465484
-0.086630778
-0.007802578
-0.090642054
-0.0087134908
-0.09482209
-0.0096844139
-0.099186162
-0.010719866
-0.10374119
-0.011825032
-0.10849632
-0.013004678
-0.11346048
-0.014264106
-0.118643
-0.015609251
-0.12405307
-0.017045135
-0.12970172
-0.018577961
-0.13559865
-0.020212667
-0.14175681
-0.021955092
-0.14818818
-0.0238111
-0.15490685
-0.025785534
-0.16192609
-0.027883781
-0.1692607
-0.030110414
-0.17692727
-0.032469299
-0.18494508
-0.034964409
-0.19333411
-0.03759881
-0.20211743
-0.040373953
-0.21131652
-0.043290181
-0.22095287
-0.046347606
-0.2310507
-0.049545656
-0.24163892
-0.052882527
-0.25274864
-0.056355413
-0.26441099
-0.059959715
-0.27665803
-0.063689598
-0.28952493
-0.067538389
-0.30304955
-0.071497108
-0.31727275
-0.075555161
-0.3322367
-0.079700623
-0.34798586
-0.083919118
-0.36457015
-0.08819168
-0.38204634
-0.092496328
-0.40047076
-0.096811661
-0.41989658
-0.10111764
-0.44039079
-0.10537201
-0.4620337
-0.10946214
-0.48489531
-0.11310477
-0.50909519
-0.11582076
-0.53478672
-0.11733274
-0.56215307
-0.11847639
-0.59129943
-0.12277752
-0.62202869
-0.13609742
-0.65335253
-0.15911142
-0.68454469
-0.18478732
-0.71618056
-0.20552114
-0.74998703
-0.21969
-0.78709325
-0.22956455
-0.82749186
-0.23763956
-0.870789
-0.24520567
-0.91674967
-0.25267362
-0.96538541
-0.26012452
-1.0168266
-0.26754531
-1.0712463
-0.27490158
-1.1288363
-0.28214725
-1.1898039
-0.28923429
-1.2543735
-0.29610205
-1.3227804
-0.30268987
-1.3952861
-0.3089231
-1.4721635
-0.31472011
-1.5537134
-0.31998523
-1.6402556
-0.32461584
-1.7321375
-0.32849528
-1.8297278
-0.33149059
-1.9334323
-0.33345947
-2.0436827
-0.3342293
-2.1609524
-2.2857384
-0.00022007456
-0.04634598
-0.00073185843
-0.05661964
-0.0010887137
-0.055967621
-0.0016536544
-0.060132418
-0.0020899027
-0.062226563
-0.0026881468
-0.065300505
-0.0032283039
-0.068383407
-0.0038676055
-0.071429571
-0.0045195638
-0.07486974
-0.0052250938
-0.078260253
-0.0059796534
-0.081920922
-0.0067832946
-0.085687503
-0.0076439554
-0.089634453
-0.0085645869
-0.093746713
-0.0095507831
-0.098036889
-0.01060797
-0.10251196
-0.01174194
-0.10718068
-0.012958732
-0.11205168
-0.014264366
-0.11713432
-0.015664614
-0.122438
-0.017166894
-0.12797209
-0.018776234
-0.13374858
-0.02049979
-0.1397782
-0.022343073
-0.14607445
-0.02431201
-0.15265091
-0.02641257
-0.15952066
-0.028649753
-0.16669938
-0.031027781
-0.17420428
-0.033551002
-0.18205432
-0.036222358
-0.19027066
-0.03904451
-0.19887641
-0.042019726
-0.20789323
-0.045148066
-0.21734462
-0.048428808
-0.22725532
-0.051860545
-0.23765442
-0.055441388
-0.24857296
-0.059168134
-0.26004286
-0.063036059
-0.27209699
-0.067039709
-0.28477044
-0.071171825
-0.29810195
-0.075424181
-0.31213223
-0.079786934
-0.32690363
-0.084248299
-0.3424607
-0.088794097
-0.35885355
-0.093408889
-0.37613833
-0.098075427
-0.39437228
-0.10277688
-0.41360955
-0.10749519
-0.43391528
-0.11217256
-0.45537325
-0.11664066
-0.47805871
-0.12054657
-0.5020955
-0.12341216
-0.52765067
-0.12539857
-0.55485769
-0.12793889
-0.58375351
-0.13568751
-0.61394627
-0.15364523
-0.64452235
-0.17950488
-0.67512279
-0.20491531
-0.70674792
-0.22409602
-0.74096641
-0.23729832
-0.778447
-0.24728671
-0.81897788
-0.25622191
-0.86221566
-0.26499838
-0.90804227
-0.27385885
-0.95653488
-0.28283935
-1.0078471
-0.29192635
-1.0621593
-0.30109424
-1.1196684
-0.31031345
-1.1805847
-0.31954667
-1.2451403
-0.32875422
-1.3135729
-0.33789179
-1.3861486
-0.34689872
-1.4631566
-0.35571903
-1.5448931
-0.36428273
-1.6316919
-0.37251284
-1.7239074
-0.38031372
-1.8219269
-0.38759205
-1.926154
-0.39423119
-2.0370435
-0.40010518
-2.1550784
-2.2807742
-0.00019048574
-0.046075903
-0.00070991591
-0.056022487
-0.0010513191
-0.055543849
-0.0016128917
-0.059484822
-0.0020383597
-0.061710342
-0.0026332389
-0.064609774
-0.0031756209
-0.067739968
-0.0038113382
-0.070686871
-0.0044728804
-0.074095455
-0.0051849547
-0.077429117
-0.0059544418
-0.081026015
-0.0067781729
-0.084731622
-0.0076653274
-0.088608112
-0.0086198369
-0.092645526
-0.0096480205
-0.096854031
-0.01075617
-0.10124051
-0.011950957
-0.10581332
-0.013239017
-0.11058105
-0.014627881
-0.1155522
-0.016124356
-0.12073685
-0.017735336
-0.12614427
-0.019468041
-0.13178603
-0.021328704
-0.13767378
-0.02332398
-0.14382045
-0.025460439
-0.15023958
-0.027743175
-0.15694564
-0.030177337
-0.1639541
-0.03276713
-0.171283
-0.03551596
-0.17895191
-0.038425849
-0.18698315
-0.041500204
-0.19539816
-0.044739686
-0.20422109
-0.048144969
-0.21347524
-0.051714059
-0.22318774
-0.055444903
-0.23338725
-0.059335593
-0.24410414
-0.06338274
-0.25537117
-0.067581558
-0.2672219
-0.071926511
-0.27969141
-0.076411449
-0.29281811
-0.081028859
-0.30664284
-0.085769648
-0.32120795
-0.090622268
-0.3365586
-0.095574354
-0.35274402
-0.10061367
-0.36981938
-0.10572936
-0.38784156
-0.11091076
-0.40686561
-0.1161323
-0.42695782
-0.1213037
-0.44820187
-0.12617645
-0.47068838
-0.13035168
-0.49454382
-0.13353065
-0.51990296
-0.1362542
-0.54689826
-0.14114326
-0.57543488
-0.15364478
-0.60489755
-0.1762732
-0.63466459
-0.20390559
-0.66477582
-0.22812638
-0.69650225
-0.24565041
-0.73107981
-0.25826135
-0.76875849
-0.26880284
-0.80923779
-0.27891932
-0.85226537
-0.28915601
-0.89783077
-0.29963815
-0.94605516
-0.31038
-0.99710524
-0.32137349
-1.0511658
-0.33260544
-1.1084364
-0.34405737
-1.1691328
-0.35571203
-1.2334856
-0.36754398
-1.3017409
-0.37952057
-1.374172
-0.39161613
-1.451061
-0.403784
-1.5327253
-0.41597987
-1.619496
-0.42815008
-1.7117372
-0.44024097
-1.809836
-0.45217556
-1.9142194
-0.46387688
-2.0253422
-0.4752586
-2.1436967
-2.2698171
-0.00016732243
-0.045834644
-0.00070460046
-0.055412468
-0.0010410238
-0.055130119
-0.0016148487
-0.058830257
-0.0020445489
-0.061195392
-0.0026463337
-0.06391792
-0.0032066706
-0.067084589
-0.003852843
-0.06994
-0.0045412143
-0.073300811
-0.0052795378
-0.076578436
-0.0060845873
-0.080102435
-0.0069521229
-0.08373906
-0.0078919634
-0.087536467
-0.0089092634
-0.091489218
-0.010011124
-0.095605483
-0.011204787
-0.099891877
-0.012497997
-0.1043562
-0.013898712
-0.1090068
-0.015414512
-0.11385253
-0.017053987
-0.11890245
-0.018824337
-0.1241672
-0.020733277
-0.12965776
-0.022787466
-0.13538673
-0.024993685
-0.14136681
-0.027358042
-0.14761207
-0.029885999
-0.15413751
-0.032581651
-0.16095985
-0.035448836
-0.16809725
-0.038489564
-0.17557095
-0.041706476
-0.18340241
-0.045100318
-0.19161465
-0.048672043
-0.20023135
-0.052421184
-0.20927695
-0.056345885
-0.21877968
-0.06044384
-0.22876823
-0.06471238
-0.23927274
-0.06914787
-0.2503263
-0.073746511
-0.26196195
-0.078503112
-0.27421535
-0.083412592
-0.28712384
-0.088468825
-0.30072798
-0.093663845
-0.31507023
-0.098987797
-0.33019593
-0.10443009
-0.34615432
-0.10998358
-0.36299811
-0.11564573
-0.38078172
-0.12140737
-0.39956316
-0.12722179
-0.41941151
-0.13294205
-0.4404122
-0.1382431
-0.4626717
-0.14270408
-0.48630466
-0.14638321
-0.51144115
-0.1506731
-0.53807271
-0.15928655
-0.56602154
-0.17724697
-0.59470977
-0.20394129
-0.6236627
-0.23189988
-0.6534343
-0.2542797
-0.68532388
-0.27038556
-0.7201301
-0.28297286
-0.75780222
-0.29454125
-0.79803802
-0.30615771
-0.84070799
-0.31811279
-0.88588112
-0.3304642
-0.93370346
-0.34322158
-0.98434765
-0.35638622
-1.0380011
-0.36995726
-1.0948654
-0.38393189
-1.1551582
-0.39830892
-1.2191086
-0.41307554
-1.2869743
-0.42822706
-1.3590204
-0.44374483
-1.4355432
-0.45961486
-1.5168552
-0.47581847
-1.6032924
-0.49232535
-1.6952303
-0.50910516
-1.7930562
-0.52611826
-1.8972063
-0.54332498
-2.0081355
-0.56067166
-2.12635
-2.2523911
-0.00014921696
-0.045616594
-0.00071600873
-0.05477759
-0.0010578881
-0.054715671
-0.001653275
-0.058159072
-0.0021020472
-0.060666529
-0.0027229499
-0.063212371
-0.0033193115
-0.066398832
-0.0039936742
-0.069170863
-0.0047287356
-0.072465596
-0.005517451
-0.075683736
-0.0063831487
-0.079124782
-0.0073227078
-0.082681283
-0.0083462239
-0.0863882
-0.0094604197
-0.090243342
-0.010673449
-0.094253393
-0.011993707
-0.0984246
-0.013429969
-0.10276434
-0.014991232
-0.10728067
-0.016686472
-0.11198247
-0.018524067
-0.11687937
-0.020512548
-0.12198181
-0.022659341
-0.12730181
-0.024971237
-0.13285252
-0.027454862
-0.13864667
-0.030115345
-0.14469972
-0.032957161
-0.15102718
-0.035984443
-0.15764599
-0.039198836
-0.16457667
-0.042602242
-0.17184004
-0.046195402
-0.17945848
-0.04997869
-0.18745508
-0.05395206
-0.1958536
-0.058113477
-0.2046802
-0.062462188
-0.21396149
-0.066995213
-0.22372792
-0.071709671
-0.23400902
-0.076603058
-0.24483686
-0.081671513
-0.25624511
-0.086912251
-0.26826754
-0.092321312
-0.28094159
-0.097894007
-0.29430712
-0.10362397
-0.3084066
-0.10950401
-0.32328504
-0.11552819
-0.33899124
-0.12169608
-0.35557514
-0.12800951
-0.37308934
-0.13445145
-0.3915942
-0.1409335
-0.41116406
-0.14722667
-0.43188332
-0.15294894
-0.4538739
-0.15789987
-0.47723772
-0.16268473
-0.50204316
-0.16955931
-0.5281919
-0.1832942
-0.55543862
-0.2068253
-0.5831977
-0.23616066
-0.61142819
-0.26303712
-0.64100924
-0.28339178
-0.67303963
-0.29867017
-0.70787511
-0.3119163
-0.74531614
-0.32495829
-0.78512648
-0.33838293
-0.82729493
-0.35232462
-0.871938
-0.36681375
-0.91921358
-0.38186435
-0.96929692
-0.39749011
-1.0223753
-0.41370446
-1.078651
-0.4305209
-1.1383417
-0.44794853
-1.2016809
-0.46599972
-1.2689231
-0.4846831
-1.3403371
-0.504008
-1.4162183
-0.52397908
-1.4968841
-0.54459635
-1.5826751
-0.56586914
-1.6739575
-0.58778811
-1.7711372
-0.61035559
-1.8746388
-0.63355527
-1.9849358
-0.65738014
-2.1025252
-2.2279644
-0.00013816311
-0.045414288
-0.00074894888
-0.054103095
-0.0011042515
-0.054292283
-0.0017335037
-0.057458701
-0.002218145
-0.060106664
-0.0028732572
-0.062477746
-0.0035270094
-0.065661035
-0.0042514909
-0.068357236
-0.0050563661
-0.071566401
-0.0059231539
-0.074717051
-0.0068789791
-0.07806331
-0.0079234682
-0.081525115
-0.0090673101
-0.085126386
-0.010319073
-0.088866938
-0.011688104
-0.092752626
-0.013184183
-0.096789147
-0.014817126
-0.10098379
-0.016596742
-0.10534456
-0.018532557
-0.10988058
-0.02063352
-0.11460204
-0.022907585
-0.11952032
-0.02536224
-0.12464785
-0.02800402
-0.12999861
-0.030837723
-0.13558699
-0.03386802
-0.14142841
-0.037097966
-0.14753989
-0.040529444
-0.15393941
-0.0441638
-0.16064789
-0.048001264
-0.16768708
-0.052041371
-0.17507984
-0.056283096
-0.18284946
-0.060725645
-0.19101916
-0.065367376
-0.1996156
-0.07020656
-0.20866514
-0.075241613
-0.21819765
-0.080470495
-0.22824259
-0.085891243
-0.23883135
-0.091502704
-0.24999604
-0.097302252
-0.26177096
-0.10328881
-0.27419074
-0.10945929
-0.28729584
-0.11581082
-0.30112727
-0.12233954
-0.31573114
-0.12904756
-0.331153
-0.13594177
-0.34744102
-0.14301896
-0.36464966
-0.15023157
-0.38284138
-0.157426
-0.40209323
-0.16430304
-0.42249964
-0.17055539
-0.44417248
-0.17629262
-0.46716841
-0.18298342
-0.49152616
-0.19397827
-0.51704001
-0.21379436
-0.54339282
-0.24212481
-0.57022446
-0.27216834
-0.59788589
-0.29704713
-0.62736676
-0.31574439
-0.65940421
-0.33104908
-0.69403874
-0.34561924
-0.73102027
-0.360534
-0.77023647
-0.37606685
-0.81175759
-0.39227916
-0.85572337
-0.40919636
-0.90229592
-0.42684441
-0.95164884
-0.44524972
-1.00397
-0.46443978
-1.059461
-0.48444282
-1.1183387
-0.50528637
-1.1808374
-0.52700239
-1.2472071
-0.54961887
-1.3177206
-0.5731638
-1.3926734
-0.59766751
-1.4723804
-0.62316266
-1.55718
-0.6496749
-1.6474453
-0.67723458
-1.7435775
-0.70586734
-1.846006
-0.73560818
-1.955195
-0.76647577
-2.0716576
-2.1959374
-0.00013345902
-0.045221025
-0.00080613988
-0.053370815
-0.0011806444
-0.05385395
-0.0018594969
-0.056713151
-0.0024002587
-0.059495285
-0.0031069142
-0.061696429
-0.003840895
-0.064848073
-0.0046404129
-0.067473916
-0.0055405582
-0.070577498
-0.0065170254
-0.07364651
-0.0075981185
-0.076882627
-0.0087874328
-0.080230418
-0.010096682
-0.083705699
-0.011536157
-0.087309612
-0.013116619
-0.091047496
-0.014848717
-0.094925053
-0.016743019
-0.098949603
-0.01880957
-0.10312959
-0.021057879
-0.10747466
-0.023496475
-0.11199591
-0.026132948
-0.11670562
-0.028973365
-0.12161765
-0.032022635
-0.12674705
-0.035284822
-0.13210894
-0.038761919
-0.13772068
-0.042455562
-0.14359953
-0.046365354
-0.14976535
-0.050490995
-0.15623884
-0.054831577
-0.16304218
-0.059385513
-0.1701986
-0.064151599
-0.1777307
-0.069128035
-0.18566194
-0.074314057
-0.19401761
-0.079708629
-0.20282399
-0.085311762
-0.21210947
-0.091122799
-0.2219037
-0.097142432
-0.2322361
-0.10337036
-0.24313898
-0.10980794
-0.25464381
-0.11645474
-0.26678561
-0.12331187
-0.27960205
-0.13037855
-0.29313586
-0.1376595
-0.30742981
-0.14516533
-0.32252733
-0.15290506
-0.33847655
-0.1608582
-0.35533482
-0.16892283
-0.3731705
-0.17686955