/*--------------------------------*- C++ -*----------------------------------*\
  =========                 |
  \\      /  F ield         | OpenFOAM: The Open Source CFD Toolbox
   \\    /   O peration     | Website:  https://openfoam.org
    \\  /    A nd           | Version:  12
     \\/     M anipulation  |
\*---------------------------------------------------------------------------*/
FoamFile
{
    format      ascii;
    class       volVectorField;
    location    "0.002";
    object      U;
}
// * * * * * * * * * * * * * * * * * * * * * * * * * * * * * * * * * * * * * //

dimensions      [0 1 -1 0 0 0 0];

internalField   nonuniform List<vector> 
16000
(
(213.74041 -3.1438514e-17 -7.7399044)
(240.57338 0 5.0960037)
(228.73309 0 -6.8809415)
(235.22536 5.0513685e-17 3.475247)
(231.09257 -4.9849316e-17 -5.4811791)
(233.18257 0 1.6002174)
(231.45249 0 -4.1291904)
(231.99516 8.5448842e-17 -0.046011472)
(231.1506 -8.1221914e-17 -3.1770844)
(231.06567 0 -1.2678234)
(230.51555 7.3442586e-17 -2.6985558)
(230.17217 -2.0931769e-16 -2.0721416)
(229.71152 1.3253921e-16 -2.6238982)
(229.27382 -1.2610623e-16 -2.570023)
(228.80577 1.1969618e-16 -2.8034725)
(228.32511 -3.5594636e-18 -2.9218853)
(227.8259 -3.3822187e-18 -3.085474)
(227.30991 -9.9595708e-17 -3.2375313)
(226.77763 1.9519457e-16 -3.3947593)
(226.22859 -9.2634716e-17 -3.5524569)
(225.66173 1.7622555e-16 -3.7110526)
(225.07708 -1.67086e-16 -3.8698428)
(224.47537 0 -4.0283695)
(223.85673 1.5557869e-16 -4.1862143)
(223.22068 -4.226294e-18 -4.342885)
(222.5673 -2.7158641e-16 -4.4978274)
(221.89725 1.2873691e-16 -4.6505569)
(221.2108 0 -4.8007427)
(220.50806 0 -4.9480452)
(219.78969 2.2363814e-16 -5.0921446)
(219.05649 -2.0837254e-16 -5.2328769)
(218.3091 0 -5.3701279)
(217.54849 0 -5.503909)
(216.77577 0 -5.6344025)
(215.99183 5.2691146e-18 -5.7620936)
(215.19758 1.5961689e-16 -5.8876739)
(214.39411 -1.460884e-16 -6.0119357)
(213.58272 -1.4314453e-16 -6.1358165)
(212.76478 1.2670388e-16 -6.2606185)
(211.9415 0 -6.3880749)
(211.11396 -1.2137133e-16 -6.5201157)
(210.28345 1.145232e-16 -6.6591911)
(209.45143 -2.1722669e-16 -6.808554)
(208.61881 2.0485558e-16 -6.9717025)
(207.78633 -2.0031253e-16 -7.1529766)
(206.95504 3.6669742e-16 -7.3573942)
(206.12558 5.9707753e-18 -7.5909971)
(205.29865 5.4073647e-19 -7.8611701)
(204.47547 -1.5445892e-16 -8.1755485)
(203.65798 1.4645613e-16 -8.544576)
(202.84721 -1.2917112e-16 -8.9890168)
(202.03687 0 -9.5630092)
(201.19965 7.7184434e-18 -10.383785)
(200.2872 0 -11.593895)
(199.2748 6.9019313e-18 -13.171045)
(198.25889 2.1538343e-16 -14.595167)
(197.51836 -3.9250361e-16 -14.75811)
(197.37496 1.3461407e-17 -12.763172)
(197.85957 1.7440858e-16 -9.0995275)
(198.63238 -1.5097477e-16 -5.2703792)
(199.30152 1.4328064e-16 -2.4878464)
(199.70979 -8.9212788e-18 -0.96677952)
(199.90098 0 -0.31298346)
(199.97192 0 -0.085589163)
(199.99329 -1.1201193e-16 -0.019916163)
(199.99863 1.1273695e-16 -0.003975005)
(199.99976 -9.9762423e-17 -0.00068333224)
(199.99996 1.9471503e-16 -0.00010154608)
(200 -1.8993552e-16 -1.308296e-05)
(200 8.4191226e-17 -1.4649846e-06)
(200 5.3118297e-18 -1.428864e-07)
(200 0 -1.216056e-08)
(200 4.7715111e-18 -9.0423163e-10)
(200 -4.5303371e-18 -5.8878156e-11)
(200 0 -3.4771362e-12)
(200 -3.3843268e-17 1.8149925e-14)
(200 6.2624896e-17 4.8359327e-13)
(200 -3.1811831e-17 1.7646713e-13)
(200 0 1.5798786e-13)
(200 0 1.1078253e-13)
(212.40592 0 -10.484944)
(241.45791 -3.8089323e-18 3.161616)
(228.69468 -1.2183778e-16 -9.7662883)
(235.7197 1.1263274e-16 1.538547)
(231.14266 0 -8.3221804)
(233.50536 1.0366235e-16 -0.41612538)
(231.56116 -1.9146302e-16 -6.8535626)
(232.21266 -9.63053e-20 -2.2092357)
(231.26895 8.6348681e-17 -5.7334445)
(231.20742 0 -3.578666)
(230.62417 -1.5606882e-16 -5.123814)
(230.26015 1.5273176e-16 -4.4460611)
(229.77542 1.452939e-16 -4.9896919)
(229.31009 -2.6753047e-16 -4.9357659)
(228.81436 1.2301407e-16 -5.1453397)
(228.303 1.1320221e-17 -5.2574091)
(227.77125 1.1830482e-16 -5.4029709)
(227.22071 -1.053797e-16 -5.5405847)
(226.65259 0 -5.6805843)
(226.06653 0 -5.8202945)
(225.46114 5.8308754e-18 -5.9594855)
(224.83643 -1.825739e-16 -6.0974539)
(224.19375 3.4625095e-16 -6.2336711)
(223.53364 -3.235523e-16 -6.3676551)
(222.85551 1.4623795e-16 -6.4988198)
(222.15939 0 -6.6265516)
(221.44645 1.2756741e-16 -6.7502907)
(220.71743 -1.3683899e-16 -6.8696123)
(219.97251 0 -6.9841433)
(219.21245 3.6373267e-18 -7.0934963)
(218.43851 -1.3743158e-17 -7.1974926)
(217.65152 0 -7.2960273)
(216.85258 0 -7.388987)
(216.04347 -1.7504103e-16 -7.4765404)
(215.22558 3.4762593e-16 -7.5593475)
(214.39978 -1.6691781e-16 -7.6382617)
(213.56696 -1.6325874e-16 -7.7141731)
(212.7285 1.4941084e-16 -7.7881437)
(211.88611 -1.151118e-16 -7.8616819)
(211.04098 -3.4311692e-19 -7.9366883)
(210.19416 -3.3086434e-19 -8.0152503)
(209.34715 2.3901486e-16 -8.0998909)
(208.50145 -1.1275724e-16 -8.1939913)
(207.65785 0 -8.3008476)
(206.81682 2.0801302e-16 -8.4248816)
(205.97906 1.2481891e-17 -8.5709815)
(205.14522 -5.0394473e-18 -8.7450772)
(204.31516 -1.6914692e-16 -8.9548559)
(203.48833 0 -9.207809)
(202.66426 -1.5109917e-16 -9.5147731)
(201.84025 -9.4524658e-18 -9.8976801)
(201.00669 2.6845091e-16 -10.414209)
(200.13835 -1.3417764e-16 -11.18769)
(199.20156 0 -12.368432)
(198.20312 -2.1177448e-17 -13.931356)
(197.2762 -2.2006491e-16 -15.33235)
(196.72704 3.7518767e-16 -15.402941)
(196.8565 -2.2409206e-16 -13.238308)
(197.60364 0 -9.3444523)
(198.5495 -1.7337989e-16 -5.3400603)
(199.29562 1.8317654e-16 -2.4773763)
(199.72215 2.698634e-17 -0.94196327)
(199.90983 0 -0.29724796)
(199.97551 -1.4305423e-16 -0.078890488)
(199.99438 7.493502e-18 -0.017769572)
(199.9989 1.125988e-16 -0.0034207185)
(199.99982 -1.9874068e-17 -0.00056484664)
(199.99997 9.35777e-17 -8.0242582e-05)
(200 -1.0579171e-16 -9.8311363e-06)
(200 5.5398019e-18 -1.040866e-06)
(200 -5.224761e-18 -9.5376597e-08)
(200 0 -7.571332e-09)
(200 -4.6575863e-18 -5.2113653e-10)
(200 4.4033767e-18 -3.1262078e-11)
(200 8.3349946e-18 -1.6961949e-12)
(200 9.8727403e-19 1.2753792e-13)
(200 0 3.0090061e-13)
(200 3.0275162e-17 2.5588946e-13)
(200 -5.7657589e-17 2.7391251e-13)
(200 2.5875989e-17 5.7564222e-14)
(211.32627 0 -13.254889)
(242.1957 -1.254362e-16 1.0453062)
(228.63162 2.5512351e-16 -12.693677)
(236.10184 -2.2841696e-16 -0.57541023)
(231.16623 1.1279258e-16 -11.201973)
(233.66947 -3.3347181e-18 -2.6251502)
(231.60696 1.0172689e-16 -9.6007726)
(232.29265 -9.637905e-17 -4.560015)
(231.31008 -5.7344941e-18 -8.3326312)
(231.24418 -5.4458695e-18 -6.0343624)
(230.60126 -1.0348525e-17 -7.6181001)
(230.20803 1.4250156e-16 -6.9325824)
(229.69592 -1.444776e-16 -7.4460105)
(229.19892 1.4183943e-16 -7.4015419)
(228.67125 -1.2187813e-16 -7.5853423)
(228.12565 -1.5976933e-17 -7.6904344)
(227.55782 0 -7.8184702)
(226.96957 1.5715275e-20 -7.94026)
(226.36254 -2.3250838e-16 -8.0620144)
(225.73661 -3.5508487e-19 -8.1819482)
(225.09018 1.7824317e-16 -8.2995553)
(224.42314 1.7521215e-17 -8.4140863)
(223.73728 -2.2149704e-17 -8.5249872)
(223.03368 0 -8.6317159)
(222.31173 -3.0130024e-20 -8.7336162)
(221.57131 -1.7009837e-16 -8.8300118)
(220.81398 1.5193278e-16 -8.920313)
(220.04113 8.4647877e-18 -9.0040398)
(219.25317 0 -9.0807934)
(218.45098 -7.5946077e-18 -9.1502147)
(217.63621 -5.3314966e-20 -9.2121784)
(216.8098 -2.0479734e-16 -9.2666149)
(215.97289 2.062796e-16 -9.313355)
(215.12813 1.2287591e-17 -9.3525754)
(214.27781 -1.8506027e-16 -9.3851051)
(213.42276 1.5267921e-16 -9.4119829)
(212.56358 -1.8615226e-16 -9.4342087)
(211.70185 1.559779e-16 -9.4530479)
(210.83961 -1.476705e-16 -9.4703121)
(209.97806 1.391993e-16 -9.4881646)
(209.11825 1.648993e-17 -9.5090327)
(208.2617 0 -9.5357428)
(207.40984 2.0545364e-16 -9.5719157)
(206.56328 -2.4866755e-16 -9.6209983)
(205.72225 0 -9.687608)
(204.88699 1.8480625e-16 -9.7768456)
(204.05832 -1.6198527e-16 -9.8944911)
(203.2361 1.7512535e-16 -10.048274)
(202.41894 -1.8510586e-16 -10.24545)
(201.60563 0 -10.497097)
(200.79133 1.8311998e-16 -10.82618)
(199.96216 -1.3739152e-16 -11.293041)
(199.08673 0 -12.021819)
(198.12537 0 -13.158584)
(197.09484 1.3007461e-16 -14.655182)
(196.16927 -2.1683857e-16 -15.938288)
(195.72707 1.2738416e-16 -15.785627)
(196.1018 1.8928253e-16 -13.343437)
(197.15578 -3.0083753e-18 -9.2400288)
(198.34909 -2.4065167e-18 -5.1639691)
(199.23125 -3.2910109e-16 -2.3351928)
(199.70958 9.0904802e-17 -0.86243238)
(199.90975 0 -0.26373693)
(199.97657 1.4322046e-16 -0.067615998)
(199.99487 -1.6431789e-16 -0.01467264)
(199.99905 1.1217436e-16 -0.0027112672)
(199.99985 1.3164551e-17 -0.00042797277)
(199.99998 -8.6541792e-17 -5.784815e-05)
(200 1.1613143e-17 -6.7076966e-06)
(200 2.1824572e-17 -6.6801082e-07)
(200 -1.0257846e-16 -5.7166501e-08)
(200 9.6473203e-17 -4.2026556e-09)
(200 -7.2626236e-17 -2.6517152e-10)
(200 1.3677585e-16 -1.4528445e-11)
(200 -5.639089e-17 -6.6550428e-13)
(200 -6.0786794e-17 1.983924e-13)
(200 5.0219424e-17 2.2790085e-13)
(200 0 2.7430533e-13)
(200 3.2096558e-18 1.9780338e-13)
(200 -1.215903e-17 4.9623162e-14)
(210.48242 0 -16.073333)
(242.78848 0 -1.2215728)
(228.49366 0 -15.70074)
(236.38544 1.0948652e-16 -2.7910112)
(231.09405 -1.2713651e-16 -14.167978)
(233.75977 -2.2651029e-16 -4.9426622)
(231.52302 2.1549335e-16 -12.423282)
(232.30453 -1.2789022e-17 -7.01823)
(231.18927 6.0680399e-18 -10.989435)
(231.10335 -1.7880682e-16 -8.5880727)
(230.44313 1.7506121e-16 -10.177381)
(230.01353 1.0387947e-17 -9.5096949)
(229.46886 -1.5802641e-16 -9.9797714)
(228.93445 1.4043588e-16 -9.9504709)
(228.36941 1.8997331e-20 -10.107182)
(227.78452 -8.4720962e-18 -10.203624)
(227.17613 0 -10.313159)
(226.54602 -7.593632e-18 -10.416904)
(225.89604 -2.1659199e-16 -10.518111)
(225.22637 2.1872046e-16 -10.615504)
(224.53542 1.2959518e-17 -10.708373)
(223.82296 -1.2287683e-17 -10.795938)
(223.09104 2.2184594e-16 -10.877614)
(222.34125 -1.7672279e-16 -10.952782)
(221.57321 1.0461254e-17 -11.020694)
(220.78672 1.9870781e-16 -11.080648)
(219.98355 -1.3142907e-16 -11.13207)
(219.16573 0 -11.174464)
(218.33413 1.5191463e-16 -11.207398)
(217.48991 -1.2749748e-16 -11.230622)
(216.63503 2.5691281e-16 -11.244182)
(215.77036 -1.3705409e-17 -11.248143)
(214.89691 -2.1582022e-16 -11.242422)
(214.01809 1.790477e-16 -11.227286)
(213.13732 -1.9282211e-16 -11.203697)
(212.25561 -1.0269445e-19 -11.172861)
(211.3732 2.1557453e-16 -11.135932)
(210.49183 -3.253272e-16 -11.094426)
(209.61388 9.5706696e-17 -11.050426)
(208.74061 3.6307617e-17 -11.006379)
(207.8731 -5.1291885e-17 -10.965056)
(207.01268 0 -10.929676)
(206.16044 -9.1331501e-17 -10.904058)
(205.31676 1.4285425e-16 -10.89204)
(204.48151 -2.159629e-16 -10.898572)
(203.65412 2.0279293e-16 -10.929213)
(202.83488 -2.1534658e-16 -10.989974)
(202.02368 4.0501971e-16 -11.088474)
(201.21867 -3.175487e-16 -11.231959)
(200.41888 3.1859608e-16 -11.431456)
(199.6197 -1.4937193e-16 -11.71073)
(198.80547 1.4125119e-16 -12.13444)
(197.94056 -9.8965111e-17 -12.829705)
(196.97994 3.1240029e-17 -13.935151)
(195.9509 0 -15.365135)
(195.07019 0 -16.487227)
(194.79021 0 -16.022792)
(195.45633 2.4118511e-17 -13.22649)
(196.82528 0 -8.9088719)
(198.23614 -1.6581489e-16 -4.8261119)
(199.21471 1.9509644e-16 -2.1086813)
(199.71694 -1.0870206e-16 -0.7499304)
(199.9161 1.8354792e-19 -0.22039715)
(199.97927 2.5430185e-16 -0.054122987)
(199.99569 2.9751589e-17 -0.011218775)
(199.99924 -1.3935572e-16 -0.0019725256)
(199.99989 5.220158e-17 -0.00029490208)
(199.99999 -1.4667197e-16 -3.7546925e-05)
(200 -4.5795405e-17 -4.0737956e-06)
(200 -6.4356006e-17 -3.765375e-07)
(200 -6.0306843e-17 -2.9600192e-08)
(200 5.6529439e-17 -1.9720866e-09)
(200 0 -1.1077524e-10)
(200 0 -5.4163062e-12)
(200 -1.5558323e-17 -1.3803139e-13)
(200 0 2.8345631e-13)
(200 6.8665696e-18 2.3728832e-13)
(200 5.1670562e-17 9.7605693e-14)
(200 -7.2971896e-17 -3.2179821e-14)
(200 -1.9988644e-32 7.6188854e-14)
(209.81597 0 -19.050917)
(243.22042 -9.0929977e-18 -3.5511476)
(228.26653 2.738749e-16 -18.794705)
(236.55729 -2.5644043e-16 -5.1229699)
(230.90667 2.6160338e-16 -17.183351)
(233.73639 -2.3952129e-16 -7.3859058)
(231.30341 -2.2833633e-16 -15.27314)
(232.02856 2.1615783e-16 -9.595844)
(230.93313 0 -13.693551)
(230.7897 0 -11.259577)
(230.13402 1.8530673e-16 -12.810424)
(229.66177 -1.7564082e-16 -12.186597)
(229.07951 -1.0416715e-17 -12.598242)
(228.50203 2.9700737e-17 -12.584735)
(227.89386 -9.3788473e-18 -12.712973)
(227.26423 3.5636247e-17 -12.797036)
(226.61021 0 -12.886217)
(225.93343 0 -12.968955)
(225.23574 -2.4341799e-16 -13.046671)
(224.51757 2.1589903e-16 -13.118206)
(223.77768 0 -13.18266)
(223.01588 0 -13.239183)
(222.23424 -1.9636792e-16 -13.287122)
(221.43484 3.7179901e-16 -13.325762)
(220.61783 -1.7585918e-16 -13.354273)
(219.78314 -2.0798686e-17 -13.371946)
(218.93259 -3.9453168e-17 -13.378254)
(218.06868 -1.4948703e-16 -13.372705)
(217.19295 1.2346138e-16 -13.354866)
(216.30717 0 -13.324643)
(215.41367 -3.165393e-17 -13.282355)
(214.51325 0 -13.228329)
(213.60649 0 -13.162752)
(212.69713 2.1335249e-16 -13.086154)
(211.78971 -2.261574e-16 -12.999678)
(210.88572 2.3684852e-17 -12.904711)
(209.98523 -2.2347744e-17 -12.802696)
(209.08991 -4.23676e-17 -12.695517)
(208.20238 -1.9873211e-19 -12.585535)
(207.32406 1.8743195e-19 -12.475506)
(206.45605 -1.7633223e-19 -12.368528)
(205.59934 0 -12.268166)
(204.75458 -1.2567636e-16 -12.178399)
(203.922 1.1796018e-16 -12.103521)
(203.10112 0 -12.0489)
(202.2906 -5.2394253e-17 -12.02044)
(201.48984 1.9684781e-16 -12.024538)
(200.69914 -2.3052852e-16 -12.068208)
(199.91672 -2.1736886e-16 -12.158533)
(199.14172 1.6276816e-16 -12.306103)
(198.36885 1.1523488e-16 -12.53687)
(197.57657 -1.4347447e-16 -12.923248)
(196.71941 -3.3682849e-17 -13.598742)
(195.74847 -2.2255596e-16 -14.685632)
(194.71538 1.1866697e-16 -16.038991)
(193.90607 -1.1178576e-16 -16.932702)
(193.8592 1.0461658e-16 -16.049316)
(194.89238 2.4132039e-16 -12.831442)
(196.60311 -1.8218059e-16 -8.3271484)
(198.20636 0 -4.3300378)
(199.24243 -3.893716e-17 -1.810093)
(199.74155 -7.2480468e-17 -0.61393682)
(199.92751 1.3567596e-16 -0.17177655)
(199.98308 1.2663518e-16 -0.040030643)
(199.99668 -2.3664682e-16 -0.0078492175)
(199.99945 8.2906552e-17 -0.0012992285)
(199.99992 5.1632784e-17 -0.00018175425)
(199.99999 9.6466965e-17 -2.1486568e-05)
(200 1.3517474e-16 -2.1429692e-06)
(200 -2.0219938e-25 -1.7963285e-07)
(200 0 -1.2561015e-08)
(200 0 -7.2288056e-10)
(200 -3.4347227e-17 -3.338118e-11)
(200 9.632823e-17 -1.4057256e-12)
(200 -9.008033e-17 -1.7188553e-14)
(200 -8.4269443e-17 2.6325438e-13)
(200 5.2579114e-17 2.4705165e-13)
(200 0 1.9915648e-13)
(200 4.6132703e-17 -1.5472769e-13)
(200 -2.5133052e-32 -1.1608104e-13)
(209.26886 0 -22.163368)
(243.48886 -1.2486292e-20 -5.9428649)
(227.93286 9.3310961e-18 -21.948065)
(236.60648 2.977458e-16 -7.5827839)
(230.59332 3.1292069e-19 -20.243658)
(233.48025 -5.2252898e-16 -9.9543139)
(230.94514 -3.0371272e-19 -18.168627)
(231.70119 4.7135794e-16 -12.309504)
(230.53877 -2.1691759e-16 -16.458361)
(230.35904 -1.2887429e-17 -14.049429)
(229.65865 1.2202411e-17 -15.515337)
(229.13878 -1.8559672e-16 -14.956294)
(228.51408 1.9781656e-16 -15.299895)
(227.88793 -1.878851e-16 -15.299293)
(227.2306 3.16604e-16 -15.398924)
(226.55014 -3.1898387e-16 -15.466541)
(225.84462 1.4220156e-16 -15.532954)
(225.11553 0 -15.591214)
(224.36456 0 -15.641643)
(223.59239 1.5124162e-17 -15.683025)
(222.79839 -2.8762475e-17 -15.714303)
(221.98265 0 -15.734537)
(221.14721 2.0629566e-16 -15.742994)
(220.29448 4.5395788e-19 -15.738896)
(219.4254 -3.6906962e-16 -15.721382)
(218.54033 1.7439145e-16 -15.68976)
(217.64105 2.0601189e-17 -15.643565)
(216.73028 0 -15.582349)
(215.81037 -1.8482386e-16 -15.505753)
(214.884 1.3933649e-16 -15.413912)
(213.95413 -2.3105636e-16 -15.307454)
(213.0216 2.1740361e-16 -15.187043)
(212.08646 -2.3529599e-16 -15.053277)
(211.15221 2.2147104e-16 -14.907147)
(210.22409 7.8531386e-17 -14.750126)
(209.30437 0 -14.583868)
(208.39316 0 -14.410258)
(207.49189 4.3690347e-17 -14.23168)
(206.60308 4.1150264e-17 -14.050853)
(205.72825 -3.8742643e-17 -13.870864)
(204.86845 3.6461534e-17 -13.695127)
(204.02421 6.8964139e-17 -13.527484)
(203.19572 -6.466834e-17 -13.372084)
(202.38311 3.6491459e-16 -13.233656)
(201.58561 -2.8544294e-16 -13.11797)
(200.80106 5.3523195e-17 -13.031108)
(200.02786 -5.0504988e-17 -12.979708)
(199.26693 0 -12.969632)
(198.51723 2.2199675e-16 -13.00734)
(197.77762 -1.6615862e-16 -13.103275)
(197.04044 0 -13.28919)
(196.27412 0 -13.64946)
(195.41915 1.3766561e-16 -14.325842)
(194.42992 -6.4031893e-17 -15.408788)
(193.40388 0 -16.664416)
(192.72438 -1.6941795e-16 -17.237902)
(193.01372 1.0556125e-16 -15.81985)
(194.49038 1.4463165e-16 -12.136195)
(196.53894 -1.8271764e-16 -7.5123231)
(198.27732 1.6666855e-16 -3.711316)
(199.3159 -1.5631765e-16 -1.4687288)
(199.78097 -3.889024e-20 -0.47027924)
(199.94236 0 -0.12397484)
(199.9874 6.2922493e-17 -0.027125073)
(199.9977 -2.9332333e-16 -0.004970652)
(199.99965 1.6404796e-16 -0.00076362846)
(199.99995 0 -9.8225568e-05)
(200 -1.4247379e-16 -1.0539933e-05)
(200 8.8502817e-17 -9.3628582e-07)
(200 1.2368962e-16 -6.7892129e-08)
(200 -5.4084897e-27 -3.8886127e-09)
(200 -7.1579506e-17 -1.6120341e-10)
(200 1.0004061e-16 -3.4794105e-12)
(200 -1.5536697e-16 -1.7641547e-13)
(200 8.6876682e-17 -1.8219969e-13)
(200 2.6993271e-17 7.7044264e-14)
(200 5.0333971e-17 1.4253768e-13)
(200 0 2.2741895e-13)
(200 -4.3794837e-17 -5.0554292e-16)
(200 2.0392941e-17 -2.4608917e-13)
(208.76157 0 -25.408882)
(243.60221 1.0138336e-17 -8.4223326)
(227.47929 -3.1590324e-16 -25.187903)
(236.48919 2.5847229e-16 -10.166113)
(230.14016 2.6541097e-16 -23.362734)
(233.11947 -5.1802504e-16 -12.665096)
(230.46641 2.3827328e-16 -21.121374)
(231.18728 2.4125391e-16 -15.160457)
(229.98005 -2.2868003e-16 -19.277716)
(229.74148 4.0724788e-17 -16.953817)
(229.00559 0 -18.293996)
(228.42986 0 -17.815598)
(227.75619 -2.3123443e-17 -18.08764)
(227.07451 -1.7581083e-16 -18.094267)
(226.36095 1.4550576e-16 -18.165096)
(225.62258 1.9767783e-17 -18.211476)
(224.85865 -3.7471956e-17 -18.251333)
(224.07064 3.1930067e-16 -18.280332)
(223.26008 -2.3460905e-16 -18.298143)
(222.42792 2.5462793e-16 -18.303469)
(221.57427 -2.1049519e-16 -18.295134)
(220.69971 2.8564208e-17 -18.272121)
(219.80634 1.6205104e-16 -18.233623)
(218.89686 -2.0384805e-16 -18.178864)
(217.97304 0 -18.107032)
(217.03592 0 -18.01749)
(216.0873 0 -17.90985)
(215.12999 -2.0409147e-16 -17.783799)
(214.16712 1.9216933e-16 -17.63922)
(213.20241 -3.6453629e-17 -17.476571)
(212.2396 0 -17.296834)
(211.27987 -2.9193328e-16 -17.101016)
(210.32298 2.4389939e-16 -16.890199)
(209.37174 -5.7738301e-17 -16.665989)
(208.43141 1.6316724e-16 -16.430396)
(207.50503 -5.0721672e-17 -16.185503)
(206.59311 -1.9221286e-16 -15.933753)
(205.69658 2.2680866e-16 -15.678102)
(204.8174 -1.7020574e-16 -15.421723)
(203.95709 8.0373484e-17 -15.168066)
(203.11639 -7.5299558e-17 -14.920897)
(202.29533 1.417602e-16 -14.684323)
(201.49367 -6.629922e-17 -14.462695)
(200.71139 -2.4994455e-16 -14.261053)
(199.94743 5.268836e-16 -14.085383)
(199.19912 -2.194119e-16 -13.941828)
(198.46366 -1.5493148e-16 -13.83675)
(197.74239 9.6009587e-17 -13.774573)
(197.03524 9.0676883e-17 -13.761002)
(196.33907 -1.6971065e-16 -13.808274)
(195.64053 1.5834582e-16 -13.95884)
(194.89389 0 -14.312198)
(194.02622 1.3952454e-16 -15.012736)
(193.01082 -1.9501902e-16 -16.094994)
(192.02329 6.1095394e-17 -17.213406)
(191.57181 5.6855452e-17 -17.341787)
(192.32745 0 -15.26617)
(194.30909 0 -11.125271)
(196.65316 0 -6.499778)
(198.44423 0 -3.0178713)
(199.42501 0 -1.1176868)
(199.82862 -7.2084711e-17 -0.33457615)
(199.95814 0 -0.08200721)
(199.99153 1.9370958e-21 -0.016626662)
(199.99858 2.3217934e-16 -0.0028013037)
(199.9998 -2.1595356e-16 -0.0003910954)
(199.99998 -1.0040703e-16 -4.4932053e-05)
(200 -1.8669743e-16 -4.1896684e-06)
(200 2.6030991e-16 -3.0785363e-07)
(200 -6.2649623e-27 -1.6335329e-08)
(200 7.4936702e-17 -4.5192961e-10)
(200 0 2.1068304e-11)
(200 0 3.3200095e-12)
(200 0 -8.177382e-14)
(200 -1.1166887e-16 -2.990611e-13)
(200 0 -1.3750255e-13)
(200 -9.639327e-17 2.684975e-13)
(200 1.3435558e-16 1.9407206e-13)
(200 8.3242818e-17 -1.6254597e-13)
(200 -1.92944e-17 -2.5886332e-13)
(208.22601 0 -28.791272)
(243.56161 0 -10.996414)
(226.90077 3.3317246e-16 -28.525989)
(236.14696 1.9946413e-17 -12.874627)
(229.52966 -2.79355e-16 -26.549356)
(232.58642 0 -15.527052)
(229.8273 1.6719977e-17 -24.12853)
(230.50077 -3.1787843e-17 -18.156505)
(229.24502 0 -22.16249)
(228.93482 2.0012659e-16 -19.979924)
(228.15356 -4.3324655e-16 -21.16054)
(227.51297 2.0517938e-16 -20.767895)
(226.78244 2.4382135e-17 -20.967651)
(226.03757 0 -20.972177)
(225.26007 2.182343e-17 -21.011925)
(224.45615 -3.5242196e-16 -21.0307)
(223.62624 7.7774211e-17 -21.038124)
(222.77204 2.5983242e-16 -21.031172)
(221.89512 2.466768e-16 -21.009063)
(220.99678 -2.6607646e-16 -20.970422)
(220.07791 0 -20.913981)
(219.13978 -2.98423e-16 -20.838666)
(218.18476 2.533749e-16 -20.74364)
(217.21591 -2.1351389e-16 -20.6282)
(216.23574 2.0126267e-16 -20.491676)
(215.24607 -1.9066217e-16 -20.333553)
(214.24894 3.5966535e-16 -20.153595)
(213.24734 -1.6980208e-16 -19.95178)
(212.24501 1.6045374e-16 -19.728451)
(211.24661 -3.0255849e-16 -19.484566)
(210.25652 1.4235709e-16 -19.221521)
(209.27653 1.3440165e-16 -18.940704)
(208.30651 -2.5355492e-16 -18.643725)
(207.34852 5.8816386e-17 -18.332899)
(206.4072 -5.9079606e-19 -18.010941)
(205.48598 2.6365531e-16 -17.680554)
(204.58582 0 -17.344788)
(203.70708 2.8371398e-19 -17.007146)
(202.85084 0 -16.671299)
(202.01826 -8.2215399e-17 -16.341123)
(201.20961 -1.5455416e-16 -16.020802)
(200.42427 7.2657535e-17 -15.714738)
(199.66147 0 -15.427494)
(198.92065 -6.4065308e-17 -15.164241)
(198.20069 2.9981125e-16 -14.930932)
(197.49867 -3.3648122e-16 -14.733539)
(196.81071 -3.1561797e-16 -14.577369)
(196.13843 2.9433783e-16 -14.465546)
(195.48295 -1.8391053e-16 -14.403619)
(194.83606 0 -14.40967)
(194.174 0 -14.541655)
(193.43303 7.5345615e-17 -14.915426)
(192.5349 7.0462141e-17 -15.661548)
(191.49894 1.3142361e-16 -16.723984)
(190.61362 -6.1442646e-17 -17.599761)
(190.53831 -1.1431261e-16 -17.114129)
(191.89728 -2.0979546e-16 -14.331876)
(194.3998 -9.3327478e-17 -9.8150641)
(196.94613 1.8197175e-16 -5.3523267)
(198.68806 0 -2.3082137)
(199.55376 -7.7035067e-17 -0.79008366)
(199.87752 -1.4306993e-16 -0.21828411)
(199.97257 1.3297593e-16 -0.049028343)
(199.99494 6.1739221e-17 -0.0090440638)
(199.99923 5.7314875e-17 -0.001366241)
(199.99991 0 -0.00016698231)
(199.99999 1.9745571e-16 -1.6115268e-05)
(200 1.8317195e-16 -1.1442149e-06)
(200 -2.548141e-16 -4.7365613e-08)
(200 7.87537e-17 1.2201119e-09)
(200 -7.3003349e-17 4.0248019e-10)
(200 -8.0538045e-29 3.8721536e-11)
(200 2.5078181e-16 1.9948196e-12)
(200 -2.3234779e-16 -3.3788873e-13)
(200 5.3810267e-17 -2.256535e-13)
(200 1.4953054e-16 -2.135808e-13)
(200 -4.6165828e-17 8.8714197e-14)
(200 -4.2757621e-17 5.169315e-14)
(200 0 -2.6002897e-13)
(200 3.6568606e-17 -2.4135673e-13)
(207.60305 4.0306605e-16 -32.321355)
(243.35513 5.1094945e-19 -13.668312)
(226.17557 -3.7229598e-16 -31.981477)
(235.56045 0 -15.732885)
(228.74947 0 -29.809729)
(231.86172 -2.7824249e-16 -18.557549)
(229.00755 2.8154982e-16 -27.202433)
(229.60812 6.6781082e-17 -21.311078)
(228.30607 -2.5345995e-16 -25.121242)
(227.90846 2.3979763e-16 -23.129399)
(227.07536 -2.5626057e-16 -24.122946)
(226.36027 2.1540721e-16 -23.811917)
(225.56401 -5.1092597e-17 -23.941212)
(224.74762 -4.8502584e-17 -23.932269)
(223.89784 -1.8357165e-16 -23.936509)
(223.02017 1.7342368e-16 -23.919854)
(222.11615 -3.7018716e-16 -23.886911)
(221.18799 6.2235713e-16 -23.835232)
(220.23766 -2.9406576e-16 -23.763693)
(219.26698 -2.7890484e-16 -23.67085)
(218.27767 2.6305082e-16 -23.555397)
(217.27182 -3.1398873e-17 -23.416262)
(216.25235 -2.3566223e-16 -23.252673)
(215.22281 2.2202201e-16 -23.064101)
(214.18638 2.6293129e-16 -22.850117)
(213.14564 -1.4821798e-16 -22.610461)
(212.10315 0 -22.345211)
(211.06227 2.6495127e-16 -22.054851)
(210.02729 -3.3276172e-16 -21.740427)
(209.00333 1.1699615e-16 -21.40359)
(207.99513 -2.9588236e-16 -21.046284)
(207.00503 2.0852012e-16 -20.670402)
(206.0334 -6.5708112e-17 -20.278176)
(205.08175 2.4673031e-16 -19.872666)
(204.15366 -2.3141495e-16 -19.457376)
(203.25231 -2.1807993e-16 -19.035776)
(202.37882 2.0436493e-16 -18.611511)
(201.53303 -4.7891783e-17 -18.188544)
(200.71497 0 -17.771031)
(199.9251 8.4868734e-17 -17.363317)
(199.16308 -7.909284e-17 -16.969972)
(198.42747 0 -16.595653)
(197.71653 1.3945583e-16 -16.245087)
(197.02886 -6.5231113e-17 -15.923458)
(196.36335 -1.8287634e-16 -15.636492)
(195.7171 5.70593e-16 -15.38941)
(195.08576 -2.1380657e-16 -15.185792)
(194.4712 9.9786094e-17 -15.027904)
(193.87498 -2.7986667e-16 -14.922924)
(193.27925 -5.5230107e-19 -14.900595)
(192.64327 1.6223038e-16 -15.037834)
(191.88534 -1.5173396e-16 -15.462911)
(190.94137 -7.0638335e-17 -16.263162)
(189.91776 -6.5954051e-17 -17.260483)
(189.25036 -1.2323742e-16 -17.776605)
(189.74142 2.2930509e-16 -16.495701)
(191.81778 0 -12.986189)
(194.78429 9.7483179e-17 -8.2630322)
(197.39047 -3.5574576e-16 -4.155545)
(198.97675 2.498568e-16 -1.642356)
(199.6831 7.6514042e-17 -0.51308399)
(199.92107 1.4176597e-16 -0.12857505)
(199.98406 1.3143757e-16 -0.025943816)
(199.99738 -1.2190146e-16 -0.0042273607)
(199.99966 -1.1296253e-16 -0.00054602112)
(199.99996 -3.1394069e-16 -5.3394367e-05)
(200 1.0321601e-23 -3.3545247e-06)
(200 -8.9714481e-17 -2.6143308e-08)
(200 0 2.5826554e-08)
(200 -2.3043727e-16 3.5619761e-09)
(200 7.1042822e-17 2.9334819e-10)
(200 0 1.4853158e-11)
(200 1.2144389e-16 1.8441509e-13)
(200 0 -1.9146767e-13)
(200 1.0370102e-16 -1.3731639e-13)
(200 -1.436952e-16 -1.2267778e-13)
(200 1.3271838e-16 -2.2913774e-13)
(200 -8.1706815e-17 -3.0541038e-13)
(200 7.5442515e-17 -2.7690223e-13)
(200 0 -1.1924327e-13)
(206.83864 -4.2449554e-16 -36.008094)
(242.96673 3.7872006e-16 -16.45004)
(225.26658 -3.4606508e-16 -35.56926)
(234.79173 3.449659e-16 -18.757747)
(227.80865 3.300881e-16 -33.15198)
(230.9185 -1.882811e-17 -21.760215)
(227.98052 -2.9571168e-16 -30.341969)
(228.48417 -2.8061487e-16 -24.627078)
(227.13591 2.9883605e-16 -28.159053)
(226.6354 0 -26.397755)
(225.74093 2.9777068e-17 -27.188042)
(224.9406 0 -26.944879)
(224.06798 -1.3400307e-16 -27.006665)
(223.17035 2.5307157e-16 -26.971647)
(222.2388 0 -26.933299)
(221.27834 0 -26.871347)
(220.29156 0 -26.787536)
(219.28145 4.0770778e-17 -26.679648)
(218.25073 0 -26.546324)
(217.202 -2.5464916e-16 -26.386112)
(216.13791 3.4322293e-16 -26.197749)
(215.06152 1.297962e-16 -25.980305)
(213.97657 1.839464e-16 -25.733221)
(212.88717 -2.8905571e-16 -25.456284)
(211.79718 -5.4405788e-17 -25.149465)
(210.70991 -2.5753012e-16 -24.812966)
(209.62864 1.9386123e-16 -24.447431)
(208.5573 -2.2882617e-16 -24.054128)
(207.50059 8.5601806e-17 -23.635015)
(206.46366 8.0875783e-17 -23.192619)
(205.45107 0 -22.729618)
(204.46541 2.8775591e-16 -22.248614)
(203.50761 -2.7031692e-16 -21.752607)
(202.57885 0 -21.245426)
(201.68148 -2.3882053e-16 -20.731366)
(200.81771 2.2365595e-16 -20.214673)
(199.98829 -1.0543996e-16 -19.699551)
(199.19248 1.973206e-16 -19.190351)
(198.42931 -2.7723063e-16 -18.691634)
(197.69825 1.786731e-19 -18.208118)
(196.99814 -1.6192885e-16 -17.74457)
(196.32653 -7.580497e-17 -17.305721)
(195.68047 -1.4244418e-16 -16.896367)
(195.05751 2.6518569e-16 -16.521687)
(194.45634 -1.2372491e-16 -16.186918)
(193.87475 0 -15.895682)
(193.30919 -5.7609532e-19 -15.649466)
(192.76118 1.0074009e-16 -15.450671)
(192.22906 0 -15.312128)
(191.67926 8.7937709e-17 -15.281344)
(191.0478 8.282099e-17 -15.45557)
(190.24511 -7.6195508e-17 -15.960313)
(189.25831 2.857921e-16 -16.795718)
(188.3217 -2.6537833e-16 -17.6193)
(188.07005 -1.2348776e-16 -17.542269)
(189.32915 -1.138949e-16 -15.399676)
(192.15873 1.045762e-16 -11.253273)
(195.44143 1.9115518e-16 -6.5712812)
(197.93277 -3.5547236e-16 -3.007112)
(199.27081 4.0976944e-16 -1.0723635)
(199.79701 -1.5165233e-16 -0.30122806)
(199.95503 1.4025362e-16 -0.066796328)
(199.99203 -1.2978721e-16 -0.011717201)
(199.99889 2.4022275e-16 -0.0015895138)
(199.99988 -3.3334165e-16 -0.00015270482)
(199.99999 2.0549606e-16 -7.0769947e-06)
(200 3.9638191e-25 6.9837221e-07)
(200 8.7753659e-17 1.9394952e-07)
(200 0 2.3101679e-08)
(200 0 1.6625765e-09)
(200 0 6.8484657e-11)
(200 -1.274539e-16 4.0114906e-13)
(200 3.0792365e-31 -5.1857667e-13)
(200 0 -7.44862e-14)
(200 0 2.4211445e-14)
(200 9.2077819e-17 -3.1143447e-14)
(200 -1.6965984e-16 -1.0381936e-13)
(200 0 -4.2149028e-13)
(200 0 -3.8725107e-13)
(200 -1.319847e-16 -1.5332461e-13)
(205.89664 2.8656177e-17 -39.86848)
(242.38228 -8.2171014e-16 -19.362195)
(224.14354 3.6283011e-16 -39.288243)
(233.85596 -2.27326e-17 -21.943532)
(226.66208 3.8983953e-16 -36.585311)
(229.73298 -3.678939e-16 -25.141666)
(226.7204 0 -33.550214)
(227.09979 -3.3121922e-16 -28.107641)
(225.70273 2.4359275e-16 -31.285859)
(225.08235 2.3121437e-16 -29.779657)
(224.11424 -2.4965573e-16 -30.362531)
(223.2162 0 -30.164834)
(222.25452 2.8285177e-19 -30.160184)
(221.26434 0 -30.08487)
(220.24035 4.0177061e-16 -29.993236)
(219.18738 -7.5899053e-16 -29.873)
(218.10905 3.5832595e-16 -29.724334)
(217.00935 -4.228204e-17 -29.545161)
(215.89207 -4.0214464e-17 -29.334037)
(214.76086 3.8249774e-17 -29.089603)
(213.61951 -7.1263951e-17 -28.810817)
(212.47223 -3.3761406e-16 -28.497069)
(211.32372 3.1777178e-16 -28.14826)
(210.17882 5.9853022e-17 -27.764715)
(209.042 -2.8368701e-16 -27.347044)
(207.91726 -6.4682879e-19 -26.89622)
(206.80866 3.0114337e-16 -26.413791)
(205.7207 -1.8900387e-16 -25.902087)
(204.6583 -6.9276852e-19 -25.364186)
(203.6262 0 -24.803635)
(202.62827 0 -24.224024)
(201.66683 -7.4303413e-17 -23.628887)
(200.74301 1.3903476e-16 -23.02214)
(199.85764 0 -22.408386)
(199.01176 -1.2288942e-16 -21.792612)
(198.20612 2.2986422e-16 -21.179718)
(197.44046 -1.0770709e-16 -20.574388)
(196.71329 -2.0179458e-16 -19.981279)
(196.02266 9.3646118e-17 -19.405178)
(195.36684 1.7583717e-16 -18.850896)
(194.74358 0 -18.323098)
(194.14936 2.3215296e-16 -17.826371)
(193.58013 -2.8820811e-16 -17.365464)
(193.03248 0 -16.945382)
(192.50469 0 -16.57028)