/*--------------------------------*- C++ -*----------------------------------*\
  =========                 |
  \\      /  F ield         | OpenFOAM: The Open Source CFD Toolbox
   \\    /   O peration     | Website:  https://openfoam.org
    \\  /    A nd           | Version:  12
     \\/     M anipulation  |
\*---------------------------------------------------------------------------*/
FoamFile
{
    format      ascii;
    class       surfaceScalarField;
    location    "0.118";
    object      phi;
}
// * * * * * * * * * * * * * * * * * * * * * * * * * * * * * * * * * * * * * //

dimensions      [1 0 -1 0 0 0 0];

internalField   nonuniform List<scalar> 
31760
(
-0.00063971213
-0.050786896
0.051425332
-0.0016029204
-0.064185389
0.065147248
-0.0025863106
-0.062830239
0.063813988
-0.0036067696
-0.068484751
0.06950378
-0.0046816642
-0.07015919
0.071232651
-0.0057845532
-0.074412922
0.075514321
-0.0069578967
-0.077337451
0.078509285
-0.0081696864
-0.081334836
0.082545067
-0.0094420892
-0.084951514
0.08622231
-0.010773035
-0.089060821
0.0903901
-0.012159652
-0.093187236
0.094572126
-0.013613565
-0.097590221
0.099042331
-0.015129484
-0.10215731
0.10367135
-0.01671566
-0.1069503
0.10853451
-0.018371692
-0.11195805
0.11361204
-0.02010234
-0.11719715
0.11892565
-0.021910274
-0.12267565
0.12448134
-0.023798712
-0.12840494
0.13029102
-0.025770896
-0.134396
0.13636573
-0.027830235
-0.14066008
0.14271684
-0.029980166
-0.14720954
0.14935677
-0.032224457
-0.15405633
0.15629778
-0.034566703
-0.161214
0.16355327
-0.037010814
-0.16869622
0.1711372
-0.039559762
-0.17651748
0.17906315
-0.042218129
-0.18469188
0.18734681
-0.044989805
-0.19323562
0.19600368
-0.047878216
-0.20216525
0.20504987
-0.050886852
-0.21149769
0.21450234
-0.054019753
-0.22125097
0.22437967
-0.057280221
-0.23144398
0.23470004
-0.060671578
-0.24209651
0.24548323
-0.064196628
-0.25323002
0.2567502
-0.067858406
-0.26486561
0.26852226
-0.071658887
-0.27702733
0.28082242
-0.075599717
-0.28973943
0.2936746
-0.079682205
-0.30302763
0.30710417
-0.083906803
-0.31691962
0.32113797
-0.0882733
-0.33144338
0.33580331
-0.09278035
-0.34663036
0.35113052
-0.097425924
-0.36251234
0.36715068
-0.10220656
-0.3791231
0.38389614
-0.10711763
-0.39649872
0.40140181
-0.1121533
-0.4146771
0.41970438
-0.11730579
-0.43369867
0.43884236
-0.12256596
-0.4536051
0.45885603
-0.12792222
-0.47444141
0.47978797
-0.13336164
-0.49625404
0.50168329
-0.13886873
-0.51909318
0.5245896
-0.14442518
-0.5430107
0.54855599
-0.15000999
-0.56806111
0.57363423
-0.15559968
-0.59430249
0.59987996
-0.16116693
-0.6217952
0.62734969
-0.16668083
-0.65060281
0.65610341
-0.17210699
-0.68079173
0.68620404
-0.17740557
-0.71243241
0.71771662
-0.18253261
-0.74559774
0.75070992
-0.18743886
-0.78036424
0.78525514
-0.19206809
-0.81681235
0.82142582
-0.19635831
-0.85502568
0.85929978
-0.20023959
-0.89509142
0.8989563
-0.20363421
-0.93710024
0.94047829
-0.20645494
-0.98114717
0.98395127
-0.20860459
-1.0273311
1.0294642
-0.20997468
-1.0757538
1.0771075
-0.21044479
-1.1265224
1.1269766
-0.20987931
-1.1797476
1.1791667
-0.20813323
-1.2355423
1.2337815
-0.2050398
-1.2940281
1.2909205
-0.20041172
-1.3553273
1.3506855
-0.19404652
-1.4195657
1.4131869
-0.18572484
-1.4868737
1.4785384
-0.1751938
-1.5573958
1.5468503
-0.16218887
-1.6312777
1.6182574
-0.14635883
-1.708695
1.6928471
-0.12760392
-1.7897666
1.77099
-0.10476013
-1.8745967
1.8517303
-0.079309776
-1.9642531
1.9387687
-0.047709889
-2.0558403
2.024222
-2.1564534
2.1217088
-0.0006348984
-0.050152853
-0.0015033197
-0.063317934
-0.0023951692
-0.061941676
-0.0033547362
-0.06752613
-0.0043254518
-0.069189527
-0.0053733275
-0.07336617
-0.0064365766
-0.076275411
-0.0075797234
-0.08019298
-0.0087488935
-0.083783718
-0.0099924203
-0.087818755
-0.011279061
-0.091902143
-0.012633192
-0.096237729
-0.014044892
-0.10074734
-0.015523226
-0.10547379
-0.017068401
-0.1104148
-0.018684584
-0.115583
-0.020373974
-0.12098839
-0.022140359
-0.1266408
-0.023986967
-0.13255175
-0.025917396
-0.13873214
-0.027935315
-0.14519424
-0.030043992
-0.1519504
-0.032247541
-0.15901333
-0.034549667
-0.16639712
-0.036955173
-0.17411516
-0.039466888
-0.18218351
-0.042089514
-0.19061651
-0.044826798
-0.19943167
-0.047683032
-0.20864535
-0.050661802
-0.21827629
-0.053767194
-0.22834289
-0.057002552
-0.23886568
-0.060371188
-0.24986615
-0.0638761
-0.26136571
-0.067519719
-0.27338898
-0.071304377
-0.28596032
-0.075231251
-0.29910659
-0.079301852
-0.31285515
-0.083515537
-0.32723614
-0.087871908
-0.34228077
-0.092369375
-0.358022
-0.09700485
-0.37449511
-0.10177399
-0.39173746
-0.10667172
-0.40978765
-0.11169101
-0.42868809
-0.11682329
-0.44848197
-0.12205838
-0.46921594
-0.12738367
-0.49093885
-0.13278491
-0.51370254
-0.13824557
-0.53756116
-0.14374634
-0.562572
-0.14926521
-0.58879583
-0.15477701
-0.61629616
-0.16025352
-0.64513963
-0.16566271
-0.67539643
-0.17096837
-0.70714119
-0.17613016
-0.74045095
-0.18110265
-0.77540724
-0.18583469
-0.81209627
-0.1902696
-0.85060715
-0.19434348
-0.89103425
-0.1979851
-0.93347559
-0.20111443
-0.97803494
-0.20364339
-1.0248192
-0.20547257
-1.0739415
-0.20649302
-1.1255186
-0.20657961
-1.1796772
-0.20559759
-1.2365401
-0.20339636
-1.2962446
-0.19980708
-1.3589315
-0.19464552
-1.4247421
-0.18770577
-1.4938287
-0.17876255
-1.566355
-0.16755926
-1.6424983
-0.15383043
-1.7224438
-0.13728186
-1.8063384
-0.11739593
-1.8945094
-0.094455021
-1.9872283
-0.066649151
-2.0836697
-2.1875804
-0.00057315602
-0.049580591
-0.0013832586
-0.062508714
-0.0021937718
-0.061131552
-0.0030961279
-0.066624822
-0.0039881576
-0.068298627
-0.0049664572
-0.07238905
-0.0059464895
-0.075296626
-0.0070099104
-0.079130873
-0.0080927
-0.082702311
-0.0092483003
-0.086664611
-0.010443831
-0.090708141
-0.011703346
-0.094979824
-0.013017881
-0.099434495
-0.014395703
-0.10409775
-0.015837492
-0.10897488
-0.017346847
-0.11407561
-0.018927115
-0.11941019
-0.020581256
-0.12498883
-0.022313538
-0.13082175
-0.024126796
-0.13692127
-0.026025517
-0.14329803
-0.028013233
-0.14996533
-0.030093827
-0.15693552
-0.032272089
-0.16422179
-0.034551296
-0.17183903
-0.036936662
-0.17980139
-0.039431644
-0.18812494
-0.042041311
-0.19682559
-0.044769222
-0.20592122
-0.047620527
-0.21542896
-0.050598338
-0.22536927
-0.053706982
-0.23576144
-0.056950263
-0.24662751
-0.060330868
-0.25798999
-0.063852381
-0.26987261
-0.06751697
-0.28230115
-0.071326872
-0.29530239
-0.075282604
-0.30890542
-0.079385184
-0.32313988
-0.083634106
-0.33803849
-0.088027594
-0.35363551
-0.092563547
-0.36996653
-0.097238613
-0.38707015
-0.10204736
-0.40498706
-0.10698384
-0.42376021
-0.11204011
-0.44343474
-0.11720702
-0.46405854
-0.12247273
-0.48568315
-0.12782477
-0.50836101
-0.13324759
-0.53214937
-0.13872316
-0.55710803
-0.14423218
-0.58329897
-0.1497515
-0.61078958
-0.15525535
-0.6396491
-0.16071472
-0.66995097
-0.16609687
-0.70177353
-0.1713654
-0.73519746
-0.17647839
-0.77030986
-0.18139057
-0.8072002
-0.1860497
-0.8459646
-0.19039852
-0.8867024
-0.19437213
-0.92951927
-0.19789899
-0.97452558
-0.20089827
-1.0218375
-0.20328016
-1.0715772
-0.20494384
-1.1238723
-0.20578161
-1.1788565
-0.20566797
-1.2366703
-0.20446372
-1.2974651
-0.20202081
-1.3613905
-0.19816619
-1.4286129
-0.19271894
-1.4992927
-0.18546851
-1.5736231
-0.1761885
-1.6517978
-0.16463093
-1.7340234
-0.15049292
-1.8205018
-0.13347256
-1.9115596
-0.11339555
-2.0073393
-0.08929806
-2.1077928
-2.2149539
-0.00051728139
-0.049064218
-0.0012670672
-0.06175986
-0.0020024596
-0.060397059
-0.0028527796
-0.065775549
-0.003679113
-0.067473391
-0.0045911176
-0.071478198
-0.0054946248
-0.074394323
-0.0064849899
-0.078141776
-0.0074879035
-0.081700723
-0.0085629762
-0.085590935
-0.0096748484
-0.089597732
-0.010847809
-0.093808404
-0.012073888
-0.098210032
-0.013360367
-0.10281297
-0.01470893
-0.1076281
-0.016123356
-0.11266306
-0.017606949
-0.11792857
-0.019163105
-0.12343475
-0.020795304
-0.12919174
-0.02250791
-0.13521097
-0.024304104
-0.14150426
-0.026188963
-0.14808302
-0.028166405
-0.15496076
-0.030240433
-0.16215058
-0.032416211
-0.16966623
-0.034697704
-0.17752303
-0.037089957
-0.18573598
-0.039597321
-0.1943217
-0.04222525
-0.20329695
-0.044977107
-0.21268096
-0.047858021
-0.22249241
-0.050872354
-0.23275139
-0.054023794
-0.24348058
-0.057316213
-0.25470232
-0.060753012
-0.26644081
-0.064336635
-0.27872279
-0.068069286
-0.29157529
-0.071952871
-0.30502769
-0.075987733
-0.31911118
-0.080173914
-0.33385881
-0.084510816
-0.34930545
-0.088995775
-0.36548878
-0.093626007
-0.38244752
-0.09839718
-0.40022391
-0.10330341
-0.41886243
-0.10833826
-0.43840879
-0.11349211
-0.45891407
-0.11875613
-0.48042901
-0.12411763
-0.50300992
-0.12956309
-0.52671485
-0.13507701
-0.55160562
-0.1406409
-0.57774716
-0.14623467
-0.60520848
-0.15183564
-0.63406141
-0.15741688
-0.66438361
-0.16295021
-0.69625469
-0.16840236
-0.72976041
-0.17373666
-0.76499123
-0.17891214
-0.80204093
-0.18388259
-0.84101087
-0.18859648
-0.88200568
-0.19299606
-0.92513724
-0.19701714
-0.97052233
-0.20058741
-1.0182853
-0.20362647
-1.0685561
-0.20604665
-1.12147
-0.20774311
-1.1771778
-0.20861056
-1.2358204
-0.20852115
-1.2975719
-0.20734285
-1.3625862
-0.20492309
-1.4310504
-0.20108678
-1.5031474
-0.19565763
-1.5790719
-0.18842361
-1.6590532
-0.17916048
-1.7433107
-0.16759705
-1.8320928
-0.15348309
-1.9257059
-0.13654035
-2.0243168
-0.11614953
-2.1282105
-2.2384215
-0.00046186066
-0.0486032
-0.0011642817
-0.061058305
-0.0018222574
-0.059740097
-0.0026168149
-0.064981969
-0.0033695839
-0.066721641
-0.0042238147
-0.070625042
-0.005060553
-0.073558716
-0.0059856083
-0.077217914
-0.0069171602
-0.080770425
-0.0079193548
-0.084590062
-0.008957101
-0.088561374
-0.010053409
-0.09271356
-0.011202456
-0.097062523
-0.012410439
-0.10160661
-0.013679757
-0.10636049
-0.015013532
-0.11133108
-0.016415531
-0.11652846
-0.017889549
-0.12196272
-0.019439291
-0.12764409
-0.021068804
-0.13358366
-0.022782811
-0.13979257
-0.024584679
-0.1462836
-0.02647993
-0.15306808
-0.028473165
-0.16016007
-0.030568916
-0.16757334
-0.032772475
-0.17532249
-0.035089059
-0.18342258
-0.037523621
-0.19189049
-0.040081096
-0.200743
-0.0427667
-0.20999908
-0.04558532
-0.21967771
-0.048541442
-0.2297994
-0.051639436
-0.24038694
-0.054883671
-0.25146268
-0.058277323
-0.26305201
-0.061823496
-0.27518173
-0.06552471
-0.28787947
-0.06938289
-0.30117519
-0.073398815
-0.31510126
-0.077572903
-0.32969106
-0.081904142
-0.3449809
-0.086391392
-0.36100859
-0.09103141
-0.37781495
-0.09582056
-0.39544262
-0.10075443
-0.41393685
-0.1058261
-0.43334588
-0.11102841
-0.453721
-0.11635231
-0.47511486
-0.12178717
-0.49758534
-0.12732151
-0.52119134
-0.13294095
-0.54599758
-0.13863014
-0.57206997
-0.14437112
-0.5994801
-0.15014366
-0.62830209
-0.15592549
-0.65861562
-0.16169093
-0.69050373
-0.16741085
-0.72405558
-0.17305401
-0.75936377
-0.17858387
-0.79652735
-0.18396055
-0.83565102
-0.18913835
-0.8768452
-0.1940668
-0.92022655
-0.19868889
-0.96591835
-0.20294135
-1.0140512
-0.20675328
-1.0647627
-0.21004421
-1.1181977
-0.21272935
-1.1745111
-0.21470359
-1.2338646
-0.21586705
-1.2964268
-0.21608703
-1.3623848
-0.21523612
-1.4319204
-0.21316154
-1.505242
-0.20969761
-1.5825573
-0.20466138
-1.664113
-0.19784446
-1.7501539
-0.18900791
-1.8409592
-0.17793311
-1.9368153
-0.1643336
-2.0379523
-0.14776439
-2.1448089
-2.2578092
-0.00041193658
-0.048192064
-0.0010733439
-0.060397713
-0.001668799
-0.059145504
-0.002405272
-0.064246414
-0.0030822522
-0.066045637
-0.0038849961
-0.069823322
-0.0046553177
-0.072789472
-0.0055210004
-0.076353367
-0.0063895094
-0.07990311
-0.0073298083
-0.083651022
-0.0083070942
-0.08758541
-0.0093409391
-0.091681109
-0.010427779
-0.095977149
-0.011572289
-0.10046364
-0.012777304
-0.1051571
-0.014046694
-0.11006341
-0.015383964
-0.11519299
-0.016792997
-0.12055559
-0.018278294
-0.12616079
-0.019843856
-0.13202021
-0.021494777
-0.13814388
-0.023235876
-0.14454484
-0.025072296
-0.15123413
-0.027009146
-0.15822582
-0.029052039
-0.16553319
-0.031206784
-0.17317064
-0.033478117
-0.1811543
-0.035872337
-0.18949949
-0.038394738
-0.198224
-0.041050695
-0.2073467
-0.043845788
-0.2168864
-0.046784588
-0.22686459
-0.049872483
-0.23730325
-0.053112767
-0.24822684
-0.056509944
-0.25965952
-0.060067353
-0.27162927
-0.063787205
-0.28416484
-0.067671502
-0.29729642
-0.071721818
-0.31105677
-0.075938256
-0.32548078
-0.080320755
-0.34060491
-0.084867368
-0.35646886
-0.08957643
-0.37311317
-0.09444477
-0.39058198
-0.099467406
-0.40892235
-0.10463935
-0.42818254
-0.10995494
-0.44841449
-0.11540544
-0.46967396
-0.12098301
-0.49201791
-0.12667638
-0.51550868
-0.13247504
-0.54021022
-0.13836512
-0.56619178
-0.14433173
-0.59352601
-0.1503579
-0.62228908
-0.15642442
-0.65256291
-0.16250965
-0.68443294
-0.16859002
-0.7179903
-0.1746376
-0.7533319
-0.18062208
-0.7905592
-0.18650857
-0.82978144
-0.192259
-0.87111221
-0.1978295
-0.91467399
-0.20317131
-0.96059489
-0.20822936
-1.0090118
-0.21294197
-1.0600691
-0.21724005
-1.1139187
-0.22104666
-1.1707237
-0.22427832
-1.2306522
-0.22683384
-1.2938907
-0.22861305
-1.3606254
-0.22949223
-1.4310618
-0.22934089
-1.5054151
-0.22801308
-1.5839085
-0.22534485
-1.6668069
-0.2211513
-1.7543759
-0.21522682
-1.8469158
-0.20736345
-1.9447154
-0.19731442
-2.0480384
-0.18473529
-2.1574194
-2.2729089
-0.00036943935
-0.047823385
-0.00099992547
-0.059768001
-0.0015404918
-0.058605773
-0.0022295784
-0.063558197
-0.0028468737
-0.065429264
-0.003602147
-0.069069018
-0.004316187
-0.072076455
-0.0051205789
-0.07555005
-0.005947136
-0.079077684
-0.0068411661
-0.082758187
-0.0077723554
-0.086655477
-0.0087565799
-0.090698211
-0.0097934806
-0.094941642
-0.010887096
-0.099371501
-0.01204148
-0.10400426
-0.013260124
-0.1088464
-0.014547886
-0.11390695
-0.015908867
-0.11919643
-0.017347868
-0.1247237
-0.018870289
-0.13049981
-0.020480735
-0.13653555
-0.022185414
-0.14284241
-0.023989539
-0.14943237
-0.025898806
-0.15631905
-0.027919563
-0.16351506
-0.030057449
-0.17103552
-0.032319346
-0.17889532
-0.034710809
-0.18711112
-0.037237564
-0.1957005
-0.039906209
-0.2046815
-0.042721747
-0.21407449
-0.045689759
-0.22390041
-0.048814921
-0.23418214
-0.052102351
-0.24494369
-0.055555109
-0.25621128
-0.059176871
-0.26801229
-0.062970764
-0.280376
-0.066938489
-0.29333404
-0.071081193
-0.30691972
-0.075399551
-0.32116841
-0.079893555
-0.33611724
-0.084561994
-0.35180713
-0.089403357
-0.3682789
-0.094414543
-0.38557831
-0.099592697
-0.40375216
-0.10493335
-0.42285032
-0.11043111
-0.44292566
-0.11608057
-0.46403395
-0.12187385
-0.48623463
-0.12780362
-0.50958948
-0.13385996
-0.53416506
-0.14003261
-0.56003092
-0.14631
-0.58726106
-0.1526781
-0.61593407
-0.15912189
-0.64613287
-0.16562365
-0.67794559
-0.17216423
-0.71146479
-0.17872131
-0.74679054
-0.18526971
-0.78402717
-0.19178153
-0.82328659
-0.19822427
-0.86468703
-0.20456217
-0.90835417
-0.21075409
-0.95442156
-0.21675412
-1.0030308
-0.22251041
-1.0543321
-0.22796404
-1.1084847
-0.23304979
-1.1656578
-0.23769553
-1.2260265
-0.24181682
-1.2897899
-0.24532221
-1.3571411
-0.24811299
-1.428293
-0.25007142
-1.50348
-0.25106864
-1.5829366
-0.25096909
-1.6669342
-0.2496057
-1.75577
-0.24679956
-1.8497566
-0.24236927
-1.9491848
-0.23608639
-2.0543596
-0.22770607
-2.1658338
-2.2834608
-0.00032640342
-0.047497701
-0.00093131777
-0.059163818
-0.0014225626
-0.058115318
-0.0020658093
-0.062915773
-0.0026385714
-0.064857374
-0.0033653361
-0.06834317
-0.0040460738
-0.071396684
-0.0048345147
-0.074762627
-0.0056217142
-0.078291559
-0.0064698207
-0.081911214
-0.0073588759
-0.085767614
-0.0083002948
-0.089758051
-0.0092966074
-0.093946653
-0.01035125
-0.098318257
-0.011468667
-0.10288832
-0.012653443
-0.10766317
-0.013909539
-0.11265249
-0.015242939
-0.11786475
-0.016658469
-0.12330999
-0.018161809
-0.12899839
-0.019758794
-0.13494059
-0.021455427
-0.14114791
-0.023258008
-0.14763204
-0.025173774
-0.15440566
-0.027208188
-0.16148315
-0.029368724
-0.16887763
-0.031661511
-0.17660533
-0.034093365
-0.18468221
-0.036670777
-0.1931262
-0.03939979
-0.20195577
-0.042286119
-0.21119164
-0.045335483
-0.22085472
-0.048552995
-0.23096852
-0.051942692
-0.2415581
-0.055508802
-0.25264953
-0.059254824
-0.26427087
-0.06318294
-0.27645276
-0.067295425
-0.28922672
-0.071593636
-0.30262699
-0.076078183
-0.31668966
-0.080748955
-0.33145262
-0.085606004
-0.3469566
-0.090647323
-0.36324451
-0.095871427
-0.38036155
-0.10127592
-0.39835546
-0.10685757
-0.41727694
-0.11261288
-0.43717912
-0.11853766
-0.45811848
-0.12462681
-0.48015534
-0.13087465
-0.5033521
-0.1372749
-0.52777587
-0.14381954
-0.55349797
-0.1505003
-0.58059266
-0.15730715
-0.60914024
-0.16422911
-0.63922461
-0.17125349
-0.6709356
-0.17836515
-0.7043682
-0.1855475
-0.73962394
-0.19278149
-0.77680959
-0.20004514
-0.81603999
-0.20731346
-0.85743638
-0.21455794
-0.90112796
-0.22174578
-0.94725252
-0.22884033
-0.99595553
-0.23579891
-1.0473933
-0.24257444
-1.1017293
-0.24911272
-1.15914
-0.25535204
-1.2198082
-0.26122607
-1.2839373
-0.26666152
-1.3517279
-0.27156337
-1.4234146
-0.27584321
-1.4992252
-0.27938672
-1.5794203
-0.28207732
-1.6642734
-0.2837783
-1.754102
-0.28434041
-1.8492316
-0.28359911
-1.9499674
-0.28134721
-2.0566515
-0.27741605
-2.1698012
-2.289185
-0.00028454699
-0.047213836
-0.00087030876
-0.058578747
-0.001320623
-0.05766575
-0.0019397569
-0.062297415
-0.0024895621
-0.064308395
-0.0031944694
-0.067639129
-0.003848042
-0.070744027
-0.0046122663
-0.073999374
-0.005369469
-0.077535373
-0.0061851966
-0.081096561
-0.007047216
-0.084906723
-0.0079622108
-0.088844248
-0.0089350638
-0.092975054
-0.0099691954
-0.09728545
-0.011069677
-0.10178923
-0.012241339
-0.10649298
-0.013489844
-0.11140553
-0.014820603
-0.11653563
-0.016239622
-0.1218927
-0.017753668
-0.12748616
-0.019368771
-0.13332741
-0.02109245
-0.13942626
-0.022931063
-0.14579557
-0.024891987
-0.15244699
-0.02698278
-0.15939475
-0.029210202
-0.16665273
-0.031581755
-0.17423644
-0.034104276
-0.18216251
-0.036784168
-0.19044928
-0.0396282
-0.19911489
-0.042642394
-0.20818077
-0.045831771
-0.21766887
-0.049201175
-0.22760284
-0.052755382
-0.23800784
-0.056498044
-0.24891104
-0.060431912
-0.26034144
-0.064559875
-0.2723295
-0.06888382
-0.28490776
-0.073404821
-0.29811128
-0.078124006
-0.3119761
-0.083041434
-0.32654117
-0.08815685
-0.34184753
-0.093470058
-0.35793804
-0.098980489
-0.37485829
-0.10468655
-0.39265702
-0.11058693
-0.41138468
-0.11667964
-0.43109502
-0.1229626
-0.45184468
-0.12943343
-0.47369425
-0.1360887
-0.49670716
-0.14292524
-0.52095029
-0.14993888
-0.54649594
-0.15712448
-0.57341934
-0.16447665
-0.60180103
-0.17198831
-0.63172661
-0.17965162
-0.66328666
-0.18745654
-0.69657836
-0.19539273
-0.73170353
-0.20344663
-0.76877215
-0.21160292
-0.80790084
-0.21984418
-0.84921293
-0.22814964
-0.89284093
-0.2364954
-0.9389258
-0.24485315
-0.9876174
-0.25319176
-1.0390749
-0.26147391
-1.0934678
-0.26965883
-1.1509764
-0.27769661
-1.2117922
-0.28553564
-1.2761209
-0.29311131
-1.3441758
-0.3003584
-1.4161923
-0.30719658
-1.4924137
-0.31353787
-1.573108
-0.31927993
-1.6585633
-0.3243142
-1.749103
-0.32852131
-1.8450641
-0.33175962
-1.9467727
-0.33385668
-2.054596
-0.3346697
-2.1690267
-2.2897691
-0.00024648727
-0.046967992
-0.00082116736
-0.058004718
-0.0012416639
-0.057245958
-0.0018848033
-0.061655008
-0.0024200167
-0.06377396
-0.0031003574
-0.066959608
-0.003731166
-0.070114082
-0.0044540929
-0.073277355
-0.0051977172
-0.076792707
-0.0059978623
-0.080297429
-0.0068500619
-0.084055588
-0.0077571151
-0.087938321
-0.0087261615
-0.092007192
-0.0097611317
-0.096251731
-0.01086778
-0.1006839
-0.012051867
-0.10531029
-0.013319626
-0.11013924
-0.014677739
-0.11517907
-0.016132986
-0.12043908
-0.017692073
-0.1259288
-0.019363599
-0.1316577
-0.021154002
-0.13763778
-0.023072116
-0.14387948
-0.025125194
-0.15039606
-0.027321026
-0.15720118
-0.029667662
-0.16430849
-0.032172451
-0.17173418
-0.034842312
-0.17949532
-0.037684584
-0.18760984
-0.040705186
-0.19609728
-0.043909648
-0.20497949
-0.047303567
-0.21427831
-0.050891318
-0.22401865
-0.054677054
-0.23422589
-0.058664021
-0.24492809
-0.062855009
-0.25615471
-0.06725224
-0.2679368
-0.071857413
-0.2803074
-0.076672282
-0.29330152
-0.081697538
-0.30695628
-0.086934115
-0.32131038
-0.092382805
-0.33640501
-0.098044106
-0.35228332
-0.10391805
-0.36899135
-0.1100055
-0.38657703
-0.116307
-0.40509114
-0.12282253
-0.42458797
-0.12955257
-0.44512367
-0.13649736
-0.46675908
-0.14365716
-0.48955759
-0.15103128
-0.51358703
-0.15862003
-0.53891873
-0.16642202
-0.56562957
-0.17443586
-0.59380012
-0.18265964
-0.62351648
-0.19109022
-0.65487046
-0.19972388
-0.68795981
-0.20855512
-0.72288812
-0.21757762
-0.75976621
-0.22678319
-0.79871254
-0.23616104
-0.83985305
-0.24569914
-0.88332148
-0.25538225
-0.92926201
-0.26519256
-0.97782708
-0.27510813
-1.0291799
-0.28510362
-1.0834936
-0.29514902
-1.140953
-0.30521098
-1.201753
-0.31524808
-1.2661074
-0.3252162
-1.3342324
-0.33506576
-1.406369
-0.34472947
-1.4827782
-0.35414344
-1.5637248
-0.3632291
-1.6495114
-0.37190334
-1.7404662
-0.38006852
-1.836941
-0.38761801
-1.9392692
-0.39440188
-2.0478555
-0.40032314
-2.1631463
-2.2848522
-0.00021252854
-0.046756068
-0.0007876541
-0.057430205
-0.0011852766
-0.056848998
-0.001846498
-0.060994481
-0.0023601037
-0.063261087
-0.0030313729
-0.066289109
-0.0036553952
-0.069490871
-0.0043731779
-0.072560432
-0.0051194293
-0.076047357
-0.0059198715
-0.079497941
-0.0067797641
-0.083196699
-0.0076992169
-0.087019929
-0.0086867095
-0.091020816
-0.009747057
-0.095192564
-0.010886921
-0.099545277
-0.012113012
-0.10408551
-0.013432493
-0.10882114
-0.014852687
-0.11376033
-0.016382
-0.11891131
-0.018028335
-0.1242841
-0.019799928
-0.12988783
-0.021705657
-0.13573386
-0.023753621
-0.14183343
-0.025952483
-0.14819922
-0.028310906
-0.1548449
-0.030836236
-0.16178543
-0.033536252
-0.16903656
-0.036418189
-0.17661593
-0.039488743
-0.18454198
-0.042753094
-0.19283578
-0.046217616
-0.20151799
-0.049886116
-0.21061302
-0.053763323
-0.22014485
-0.057851978
-0.23014085
-0.062154864
-0.24062905
-0.066674888
-0.25163878
-0.071413951
-0.26320209
-0.076373571
-0.27535242
-0.081555476
-0.28812456
-0.086961467
-0.30155557
-0.09259306
-0.31568442
-0.09845205
-0.33055203
-0.10454011
-0.34620167
-0.11085984
-0.36267847
-0.1174136
-0.3800306
-0.12420376
-0.39830879
-0.13123399
-0.41756609
-0.1385068
-0.43785977
-0.1460262
-0.45924918
-0.15379555
-0.48179837
-0.16181874
-0.50557464
-0.17009869
-0.53065025
-0.1786393
-0.55710114
-0.18744396
-0.58500838
-0.19651526
-0.61445883
-0.20585573
-0.6455444
-0.21546751
-0.67836318
-0.22535143
-0.71302012
-0.23550761
-0.74962669
-0.2459348
-0.78830277
-0.25663146
-0.82917455
-0.26759284
-0.872379
-0.27881333
-0.91806117
-0.29028489
-0.96637592
-0.30199673
-1.0174892
-0.31393521
-1.0715771
-0.32608352
-1.1288274
-0.33841915
-1.1894411
-0.35092034
-1.2536311
-0.36355655
-1.3216223
-0.37628922
-1.393664
-0.38908556
-1.4700116
-0.40188964
-1.5509531
-0.41464685
-1.6367898
-0.42729655
-1.7278561
-0.43978282
-1.8244993
-0.45201335
-1.9270871
-0.46387763
-2.036037
-0.47530529
-2.1517627
-2.2740191
-0.00019113384
-0.046565502
-0.00078540475
-0.056836507
-0.0011790012
-0.056456022
-0.0018327497
-0.060341379
-0.0023391127
-0.06275541
-0.0030161095
-0.065612835
-0.0036550703
-0.068852671
-0.00437955
-0.071836757
-0.0051473998
-0.075280353
-0.0059691475
-0.078677089
-0.0068584641
-0.082308324
-0.0078145436
-0.086064847
-0.0088469465
-0.089989462
-0.0099617338
-0.094078886
-0.011166608
-0.09834157
-0.012469446
-0.10278391
-0.013878669
-0.10741322
-0.015403089
-0.11223729
-0.017051303
-0.11726455
-0.018833224
-0.12250371
-0.020757611
-0.12796506
-0.022834081
-0.13365911
-0.025071399
-0.13959793
-0.027478601
-0.14579394
-0.030064134
-0.15226139
-0.032835991
-0.15901571
-0.035801103
-0.16607372
-0.038966528
-0.17345291
-0.042337645
-0.18117341
-0.045920375
-0.18925576
-0.049718458
-0.19772278
-0.053735973
-0.20659856
-0.057976178
-0.2159079
-0.062441602
-0.22567889
-0.067134675
-0.23593966
-0.072057598
-0.24671978
-0.077212034
-0.25805184
-0.082600422
-0.26996851
-0.088224687
-0.28250508
-0.094087543
-0.29569782
-0.10019188
-0.30958555
-0.10654106
-0.3242087
-0.11313925
-0.33960975
-0.11999071
-0.35583372
-0.12710029
-0.3729282
-0.13447395
-0.39094282
-0.14211752
-0.40993076
-0.15003767
-0.42994844
-0.15824114
-0.45105513
-0.16673546
-0.47331411
-0.1755282
-0.49679264
-0.18462786
-0.52156203
-0.19404222
-0.54769895
-0.20377968
-0.57528384
-0.21384808
-0.60440411
-0.2242563
-0.63515063
-0.23501164
-0.66762308
-0.2461219
-0.7019259
-0.25759439
-0.73817103
-0.26943593
-0.77647884
-0.28165206
-0.81697682
-0.29424791
-0.85980235
-0.30722722
-0.90510189
-0.3205922
-0.95303179
-0.33434368
-1.0037595
-0.34847998
-1.0574635
-0.36299683
-1.1143343
-0.37788706
-1.1745757
-0.39314452
-1.2383997
-0.40875062
-1.3060437
-0.42469437
-1.3777495
-0.44094939
-1.4537879
-0.4574918
-1.5344447
-0.4742914
-1.6200276
-0.4913091
-1.71088
-0.50851045
-1.807345
-0.525842
-1.9098065
-0.54323608
-2.0186916
-0.56063308
-2.1344131
-2.256812
-0.0001727197
-0.046393314
-0.00079567217
-0.056214092
-0.001196007
-0.056056269
-0.001860458
-0.059677534
-0.0023793858
-0.062237125
-0.0030709615
-0.064921936
-0.0037403334
-0.068184012
-0.004488348
-0.071089497
-0.0052962082
-0.074473286
-0.0061617752
-0.077812362
-0.0071046865
-0.081366295
-0.0081248835
-0.085045584
-0.0092326761
-0.088882652
-0.01043577
-0.092876832
-0.011743195
-0.09703524
-0.013164263
-0.101364
-0.014708695
-0.10587001
-0.016386576
-0.1105607
-0.018208141
-0.11544434
-0.020183291
-0.12053
-0.022322395
-0.12582748
-0.024635011
-0.1313481
-0.027130284
-0.13710435
-0.029817348
-0.14310867
-0.032703924
-0.14937672
-0.035797243
-0.15592442
-0.039104448
-0.16276866
-0.042630342
-0.16992929
-0.04638009
-0.17742608
-0.050357559
-0.18528086
-0.054566117
-0.19351695
-0.059008765
-0.20215882
-0.063686839
-0.21123293
-0.068603553
-0.22076548
-0.073760338
-0.23078641
-0.079159151
-0.24132475
-0.084802899
-0.25241214
-0.090693887
-0.26408185
-0.096836332
-0.27636728
-0.10323405
-0.28930507
-0.10989174
-0.3029332
-0.11681499
-0.31729117
-0.12401055
-0.33242032
-0.1314854
-0.34836547
-0.13924764
-0.36517303
-0.1473063
-0.38289176
-0.15567075
-0.40157445
-0.16435122
-0.4212767
-0.17335895
-0.44205676
-0.18270523
-0.46397785
-0.1924025
-0.48710608
-0.20246272
-0.51151323
-0.21289991
-0.53727395
-0.22372699
-0.56446971
-0.23495842
-0.59318642
-0.24660775
-0.62351586
-0.25868999
-0.65555621
-0.27121939
-0.68941269
-0.2842104
-0.72519703
-0.29767833
-0.76302877
-0.31163695
-0.80303691
-0.32610074
-0.84535813
-0.34108372
-0.89013938
-0.35659903
-0.93753787
-0.37265864
-0.98772228
-0.38927404
-1.0408716
-0.40645518
-1.0971778
-0.42421104
-1.1568458
-0.44254514
-1.2200929
-0.4614636
-1.2871542
-0.48096812
-1.3582757
-0.50106006
-1.433729
-0.52173399
-1.5138066
-0.54297763
-1.5988232
-0.56478924
-1.6891121
-0.58715152
-1.7850319
-0.61005645
-1.8869544
-0.63347203
-1.9953269
-0.65735931
-2.1105769
-2.2327112
-0.00015869213
-0.046235119
-0.00082345568
-0.055549829
-0.0012374949
-0.055642772
-0.0019319644
-0.058983629
-0.0024810619
-0.061688626
-0.0032012157
-0.064202414
-0.0039213164
-0.067464576
-0.0047139295
-0.070297589
-0.0055846588
-0.073603297
-0.0065211142
-0.076876691
-0.007546869
-0.080341364
-0.0086640482
-0.083929278
-0.0098840244
-0.087663593
-0.01121657
-0.091545259
-0.01267224
-0.095580592
-0.014262094
-0.099775225
-0.015997238
-0.10413601
-0.017888878
-0.10867027
-0.019948096
-0.1133864
-0.022185654
-0.11829379
-0.024611605
-0.12340295
-0.027235823
-0.12872539
-0.030067427
-0.13427434
-0.033113879
-0.14006391
-0.036382633
-0.14610976
-0.039879591
-0.15242936
-0.04360956
-0.15904071
-0.047576823
-0.16596417
-0.051784478
-0.17322071
-0.056234848
-0.18083293
-0.060929682
-0.18882472
-0.065871072
-0.19722021
-0.071060484
-0.20604648
-0.0764997
-0.21532944
-0.082191234
-0.22509828
-0.088137796
-0.23538183
-0.094342894
-0.24621095
-0.10081166
-0.25761728
-0.10754854
-0.26963491
-0.11456063
-0.28229783
-0.1218549
-0.29564415
-0.12944073
-0.30971095
-0.13732662
-0.32454046
-0.14552345
-0.34017513
-0.15404327
-0.35666019
-0.16289781
-0.37404474
-0.17210082
-0.39237952
-0.18166683
-0.41171937
-0.19161065
-0.43212226
-0.20194871
-0.45364978
-0.21269741
-0.47636808
-0.22387516
-0.50034693
-0.23549955
-0.52566178
-0.24758989
-0.5523924
-0.26016643
-0.58062372
-0.27324951
-0.61044746
-0.28686005
-0.6419612
-0.30102064
-0.6752685
-0.3157535
-0.71048145
-0.33108118
-0.74771925
-0.3470275
-0.78710966
-0.36361674
-0.8287889
-0.38087312
-0.87290399
-0.39882072
-0.91961229
-0.4174852
-0.96908093
-0.43689079
-1.0214903
-0.45706147
-1.0770328
-0.47802078
-1.1359136
-0.49979032
-1.1983521
-0.52239519
-1.2645799
-0.54585578
-1.3348478
-0.57019173
-1.409428
-0.59542354
-1.4886125
-0.62157182
-1.5727161
-0.64864861
-1.6620811
-0.67667015
-1.7570617
-0.70564924
-1.8580302
-0.73561648
-1.965413
-0.76655711
-2.0796909
-2.2010901
-0.00015068589
-0.046084896
-0.00087613489
-0.054824849
-0.0013092093
-0.055210203
-0.0020473437
-0.058246022
-0.0026472528
-0.061089275
-0.0034139739
-0.063436282
-0.0042078277
-0.066671342
-0.0050698665
-0.069436207
-0.0060291246
-0.072644727
-0.0070677828
-0.075838764
-0.0082114983
-0.079198416
-0.0094659566
-0.082675632
-0.010844028
-0.086286376
-0.012357521
-0.09003267
-0.014018789
-0.093920276
-0.015840153
-0.097954869
-0.017833885
-0.10214333
-0.020011833
-0.10649344
-0.022385459
-0.11101396
-0.024965452
-0.11571505
-0.027761791
-0.12060794
-0.030783087
-0.1257055
-0.034036888
-0.13102204
-0.037529921
-0.13657246
-0.041266836
-0.14237453
-0.045251934
-0.14844605
-0.049487384
-0.15480716
-0.053975335
-0.16147825
-0.058717203
-0.16848101
-0.063713703
-0.17583874
-0.068966109
-0.18357479
-0.074475299
-0.19171367
-0.080243455
-0.20028117
-0.086272801
-0.20930315
-0.092567214
-0.21880714
-0.099130663
-0.22882191
-0.10596941
-0.239376
-0.11308969
-0.25050109
-0.12050052
-0.26222849
-0.12821041
-0.27459268
-0.13623109
-0.28762858
-0.14457321
-0.30137435
-0.15325053
-0.31586909
-0.16227753
-0.33115455
-0.17166905
-0.34727559
-0.18144174
-0.36427951
-0.19161322
-0.38221607
-0.20220208
-0.40113916
-0.21322827
-0.42110537
-0.22471214
-0.4421759