/*--------------------------------*- C++ -*----------------------------------*\
  =========                 |
  \\      /  F ield         | OpenFOAM: The Open Source CFD Toolbox
   \\    /   O peration     | Website:  https://openfoam.org
    \\  /    A nd           | Version:  12
     \\/     M anipulation  |
\*---------------------------------------------------------------------------*/
FoamFile
{
    format      ascii;
    class       volScalarField;
    location    "0.01";
    object      alphat;
}
// * * * * * * * * * * * * * * * * * * * * * * * * * * * * * * * * * * * * * //

dimensions      [1 -1 -1 0 0 0 0];

internalField   nonuniform List<scalar> 
16000
(
4.8543967e-07
1.0302589e-05
1.9008214e-05
2.5127665e-05
1.9686201e-05
2.7354348e-05
1.9159292e-05
2.6258299e-05
2.0377141e-05
2.7910213e-05
2.3516819e-05
2.7581904e-05
2.5140138e-05
2.5801142e-05
2.4927142e-05
2.4789688e-05
2.4543294e-05
2.4492891e-05
2.4532805e-05
2.4684583e-05
2.4940337e-05
2.5299297e-05
2.5758785e-05
2.6318958e-05
2.698202e-05
2.7754637e-05
2.8645488e-05
2.9668549e-05
3.0841119e-05
3.2182169e-05
3.3712793e-05
3.546096e-05
3.7463025e-05
3.9764345e-05
4.2421196e-05
4.5501394e-05
4.9086394e-05
5.3273923e-05
5.8184796e-05
6.3968213e-05
7.0799722e-05
7.8886762e-05
8.8489667e-05
9.9926628e-05
0.00011357717
0.00012989857
0.00014946063
0.00017296503
0.00020127512
0.00023545589
0.00027683028
0.00032704735
0.00038816038
0.00046274203
0.00055405871
0.00066637128
0.00080540499
0.00097900498
0.0011731673
0.0011753892
0.0011771931
0.0011787179
0.0011800348
0.0011811722
0.0011820016
0.0011820732
0.0011808937
0.0011798911
0.0011794533
0.0011792499
0.0011785216
0.001177134
0.0011756526
0.0011743129
0.0011730471
0.0011725047
0.0011704384
0.0011699377
0.0011701801
0.0011581932
4.3519739e-07
9.7372723e-06
2.0064478e-05
2.2859159e-05
1.7762709e-05
2.4527821e-05
1.6999054e-05
2.3007313e-05
1.7989023e-05
2.4679968e-05
2.1306404e-05
2.4906773e-05
2.3015946e-05
2.3408189e-05
2.2721382e-05
2.2527802e-05
2.2321756e-05
2.2263421e-05
2.2300639e-05
2.2437577e-05
2.2671535e-05
2.3001457e-05
2.3425276e-05
2.3943282e-05
2.4557156e-05
2.5273212e-05
2.609907e-05
2.7047354e-05
2.8134408e-05
2.9378675e-05
3.0799812e-05
3.242336e-05
3.4282774e-05
3.6419764e-05
3.8886532e-05
4.1746272e-05
4.5075388e-05
4.8965111e-05
5.3527595e-05
5.8903563e-05
6.5260789e-05
7.2793886e-05
8.1747326e-05
9.2423139e-05
0.0001051835
0.00012045991
0.00013879003
0.00016083621
0.00018741227
0.00021951713
0.00025838292
0.00030553384
0.00036284413
0.00043262212
0.00051772946
0.00062179707
0.00074957699
0.00090740908
0.0011038828
0.0011751516
0.0011769759
0.0011785435
0.0011799292
0.0011811717
0.001182173
0.0011826725
0.0011818614
0.0011811379
0.0011808146
0.0011805935
0.0011794533
0.0011774505
0.001175084
0.0011726967
0.0011703561
0.0011682325
0.0011663946
0.0011664356
0.0011654862
0.0011576276
3.9351414e-07
9.3201877e-06
1.940947e-05
2.0919346e-05
1.5913442e-05
2.1598377e-05
1.5131089e-05
2.0001381e-05
1.6142974e-05
2.1675358e-05
1.9432468e-05
2.2215773e-05
2.0878271e-05
2.0996255e-05
2.0466227e-05
2.0250155e-05
2.0077234e-05
2.0022955e-05
2.006065e-05
2.0188097e-05
2.0403927e-05
2.0707537e-05
2.1097196e-05
2.1573557e-05
2.2137966e-05
2.2796522e-05
2.3556125e-05
2.4428237e-05
2.5428064e-05
2.6573469e-05
2.7883065e-05
2.9380432e-05
3.1096607e-05
3.3070133e-05
3.5349603e-05
3.7993998e-05
4.1075227e-05
4.4679188e-05
4.8910483e-05
5.3901215e-05
5.9812321e-05
6.6827832e-05
7.5178168e-05
8.5150331e-05
9.7092678e-05
0.00011141658
0.00012863478
0.00014937979
0.00017442947
0.00020473756
0.00024147575
0.00028608992
0.00034034907
0.00040641521
0.00048693235
0.00058519129
0.00070540902
0.00085307421
0.0010353039
0.001175206
0.0011770064
0.0011785736
0.0011799894
0.0011812991
0.0011824223
0.0011831434
0.0011826822
0.0011822767
0.0011821023
0.0011815019
0.0011797769
0.0011771458
0.0011740488
0.0011707364
0.0011674032
0.0011641656
0.0011627357
0.0011630385
0.0011619284
0.0011567724
3.5345274e-07
9.0197473e-06
1.905783e-05
1.9906762e-05
1.4333996e-05
1.9061275e-05
1.3488336e-05
1.7474281e-05
1.4516151e-05
1.9124289e-05
1.7747173e-05
1.9827444e-05
1.8905644e-05
1.8821435e-05
1.8410096e-05
1.8192946e-05
1.8048716e-05
1.8003193e-05
1.8043783e-05
1.8165013e-05
1.8366315e-05
1.8647535e-05
1.9007312e-05
1.9446818e-05
1.9967167e-05
2.0574346e-05
2.1274756e-05
2.2078916e-05
2.3000936e-05
2.4058164e-05
2.526846e-05
2.6653727e-05
2.8243036e-05
3.007225e-05
3.2186957e-05
3.4642584e-05
3.7507237e-05
4.0862592e-05
4.4807141e-05
4.9465027e-05
5.4991793e-05
6.156326e-05
6.9398596e-05
7.8771985e-05
9.0022107e-05
0.00010354568
0.0001198373
0.00013950849
0.00016331285
0.00019217627
0.00022723383
0.00026988862
0.00032185912
0.00038524891
0.00046262741
0.00055717914
0.00067296805
0.00081521745
0.00099040223
0.0011754674
0.0011771987
0.0011787146
0.0011801036
0.0011814131
0.0011825809
0.0011833457
0.0011832651
0.0011830825
0.0011828384
0.0011818228
0.0011794692
0.0011763821
0.0011726689
0.0011686564
0.0011646517
0.001160874
0.0011598477
0.0011604031
0.0011590751
0.0011560769
3.1663367e-07
8.8061353e-06
1.8177145e-05
2.0198743e-05
1.4448729e-05
1.6853303e-05
1.2042708e-05
1.5307919e-05
1.3135737e-05
1.6934144e-05
1.6259083e-05
1.7670064e-05
1.7062769e-05
1.6838357e-05
1.6514217e-05
1.6309916e-05
1.61887e-05
1.6152529e-05
1.6195449e-05
1.6310853e-05
1.649871e-05
1.6759333e-05
1.7091657e-05
1.7497514e-05
1.7977838e-05
1.8538593e-05
1.9185819e-05
1.9929309e-05
2.0782146e-05
2.1761181e-05
2.288379e-05
2.4170561e-05
2.5649059e-05
2.7353001e-05
2.9325597e-05
3.1619435e-05
3.4299533e-05
3.7444412e-05
4.1148222e-05
4.5528148e-05
5.0735964e-05
5.6942245e-05
6.4358762e-05
7.3250094e-05
8.3950655e-05
9.6850252e-05
0.00011243542
0.00013131063
0.00015422435
0.00018210328
0.000216087
0.0002575962
0.00030838767
0.00037063977
0.00044704755
0.00054099174
0.0006568436
0.00080021797
0.00097793349
0.0011758187
0.0011774145
0.0011788087
0.0011800949
0.001181314
0.0011824013
0.0011832049
0.0011834147
0.0011833002
0.0011828155
0.0011811947
0.0011786568
0.0011752735
0.0011712391
0.0011668924
0.0011626629
0.0011589327
0.0011583444
0.0011589945
0.0011571239
0.0011558928
2.8840933e-07
8.6795242e-06
1.7485415e-05
1.9957043e-05
1.4312647e-05
1.4933772e-05
1.1697243e-05
1.3504185e-05
1.2833574e-05
1.5121241e-05
1.4963995e-05
1.5768062e-05
1.5368327e-05
1.5060129e-05
1.4791437e-05
1.4604098e-05
1.44995e-05
1.4470663e-05
1.4514712e-05
1.4624641e-05
1.4800612e-05
1.5043361e-05
1.5352009e-05
1.5728876e-05
1.6175003e-05
1.669626e-05
1.7298478e-05
1.7990955e-05
1.8785871e-05
1.9699659e-05
2.0749503e-05
2.1955062e-05
2.3342889e-05
2.4945152e-05
2.6803392e-05
2.8968191e-05
3.1502394e-05
3.4482548e-05
3.800064e-05
4.2168884e-05
4.7137186e-05
5.3074698e-05
6.0191177e-05
6.8746324e-05
7.9077614e-05
9.1578436e-05
0.00010674103
0.00012518202
0.00014767059
0.00017517218
0.00020888423
0.0002503216
0.000301388
0.00036449
0.00044266263
0.00053977361
0.00066088792
0.00081251103
0.001002654
0.0011760916
0.0011774751
0.0011786687
0.0011797684
0.0011808078
0.0011817267
0.0011824131
0.0011827092
0.0011825633
0.0011817224
0.0011800713
0.0011775322
0.0011741652
0.0011701971
0.0011659516
0.0011618912
0.0011584543
0.0011585318
0.0011592921
0.0011562175
0.0011559415
2.6456035e-07
8.6176396e-06
1.6948428e-05
1.8744834e-05
1.4241216e-05
1.3171896e-05
1.1666418e-05
1.2448298e-05
1.1772583e-05
1.3452955e-05
1.3770093e-05
1.4072749e-05
1.3783092e-05
1.3443934e-05
1.321107e-05
1.3044153e-05
1.295491e-05
1.2934273e-05
1.2980844e-05
1.3088031e-05
1.3255608e-05
1.3484763e-05
1.3775141e-05
1.4048403e-05
1.445743e-05
1.4938316e-05
1.5496381e-05
1.6140279e-05
1.6881174e-05
1.7734828e-05
1.8718304e-05
1.9850483e-05
2.1157171e-05
2.2669294e-05
2.4427148e-05
2.647987e-05
2.8888784e-05
3.1729201e-05
3.5092751e-05
3.9382077e-05
4.4191501e-05
4.9958573e-05
5.6897014e-05
6.5267349e-05
7.5417636e-05
8.7756768e-05
0.00010279838
0.00012119308
0.00014376009
0.00017154663
0.00020586809
0.00024841965
0.00030137249
0.00036752899
0.00045048591
0.00055486077
0.00068660918
0.00085320087
0.0010635927
0.0011761201
0.0011772192
0.0011781374
0.0011789757
0.0011797627
0.0011804535
0.0011809543
0.0011811522
0.0011809298
0.0011801569
0.0011786873
0.0011764581
0.0011734918
0.0011699936
0.0011662465
0.0011626276
0.0011599548
0.0011601499
0.0011608629
0.0011562573
0.0011569002
2.4123804e-07
8.5946521e-06
1.6479857e-05
1.6875097e-05
1.2486744e-05
1.1449209e-05
9.5832406e-06
1.0558804e-05
1.0293513e-05
1.2136641e-05
1.2588009e-05
1.2522417e-05
1.2284356e-05
1.1956779e-05
1.1753546e-05
1.1610903e-05
1.1539211e-05
1.1529741e-05
1.1513847e-05
1.1605553e-05
1.1757228e-05
1.1968343e-05
1.2239278e-05
1.2568545e-05
1.2961421e-05
1.342181e-05
1.3955214e-05
1.4570365e-05
1.5278026e-05
1.6093704e-05
1.7034894e-05
1.812027e-05
1.9375581e-05
2.0831304e-05
2.2527457e-05
2.4512843e-05
2.6848674e-05
2.9610598e-05
3.2891965e-05
3.6807856e-05
4.1500234e-05
4.7150213e-05
5.398072e-05
6.2782693e-05
7.2939394e-05
8.5354131e-05
0.00010057833
0.00011931893
0.00014247515
0.00017121996
0.00020704656
0.00025191444
0.00030837588
0.00037977932
0.00047046352
0.00058592681
0.00073282224
0.0009188378
0.0011514267
0.0011757792
0.0011765412
0.0011771306
0.0011776616
0.0011781681
0.0011786192
0.0011789633
0.0011791214
0.0011789952
0.0011784627
0.001177436
0.0011758307
0.0011736257
0.0011709478
0.0011679714
0.0011649433
0.0011628367
0.0011630768
0.001163264
0.0011574794
0.0011591857
2.1821156e-07
8.5858005e-06
1.5957055e-05
1.4783456e-05
1.0362534e-05
1.0175836e-05
8.0108203e-06
9.5098859e-06
9.5523029e-06
1.088724e-05
1.1410007e-05
1.109967e-05
1.0883452e-05
1.0591004e-05
1.0415812e-05
1.0228763e-05
1.0150117e-05
1.0138479e-05
1.0187386e-05
1.0293215e-05
1.0452051e-05
1.066663e-05
1.0934362e-05
1.1256743e-05
1.1638495e-05
1.2084422e-05
1.2600254e-05
1.3194923e-05
1.3879017e-05
1.4667835e-05
1.5579493e-05
1.6632794e-05
1.7853864e-05
1.9273209e-05
2.0931193e-05
2.2877112e-05
2.5173076e-05
2.7896324e-05
3.1142687e-05
3.5030787e-05
3.9709279e-05
4.5365879e-05
5.223887e-05
6.0615556e-05
7.0870612e-05
8.3484018e-05
9.9932558e-05
0.00011937418
0.00014357773
0.000173876
0.00021198251
0.00026017268
0.00032143181
0.00039967797
0.00049994566
0.00062831322
0.00079140879
0.0009951703
0.0011743472
0.0011750238
0.0011754294
0.0011756843
0.0011759111
0.0011761718
0.0011764374
0.001176703
0.0011769464
0.0011771005
0.0011770523
0.001176714
0.0011759741
0.0011747784
0.0011731342
0.0011710425
0.0011686409
0.0011669542
0.001167062
0.0011659099
0.0011599321
0.0011629275
2.0169208e-07
8.5597436e-06
1.4288687e-05
1.2911263e-05
8.4753306e-06
9.0574695e-06
7.2274819e-06
8.5328969e-06
8.9322401e-06
9.7685455e-06
1.0229642e-05
9.8007204e-06
9.5937878e-06
9.2556839e-06
9.0746377e-06
8.96454e-06
8.922907e-06
8.9396604e-06
9.0085749e-06
9.1292141e-06
9.2967947e-06
9.5133696e-06
9.7806601e-06
1.0099113e-05
1.0473925e-05
1.0910443e-05
1.1414689e-05
1.1995948e-05
1.2664802e-05
1.3436425e-05
1.4329676e-05
1.5363873e-05
1.6565856e-05
1.7966582e-05
1.9607294e-05
2.1538479e-05
2.3823977e-05
2.6543682e-05
2.9797549e-05
3.3709898e-05
3.8436779e-05
4.4175693e-05
5.118268e-05
5.9764733e-05
7.0326974e-05
8.3390938e-05
9.9628588e-05
0.00011988458
0.00014660653
0.00017884537
0.00021967208
0.00027163837
0.0003380518
0.00042313834
0.00053207819
0.00067056857
0.00084358762
0.001053225
0.0011735872
0.0011739226
0.0011740048
0.0011739716
0.0011739525
0.0011740453
0.0011742461
0.0011745718
0.001175032
0.0011756064
0.0011762283
0.0011767701
0.0011770478
0.0011769561
0.0011763898
0.0011751968
0.0011734421
0.0011721235
0.001171937
0.0011692921
0.0011634096
0.0011683628
1.8634542e-07
8.5376398e-06
1.152837e-05
1.0694005e-05
7.01723e-06
8.0551275e-06
6.5980573e-06
7.6765781e-06
8.3581238e-06
8.7358222e-06
9.0701748e-06
8.5289676e-06
8.2761927e-06
8.0447952e-06
7.9153939e-06
7.8480008e-06
7.8373476e-06
7.8792901e-06
7.9667007e-06
8.0989528e-06
8.2747357e-06
8.4958517e-06
8.7644983e-06
9.0818675e-06
9.4533444e-06
9.8848487e-06
1.0382826e-05
1.0956986e-05
1.1618125e-05
1.2381382e-05
1.3200749e-05
1.4216051e-05
1.5399799e-05
1.6783392e-05
1.8408969e-05
2.0328281e-05
2.2607017e-05
2.532782e-05
2.8594914e-05
3.2538581e-05
3.7323273e-05
4.3494818e-05
5.0705794e-05
5.9576639e-05
7.0541218e-05
8.4160058e-05
0.00010116507
0.00012247504
0.00014929966
0.00018322198
0.00022836023
0.00028356699
0.00035391252
0.00044338021
0.00055638812
0.00069713823
0.00086816995
0.0010683887
0.0011726003
0.0011726507
0.001172473
0.0011722398
0.0011721023
0.0011721259
0.0011723821
0.0011728889
0.001173705
0.0011748133
0.0011761709
0.001177617
0.0011789453
0.001179926
0.0011803839
0.0011800852
0.0011790286
0.0011780939
0.0011774519
0.0011734929
0.0011682983
0.0011756117
1.7268716e-07
8.5156154e-06
9.2141557e-06
9.0569103e-06
6.1456236e-06
7.1361403e-06
6.0610422e-06
6.9222455e-06
7.8004264e-06
7.7807037e-06
7.8118416e-06
7.3521766e-06
7.1484746e-06
6.9821849e-06
6.8962194e-06
6.8642808e-06
6.8814655e-06
6.943333e-06
7.0465102e-06
7.1908271e-06
7.3751134e-06
7.6016546e-06
7.8735743e-06
8.1925979e-06
8.5643219e-06
8.9584641e-06
9.4474697e-06
1.0012604e-05
1.0664746e-05
1.1418868e-05
1.2293233e-05
1.3311582e-05
1.4501381e-05
1.5894962e-05
1.7535948e-05
1.9478038e-05
2.1789584e-05
2.4556773e-05
2.7889031e-05
3.1923508e-05
3.6833949e-05
4.2842741e-05
5.0231101e-05
5.9350751e-05
7.0656736e-05
8.5471453e-05
0.0001032158
0.00012547199
0.00015347122
0.00018880158
0.00023345163
0.00029260206
0.00036417114
0.0004537599
0.00056471607
0.00069989851
0.00086089495
0.0010472856
0.0011715873
0.0011714466
0.0011711083
0.0011707769
0.0011706401
0.0011707472
0.0011711723
0.0011719445
0.0011731844
0.0011748459
0.0011768778
0.0011791368
0.0011813947
0.0011833543
0.0011847537
0.0011853313
0.0011850423
0.0011845505
0.0011834304
0.0011785823
0.0011747707
0.0011841286
1.6059774e-07
8.481277e-06
7.3799008e-06
7.9536066e-06
5.4737888e-06
6.311164e-06
5.6051207e-06
6.2609069e-06
7.1280898e-06
6.6927985e-06
6.673242e-06
6.3216451e-06
6.1628062e-06
6.0490233e-06
5.9999165e-06
5.9979888e-06
6.0387573e-06
6.1196207e-06
6.2377149e-06
6.393714e-06
6.5873231e-06
6.8209989e-06
7.0701124e-06
7.3873566e-06
7.7571384e-06
8.1850001e-06
8.6797782e-06
9.25122e-06
9.9106465e-06
1.0673516e-05
1.1558587e-05
1.2589802e-05
1.3796514e-05
1.5212149e-05
1.6881862e-05
1.8861367e-05
2.1221768e-05
2.4052604e-05
2.7468166e-05
3.1611898e-05
3.6664415e-05
4.2855983e-05
5.0482471e-05
5.9905268e-05
7.1590187e-05
8.6131186e-05
0.00010428429
0.00012699061
0.00015679555
0.00019265665
0.00023751977
0.00029348876
0.00036643011
0.00045256312
0.00055754298
0.0006838778
0.00083359488
0.0010078289
0.00117077
0.0011705602
0.0011702145
0.0011699345
0.0011698531
0.001170123
0.0011707608
0.0011718743
0.0011734693
0.0011755871
0.001178168
0.001181075
0.0011840845
0.0011868948
0.0011891522
0.0011905903
0.0011911618
0.0011911749
0.0011896961
0.00118446
0.0011825479
0.001193739
1.4977628e-07
8.4247457e-06
5.9290869e-06
6.9474389e-06
4.8821302e-06
5.5821591e-06
5.2196734e-06
5.5898635e-06
6.2710278e-06
5.7462012e-06
5.6713726e-06
5.4175296e-06
5.3004436e-06
5.2300975e-06
5.2132195e-06
5.2378805e-06
5.3002484e-06
5.3988337e-06
5.5316906e-06
5.6799015e-06
5.877841e-06
6.1157813e-06
6.3967473e-06
6.7246583e-06
7.1050095e-06
7.5438437e-06
8.0500381e-06
8.6341283e-06
9.3078239e-06
1.008695e-05
1.0990626e-05
1.2043333e-05
1.3216954e-05
1.4650573e-05
1.634307e-05
1.8351461e-05
2.074886e-05
2.3626837e-05
2.7102601e-05
3.1323563e-05
3.6474038e-05
4.3110775e-05
5.0947577e-05
6.0618048e-05
7.2581299e-05
8.7411492e-05
0.00010583539
0.00012873468
0.0001571783
0.00019422624
0.0002381621
0.00029230292
0.00035868244
0.00044378512
0.00054223285
0.00066016154
0.00079970092
0.00096190588
0.0011455039
0.0011701515
0.0011698539
0.0011696846
0.0011698122
0.0011703238
0.001171174
0.001172539
0.001174431
0.0011768725
0.0011798253
0.0011831784
0.0011867394
0.0011902313
0.0011932746
0.0011955791
0.0011970798
0.0011977024
0.0011961889
0.0011911432
0.0011914016
0.0012041381
1.4016535e-07
8.3463371e-06
4.7919899e-06
6.0528152e-06
4.353226e-06
4.9345789e-06
4.8882186e-06
4.8597032e-06
5.3972166e-06
4.8984307e-06
4.7996008e-06
4.6261164e-06
4.5484096e-06
4.5152822e-06
4.5274057e-06
4.5763946e-06
4.659163e-06
4.7571935e-06
4.8993099e-06
5.0767838e-06
5.2909438e-06
5.5439539e-06
5.8396224e-06
6.182149e-06
6.5776775e-06
7.0325813e-06
7.5558671e-06
8.1352829e-06
8.8228327e-06
9.617044e-06
1.0537124e-05
1.1607616e-05
1.285885e-05
1.432919e-05
1.6065183e-05
1.8125119e-05
2.0584262e-05
2.353596e-05
2.7099389e-05
3.142482e-05
3.6698011e-05
4.3154519e-05
5.1082563e-05
6.0838728e-05
7.286325e-05
8.8432931e-05
0.00010688058
0.00012964174
0.00015768661
0.00019217109
0.00023666655
0.00028872928
0.00035213913
0.00042898552
0.00052649643
0.00063757228
0.00076806271
0.00091788156
0.0010842936
0.0011703496
0.0011701868
0.0011701935
0.0011705148
0.0011711734
0.0011722676
0.0011738188
0.0011758892
0.0011785025
0.0011816433
0.0011852409
0.0011891532
0.001193146
0.001196884
0.0012000367
0.0012024972
0.001203914
0.0012028411
0.0011986129
0.0012010214
0.001214589
1.3167746e-07
8.110438e-06
3.9288637e-06
5.2580708e-06
3.8858679e-06
4.3633774e-06
4.3605918e-06
4.1994334e-06
4.545799e-06
4.1445448e-06
4.0487638e-06
3.9392539e-06
3.8984884e-06
3.8981536e-06
3.9367817e-06
3.9944677e-06
4.0902879e-06
4.2198806e-06
4.3826597e-06
4.5792536e-06
4.811707e-06
5.0827707e-06
5.3967223e-06
5.75808e-06
6.1602413e-06
6.6317432e-06
7.1722463e-06
7.7922665e-06
8.5050238e-06
9.3264289e-06
1.0276001e-05
1.1378948e-05
1.2666364e-05
1.4177396e-05
1.5960524e-05
1.8074698e-05
2.0596808e-05
2.3621239e-05
2.7267297e-05
3.1686615e-05
3.7062108e-05
4.3625697e-05
5.1661428e-05
6.1511651e-05
7.3599068e-05
8.8437275e-05
0.00010759676
0.00013011218
0.00015769984
0.00019146282
0.00023268592
0.00028560109
0.00034704255
0.000421282
0.00051023692
0.00062129189
0.00074424828
0.00088305183
0.0010344083
0.001171142
0.001171139
0.0011713218
0.0011718219
0.0011726549
0.0011738712
0.0011755225
0.0011776543
0.0011802993
0.0011834681
0.001187137
0.0011912224
0.0011955407
0.00119981
0.0012037377
0.0012071277
0.0012094681
0.0012093982
0.0012066284
0.0012112316
0.0012247128
1.2436136e-07
7.6976194e-06
3.4560026e-06
4.5591843e-06
3.4705783e-06
3.6995858e-06
3.8928617e-06
3.5915347e-06
3.7694731e-06
3.4858442e-06
3.4105163e-06
3.351582e-06
3.3445674e-06
3.3736369e-06
3.4203408e-06
3.5091129e-06
3.6302754e-06
3.7827825e-06
3.9670647e-06
4.1845555e-06
4.4378895e-06
4.7301127e-06
5.0567827e-06
5.437636e-06
5.8725731e-06
6.3688211e-06
6.9350971e-06
7.5821193e-06
8.3231866e-06
9.1748507e-06
1.0156859e-05
1.1294904e-05
1.2620649e-05
1.4173991e-05
1.5937059e-05
1.808725e-05
2.0648754e-05
2.3716225e-05
2.7571914e-05
3.2074474e-05
3.7537512e-05
4.4187491e-05
5.2304848e-05
6.2222394e-05
7.4349856e-05
8.9189586e-05
0.00010735099
0.00012957179
0.00015814308
0.00019162326
0.00023247974
0.00028222391
0.0003457861
0.00041898049
0.0005061489
0.00061419968
0.00073201232
0.00086329866
0.0010053391
0.0011551506
0.0011725985
0.0011729445
0.0011735808
0.0011745201
0.0011758029
0.0011774709
0.0011795681
0.0011821371
0.0011852152
0.0011888225
0.0011929284
0.0011973965
0.0012019885
0.0012065034
0.0012107226
0.0012139985
0.0012154206
0.0012147717
0.0012214449
0.0012340842
1.1857614e-07
7.0909468e-06
3.0538949e-06
3.9277462e-06
3.1116392e-06
3.0867173e-06
3.4231313e-06
3.0375759e-06
3.100683e-06
2.9212083e-06
2.8746643e-06
2.8567401e-06
2.8720928e-06
2.920246e-06
3.0044715e-06
3.1204521e-06
3.2663447e-06
3.4422226e-06
3.6493278e-06
3.8895569e-06
4.1602625e-06
4.4740109e-06
4.8314229e-06
5.2375529e-06
5.6984385e-06
6.2213992e-06
6.8153398e-06
7.4911385e-06
8.2621924e-06
9.1258784e-06
1.0134792e-05
1.1300434e-05
1.2654615e-05
1.4237143e-05
1.6097741e-05
1.8298512e-05
2.0916258e-05
2.4047023e-05
2.780978e-05
3.2351022e-05
3.7851561e-05
4.4852895e-05
5.3058978e-05
6.3069219e-05
7.529289e-05
9.0237374e-05
0.00010852428
0.00013091389
0.00015978386
0.00019360531
0.00023493899
0.00028528836
0.00034963011
0.00042335245
0.00051059502
0.00061192434
0.00073385428
0.00086224279
0.0010015321
0.001150633
0.0011744215
0.0011748974
0.001175622
0.0011766136
0.0011779021
0.0011795236
0.0011815212
0.0011839469
0.00118686
0.0011903131
0.0011943116
0.0011987568
0.0012034555
0.0012082785
0.0012131359
0.0012173957
0.0012206578
0.001222645
0.0012306792
0.0012423057
1.1427283e-07
4.7359098e-06
2.7063374e-06
3.3412241e-06
2.6606731e-06
2.5728164e-06
2.9252162e-06
2.5429875e-06
2.5439802e-06
2.445159e-06
2.4312111e-06
2.4408933e-06
2.4868587e-06
2.5685056e-06
2.6815235e-06
2.8235025e-06
2.9939097e-06
3.1935423e-06
3.421147e-06
3.6837091e-06
3.9826637e-06
4.3215159e-06
4.7045029e-06
5.1367527e-06
5.6244315e-06
6.1749632e-06
6.7973535e-06
7.4917514e-06
8.2890446e-06
9.1984933e-06
1.0240868e-05
1.1441907e-05
1.283393e-05
1.4457392e-05
1.6362869e-05
1.8613277e-05
2.1286698e-05
2.4480114e-05
2.8313845e-05
3.2936615e-05
3.8531991e-05
4.5325779e-05
5.3995834e-05
6.4170449e-05
7.6606894e-05
9.1835964e-05
0.00011051328
0.00013344635
0.00016162038
0.0001979766
0.00024066863
0.00029272045
0.00035569968
0.00043506676
0.00052438914
0.00062752871
0.00075131592
0.00088161862
0.0010242149
0.0011761119
0.0011764618
0.0011770259
0.0011777977
0.0011787974
0.001180049
0.0011815854
0.0011834507
0.0011857036
0.0011884163
0.0011916556
0.001195442
0.0011997051
0.0012043112
0.0012092233
0.0012145135
0.001219723
0.0012248938
0.0012298905
0.0012382523
0.0012488467
1.0938648e-07
3.9167831e-06
2.3279689e-06
2.8017642e-06
2.2945298e-06
2.1451136e-06
2.4069128e-06
2.1082358e-06
2.0918015e-06
2.0541822e-06
2.0688398e-06
2.1127483e-06
2.1940201e-06
2.305688e-06
2.4452339e-06
2.6118167e-06
2.8058645e-06
3.0266069e-06
3.2795807e-06
3.5662332e-06
3.8896093e-06
4.2533726e-06
4.6618779e-06
5.1203025e-06
5.634842e-06
6.2129576e-06
6.8563821e-06
7.5875844e-06
8.4152448e-06
9.356185e-06
1.0431489e-05
1.1667367e-05
1.3096643e-05
1.4760444e-05
1.6710423e-05
1.9011192e-05
2.1742928e-05
2.5004918e-05
2.8920533e-05
3.3642157e-05
3.9359269e-05
4.6642107e-05
5.5185156e-05
6.562844e-05
7.8431145e-05
9.4163633e-05
0.00011353478
0.00013741993
0.0001684315
0.0002050274
0.00024996592
0.0003048272
0.00037117251
0.00045458431
0.00054818041
0.00065597998
0.00078541743
0.00092225488
0.0010734754
0.0011781514
0.0011785838
0.001179199
0.0011799897
0.0011809707
0.0011821633
0.0011836001
0.0011853276
0.0011874081
0.0011899128
0.0011929016
0.0011963918
0.0012003423
0.0012047078
0.0012095821
0.0012151859
0.0012212931
0.0012278749
0.0012356165
0.0012437293
0.0012520476
1.0611872e-07
3.1664691e-06
2.0055162e-06
2.2614242e-06
1.9935128e-06
1.7790615e-06
1.9245619e-06
1.7391309e-06
1.7370515e-06
1.7482039e-06
1.7925912e-06
1.8737896e-06
1.985267e-06
2.1231245e-06
2.2864097e-06
2.4754545e-06
2.6902874e-06
2.9345603e-06
3.2101535e-06
3.5198004e-06
3.8667439e-06
4.2547505e-06
4.6882058e-06
5.1722695e-06
5.7131006e-06
6.3139964e-06
6.9901724e-06
7.7500396e-06
8.607206e-06
9.5786923e-06
1.0686026e-05
1.1955991e-05
1.34222e-05
1.5126793e-05
1.7122792e-05
1.947701e-05
2.227316e-05
2.5614177e-05
2.9629014e-05
3.4477226e-05
4.0623419e-05
4.7845788e-05
5.6674863e-05
6.750907e-05
8.0847492e-05
9.7316434e-05
0.00011769666
0.00014295453
0.00017583432
0.00021487095
0.00026296423
0.00032178904
0.00039296848
0.00048231297
0.00058258443
0.00069809175
0.0008370308
0.00098478182
0.0011493096
0.0011801708
0.0011806684
0.0011813112
0.0011821053
0.0011830594
0.0011841923
0.0011855365
0.0011871414
0.0011890678
0.0011913719
0.0011940881
0.0011972218
0.0012007724
0.001204813
0.0012095953
0.0012154687
0.0012223466
0.0012299043
0.0012387263
0.0012469579
0.0012507654
1.046931e-07
2.4832037e-06
1.7264564e-06
1.7438023e-06
1.7158572e-06
1.4656657e-06
1.5315731e-06
1.445132e-06
1.4731142e-06
1.5191305e-06
1.6015127e-06
1.7125343e-06
1.848772e-06
2.0087024e-06
2.1926458e-06
2.4017902e-06
2.6371391e-06
2.9021518e-06
3.1989325e-06
3.5303952e-06
3.8998582e-06
4.3111117e-06
4.768522e-06
5.2771955e-06
5.8432111e-06
6.473938e-06
7.1784455e-06
7.9679897e-06
8.8466871e-06
9.8476277e-06
1.0986065e-05
1.2289594e-05
1.379299e-05
1.5540005e-05
1.7585639e-05
2.0079894e-05
2.2971309e-05
2.6431404e-05
3.0597457e-05
3.5640939e-05
4.1776912e-05
4.9276212e-05
5.8482679e-05
6.983189e-05
8.3875299e-05
0.00010130927
0.00012300616
0.0001513574
0.00018530187
0.00022749109
0.000279671
0.00034367761
0.00042525973
0.00051860134
0.00062816639
0.00075462299
0.00090696342
0.0010698259
0.0011816939
0.0011820921
0.001182623
0.0011832796
0.0011840695
0.0011850009
0.0011860898
0.001187367
0.0011888798
0.0011906793
0.0011927952
0.0011952277
0.0011979772
0.0012011056
0.001204819
0.0012095137
0.00121563
0.0012231713
0.0012315424
0.0012392062
0.0012470216
0.0012457651
1.0618017e-07
1.9083122e-06
1.4943298e-06
1.347784e-06
1.432492e-06
1.202998e-06
1.2445918e-06
1.2298476e-06
1.289931e-06
1.3698517e-06
1.4801601e-06
1.6140005e-06
1.7700871e-06
1.9485459e-06
2.1505818e-06
2.3779093e-06
2.6322586e-06
2.9165705e-06
3.2332803e-06
3.58535e-06
3.9760987e-06
4.4092894e-06
4.8892467e-06
5.4210283e-06
6.0106661e-06
6.6654929e-06
7.3945758e-06
8.2092499e-06
9.1237725e-06
1.0156157e-05
1.1329164e-05
1.2671676e-05
1.4220242e-05
1.6021132e-05
1.8132758e-05
2.062864e-05
2.3601134e-05
2.716643e-05
3.1470442e-05
3.6697504e-05
4.3081395e-05
5.0918957e-05
6.0586173e-05
7.2565143e-05
8.7468641e-05
0.00010695265
0.00013042028
0.00015982741
0.00019666969
0.00024270925
0.00029992248
0.00037386067
0.00046019215
0.00056355163
0.00068521149
0.00083403663
0.00099566602
0.0011776714
0.0011833895
0.0011838395
0.0011843892
0.0011850492
0.0011858296
0.0011867405
0.0011878021
0.0011890476
0.0011905094
0.001192215
0.0011941585
0.001196309
0.0011986876
0.001201458
0.0012049417
0.0012096532
0.0012160289
0.0012239764
0.0012325963
0.0012390257
0.001242891
0.0012381034
1.1174231e-07
1.4362218e-06
1.3061547e-06
1.0587822e-06
1.277238e-06
9.8553382e-07
1.0500242e-06
1.087183e-06
1.1736459e-06
1.2806234e-06
1.4113486e-06
1.5627546e-06
1.7352082e-06
1.929804e-06
2.1482001e-06
2.3923294e-06
2.6643754e-06
2.9665746e-06
3.3018387e-06
3.6730167e-06
4.083402e-06
4.5367258e-06
5.0372819e-06
5.5901055e-06
6.2012211e-06
6.877978e-06
7.6294971e-06
8.4672776e-06
9.4058552e-06
1.0463726e-05
1.1664371e-05
1.3037803e-05
1.4622223e-05
1.6466249e-05
1.8631504e-05
2.1195862e-05
2.4257444e-05
2.7939902e-05
3.2399512e-05
3.7834757e-05
4.4801682e-05
5.3086597e-05
6.3353627e-05
7.6140277e-05
9.2134754e-05
0.00011221682
0.00013750321
0.00016939194
0.00020959036
0.00026255591
0.00032619325
0.00040494738
0.00050115643
0.00061683789
0.00076086339
0.0009206474
0.0011029884
0.0011844853
0.001184858
0.0011853445
0.0011859228
0.0011865927
0.0011873697
0.0011882684
0.0011893137
0.001190543
0.0011919809
0.0011936179
0.0011954063
0.0011972975
0.0011993583
0.0012019138
0.0012053545
0.0012102348
0.0012168518
0.0012248
0.0012327493
0.0012372989
0.0012362295
0.0012287323
1.2200912e-07
1.1257127e-06
1.1445219e-06
9.2002616e-07
9.3261768e-07
8.6083751e-07
9.2224345e-07
1.0008904e-06
1.1076967e-06
1.2337131e-06
1.3797459e-06
1.5455399e-06
1.7322597e-06
1.9413609e-06
2.1746132e-06
2.4339738e-06
2.7216108e-06
3.0399113e-06
3.3915185e-06
3.7793711e-06
4.206768e-06
4.6774581e-06
5.1957721e-06
5.7668137e-06
6.3967252e-06
7.0905741e-06
7.8612661e-06
8.718966e-06
9.6870705e-06
1.0771393e-05
1.2002223e-05
1.3411108e-05
1.5038346e-05
1.6935349e-05
1.9167444e-05
2.1817351e-05
2.4989672e-05
2.8816895e-05
3.3467509e-05
3.9156962e-05
4.6162044e-05
5.483949e-05
6.5649733e-05
7.9185595e-05
9.6215243e-05
0.00011772782
0.00014627883
0.00018115914
0.00022542049
0.00028143856
0.00035191677
0.00043973547
0.0005476983
0.00068468425
0.00084072984
0.0010222965
0.0011853395
0.0011855947
0.0011859772
0.0011864878
0.0011871326
0.0011878636
0.0011886668
0.0011895836
0.0011906397
0.0011918582
0.0011932533
0.0011948055
0.0011964553
0.0011981516
0.0012000158
0.0012025167
0.0012061194
0.0012112774
0.0012179891
0.0012254333
0.0012314528
0.0012335124
0.0012283402
0.0012188566
1.4319667e-07
1.1658312e-06
9.847556e-07
7.0113289e-07
7.6087639e-07
7.6858914e-07
8.5138582e-07
9.5244638e-07
1.0752618e-06
1.2155996e-06
1.3745512e-06
1.5529728e-06
1.7522851e-06
1.9740238e-06
2.2199487e-06
2.4920007e-06
2.7923305e-06
3.1233173e-06
3.487602e-06
3.8881263e-06
4.3281938e-06
4.8115586e-06
5.3425582e-06
5.9263072e-06
6.5689692e-06
7.2781276e-06
8.0632696e-06
8.9364117e-06
9.9129116e-06
1.1012483e-05
1.2260481e-05
1.3689583e-05
1.5341747e-05
1.7270677e-05
1.9544775e-05
2.2250905e-05
2.5499332e-05
2.9430407e-05
3.4223647e-05
4.0109899e-05
4.7387458e-05
5.6845721e-05
6.8270221e-05
8.2648123e-05
0.00010083886
0.00012396003
0.00015345886
0.00019118626
0.00023946098
0.00030109353
0.00037933775
0.00048211611
0.00060496474
0.00075452057
0.00093289516
0.0011409578
0.001186023
0.0011863316
0.0011867427
0.001187255
0.0011878703
0.0011885995
0.0011894409
0.0011904018
0.0011915017
0.0011927444
0.0011941024
0.0011955416
0.0011971187
0.0011987939
0.0012007149
0.0012032834
0.0012071064
0.0012125278
0.0012191899
0.0012256979
0.0012297813
0.0012286428
0.0012202608
0.0012096995
1.3660889e-07
7.7361282e-07
8.067111e-07
5.9747911e-07
6.5443122e-07
7.1427768e-07
8.1530644e-07
9.3283916e-07
1.0683955e-06
1.2209301e-06
1.3916136e-06
1.5815599e-06
1.7921918e-06
2.0250789e-06
2.2819836e-06
2.5648613e-06
2.8758822e-06
3.2174087e-06
3.5921607e-06
4.0030773e-06
4.4534808e-06
4.9471457e-06
5.4884332e-06
6.0824889e-06
6.7355187e-06
7.4551665e-06
8.2510066e-06
9.1351979e-06
1.0131445e-05
1.1247231e-05
1.2514206e-05
1.3966231e-05
1.5646833e-05
1.7611799e-05
1.993228e-05
2.2698857e-05
2.6026926e-05
3.0064084e-05
3.5000166e-05
4.108065e-05
4.8624342e-05
5.804661e-05
6.989031e-05
8.4869327e-05
0.00010392255
0.00012828645
0.00015958239
0.00020166745
0.00025410747
0.00032166662
0.00040827318
0.00051824781
0.00065589922
0.00082493463
0.0010277824
0.0011859579
0.0011861628
0.0011864922
0.0011869219
0.0011874446
0.0011880608
0.0011888338
0.0011897813
0.0011908734
0.001192089
0.0011934001
0.0011947878
0.0011962534
0.0011978055
0.0011994663
0.0012014314
0.0012042339
0.0012083388