/*--------------------------------*- C++ -*----------------------------------*\
  =========                 |
  \\      /  F ield         | OpenFOAM: The Open Source CFD Toolbox
   \\    /   O peration     | Website:  https://openfoam.org
    \\  /    A nd           | Version:  12
     \\/     M anipulation  |
\*---------------------------------------------------------------------------*/
FoamFile
{
    format      ascii;
    class       volScalarField;
    location    "0.01";
    object      Ma;
}
// * * * * * * * * * * * * * * * * * * * * * * * * * * * * * * * * * * * * * //

dimensions      [];

internalField   nonuniform List<scalar> 
16000
(
0.61649864
0.73662078
0.69150393
0.71619902
0.70139095
0.70829371
0.70269234
0.70419745
0.70162257
0.70117847
0.69957388
0.69845009
0.69704306
0.69566658
0.69420527
0.69269555
0.69112702
0.68950198
0.68781998
0.68608126
0.6842861
0.682435
0.6805286
0.67856775
0.67655348
0.67448705
0.67236993
0.67020385
0.66799077
0.66573296
0.66343298
0.66109375
0.65871855
0.65631109
0.65387556
0.65141663
0.64893945
0.6464497
0.64395347
0.64145721
0.6389676
0.63649141
0.63403533
0.63160587
0.62920917
0.62685102
0.62453684
0.62227165
0.62006011
0.61790655
0.61581497
0.61378905
0.61183221
0.60994762
0.60813829
0.60640724
0.60475763
0.60319313
0.60171853
0.60034019
0.59906653
0.59790816
0.59687765
0.59598978
0.59526045
0.59470547
0.59433753
0.5941513
0.59414026
0.59430561
0.59459631
0.59495675
0.59531501
0.59558485
0.59586735
0.59533892
0.59690852
0.59600013
0.59536573
0.60101452
0.62141268
0.74206255
0.69535158
0.72108072
0.70547033
0.71282111
0.70678198
0.708403
0.70564658
0.70512755
0.70344062
0.7022034
0.7007076
0.69921909
0.69765111
0.69602643
0.69434001
0.69259246
0.69078393
0.6889147
0.68698532
0.68499655
0.68294938
0.68084508
0.67868516
0.67647142
0.67420595
0.67189114
0.66952969
0.66712462
0.66467931
0.66219749
0.65968326
0.65714112
0.65457602
0.6519933
0.64939876
0.64679861
0.64419944
0.64160813
0.63903173
0.63647734
0.63395188
0.63146201
0.62901392
0.62661331
0.62426538
0.62197477
0.61974565
0.61758173
0.61548626
0.61346212
0.61151175
0.60963725
0.60784044
0.60612297
0.60448652
0.60293319
0.60146615
0.60009022
0.59881263
0.59764343
0.59659527
0.59568428
0.59492949
0.59435259
0.59397521
0.59380152
0.59383946
0.59410221
0.59456967
0.59521492
0.5959964
0.59685444
0.59758515
0.59810546
0.59935407
0.59819563
0.59856993
0.60071566
0.62596931
0.74699527
0.69906836
0.72529301
0.7092328
0.71668408
0.71048842
0.71200722
0.7091822
0.70850651
0.7067531
0.70537934
0.70378088
0.70216699
0.70047584
0.69872142
0.69690122
0.69501559
0.69306487
0.69104967
0.68897083
0.68682949
0.68462709
0.68236538
0.68004647
0.67767281
0.67524719
0.6727728
0.6702532
0.66769231
0.66509447
0.66246436
0.65980706
0.65712802
0.65443307
0.6517284
0.64902054
0.64631637
0.64362302
0.6409478
0.63829812
0.63568129
0.63310434
0.63057388
0.62809599
0.62567608
0.62331895
0.62102871
0.61880886
0.6166623
0.6145914
0.61259798
0.61068343
0.60884863
0.60709409
0.60542004
0.60382664
0.60231442
0.60088482
0.59954074
0.59828817
0.59713721
0.59610079
0.59519654
0.59444691
0.59387884
0.59353244
0.59340781
0.59355909
0.59399318
0.59471954
0.59572828
0.59697728
0.59833956
0.59955298
0.6006753
0.60164637
0.60041823
0.60110333
0.60059377
0.6300459
0.75140439
0.7021917
0.72885413
0.71241708
0.71996615
0.71361762
0.71500907
0.71211044
0.71126457
0.70942829
0.70790219
0.7061832
0.70442821
0.70259694
0.7006966
0.69872659
0.69668716
0.69457898
0.69240294
0.69016026
0.68785256
0.68548179
0.68305034
0.68056101
0.67801705
0.67542217
0.6727805
0.67009664
0.66737562
0.66462286
0.66184421
0.65904585
0.65623431
0.65341639
0.65059919
0.64779003
0.6449964
0.64222594
0.63948632
0.63678511
0.63412963
0.63152678
0.6289829
0.62650363
0.62409386
0.62175772
0.61949854
0.61731892
0.61522077
0.61320532
0.61127328
0.60942477
0.60765945
0.60597657
0.6043751
0.60285397
0.60141256
0.60005069
0.59876926
0.59757389
0.59647627
0.59548987
0.59463398
0.59393475
0.59342817
0.59317392
0.59315176
0.59346724
0.5941248
0.59514789
0.59652
0.59817365
0.59990404
0.60144687
0.60278065
0.60347434
0.60225233
0.60313425
0.6005009
0.63361304
0.75521664
0.70494797
0.73173857
0.71487399
0.72256682
0.71611148
0.71730578
0.7143626
0.71332092
0.71139263
0.70969751
0.70784044
0.70592964
0.70394199
0.70188022
0.69974476
0.69753597
0.69525483
0.69290262
0.69048106
0.68799237
0.68543921
0.6828248
0.68015288
0.67742774
0.67465421
0.67183766
0.66898397
0.66609946
0.66319092
0.6602655
0.65733065
0.65439408
0.65146369
0.64854749
0.64565357
0.64278999
0.63996475
0.63718567
0.63446026
0.63179556
0.62919802
0.62667336
0.6242265
0.62186147
0.61958146
0.61738877
0.61528489
0.61327054
0.61134577
0.60951
0.60776218
0.6061008
0.60452403
0.60302994
0.60161676
0.60028334
0.59902827
0.59785087
0.59675724
0.59576146
0.59487676
0.59412359
0.59353299
0.59315551
0.59298764
0.59316921
0.59367163
0.59456331
0.59584706
0.5974877
0.59938009
0.60126915
0.60291164
0.60416796
0.60447506
0.60344566
0.60456382
0.60041299
0.63665099
0.75837588
0.70716199
0.73409138
0.71693698
0.72444908
0.71786142
0.71887367
0.71586696
0.7146345
0.712605
0.71073055
0.70871952
0.70663963
0.70447988
0.70224073
0.69992314
0.6975279
0.69505649
0.69251082
0.68989341
0.68720733
0.6844563
0.68164466
0.67877743
0.67586025
0.67289941
0.6699018
0.66687485
0.66382648
0.660765
0.65769906
0.6546375
0.65158926
0.64856332
0.64556856
0.64261366
0.63970709
0.63685694
0.63407085
0.63135589
0.62871846
0.62616416
0.62369772
0.62132294
0.61904269
0.61685892
0.61477266
0.61278411
0.61089269
0.6090972
0.60739587
0.60578654
0.60426675
0.60283391
0.60148552
0.60021965
0.59903509
0.59793043
0.59690447
0.59596238
0.5951219
0.59439324
0.59379782
0.59336797
0.59313379
0.59317775
0.59350796
0.59419245
0.59525359
0.59667084
0.59840322
0.6003017
0.60210908
0.60364287
0.60475989
0.60476941
0.60391759
0.60546955
0.60024065
0.63917731
0.76090019
0.70887532
0.73591083
0.71849646
0.72564097
0.71915107
0.71981078
0.71678274
0.7152312
0.71308309
0.71101577
0.7088292
0.70656091
0.70420754
0.70176907
0.699247
0.69664286
0.69395897
0.69119821
0.68836421
0.6854613
0.68249461
0.67946999
0.6763941
0.67327433
0.67011877
0.66693614
0.66373573
0.66052726
0.65732076
0.65412645
0.65095458
0.64781531
0.6447185
0.6416737
0.63868993
0.63577565
0.63293864
0.63018591
0.62752364
0.62495709
0.62249057
0.6201274
0.61786989
0.61571939
0.61367634
0.61174032
0.60991011
0.60818382
0.606559
0.60503284
0.60360227
0.60226418
0.60101548
0.59985346
0.59877619
0.59778224
0.59687205
0.59604465
0.59530095
0.59466487
0.59413744
0.59374084
0.59350693
0.59346736
0.59365744
0.59413094
0.59490395
0.59600253
0.59737748
0.59898227
0.60064941
0.60217042
0.6034245
0.60425747
0.60408917
0.6037347
0.60592179
0.59978928
0.64126815
0.7628495
0.71014649
0.73724888
0.71958503
0.72650673
0.71980856
0.71993512
0.71693255
0.7151557
0.71285401
0.71056989
0.70817617
0.7056907
0.70311409
0.70044692
0.6976914
0.6948501
0.69192653
0.68892489
0.68585037
0.68270894
0.67950759
0.67625411
0.67295725
0.66962652
0.66627218
0.66290511
0.65953669
0.65617858
0.65284262
0.64954057
0.64628396
0.64308387
0.63995079
0.63689449
0.63392383
0.63104672
0.62827006
0.62559965
0.6230402
0.62059531
0.61826748
0.61605817
0.61396782
0.61199597
0.61014133
0.60840189
0.60677497
0.60525741
0.60384562
0.60253588
0.60132448
0.60020783
0.59918265
0.59824622
0.5973962
0.59663065
0.5959519
0.59536016
0.59485331
0.59445142
0.59414784
0.59396342
0.59391802
0.59403078
0.59432781
0.59484594
0.59559242
0.59654733
0.59769789
0.59897212
0.60023049
0.60133785
0.60225657
0.60282799
0.60262329
0.60300084
0.6058385
0.598793
0.64302252
0.76428089
0.7109632
0.73811457
0.72003023
0.72622294
0.71970437
0.71955872
0.71649114
0.71439438
0.71189705
0.70936561
0.70672725
0.70398919
0.70115388
0.69822314
0.69520034
0.69208944
0.68889565
0.68562494
0.68228456
0.67888266
0.67542858
0.6719326
0.66840598
0.6648608
0.66130985
0.65776642
0.6542441
0.65075654
0.64731727
0.64393935
0.64063523
0.63741647
0.6342936
0.63127592
0.62837144
0.6255868
0.62292724
0.62039665
0.61799762
0.61573149
0.61359846
0.6115977
0.60972744
0.60798515
0.60636771
0.60487145
0.60349229
0.60222584
0.60106755
0.60001293
0.59905772
0.59819797
0.59743019
0.59675145
0.59615849
0.59564963
0.59522496
0.59488782
0.59463782
0.59446441
0.59437384
0.59437597
0.59447461
0.59468056
0.59499709
0.59542253
0.59598777
0.59664932
0.59741861
0.59822985
0.59899316
0.59964884
0.60021498
0.60052992
0.60047726
0.60176256
0.6049463
0.59713061
0.64447982
0.76521272
0.71133278
0.73828883
0.71985598
0.72561493
0.71914741
0.71848066
0.71532101
0.71289125
0.71014788
0.70733243
0.7044073
0.70137593
0.69824187
0.69500865
0.69168137
0.68826593
0.68476976
0.6812013
0.67757046
0.67388824
0.67016699
0.66641999
0.66266161
0.65890684
0.6551713
0.65147077
0.64782106
0.6442376
0.6407352
0.63732774
0.63402791
0.63084695
0.62779453
0.62487856
0.62210522
0.6194789
0.61700234
0.6146767
0.61250176
0.61047602
0.60859691
0.60686095
0.60526398
0.6038013
0.6024679
0.6012585
0.60016769
0.59918998
0.59831995
0.59755241
0.59688248
0.59630567
0.59581786
0.59541529
0.59509403
0.59485137
0.59468264
0.59458905
0.59456882
0.59459384
0.59467534
0.5948016
0.59496196
0.59515649
0.59540219
0.59563328
0.59587432
0.59615015
0.59644712
0.59675203
0.59702006
0.59725312
0.59748629
0.59757619
0.59780359
0.60008331
0.60332893
0.5946823
0.64561244
0.76557545
0.71121476
0.73716426
0.7190225
0.72423683
0.71787326
0.71665249
0.71334826
0.71055058
0.70750554
0.70436241
0.70110378
0.69773351
0.69425641
0.69067824
0.68700655
0.68324993
0.6794189
0.67552518
0.67158224
0.66760473
0.66360871
0.65961116
0.65562992
0.65168324
0.64778958
0.64396712
0.6402335
0.63660538
0.6330981
0.62972538
0.62649903
0.62342878
0.62052215
0.61778441
0.61521868
0.61282603
0.61060571
0.6085554
0.6066714
0.60494895
0.60338239
0.60196547
0.60069154
0.59955382
0.59854551
0.59765984
0.59689014
0.59622991
0.59567287
0.59521301
0.59484464
0.59456226
0.59436045
0.5942338
0.59417715
0.59418383
0.59424646
0.5943551
0.59449897
0.59467253
0.59486024
0.59503399
0.5951806
0.59527281
0.59528636
0.59525477
0.59515244
0.59499504
0.59482311
0.59465557
0.59448942
0.59435411
0.59426735
0.59414956
0.5947596
0.5980511
0.60098213
0.59145958
0.64634757
0.76524134
0.71050909
0.73538204
0.71765122
0.72206618
0.71578728
0.7139669
0.71044606
0.70724634
0.70383916
0.70031664
0.69667155
0.69291049
0.68904052
0.68507054
0.68101162
0.67687621
0.67267908
0.66843636
0.66416611
0.65988752
0.65562111
0.65138799
0.64720975
0.64310786
0.63910331
0.63521608
0.63146476
0.62786605
0.62443445
0.62118192
0.61811776
0.61524845
0.61257774
0.61010675
0.60783423
0.60575686
0.60386958
0.60216596
0.60063848
0.59927889
0.59807843
0.59702817
0.5961192
0.59534286
0.59469075
0.59415479
0.59372715
0.59340031
0.59316701
0.59302021
0.59295295
0.59295819
0.5930286
0.59315627
0.59333251
0.59354776
0.59379078
0.59404777
0.59430034
0.59452967
0.59472076
0.59484554
0.59488054
0.59480499
0.59460077
0.59426197
0.59380611
0.59326683
0.59268964
0.5921279
0.59160905
0.59115952
0.59076151
0.5904646
0.59151226
0.59565279
0.59790511
0.58772181
0.64662771
0.76414546
0.70908191
0.7330656
0.71557037
0.71899896
0.71276722
0.71030212
0.70647846
0.7028274
0.69898786
0.69502163
0.69092683
0.68671418
0.68239461
0.67798156
0.67349115
0.66894126
0.66435227
0.65974605
0.65514626
0.65057744
0.64606502
0.64163439
0.63731068
0.63311793
0.62907865
0.62521319
0.6215393
0.61807166
0.6148217
0.61179736
0.60900317
0.60644036
0.6041071
0.60199891
0.60010908
0.59842912
0.59694922
0.59565865
0.59454612
0.5936001
0.59280905
0.59216174
0.59164743
0.59125589
0.59097745
0.59080287
0.59072324
0.59072996
0.59081462
0.59096882
0.59118395
0.59145091
0.59175991
0.59210023
0.59245994
0.59282559
0.59318204
0.59351089
0.59379431
0.59401452
0.59413802
0.59415001
0.59402294
0.5937409
0.59329677
0.59269363
0.59195204
0.59111274
0.59022987
0.58936327
0.58856688
0.58785008
0.5871614
0.5867318
0.58817568
0.59281468
0.59419792
0.58365477
0.6464329
0.76219717
0.7068395
0.72975137
0.71257971
0.71492136
0.70865919
0.70549999
0.70126501
0.69709313
0.69273817
0.68824953
0.68363023
0.67889673
0.67406606
0.66915825
0.66419642
0.65920563
0.65421335
0.64924837
0.64434076
0.63952086
0.6348189
0.63026398
0.62588355
0.62170243
0.61774237
0.61402134
0.61055324
0.60734767
0.60440994
0.60174122
0.59933888
0.59719692
0.59530654
0.59365669
0.59223471
0.59102683
0.59001867
0.58919561
0.58854313
0.58804702
0.58769366
0.58747016
0.58736444
0.58736518
0.58746171
0.58764381
0.58790156
0.58822524
0.58860511
0.58903119
0.58949299
0.58997925
0.59047776
0.59097521
0.59145699
0.59190715
0.59230874
0.59264324
0.59288946
0.59302881
0.59303786
0.59289999
0.59260059
0.59212982
0.591486
0.59067952
0.58973609
0.58869644
0.58760921
0.58652694
0.58551178
0.58456315
0.58362042
0.58309458
0.5847921
0.58950956
0.58996056
0.5795203
0.64569946
0.75922147
0.70368265
0.72537968
0.70853279
0.70965116
0.70325188
0.69933321
0.69456106
0.68977467
0.68480526
0.67970146
0.67447379
0.66914685
0.66374643
0.65830152
0.65284426
0.6474086
0.64203046
0.6367464
0.63159313
0.62660623
0.62181939
0.61726318
0.6129643
0.60894473
0.60522132
0.60180544
0.59870306
0.59591492
0.59343702
0.59126121
0.58937587
0.58776664
0.58641724
0.58531009
0.58442701
0.58374967
0.58326003
0.58294058
0.58277456
0.58274608
0.58284029
0.58304338
0.58334256
0.58372582
0.58418179
0.58469942
0.58526788
0.58587634
0.58651374
0.58716854
0.58782854
0.58848068
0.58911099
0.58970453
0.59024551
0.59071741
0.59110327
0.59138581
0.59154763
0.59157277
0.59144727
0.5911613
0.59070783
0.59008525
0.58929914
0.58836445
0.58730637
0.58615779
0.58495399
0.58373482
0.58255078
0.58140593
0.58025984
0.57964314
0.5813664
0.58576349
0.58531244
0.57563824
0.6443473
0.75496463
0.69957882
0.71972881
0.7031987
0.70295107
0.69626337
0.69149045
0.68603221
0.68051224
0.67481561
0.66899692
0.66307804
0.65709431
0.65108304
0.64508469
0.6391425
0.63330096
0.62760522
0.62209928
0.616825
0.61182035
0.6071184
0.60274616
0.59872397
0.59506509
0.59177586
0.58885596
0.58629915
0.58409403
0.58222505
0.58067341
0.57941809
0.5784367
0.57770628
0.57720396
0.57690747
0.57679546
0.57684769
0.57704517
0.57737017
0.57780626
0.57833828
0.57895224
0.57963515
0.58037473
0.58115912
0.58197668
0.5828158
0.5836647
0.58451125
0.58534276
0.5861459
0.5869067
0.58761058
0.58824254
0.58878739
0.5892301
0.58955623
0.58975245
0.58980711
0.58971102
0.58945804
0.58904524
0.58847344
0.58774803
0.58687972
0.58588465
0.58478288
0.58359494
0.58234064
0.58104756
0.57975238
0.57845951
0.57716927
0.57643977
0.57791233
0.58164098
0.58050678
0.57215048
0.64230626
0.74904919
0.69464568
0.71253811
0.69626096
0.69446283
0.6872888
0.68153564
0.67522841
0.66884349
0.66230649
0.65568193
0.64900727
0.64233225
0.63570915
0.62919287
0.62283962
0.61670468
0.61084076
0.60529569
0.60011088
0.5953197
0.59094673
0.58700723
0.58350739
0.58044489
0.57780987
0.57558615
0.57375254
0.57228416
0.57115371
0.57033256
0.56979175
0.5695028
0.56943827
0.56957222
0.56988045
0.57034054
0.57093185
0.57163541
0.57243382
0.57331113
0.57425271
0.57524499
0.57627521
0.57733111
0.57840063
0.57947175
0.58053237
0.58157012
0.58257232
0.58352583
0.58441717
0.58523267
0.58595861
0.58658158
0.58708883
0.58746874
0.5877113
0.58780865
0.58775548
0.58754935
0.58719081
0.58668345
0.58603407
0.58525274
0.5843522
0.58334626
0.58224705
0.58106303
0.57980274
0.57848697
0.57714559
0.57577247
0.57439041
0.57351157
0.57447857
0.57724658
0.57579241
0.56912715
0.63945058
0.74073572
0.68809814
0.70333678
0.68723793
0.68367685
0.67578836
0.66891587
0.66159844
0.65422031
0.64674488
0.63925154
0.6317999
0.62445953
0.61730147
0.61039637
0.60381172
0.59760872
0.59183986
0.58654682
0.58175934
0.57749471
0.57375815
0.57054382
0.56783629
0.56561234
0.56384277
0.5624943
0.56153118
0.56091665
0.56061414
0.56058819
0.56080511
0.5612335
0.56184446
0.56261172
0.5635115
0.56452233
0.56562479
0.56680128
0.56803578
0.56931363
0.5706213
0.57194608
0.57327575
0.57459829
0.57590172
0.57717399
0.57840289
0.57957604
0.5806809
0.58170483
0.58263531
0.58346023
0.58416814
0.58474865
0.58519282
0.5854936
0.58564621
0.58564842
0.5855007
0.58520616
0.58477056
0.58420208
0.58351122
0.58270996
0.58181009
0.58082056
0.57974545
0.57858561
0.57734713
0.5760527
0.57472855
0.57335301
0.57192412
0.57084693
0.57110619
0.5726655
0.57139617
0.56672455
0.63547416
0.72958706
0.67947275
0.69150491
0.67550551
0.66999002
0.66112338
0.65297707
0.64449413
0.63601188
0.62754029
0.6191826
0.61102735
0.60316723
0.59569015
0.58867579
0.58219169
0.57629051
0.57100831
0.56636425
0.56236123
0.55898759
0.55621944
0.5540232
0.55235839
0.55118007
0.55044116
0.55009423
0.55009295
0.55039322
0.55095383
0.5517369
0.55270817
0.55383693
0.55509594
0.5564611
0.55791112
0.55942707
0.560992
0.56259059
0.56420888
0.565834
0.56745385
0.56905678
0.57063132
0.57216594
0.57364905
0.57506894
0.57641385
0.57767201
0.57883185
0.57988215
0.5808124
0.58161311
0.58227611
0.58279491
0.58316504
0.5833843
0.58345292
0.58337355
0.58315112
0.58279267
0.5823072
0.58170541
0.58099911
0.58019964
0.5793154
0.57834959
0.57730092
0.57617029
0.57497177
0.5737371
0.57248614
0.57116228
0.56969615
0.56836247
0.56781738
0.56800715
0.56702992
0.56506852
0.6299386
0.71738461
0.66818434
0.67643175
0.66032198
0.6526599
0.64250324
0.63290825
0.62313749
0.61351241
0.60410231
0.59503996
0.58644035
0.57840955
0.57103587
0.56438664
0.55850586
0.55341397
0.54910932
0.5455709
0.54276191
0.54063374
0.5391298
0.53818911
0.53774927
0.53774885
0.53812908
0.53883511
0.53981666
0.54102838
0.54242989
0.54398564
0.54566464
0.54744006
0.54928875
0.55119067
0.55312834
0.55508633
0.55705082
0.55900925
0.56095002
0.56286218
0.56473517
0.56655851
0.56832158
0.57001362
0.57162373
0.57314102
0.57455469
0.57585427
0.57702988
0.57807252
0.57897443
0.5797294
0.58033304
0.58078302
0.58107927
0.58122396
0.58122143
0.5810779
0.58080121
0.58040061
0.57988662
0.57927059
0.57856352
0.5777739
0.57690527
0.57595623
0.57492575
0.57382377
0.57267952
0.57153198
0.57038117
0.56911319
0.567563
0.5658727
0.56454856
0.56356126
0.56269609
0.56481527
0.62249587
0.70106713
0.65339472
0.65722779
0.64063403
0.63061178
0.61887618
0.60772269
0.59668774
0.58608831
0.57604979
0.56672163
0.55822023
0.5506335
0.54401527
0.53838632
0.53373667
0.53003039
0.52721108
0.52520797
0.52394154
0.52332849
0.52328575
0.52373344
0.52459695
0.52580813
0.52730589
0.52903624
0.53095211
0.53301285
0.5351837
0.53743516
0.53974234
0.54208433
0.54444345
0.54680462
0.54915476
0.55148222
0.55377644
0.55602764
0.55822654
0.56036407
0.56243113
0.5644184
0.5663163
0.56811502
0.56980472
0.57137573
0.57281874
0.57412512
0.57528724
0.57629881
0.5771552
0.5778537
0.57839367
0.57877664
0.57900629
0.57908819
0.57902953
0.57883868
0.57852495
0.57809849
0.57756998
0.57694987
0.57624653
0.57546393
0.57460088
0.57365509
0.57263319
0.57156141
0.57048309
0.56942939
0.56835807
0.56708769
0.56536062
0.5631902
0.56113692
0.55967251
0.5593661
0.56547212
0.61250983
0.67978409
0.63370352
0.63245445
0.6149478
0.60243746
0.58904779
0.5764937
0.56455913
0.55353887
0.54357341
0.53478344
0.52723485
0.52094711
0.51589585
0.51202128
0.50923694
0.50743909
0.50651504
0.50635017
0.50683328
0.50786021
0.50933614
0.51117661
0.51330776
0.5156659
0.51819682
0.52085477
0.52360153
0.52640539
0.52924023
0.53208468
0.53492128
0.53773574
0.54051622
0.54325261
0.54593605
0.54855848
0.55111234
0.55359035
0.55598528
0.55828974
0.56049597
0.56259582
0.56458082
0.56644237
0.56817199
0.56976157
0.57120368
0.57249189
0.57362113
0.57458801
0.57539104
0.57603081
0.57651001
0.57683332
0.57700717
0.57703937
0.57693863
0.57671427
0.57637604
0.57593405
0.57539819
0.57477666
0.57407368
0.57328827
0.57241683
0.5714621
0.57044532
0.56941025
0.56840262
0.56742114
0.56635783
0.56496763
0.56296317
0.56032326
0.55766328
0.55633001
0.55786624
0.56620405
0.59879227
0.6513756
0.60717129
0.6003368
0.5816335
0.56674463
0.55211134
0.53884789
0.52691745
0.51653573
0.50777494
0.50065285
0.49512019
0.49107904
0.48839589
0.48691693
0.48648052
0.48692738
0.48810752
0.48988465
0.49213822
0.49476397
0.49767328
0.50079192
0.50405845
0.50742252
0.51084324
0.5142876
0.51772924
0.52114721
0.52452504
0.52784984
0.53111152
0.53430209
0.53741497
0.54044446
0.54338533
0.54623253
0.54898103
0.55162564
0.55416082
0.55658057
0.55887836
0.56104719
0.56307982
0.56496902
0.56670787
0.56829009
0.56971032
0.5709645
0.57205019
0.57296677
0.57371564
0.57430022
0.57472585
0.57499945
0.57512915
0.57512379
0.57499256
0.57474487
0.57439032
0.5739384
0.57339727
0.57277165
0.57206093
0.57126051
0.57036904
0.56940073
0.56839454
0.56740444
0.56645767
0.56549469
0.56433343
0.56268683
0.56030367
0.55735814
0.55468695
0.55371159
0.55754776
0.56752166
0.57939665
0.61348994
0.57158752
0.55905974
0.53963908
0.52282074
0.50808631
0.4955298
0.48511682
0.47689058
0.47075404
0.46654877
0.46406497
0.46307032
0.46332866
0.46461526
0.46672573
0.46948075
0.4727272
0.47633717
0.48020567
0.4842477
0.48839537
0.49259495
0.49680438
0.50099104
0.50512988
0.50920186
0.51319275
0.51709209
0.52089237
0.5245883
0.52817616
0.53165318
0.53501709
0.53826567
0.54139653
0.544407
0.54729397
0.55005386
0.55268249
0.55517499
0.55752593
0.55972945
0.5617796
0.56367059
0.5653972
0.56695503
0.56834084
0.56955292
0.57059125
0.57145776
0.57215628
0.57269248
0.57307359
0.57330788
0.57340422
0.57337158
0.57321892
0.5729553
0.57258983
0.57213081
0.57158375
0.57094897
0.57022146
0.56939625
0.56847995
0.56750271
0.56651782
0.56557394
0.56465682
0.56363098
0.56224918
0.5602465
0.55747608
0.55430454
0.55216219
0.55237112
0.55804898
0.56906237
0.55168652
0.56362776
0.52556031
0.5072718
0.4867615
0.47139945
0.45853173
0.44875413
0.44180154
0.43743198
0.43530028
0.43504469
0.43630924
0.43876936
0.44214218
0.44619023
0.45071951
0.45557492
0.46063464
0.46580437
0.47101205
0.47620335
0.48133786
0.48638598
0.49132641
0.49614426
0.50082945
0.50537555
0.5097789
0.51403786
0.51815226
0.52212284
0.52595079
0.52963732
0.53318328
0.53658901
0.53985419
0.54297782
0.54595823
0.548793
0.55147896
0.55401218
0.5563882
0.55860226
0.56064966
0.56252607
0.56422788
0.56575252
0.56709877
0.568267
0.56925939
0.57007997
0.57073457
0.57123056
0.57157638
0.57178098
0.57185328
0.57180185
0.57163512
0.57136157
0.5709895
0.57052535
0.56997108
0.5693224
0.56857165
0.5677177
0.56678001
0.56580546
0.56485206
0.56394262
0.56300334
0.56182524
0.56011373
0.55768798
0.55469499
0.55166091
0.55000934
0.55217596
0.55928667
0.57056591
0.51157007
0.49917301
0.46210137
0.44430116
0.42697642
0.41487111
0.40665012
0.40210024
0.40056863
0.40147116
0.40424086
0.40839265
0.41352607
0.41932448
0.42554398
0.43200096
0.43855963
0.44512123
0.45161515
0.45799189
0.46421767
0.47027029
0.47613605
0.48180734
0.48728099
0.4925569
0.4976371
0.50252509
0.50722533
0.51174282
0.51608278
0.52025029
0.52424999
0.5280858
0.53176069
0.5352767
0.53863488
0.54183538
0.54487746
0.54775953
0.55047911
0.55303305
0.55541771
0.55762931
0.55966428
0.56151961
0.56319312
0.56468385
0.56599226
0.56712052
0.56807259
0.56885426
0.56947291
0.56993717
0.57025628
0.57043948
0.57049546
0.57043225
0.57025763
0.56997931
0.56960421
0.56913619
0.56857331
0.56790772
0.56713199
0.5662526
0.56530344
0.56434409
0.5634261
0.56252851
0.56150093
0.5600784
0.5579971
0.55518995
0.55207128
0.54963167
0.54875857
0.55259909
0.56103603
0.57181229
0.45018538
0.41774052
0.38813227
0.37336477
0.36259924
0.35786075
0.35735248
0.36015773
0.36528741
0.37198409
0.37966424
0.38790502
0.3964074
0.40496555
0.41344091
0.42174268
0.42981346
0.43761895
0.44514078
0.45237135
0.45931035
0.46596223
0.47233451
0.47843652
0.48427854
0.48987127
0.49522541
0.5003514
0.50525929
0.50995859
0.51445808
0.51876566
0.52288817
0.52683116
0.53059893
0.53419451
0.53761977
0.54087555
0.54396167
0.54687702
0.54961963
0.55218687
0.55457576
0.55678331
0.55880685
0.56064441
0.56229496
0.56375874
0.56503754
0.56613486
0.56705603
0.56780816
0.56839984
0.56884068
0.56914058
0.56930899
0.56935448
0.56928469
0.56910671
0.56882699
0.56845024
0.56797707
0.56740222
0.56671702
0.56591858
0.56502367
0.56407721
0.56314032
0.56224516
0.56132529
0.56016875
0.55847268
0.55603596
0.55295651
0.54978493
0.54782609
0.54852298
0.55350329
0.56279577
0.57284379
0.35482618
0.32142817
0.30387135
0.29942778
0.30083902
0.30712814
0.31632086
0.32715479
0.33875864
0.350583
0.36229349
0.37369525
0.38468149
0.39519997
0.40523179
0.41477802
0.42385137
0.43247103
0.44065943
0.44844026
0.45583732
0.46287366
0.4695713
0.47595084
0.48203147
0.48783083
0.49336516
0.49864926
0.50369667
0.50851961
0.51312903
0.51753446
0.52174393
0.52576395
0.52959948
0.53325408
0.53673005
0.54002855
0.54314971
0.54609267
0.54885577
0.55143672
0.55383299
0.55604212
0.55806209
0.5598916
0.56153039
0.56297949
0.56424149
0.56532074
0.56622343
0.56695754
0.56753252
0.56795873
0.56824668
0.56840619
0.56844603
0.56837374
0.56819575
0.56791681
0.5675385
0.56705751
0.56646608
0.56575776
0.56493892
0.56403994
0.5631141
0.56221282
0.56133427
0.56036475
0.55905983
0.55711749
0.55439991
0.55120406
0.54821982
0.54672693
0.54860661
0.55455533
0.56427609
0.57360586
0.21609714
0.21483205
0.22021803
0.23360338
0.25089198
0.26926269
0.28751491
0.30500062
0.32149211
0.33692633
0.35132907
0.36476124
0.37729707
0.38901229
0.39997916
0.41026423
0.41992776
0.42902384
0.43760082
0.44570179
0.45336523
0.46062544
0.46751302
0.47405528
0.4802766
0.4861987
0.49184101
0.4972209
0.50235389
0.50725378
0.51193275
0.51640126
0.52066808
0.52474023
0.52862311
0.5323206
0.53583525
0.53916844
0.54232047
0.54529066
0.54807751
0.55067894
0.55309263
0.5553164
0.55734851
0.55918795
0.56083476
0.56229025
0.56355726
0.5646404
0.56554616
0.56628283
0.56686028
0.5672893
0.56758078
0.56774499
0.56779102
0.56772658
0.56755763
0.5672873
0.56691402
0.56643067
0.56582744
0.56510103
0.56426807
0.56337321
0.56247778
0.56162195
0.56076827
0.55975612
0.55831709
0.55618059
0.5532814
0.55003777
0.54730311
0.54615268
0.54878054
0.55539591
0.56527713
0.57408331
0.091758058
0.12160557
0.15896591
0.19255655
0.22264114
0.24913032
0.27264454
0.29364973
0.31256203
0.32970774
0.34534991
0.35969938
0.37292735
0.38517405
0.3965556
0.40716902
0.41709621
0.42640679
0.43516051
0.44340893
0.45119691
0.45856358
0.46554333
0.47216635
0.47845935
0.4844459
0.49014692
0.495581
0.5007647
0.50571268
0.51043788
0.5149514
0.51926258
0.52337892
0.52730622
0.53104868
0.53460912
0.5379891
0.54118904
0.54420829
0.54704533
0.54969797
0.55216371
0.55444011
0.55652515
0.5584175
0.56011684
0.56162408
0.56294165
0.56407378
0.56502661
0.56580822
0.56642837
0.56689783
0.56722756
0.56742799
0.56750842
0.56747673
0.56733873
0.56709649
0.56674616
0.56627761
0.56567903
0.56494865
0.56411013
0.56321876
0.562342
0.56151202
0.56066608
0.55960824
0.55805892
0.55579222
0.55276623
0.54944645
0.54689116
0.54563684
0.5487318
0.55565579
0.56565406
0.57427997
0.041004887
0.39488468
0.4929403
0.51405296
0.51522122
0.51486383
0.51613731
0.51816677
0.52008094
0.52191445
0.52360413
0.52525189
0.52688717
0.52851975
0.53014525
0.5317674
0.53338742
0.53500787
0.53662953
0.53825175
0.53987322
0.54149199
0.54310561
0.54471121
0.54630565
0.54788572
0.54944826
0.55099034
0.55250943
0.55400349
0.55547101
0.55691105
0.55832307
0.55970683
0.56106217
0.56238884
0.56368629
0.56495362
0.56618958
0.56739263
0.56856109
0.56969325
0.57078752
0.57184248
0.57285693
0.57382983
0.57476029
0.57564752
0.57649076
0.57728934
0.57804274
0.5787507
0.57941333
0.58003127
0.58060582
0.5811389
0.58163272
0.58208935
0.58251066
0.58289819
0.58325304
0.583575
0.58386161
0.58410702
0.58430236
0.58443105
0.58448075
0.58441277
0.58425956
0.58391007
0.58362757
0.58304181
0.58271166
0.58249591
0.58131978
0.58282515
0.58060012
0.58180415
0.58025473
0.58259446
0.16695637
0.46439144
0.52702814
0.53675671
0.53347577
0.53256045
0.53261672
0.53317016
0.53367294
0.53437713
0.53515559
0.53603183
0.53695643
0.5379391
0.53896878
0.54004493
0.54116159
0.5423168
0.54350675
0.54472741
0.54597484
0.54724491
0.54853336
0.54983575
0.5511476
0.5524644
0.55378181
0.55509572
0.55640245
0.55769878
0.55898208
0.56025023
0.56150162
0.56273497
0.56394915
0.56514301
0.56631524
0.56746422
0.56858806
0.56968463
0.57075166
0.57178693
0.57278835
0.57375404
0.5746824
0.57557203
0.57642172
0.5772304
0.5779971
0.57872101
0.57940157
0.58003846
0.58063173
0.58118195
0.58169039
0.58215895
0.58258995
0.58298569
0.58334846
0.58368036
0.58398322
0.58425766
0.58450192
0.58471066
0.58487509
0.58497854
0.58500602
0.58491931
0.58473869
0.58437421
0.58403945
0.58343508
0.58309301
0.58275035
0.58179577
0.58297741
0.58086081
0.58203137
0.58058285
0.58287849
0.24191887
0.50857319
0.54099721
0.54480424
0.54184775
0.54250871
0.54276259
0.54350134
0.54394587
0.54456354
0.54510473
0.54572005
0.54635071
0.54702376
0.54772783
0.54846869
0.54924446
0.55005743
0.55090681
0.55179138
0.55270947
0.55365882
0.55463659
0.55563944
0.55666364
0.55770521
0.55876006
0.55982416
0.56089367
0.56196509
0.56303536
0.56410187
0.56516242
0.56621514
0.56725831
0.56829022
0.56930899
0.57031249
0.5712983
0.57226378
0.57320615
0.57412266
0.5750107
0.57586791
0.57669222
0.57748182
0.57823513
0.57895076
0.5796275
0.58026437
0.58086063
0.58141585
0.58192997
0.58240345
0.58283742
0.58323375
0.58359482
0.58392323
0.58422166
0.58449272
0.58473892
0.58496163
0.58515972
0.58532832
0.58545872
0.58553395
0.58553751
0.58542938
0.58522511
0.58483757
0.58446278
0.58382978
0.58347643
0.58302441
0.58225239
0.58314865
0.58115862
0.58228918
0.58088631
0.58316101
0.29071778
0.53605942
0.55387857
0.55563384
0.55264392
0.55374574
0.55348077
0.55404202
0.55414745
0.55453769
0.55479983
0.55516347
0.55552202
0.55592133
0.5563462
0.55680513
0.55729712
0.55782538
0.55838993
0.55899067
0.55962691
0.5602974
0.56100029
0.56173319
0.56249323
0.56327722
0.56408173
0.56490326
0.5657384
0.56658391
0.56743686
0.56829465
0.56915501
0.5700159
0.57087541
0.57173159
0.57258233
0.57342523
0.5742576
0.57507649
0.57587877
0.57666133
0.57742115
0.57815549
0.57886188
0.57953815
0.58018239
0.58079293
0.58136832
0.58190736
0.58240917
0.58287316
0.58329912