/*--------------------------------*- C++ -*----------------------------------*\
  =========                 |
  \\      /  F ield         | OpenFOAM: The Open Source CFD Toolbox
   \\    /   O peration     | Website:  https://openfoam.org
    \\  /    A nd           | Version:  12
     \\/     M anipulation  |
\*---------------------------------------------------------------------------*/
FoamFile
{
    format      ascii;
    class       volScalarField;
    location    "0.084";
    object      alphat;
}
// * * * * * * * * * * * * * * * * * * * * * * * * * * * * * * * * * * * * * //

dimensions      [1 -1 -1 0 0 0 0];

internalField   nonuniform List<scalar> 
16000
(
4.9546173e-07
1.0839108e-05
2.1629532e-05
2.5825197e-05
1.9948761e-05
2.7440413e-05
1.9383386e-05
2.6533364e-05
2.0725071e-05
2.8503701e-05
2.4038904e-05
2.82002e-05
2.5756847e-05
2.6446403e-05
2.558246e-05
2.5457385e-05
2.5217077e-05
2.5170328e-05
2.521042e-05
2.5359331e-05
2.5609036e-05
2.5959189e-05
2.6407431e-05
2.6954129e-05
2.7602024e-05
2.8358037e-05
2.923141e-05
3.0236717e-05
3.139167e-05
3.271539e-05
3.4228965e-05
3.5960339e-05
3.7945529e-05
4.0228935e-05
4.2865196e-05
4.5919591e-05
4.9469992e-05
5.3609428e-05
5.8453115e-05
6.4143831e-05
7.0849406e-05
7.8767941e-05
8.814917e-05
9.9299082e-05
0.00011258233
0.00012843709
0.00014740724
0.0001701566
0.00019749486
0.0002304108
0.00027011737
0.00031810691
0.00037621182
0.00044669006
0.00053232832
0.00063658553
0.00076378154
0.00091935552
0.0011102079
0.0011814975
0.0011820989
0.0011826147
0.0011829753
0.0011831535
0.0011831283
0.0011828695
0.0011823489
0.0011815423
0.001180429
0.0011790235
0.001177417
0.0011757587
0.0011747175
0.0011740947
0.0011737513
0.0011735809
0.0011734195
0.0011737972
0.0011723282
0.0011723356
4.5289108e-07
1.0267715e-05
2.1432445e-05
2.3406527e-05
1.7985265e-05
2.4585108e-05
1.7194886e-05
2.3226694e-05
1.8301202e-05
2.5169223e-05
2.1752848e-05
2.5414667e-05
2.354061e-05
2.3952185e-05
2.3281673e-05
2.3101251e-05
2.2904296e-05
2.285192e-05
2.2892245e-05
2.3029504e-05
2.3261025e-05
2.3586086e-05
2.4003009e-05
2.4512238e-05
2.5115987e-05
2.5820743e-05
2.6634566e-05
2.7570622e-05
2.8645687e-05
2.9878398e-05
3.1288401e-05
3.2901275e-05
3.4750392e-05
3.6876922e-05
3.9332046e-05
4.217722e-05
4.5486228e-05
4.934659e-05
5.3865801e-05
5.917922e-05
6.5448291e-05
7.2859849e-05
8.1649574e-05
9.2109859e-05
0.00010459172
0.00011951283
0.00013739354
0.00015887137
0.00018472598
0.00021591061
0.00025359592
0.00029922721
0.00035458322
0.00042186201
0.00050378142
0.00060372083
0.00072590824
0.00087566727
0.0010597506
0.001181018
0.0011816077
0.0011820925
0.001182429
0.0011825877
0.0011825481
0.00118228
0.0011817552
0.0011809535
0.0011798565
0.0011784686
0.0011768933
0.0011753272
0.0011743264
0.0011737222
0.0011733824
0.0011731705
0.0011730263
0.0011729581
0.0011723272
0.0011727179
4.0362608e-07
9.823121e-06
2.0245372e-05
2.1397198e-05
1.6088663e-05
2.1637639e-05
1.5297424e-05
2.018058e-05
1.6441846e-05
2.207881e-05
1.9820697e-05
2.2625087e-05
2.1314475e-05
2.1445215e-05
2.0933638e-05
2.0730279e-05
2.0567602e-05
2.0520441e-05
2.0563222e-05
2.069365e-05
2.091047e-05
2.1213342e-05
2.1600938e-05
2.2073982e-05
2.2634277e-05
2.3288081e-05
2.4042629e-05
2.4909883e-05
2.5905507e-05
2.7047669e-05
2.8355048e-05
2.9851357e-05
3.1567795e-05
3.3542761e-05
3.5824392e-05
3.8470653e-05
4.1551747e-05
4.5150925e-05
4.9369249e-05
5.433476e-05
6.0203805e-05
6.7154704e-05
7.5411272e-05
8.5253439e-05
9.7021712e-05
0.00011111756
0.00012804207
0.00014841137
0.00017298102
0.00020267682
0.00023863618
0.00028226786
0.00033530895
0.00039991202
0.0004787438
0.00057512558
0.00069322006
0.0008382769
0.0010169527
0.0011807129
0.0011812757
0.0011817108
0.0011820025
0.0011821212
0.0011820472
0.0011817508
0.0011812026
0.0011803857
0.0011792892
0.0011779105
0.0011763495
0.0011748898
0.0011739442
0.0011733649
0.0011730222
0.0011727873
0.0011726265
0.0011724984
0.0011723036
0.0011730265
3.5725654e-07
9.4871785e-06
1.9191863e-05
1.9776815e-05
1.4444115e-05
1.9094321e-05
1.3619854e-05
1.7627365e-05
1.4786707e-05
1.9451701e-05
1.8081247e-05
2.0154873e-05
1.9262707e-05
1.9189279e-05
1.8796407e-05
1.8592391e-05
1.8459954e-05
1.8423599e-05
1.8471969e-05
1.8599605e-05
1.8805859e-05
1.9090836e-05
1.9453584e-05
1.9895233e-05
2.0417315e-05
2.1026015e-05
2.1728022e-05
2.2534344e-05
2.3459598e-05
2.4521574e-05
2.5738317e-05
2.7131963e-05
2.873195e-05
3.0574302e-05
3.2704582e-05
3.5177749e-05
3.8060922e-05
4.1434013e-05
4.5392983e-05
5.0059054e-05
5.5584696e-05
6.2141806e-05
6.9944678e-05
7.9262132e-05
9.0427169e-05
0.0001038288
0.00011995288
0.00013939896
0.00016290418
0.00019137452
0.00022592245
0.00026793054
0.00031910595
0.0003815699
0.00045795528
0.00055154601
0.00066646291
0.00080791105
0.00098249735
0.001180618
0.0011811399
0.0011815089
0.0011817393
0.0011818025
0.0011816794
0.0011813417
0.0011807585
0.0011799138
0.0011788065
0.0011774329
0.0011758765
0.0011745131
0.0011736172
0.001173057
0.0011727073
0.0011724449
0.0011722046
0.001171928
0.0011721322
0.0011730675
3.2671538e-07
9.2348443e-06
1.8279295e-05
1.9750887e-05
1.4336063e-05
1.6873448e-05
1.2149379e-05
1.5437164e-05
1.3366983e-05
1.7185238e-05
1.6537941e-05
1.7933298e-05
1.7352724e-05
1.7141369e-05
1.6836112e-05
1.6646532e-05
1.6539188e-05
1.6514483e-05
1.6567414e-05
1.6691886e-05
1.6887466e-05
1.7154876e-05
1.7493578e-05
1.7905233e-05
1.839125e-05
1.8957833e-05
1.9611286e-05
2.0361866e-05
2.1223161e-05
2.2212543e-05
2.3347645e-05
2.4649298e-05
2.6145486e-05
2.787019e-05
2.9866767e-05
3.2187574e-05
3.4896982e-05
3.8072232e-05
4.1805485e-05
4.6211493e-05
5.143951e-05
5.7656696e-05
6.5069972e-05
7.3937738e-05
8.4587467e-05
9.7398637e-05
0.00011284472
0.00013151195
0.00015412254
0.0001815677
0.00021494007
0.00025560228
0.00030523832
0.00036594597
0.00044033396
0.00053166034
0.00064401749
0.00078258008
0.00095392576
0.0011664073
0.0011811811
0.0011814688
0.0011816216
0.0011816139
0.0011814272
0.0011810346
0.0011804049
0.0011795206
0.0011783899
0.0011770173
0.0011754662
0.0011741951
0.0011733508
0.0011728092
0.0011724489
0.0011721459
0.001171801
0.0011714164
0.0011717332
0.0011725072
2.9991304e-07
9.0784208e-06
1.754866e-05
1.949457e-05
1.4100461e-05
1.4937273e-05
1.1411807e-05
1.3630262e-05
1.2257165e-05
1.5268753e-05
1.5187679e-05
1.5985555e-05
1.5612195e-05
1.5320366e-05
1.5070707e-05
1.4898075e-05
1.4807122e-05
1.4789771e-05
1.4843519e-05
1.4962595e-05
1.5146541e-05
1.5396614e-05
1.5712509e-05
1.6096337e-05
1.6549489e-05
1.7078155e-05
1.7688331e-05
1.8389692e-05
1.9194826e-05
2.0120658e-05
2.1184604e-05
2.2406443e-05
2.3813019e-05
2.5436621e-05
2.7318811e-05
2.9509799e-05
3.2071658e-05
3.5079525e-05
3.8623174e-05
4.2811795e-05
4.7791736e-05
5.372716e-05
6.0820341e-05
6.9320258e-05
7.9550987e-05
9.1885904e-05
0.00010678946
0.0001248387
0.00014674506
0.00017339123
0.00020585641
0.00024549133
0.00029396596
0.00035336521
0.00042628666
0.00051597787
0.00062652064
0.00076307847
0.00093222225
0.0011423048
0.0011813887
0.0011815814
0.0011816426
0.0011815505
0.0011812875
0.0011808288
0.0011801433
0.0011792105
0.0011780452
0.0011766689
0.0011751278
0.0011739438
0.0011731526
0.0011726307
0.0011722543
0.0011718948
0.0011714337
0.0011709488
0.0011712052
0.0011717274
2.6750436e-07
8.989617e-06
1.6980006e-05
1.8463651e-05
1.3973612e-05
1.3195694e-05
1.1488622e-05
1.2523645e-05
1.1931154e-05
1.3637922e-05
1.3980409e-05
1.4269614e-05
1.4004506e-05
1.3677694e-05
1.3459409e-05
1.3303556e-05
1.3224481e-05
1.3213001e-05
1.3267062e-05
1.3381526e-05
1.3555605e-05
1.3791027e-05
1.4087414e-05
1.436297e-05
1.4777504e-05
1.5264502e-05
1.5829151e-05
1.6480328e-05
1.7229422e-05
1.8092538e-05
1.908684e-05
2.0231086e-05
2.1551066e-05
2.3077452e-05
2.4850139e-05
2.6917371e-05
2.9339056e-05
3.2188264e-05
3.5553237e-05
3.9836552e-05
4.4615953e-05
5.03251e-05
5.7164418e-05
6.5374826e-05
7.5278232e-05
8.7245282e-05
0.00010173472
0.00011931819
0.00014069989
0.00016675987
0.00019856968
0.00023747551
0.00028514175
0.00034364995
0.0004155981
0.00050423693
0.0006136538
0.00074901838
0.00091691221
0.0011257119
0.0011817466
0.0011818322
0.0011817896
0.0011816022
0.0011812524
0.0011807178
0.001179969
0.0011789821
0.0011777727
0.0011763866
0.001174867
0.0011737637
0.0011730248
0.0011725221
0.0011721219
0.0011716936
0.0011711185
0.0011705382
0.0011706675
0.0011709387
2.42894e-07
8.939626e-06
1.6498901e-05
1.6814416e-05
1.2889451e-05
1.1497775e-05
1.0002097e-05
1.120107e-05
1.0541329e-05
1.2250152e-05
1.2772922e-05
1.2699366e-05
1.2476015e-05
1.2157753e-05
1.1964702e-05
1.1830072e-05
1.1765235e-05
1.1762563e-05
1.1748843e-05
1.1844481e-05
1.1999706e-05
1.2215254e-05
1.2488835e-05
1.2821279e-05
1.3217461e-05
1.3681172e-05
1.4217901e-05
1.4836446e-05
1.5547585e-05
1.6366954e-05
1.7311938e-05
1.8400757e-05
1.9658704e-05
2.1115436e-05
2.2809887e-05
2.4789073e-05
2.711162e-05
2.9849356e-05
3.3090038e-05
3.6940705e-05
4.1532062e-05
4.702971e-05
5.3634321e-05
6.2099256e-05
7.1768386e-05
8.3477652e-05
9.7683813e-05
0.00011495684
0.00013599736
0.00016168913
0.00019310219
0.00023158609
0.0002788089
0.00033685917
0.00040834766
0.00049654303
0.00060555572
0.00074058165
0.00090823267
0.0011169329
0.0011822361
0.0011822043
0.0011820484
0.0011817568
0.0011813126
0.0011806948
0.0011798771
0.0011788333
0.0011775731
0.0011761683
0.0011746865
0.0011736549
0.0011729634
0.0011724752
0.0011720434
0.0011715431
0.0011708752
0.0011702222
0.0011701835
0.0011699516
2.2392178e-07
8.8929504e-06
1.6008472e-05
1.4723708e-05
1.0600639e-05
1.021689e-05
8.2354723e-06
9.5459064e-06
9.7488421e-06
1.1029763e-05
1.1549618e-05
1.124183e-05
1.1037169e-05
1.0753011e-05
1.0585611e-05
1.0401898e-05
1.0326127e-05
1.0317738e-05
1.0368852e-05
1.0476604e-05
1.063686e-05
1.085153e-05
1.1119936e-05
1.1442349e-05
1.1823743e-05
1.2268886e-05
1.2783316e-05
1.3375868e-05
1.4056908e-05
1.4841583e-05
1.5747618e-05
1.679295e-05
1.8002708e-05
1.9405854e-05
2.1040747e-05
2.2953686e-05
2.5202557e-05
2.7858544e-05
3.1008784e-05
3.4759493e-05
3.9241886e-05
4.4619412e-05
5.1096124e-05
5.8909642e-05
6.83649e-05
7.9842076e-05
9.4627802e-05
0.0001117455
0.00013262843
0.00015817007
0.00018944561
0.000227816
0.00027496247
0.00033299128
0.00040453863
0.00049290618
0.00060224548
0.00073780005
0.00090623256
0.0011160346
0.0011828354
0.001182678
0.001182402
0.0011820003
0.0011814566
0.0011807511
0.0011798604
0.0011787589
0.0011774457
0.0011760092
0.0011745858
0.0011736142
0.0011729608
0.0011724796
0.001172012
0.0011714478
0.0011707156
0.001170004
0.0011698117
0.0011695399
2.0534802e-07
8.8478738e-06
1.4523639e-05
1.2827965e-05
8.5742572e-06
9.0738807e-06
7.2956923e-06
8.6173783e-06
9.0317756e-06
9.8710106e-06
1.0339468e-05
9.9139661e-06
9.7150409e-06
9.3797114e-06
9.2016559e-06
9.0935029e-06
9.0525247e-06
9.0696698e-06
9.1387791e-06
9.2564737e-06
9.4238777e-06
9.6384519e-06
9.9030338e-06
1.0217991e-05
1.0588509e-05
1.1019786e-05
1.151753e-05
1.2090757e-05
1.2749577e-05
1.3508687e-05
1.4386216e-05
1.5400171e-05
1.6575776e-05
1.794161e-05
1.9535828e-05
2.1404475e-05
2.3605196e-05
2.6209146e-05
2.9303893e-05
3.2996225e-05
3.7417587e-05
4.2731147e-05
4.9144821e-05
5.6896615e-05
6.6294523e-05
7.772168e-05
9.1651875e-05
0.00010864441
0.00013059406
0.00015620666
0.0001876085
0.00022617982
0.00027362526
0.00033208007
0.00040421937
0.00049339368
0.00060381443
0.00074079612
0.0009110755
0.0011232284
0.0011835206
0.0011832318
0.0011828315
0.0011823164
0.0011816712
0.0011808761
0.0011799098
0.0011787508
0.0011773881
0.0011759043
0.0011745592
0.0011736349
0.0011730082
0.0011725272
0.0011720283
0.0011714195
0.0011706524
0.0011698987
0.0011696217
0.0011694907
1.8942823e-07
8.8011736e-06
1.1538525e-05
1.0696338e-05
7.0324908e-06
8.0814761e-06
6.6514012e-06
7.7462074e-06
8.4540367e-06
8.8222365e-06
9.1531712e-06
8.6143648e-06
8.363752e-06
8.1335709e-06
8.0046128e-06
7.9368845e-06
7.925664e-06
7.9646825e-06
8.0495553e-06
8.1789675e-06
8.3504363e-06
8.5668167e-06
8.8299612e-06
9.1407404e-06
9.5044498e-06
9.9267714e-06
1.0413709e-05
1.0974526e-05
1.16193e-05
1.2362361e-05
1.3154867e-05
1.4138414e-05
1.528157e-05
1.6612505e-05
1.8169161e-05
1.9997363e-05
2.2154592e-05
2.4712025e-05
2.7757792e-05
3.1399562e-05
3.5770162e-05
4.1355972e-05
4.7772419e-05
5.5541764e-05
6.4975213e-05
7.6460253e-05
9.0484287e-05
0.00010762009
0.00012859263
0.00015431006
0.0001875935
0.00022668587
0.00027481314
0.00033415141
0.00040742891
0.00049806196
0.00061034101
0.00074967607
0.00092290504
0.0011387028
0.0011842661
0.0011838427
0.001183317
0.0011826875
0.0011819407
0.0011810567
0.001180014
0.0011787971
0.0011773946
0.0011758642
0.0011745986
0.0011737087
0.0011730974
0.0011726143
0.0011720987
0.0011714736
0.0011707002
0.0011699164
0.0011695346
0.0011692437
1.7541962e-07
8.7573413e-06
9.1032173e-06
9.0563982e-06
6.1657994e-06
7.1629087e-06
6.111485e-06
6.9871516e-06
7.8686472e-06
7.8447105e-06
7.8674483e-06
7.4104008e-06
7.2069828e-06
7.0403599e-06
6.9531377e-06
6.919058e-06
6.9333132e-06
6.9918146e-06
7.0906912e-06
7.2300081e-06
7.4086055e-06
7.628561e-06
7.8929648e-06
8.2031912e-06
8.5646343e-06
8.945079e-06
9.4194103e-06
9.9669522e-06
1.0597646e-05
1.1325354e-05
1.2166797e-05
1.3143699e-05
1.4280638e-05
1.5605919e-05
1.7157913e-05
1.8983e-05
2.113946e-05
2.3699518e-05
2.6753186e-05
3.0410537e-05
3.4807681e-05
4.0114945e-05
4.6541457e-05
5.4338747e-05
6.382344e-05
7.6045323e-05
9.0294985e-05
0.0001077292
0.00012908638
0.00015530284
0.00018753009
0.00022933795
0.0002785379
0.00033922746
0.0004142028
0.00050696428
0.00062190101
0.0007645431
0.00094186118
0.0011626473
0.0011850458
0.0011844874
0.0011838377
0.0011830951
0.0011822483
0.0011812782
0.0011801609
0.0011788843
0.0011774516
0.0011759048
0.0011746969
0.0011738296
0.0011732241
0.0011727408
0.0011722302
0.001171618
0.0011708563
0.0011700448
0.0011695602
0.0011693038
1.6295485e-07
8.7068352e-06
7.2383554e-06
7.9562115e-06
5.4965826e-06
6.3425002e-06
5.6505426e-06
6.3167463e-06
7.1722654e-06
6.7350969e-06
6.7083086e-06
6.3583922e-06
6.1984785e-06
6.083142e-06
6.031651e-06
6.0266073e-06
6.0635626e-06
6.1399741e-06
6.2529474e-06
6.403181e-06
6.5901632e-06
6.8163053e-06
7.0554566e-06
7.3624264e-06
7.7202815e-06
8.1340459e-06
8.6120314e-06
9.1631782e-06
9.7976905e-06
1.0529692e-05
1.137611e-05
1.2358469e-05
1.3502821e-05
1.4837944e-05
1.6402929e-05
1.8245131e-05
2.0424246e-05
2.301413e-05
2.6107487e-05
2.9817974e-05
3.4285214e-05
3.968348e-05
4.6232608e-05
5.4190576e-05
6.3883985e-05
7.5720195e-05
9.0206868e-05
0.00010796043
0.00013088595
0.0001578255
0.0001909623
0.00023177565
0.00028479612
0.00034731318
0.00042455626
0.0005201296
0.00063854167
0.0007854652
0.00096803833
0.0011864835
0.0011858335
0.0011851429
0.0011843729
0.0011835206
0.0011825766
0.001181524
0.0011803374
0.0011790009
0.0011775387
0.0011760138
0.0011748512
0.0011739969
0.0011733896
0.0011729107
0.001172426
0.0011718482
0.0011711058
0.0011702997
0.0011697723
0.0011695572
1.5190515e-07
8.6446084e-06
5.8059706e-06
6.9571116e-06
4.904818e-06
5.6151222e-06
5.260079e-06
5.6351587e-06
6.2939195e-06
5.7723555e-06
5.6917807e-06
5.4384767e-06
5.3196466e-06
5.2471387e-06
5.22742e-06
5.2486294e-06
5.3069201e-06
5.4009012e-06
5.528497e-06
5.6698291e-06
5.8606952e-06
6.090666e-06
6.3625341e-06
6.6798968e-06
7.0478551e-06
7.4718693e-06
7.9601864e-06
8.5224797e-06
9.1692296e-06
9.9147791e-06
1.0776236e-05
1.1775435e-05
1.2880743e-05
1.4226773e-05
1.5805681e-05
1.7665765e-05
1.9868361e-05
2.248901e-05
2.5623152e-05
2.9388601e-05
3.3929647e-05
3.9724872e-05
4.6457618e-05
5.4650115e-05
6.4640186e-05
7.6846894e-05
9.1801899e-05
0.00011014848
0.000132678
0.0001618493
0.00019616609
0.00023844921
0.00029059731
0.00035838464
0.00043847062
0.00053754562
0.0006602612
0.00081245226
0.0010014562
0.0011873725
0.001186604
0.0011857875
0.0011849031
0.0011839463
0.001182909
0.0011817776
0.001180529
0.001179139
0.0011776395
0.0011761856
0.0011750625
0.0011742165
0.0011736027
0.001173132
0.0011726867
0.0011721546
0.0011714291
0.0011706581
0.0011701559
0.0011700155
1.4212652e-07
8.5320097e-06
4.7135351e-06
6.0699059e-06
4.3771064e-06
4.9688217e-06
4.9212344e-06
4.8933679e-06
5.4066398e-06
4.9136801e-06
4.8108844e-06
4.6371892e-06
4.5576527e-06
4.5222847e-06
4.5316246e-06
4.5773237e-06
4.656279e-06
4.7492102e-06
4.8860862e-06
5.0577284e-06
5.2653216e-06
5.5108091e-06
5.797755e-06
6.1299894e-06
6.5132628e-06
6.9533411e-06
7.4585654e-06
8.0151145e-06
8.6751246e-06
9.435004e-06
1.0311942e-05
1.1327838e-05
1.2509494e-05
1.38906e-05
1.5511414e-05
1.7421854e-05
1.9686067e-05
2.2382474e-05
2.5610343e-05
2.9493465e-05
3.4182759e-05
3.9868649e-05
4.6781977e-05
5.5207748e-05
6.5498037e-05
7.8742704e-05
9.4290937e-05
0.00011337792
0.00013683271
0.00016568254
0.00020309003
0.00024716221
0.0003015274
0.0003686375
0.00045587347
0.00055913505
0.00068697913
0.00084542222
0.0010420242
0.0011882181
0.0011873349
0.0011864019
0.0011854105
0.001184356
0.0011832313
0.0011820247
0.0011807204
0.0011792943
0.0011777623
0.001176414
0.0011753333
0.0011744974
0.0011738759
0.0011734134
0.0011730098
0.0011725288
0.0011718192
0.0011710909
0.0011707191
0.0011705963
1.3352958e-07
8.218251e-06
3.9537312e-06
5.2832321e-06
3.9089483e-06
4.3976065e-06
4.3827712e-06
4.2229867e-06
4.5503563e-06
4.1543003e-06
4.0561063e-06
3.9459735e-06
3.9035369e-06
3.9011526e-06
3.9373256e-06
3.9916108e-06
4.0837765e-06
4.2093463e-06
4.3676448e-06
4.5591588e-06
4.7857693e-06
5.0499968e-06
5.3558822e-06
5.7075795e-06
6.0975257e-06
6.554753e-06
7.0778367e-06
7.6764491e-06
8.3627419e-06
9.1512018e-06
1.0059485e-05
1.1110406e-05
1.2331895e-05
1.3758967e-05
1.5434677e-05
1.7410825e-05
1.975503e-05
2.2549454e-05
2.5897501e-05
2.9930346e-05
3.4804982e-05
4.0721421e-05
4.7925418e-05
5.6714651e-05
6.7460778e-05
8.0621064e-05
9.7619037e-05
0.00011759198
0.00014214262
0.00017235799
0.00020955472
0.00025781925
0.00031477096
0.00038507417
0.0004719075
0.00058472634
0.0007185007
0.00088415909
0.001089502
0.0011889983
0.0011880087
0.0011869698
0.0011858803
0.0011847362
0.0011835319
0.001182256
0.0011808981
0.0011794558
0.0011779491
0.0011766929
0.0011756637
0.0011748452
0.0011742181
0.0011737601
0.0011733923
0.0011729654
0.0011722855
0.0011716008
0.0011713974
0.00117136
1.2618909e-07
7.7942554e-06
3.484631e-06
4.5868499e-06
3.4937337e-06
3.7292261e-06
3.9079815e-06
3.6088517e-06
3.7750843e-06
3.4944831e-06
3.4176339e-06
3.3578671e-06
3.3494165e-06
3.3767665e-06
3.4208737e-06
3.5070391e-06
3.6253355e-06
3.7746324e-06
3.9552493e-06
4.1684756e-06
4.4167955e-06
4.7030364e-06
5.0220761e-06
5.3941629e-06
5.8185206e-06
6.3019411e-06
6.8525872e-06
7.4804765e-06
8.1980174e-06
9.0206182e-06
9.9665122e-06
1.1059506e-05
1.2328824e-05
1.3811264e-05
1.5486006e-05
1.7524103e-05
1.9943853e-05
2.2831744e-05
2.6453815e-05
3.0665806e-05
3.5762158e-05
4.1952374e-05
4.9498396e-05
5.8713656e-05
6.9988394e-05
8.3806812e-05
0.00010076456
0.00012159485
0.00014851623
0.00018028942
0.0002194116
0.00026761705
0.00033015213
0.00040406574
0.00049533012
0.00061402144
0.00075447641
0.00092826254
0.0011434324
0.0011897
0.0011886117
0.0011874788
0.0011863015
0.0011850764
0.0011838011
0.0011824662
0.0011810586
0.0011795968
0.0011781835
0.0011770165
0.0011760464
0.0011752553
0.0011746253
0.0011741716
0.001173831
0.0011734533
0.001172811
0.0011721928
0.0011721003
0.0011721475
1.2040679e-07
6.8436064e-06
3.0855153e-06
3.955359e-06
3.1361239e-06
3.1122584e-06
3.4348594e-06
3.0525838e-06
3.1091609e-06
2.9308627e-06
2.8832952e-06
2.8645805e-06
2.8785988e-06
2.9251462e-06
3.0076668e-06
3.1217971e-06
3.265606e-06
3.4390766e-06
3.6433518e-06
3.8801986e-06
4.1465289e-06
4.4552728e-06
4.8066757e-06
5.2055843e-06
5.6577843e-06
6.1702894e-06
6.7516297e-06
7.4122108e-06
8.1648361e-06
9.0058034e-06
9.9874913e-06
1.1119944e-05
1.2433604e-05
1.3966622e-05
1.5766733e-05
1.7893636e-05
2.0421186e-05
2.3441878e-05
2.7070559e-05
3.144924e-05
3.6754411e-05
4.3514668e-05
5.1447911e-05
6.1145201e-05
7.3016446e-05
8.7572153e-05
0.00010544162
0.00012740145
0.00015582609
0.00018932771
0.00023058244
0.00028140998
0.00034741051
0.00042530157
0.00052144726
0.00064018995
0.00079436387
0.00097709837
0.0011914919
0.0011903136
0.0011891355
0.0011879206
0.0011866672
0.0011853709
0.0011840315
0.0011826483
0.0011812099
0.00117973
0.0011784539
0.0011773735
0.0011764663
0.0011757109
0.0011750939
0.0011746448
0.0011743216
0.0011739735
0.0011733893
0.0011728231
0.001172875
0.0011729636
1.1579978e-07
4.7766057e-06
2.726875e-06
3.3695436e-06
2.6824588e-06
2.5958149e-06
2.9359031e-06
2.5571729e-06
2.5549033e-06
2.4563318e-06
2.4417843e-06
2.4507358e-06
2.4957534e-06
2.5764499e-06
2.6884676e-06
2.8293301e-06
2.9984295e-06
3.1964851e-06
3.422e-06
3.6821305e-06
3.9781482e-06
4.3134642e-06
4.6922178e-06
5.1194362e-06
5.6011791e-06
6.1447501e-06
6.7590175e-06
7.4436267e-06
8.2298974e-06
9.1266179e-06
1.0154355e-05
1.1338663e-05
1.2711758e-05
1.4314108e-05
1.6196455e-05
1.8422058e-05
2.1069567e-05
2.4236879e-05
2.8045845e-05
3.264775e-05
3.8230187e-05
4.5024661e-05
5.3714217e-05
6.3939351e-05
7.6463225e-05
9.182437e-05
0.00011068693
0.0001338716
0.00016239239
0.0001992735
0.00024282873
0.00029648454
0.0003626214
0.00044835196
0.00054973712
0.00067488311
0.00083739752
0.0010297514
0.0011920792
0.0011908338
0.0011895767
0.0011882914
0.0011869736
0.0011856183
0.0011842225
0.0011827925
0.0011813462
0.0011799184
0.0011787461
0.0011777504
0.0011769059
0.0011761935
0.0011756069
0.001175174
0.001174856
0.0011745177
0.0011739898
0.001173527
0.0011736904
0.001173804
1.1090619e-07
3.9663537e-06
2.3500192e-06
2.830139e-06
2.3135496e-06
2.1649687e-06
2.4188322e-06
2.122144e-06
2.1043514e-06
2.0667488e-06
2.081081e-06
2.1245939e-06
2.2055364e-06
2.3169097e-06
2.4561502e-06
2.6223664e-06
2.8159355e-06
3.0359221e-06
3.288009e-06
3.5735545e-06
3.895579e-06
4.2577363e-06
4.6643933e-06
5.1207653e-06
5.6331176e-06
6.2090174e-06
6.8500683e-06
7.5794242e-06
8.4058493e-06
9.3465742e-06
1.042328e-05
1.1663041e-05
1.3099914e-05
1.4776721e-05
1.6747362e-05
1.9079327e-05
2.1856418e-05
2.518251e-05
2.9186829e-05
3.4029149e-05
3.9907889e-05
4.7408971e-05
5.6227e-05
6.7013443e-05
8.0230611e-05
9.6446096e-05
0.00011636002
0.00014083693
0.00017252808
0.0002098734
0.00025584214
0.00031246199
0.00038223463
0.00047265552
0.00057952609
0.0007113775
0.00088256377
0.0010849944
0.0011925654
0.0011912591
0.0011899371
0.0011885923
0.00118722
0.0011858178
0.001184381
0.0011829072
0.0011814312
0.0011801402
0.001179054
0.0011781349
0.0011773508
0.0011766858
0.0011761396
0.0011757343
0.0011754295
0.0011750922
0.001174611
0.0011742507
0.0011744926
0.0011746146
1.0760243e-07
3.1943693e-06
2.0259286e-06
2.2863564e-06
2.0106333e-06
1.796211e-06
1.937881e-06
1.7529812e-06
1.7504814e-06
1.761772e-06
1.806146e-06
1.8875246e-06
1.9993014e-06
2.1375385e-06
2.3012552e-06
2.4907614e-06
2.7060107e-06
2.9507374e-06
3.2268155e-06
3.5370079e-06
3.8846159e-06
4.2735003e-06
4.7081859e-06
5.1940306e-06
5.7374624e-06
6.3419547e-06
7.0234759e-06
7.790916e-06
8.6586689e-06
9.6448041e-06
1.0772264e-05
1.2069718e-05
1.357326e-05
1.5328203e-05
1.7391531e-05
1.9834896e-05
2.2747857e-05
2.6240352e-05
3.0449666e-05
3.5544815e-05
4.2009735e-05
4.961511e-05
5.8903353e-05
7.0270522e-05
8.420246e-05
0.00010129798
0.00012229413
0.00014810103
0.00018146188
0.00022081195
0.00026924317
0.0003288826
0.00040235904
0.00049749772
0.00060995052
0.00074863213
0.00092858391
0.0011412888
0.0011929542
0.0011915955
0.0011902212
0.001188829
0.0011874114
0.0011859678
0.001184503
0.0011830256
0.001181572
0.001180379
0.0011793721
0.0011785205
0.001177793
0.0011771762
0.0011766759
0.0011763076
0.0011760176
0.0011756802
0.0011752437
0.0011749895
0.0011752911
0.0011753352
1.0618853e-07
2.5169788e-06
1.7456725e-06
1.764395e-06
1.7315352e-06
1.4807559e-06
1.5450762e-06
1.4586761e-06
1.4868505e-06
1.5332642e-06
1.6162425e-06
1.728056e-06
1.8652497e-06
2.0262848e-06
2.2114826e-06
2.4220455e-06
2.658969e-06
2.925819e-06
3.2247542e-06
3.5587965e-06
3.9314157e-06
4.3466108e-06
4.8090275e-06
5.3241393e-06
5.8985e-06
6.5400862e-06
7.2587412e-06
8.0667106e-06
8.9690154e-06
1.0001008e-05
1.1179834e-05
1.2535859e-05
1.4107347e-05
1.5942326e-05
1.8100905e-05
2.0742292e-05
2.3816736e-05
2.7506094e-05
3.1956388e-05
3.7347707e-05
4.39018e-05
5.1891325e-05
6.1653094e-05
7.3601701e-05
8.8247806e-05
0.00010622088
0.00012829554
0.00015678402
0.00019039107
0.0002317228
0.00028258274
0.00034519739
0.00042631456
0.0005220295
0.0006399768
0.00078539432
0.00097390745
0.0011946983
0.0011932601
0.0011918531
0.0011904361
0.0011890081
0.001187559
0.0011860823
0.0011845819
0.0011830917
0.0011817509
0.0011806335
0.001179696
0.0011789046
0.0011782307
0.0011776618
0.0011772052
0.0011768694
0.00117659
0.0011762501
0.0011758518
0.0011757105
0.0011760468
0.0011760727
1.0772879e-07
1.9373602e-06
1.5120352e-06
1.3644792e-06
1.446754e-06
1.2162478e-06
1.2575008e-06
1.2429447e-06
1.3037795e-06
1.384612e-06
1.4961093e-06
1.6313682e-06
1.7891054e-06
1.9694668e-06
2.1736939e-06
2.4035569e-06
2.6608475e-06
2.9486354e-06
3.2694894e-06
3.6265624e-06
4.0234239e-06
4.4641643e-06
4.9535284e-06
5.4971077e-06
6.1016057e-06
6.7751958e-06
7.5280012e-06
8.3726921e-06
9.3252302e-06
1.0405809e-05
1.1639959e-05
1.3060014e-05
1.4706714e-05
1.6631265e-05
1.8897746e-05
2.1586055e-05
2.4795551e-05
2.8649781e-05
3.3301532e-05
3.8939811e-05
4.5797916e-05
5.4162651e-05
6.4384548e-05
7.6897635e-05
9.2234772e-05
0.00011197166
0.0001352527
0.00016384746
0.00019899122
0.0002422083
0.00029537726
0.00036420299
0.00044536532
0.00054531179
0.0006684545
0.0008282185
0.0010167687
0.0011949717
0.0011935002
0.0011920496
0.0011905949
0.0011891355
0.0011876649
0.0011861768
0.0011846718
0.0011831899
0.0011819489
0.0011809002
0.0011800222
0.0011792844
0.0011786609
0.0011781386
0.001177719
0.0011774036
0.0011771313
0.0011768036
0.0011764422
0.0011763356
0.0011767286
0.0011767944
1.1338589e-07
1.4616153e-06
1.3222701e-06
1.0724975e-06
1.2910719e-06
9.96771e-07
1.0622583e-06
1.1000456e-06
1.1877462e-06
1.296199e-06
1.4286893e-06
1.5821577e-06
1.757011e-06
1.9543998e-06
2.1760561e-06
2.4240109e-06
2.7005742e-06
3.0081419e-06
3.3498474e-06
3.7288115e-06
4.1486773e-06
4.6136182e-06
5.1284809e-06
5.6989854e-06
6.3320007e-06
7.0359174e-06
7.8211499e-06
8.7008199e-06
9.6915096e-06
1.0814289e-05
1.2095823e-05
1.3569966e-05
1.5279403e-05
1.7277815e-05
1.9632375e-05
2.2426849e-05
2.5765283e-05
2.9776546e-05
3.4619873e-05
4.0491704e-05
4.795914e-05
5.6741174e-05
6.7470136e-05
8.0599429e-05
9.6685752e-05
0.00011641409
0.00014062789
0.000170366
0.00020690451
0.00025417667
0.00030983591
0.00037829654
0.00046254631
0.00056628025
0.00070084066
0.00085950015
0.0010550857
0.001195187
0.001193689
0.0011922065
0.0011907212
0.0011892319
0.0011877357
0.0011862328
0.0011847367
0.0011833269
0.0011821605
0.0011811733
0.001180346
0.0011796536
0.001179074
0.0011785926
0.0011782044
0.0011778963
0.0011776213
0.0011773178
0.0011770278
0.0011769647
0.0011773001
0.0011773419
1.2379913e-07
1.1521233e-06
1.1588679e-06
9.3131017e-07
9.4371314e-07
8.7144227e-07
9.338847e-07
1.013831e-06
1.1223064e-06
1.2503079e-06
1.3986798e-06
1.5672185e-06
1.7571596e-06
1.9700474e-06
2.2077618e-06
2.472401e-06
2.7663102e-06
3.0921018e-06
3.4527022e-06
3.8514056e-06
4.2919529e-06
4.7786386e-06
5.3164601e-06
5.9113315e-06
6.5703785e-06
7.299742e-06
8.1139775e-06
9.0250001e-06
1.0058973e-05
1.1223783e-05
1.2553439e-05
1.408345e-05
1.5858543e-05
1.7934882e-05
2.0382678e-05
2.3289348e-05
2.6763355e-05
3.0938906e-05
3.5981663e-05
4.2095816e-05
4.9532753e-05
5.8601758e-05
6.9682955e-05
8.3241369e-05
9.9850912e-05
0.00012021646
0.00014649773
0.00017741462
0.00021537833
0.00026202154
0.00031935679
0.00038987103
0.00047663644
0.00058899841
0.00072152095
0.00088480396
0.0010861146
0.0011953622
0.0011938441
0.0011923402
0.0011908361
0.0011893281
0.0011878127
0.0011862939
0.0011848032
0.0011834888
0.0011823814
0.0011814465
0.0011806611
0.0011800043
0.001179458
0.0011790087
0.0011786446
0.0011783475
0.0011780782
0.0011778127
0.0011775982
0.0011775262
0.0011778384
0.0011777471
1.4529992e-07
1.1930956e-06
9.9703306e-07
7.1007843e-07
7.7047224e-07
7.7859068e-07
8.6283349e-07
9.6561108e-07
1.0905226e-06
1.2333357e-06
1.3952197e-06
1.5771069e-06
1.780516e-06
2.007103e-06
2.2587741e-06
2.5376534e-06
2.846117e-06
3.1868245e-06
3.5627613e-06
3.9772929e-06
4.4342369e-06
4.9379683e-06
5.4935671e-06
6.1070329e-06
6.7855875e-06
7.5380905e-06
8.3755896e-06
9.3120245e-06
1.0365119e-05
1.1557443e-05
1.2917683e-05
1.4482241e-05
1.6297025e-05
1.8419692e-05
2.0922282e-05
2.3894434e-05
2.7447285e-05
3.1718192e-05
3.687652e-05
4.3130731e-05
5.0737222e-05
6.0440928e-05
7.185798e-05
8.5820373e-05
0.00010291676
0.00012386941
0.00014956729
0.00018110486
0.00021983037
0.00026740381
0.0003258777
0.00040145766
0.00049056616
0.00060022747
0.00073527358
0.00090169784
0.0011069281
0.0011955295
0.0011939915
0.0011924694
0.001190952
0.0011894349
0.0011879136
0.0011863924
0.0011849123
0.0011836672
0.0011826075
0.0011817137
0.0011809613
0.0011803317
0.00117981
0.0011793832
0.0011790336
0.0011787577
0.0011785054
0.0011782745
0.0011781069
0.0011780909
0.0011782672
0.001178146
1.3847726e-07
7.9401089e-07
8.1681936e-07
6.0512805e-07
6.6298685e-07
7.2396437e-07
8.2672795e-07
9.4630488e-07
1.0843174e-06
1.2397738e-06
1.4139353e-06
1.6080178e-06
1.8235669e-06
2.0623031e-06
2.3261709e-06
2.61735e-06
2.938283e-06
3.2916647e-06
3.6806174e-06
4.1085647e-06
4.5794073e-06
5.0976032e-06
5.6683175e-06
6.2976374e-06
6.9928813e-06
7.7630213e-06
8.619244e-06
9.5756767e-06
1.0658974e-05
1.1878604e-05
1.3269789e-05
1.4869829e-05
1.6725699e-05
1.8896331e-05
2.1455286e-05
2.4494025e-05
2.8125855e-05
3.2490749e-05
3.7761254e-05
4.4149698e-05
5.1917014e-05
6.1383473e-05
7.2941823e-05
8.7075642e-05
0.00010437823
0.00012557931
0.00015157666
0.00018508557
0.00022453367
0.00027297049
0.00033247944
0.00040563112
0.00049560563
0.00060634147
0.00074272327
0.00091081714
0.0011181474
0.0011957273
0.0011941704
0.0011926294
0.0011910962
0.0011895674
0.0011880408
0.0011865234
0.0011850639
0.0011838625
0.0011828358
0.0011819701
0.0011812411
0.0011806316
0.0011801278
0.0011797179
0.0011793841
0.0011791289
0.0011789021