/*--------------------------------*- C++ -*----------------------------------*\
  =========                 |
  \\      /  F ield         | OpenFOAM: The Open Source CFD Toolbox
   \\    /   O peration     | Website:  https://openfoam.org
    \\  /    A nd           | Version:  12
     \\/     M anipulation  |
\*---------------------------------------------------------------------------*/
FoamFile
{
    format      ascii;
    class       volScalarField;
    location    "0.084";
    object      T;
}
// * * * * * * * * * * * * * * * * * * * * * * * * * * * * * * * * * * * * * //

dimensions      [0 0 0 1 0 0 0];

internalField   nonuniform List<scalar> 
16000
(
295.44359
287.09996
290.331
288.57082
289.66187
289.16243
289.57849
289.47003
289.66432
289.69807
289.81765
289.90163
290.00588
290.10756
290.21512
290.32593
290.44078
290.55955
290.68229
290.80901
290.93972
291.07439
291.21301
291.3555
291.50179
291.65178
291.80534
291.96232
292.12253
292.28576
292.45178
292.6203
292.79104
292.96367
293.13783
293.31316
293.48926
293.66572
293.84211
294.018
294.19295
294.36653
294.53831
294.70786
294.87478
295.03869
295.19922
295.35605
295.50886
295.65739
295.80138
295.94062
296.07493
296.20415
296.32814
296.44679
296.56
296.66769
296.76976
296.86616
296.95681
297.04163
297.12053
297.19344
297.26029
297.3211
297.37599
297.4253
297.46968
297.51022
297.54848
297.58637
297.6258
297.6681
297.71362
297.76007
297.81633
297.83244
297.93498
297.90269
295.14491
286.70202
290.08502
288.22176
289.37958
288.84322
289.29432
289.17639
289.38505
289.42413
289.55062
289.64337
289.7547
289.86508
289.98095
290.10064
290.22455
290.35268
290.48502
290.6216
290.76238
290.90733
291.05639
291.20946
291.36644
291.52718
291.69151
291.85923
292.03011
292.20388
292.38025
292.5589
292.73946
292.92158
293.10482
293.28878
293.47301
293.65706
293.84046
294.02274
294.20345
294.38214
294.55835
294.73169
294.90174
295.06815
295.23058
295.38872
295.54231
295.69112
295.83494
295.97361
296.10699
296.23499
296.3575
296.47447
296.58584
296.69156
296.7916
296.8859
296.97445
297.05718
297.13404
297.20498
297.26998
297.3291
297.3825
297.43054
297.47391
297.51367
297.55138
297.58893
297.62814
297.67014
297.71488
297.76186
297.80909
297.84631
297.91773
297.91618
294.86046
286.33249
289.81217
287.91534
289.11266
288.56616
289.03094
288.92059
289.13413
289.18486
289.31678
289.41995
289.53929
289.6593
289.78462
289.91422
290.04831
290.1869
290.32998
290.47752
290.62947
290.78576
290.9463
291.11095
291.27955
291.45192
291.62783
291.80702
291.98921
292.17407
292.36123
292.55032
292.7409
292.93255
293.12479
293.31714
293.5091
293.70019
293.88988
294.0777
294.26316
294.44579
294.62517
294.80089
294.97257
295.13987
295.30251
295.46023
295.6128
295.76006
295.90187
296.03812
296.16875
296.2937
296.41294
296.52648
296.63429
296.7364
296.83279
296.92345
297.00841
297.08762
297.16108
297.22876
297.29069
297.34696
297.39778
297.44358
297.48504
297.52326
297.55972
297.59629
297.63468
297.67587
297.71973
297.76527
297.8086
297.84962
297.90645
297.92375
294.59904
285.99408
289.59411
287.64455
288.87827
288.32158
288.80034
288.69916
288.91809
288.98199
289.12038
289.23517
289.36381
289.49463
289.63067
289.77139
289.91686
290.06708
290.22201
290.38159
290.54575
290.71436
290.88729
291.06437
291.24537
291.43005
291.61814
291.80929
292.00315
292.19932
292.39738
292.59684
292.79723
292.99802
293.19869
293.3987
293.59749
293.79454
293.9893
294.18126
294.36994
294.55489
294.73568
294.91194
295.08334
295.24959
295.41045
295.56575
295.71532
295.85907
295.99694
296.12889
296.25493
296.37507
296.48937
296.59785
296.70059
296.79762
296.88899
296.97474
297.0549
297.12949
297.1985
297.26195
297.31991
297.37251
297.42001
297.46285
297.50175
297.53778
297.57237
297.60729
297.64418
297.68395
297.72636
297.76959
297.81042
297.85169
297.89718
297.93212
294.36064
285.6906
289.38852
287.41966
288.68797
288.11776
288.6068
288.51938
288.74213
288.82193
288.96752
289.09525
289.23456
289.37732
289.52531
289.6783
289.83629
289.99925
290.16712
290.33982
290.51721
290.69915
290.88543
291.07581
291.27003
291.46775
291.66861
291.8722
292.07807
292.28573
292.49466
292.70431
292.9141
293.12345
293.33175
293.53841
293.74284
293.94445
294.14272
294.33711
294.52716
294.71244
294.89258
295.06724
295.23617
295.39916
295.55603
295.7067
295.8511
295.98922
296.12109
296.24675
296.36629
296.47981
296.58741
296.6892
296.78529
296.87579
296.96077
297.04031
297.11446
297.18328
297.2468
297.30506
297.35815
297.40624
297.44963
297.4888
297.52447
297.55768
297.58979
297.62242
297.65713
297.69482
297.73507
297.77567
297.81436
297.85354
297.89332
297.93826
294.14905
285.42943
289.2151
287.23116
288.52325
287.96106
288.46077
288.38749
288.61305
288.71038
288.86407
289.00555
289.15667
289.31231
289.47332
289.63967
289.8113
289.98817
290.17016
290.35714
290.54893
290.74531
290.94599
291.15066
291.35894
291.57042
291.78461
292.00102
292.21907
292.43818
292.65772
292.87705
293.0955
293.31241
293.52711
293.73896
293.94734
294.15167
294.3514
294.54604
294.73515
294.91838
295.0954
295.26598
295.42995
295.58719
295.73764
295.88131
296.01825
296.14853
296.27229
296.38966
296.50082
296.60593
296.70517
296.79871
296.88671
296.96931
297.04664
297.1188
297.18588
297.24794
297.30504
297.35726
297.40469
297.44755
297.48617
297.52104
297.55291
297.58275
297.61181
297.64157
297.67347
297.70839
297.74581
297.78353
297.81998
297.85607
297.8916
297.9433
293.96755
285.21252
289.0749
287.0789
288.39211
287.85343
288.35314
288.30687
288.53215
288.64944
288.81222
288.96822
289.13254
289.30231
289.47781
289.65904
289.84589
290.03825
290.23595
290.43876
290.64642
290.8586
291.07493
291.29497
291.51822
291.74414
291.97214
292.20156
292.43174
292.66195
292.89146
293.11953
293.34542
293.56838
293.78772
294.00276
294.21287
294.4175
294.61612
294.80832
294.99374
295.17209
295.34317
295.50686
295.6631
295.81191
295.95335
296.08754
296.21465
296.33487
296.44843
296.55556
296.65652
296.75154
296.84086
296.92471
297.0033
297.07679
297.14535
297.2091
297.26815
297.32258
297.37247
297.4179
297.45901
297.49601
297.52928
297.55933
297.58689
297.61287
297.63839
297.66474
297.69325
297.72474
297.75872
297.79334
297.82734
297.85985
297.89193
297.94848
293.81433
285.03804
288.96465
286.96158
288.29116
287.78002
288.2793
288.24429
288.4991
288.63776
288.81213
288.98444
289.16437
289.35046
289.54271
289.74103
289.94527
290.15522
290.3706
290.5911
290.81634
291.04585
291.27913
291.5156
291.75461
291.99547
292.23744
292.47973
292.72152
292.96197
293.20024
293.4355
293.66694
293.89377
294.11529
294.33082
294.53977
294.74164
294.936
295.12253
295.30099
295.47124
295.63321
295.78693
295.93248
296.07003
296.19979
296.322
296.43695
296.54496
296.64633
296.74141
296.8305
296.91392
296.99196
297.06488
297.13291
297.19627
297.25512
297.30961
297.35985
297.40595
297.44798
297.48604
297.52028
297.55094
297.57839
297.60318
297.62601
297.64773
297.6693
297.69181
297.7164
297.74387
297.77387
297.80518
297.83654
297.86518
297.89422
297.95403
293.68462
284.90409
288.88749
286.87931
288.23823
287.77374
288.26802
288.29283
288.5199
288.67906
288.86855
289.0597
289.25817
289.46332
289.67498
289.89297
290.11706
290.34691
290.58214
290.82229
291.06683
291.31512
291.56651
291.82021
292.07543
292.33129
292.58688
292.84125
293.09345
293.34252
293.58754
293.82759
294.06184
294.28951
294.5099
294.72242
294.92656
295.12194
295.30827
295.48539
295.65321
295.81179
295.96122
296.10172
296.23353
296.35698
296.47243
296.58026
296.68088
296.7747
296.86212
296.94354
297.01935
297.0899
297.15552
297.2165
297.27309
297.32551
297.37394
297.41853
297.4594
297.49664
297.53034
297.56061
297.58759
297.61154
297.63283
297.65203
297.66981
297.68696
297.70427
297.7226
297.74286
297.76575
297.79129
297.81907
297.8476
297.87227
297.89865
297.96014
293.57741
284.81259
288.84892
286.84554
288.2393
287.81094
288.30289
288.35343
288.59677
288.78202
288.99016
289.20276
289.42278
289.64986
289.88375
290.12414
290.37065
290.62279
290.88002
291.14169
291.40706
291.67531
291.94555
292.21681
292.48806
292.75824
293.02627
293.29104
293.55147
293.80651
294.05518
294.29656
294.52983
294.75428
294.9693
295.17444
295.36935
295.55384
295.72782
295.89133
296.04453
296.18766
296.32104
296.44506
296.56017
296.66684
296.76556
296.85686
296.94124
297.01919
297.09119
297.15769
297.21911
297.27584
297.32821
297.37654
297.42106
297.46201
297.49956
297.53385
297.56498
297.59306
297.61816
297.64037
297.65987
297.67688
297.69181
297.70518
297.71769
297.73003
297.74287
297.7568
297.77243
297.79034
297.81101
297.83499
297.8604
297.88109
297.90537
297.96708
293.49601
284.771
288.85465
286.92788
288.29832
287.90987
288.39444
288.49054
288.74235
288.95518
289.18599
289.42314
289.66801
289.92022
290.17941
290.44507
290.71665
290.99345
291.27469
291.55947
291.84682
292.13566
292.42482
292.7131
292.99925
293.28201
293.56011
293.83232
294.09749
294.35453
294.60245
294.84042
295.06771
295.28376
295.48819
295.68073
295.8613
296.02996
296.18689
296.33239
296.46688
296.59082
296.70476
296.80928
296.90499
296.99253
297.07249
297.14551
297.21215
297.27297
297.32849
297.37919
297.4255
297.46781
297.50646
297.54174
297.57389
297.60312
297.62959
297.65341
297.67469
297.6935
297.7099
297.724
297.73593
297.74595
297.75442
297.76187
297.76897
297.77637
297.78461
297.79403
297.80489
297.81754
297.83302
297.85285
297.87471
297.89145
297.91447
297.97482
293.44679
284.79254
288.91298
287.06461
288.40439
288.07758
288.55583
288.69659
288.96531
289.20839
289.46624
289.73157
290.00495
290.2858
290.57356
290.8675
291.16677
291.47042
291.77733
292.08632
292.39606
292.70518
293.01223
293.31574
293.61424
293.90627
294.19046
294.46552
294.73028
294.98371
295.22496
295.45336
295.66843
295.86987
296.05759
296.23166
296.39233
296.53997
296.67508
296.79825
296.91015
297.01148
297.10301
297.18547
297.25962
297.3262
297.38591
297.43942
297.48735
297.53028
297.56874
297.60321
297.63411
297.6618
297.6866
297.70878
297.72857
297.74612
297.76157
297.77502
297.78654
297.79618
297.804
297.81008
297.81455
297.81764
297.8197
297.82124
297.8229
297.8253
297.82889
297.83379
297.83987
297.8472
297.85728
297.87251
297.89024
297.90316
297.92577
297.9837
293.43486
284.88345
289.0343
287.24943
288.57343
288.32107
288.79553
288.98495
289.27605
289.55268
289.84236
290.14015
290.44618
290.75953
291.07934
291.40455
291.73393
292.06613
292.39965
292.73289
293.06418
293.39179
293.71399
294.02905
294.33534
294.6313
294.91552
295.18677
295.44402
295.68646
295.91353
296.12487
296.32039
296.5002
296.6646
296.81409
296.94927
297.07088
297.17974
297.27674
297.36276
297.43873
297.50555
297.5641
297.61522
297.65971
297.69832
297.73173
297.76057
297.7854
297.80673
297.82501
297.84061
297.85388
297.86508
297.87444
297.88215
297.88833
297.89309
297.89648
297.89855
297.89933
297.89886
297.89719
297.89444
297.89081
297.88664
297.88239
297.87868
297.87609
297.87504
297.8755
297.87691
297.87905
297.8837
297.89379
297.90669
297.91616
297.93889
297.99497
293.46216
285.0511
289.22381
287.5206
288.81693
288.64813
289.12398
289.36522
289.68637
290.00113
290.32813
290.66342
291.00672
291.35667
291.71195
292.07101
292.43213
292.79346
293.15303
293.50881
293.85873
294.20074
294.53286
294.85321
295.16009
295.45201
295.72771
295.98622
296.22687
296.44926
296.6533
296.83916
297.00725
297.15817
297.29273
297.41183
297.5165
297.60779
297.68682
297.75468
297.81248
297.86125
297.902
297.93567
297.96313
297.98519
298.00259
298.01597
298.02594
298.03301
298.03763
298.04019
298.04104
298.04043
298.0386
298.03572
298.03192
298.02729
298.02189
298.01574
298.00886
298.00125
297.99292
297.98391
297.97432
297.96432
297.9542
297.94439
297.93545
297.92798
297.92237
297.91847
297.91543
297.9127
297.91207
297.91645
297.92374
297.93043
297.95412
298.00722
293.53346
285.30842
289.48499
287.87796
289.14678
289.07027
289.55487
289.85213
290.21186
290.57069
290.94121
291.31954
291.70483
292.09512
292.48846
292.88267
293.27544
293.66435
294.04693
294.42069
294.78323
295.13226
295.4657
295.78172
296.07882
296.35581
296.6119
296.84665
297.05999
297.25218
297.42378
297.57559
297.70862
297.82401
297.92304
298.00702
298.07729
298.1352
298.18204
298.21907
298.24746
298.26833
298.28269
298.29147
298.29552
298.29559
298.29236
298.28643
298.27831
298.26845
298.25722
298.24496
298.23192
298.21831
298.20429
298.18998
298.17546
298.16078
298.14594
298.13094
298.11575
298.10035
298.08473
298.06891
298.05296
298.03702
298.02134
298.0063
297.99239
297.98019
297.97012
297.96197
297.95473
297.94762
297.94206
297.94036
297.94118
297.94537
297.97111
298.0181
293.65314
285.67372
289.81463
288.33621
289.57653
289.60265
290.10626
290.46535
290.87329
291.2833
291.70375
292.13039
292.56152
292.99443
293.42641
293.85456
294.27587
294.68732
295.08596
295.46898
295.8338
296.17817
296.50024
296.7986
297.07231
297.3209
297.54437
297.74311
297.91789
298.06978
298.20007
298.31024
298.40185
298.47655
298.53597
298.58174
298.61541
298.63846
298.65228
298.65816
298.65727
298.65069
298.63937
298.62418
298.60587
298.58511
298.56248
298.53848
298.51353
298.48799
298.46215
298.43625
298.41048
298.38496
298.35981
298.33508
298.3108
298.28696
298.26353
298.24048
298.21774
298.19526
298.17301
298.15099
298.12923
298.10787
298.08709
298.0672
298.04864
298.03195
298.01756
298.00527
297.99407
297.98312
297.97319
297.96536
297.95898
297.9601
297.98827
298.0293
293.82575
286.17604
290.21786
288.91283
290.12722
290.2683
290.80376
291.23173
291.69751
292.16569
292.64153
293.12012
293.59868
294.07359
294.54122
294.99782
295.43971
295.86337
296.2656
296.64358
296.99504
297.31827
297.61219
297.87632
298.11077
298.31616
298.49357
298.64442
298.7704
298.8734
298.9554
299.01843
299.06449
299.09555
299.11347
299.11998
299.11673
299.10519
299.08671
299.0625
299.03366
299.00114
298.96578
298.92832
298.88938
298.84952
298.8092
298.76879
298.72862
298.68895
298.64997
298.61184
298.57466
298.53851
298.50342
298.46939
298.4364
298.40439
298.37331
298.34307
298.31359
298.2848
298.25663
298.22906
298.20212
298.17588
298.1505
298.12622
298.10341
298.08254
298.06399
298.04764
298.0327
298.01844
298.00476
297.99106
297.97727
297.97465
298.00481
298.04145
294.06235
286.86213
290.73864
289.63874
290.82952
291.09828
291.67971
292.18341
292.71534
293.24729
293.78171
294.31277
294.83629
295.3475
295.84175
296.31457
296.76187
297.18012
297.56649
297.91892
298.23617
298.5178
298.76413
298.97613
299.1553
299.30358
299.4232
299.51658
299.58624
299.63469
299.66441
299.67774
299.67691
299.66397
299.64081
299.60914
299.57049
299.52622
299.47753
299.42549
299.37102
299.3149
299.25783
299.20037
299.14302
299.08619
299.03019
298.97531
298.92175
298.86966
298.81917
298.77033
298.72318
298.67773
298.63396
298.5918
298.5512
298.51206
298.47428
298.43776
298.40238
298.36805
298.3347
298.30226
298.27075
298.2402
298.21074
298.18255
298.15591
298.13121
298.10874
298.08846
298.06996
298.05278
298.03592
298.01694
297.99625
297.98933
298.01959
298.05399
294.38929
287.71977
291.40361
290.55114
291.72102
292.12722
292.77011
293.35611
293.96053
294.55905
295.1509
295.72897
296.28744
296.82048
297.32281
297.78992
298.21825
298.60532
298.94973
299.25119
299.51035
299.72869
299.90838
300.05205
300.16266
300.24335
300.2973
300.32767
300.33746
300.32952
300.30648
300.27076
300.22452
300.1697
300.10804
300.04104
299.97003
299.89616
299.82041
299.74362
299.66652
299.58971
299.51368
299.43885
299.36556
299.29408
299.2246
299.15729
299.09224
299.02952
298.96916
298.91116
298.85549
298.80208
298.75087
298.70176
298.65463
298.60937
298.56585
298.52393
298.48348
298.44439
298.40655
298.36991
298.33443
298.30014
298.26711
298.23548
298.20545
298.1773
298.1512
298.12719
298.10529
298.08539
298.06578
298.0425
298.01613
298.00475
298.03297
298.06574
294.84675
288.68582
292.25527
291.68523
292.84524
293.39659
294.11744
294.79141
295.46995
296.1307
296.76925
297.3772
297.94777
298.47504
298.95452
299.3832
299.7596
300.08368
300.35667
300.58086
300.75931
300.89566
300.99386
301.05799
301.09212
301.10015
301.08578
301.05243
301.0032
300.9409
300.86801
300.78672
300.69894
300.60634
300.51035
300.41219
300.31289
300.21335
300.11428
300.01631
299.91994
299.82556
299.73352
299.64406
299.55737
299.47359
299.39281
299.31509
299.24043
299.16881
299.1002
299.03453
298.9717
298.91163
298.85417
298.79921
298.74659
298.69618
298.64781
298.60132
298.55658
298.51345
298.47181
298.43157
298.3927
298.35518
298.31905
298.28442
298.25142
298.2202
298.19081
298.16337
298.13824
298.11563
298.09351
298.06709
298.0368
298.02124
298.04415
298.07439
295.49001
289.93429
293.34049
293.09251
294.2623
294.96412
295.77399
296.53369
297.27516
297.9778
298.63454
299.23719
299.78008
300.25955
300.67413
301.02431
301.31223
301.54137
301.71618
301.84165
301.92309
301.96583
301.97505
301.95563
301.91208
301.84848
301.76849
301.67532
301.57179
301.46035
301.34309
301.2218
301.09799
300.97295
300.84775
300.72327
300.60025
300.47929
300.36088
300.24539
300.13314
300.02434
299.91916
299.81771
299.72006
299.62623
299.53622
299.44998
299.36745
299.28855
299.21318
299.1412
299.0725
299.00693
298.94433
298.88453
298.82737
298.77268
298.72028
298.66999
298.62166
298.57514
298.5303
298.48703
298.44527
298.40498
298.36618
298.32893
298.29331
298.25937
298.22707
298.19657
298.16844
298.14301
298.11833
298.08971
298.05757
298.0388
298.05387
298.07634
296.376
291.52417
294.74393
294.85208
296.05061
296.89687
297.78734
298.60894
299.37761
300.07662
300.6998
301.24251
301.70353
302.08428
302.38839
302.62118
302.78903
302.89895
302.95806
302.97336
302.95145
302.89841
302.81973
302.72027
302.60426
302.4754
302.33682
302.1912
302.04079
301.88749
301.73288
301.57824
301.42466
301.27301
301.124
300.97819
300.83603
300.69786
300.56393
300.43444
300.3095
300.1892
300.07355
299.96255
299.85616
299.75431
299.65692
299.56387
299.47504
299.39029
299.30947
299.23242
299.15897
299.08895
299.02216
298.95843
298.89755
298.83936
298.78364
298.73023
298.67893
298.6296
298.58208
298.53627
298.49206
298.4494
298.40829
298.36874
298.3308
298.29442
298.25957
298.22643
298.19556
298.16723
298.13967
298.10916
298.07651
298.05551
298.06141
298.07132
297.48907
293.57946
296.57074
297.04727
298.27671
299.23893
300.16543
300.98945
301.71753
302.34106
302.86009
303.27754
303.59948
303.83404
303.99052
304.07873
304.10836
304.0886
304.02789
303.9338
303.81296
303.67109
303.51311
303.34312
303.1646
302.98041
302.79293
302.60411
302.41552
302.22847
302.04397
301.86285
301.68577
301.51321
301.34557
301.18312
301.02605
300.8745
300.72854
300.58818
300.45341
300.32417
300.20039
300.08196
299.96876
299.86065
299.75748
299.65908
299.56529
299.47593
299.3908
299.30972
299.23248
299.15889
299.08875
299.02184
298.95797
298.89694
298.83853
298.78255
298.72882
298.67716
298.62742
298.57946
298.53317
298.48848
298.44535
298.40376
298.36372
298.32516
298.28805
298.25261
298.21931
298.18812
298.15735
298.12464
298.09212
298.07031
298.06718
298.06381
299.00049
296.21256
298.91665
299.73198
300.93776
301.96057
302.83457
303.56424
304.1587
304.62185
304.96414
305.19795
305.33707
305.39541
305.38623
305.32172
305.21267
305.06847
304.89709
304.70522
304.49841
304.28122
304.05736
303.82984
303.60108
303.373
303.14716
302.92475
302.70671
302.49378
302.2865
302.08528
301.8904
301.70207
301.52038
301.3454
301.17712
301.0155
300.86046
300.71191
300.5697
300.4337
300.30374
300.17965
300.06125
299.94834
299.84072
299.7382
299.64056
299.5476
299.4591
299.37484
299.29461
299.2182
299.14538
299.07593
299.00965
298.94632
298.88572
298.82765
298.77191
298.71833
298.66673
298.61696
298.56889
298.52244
298.47752
298.43412
298.39217
298.35162
298.31249
298.275
298.23947
298.20559
298.17178
298.13677
298.10405
298.08288
298.07436
298.0503
300.957
299.49387
301.77966
302.88221
304.05802
304.91653
305.61804
306.14124
306.50856
306.73839
306.85189
306.86914
306.80864
306.68667
306.5171
306.31152
306.07945
305.82856
305.56502
305.29373
305.01854
304.74248
304.4679
304.19663
303.93006
303.66924
303.41496
303.16781
302.92817
302.69632
302.47243
302.25657
302.04875
301.84892
301.65701
301.47289
301.29642
301.12743
300.96573
300.81113
300.66342
300.52239
300.38782
300.25948
300.13715
300.0206
299.90959
299.8039
299.70329
299.60754
299.5164
299.42966
299.34707
299.26841
299.19345
299.12197
299.05374
298.98854
298.92614
298.86635
298.80896
298.75376
298.70059
298.64927
298.59967
298.55167
298.50517
298.46012
298.41644
298.37409
298.33311
298.29372
298.25607
298.21974
298.18348
298.14675
298.11302
298.08941
298.07492
298.04303
303.38458
303.41175
305.40444
306.37108
307.25953
307.86649
308.27046
308.49254
308.569
308.52934
308.40025
308.20375
307.95776
307.67655
307.37126
307.05053
306.72099
306.38767
306.05439
305.72401
305.39866
305.07992
304.76891
304.46644
304.17307
303.88915
303.61487
303.35034
303.09555
302.85044
302.61488
302.38872
302.17177
301.96381
301.76463
301.57399
301.39163
301.2173
301.05075
300.89172
300.73995
300.59518
300.45714
300.32559
300.20026
300.08091
299.96727
299.85911
299.75616
299.65819
299.56496
299.47621
299.39171
299.31123
299.23452
299.16136
299.09152
299.02476
298.96087
298.89963
298.84082
298.78425
298.72972
298.67706
298.6261
298.57672
298.52881
298.48227
298.43702
298.39302
298.35033
298.30911
298.26944
298.23092
298.19273
298.15487
298.1202
298.09337
298.0721
298.03661
306.42641
307.8075
309.12656
309.82336
310.2983
310.5068
310.53078
310.41182
310.19034
309.89652
309.55362
309.17896
308.78532
308.38202
307.97583
307.5716
307.17278
306.78182
306.4004
306.02965
305.67029
305.32277
304.9873
304.66395
304.35264
304.05325
303.76556
303.48935
303.22432
302.9702
302.72666
302.49341
302.27011
302.05645
301.85212
301.65679
301.47016
301.29192
301.12176
300.95939
300.80451
300.65684
300.51609
300.38199
300.25426
300.13263
300.01684
299.90662
299.80173
299.7019
299.60688
299.51643
299.43031
299.34825
299.27004
299.19543
299.12419
299.05609
298.99089
298.92838
298.86833
298.81054
298.75482
298.70096
298.6488
298.59819
298.549
298.50111
298.45444
298.40895
298.36466
298.32168
298.28007
298.23965
298.20004
298.1614
298.12563
298.09528
298.06728
298.02982
310.34799
312.12331
312.6604
312.84583
312.79182
312.5595
312.21087
311.78804
311.32097
310.83021
310.32971
309.82885
309.33388
308.84889
308.37649
307.91832
307.4753
307.0479
306.63624
306.24025
305.8597
305.49427
305.14357
304.80718
304.48465
304.17552
303.87934
303.59566
303.32404
303.06404
302.81524
302.57724
302.34963
302.13204
301.92408
301.72542
301.53568
301.35454
301.18166
301.01673
300.85943
300.70947
300.56654
300.43036
300.30064
300.17711
300.0595
299.94754
299.84097
299.73954
299.64298
299.55105
299.46349
299.38007
299.30055
299.22467
299.15221
299.08293
299.0166
298.95299
298.89187
298.83303
298.77626
298.72137
298.66816
298.61646
298.56614
298.51706
298.46915
298.42236
298.37664
298.33203
298.28858
298.2464
298.20563
298.16654
298.12962
298.09507
298.06128
298.02357
315.27933
315.64786
315.37885
315.01212
314.49226
313.90244
313.27799
312.64433
312.01554
311.40015
310.80289
310.22631
309.67157
309.139
308.6284
308.1393
307.67105
307.22288
306.79402
306.38366
305.99101
305.61531
305.25583
304.91187
304.58276
304.26787
303.9666
303.67839
303.40269
303.139
302.88683
302.64573
302.41525
302.19497
301.98451
301.78346
301.59147
301.40818
301.23324
301.06633
300.90713
300.75533
300.61062
300.47271
300.34133
300.21618
300.097
299.98352
299.87547
299.7726
299.67466
299.58138
299.49253
299.40786
299.32712
299.25008
299.1765
299.10614
299.03876
298.97414
298.91204
298.85225
298.79454
298.73871
298.68456
298.63191
298.58059
298.53049
298.48152
298.43361
298.38667
298.34067
298.29574
298.25225
298.21064
298.1709
298.13234
298.09402
298.05577
298.0188
317.2652
317.43135
316.8593
316.10094
315.32567
314.5495
313.79258
313.06246
312.36255
311.69383
311.05598
310.44804
309.86874
309.31667
308.7904
308.28855
307.80978
307.35283
306.91654
306.4998
306.10162
305.72106
305.35724
305.00936
304.67666
304.35846
304.05409
303.76296
303.48448
303.21813
302.9634
302.71981
302.4869
302.26426
302.05148
301.84815
301.65392
301.46841
301.29129
301.12223
300.9609
300.807
300.66022
300.52027
300.38686
300.25973
300.13858
300.02317
299.91323
299.80851
299.70874
299.61368
299.52309
299.43673
299.35434
299.2757
299.20057
299.12872
299.05991
298.9939
298.93049
298.86943
298.81053
298.75355
298.69831
298.6446
298.59227
298.54119
298.49128
298.44242
298.39449
298.34743
298.30142
298.25703
298.2148
298.17447
298.13458
298.09362
298.05262
298.01652
310.71901
309.4922
305.8888
303.06839
301.81559
301.53208
301.46476
301.46093
301.35145
301.29385
301.18958
301.12242
301.03528
300.95214
300.86751
300.7819
300.69559
300.60856
300.52083
300.43244
300.34349
300.2541
300.16439
300.0745
299.98458
299.89476
299.80519
299.71601
299.62737
299.53939
299.45223
299.366
299.28084
299.19688
299.11424
299.03306
298.95346
298.87556
298.79949
298.72538
298.65336
298.58355
298.51608
298.45109
298.38871
298.32906
298.27228
298.21849
298.16782
298.1204
298.07634
298.03574
297.99872
297.96537
297.93576
297.90994
297.88797
297.86985
297.85557
297.84509
297.83839
297.83535
297.83581
297.83947
297.8461
297.85501
297.86608
297.87733
297.89007
297.89812
297.90917
297.90469
297.91406
297.88835
297.91184
297.87035
297.93724
297.91052
298.01051
298.01385
309.99891
307.11947
303.05731
301.04466
300.48583
300.48682
300.58552
300.59574
300.58998
300.56435
300.54131
300.50361
300.46138
300.41374
300.36238
300.30741
300.24917
300.18788
300.12388
300.05747
299.98895
299.91858
299.84662
299.77332
299.69891
299.62361
299.54765
299.47122
299.39454
299.31779
299.24117
299.16486
299.08904
299.0139
298.93959
298.86629
298.79418
298.7234
298.65412
298.58651
298.52071
298.45689
298.39519
298.33578
298.27881
298.22442
298.17276
298.12397
298.07819
298.03555
297.99617
297.96016
297.92763
297.89867
297.87335
297.85172
297.83382
297.81964
297.80917
297.80234
297.79913
297.79939
297.80294
297.80948
297.81872
297.83001
297.8431
297.8562
297.87025
297.87974
297.89126
297.88822
297.89741
297.87447
297.89805
297.86149
297.92944
297.90482
298.01023
298.00651
308.61891
305.11261
302.10927
300.42534
300.10356
300.14311
300.17637
300.14986
300.12163
300.08896
300.05735
300.02266
299.9863
299.94716
299.90587
299.86217
299.81632
299.7683
299.71819
299.66608
299.61209
299.55633
299.49892
299.44002
299.37975
299.31829
299.25579
299.19241
299.12834
299.06375
298.99882
298.93373
298.86867
298.80381
298.73935
298.67547
298.61236
298.5502
298.48917
298.42946
298.37124
298.3147
298.26001
298.20735
298.15689
298.10879
298.06323
298.02035
297.9803
297.94322
297.90926
297.87851
297.8511
297.82711
297.80662
297.78966
297.77627
297.76644
297.76013
297.75729
297.75785
297.76167
297.76854
297.77815
297.79018
297.80398
297.81926
297.83429
297.84982
297.86073
297.87303
297.87137
297.8808
297.86028
297.88443
297.85309
297.9217
297.89933
298.00927
297.99969
307.48352
303.72314
300.93819
299.67652
299.63531
299.6497
299.66717
299.63131
299.61372
299.58514
299.56192
299.5334
299.5048
299.47419
299.44245
299.4091
299.3743
299.33789
299.29987
299.26026
299.21906
299.17631
299.13206
299.08636
299.03929
298.99094
298.94143
298.89085
298.83935
298.78706
298.73414
298.68073
298.62702
298.57315
298.51933
298.46572
298.41252
298.35991
298.30808
298.25723
298.20756
298.15925
298.1125
298.06749
298.02442
297.98347
297.94481
297.90861
297.87503
297.84422
297.81632
297.79146
297.76975
297.75126
297.73608
297.72426
297.7158
297.71069
297.7089
297.71034
297.71495
297.72257
297.73297
297.74584
297.76081
297.77727
297.79483
297.81187
297.82898
297.84134
297.85462
297.85437
297.86429
297.84627
297.87126
297.84519
297.91467
297.89397
298.00752
297.9934
306.82241
302.53965
299.99821
299.05951
299.14102
299.11428
299.14206
299.10576
299.10028
299.07663
299.06235
299.04134
299.02176
299.00031
298.97822
298.95486
298.93042
298.90471
298.87773
298.84943
298.8198
298.78883
298.75651
298.72288
298.68795
298.65179
298.61444
298.57599
298.53653
298.49615
298.45497
298.41313
298.37075
298.328
298.28502
298.24199
298.19908
298.15648
298.11437
298.07295
298.03241
297.99295
297.95476
297.91806
297.88303
297.84986
297.81873
297.78983
297.76332
297.73935
297.71808
297.69963
297.6841
297.67159
297.66216
297.65587
297.65271
297.65268
297.6557
297.66171
297.67061
297.68225
297.69637
297.71265
297.73071
297.74992
297.76987
297.78901
297.80777
297.82164
297.83602
297.83726
297.84798
297.83258
297.85863
297.83716
297.90802
297.88876
298.00533
297.98752
306.26901
301.37416
299.21259
298.46764
298.62
298.56406
298.61191
298.57616
298.58565
298.56868
298.56549
298.55316
298.54337
298.53139
298.51902
298.5055
298.49099
298.47535
298.45859
298.44068
298.42159
298.4013
298.37982
298.35714
298.33328
298.30825
298.28211
298.25489
298.22665
298.19748
298.16745
298.13668
298.10526
298.07333
298.04102
298.00848
297.97588
297.94337
297.91115
297.87938
297.84827
297.81801
297.78878
297.7608
297.73425
297.70932
297.6862
297.66508
297.64611
297.62946
297.61527
297.60366
297.59475
297.58862
297.58533
297.58493
297.58741
297.59274
297.60085
297.61167
297.6251
297.64094
297.65895
297.67878
297.70004
297.72212
297.74453
297.76582
297.78629
297.80175
297.81726
297.82008
297.83196
297.81916
297.84636
297.82913
297.90142
297.88374
298.00278
297.98191
305.70837
300.35469
298.58058
297.93162
298.13044
298.04871
298.11604
298.07863
298.10046
298.08789
298.0936
298.08833
298.08639
298.08201
298.07752
298.07208
298.06583
298.05868
298.05061
298.04159
298.0316
298.0206
298.00858
297.99553
297.98145
297.96635
297.95025
297.93317
297.91515
297.89625
297.87653
297.85606
297.83495
297.81328
297.79118
297.76878
297.74621
297.72363
297.7012
297.67908
297.65746
297.63652
297.61643
297.5974
297.5796
297.56322
297.54844
297.53544
297.52438
297.5154
297.50866
297.50427
297.50233
297.50291
297.50609
297.51187
297.52027
297.53123
297.54468
297.56053
297.57866
297.59888
297.62091
297.64441
297.66897
297.69398
297.71892
297.74243
297.76465
297.78175
297.79843
297.80292
297.81624
297.80599
297.83456
297.82123
297.89506
297.8789
297.99993
297.97706
305.24859
299.42482
298.0492
297.4427
297.67939
297.57258