/*--------------------------------*- C++ -*----------------------------------*\
  =========                 |
  \\      /  F ield         | OpenFOAM: The Open Source CFD Toolbox
   \\    /   O peration     | Website:  https://openfoam.org
    \\  /    A nd           | Version:  12
     \\/     M anipulation  |
\*---------------------------------------------------------------------------*/
FoamFile
{
    format      ascii;
    class       volVectorField;
    location    "0.084";
    object      U;
}
// * * * * * * * * * * * * * * * * * * * * * * * * * * * * * * * * * * * * * //

dimensions      [0 1 -1 0 0 0 0];

internalField   nonuniform List<vector> 
16000
(
(214.42475 -3.1502936e-17 -8.3155047)
(251.13987 0 5.3380477)
(237.27849 0 -7.5112431)
(244.95092 4.9876005e-17 3.7580176)
(240.29701 -4.9227836e-17 -5.9044405)
(242.48516 0 1.7412478)
(240.70493 0 -4.2877301)
(241.20545 8.4263825e-17 -0.02542674)
(240.37108 -8.0057129e-17 -3.1285587)
(240.24954 0 -1.252297)
(239.73886 7.2336055e-17 -2.5374304)
(239.39308 -2.060856e-16 -1.9603429)
(238.95179 1.3043977e-16 -2.3939027)
(238.52526 -1.2407529e-16 -2.3296014)
(238.07082 1.177242e-16 -2.4874307)
(237.60261 -3.4921347e-18 -2.5564877)
(237.11591 -3.3173501e-18 -2.6566783)
(236.61164 -9.7886168e-17 -2.7460016)
(236.08926 1.9177994e-16 -2.8368762)
(235.54867 -9.0992107e-17 -2.9253406)
(234.9897 1.7307315e-16 -3.0117714)
(234.41232 -1.6406059e-16 -3.0954658)
(233.81654 0 -3.1759211)
(233.20245 1.5270614e-16 -3.2525514)
(232.57026 -4.1367816e-18 -3.3247636)
(231.92028 -2.6651455e-16 -3.3919328)
(231.25292 1.2631826e-16 -3.4534283)
(230.56871 0 -3.5086069)
(229.86832 0 -3.5568299)
(229.15254 2.1935384e-16 -3.5974677)
(228.4223 -2.0438167e-16 -3.6299141)
(227.67867 0 -3.6535947)
(226.92284 0 -3.6679785)
(226.15613 0 -3.6725922)
(225.38002 5.1557415e-18 -3.6670299)
(224.59607 1.564603e-16 -3.6509653)
(223.80596 -1.4322842e-16 -3.624163)
(223.01147 -1.4027239e-16 -3.5864853)
(222.21445 1.2420469e-16 -3.5379025)
(221.41682 0 -3.4784991)
(220.62053 -1.1886384e-16 -3.4084759)
(219.82755 1.1219594e-16 -3.3281543)
(219.03983 -2.1261796e-16 -3.237974)
(218.25931 2.0060284e-16 -3.1384905)
(217.48788 -1.9590499e-16 -3.0303693)
(216.72732 3.5866916e-16 -2.9143752)
(215.97936 5.612011e-18 -2.7913619)
(215.24558 2.9139122e-19 -2.6622576)
(214.52747 -1.5095946e-16 -2.5280491)
(213.82636 1.4276432e-16 -2.3897668)
(213.14343 -1.2610704e-16 -2.2484695)
(212.47971 0 -2.1052284)
(211.83609 7.4943133e-18 -1.9611145)
(211.21328 0 -1.8171827)
(210.61189 6.6686017e-18 -1.6744593)
(210.03233 2.0763985e-16 -1.5339334)
(209.47492 -3.7950909e-16 -1.3965481)
(208.93986 1.0965223e-17 -1.2631916)
(208.4272 1.6863163e-16 -1.1346889)
(207.93688 -1.4925008e-16 -1.0118082)
(207.46873 1.4058383e-16 -0.89523884)
(207.02258 -8.845394e-18 -0.7856396)
(206.59835 0 -0.68359281)
(206.19585 0 -0.58960171)
(205.81479 -1.114421e-16 -0.50406671)
(205.45454 1.1211729e-16 -0.42721257)
(205.11383 -9.933028e-17 -0.35900158)
(204.79055 1.9386883e-16 -0.29904252)
(204.48166 -1.8917349e-16 -0.24654279)
(204.1833 8.38541e-17 -0.2003265)
(203.8911 5.2941556e-18 -0.15896705)
(203.60025 0 -0.12104942)
(203.30564 4.7583562e-18 -0.085196908)
(203.00205 -4.5191856e-18 -0.049871411)
(202.68408 0 -0.012947244)
(202.35498 -3.3785335e-17 0.024203989)
(201.95643 6.2523446e-17 0.050003798)
(201.71515 -3.1769747e-17 0.15554323)
(201.0196 0 -0.0014787931)
(201.14877 0 0.48355724)
(215.7299 0 -11.12145)
(252.77202 -3.7407343e-18 3.3043738)
(238.27521 -1.2019834e-16 -10.423838)
(246.4063 1.1083324e-16 1.6789579)
(241.39763 0 -8.7566963)
(243.81792 1.0196746e-16 -0.40764213)
(241.83314 -1.882897e-16 -7.0234216)
(242.42317 -1.0121955e-19 -2.295984)
(241.49731 8.4855087e-17 -5.7091066)
(241.37707 0 -3.6398237)
(240.82577 -1.5327385e-16 -5.003034)
(240.45143 1.4993198e-16 -4.3928271)
(239.97843 1.4259608e-16 -4.813033)
(239.51786 -2.6249931e-16 -4.7491944)
(239.02925 1.2067235e-16 -4.8869934)
(238.52504 1.1093748e-17 -4.9486316)
(238.00135 1.160036e-16 -5.0332501)
(237.45883 -1.0331541e-16 -5.108827)
(236.89707 0 -5.1836501)
(236.316 0 -5.2550227)
(235.71555 5.7007761e-18 -5.3228222)
(235.09576 -1.7883347e-16 -5.3863368)
(234.45675 3.391011e-16 -5.4449311)
(233.79877 -3.168599e-16 -5.4979208)
(233.12214 1.4321772e-16 -5.5446078)
(232.42735 0 -5.5842806)
(231.71498 1.2490331e-16 -5.61622)
(230.98577 -1.339355e-16 -5.6397148)
(230.24059 0 -5.6540686)
(229.48046 3.539223e-18 -5.6586121)
(228.70653 -1.3424252e-17 -5.6527146)
(227.92011 0 -5.6357994)
(227.12264 0 -5.6073521)
(226.31569 -1.7128495e-16 -5.5669399)
(225.50097 3.4011229e-16 -5.5142209)
(224.68027 -1.6331849e-16 -5.4489566)
(223.85552 -1.5969878e-16 -5.3710248)
(223.02867 1.4616801e-16 -5.2804257)
(222.20178 -1.1257454e-16 -5.1772917)
(221.37691 -2.8142955e-19 -5.0618913)
(220.55614 -2.631647e-19 -4.9346314)
(219.74151 2.3365034e-16 -4.796056)
(218.93504 -1.1023882e-16 -4.6468425)
(218.13869 0 -4.4877935)
(217.35428 2.0310374e-16 -4.3198276)
(216.58358 1.1971803e-17 -4.1439652)
(215.82817 -5.1435306e-18 -3.9613115)
(215.08954 -1.6512335e-16 -3.7730402)
(214.36898 0 -3.5803734)
(213.66765 -1.4706351e-16 -3.3845643)
(212.98652 -8.8840968e-18 -3.186879)
(212.3264 2.6100407e-16 -2.9885778)
(211.68794 -1.3053265e-16 -2.7908999)
(211.07164 0 -2.5950472)
(210.47784 -2.045042e-17 -2.4021716)
(209.90678 -2.1189915e-16 -2.2133668)
(209.35853 3.6244779e-16 -2.0296595)
(208.83309 -2.1596729e-16 -1.8520016)
(208.33036 0 -1.6812625)
(207.8501 -1.7132391e-16 -1.5182361)
(207.39199 1.8003098e-16 -1.3636139)
(206.95573 2.6765025e-17 -1.2180352)
(206.5411 0 -1.0820548)
(206.14782 -1.4228422e-16 -0.95612174)
(205.77551 7.3461934e-18 -0.84056863)
(205.42345 1.1200035e-16 -0.73553908)
(205.09029 -1.9785204e-17 -0.64090642)
(204.77379 9.3213585e-17 -0.55618918)
(204.47079 -1.0535337e-16 -0.48050421)
(204.17733 5.519585e-18 -0.41258733)
(203.88894 -5.2071923e-18 -0.35095106)
(203.6008 0 -0.29416282)
(203.30787 -4.6445686e-18 -0.24079862)
(203.00528 4.3923709e-18 -0.1890504)
(202.68804 8.3177084e-18 -0.1378804)
(202.34785 9.8541479e-19 -0.090740627)
(201.98469 0 -0.035835892)
(201.64943 3.0245729e-17 0.040057554)
(201.10807 -5.7597765e-17 -0.03979911)
(201.03964 2.5864273e-17 0.36670219)
(216.90003 0 -13.999556)
(254.25149 -1.2304594e-16 1.0701568)
(239.23483 2.5086346e-16 -13.418739)
(247.66175 -2.2407298e-16 -0.56181491)
(242.39271 1.106562e-16 -11.679056)
(244.94907 -3.2766975e-18 -2.7439819)
(242.83736 9.9730601e-17 -9.8029672)
(243.45332 -9.4456317e-17 -4.7606077)
(242.47095 -5.6071234e-18 -8.351213)
(242.32764 -5.323912e-18 -6.190811)
(241.74134 -1.0113422e-17 -7.5652699)
(241.33134 1.3952796e-16 -6.9603622)
(240.82321 -1.4143285e-16 -7.3495872)
(240.3245 1.3880387e-16 -7.2925597)
(239.79718 -1.1924167e-16 -7.409057)
(239.25259 -1.5627897e-17 -7.4625688)
(238.6873 0 -7.531546)
(238.1019 -1.2336111e-20 -7.592221)
(237.4961 -2.2729203e-16 -7.649916)
(236.86991 -3.6297295e-19 -7.7026031)
(236.22339 1.7421297e-16 -7.7498464)
(235.55671 1.711192e-17 -7.7908504)
(234.87013 -2.1643918e-17 -7.8248596)
(234.16406 0 -7.8510856)
(233.43904 7.3914429e-21 -7.8687351)
(232.69572 -1.6613851e-16 -7.8770117)
(231.93493 1.4842787e-16 -7.8751294)
(231.15763 8.2838579e-18 -7.8623192)
(230.36496 0 -7.8378492)
(229.55818 -7.4314086e-18 -7.8010306)
(228.73874 -9.6447645e-22 -7.7512387)
(227.90823 -2.0002691e-16 -7.6879247)
(227.06837 2.0145499e-16 -7.610631)
(226.22103 1.1936243e-17 -7.51901)
(225.36819 -1.8069913e-16 -7.4128323)
(224.51192 1.4913464e-16 -7.2920043)
(223.65437 -1.8170627e-16 -7.1565759)
(222.79773 1.5230453e-16 -7.0067499)
(221.94422 -1.4419932e-16 -6.8428847)
(221.09607 1.3590228e-16 -6.6654994)
(220.25544 1.6067783e-17 -6.47527)
(219.42446 0 -6.2730226)
(218.60514 2.0042223e-16 -6.0597262)
(217.7994 -2.4259204e-16 -5.8364783)
(217.009 0 -5.6044886)
(216.23555 1.8003216e-16 -5.3650621)
(215.4805 -1.5798601e-16 -5.119575)
(214.7451 1.7044563e-16 -4.8694556)
(214.03043 -1.8028593e-16 -4.6161605)
(213.33738 0 -4.3611549)
(212.66665 1.7775779e-16 -4.105892)
(212.01877 -1.3359216e-16 -3.8517923)
(211.39409 0 -3.6002279)
(210.79283 0 -3.3525083)
(210.21506 1.2515313e-16 -3.1098667)
(209.66073 -2.0900714e-16 -2.8734563)
(209.1297 1.2268817e-16 -2.6443406)
(208.62172 1.8462671e-16 -2.4234889)
(208.13647 1.9292114e-19 -2.2117689)
(207.67355 1.7123327e-19 -2.0099554)
(207.23248 -3.249214e-16 -1.8187059)
(206.81281 8.9667859e-17 -1.6386044)
(206.41419 0 -1.4701481)
(206.03623 1.4248298e-16 -1.3137076)
(205.67845 -1.6343033e-16 -1.1695244)
(205.34002 1.116879e-16 -1.0376396)
(205.01948 1.3176395e-17 -0.91781292)
(204.71443 -8.6163085e-17 -0.80944329)
(204.42156 1.1568669e-17 -0.71152563)
(204.13682 2.1752256e-17 -0.62269347)
(203.85572 -1.022736e-16 -0.54141015)
(203.57347 9.6176217e-17 -0.46620366)
(203.28525 -7.2448103e-17 -0.39553047)
(202.98624 1.3645169e-16 -0.32770427)
(202.67064 -5.626132e-17 -0.26270657)
(202.33202 -6.0687651e-17 -0.20123058)
(201.97878 5.0138238e-17 -0.12979844)
(201.60424 0 -0.066951514)
(201.15197 3.2071912e-18 -0.079226507)
(200.95659 -1.2157018e-17 0.24203951)
(217.9146 0 -16.946526)
(255.58361 0 -1.2985235)
(239.98621 0 -16.547893)
(248.74415 1.0708688e-16 -2.9087955)
(243.20672 -1.2433399e-16 -14.73035)
(245.91786 -2.2144783e-16 -5.1974702)
(243.66442 2.1061145e-16 -12.699971)
(244.30895 -1.2474292e-17 -7.3516703)
(243.26262 5.9398357e-18 -11.103171)
(243.09209 -1.7466853e-16 -8.8724279)
(242.46613 1.7099991e-16 -10.238155)
(242.01496 1.0162327e-17 -9.6524117)
(241.46681 -1.5431284e-16 -10.002632)
(240.92465 1.3708129e-16 -9.9539427)
(240.3535 -1.3814583e-20 -10.047817)
(239.76341 -8.2207591e-18 -10.091211)
(239.15152 0 -10.142919)
(238.51838 -7.4209764e-18 -10.186233)
(237.86384 -2.1123557e-16 -10.224148)
(237.18802 2.1329283e-16 -10.255082)
(236.49111 1.2660471e-17 -10.278369)
(235.77344 -1.2003032e-17 -10.293128)
(235.03545 2.1628752e-16 -10.298503)
(234.27775 -1.7228606e-16 -10.293614)
(233.50109 1.0216768e-17 -10.27758)
(232.70638 1.9371728e-16 -10.249535)
(231.8947 -1.2814617e-16 -10.208631)
(231.06732 0 -10.154062)
(230.22565 1.480586e-16 -10.085075)
(229.37131 -1.2427908e-16 -10.000992)
(228.50607 2.5045368e-16 -9.9012219)
(227.63184 -1.3386842e-17 -9.7852861)
(226.75069 -2.1037286e-16 -9.6528295)
(225.86481 1.7447403e-16 -9.5036409)
(224.97647 -1.8795648e-16 -9.3376634)
(224.08802 -2.8786686e-20 -9.1550099)
(223.20186 2.1009907e-16 -8.9559689)
(222.32039 -3.1707035e-16 -8.7410095)
(221.44598 9.3320678e-17 -8.5107832)
(220.58095 3.5327716e-17 -8.2661188)
(219.72753 -4.9954139e-17 -8.008017)
(218.88783 0 -7.7376351)
(218.06381 -8.8879691e-17 -7.456273)
(217.25725 1.3920617e-16 -7.1653515)
(216.46976 -2.1017368e-16 -6.8663914)
(215.70273 1.974803e-16 -6.5609897)
(214.95734 -2.0944458e-16 -6.2507916)
(214.23458 3.938168e-16 -5.937467)
(213.53519 -3.0861455e-16 -5.6226859)
(212.85974 3.0946123e-16 -5.3080945)
(212.20858 -1.4525033e-16 -4.9952947)
(211.5819 1.3671487e-16 -4.6858251)
(210.97972 -9.6109143e-17 -4.3811435)
(210.40192 3.0134057e-17 -4.082618)
(209.84828 0 -3.7915146)
(209.31845 0 -3.5089956)
(208.81203 0 -3.2361139)
(208.32852 2.3323085e-17 -2.9738101)
(207.8674 0 -2.722908)
(207.42809 -1.6412928e-16 -2.4841255)
(207.00995 1.9213144e-16 -2.2580542)
(206.61239 -1.0813095e-16 -2.0451931)
(206.23493 -1.1244641e-19 -1.8459555)
(205.87709 2.5294472e-16 -1.6606147)
(205.53831 2.9700966e-17 -1.4893059)
(205.21767 -1.3870587e-16 -1.3319574)
(204.9136 5.2007366e-17 -1.1882103)
(204.62361 -1.4609231e-16 -1.0573378)
(204.34425 -4.5641583e-17 -0.93820806)
(204.07138 -6.414899e-17 -0.82935283)
(203.80052 -6.0143792e-17 -0.72917705)
(203.52704 5.6357185e-17 -0.63613677)
(203.24627 0 -0.5486256)
(202.95314 0 -0.46525397)
(202.6416 -1.5526272e-17 -0.38599228)
(202.30859 0 -0.30892321)
(201.95806 6.8564797e-18 -0.22684893)
(201.57015 5.1620048e-17 -0.16351438)
(201.16548 -7.2905718e-17 -0.12665408)
(200.87939 -6.6766754e-21 0.11351532)
(218.75551 0 -20.090352)
(256.74671 -8.8540712e-18 -3.7443461)
(240.61418 2.6773983e-16 -19.813687)
(249.60497 -2.5011941e-16 -5.3810243)
(243.78888 2.5520121e-16 -17.897239)
(246.68678 -2.3349866e-16 -7.8033855)
(244.29452 -2.2257346e-16 -15.702722)
(244.95624 2.1069952e-16 -10.100167)
(243.84901 0 -13.957909)
(243.64042 0 -11.703299)
(242.9726 1.8056342e-16 -13.024765)
(242.47352 -1.7106033e-16 -12.476582)
(241.88063 -1.016201e-17 -12.77804)
(241.28983 2.8903348e-17 -12.736971)
(240.6699 -9.1467785e-18 -12.806173)
(240.02948 3.4690641e-17 -12.835734)
(239.36625 0 -12.867247)
(238.6807 0 -12.889464)
(237.97283 -2.3690042e-16 -12.903779)
(237.24289 2.1010011e-16 -12.908833)
(236.49122 0 -12.903777)
(235.71834 0 -12.887627)
(234.92493 -1.9114817e-16 -12.859398)
(234.11184 3.617401e-16 -12.81811)
(233.28011 -1.7109019e-16 -12.762784)
(232.43097 -2.0268671e-17 -12.692475)
(231.56585 -3.8386952e-17 -12.606285)
(230.68638 -1.4544815e-16 -12.503383)
(229.79437 1.2009114e-16 -12.383028)
(228.89183 0 -12.244585)
(227.98091 -3.0754421e-17 -12.087554)
(227.06395 0 -11.911584)
(226.14336 0 -11.71649)
(225.2217 2.0760061e-16 -11.502276)
(224.30156 -2.2004183e-16 -11.269139)
(223.38556 2.3082206e-17 -11.01748)
(222.47632 -2.1778793e-17 -10.747912)
(221.57641 -4.1169571e-17 -10.461254)
(220.68829 -8.2819853e-20 -10.158526)
(219.81433 7.865368e-20 -9.8409366)
(218.95672 -7.4206746e-20 -9.5098711)
(218.11747 0 -9.1668644)
(217.29836 -1.2219821e-16 -8.8135835)
(216.50097 1.1475076e-16 -8.4517948)
(215.72662 0 -8.0833369)
(214.97638 -5.0854434e-17 -7.7100948)
(214.25108 1.9113511e-16 -7.3339642)
(213.55132 -2.2406647e-16 -6.9568282)
(212.87745 -2.1078853e-16 -6.5805302)
(212.22963 1.5803752e-16 -6.2068506)
(211.60782 1.1145227e-16 -5.8374861)
(211.01179 -1.3912061e-16 -5.474035)
(210.44121 -3.2616171e-17 -5.1179817)
(209.89559 -2.1425224e-16 -4.7706919)
(209.37438 1.1458887e-16 -4.4334044)
(208.87695 -1.0746551e-16 -4.1072331)
(208.4026 1.0051599e-16 -3.7931653)
(207.95063 2.3549378e-16 -3.4920613)
(207.52029 -1.7612541e-16 -3.2046555)
(207.11085 0 -2.931567)
(206.7215 -3.8537979e-17 -2.673286)
(206.35154 -7.2130793e-17 -2.4301986)
(206.00038 1.3477299e-16 -2.202605)
(205.66746 1.2607892e-16 -1.9906623)
(205.35215 -2.3559229e-16 -1.7943837)
(205.05346 8.2505283e-17 -1.613574)
(204.76975 5.1423871e-17 -1.4477466)
(204.49841 9.6124492e-17 -1.2960433)
(204.2359 1.3473858e-16 -1.1572024)
(203.97801 2.2529178e-20 -1.0296477)
(203.72029 0 -0.91169551)
(203.45833 0 -0.8017063)
(203.1876 -3.4270116e-17 -0.69810552)
(202.90275 9.6136165e-17 -0.59971561)
(202.59827 -8.9905626e-17 -0.50578448)
(202.2728 -8.4144012e-17 -0.41365926)
(201.92495 5.250281e-17 -0.32260846)
(201.53991 0 -0.24975968)
(201.16264 4.6096435e-17 -0.18187001)
(200.81164 1.104193e-20 -0.015053332)
(219.40168 0 -23.405774)
(257.71356 1.9105927e-20 -6.2677954)
(241.04969 9.1114454e-18 -23.176363)
(250.30109 2.8970092e-16 -7.990933)
(244.21396 3.3042888e-19 -21.167702)
(247.22751 -5.0811753e-16 -10.559957)
(244.68371 -3.2068736e-19 -18.80068)
(245.3659 4.5827084e-16 -13.010581)
(244.20036 -2.1084661e-16 -16.913203)
(243.9455 -1.2506508e-17 -14.682853)
(243.23423 1.1878346e-17 -15.924125)
(242.68208 -1.8036104e-16 -15.426343)
(242.04066 1.9215428e-16 -15.671137)
(241.39695 -1.8257261e-16 -15.633706)
(240.72386 3.0754607e-16 -15.675939)
(240.02854 -3.0985888e-16 -15.687171)
(239.3092 1.3810047e-16 -15.695032)
(238.56635 0 -15.692088)
(237.80017 0 -15.678609)
(237.0111 1.4709864e-17 -15.653249)
(236.19974 -2.7889999e-17 -15.614948)
(235.36689 0 -15.562565)
(234.51355 2.0026948e-16 -15.494967)
(233.64094 4.6712822e-19 -15.411053)
(232.7505 -3.5840986e-16 -15.30975)
(231.84389 1.6934947e-16 -15.190053)
(230.92298 2.003699e-17 -15.051048)
(229.98987 0 -14.891925)
(229.04685 -1.7947646e-16 -14.712013)
(228.0964 1.3533828e-16 -14.5108)
(227.14114 -2.2441151e-16 -14.287953)
(226.18383 2.1123297e-16 -14.043346)
(225.22731 -2.2859353e-16 -13.777063)
(224.27448 2.1517328e-16 -13.489427)
(223.32822 7.6272528e-17 -13.180994)
(222.39141 0 -12.85256)
(221.46683 0 -12.505159)
(220.55711 4.2508768e-17 -12.14005)
(219.66475 4.0036565e-17 -11.758702)
(218.79202 -3.7692533e-17 -11.36277)
(217.94094 3.5470834e-17 -10.954074)
(217.11331 6.6913634e-17 -10.534561)
(216.31061 -6.2849411e-17 -10.106281)
(215.53406 3.5433612e-16 -9.6713466)
(214.78458 -2.7716859e-16 -9.2318994)
(214.0628 5.2022279e-17 -8.7900803)
(213.36909 -4.8944645e-17 -8.3479934)
(212.70357 0 -7.9076814)
(212.06611 2.1511882e-16 -7.471098)
(211.45641 -1.6112565e-16 -7.0400899)
(210.87396 0 -6.6163769)
(210.31814 0 -6.2015442)
(209.78818 1.3256294e-16 -5.7970307)
(209.28325 -6.1958022e-17 -5.40413)
(208.80248 0 -5.023988)
(208.34492 -1.6277801e-16 -4.6576079)
(207.90966 1.0132436e-16 -4.3058548)
(207.49575 1.4221053e-16 -3.9694587)
(207.10228 -1.7689506e-16 -3.6490198)
(206.72835 1.6533194e-16 -3.345021)
(206.37305 -1.5421394e-16 -3.0578166)
(206.03558 6.3673887e-20 -2.7876555)
(205.71526 0 -2.5346999)
(205.41147 6.2667277e-17 -2.2989734)
(205.12352 -2.9215514e-16 -2.0803537)
(204.8504 1.6338002e-16 -1.8785119)
(204.5904 0 -1.6928289)
(204.34087 -1.420148e-16 -1.5223141)
(204.09815 8.8207447e-17 -1.3655816)
(203.85798 1.2337718e-16 -1.220944)
(203.616 3.0862768e-20 -1.0865996)
(203.36801 -7.1388864e-17 -0.96080663)
(203.10959 9.9821109e-17 -0.84206409)
(202.83536 -1.5504835e-16 -0.72920547)
(202.54056 8.6712347e-17 -0.62067694)
(202.22407 2.6936585e-17 -0.51479358)
(201.88129 5.0264917e-17 -0.41521314)
(201.50708 0 -0.32636767)
(201.14741 -4.376437e-17 -0.23555533)
(200.74629 2.0379239e-17 -0.14126052)
(219.8357 0 -26.889791)
(258.47604 9.8533338e-18 -8.8951742)
(241.28737 -3.0719079e-16 -26.661885)
(250.81392 2.508642e-16 -10.742786)
(244.44566 2.5765349e-16 -24.536945)
(247.52841 -5.0254914e-16 -13.470651)
(244.86921 2.3115376e-16 -21.981305)
(245.51934 2.3402231e-16 -16.08307)
(244.30993 -2.2178479e-16 -19.954752)
(243.99522 3.9476506e-17 -17.799237)
(243.23965 0 -18.925171)
(242.62904 0 -18.486834)
(241.93421 -2.2451573e-17 -18.671157)
(241.23186 -1.7044876e-16 -18.633024)
(240.4994 1.4106152e-16 -18.647452)
(239.74264 1.9134496e-17 -18.636731)
(238.96046 -3.6270626e-17 -18.617868)
(238.15348 3.0945459e-16 -18.585802)
(237.3222 -2.2741049e-16 -18.540007)
(236.46739 2.4681603e-16 -18.479028)
(235.59003 -2.0396275e-16 -18.401601)
(234.69133 2.7651903e-17 -18.306429)
(233.77274 1.5709662e-16 -18.192255)
(232.83597 -1.9759105e-16 -18.057886)
(231.88298 0 -17.902208)
(230.91597 0 -17.724217)
(229.93739 0 -17.523054)
(228.94988 -1.9787028e-16 -17.298022)
(227.9563 1.8639872e-16 -17.048622)
(226.95965 -3.5315847e-17 -16.77457)
(225.96308 0 -16.47583)
(224.96979 -2.8309202e-16 -16.152622)
(223.98301 2.3661142e-16 -15.805436)
(223.00597 -5.5958883e-17 -15.435037)
(222.0418 1.5824917e-16 -15.042474)
(221.09351 -4.9181863e-17 -14.62905)
(220.16393 -1.8653016e-16 -14.196329)
(219.25565 2.2002997e-16 -13.746099)
(218.37102 -1.6518809e-16 -13.280348)
(217.51206 7.7911008e-17 -12.801228)
(216.6805 -7.3109964e-17 -12.311024)
(215.87772 1.3742172e-16 -11.812103)
(215.10474 -6.4395549e-17 -11.306886)
(214.36229 -2.4234325e-16 -10.797801)
(213.65073 5.1100963e-16 -10.287244)
(212.97015 -2.1282537e-16 -9.7775488)
(212.32035 -1.4996485e-16 -9.2709565)
(211.70088 9.3245383e-17 -8.7695855)
(211.11108 8.7700396e-17 -8.2754147)
(210.55013 -1.6406407e-16 -7.7902665)
(210.01705 1.5328801e-16 -7.3157973)
(209.51078 0 -6.8534926)
(209.03016 1.3415812e-16 -6.4046659)
(208.57402 -1.8790697e-16 -5.9704632)
(208.14117 5.8553934e-17 -5.5518688)
(207.73041 5.457114e-17 -5.1497141)
(207.34062 0 -4.7646881)
(206.97066 0 -4.3973438)
(206.61949 0 -4.0481079)
(206.28609 0 -3.7172952)
(205.96947 0 -3.405095)
(205.66875 -7.1673516e-17 -3.1115981)
(205.38321 0 -2.8368111)
(205.11219 -5.2309717e-20 -2.5806093)
(204.85498 2.3137382e-16 -2.3427253)
(204.61055 -2.1521655e-16 -2.1226888)
(204.37718 -1.0016932e-16 -1.9197441)
(204.15216 -1.8622765e-16 -1.732771)
(203.93178 2.5955992e-16 -1.5602686)
(203.71175 4.5617005e-20 -1.400439)
(203.48778 7.4737195e-17 -1.251349)
(203.2559 0 -1.1111663)
(203.01179 0 -0.97843943)
(202.75033 0 -0.85180951)
(202.46755 -1.114856e-16 -0.72930345)
(202.16161 0 -0.61146434)
(201.82692 -9.6287308e-17 -0.50356743)
(201.46903 1.3422706e-16 -0.39584588)
(201.12366 8.3192462e-17 -0.29040796)
(200.68077 -1.9275498e-17 -0.26271881)
(220.06047 0 -30.549833)
(259.03967 0 -11.630838)
(241.3323 3.2321054e-16 -30.278537)
(251.14648 1.9387947e-17 -13.651855)
(244.49403 -2.7048101e-16 -28.015279)
(247.64362 0 -16.557761)
(244.86093 1.6206272e-17 -25.24096)
(245.54643 -3.0719389e-17 -19.309608)
(244.17816 0 -23.061887)
(243.79147 1.9363586e-16 -21.035137)
(242.98491 -4.1921854e-16 -22.023144)
(242.30559 1.985064e-16 -21.651852)
(241.54782 2.3559914e-17 -21.777624)
(240.77715 0 -21.734225)
(239.97562 2.1140556e-17 -21.719948)
(239.14791 -3.4099526e-16 -21.682911)
(238.29356 7.518348e-17 -21.632788)
(237.41348 2.5129651e-16 -21.565922)
(236.50857 2.3863868e-16 -21.48129)
(235.58005 -2.5740859e-16 -21.377324)
(234.62939 0 -21.252593)
(233.65834 -2.8880184e-16 -21.105695)
(232.66895 2.4521397e-16 -20.935298)
(231.66353 -2.0667164e-16 -20.740188)
(230.64471 1.9479461e-16 -20.519289)
(229.61533 -1.8459357e-16 -20.271694)
(228.57851 3.4822549e-16 -19.996716)
(227.53756 -1.6432279e-16 -19.693896)
(226.49593 1.5540171e-16 -19.363049)
(225.45721 -2.9297449e-16 -19.004275)
(224.42504 1.3789233e-16 -18.617989)
(223.40306 1.3022161e-16 -18.204923)
(222.39484 -2.4568388e-16 -17.766125)
(221.4038 5.705108e-17 -17.302962)
(220.43321 -5.6646443e-19 -16.817103)
(219.48605 2.5559409e-16 -16.310483)
(218.56503 0 -15.785288)
(217.6725 1.8927262e-19 -15.243909)
(216.81046 0 -14.688898)
(215.98049 -7.9773953e-17 -14.122922)
(215.18378 -1.4991468e-16 -13.548724)
(214.42112 7.0381501e-17 -12.969059)
(213.69292 0 -12.386663)
(212.99921 -6.2014698e-17 -11.804206)
(212.3397 2.9026197e-16 -11.22425)
(211.71379 -3.2586835e-16 -10.649222)
(211.12065 -3.053198e-16 -10.081391)
(210.55921 2.8507851e-16 -9.5228421)
(210.02825 -1.7789778e-16 -8.9754683)
(209.5264 0 -8.4409628)
(209.05225 0 -7.9208177)
(208.60428 7.2596479e-17 -7.4163268)
(208.18101 6.7747551e-17 -6.9285948)
(207.78095 1.2625828e-16 -6.4585462)
(207.40266 -5.8872433e-17 -6.0069387)
(207.04474 -1.0966436e-16 -5.5743772)
(206.70589 -2.0449078e-16 -5.1613281)
(206.38488 -9.5390231e-17 -4.7681299)
(206.08055 1.7710236e-16 -4.3950052)
(205.79181 0 -4.0420764)
(205.51765 -7.6698668e-17 -3.7093486)
(205.25715 -1.4255961e-16 -3.3967393)
(205.00957 1.3244317e-16 -3.1040892)
(204.77424 6.1429094e-17 -2.8311163)
(204.55047 5.7125633e-17 -2.5774024)
(204.33723 0 -2.342332)
(204.13281 1.968971e-16 -2.1250117)
(203.93451 1.8268139e-16 -1.9241987)
(203.73857 -2.5417124e-16 -1.7382874)
(203.54067 7.8600052e-17 -1.565375)
(203.33662 -7.2842016e-17 -1.4034088)
(203.12259 -3.9895618e-20 -1.2504973)
(202.89449 2.502991e-16 -1.1051701)
(202.64777 -2.3194382e-16 -0.96574181)
(202.37911 5.3696171e-17 -0.83043583)
(202.08536 1.4933272e-16 -0.70269118)
(201.7617 -4.6122879e-17 -0.58649547)
(201.42367 -4.2714753e-17 -0.45854648)
(201.09074 0 -0.34402223)
(200.61518 3.6555967e-17 -0.37318087)
(220.08614 3.9300627e-16 -34.396116)
(259.40946 5.3799574e-19 -14.481972)
(241.16402 -3.6027491e-16 -34.041862)
(251.29317 0 -16.724202)
(244.28451 0 -31.571292)
(247.43184 -2.6880679e-16 -19.818079)
(244.54851 2.7192827e-16 -28.55546)
(245.06946 6.4493977e-17 -22.695858)
(243.77389 -2.4478364e-16 -26.267612)
(243.31106 2.3153531e-16 -24.415219)
(242.4431 -2.4744766e-16 -25.244279)
(241.68238 2.0798378e-16 -24.935831)
(240.84968 -4.933932e-17 -25.002669)
(239.99914 -4.6785469e-17 -24.944551)
(239.11714 -1.7728707e-16 -24.896624)
(238.20752 1.6745347e-16 -24.825599)
(237.2705 -3.5758651e-16 -24.736323)
(236.30739 6.0107544e-16 -24.625839)
(235.31965 -2.8399924e-16 -24.492735)
(234.30908 -2.6945259e-16 -24.335308)
(233.2778 2.5410058e-16 -24.152)
(232.22827 -3.0254761e-17 -23.941344)
(231.16328 -2.2776319e-16 -23.702009)
(230.08593 2.1455809e-16 -23.432858)
(228.9996 2.5414892e-16 -23.132971)
(227.90794 -1.4331364e-16 -22.801686)
(226.81482 0 -22.438643)
(225.72425 2.5626862e-16 -22.043804)
(224.64035 -3.2187747e-16 -21.617488)
(223.56724 1.1326214e-16 -21.160381)
(222.50902 -2.8631859e-16 -20.673543)
(221.46964 2.0172525e-16 -20.158406)
(220.45285 -6.355627e-17 -19.61676)
(219.46214 2.3884454e-16 -19.050721)
(218.50064 -2.2404361e-16 -18.46271)
(217.57111 -2.1114245e-16 -17.855395)
(216.67587 1.9790061e-16 -17.23165)
(215.81677 -4.6416216e-17 -16.594501)
(214.99518 0 -15.947063)
(214.21201 8.2124119e-17 -15.292487)
(213.46767 -7.6656922e-17 -14.633906)
(212.76218 0 -13.974378)
(212.09511 1.3496511e-16 -13.316843)
(211.46571 -6.3132673e-17 -12.664085)
(210.87288 -1.77024e-16 -12.018699)
(210.3153 5.5215376e-16 -11.383066)
(209.79144 -2.0671858e-16 -10.759343)
(209.29961 9.6418122e-17 -10.149449)
(208.83803 -2.7033765e-16 -9.5550643)
(208.40485 -1.8089102e-19 -8.9776385)
(207.99821 1.5673918e-16 -8.4183963)
(207.61627 -1.462137e-16 -7.8783502)
(207.25725 -6.8044988e-17 -7.3583174)
(206.91942 -6.3380867e-17 -6.8589363)
(206.60117 -1.1833173e-16 -6.3806846)
(206.30097 2.1975495e-16 -5.9238978)
(206.01743 0 -5.4887862)
(205.74925 9.4959607e-17 -5.0754488)
(205.49523 -3.5331878e-16 -4.6838855)
(205.25429 2.4589168e-16 -4.3140128)
(205.02541 7.6093788e-17 -3.9656415)
(204.80768 1.4134841e-16 -3.6385108)
(204.60039 1.3131637e-16 -3.3322926)
(204.40289 -1.2150041e-16 -3.0465446)
(204.21451 -1.1258344e-16 -2.7806977)
(204.03427 -3.1314357e-16 -2.5339919)
(203.86052 -3.9646606e-20 -2.3054011)
(203.69057 -8.9471453e-17 -2.0935694)
(203.52065 0 -1.8967984)
(203.34645 -2.2994511e-16 -1.713093)
(203.1638 7.089843e-17 -1.5403176)
(202.96901 0 -1.3765651)
(202.75832 1.2126382e-16 -1.2202591)
(202.52811 0 -1.0693527)
(202.27551 1.0356509e-16 -0.92292914)
(201.99562 -1.4350503e-16 -0.78735261)
(201.68557 1.3259412e-16 -0.66265297)
(201.3693 -8.1640609e-17 -0.51414233)
(201.04732 7.5395163e-17 -0.3941071)
(200.54837 0 -0.46871067)
(219.90168 -4.1288743e-16 -38.43584)
(259.57395 3.6491936e-16 -17.466088)
(240.74741 -3.3424271e-16 -37.981591)
(251.1932 3.3241348e-16 -19.972026)
(243.79303 3.1828983e-16 -35.186763)
(246.98817 -1.8102226e-17 -23.262506)
(243.99212 -2.8499772e-16 -31.951223)
(244.45995 -2.7053704e-16 -26.273026)
(243.08029 2.87951e-16 -29.592093)
(242.51011 0 -27.941663)
(241.57033 2.8731484e-17 -28.596375)
(240.71566 0 -28.338693)
(239.79541 -1.2921631e-16 -28.346101)
(238.85277 2.4398185e-16 -28.261694)
(237.87818 0 -28.172345)
(236.87504 0 -28.057089)
(235.84437 0 -27.917747)
(234.7881 3.9287474e-17 -27.751642)
(233.70843 0 -27.557076)
(232.60794 -2.457131e-16 -27.332255)
(231.48963 3.3105771e-16 -27.075563)
(230.35686 1.2526237e-16 -26.785582)
(229.21335 1.7761116e-16 -26.46111)
(228.06316 -2.7897547e-16 -26.101247)
(226.91058 -5.2572376e-17 -25.705417)
(225.76017 -2.4877643e-16 -25.273416)
(224.6166 1.872367e-16 -24.805444)
(223.48459 -2.2113403e-16 -24.302133)
(222.36886 8.2743736e-17 -23.764552)
(221.27399 7.8223167e-17 -23.194211)
(220.20434 0 -22.59305)
(219.16399 2.7824554e-16 -21.963402)
(218.15662 -2.6132611e-16 -21.307969)
(217.18546 0 -20.629756)
(216.25324 -2.3101106e-16 -19.932033)
(215.36213 2.163789e-16 -19.21825)
(214.51373 -1.0195953e-16 -18.491981)
(213.70907 1.9089462e-16 -17.75685)
(212.9486 -2.6821899e-16 -17.016462)
(212.23226 1.2581677e-19 -16.274342)
(211.55949 -1.5670985e-16 -15.533874)
(210.9293 -7.3339101e-17 -14.798258)
(210.34034 -1.3763477e-16 -14.070466)
(209.79093 2.5658425e-16 -13.353221)
(209.27916 -1.1973734e-16 -12.648967)
(208.80295 0 -11.959874)
(208.3601 -3.7254063e-19 -11.287822)
(207.94835 9.7400259e-17 -10.63442)
(207.56542 0 -10.001011)
(207.20906 8.4712631e-17 -9.3886872)
(206.87709 7.9199094e-17 -8.7983123)
(206.56741 -7.3536455e-17 -8.2305414)
(206.27804 2.7377609e-16 -7.6858425)
(206.00712 -2.5450509e-16 -7.16452)
(205.75295 -1.1836018e-16 -6.6667356)
(205.51396 -1.0995175e-16 -6.1925304)
(205.28874 1.0209043e-16 -5.741842)
(205.076 1.8937267e-16 -5.3145197)
(204.87458 -3.5126131e-16 -4.9103361)
(204.68342 4.0706718e-16 -4.5290003)
(204.50157 -1.508247e-16 -4.1701308)
(204.32819 1.3979099e-16 -3.8332914)
(204.16259 -1.2939571e-16 -3.5179912)
(204.00418 2.3962045e-16 -3.2236318)
(203.85235 -3.3260757e-16 -2.9494988)
(203.70619 2.0501567e-16 -2.6946947)
(203.56413 -7.9314957e-20 -2.4580714)
(203.42353 8.7611034e-17 -2.2381744)
(203.2807 0 -2.033225)
(203.1313 0 -1.8411572)
(202.97116 0 -1.659812)
(202.79662 -1.2725544e-16 -1.4873065)
(202.60447 1.77862e-20 -1.3218688)
(202.39227 0 -1.1611649)
(202.15734 0 -1.0056838)
(201.89298 9.1983458e-17 -0.86407786)
(201.59914 -1.6948397e-16 -0.73035233)
(201.30575 0 -0.56234748)
(200.99288 0 -0.44294294)
(200.4787 -1.31909e-16 -0.55858785)
(219.47505 2.7860084e-17 -42.67841)
(259.49829 -7.901086e-16 -20.605578)
(240.05514 3.4970642e-16 -42.065399)
(250.58076 -2.1849343e-17 -23.40186)
(242.98933 3.7516616e-16 -38.920042)
(246.2153 -3.5381204e-16 -26.929502)
(243.1327 0 -35.463029)
(243.4692 -3.1868525e-16 -30.041974)
(242.03797 2.3427802e-16 -33.031634)
(241.34457 2.2250769e-16 -31.6071)
(240.31947 -2.4018154e-16 -32.082263)
(239.3568 0 -31.856537)
(238.33464 1.8687085e-19 -31.802316)
(237.28637 0 -31.677774)
(236.20609 3.8682888e-16 -31.53559)
(235.09718 -7.3074956e-16 -31.36243)
(233.96163 3.44989e-16 -31.158295)
(232.80226 -4.0752696e-17 -30.920618)
(231.62225 -3.8719325e-17 -30.647532)
(230.42528 3.6794712e-17 -30.337242)
(229.21545 -6.8723871e-17 -29.988231)
(227.99728 -3.255314e-16 -29.599288)
(226.77563 3.0638432e-16 -29.169574)
(225.55565 5.7757291e-17 -28.698682)
(224.34271 -2.7368304e-16 -28.186659)
(223.14225 -6.8985687e-19 -27.634074)
(221.95974 2.9067658e-16 -27.042004)
(220.80052 -1.8243531e-16 -26.412056)
(219.66973 -6.030246e-19 -25.746351)
(218.57214 0 -25.047493)
(217.51211 0 -24.318528)
(216.49347 -7.177232e-17 -23.562883)
(215.51943 1.343728e-16 -22.784307)
(214.59254 0 -21.986779)
(213.71469 -1.1875231e-16 -21.174433)
(212.88704 2.2220749e-16 -20.351472)
(212.11007 -1.0409942e-16 -19.522076)