/*--------------------------------*- C++ -*----------------------------------*\
  =========                 |
  \\      /  F ield         | OpenFOAM: The Open Source CFD Toolbox
   \\    /   O peration     | Website:  https://openfoam.org
    \\  /    A nd           | Version:  12
     \\/     M anipulation  |
\*---------------------------------------------------------------------------*/
FoamFile
{
    format      ascii;
    class       volScalarField;
    location    "0.133";
    object      rho;
}
// * * * * * * * * * * * * * * * * * * * * * * * * * * * * * * * * * * * * * //

dimensions      [1 -3 0 0 0 0 0];

internalField   nonuniform List<scalar> 
16000
(
1.0581788
1.0908486
1.0787938
1.086984
1.0831497
1.086586
1.0856093
1.0874302
1.0875787
1.0887871
1.0894384
1.0904527
1.0913303
1.092327
1.0933229
1.0943709
1.095451
1.0965712
1.0977293
1.0989265
1.1001625
1.1014376
1.1027514
1.1041035
1.1054934
1.10692
1.1083823
1.109879
1.1114082
1.1129681
1.1145565
1.1161707
1.117808
1.1194653
1.1211393
1.1228263
1.1245226
1.1262241
1.1279268
1.1296264
1.1313186
1.1329991
1.1346636
1.136308
1.1379282
1.1395203
1.1410808
1.1426061
1.1440931
1.1455391
1.1469416
1.1482983
1.1496074
1.1508673
1.152077
1.1532353
1.1543416
1.1553956
1.156397
1.1573459
1.1582424
1.1590871
1.1598805
1.1606232
1.1613161
1.1619598
1.1625549
1.1631016
1.1636002
1.1640509
1.1644544
1.1648119
1.1651241
1.1653913
1.1656127
1.1657864
1.1659085
1.1659221
1.1661227
1.1654197
1.0549295
1.0881133
1.0754052
1.0841954
1.0801355
1.0838396
1.0827628
1.0847548
1.0848973
1.0862079
1.0869113
1.088001
1.088953
1.0900243
1.0911011
1.0922304
1.093396
1.0946039
1.0958528
1.0971432
1.0984751
1.0998481
1.1012619
1.1027157
1.1042086
1.1057392
1.1073061
1.1089073
1.1105409
1.1122043
1.1138947
1.1156092
1.1173443
1.1190964
1.1208616
1.1226358
1.1244146
1.1261937
1.1279685
1.1297344
1.1314868
1.1332212
1.1349332
1.1366185
1.1382731
1.1398934
1.1414758
1.1430172
1.1445149
1.1459665
1.1473699
1.1487235
1.1500258
1.151276
1.1524732
1.1536171
1.1547075
1.1557445
1.1567282
1.1576592
1.1585379
1.1593651
1.1601415
1.160868
1.1615456
1.162175
1.1627569
1.1632916
1.1637791
1.1642196
1.1646135
1.1649617
1.1652648
1.1655232
1.1657359
1.1658985
1.1660008
1.1660541
1.1660973
1.1655763
1.0519901
1.0856274
1.072512
1.0816394
1.0774367
1.0813429
1.0802367
1.0823487
1.0825327
1.0839267
1.0847042
1.0858709
1.0869088
1.0880635
1.0892311
1.0904521
1.0917136
1.0930199
1.0943698
1.0957638
1.0972012
1.0986816
1.1002042
1.1017678
1.1033711
1.1050124
1.1066897
1.1084006
1.1101426
1.1119125
1.113707
1.1155225
1.1173549
1.1192
1.1210534
1.1229103
1.1247659
1.1266152
1.1284534
1.1302756
1.1320768
1.1338526
1.1355983
1.13731
1.1389837
1.140616
1.1422039
1.1437445
1.1452358
1.1466758
1.1480631
1.1493966
1.1506756
1.1518998
1.153069
1.1541834
1.1552434
1.1562494
1.1572023
1.1581029
1.1589519
1.1597504
1.1604994
1.1611999
1.1618531
1.1624597
1.1630205
1.1635359
1.1640057
1.1644299
1.1648088
1.1651428
1.1654324
1.1656783
1.1658784
1.1660252
1.1661181
1.1661722
1.1661174
1.165752
1.0493684
1.0833813
1.0698815
1.0793378
1.0750004
1.0791393
1.0780103
1.0802606
1.080496
1.0819867
1.0828526
1.0841084
1.085247
1.0864983
1.0877703
1.0890962
1.090466
1.0918826
1.0933452
1.0948535
1.0964068
1.0980044
1.099645
1.1013272
1.1030492
1.1048086
1.1066031
1.1084296
1.1102848
1.112165
1.1140661
1.1159838
1.1179132
1.1198495
1.1217875
1.1237218
1.1256472
1.1275582
1.1294496
1.1313161
1.1331529
1.1349553
1.136719
1.1384401
1.1401151
1.141741
1.1433154
1.1448361
1.1463015
1.1477106
1.1490627
1.1503574
1.1515948
1.1527751
1.153899
1.1549673
1.155981
1.156941
1.1578486
1.158705
1.1595114
1.160269
1.1609792
1.161643
1.1622617
1.1628363
1.1633674
1.1638553
1.1643
1.1647012
1.1650587
1.1653727
1.1656437
1.1658723
1.1660544
1.1661824
1.1662655
1.1662989
1.1661814
1.1659247
1.0471095
1.081508
1.0676077
1.0773644
1.0728865
1.0772983
1.0761596
1.0785538
1.0788613
1.0804563
1.0814294
1.0827838
1.0840365
1.085395
1.0867817
1.0882224
1.0897099
1.0912462
1.0928305
1.0944623
1.0961406
1.0978644
1.0996318
1.101441
1.1032894
1.1051743
1.1070922
1.1090394
1.1110117
1.1130046
1.115013
1.1170318
1.1190554
1.121078
1.1230938
1.1250968
1.1270812
1.1290412
1.1309712
1.1328661
1.1347209
1.1365313
1.1382931
1.1400031
1.1416584
1.1432566
1.1447959
1.1462752
1.1476938
1.1490513
1.1503481
1.1515846
1.1527616
1.1538804
1.1549421
1.1559483
1.1569004
1.1578002
1.1586491
1.1594488
1.1602008
1.1609067
1.1615678
1.1621854
1.1627608
1.163295
1.1637887
1.1642421
1.1646552
1.1650273
1.165358
1.165647
1.1658949
1.1661019
1.1662617
1.1663689
1.1664392
1.1664412
1.166277
1.1661152
1.045258
1.0800265
1.0657808
1.075843
1.0712721
1.0758939
1.0747439
1.0773024
1.077698
1.0794027
1.0804948
1.081951
1.0833245
1.0847966
1.086305
1.0878688
1.0894834
1.0911496
1.0928663
1.0946329
1.0964477
1.0983089
1.1002141
1.1021605
1.1041448
1.1061632
1.1082112
1.1102842
1.1123769
1.1144837
1.1165986
1.1187153
1.1208274
1.1229283
1.1250115
1.1270705
1.129099
1.131091
1.133041
1.1349439
1.1367951
1.1385907
1.1403273
1.1420023
1.1436136
1.14516
1.1466406
1.1480552
1.1494043
1.1506886
1.1519092
1.1530676
1.1541657
1.1552052
1.1561882
1.1571168
1.157993
1.158819
1.1595968
1.1603282
1.161015
1.161659
1.1622617
1.1628244
1.1633485
1.1638348
1.1642842
1.1646967
1.1650721
1.1654097
1.1657086
1.165968
1.1661887
1.1663699
1.1665035
1.1665884
1.166642
1.166605
1.1664034
1.1663286
1.0438113
1.0789447
1.0643858
1.0747865
1.0701239
1.0749509
1.0738478
1.0765355
1.0770356
1.0788261
1.0800441
1.0816062
1.0831108
1.0847094
1.0863535
1.0880563
1.0898141
1.0916268
1.0934927
1.0954102
1.097377
1.0993904
1.1014468
1.1035425
1.105673
1.1078333
1.1100178
1.1122205
1.1144348
1.1166541
1.1188711
1.1210785
1.1232691
1.1254354
1.1275704
1.1296672
1.1317194
1.133721
1.1356669
1.1375523
1.1393734
1.141127
1.1428108
1.1444233
1.1459637
1.1474317
1.1488279
1.1501533
1.1514095
1.1525984
1.1537221
1.1547831
1.1557841
1.1567276
1.1576165
1.1584533
1.1592405
1.1599808
1.1606763
1.1613292
1.1619415
1.1625151
1.1630513
1.1635518
1.1640177
1.1644499
1.164849
1.1652152
1.165548
1.1658464
1.166109
1.166335
1.1665249
1.1666767
1.1667812
1.1668426
1.1668761
1.1667944
1.166563
1.1665724
1.042708
1.0782041
1.0633571
1.0741413
1.0693808
1.074433
1.0733583
1.0762414
1.0767674
1.0786734
1.0800515
1.081746
1.0834082
1.0851593
1.0869635
1.088829
1.0907527
1.0927337
1.0947694
1.0968574
1.0989943
1.1011761
1.1033982
1.1056554
1.1079418
1.110251
1.1125759
1.114909
1.1172424
1.119568
1.1218776
1.1241628
1.1264154
1.1286277
1.1307921
1.1329019
1.1349506
1.136933
1.1388444
1.1406812
1.1424406
1.1441206
1.1457205
1.1472401
1.1486799
1.1500415
1.1513266
1.1525378
1.1536777
1.1547495
1.1557564
1.1567018
1.157589
1.1584215
1.1592025
1.159935
1.1606221
1.1612664
1.1618704
1.1624365
1.1629667
1.1634627
1.1639262
1.1643585
1.1647608
1.1651338
1.165478
1.1657934
1.1660795
1.1663349
1.1665579
1.1667473
1.1669036
1.1670229
1.1670961
1.1671336
1.1671434
1.1670131
1.1667614
1.1668525
1.0419433
1.0777911
1.0626792
1.0739276
1.068982
1.0741998
1.0732158
1.0761402
1.0769753
1.0790249
1.0805934
1.0824453
1.0842902
1.0862199
1.0882092
1.0902624
1.0923763
1.0945488
1.0967763
1.0990551
1.1013804
1.1037467
1.1061477
1.1085767
1.1110259
1.1134871
1.1159517
1.1184104
1.1208539
1.1232728
1.1256578
1.1279996
1.1302897
1.13252
1.1346831
1.1367726
1.138783
1.14071
1.1425502
1.1443015
1.1459627
1.1475337
1.1490153
1.1504093
1.151718
1.1529444
1.154092
1.1551646
1.1561661
1.1571008
1.157973
1.1587866
1.1595458
1.1602545
1.1609163
1.1615346
1.1621125
1.1626529
1.1631585
1.1636314
1.1640738
1.1644873
1.1648733
1.1652333
1.165568
1.1658782
1.1661641
1.1664257
1.1666621
1.1668718
1.1670526
1.1672034
1.1673238
1.1674081
1.1674493
1.167463
1.1674451
1.1672626
1.1670006
1.1671761
1.0415519
1.077742
1.0623923
1.0740644
1.0689813
1.0744583
1.0736202
1.0767408
1.0777607
1.0799588
1.0817474
1.0837845
1.085839
1.0879762
1.0901782
1.0924462
1.0947763
1.0971647
1.0996065
1.1020962
1.1046271
1.1071918
1.1097821
1.1123889
1.1150025
1.1176127
1.1202087
1.1227799
1.1253154
1.1278046
1.1302374
1.1326042
1.1348964
1.1371064
1.1392274
1.1412544
1.1431833
1.1450114
1.1467374
1.1483613
1.1498841
1.1513079
1.1526356
1.153871
1.1550182
1.156082
1.1570673
1.1579792
1.1588229
1.1596035
1.1603259
1.1609948
1.1616148
1.16219
1.1627242
1.1632211
1.1636838
1.1641151
1.1645176
1.1648934
1.1652445
1.1655724
1.1658783
1.1661633
1.1664283
1.1666735
1.1668992
1.1671051
1.1672902
1.1674525
1.1675898
1.1677008
1.1677838
1.1678318
1.1678412
1.1678316
1.1677815
1.1675457
1.1672854
1.1675471
1.0416002
1.0781261
1.0625472
1.0744141
1.0694725
1.0752373
1.0746075
1.0778882
1.0791801
1.0815539
1.0835972
1.0858539
1.0881489
1.0905255
1.0929706
1.0954826
1.0980561
1.1006854
1.1033637
1.1060829
1.108834
1.1116071
1.1143913
1.1171751
1.1199462
1.1226922
1.1254007
1.1280592
1.1306558
1.1331792
1.135619
1.137966
1.1402124
1.1423518
1.1443794
1.1462921
1.1480882
1.1497676
1.1513318
1.1527834
1.1541259
1.1553641
1.156503
1.1575484
1.1585064
1.1593833
1.1601852
1.1609184
1.1615888
1.1622022
1.162764
1.1632792
1.1637525
1.1641882
1.1645901
1.1649617
1.1653061
1.1656258
1.1659233
1.1662006
1.1664591
1.1667004
1.1669254
1.1671349
1.1673294
1.1675092
1.1676742
1.1678238
1.167957
1.1680715
1.168165
1.168236
1.1682811
1.1682926
1.1682718
1.1682395
1.168153
1.1678661
1.1676208
1.1679638
1.0421696
1.0790163
1.0632435
1.0754087
1.0706334
1.076639
1.076267
1.0797254
1.0813306
1.0839083
1.0862407
1.0887551
1.0913251
1.0939764
1.096698
1.0994855
1.102331
1.1052263
1.1081615
1.1111254
1.1141059
1.1170898
1.1200631
1.1230114
1.1259202
1.1287747
1.1315609
1.1342653
1.1368754
1.1393801
1.1417699
1.1440372
1.1461761
1.1481827
1.1500554
1.151794
1.1534004
1.1548778
1.1562309
1.1574653
1.1585873
1.1596042
1.1605232
1.161352
1.1620982
1.1627691
1.1633719
1.1639136
1.1644005
1.1648388
1.1652339
1.1655909
1.1659144
1.1662085
1.1664769
1.1667227
1.1669488
1.1671574
1.1673507
1.1675302
1.1676973
1.1678531
1.1679983
1.1681334
1.1682585
1.1683738
1.1684789
1.1685732
1.1686551
1.1687225
1.1687732
1.1688049
1.1688125
1.1687886
1.1687406
1.1686861
1.1685598
1.1682298
1.1680123
1.1684232
1.043255
1.0804185
1.0644786
1.0770634
1.0724494
1.0786975
1.0786635
1.0823151
1.0842954
1.0871196
1.0897818
1.0926003
1.0954867
1.0984535
1.1014894
1.1045861
1.1077325
1.1109164
1.1141237
1.1173396
1.1205478
1.1237316
1.1268738
1.129957
1.1329643
1.1358795
1.1386875
1.141375
1.1439302
1.1463439
1.148609
1.1507211
1.152678
1.1544799
1.1561293
1.1576304
1.1589888
1.1602118
1.1613074
1.1622841
1.163151
1.1639174
1.1645924
1.165185
1.1657036
1.1661565
1.1665513
1.1668951
1.1671944
1.1674551
1.1676826
1.1678817
1.1680566
1.1682111
1.1683484
1.1684713
1.1685821
1.1686828
1.1687751
1.1688602
1.1689391
1.1690124
1.1690807
1.169144
1.1692025
1.1692557
1.1693031
1.169344
1.1693765
1.1693987
1.1694085
1.1694027
1.1693741
1.1693173
1.1692459
1.1691695
1.1690017
1.1686419
1.1684666
1.1689236
1.0449102
1.0823842
1.0663136
1.0793443
1.0750052
1.0815058
1.0819005
1.0857701
1.0881875
1.0913136
1.0943538
1.0975307
1.1007824
1.1041104
1.1075002
1.1109386
1.1144095
1.1178957
1.1213784
1.124838
1.1282538
1.1316055
1.1348724
1.1380349
1.1410747
1.1439753
1.1467225
1.149305
1.1517142
1.1539449
1.1559947
1.1578644
1.159557
1.1610783
1.1624357
1.163638
1.1646952
1.1656181
1.1664178
1.1671054
1.1676921
1.1681883
1.1686045
1.1689502
1.1692343
1.1694652
1.1696504
1.1697968
1.1699105
1.1699969
1.1700611
1.1701072
1.1701388
1.1701593
1.1701713
1.1701771
1.1701784
1.1701769
1.1701736
1.1701695
1.1701652
1.1701609
1.1701567
1.1701526
1.1701482
1.170143
1.1701363
1.1701269
1.170113
1.1700929
1.1700646
1.1700237
1.1699615
1.1698758
1.1697851
1.169687
1.1694766
1.1691009
1.168986
1.1694646
1.0471954
1.0849727
1.0688587
1.0823784
1.0784005
1.0851653
1.0860935
1.0902236
1.0931494
1.0966518
1.1001307
1.1037289
1.1073996
1.111134
1.1149124
1.1187151
1.1225201
1.1263044
1.1300434
1.1337123
1.1372862
1.140741
1.1440541
1.1472051
1.1501765
1.1529545
1.1555288
1.1578933
1.1600456
1.1619872
1.1637225
1.165259
1.1666064
1.1677761
1.1687805
1.1696331
1.1703475
1.1709372
1.1714156
1.1717954
1.1720887
1.1723068
1.1724601
1.1725584
1.1726101
1.1726232
1.1726046
1.1725605
1.1724965
1.1724171
1.1723267
1.1722286
1.172126
1.1720213
1.1719166
1.1718135
1.1717134
1.1716173
1.1715258
1.1714394
1.1713583
1.1712825
1.1712117
1.1711456
1.1710834
1.1710246
1.1709681
1.1709125
1.1708562
1.1707976
1.1707346
1.1706618
1.1705697
1.1704602
1.1703544
1.1702346
1.1699822
1.1696048
1.1695665
1.1700378
1.0501684
1.0882162
1.0722403
1.0862375
1.0827574
1.0898122
1.091407
1.0958723
1.0993895
1.1033577
1.1073424
1.1114239
1.1155614
1.1197362
1.1239216
1.1280904
1.1322133
1.13626
1.1401998
1.1440027
1.1476406
1.1510879
1.1543231
1.1573289
1.1600933
1.162609
1.1648742
1.1668913
1.168667
1.1702113
1.171537
1.1726586
1.1735921
1.1743541
1.1749614
1.1754306
1.1757776
1.1760177
1.176165
1.1762329
1.1762333
1.1761774
1.1760748
1.1759346
1.1757644
1.1755713
1.1753612
1.1751394
1.1749103
1.1746778
1.1744452
1.1742152
1.1739899
1.1737712
1.1735604
1.1733588
1.1731669
1.1729853
1.1728142
1.1726537
1.1725035
1.1723633
1.1722326
1.1721107
1.1719968
1.1718899
1.1717888
1.171692
1.1715979
1.1715052
1.1714116
1.1713105
1.1711934
1.171066
1.1709489
1.1708076
1.1705178
1.1701478
1.1701942
1.1706481
1.0538991
1.0921233
1.0765857
1.0910712
1.08828
1.0956906
1.0981017
1.1029968
1.1071863
1.1117075
1.1162584
1.1208726
1.1255082
1.1301352
1.1347174
1.1392177
1.1435975
1.1478191
1.1518466
1.1556478
1.1591957
1.1624689
1.1654531
1.1681403
1.1705293
1.1726247
1.1744361
1.1759774
1.1772654
1.1783192
1.1791589
1.1798055
1.1802796
1.1806013
1.18079
1.1808636
1.1808388
1.180731
1.180554
1.1803204
1.1800411
1.1797262
1.1793842
1.1790226
1.1786481
1.1782663
1.177882
1.1774993
1.1771216
1.1767517
1.1763919
1.1760441
1.1757097
1.1753898
1.1750852
1.1747963
1.1745233
1.1742663
1.174025
1.1737992
1.1735883
1.1733916
1.1732083
1.1730375
1.1728783
1.1727294
1.1725895
1.1724568
1.1723301
1.1722083
1.1720884
1.1719632
1.1718264
1.1716877
1.1715627
1.1714012
1.1710837
1.1707275
1.1708562
1.1712925
1.0585761
1.0968394
1.0821257
1.0972065
1.0953003
1.1031296
1.1064998
1.1119202
1.1168502
1.1220032
1.1271698
1.1323472
1.1374837
1.1425342
1.147449
1.1521797
1.1566799
1.1609084
1.1648306
1.1684204
1.1716605
1.1745426
1.1770672
1.1792422
1.1810816
1.1826047
1.183834
1.1847944
1.1855119
1.1860125
1.1863218
1.1864644
1.1864632
1.1863396
1.1861129
1.185801
1.1854195
1.1849825
1.1845023
1.1839898
1.1834544
1.1829043
1.1823465
1.1817869
1.1812305
1.1806816
1.1801438
1.1796197
1.1791119
1.178622
1.1781515
1.1777015
1.1772725
1.176865
1.1764791
1.1761148
1.1757719
1.1754498
1.1751482
1.1748662
1.174603
1.1743578
1.1741295
1.173917
1.1737191
1.1735346
1.1733618
1.1731991
1.1730454
1.1728995
1.1727577
1.172613
1.1724623
1.1723187
1.1721893
1.1720094
1.171675
1.171347
1.1715485
1.1719667
1.0644816
1.1029367
1.0892576
1.1049814
1.104164
1.1124525
1.1169298
1.1229945
1.1287351
1.1345908
1.140401
1.1461277
1.1517018
1.1570602
1.1621418
1.1668927
1.1712687
1.1752372
1.1787778
1.1818828
1.1845555
1.1868092
1.1886647
1.1901487
1.1912918
1.1921264
1.192686
1.1930035
1.1931102
1.1930361
1.1928084
1.1924523
1.1919902
1.1914423
1.1908265
1.1901581
1.1894509
1.1887166
1.1879652
1.1872054
1.1864446
1.1856888
1.1849433
1.1842122
1.1834992
1.1828069
1.1821376
1.181493
1.1808744
1.1802826
1.1797182
1.1791814
1.1786724
1.1781908
1.1777364
1.1773085
1.1769066
1.1765298
1.1761773
1.1758481
1.1755412
1.1752554
1.1749895
1.1747423
1.1745125
1.1742985
1.1740988
1.1739119
1.1737367
1.1735716
1.1734125
1.173253
1.1730943
1.1729509
1.1728195
1.1726242
1.1722855
1.172006
1.1722701
1.1726537
1.0718044
1.1109573
1.098182
1.1146219
1.1152392
1.124076
1.1298285
1.1366885
1.1432963
1.1498737
1.1562709
1.1624158
1.1682236
1.1736233
1.1785571
1.1829844
1.1868818
1.1902433
1.1930778
1.1954065
1.1972605
1.1986772
1.1996979
1.2003656
1.2007233
1.2008122
1.2006712
1.2003361
1.1998395
1.1992107
1.1984754
1.1976563
1.1967732
1.1958433
1.194881
1.193899
1.1929078
1.1919164
1.1909322
1.1899615
1.1890094
1.18808
1.1871767
1.186302
1.185458
1.1846461
1.1838675
1.1831228
1.1824123
1.1817361
1.181094
1.1804857
1.1799105
1.1793678
1.1788567
1.1783765
1.1779259
1.1775041
1.1771098
1.176742
1.1763992
1.1760803
1.1757838
1.1755085
1.175253
1.1750156
1.1747947
1.174589
1.1743975
1.1742182
1.1740461
1.1738768
1.1737153
1.1735755
1.1734434
1.1732385
1.1729102
1.1726925
1.1730022
1.1733247
1.0806745
1.1207622
1.1095002
1.1266732
1.1291675
1.1386888
1.1458404
1.1535952
1.1610171
1.1681694
1.1748997
1.1811192
1.1867503
1.1917423
1.1960691
1.1997288
1.2027395
1.2051357
1.2069629
1.208274
1.2091255
1.2095742
1.2096752
1.2094804
1.2090375
1.2083897
1.2075753
1.2066279
1.2055769
1.2044476
1.2032616
1.2020371
1.2007899
1.1995328
1.1982769
1.197031
1.1958026
1.1945978
1.1934213
1.1922771
1.1911683
1.1900971
1.1890651
1.1880736
1.1871234
1.1862147
1.1853476
1.1845219
1.1837372
1.1829928
1.1822879
1.1816217
1.1809931
1.1804011
1.1798444
1.1793218
1.1788322
1.1783741
1.1779463
1.1775474
1.177176
1.1768307
1.1765101
1.1762127
1.1759372
1.1756817
1.1754449
1.1752255
1.1750224
1.1748329
1.1746522
1.174478
1.174318
1.1741831
1.1740503
1.173843
1.1735416
1.1733885
1.1737153
1.1739557
1.0918316
1.1332619
1.1241128
1.1420785
1.1468955
1.1571822
1.1656626
1.174189
1.1821043
1.1893848
1.1959057
1.2016067
1.2064596
1.210471
1.2136746
1.216125
1.2178899
1.2190444
1.2196655
1.2198288
1.219605
1.2190594
1.2182502
1.2172289
1.2160401
1.2147224
1.2133084
1.2118257
1.2102977
1.2087437
1.2071796
1.2056188
1.2040719
1.2025479
1.2010537
1.199595
1.1981762
1.1968007
1.195471
1.194189
1.1929559
1.1917724
1.1906388
1.189555
1.1885209
1.1875357
1.1865988
1.1857092
1.1848659
1.1840676
1.1833132
1.1826013
1.1819305
1.1812995
1.1807067
1.1801508
1.1796303
1.1791436
1.1786894
1.1782662
1.1778724
1.1775067
1.1771675
1.1768533
1.1765627
1.176294
1.1760458
1.175817
1.1756062
1.1754102
1.1752248
1.17505
1.1748947
1.1747649
1.1746311
1.174427
1.1741611
1.1740672
1.1743915
1.1745577
1.1068352
1.1495522
1.1432911
1.1619038
1.1693866
1.1803235
1.1896508
1.1983799
1.206064
1.2126812
1.218196
1.2226326
1.2260504
1.2285355
1.2301893
1.2311188
1.2314302
1.2312236
1.2305907
1.2296125
1.2283601
1.2268942
1.2252663
1.2235196
1.2216898
1.2198068
1.2178946
1.2159733
1.2140587
1.2121639
1.2102991
1.2084725
1.2066904
1.2049578
1.2032783
1.2016546
1.2000885
1.1985813
1.1971336
1.1957455
1.1944167
1.1931469
1.1919351
1.1907804
1.1896817
1.1886377
1.1876469
1.186708
1.1858193
1.1849794
1.1841866
1.1834392
1.1827357
1.1820744
1.1814537
1.1808719
1.1803274
1.1798186
1.1793441
1.1789022
1.1784913
1.17811
1.1777568
1.1774302
1.1771286
1.1768505
1.1765947
1.17636
1.1761446
1.1759451
1.1757585
1.1755865
1.1754378
1.1753127
1.1751785
1.1749822
1.1747549
1.1747113
1.1750224
1.1751322
1.127166
1.1709282
1.1684623
1.1871667
1.1970203
1.2080717
1.2172225
1.2250683
1.2314435
1.2364152
1.2400789
1.2425723
1.2440476
1.2446602
1.2445572
1.2438727
1.2427247
1.2412142
1.2394267
1.237433
1.2352916
1.2330499
1.2307461
1.2284112
1.2260696
1.223741
1.2214406
1.2191804
1.2169696
1.2148153
1.2127228
1.2106958
1.208737
1.2068481
1.20503
1.2032831
1.2016072
1.2000018
1.1984661
1.1969988
1.1955986
1.1942642
1.1929939
1.1917859
1.1906387
1.1895502
1.1885188
1.1875425
1.1866195
1.1857479
1.1849258
1.1841514
1.1834229
1.1827384
1.1820962
1.1814946
1.1809318
1.1804062
1.1799162
1.17946
1.1790363
1.1786434
1.1782798
1.1779441
1.1776348
1.1773504
1.1770898
1.1768518
1.1766341
1.1764336
1.1762484
1.1760816
1.1759398
1.1758185
1.1756854
1.1755032
1.1753183
1.1753143
1.1755932
1.1756549
1.1554236
1.1981848
1.2007244
1.2187593
1.2289823
1.2388193
1.2463928
1.2520991
1.2560659
1.2585317
1.259732
1.2598979
1.2592374
1.2579312
1.2561314
1.2539633
1.2515284
1.248908
1.2461666
1.2433546
1.2405116
1.2376682
1.2348482
1.2320696
1.2293459
1.2266875
1.2241017
1.2215939
1.2191678
1.2168256
1.2145685
1.2123971
1.2103111
1.2083098
1.206392
1.2045565
1.2028015
1.2011253
1.1995259
1.1980012
1.1965492
1.1951677
1.1938545
1.1926075
1.1914245
1.1903032
1.1892415
1.1882374
1.1872886
1.1863932
1.185549
1.1847541
1.1840066
1.1833045
1.182646
1.1820293
1.1814525
1.1809141
1.1804123
1.1799455
1.1795121
1.1791105
1.1787394
1.1783971
1.1780823
1.1777937
1.1775302
1.1772903
1.1770719
1.1768722
1.1766905
1.1765298
1.1763941
1.1762752
1.1761449
1.1759823
1.1758408
1.175864
1.1760925
1.1760986
1.194183
1.2331247
1.2388763
1.2541489
1.2632504
1.2701375
1.2745038
1.2768963
1.2776748
1.2772039
1.2757824
1.2736571
1.2710241
1.268037
1.2648141
1.2614459
1.2580008
1.2545303
1.2510727
1.2476566
1.2443028
1.2410264
1.2378381
1.2347452
1.2317526
1.228863
1.2260778
1.2233975
1.2208215
1.2183485
1.2159769
1.2137048
1.21153
1.20945
1.2074622
1.2055642
1.2037531
1.2020264
1.2003814
1.1988153
1.1973257
1.1959098
1.1945651
1.193289
1.1920792
1.1909332
1.1898486
1.1888231
1.1878545
1.1869406
1.1860792
1.1852683
1.1845057
1.1837897
1.1831182
1.1824893
1.1819014
1.1813527
1.1808415
1.1803661
1.179925
1.1795166
1.1791394
1.178792
1.1784731
1.1781813
1.1779156
1.1776746
1.177456
1.177258
1.1770804
1.1769257
1.176795
1.1766784
1.1765541
1.1764136
1.1763073
1.1763381
1.1765112
1.1764913
1.2416354
1.2741014
1.281237
1.2910083
1.2958949
1.2982223
1.2983792
1.2970134
1.2945573
1.2913552
1.2876592
1.2836545
1.2794751
1.2752173
1.2709498
1.266721
1.2625648
1.2585047
1.2545563
1.2507297
1.2470311
1.2434637
1.2400285
1.2367253
1.2335525
1.2305078
1.2275887
1.2247918
1.222114
1.2195516
1.2171012
1.2147593
1.2125221
1.2103863
1.2083484
1.206405
1.2045528
1.2027885
1.201109
1.1995113
1.1979924
1.1965493
1.1951794
1.1938799
1.1926481
1.1914815
1.1903776
1.189334
1.1883483
1.1874183
1.1865417
1.1857165
1.1849406
1.1842119
1.1835286
1.1828888
1.1822906
1.1817325
1.1812125
1.1807292
1.1802809
1.1798662
1.1794834
1.1791313
1.1788084
1.1785136
1.1782456
1.1780031
1.1777842
1.1775875
1.1774133
1.1772629
1.1771354
1.1770224
1.1769097
1.176796
1.1767178
1.1767369
1.1768396
1.1768011
1.2955636
1.3161781
1.3207194
1.3230812
1.3222896
1.3196483
1.3157699
1.3111428
1.3060874
1.3008203
1.2954854
1.2901771
1.284957
1.2798642
1.2749229
1.2701472
1.2655444
1.2611172
1.2568652
1.2527859
1.2488757
1.24513
1.2415437
1.2381115
1.2348279
1.2316876
1.2286853
1.2258157
1.2230739
1.2204548
1.2179539
1.2155667
1.2132887
1.2111158
1.2090441
1.2070696
1.2051888
1.2033981
1.201694
1.2000733
1.1985328
1.1970696
1.1956806
1.1943631
1.1931142
1.1919315
1.1908122
1.189754
1.1887545
1.1878113
1.1869223
1.1860853
1.1852981
1.1845589
1.1838657
1.1832165
1.1826096
1.1820434
1.181516
1.1810259
1.1805714
1.1801511
1.1797635
1.1794073
1.179081
1.1787835
1.1785134
1.1782694
1.1780501
1.1778543
1.1776819
1.1775331
1.1774059
1.1772947
1.1771922
1.1771001
1.1770397
1.1770406
1.1770885
1.1770655
1.3482956
1.3515986
1.3503844
1.3459362
1.3401214
1.3335643
1.326728
1.3198535
1.3130868
1.3065067
1.3001562
1.2940552
1.2882109
1.2826223
1.277284
1.2721878
1.2673243
1.2626835
1.2582553
1.2540298
1.2499974
1.2461489
1.2424756
1.2389694
1.2356224
1.2324275
1.2293778
1.2264668
1.2236886
1.2210374
1.2185079
1.216095
1.2137938
1.2116
1.2095091
1.2075171
1.20562
1.2038141
1.2020959
1.200462
1.198909
1.197434
1.1960338
1.1947056
1.1934465
1.192254
1.1911254
1.1900583
1.1890502
1.1880988
1.1872018
1.1863572
1.1855629
1.1848167
1.1841168
1.1834614
1.1828486
1.1822767
1.181744
1.181249
1.18079
1.1803656
1.1799744
1.1796149
1.1792858
1.178986
1.178714
1.1784687
1.1782488
1.1780534
1.1778818
1.1777331
1.1776053
1.1774958
1.1774021
1.177326
1.1772744
1.1772539
1.1772556
1.1772395
1.3822583
1.3747044
1.3671926
1.3589523
1.3503905
1.3419203
1.3337076
1.3258266
1.3183058
1.3111485
1.3043462
1.2978843
1.2917457
1.2859125
1.2803672
1.2750926
1.270073
1.2652935
1.2607403
1.2564008
1.2522633
1.2483169
1.2445517
1.2409586
1.2375291
1.2342553
1.2311299
1.2281462
1.2252977
1.2225786
1.2199833
1.2175066
1.2151437
1.2128898
1.2107406
1.2086919
1.2067399
1.2048807
1.2031108
1.2014267
1.1998252
1.198303
1.1968573
1.1954851
1.1941836
1.1929502
1.1917821
1.190677
1.1896324
1.188646
1.1877156
1.1868389
1.1860139
1.1852385
1.1845109
1.1838291
1.1831913
1.1825958
1.182041
1.1815251
1.1810467
1.1806042
1.1801961
1.1798212
1.179478
1.1791652
1.1788817
1.178626
1.1783973
1.1781945
1.1780166
1.177862
1.177729
1.1776167
1.1775254
1.1774555
1.1774048
1.1773683
1.1773437
1.1773349
1.1634675
1.1681104
1.1826958
1.1945248
1.2000007
1.2012624
1.2013343
1.2010057
1.2010407
1.2007508
1.2004898
1.1999423
1.199351
1.1987097
1.1980236
1.1972971
1.1965348
1.1957424
1.1949247
1.1940859
1.1932301
1.1923606
1.1914807
1.1905933
1.189701
1.1888062
1.1879111
1.1870177
1.1861278
1.1852431
1.1843653
1.1834957
1.1826358
1.181787
1.1809506
1.1801278
1.1793198
1.1785279
1.1777532
1.1769968
1.17626
1.1755437
1.1748492
1.1741774
1.1735296
1.1729066
1.1723096
1.1717395
1.1711972
1.1706836
1.1701994
1.1697454
1.1693221
1.1689299
1.1685691
1.1682397
1.1679417
1.1676747
1.1674382
1.1672314
1.1670532
1.1669021
1.1667767
1.1666752
1.1665955
1.1665349
1.1664914
1.166459
1.1664411
1.1664195
1.1664236
1.1663844
1.1664288
1.1663185
1.1664519
1.1661449
1.1664657
1.1658239
1.1664504
1.1652919
1.1592521
1.1702426
1.1865071
1.1948087
1.1970635
1.1969731
1.1964429
1.1961937
1.1958759
1.1955728
1.1951803
1.1947836
1.1943401
1.1938604
1.1933417
1.1927914
1.1922102
1.1916012
1.1909664
1.1903084
1.1896294
1.1889317
1.1882176
1.1874893
1.186749
1.1859988
1.1852409
1.1844773
1.1837101
1.1829411
1.1821724
1.1814056
1.1806427
1.1798854
1.1791353
1.1783942
1.1776635
1.176945
1.17624
1.1755502
1.1748769
1.1742217
1.1735858
1.1729706
1.1723774
1.1718074
1.1712619
1.170742
1.1702486
1.1697829
1.1693456
1.1689375
1.1685592
1.1682111
1.1678935
1.1676065
1.1673499
1.1671233
1.1669261
1.1667576
1.1666163
1.1665009
1.1664099
1.1663413
1.1662931
1.1662624
1.166247
1.1662414
1.1662479
1.1662505
1.1662741
1.1662587
1.1663154
1.1662296
1.1663653
1.1660903
1.1664085
1.1657912
1.1664211
1.1652543
1.1598642
1.1733138
1.1849959
1.1913603
1.192326
1.1918468
1.1913413
1.1910803
1.1907868
1.1905039
1.1901714
1.1898355
1.1894648
1.1890813
1.1886708
1.1882406
1.1877875
1.1873135
1.1868188
1.1863041
1.1857705
1.185219
1.1846508
1.1840671
1.1834694
1.1828591
1.1822376
1.1816067
1.180968
1.180323
1.1796737
1.1790217
1.1783688
1.1777168
1.1770675
1.1764227
1.1757841
1.1751535
1.1745326
1.1739233
1.1733271
1.1727457
1.1721808
1.1716338
1.1711064
1.1705999
1.1701158
1.1696553
1.1692196
1.1688099
1.168427
1.1680718
1.167745
1.1674471
1.1671783
1.1669387
1.1667281
1.1665461
1.1663922
1.1662653
1.1661642
1.1660873
1.1660332
1.1659997
1.1659848
1.1659856
1.1659998
1.1660221
1.166054
1.1660813
1.1661256
1.1661334
1.1662042
1.1661408
1.1662818
1.1660347
1.1663525
1.1657581
1.1663921
1.1652183
1.1576082
1.1719712
1.1826565
1.1873578
1.1871901
1.1868039
1.186363
1.1861641
1.1858487
1.1855979
1.1852865
1.1850037
1.1846895
1.1843786
1.1840474
1.1837074
1.1833522
1.1829841
1.1826017
1.1822048
1.1817934
1.1813674
1.1809272
1.180473
1.1800054
1.1795251
1.1790329
1.1785298
1.178017
1.1774957
1.1769672
1.1764329
1.1758945
1.1753536
1.1748117
1.1742706
1.1737322
1.1731981
1.1726703
1.1721504
1.1716404
1.171142
1.170657
1.170187
1.1697339
1.1692991
1.1688842
1.1684907
1.1681198
1.1677728
1.1674508
1.1671546
1.166885
1.1666425
1.1664273
1.1662397
1.1660793
1.1659457
1.1658385
1.1657564
1.1656982
1.1656624
1.1656472
1.1656508
1.1656709
1.1657046
1.1657495
1.1658007
1.1658589
1.1659114
1.165977
1.1660079
1.1660939
1.1660518
1.1662006
1.1659786
1.166299
1.1657251
1.1663644
1.1651846
1.1519964
1.1683827
1.1782469
1.1817829
1.1812449
1.1811597
1.1808022
1.1807419
1.1805017
1.1803684
1.180148
1.1799738
1.1797572
1.1795531
1.1793269
1.1790959
1.1788505
1.1785945
1.1783258
1.1780444
1.1777502
1.1774428
1.1771223
1.1767888
1.1764425
1.1760838
1.1757131
1.1753312
1.1749387
1.1745365
1.1741256
1.1737073
1.1732827
1.1728532
1.1724202
1.1719854
1.1715504
1.1711169
1.1706867
1.1702614
1.1698431
1.1694335
1.1690344
1.1686477
1.1682751
1.1679182
1.1675788
1.1672583
1.1669581
1.1666797
1.166424
1.166192
1.1659845
1.1658021
1.165645
1.1655134
1.1654069
1.1653253
1.1652679
1.1652335
1.1652208
1.1652283
1.1652542
1.1652966
1.1653531
1.165421
1.1654978
1.1655786
1.1656639
1.165742
1.1658296
1.1658834
1.1659853
1.1659636
1.1661217
1.1659231
1.166247
1.1656928
1.1663377
1.1651531
1.1460169
1.1648421
1.1733358
1.1762364
1.1755479
1.1757185
1.1754058
1.175483
1.175308
1.1752866
1.1751475
1.175075
1.174948
1.1748419
1.1747106
1.1745779
1.1744303
1.1742738
1.1741059
1.173927
1.1737367
1.173535
1.1733217
1.1730967
1.17286
1.1726119
1.1723525
1.1720822
1.1718014
1.1715108
1.171211
1.170903
1.1705876
1.1702661
1.1699397
1.1696098
1.1692777
1.1689451
1.1686136
1.168285
1.1679609
1.1676431
1.1673335
1.1670339
1.1667459
1.1664714
1.1662119
1.1659691
1.1657443
1.1655389
1.165354
1.1651906
1.1650495
1.1649312
1.164836
1.164764
1.1647149
1.1646883
1.1646834
1.1646993
1.1647344
1.1647872
1.164856
1.1649386
1.165033
1.1651361
1.1652455
1.1653567
1.1654696
1.1655736
1.1656836
1.1657603
1.1658785
1.165877
1.1660447
1.1658692
1.1661967
1.1656616
1.1663109
1.1651239
1.1408237
1.1614838
1.1684942
1.1710895
1.1702968
1.170669
1.1703642
1.1705517
1.1704158
1.1704826
1.170406
1.1704205
1.1703683
1.1703399
1.1702821
1.1702284
1.1701613
1.1700884
1.1700064
1.1699155
1.1698154
1.1697057
1.1695862
1.1694567
1.1693171
1.1691672
1.1690073
1.1688375
1.168658
1.1684692
1.1682716
1.1680659
1.1678529
1.1676333
1.1674083
1.1671791
1.1669468
1.1667129
1.1664789
1.1662462
1.1660166
1.1657916
1.165573
1.1653624
1.1651616
1.1649722
1.1647958
1.164634
1.164488
1.1643593
1.1642488
1.1641575
1.1640863
1.1640354
1.1640054
1.163996
1.1640071
1.1640382
1.1640884
1.1641567
1.1642416
1.1643415
1.1644545
1.1645788
1.164712
1.1648513
1.164994
1.1651361
1.165277
1.1654072
1.1655398
1.1656392
1.1657737
1.1657928
1.16597
1.1658169
1.1661481
1.1656319
1.1662836
1.1650972
1.1359925
1.1584698
1.1639579
1.1664292
1.1655278
1.1660634
1.1657343