/*--------------------------------*- C++ -*----------------------------------*\
  =========                 |
  \\      /  F ield         | OpenFOAM: The Open Source CFD Toolbox
   \\    /   O peration     | Website:  https://openfoam.org
    \\  /    A nd           | Version:  12
     \\/     M anipulation  |
\*---------------------------------------------------------------------------*/
FoamFile
{
    format      ascii;
    class       volVectorField;
    location    "0.133";
    object      U;
}
// * * * * * * * * * * * * * * * * * * * * * * * * * * * * * * * * * * * * * //

dimensions      [0 1 -1 0 0 0 0];

internalField   nonuniform List<vector> 
16000
(
(215.44155 -3.1412463e-17 -8.3750233)
(252.32707 0 5.3784371)
(238.45026 0 -7.5666853)
(246.09697 4.971513e-17 3.7860652)
(241.41161 -4.9072183e-17 -5.9535118)
(243.61802 0 1.7544559)
(241.82393 0 -4.3281553)
(242.33045 8.3995822e-17 -0.028080638)
(241.49097 -7.9802731e-17 -3.1621959)
(241.3696 0 -1.268684)
(240.85604 7.2107706e-17 -2.5683922)
(240.50902 -2.0543509e-16 -1.9869439)
(240.06574 1.3002785e-16 -2.4266692)
(239.63738 -1.2368615e-16 -2.3636293)
(239.18096 1.1735418e-16 -2.5250354)
(238.71071 -3.4812118e-18 -2.597015)
(238.22186 -3.3070077e-18 -2.7005523)
(237.71533 -9.7582853e-17 -2.7933237)
(237.19059 1.91186e-16 -2.8878396)
(236.6475 -9.0710483e-17 -2.9801298)
(236.0859 1.7254277e-16 -3.0705803)
(235.50574 -1.6355667e-16 -3.158496)
(234.90702 0 -3.2433806)
(234.28984 1.5224427e-16 -3.324655)
(233.65439 -4.1212543e-18 -3.4017318)
(233.00098 -2.6571347e-16 -3.4739917)
(232.33 1.2593906e-16 -3.540809)
(231.64201 0 -3.6015452)
(230.93766 0 -3.6555656)
(230.21774 2.1871162e-16 -3.7022444)
(229.48319 -2.0378169e-16 -3.7409779)
(228.73507 0 -3.7711934)
(227.97459 0 -3.79236)
(227.20309 0 -3.804003)
(226.42203 5.1411563e-18 -3.8057133)
(225.633 1.5602009e-16 -3.7971599)
(224.83769 -1.4282399e-16 -3.7781006)
(224.0379 -1.3988339e-16 -3.7483905)
(223.2355 1.2385878e-16 -3.7079912)
(222.4324 0 -3.6569778)
(221.63057 -1.1854154e-16 -3.5955408)
(220.83199 1.1189061e-16 -3.5239895)
(220.03863 -2.1205025e-16 -3.4427492)
(219.25243 2.0006516e-16 -3.3523576)
(218.47525 -1.9539009e-16 -3.2534574)
(217.7089 3.5772819e-16 -3.1467853)
(216.95508 5.6028004e-18 -3.0331609)
(216.21535 2.955855e-19 -2.9134714)
(215.49115 -1.5057049e-16 -2.7886558)
(214.78376 1.4240386e-16 -2.6596881)
(214.09432 -1.2578708e-16 -2.52756)
(213.4238 0 -2.3932619)
(212.77301 7.47597e-18 -2.2577675)
(212.14259 0 -2.1220162)
(211.53305 6.6525816e-18 -1.9868992)
(210.94471 2.0714373e-16 -1.8532484)
(210.37777 -3.7860641e-16 -1.7218245)
(209.83223 1.0934352e-17 -1.5933068)
(209.30789 1.682379e-16 -1.4682835)
(208.80434 -1.4891103e-16 -1.3472609)
(208.32089 1.4026521e-16 -1.2306393)
(207.85674 -8.8260841e-18 -1.1187627)
(207.41094 0 -1.0118814)
(206.98233 0 -0.91016462)
(206.56961 -1.1121756e-16 -0.81372714)
(206.1712 1.1189624e-16 -0.72263177)
(205.7853 -9.9146791e-17 -0.63690221)
(205.40988 1.9352671e-16 -0.55651322)
(205.0428 -1.8886102e-16 -0.48136453)
(204.68202 8.3723834e-17 -0.41125841)
(204.32554 5.28677e-18 -0.34589226)
(203.97092 0 -0.28486149)
(203.6149 4.7528288e-18 -0.22777753)
(203.25321 -4.5144005e-18 -0.17442681)
(202.88176 0 -0.1242086)
(202.49852 -3.3755766e-17 -0.076826468)
(202.0978 6.2478161e-17 -0.031891615)
(201.70997 -3.1747668e-17 0.023667527)
(201.16684 0 0.0021746943)
(200.96923 0 0.25162951)
(216.75274 0 -11.194663)
(253.95987 -3.7280747e-18 3.333045)
(239.36335 -1.1981089e-16 -10.491461)
(247.55862 1.104643e-16 1.7019038)
(242.51816 0 -8.8147704)
(244.95465 1.0163369e-16 -0.40256154)
(242.95654 -1.8767928e-16 -7.0729551)
(243.55077 -1.0213328e-19 -2.3080175)
(242.61998 8.4580038e-17 -5.7521041)
(242.49896 0 -3.6662578)
(241.94444 -1.5278139e-16 -5.0435771)
(241.5683 1.494491e-16 -4.4296814)
(241.0929 1.4214037e-16 -4.8556377)
(240.63007 -2.616608e-16 -4.7933866)
(240.1391 1.2028703e-16 -4.9345871)
(239.63245 1.1058565e-17 -4.9991997)
(239.10625 1.1563767e-16 -5.0870928)
(238.5611 -1.0298873e-16 -5.1660713)
(237.9966 0 -5.2444651)
(237.41266 0 -5.3195844)
(236.80919 5.6830703e-18 -5.3913122)
(236.18623 -1.7828092e-16 -5.4589448)
(235.54388 3.3805471e-16 -5.5218527)
(234.88238 -3.1588679e-16 -5.5793574)
(234.20206 1.4277822e-16 -5.6307663)
(233.50338 0 -5.6753726)
(232.78694 1.245274e-16 -5.7124614)
(232.05346 -1.3353158e-16 -5.741325)
(231.30382 0 -5.7612697)
(230.53902 3.5288948e-18 -5.7716281)
(229.76024 -1.3384937e-17 -5.7717701)
(228.96877 0 -5.7611182)
(228.16608 0 -5.7391557)
(227.35374 -1.7079268e-16 -5.7054465)
(226.53347 3.391371e-16 -5.6596434)
(225.70709 -1.628511e-16 -5.6015015)
(224.87651 -1.5924992e-16 -5.5308912)
(224.04374 1.4575591e-16 -5.4478046)
(223.21082 -1.1226324e-16 -5.352365)
(222.37983 -2.8482254e-19 -5.2448313)
(221.55288 -2.6640214e-19 -5.125599)
(220.73202 2.3301558e-16 -4.9951996)
(219.91928 -1.0993997e-16 -4.8542949)
(219.11661 0 -4.7036691)
(218.32586 2.0256824e-16 -4.5442177)
(217.54876 1.1946605e-17 -4.3769334)
(216.78692 -5.1244418e-18 -4.2028884)
(216.04176 -1.6469374e-16 -4.0232171)
(215.31456 0 -3.8390956)
(214.60641 -1.4669189e-16 -3.6517215)
(213.91823 -8.8656877e-18 -3.4622939)
(213.25076 2.6035219e-16 -3.271992)
(212.60456 -1.302076e-16 -3.081958)
(211.98006 0 -2.8932789)
(211.3775 -2.0401046e-17 -2.7069718)
(210.79699 -2.1139332e-16 -2.5239735)
(210.2385 3.6158702e-16 -2.3451282)
(209.70182 -2.1545894e-16 -2.1711794)
(209.1866 0 -2.0027623)
(208.69229 -1.7093601e-16 -1.8404138)
(208.21806 1.7962632e-16 -1.6845475)
(207.763 2.6706596e-17 -1.5355007)
(207.32606 0 -1.3935179)
(206.90602 -1.4199032e-16 -1.2587418)
(206.50153 7.3280921e-18 -1.1312509)
(206.111 1.1178175e-16 -1.0110631)
(205.73261 -1.9748804e-17 -0.89815043)
(205.36428 9.3052294e-17 -0.79243345)
(205.00376 -1.0517968e-16 -0.69375694)
(204.6489 5.5111536e-18 -0.60186753)
(204.29761 -5.1998858e-18 -0.51638836)
(203.94755 0 -0.4368029)
(203.59552 -4.639147e-18 -0.36265809)
(203.23706 4.3876971e-18 -0.29380275)
(202.86775 8.3097138e-18 -0.22954912)
(202.48567 9.8456492e-19 -0.16872181)
(202.09049 0 -0.11097101)
(201.67296 3.0225425e-17 -0.059649304)
(201.2023 -5.7577459e-17 -0.031273239)
(200.88443 2.5855963e-17 0.15693351)
(217.92738 0 -14.087473)
(255.44251 -1.2262266e-16 1.0908149)
(240.335 2.5006032e-16 -13.502155)
(248.81477 -2.2332098e-16 -0.55309529)
(243.51307 1.10293e-16 -11.75375)
(246.08623 -3.2658384e-18 -2.7516012)
(243.96041 9.9403711e-17 -9.8670124)
(244.58042 -9.4144332e-17 -4.7853425)
(243.59277 -5.5887392e-18 -8.4070728)
(243.44845 -5.3064932e-18 -6.2297438)
(242.85861 -1.008044e-17 -7.6177276)
(242.44648 1.3907476e-16 -7.0093118)
(241.93562 -1.4097239e-16 -7.4037388)
(241.43432 1.3835586e-16 -7.348359)
(240.90427 -1.1885577e-16 -7.4680172)
(240.3569 -1.557771e-17 -7.5244322)
(239.78871 0 -7.5965729)
(239.2003 -1.2184628e-20 -7.6605605)
(238.59136 -2.2657261e-16 -7.7217374)
(237.96189 -3.6634038e-19 -7.7780806)
(237.31193 1.7366231e-16 -7.829157)
(236.64164 1.7058445e-17 -7.8741763)
(235.95128 -2.157654e-17 -7.9123871)
(235.24124 0 -7.9430056)
(234.51204 7.0706794e-21 -7.9652421)
(233.76435 -1.6563172e-16 -7.978304)
(232.99897 1.479737e-16 -7.9814075)
(232.21687 8.2586562e-18 -7.9737853)
(231.41918 0 -7.954706)
(230.60718 -7.4090802e-18 -7.9234801)
(229.7823 -1.5863661e-21 -7.879481)
(228.94615 -1.9944073e-16 -7.8221563)
(228.10046 2.0086284e-16 -7.7510436)
(227.24711 1.1902567e-17 -7.6657893)
(226.38809 -1.8018175e-16 -7.566157)
(225.52549 1.4870511e-16 -7.4520449)
(224.66146 -1.811946e-16 -7.3234943)
(223.79824 1.5187381e-16 -7.1806989)
(222.93806 -1.4379854e-16 -7.0240071)
(222.08315 1.3552417e-16 -6.8539275)
(221.23571 1.602429e-17 -6.6711243)
(220.39787 0 -6.4764101)
(219.57167 1.9988452e-16 -6.2707383)
(218.75902 -2.4194083e-16 -6.0551877)
(217.9617 0 -5.8309459)
(217.18131 1.7956242e-16 -5.5992915)
(216.41927 -1.5757059e-16 -5.3615696)
(215.67683 1.7000801e-16 -5.119171)
(214.955 -1.7982255e-16 -4.8735075)
(214.25464 0 -4.6259894)
(213.57636 1.7731417e-16 -4.3780032)
(212.92062 -1.3325734e-16 -4.1308884)
(212.2877 0 -3.885921)
(211.6777 0 -3.6442961)
(211.09059 1.2485172e-16 -3.407113)
(210.5262 -2.0850749e-16 -3.1753675)
(209.98424 1.2239637e-16 -2.9499406)
(209.46429 1.8419747e-16 -2.731594)
(208.96576 1.9715881e-19 -2.5209642)
(208.48794 1.752547e-19 -2.3185729)
(208.02988 -3.2419948e-16 -2.1248104)
(207.59052 8.9470415e-17 -1.9399688)
(207.1687 0 -1.7642547)
(206.76315 1.4219087e-16 -1.5977591)
(206.37245 -1.6310358e-16 -1.4405021)
(205.995 1.1147605e-16 -1.2924387)
(205.62899 1.3155354e-17 -1.153472)
(205.2723 -8.6013395e-17 -1.0234524)
(204.92264 1.1549851e-17 -0.90216031)
(204.57773 2.1720051e-17 -0.7892862)
(204.23543 -1.0213471e-16 -0.68437572)
(203.8935 9.6053936e-17 -0.58680549)
(203.5488 -7.23664e-17 -0.49610812)
(203.19677 1.3630838e-16 -0.41216762)
(202.83305 -5.6205858e-17 -0.33384348)
(202.45639 -6.063724e-17 -0.2595308)
(202.06395 5.0098701e-17 -0.19236249)
(201.64111 0 -0.1345137)
(201.20697 3.2056353e-18 -0.071418569)
(200.82492 -1.2155416e-17 0.058201292)
(218.94143 0 -17.049321)
(256.77348 0 -1.2884896)
(241.09021 0 -16.645832)
(249.89133 1.0672333e-16 -2.9107545)
(244.32288 -1.2392029e-16 -14.818557)
(247.0516 -2.2070419e-16 -5.216681)
(244.78381 2.0990889e-16 -12.776661)
(245.4323 -1.2432767e-17 -7.3885514)
(244.38046 5.9200795e-18 -11.170993)
(244.20884 -1.7409052e-16 -8.9237278)
(243.57912 1.704331e-16 -10.302307)
(243.12551 1.0128787e-17 -9.7136628)
(242.57436 -1.5380727e-16 -10.068636)
(242.02927 1.3663104e-16 -10.021806)
(241.45505 -1.358548e-20 -10.118701)
(240.86181 -8.1943725e-18 -10.164985)
(240.24665 0 -10.219784)
(239.61011 -7.3970055e-18 -10.266337)
(238.95203 -2.1056136e-16 -10.307647)
(238.27251 2.1260991e-16 -10.34214)
(237.57174 1.2620126e-17 -10.369154)
(236.85002 -1.196497e-17 -10.387813)
(236.10779 2.1561129e-16 -10.397265)
(235.34564 -1.7174595e-16 -10.396635)
(234.56431 1.0184894e-17 -10.385042)
(233.76471 1.9312247e-16 -10.361624)
(232.94791 -1.27751e-16 -10.32553)
(232.11516 0 -10.275955)
(231.26791 1.4761389e-16 -10.212143)
(230.40775 -1.2390437e-16 -10.133412)
(229.53646 2.4971164e-16 -10.039165)
(228.65596 -1.3339544e-17 -9.9289167)
(227.76835 -2.0975273e-16 -9.8023053)
(226.8758 1.7397084e-16 -9.6591108)
(225.98063 -1.8741121e-16 -9.4992673)
(225.0852 -3.0191553e-20 -9.322878)
(224.19192 2.0950636e-16 -9.1302217)
(223.30322 -3.1617882e-16 -8.9217573)
(222.4215 9.3057024e-17 -8.6981257)
(221.54909 3.5231516e-17 -8.4601447)
(220.68826 -4.9818099e-17 -8.2088034)
(219.84111 0 -7.9452457)
(219.00964 -8.8643491e-17 -7.6707568)
(218.19564 1.3883191e-16 -7.3867402)
(217.40071 -2.0962135e-16 -7.0946964)
(216.62625 1.9695945e-16 -6.7961985)
(215.87341 -2.0890262e-16 -6.4928626)
(215.14315 3.9280468e-16 -6.1863233)
(214.43618 -3.0782788e-16 -5.8782072)
(213.75299 3.0867891e-16 -5.5701069)
(213.09388 -1.4488172e-16 -5.2635585)
(212.45893 1.3637769e-16 -4.9600209)
(211.84808 -9.5870095e-17 -4.6608568)
(211.2611 3.0061953e-17 -4.3673213)
(210.69764 0 -4.0805466)
(210.15723 0 -3.8015383)
(209.6393 0 -3.5311675)
(209.14318 2.3268396e-17 -3.2701686)
(208.6681 0 -3.0191376)
(208.21316 -1.637633e-16 -2.7785434)
(207.77728 1.917079e-16 -2.5487203)
(207.35927 -1.0790094e-16 -2.329887)
(206.9579 -1.1567087e-19 -2.1221826)
(206.57181 2.5242962e-16 -1.9256276)
(206.19955 2.9645054e-17 -1.7401663)
(205.83953 -1.3844341e-16 -1.5656778)
(205.48995 5.1914313e-17 -1.4019862)
(205.14869 -1.45844e-16 -1.2488636)
(204.81343 -4.5569849e-17 -1.1060229)
(204.48179 -6.4054764e-17 -0.9730953)
(204.15157 -6.0063717e-17 -0.84954253)
(203.8206 5.6286044e-17 -0.73465524)
(203.48585 0 -0.62799947)
(203.14273 0 -0.52937885)
(202.78722 -1.5511505e-17 -0.4370008)
(202.41795 0 -0.3498832)
(202.02865 6.851446e-18 -0.27442729)
(201.6101 5.1588855e-17 -0.20311675)
(201.19764 -7.2880172e-17 -0.11367876)
(200.76681 -1.0174047e-20 -0.04147092)
(219.77869 0 -20.209183)
(257.93274 -8.8227482e-18 -3.7445039)
(241.71113 2.6684923e-16 -19.925374)
(250.74904 -2.492539e-16 -5.3943337)
(244.8976 2.543442e-16 -17.998488)
(247.81502 -2.3270128e-16 -7.8351131)
(245.40775 -2.2182548e-16 -15.792254)
(246.07362 2.0998575e-16 -10.15013)
(244.95985 0 -14.038163)
(244.75049 0 -11.767892)
(244.07861 1.7996191e-16 -13.101295)
(243.57672 -1.7048924e-16 -12.550899)
(242.98051 -1.0128205e-17 -12.856626)
(242.38644 2.8808134e-17 -12.817556)
(241.76311 -9.1165801e-18 -12.889604)
(241.11919 3.4577156e-17 -12.92198)
(240.45233 0 -12.956476)
(239.76302 0 -12.981827)
(239.05122 -2.3613885e-16 -12.999434)
(238.31718 2.0942228e-16 -13.007944)
(237.56121 0 -13.006512)
(236.78383 0 -12.994155)
(235.98569 -1.9054664e-16 -12.969891)
(235.16764 3.6060582e-16 -12.93274)
(234.3307 -1.705546e-16 -12.881722)
(233.47611 -2.0205471e-17 -12.815888)
(232.60529 -3.8269169e-17 -12.734337)
(231.71985 -1.4500698e-16 -12.636232)
(230.82163 1.197258e-16 -12.520827)
(229.91263 0 -12.387479)
(228.99501 -3.0663965e-17 -12.235678)
(228.07112 0 -12.065066)
(227.14341 0 -11.875446)
(226.21442 2.0700117e-16 -11.666812)
(225.28679 -2.1940546e-16 -11.439351)
(224.36315 2.3015486e-17 -11.193453)
(223.44616 -2.1716372e-17 -10.92972)
(222.53839 -4.1055942e-17 -10.64896)
(221.64236 -8.5803711e-20 -10.352185)
(220.76045 8.1503629e-20 -10.04059)
(219.89487 -7.6920934e-20 -9.7155524)
(219.04765 0 -9.378594)
(218.2206 -1.2187278e-16 -9.0313693)
(217.41531 1.1444403e-16 -8.6756298)
(216.63309 0 -8.3131965)
(215.87501 -5.072413e-17 -7.9459332)
(215.14189 1.9064417e-16 -7.5757087)
(214.43428 -2.2348821e-16 -7.2043731)
(213.75249 -2.1025815e-16 -6.8337278)
(213.0966 1.5763807e-16 -6.4655008)
(212.4665 1.1117833e-16 -6.1013245)
(211.86189 -1.3877584e-16 -5.742719)
(211.28229 -3.2535396e-17 -5.3910746)
(210.72712 -2.1373799e-16 -5.047645)
(210.19569 1.1431398e-16 -4.7135359)
(209.68721 -1.0721337e-16 -4.389705)
(209.20085 1.0028086e-16 -4.0769594)
(208.7357 2.349572e-16 -3.7759561)
(208.29078 -1.7572559e-16 -3.4872052)
(207.86503 0 -3.211082)
(207.45725 -3.8452967e-17 -2.9478269)
(207.06616 -7.1976787e-17 -2.6975595)
(206.69044 1.3449213e-16 -2.4603206)
(206.32869 1.2582701e-16 -2.2360406)
(205.97943 -2.3513565e-16 -2.0245708)
(205.6411 8.2348836e-17 -1.8257008)
(205.31192 5.1331905e-17 -1.6391644)
(204.98981 9.5964024e-17 -1.4646482)
(204.67244 1.3452831e-16 -1.3017943)
(204.35737 2.3587245e-20 -1.1501691)
(204.04234 0 -1.0091477)
(203.72526 0 -0.87797064)
(203.40315 -3.4231865e-17 -0.75625666)
(203.07161 9.6038466e-17 -0.64355354)
(202.72706 -8.9820239e-17 -0.53747675)
(202.36717 -8.4075018e-17 -0.43861546)
(201.98336 5.2463408e-17 -0.35488083)
(201.57492 0 -0.26695732)
(201.17749 4.6084437e-17 -0.16020608)
(200.71391 1.7272988e-20 -0.13947845)
(220.41759 0 -23.54126)
(258.8937 1.8833675e-20 -6.2762563)
(242.13981 9.0805468e-18 -23.300579)
(251.43953 2.8869113e-16 -8.0168619)
(245.31726 3.3325244e-19 -21.28219)
(248.34719 -5.0636833e-16 -10.604184)
(245.78632 -3.2346496e-19 -18.902892)
(246.47475 4.5670798e-16 -13.074139)
(245.2988 -2.1013119e-16 -17.006099)
(245.04594 -1.2464474e-17 -14.761441)
(244.33049 1.1838172e-17 -16.013364)
(243.77529 -1.7975797e-16 -15.513937)
(243.13033 1.9151091e-16 -15.762422)
(242.48309 -1.8196677e-16 -15.727045)
(241.80632 3.0652755e-16 -15.771957)
(241.10717 -3.0883721e-16 -15.785938)
(240.38386 1.3764577e-16 -15.796713)
(239.63685 0 -15.796849)
(238.86632 0 -15.786612)
(238.07268 1.4662081e-17 -15.764658)
(237.25653 -2.7801434e-17 -15.729925)
(236.41865 0 -15.68127)
(235.56003 1.996403e-16 -15.617558)
(234.68187 4.7180422e-19 -15.537681)
(233.78562 -3.5729135e-16 -15.440564)
(232.87292 1.6882198e-16 -15.325194)
(231.94565 1.9974771e-17 -15.190649)
(231.00591 0 -15.036111)
(230.056 -1.7893765e-16 -14.860899)
(229.0984 1.3492977e-16 -14.66449)
(228.13575 -2.2374996e-16 -14.446541)
(227.17082 2.106042e-16 -14.206913)
(226.20649 -2.2792983e-16 -13.945679)
(225.24565 2.14546e-16 -13.663149)
(224.29125 7.60551e-17 -13.359869)
(223.34617 0 -13.036623)
(222.41322 0 -12.694435)
(221.49509 4.2388334e-17 -12.334555)
(220.59427 3.9924157e-17 -11.958442)
(219.71307 -3.7587664e-17 -11.567744)
(218.85357 3.5373043e-17 -11.164271)
(218.01755 6.6737147e-17 -10.749963)
(217.20652 -6.2681034e-17 -10.326859)
(216.42172 3.534032e-16 -9.8970591)
(215.66405 -2.7644318e-16 -9.4626918)
(214.93414 5.1885292e-17 -9.025879)
(214.23234 -4.8821424e-17 -8.5887005)
(213.55872 0 -8.1531673)
(212.91311 2.1457779e-16 -7.7211928)
(212.29511 -1.6072158e-16 -7.2945725)
(211.70416 0 -6.8749632)
(211.1395 0 -6.4638727)
(210.60028 1.3224381e-16 -6.0626467)
(210.08551 -6.1810678e-17 -5.6724669)
(209.59419 0 -5.2943469)
(209.12521 -1.6240098e-16 -4.9291349)
(208.6775 1.0108972e-16 -4.5775182)
(208.24991 1.4189104e-16 -4.2400265)
(207.84129 -1.76498e-16 -3.9170399)
(207.45046 1.6497078e-16 -3.6088039)
(207.07611 -1.5388074e-16 -3.3154308)
(206.7169 6.7829894e-20 -3.0369162)
(206.37146 0 -2.7731801)
(206.03836 6.2542704e-17 -2.5240446)
(205.71614 -2.9159899e-16 -2.2892553)
(205.40325 1.6307903e-16 -2.0685011)
(205.09798 0 -1.8614188)
(204.79833 -1.4178173e-16 -1.6676058)
(204.50197 8.8070903e-17 -1.4866309)
(204.20643 1.2320355e-16 -1.317987)
(203.90942 3.2585963e-20 -1.1609681)
(203.60884 -7.1301577e-17 -1.0148111)
(203.30183 9.9711111e-17 -0.87916593)
(202.98436 -1.5489064e-16 -0.75315116)
(202.65325 8.6630227e-17 -0.63405196)
(202.30454 2.691177e-17 -0.52462456)
(201.92877 5.0228178e-17 -0.43222104)
(201.53424 0 -0.3257484)
(201.14976 -4.3752959e-17 -0.2081009)
(200.6611 2.0372409e-17 -0.2345894)
(220.84225 0 -27.041694)
(259.6486 9.8174175e-18 -8.9142538)
(242.36823 -3.061446e-16 -26.800661)
(251.94533 2.4997461e-16 -10.780918)
(245.54024 2.5676798e-16 -24.664857)
(248.6378 -5.0080119e-16 -13.527939)
(245.96557 2.3035607e-16 -22.096044)
(246.62008 2.3321854e-16 -16.160287)
(245.40155 -2.210247e-16 -20.059363)
(245.08451 3.9342246e-17 -17.890968)
(244.32472 0 -19.026284)
(243.71076 0 -18.587062)
(243.01211 -2.2375576e-17 -18.774735)
(242.30586 -1.6988002e-16 -18.738858)
(241.56931 1.4058883e-16 -18.755979)
(240.80829 1.9071632e-17 -18.748065)
(240.02163 -3.6152199e-17 -18.73216)
(239.20997 3.0844593e-16 -18.703204)
(238.37378 -2.2666505e-16 -18.660664)
(237.51382 2.460215e-16 -18.603086)
(236.63105 -2.0330448e-16 -18.529199)
(235.72667 2.7564743e-17 -18.437704)
(234.80213 1.5660243e-16 -18.327336)
(233.85913 -1.9696644e-16 -18.196898)
(232.89962 0 -18.045265)
(231.92581 0 -17.871425)
(230.94013 0 -17.674506)
(229.94526 -1.9727326e-16 -17.453802)
(228.94405 1.8583224e-16 -17.208801)
(227.93952 -3.5212073e-17 -16.939205)
(226.93484 0 -16.644964)
(225.93323 -2.8227103e-16 -16.326286)
(224.93795 2.3591892e-16 -15.983646)
(223.95226 -5.5800786e-17 -15.617799)
(222.97932 1.5780447e-16 -15.229782)
(222.02218 -4.9037868e-17 -14.820889)
(221.0837 -1.8600474e-16 -14.392675)
(220.16651 2.1942621e-16 -13.94692)
(219.27297 -1.6473172e-16 -13.485607)
(218.40517 7.7703588e-17 -13.010884)
(217.56483 -7.2911798e-17 -12.525029)
(216.75336 1.3705997e-16 -12.030405)
(215.9718 -6.4222416e-17 -11.529428)
(215.22088 -2.4171325e-16 -11.024516)
(214.50096 5.0968264e-16 -10.518054)
(213.81209 -2.122757e-16 -10.012361)
(213.15406 -1.4958867e-16 -9.5096545)
(212.52637 9.3003188e-17 -9.0120228)
(211.9283 8.7485779e-17 -8.5214053)
(211.35895 -1.6366071e-16 -8.0395741)
(210.81725 1.5291102e-16 -7.5681223)
(210.302 0 -7.1084585)
(209.81195 1.338381e-16 -6.6618027)
(209.34576 -1.8746299e-16 -6.2291891)
(208.90209 5.8419213e-17 -5.8114701)
(208.47961 5.4442895e-17 -5.4093237)
(208.07698 0 -5.0232634)
(207.6929 0 -4.653646)
(207.32608 0 -4.3006824)
(206.97523 0 -3.9644562)
(206.63899 0 -3.6449253)
(206.31599 -7.1522878e-17 -3.3419408)
(206.00484 0 -3.055286)
(205.70414 -5.5554002e-20 -2.7846615)
(205.41244 2.3094037e-16 -2.5296985)
(205.12826 -2.1482981e-16 -2.289979)
(204.84996 -1.0000185e-16 -2.0650392)
(204.57564 -1.8593122e-16 -1.8543878)
(204.30303 2.5916763e-16 -1.6575169)
(204.02965 4.8140267e-20 -1.4738389)
(203.7532 7.4639475e-17 -1.3025844)
(203.47152 0 -1.1430317)
(203.18187 0 -0.99479743)
(202.88083 0 -0.85644086)
(202.56541 -1.1138389e-16 -0.72532307)
(202.22961 0 -0.60658486)
(201.86447 -9.6222297e-17 -0.50493656)
(201.48689 1.3415409e-16 -0.37901157)
(201.11472 8.3170751e-17 -0.2554067)
(200.60751 -1.9265761e-17 -0.32486305)
(221.0571 0 -30.719187)
(260.20412 0 -11.660717)
(242.40347 3.2209848e-16 -30.432473)
(252.27039 1.9324626e-17 -13.703255)
(245.57835 -2.6953833e-16 -28.157319)
(248.74903 0 -16.629214)
(245.94371 1.6149709e-17 -25.367487)
(246.63937 -3.0613268e-17 -19.400192)
(245.25577 0 -23.177497)
(244.869 1.9297303e-16 -21.139847)
(244.05778 -4.1778435e-16 -22.136335)
(243.37453 1.9782804e-16 -21.765058)
(242.61238 2.3480856e-17 -21.894)
(241.83723 0 -21.853081)
(241.031 2.1069258e-17 -21.841557)
(240.19839 -3.3986535e-16 -21.807387)
(239.33892 7.4925809e-17 -21.760256)
(238.45348 2.5046799e-16 -21.69651)
(237.54296 2.3786636e-16 -21.615121)
(236.60857 -2.5657103e-16 -21.514517)
(235.65177 0 -21.393264)
(234.67429 -2.8788579e-16 -21.249952)
(233.67818 2.444335e-16 -21.083238)
(232.66576 -2.0602752e-16 -20.891901)
(231.63963 1.9418515e-16 -20.674852)
(230.60266 -1.8402833e-16 -20.431171)
(229.55796 3.471619e-16 -20.160156)
(228.50885 -1.6382623e-16 -19.861334)
(227.45882 1.5493902e-16 -19.534503)
(226.41147 -2.9210831e-16 -19.17975)
(225.37047 1.3748392e-16 -18.797473)
(224.33949 1.2984299e-16 -18.38839)
(223.32211 -2.449805e-16 -17.953539)
(222.32183 5.6875719e-17 -17.494273)
(221.34193 -5.7372877e-19 -17.012254)
(220.38543 2.5487193e-16 -16.509409)
(219.45508 0 -15.987921)
(218.55328 1.9384559e-19 -15.450177)
(217.68203 0 -14.898726)
(216.84296 -7.9555135e-17 -14.336238)
(216.03729 -1.4950957e-16 -13.765453)
(215.26581 7.0196967e-17 -13.189127)
(214.52893 0 -12.609995)
(213.8267 -6.1857531e-17 -12.03072)
(213.1588 2.8952398e-16 -11.453855)
(212.52461 -3.250428e-16 -10.881815)
(211.92325 -3.0455918e-16 -10.316845)
(211.35361 2.8436055e-16 -9.7610019)
(210.81439 -1.774586e-16 -9.2161378)
(210.30414 0 -8.6838953)
(209.82133 0 -8.1657025)
(209.36434 7.2425739e-17 -7.6627749)
(208.93155 6.758987e-17 -7.1761228)
(208.52131 1.2596238e-16 -6.7065582)
(208.13201 -5.873754e-17 -6.2547075)
(207.76211 -1.0941278e-16 -5.8210235)
(207.41011 -2.0403158e-16 -5.4057996)
(207.07458 -9.5184978e-17 -5.0091818)
(206.75414 1.7671507e-16 -4.6311823)
(206.44745 0 -4.2716992)
(206.15316 -7.6540632e-17 -3.9305181)
(205.8699 -1.422696e-16 -3.6073334)
(205.59632 1.3218264e-16 -3.3017838)
(205.33104 6.1308098e-17 -3.0134413)
(205.07269 5.7020953e-17 -2.7418202)
(204.81985 0 -2.486394)
(204.57101 1.9656676e-16 -2.2466007)
(204.32437 1.8239203e-16 -2.0218638)
(204.07777 -2.5379347e-16 -1.8115954)
(203.82878 7.8493517e-17 -1.6151231)
(203.57504 -7.2749143e-17 -1.4316446)
(203.31432 -4.1828189e-20 -1.2605135)
(203.04404 2.5002928e-16 -1.1012092)
(202.76156 -2.3171522e-16 -0.9516875)
(202.46377 5.364578e-17 -0.80987996)
(202.14248 1.492124e-16 -0.6831372)
(201.79052 -4.6091605e-17 -0.5716093)
(201.4324 -4.2693052e-17 -0.42619302)
(201.07177 0 -0.30040796)
(200.55174 3.6554803e-17 -0.40405489)
(221.0726 3.9172632e-16 -34.583458)
(260.56528 5.4232449e-19 -14.522948)
(242.22353 -3.5901769e-16 -34.212071)
(252.40822 0 -16.789427)
(245.35488 0 -31.725355)
(248.51872 -2.6785845e-16 -19.90349)
(245.61758 2.7097456e-16 -28.693698)
(246.14259 6.4268652e-17 -22.80097)
(244.84094 -2.4393604e-16 -26.396125)
(244.37465 2.3073124e-16 -24.534574)
(243.50149 -2.4660085e-16 -25.370903)
(242.73613 2.0726977e-16 -25.063123)
(241.8984 -4.9171906e-17 -25.132858)
(241.04267 -4.6629331e-17 -25.077277)
(240.15527 -1.7669547e-16 -25.032068)
(239.24003 1.6689304e-16 -24.963879)
(238.29715 -3.5640844e-16 -24.877552)
(237.32792 5.9910305e-16 -24.77013)
(236.3338 -2.8306927e-16 -24.640193)
(235.31656 -2.6858734e-16 -24.486032)
(234.27832 2.5328165e-16 -24.306079)
(233.22153 -3.0163149e-17 -24.098854)
(232.14898 -2.2705079e-16 -23.863015)
(231.06376 2.1388426e-16 -23.597408)
(229.96927 2.5337061e-16 -23.301098)
(228.86918 -1.428679e-16 -22.973404)
(227.76735 0 -22.613949)
(226.66783 2.5550337e-16 -22.222676)
(225.57475 -3.2092068e-16 -21.799889)
(224.49229 1.1291863e-16 -21.346254)
(223.42455 -2.8549082e-16 -20.862819)
(222.37554 2.0114159e-16 -20.351002)
(221.34904 -6.3379066e-17 -19.812585)
(220.34859 2.3817492e-16 -19.249674)
(219.37737 -2.2341262e-16 -18.664687)
(218.43816 -2.1056234e-16 -18.06029)
(217.53333 1.9735455e-16 -17.439358)
(216.66475 -4.6287677e-17 -16.804921)
(215.83385 0 -16.160096)
(215.04153 8.1910767e-17 -15.508042)
(214.28824 -7.6450765e-17 -14.851896)
(213.57398 0 -14.194719)
(212.89834 1.3461837e-16 -13.539455)
(212.26053 -6.2972491e-17 -12.888885)
(211.65946 -1.765687e-16 -12.245594)
(211.09376 5.5076055e-16 -11.611952)
(210.56184 -2.0621178e-16 -10.990092)
(210.06195 9.6177721e-17 -10.381902)
(209.59224 -2.6968144e-16 -9.7890225)
(209.15075 -1.8399121e-19 -9.212848)
(208.73553 1.5636221e-16 -8.6545373)
(208.34461 -1.4586721e-16 -8.1150226)
(207.97604 -6.7882577e-17 -7.5950249)
(207.62797 -6.3231382e-17 -7.0950691)
(207.29859 -1.1806737e-16 -6.6155013)
(206.98621 2.1925718e-16 -6.1565064)
(206.68923 0 -5.7181243)
(206.40618 9.4748293e-17 -5.3002648)
(206.13565 -3.5256115e-16 -4.9027234)
(205.87631 2.4536912e-16 -4.5252011)
(205.62685 7.5934525e-17 -4.1673032)
(205.38595 1.4106512e-16 -3.8285645)
(205.15234 1.3106935e-16 -3.5084797)
(204.92473 -1.212724e-16 -3.2064927)
(204.70181 -1.1237807e-16 -2.9220041)
(204.48228 -3.1260138e-16 -2.6543838)
(204.26475 -4.0074831e-20 -2.402979)
(204.04758 -8.9330857e-17 -2.1671332)
(203.82873 0 -1.9461757)
(203.60587 -2.2963202e-16 -1.7393539)
(203.3766 7.0809331e-17 -1.5458714)
(203.13853 0 -1.3651624)
(202.88936 1.2113499e-16 -1.1964459)
(202.62726 0 -1.0371523)
(202.34871 1.0347538e-16 -0.88628971)
(202.0434 -1.433928e-16 -0.75282063)
(201.70736 1.3250694e-16 -0.63080391)
(201.3709 -8.1600331e-17 -0.46687817)
(201.02051 7.5369624e-17 -0.34395023)
(200.49297 0 -0.47969085)
(220.87618 -4.1152663e-16 -38.640931)
(260.71926 3.6354833e-16 -17.518671)
(241.79292 -3.3307326e-16 -38.169356)
(252.29073 3.3120491e-16 -20.052207)
(244.84734 3.1716826e-16 -35.351941)
(248.06197 -1.8028915e-17 -23.363243)
(245.04934 -2.8399049e-16 -32.102849)
(245.5187 -2.6958919e-16 -26.39393)
(244.13051 2.8694444e-16 -29.734374)
(243.55669 0 -28.07629)
(242.61117 2.8631553e-17 -28.737052)
(241.75117 0 -28.480546)
(240.82522 -1.2877901e-16 -28.490602)
(239.87669 2.431529e-16 -28.408709)
(238.89596 0 -28.32201)
(237.88643 0 -28.209519)
(236.8491 0 -28.073042)
(235.78588 3.9161017e-17 -27.909899)
(234.69896 0 -27.718379)
(233.59092 -2.4492693e-16 -27.496675)
(232.46476 3.3000131e-16 -27.243154)
(231.32382 1.2486773e-16 -26.956382)
(230.17184 1.7705751e-16 -26.635136)
(229.01287 -2.7811062e-16 -26.278497)
(227.85125 -5.2408406e-17 -25.885868)
(226.69153 -2.4802366e-16 -25.457023)
(225.53842 1.8667039e-16 -24.992142)
(224.39667 -2.2047864e-16 -24.491839)
(223.27104 8.2490877e-17 -23.957163)
(222.16615 7.7990945e-17 -23.389611)
(221.0864 0 -22.791111)
(220.03592 2.7745941e-16 -22.163986)
(219.01843 -2.6059291e-16 -21.510935)
(218.03722 0 -20.834962)
(217.09505 -2.303783e-16 -20.139337)
(216.19413 2.1578366e-16 -19.42752)
(215.33609 -1.0169073e-16 -18.703089)
(214.52199 1.9038703e-16 -17.969682)
(213.75232 -2.6751064e-16 -17.230913)
(213.02701 1.2784398e-19 -16.490319)
(212.34551 -1.5629982e-16 -15.751295)
(211.70683 -7.3147924e-17 -15.017047)
(211.10958 -1.3728925e-16 -14.290552)
(210.55208 2.5593183e-16 -13.574529)
(210.03238 -1.1943093e-16 -12.871416)
(209.54836 0 -12.183366)
(209.09774 -3.8220264e-19 -11.512235)
(208.67819 9.7158069e-17 -10.859599)
(208.28736 0 -10.226753)
(207.9229 8.4507645e-17 -9.6147349)
(207.58249 7.9017788e-17 -9.0243373)
(207.26392 -7.3366186e-17 -8.4561318)
(206.96504 2.7314845e-16 -7.9104879)
(206.68386 -2.5392661e-16 -7.3875953)
(206.41847 -1.1809717e-16 -6.8874838)
(206.16714 -1.0971068e-16 -6.4100447)
(205.92826 1.0186986e-16 -5.9550475)
(205.70035 1.8896454e-16 -5.5221566)
(205.48206 -3.5051672e-16 -5.1109469)
(205.27211 4.0621945e-16 -4.7209231)
(205.06929 -1.5051414e-16 -4.3515135)
(204.8724 1.3951425e-16 -4.0021003)
(204.68025 -1.2914407e-16 -3.6720435)
(204.49169 2.3917393e-16 -3.3606661)
(204.30551 -3.3201589e-16 -3.0672644)
(204.12054 2.0466685e-16 -2.7911153)
(203.93552 -8.2505656e-20 -2.5314872)
(203.74896 8.7478654e-17 -2.2876507)
(203.55904 0 -2.058851)
(203.36356 0 -1.8442696)
(203.16003 0 -1.6431568)
(202.94593 -1.2711e-16 -1.4549931)
(202.71928 1.763063e-20 -1.278623)
(202.47901 0 -1.1111767)
(202.22087 0 -0.95314604)
(201.93298 9.1914884e-17 -0.81405631)
(201.6158 -1.6937639e-16 -0.68098564)
(201.3028 0 -0.50058254)
(200.96059 0 -0.38485277)
(200.43127 -1.3190529e-16 -0.54879466)
(220.43418 2.7777558e-17 -42.901169)
(260.62899 -7.8712845e-16 -20.670358)
(241.08404 3.484638e-16 -42.266716)
(251.64821 -2.177106e-17 -23.496246)
(244.02547 3.738412e-16 -39.100255)
(247.27066 -3.5254551e-16 -27.046675)
(244.17109 0 -35.628529)
(244.50858 -3.1756695e-16 -30.179019)
(243.06909 2.3345687e-16 -33.187421)
(242.37111 2.2173798e-16 -31.757159)
(241.33976 -2.3934944e-16 -32.237171)
(240.37103 0 -32.013002)
(239.34246 1.9114226e-19 -31.961255)
(238.28752 0 -31.839187)
(237.20028 3.8554383e-16 -31.699585)
(236.08412 -7.2832847e-16 -31.529105)
(234.94101 3.438489e-16 -31.32773)
(233.77376 -4.0618063e-17 -31.09288)
(232.58555 -3.8596998e-17 -30.822667)
(231.38005 3.6684041e-17 -30.515279)
(230.16138 -6.8502921e-17 -30.169176)
(228.93406 -3.2451586e-16 -29.783122)
(227.70297 3.0542682e-16 -29.356254)
(226.47328 5.7576955e-17 -28.888142)
(225.25038 -2.7286347e-16 -28.378808)
(224.03977 -6.9769865e-19 -27.828798)
(222.84694 2.8980791e-16 -27.23917)
(221.67728 -1.8189632e-16 -26.611513)
(220.53597 -6.135675e-19 -25.947933)
(219.42784 0 -25.251024)
(218.3573 0 -24.523828)
(217.32823 -7.1576382e-17 -23.769771)
(216.34389 1.3400036e-16 -22.992604)
(215.40688 0 -22.196315)
(214.51911 -1.1843801e-16 -21.385051)
(213.68179 2.2161353e-16 -20.56303)
(212.89542 -1.0382492e-16 -19.734448)
(212.15985 -1.9457089e-16 -18.90341)