/*--------------------------------*- C++ -*----------------------------------*\
  =========                 |
  \\      /  F ield         | OpenFOAM: The Open Source CFD Toolbox
   \\    /   O peration     | Website:  https://openfoam.org
    \\  /    A nd           | Version:  12
     \\/     M anipulation  |
\*---------------------------------------------------------------------------*/
FoamFile
{
    format      ascii;
    class       volScalarField;
    location    "0.138";
    object      alphat;
}
// * * * * * * * * * * * * * * * * * * * * * * * * * * * * * * * * * * * * * //

dimensions      [1 -1 -1 0 0 0 0];

internalField   nonuniform List<scalar> 
16000
(
4.8335149e-07
1.0780306e-05
1.9287487e-05
2.587504e-05
1.9772822e-05
2.718481e-05
1.9205079e-05
2.6324591e-05
2.0542665e-05
2.8325466e-05
2.3850728e-05
2.8043862e-05
2.5582069e-05
2.6286364e-05
2.5416638e-05
2.529388e-05
2.5050989e-05
2.5001982e-05
2.5038506e-05
2.5182994e-05
2.5427353e-05
2.5771311e-05
2.6212437e-05
2.675108e-05
2.7389975e-05
2.8135908e-05
2.8998006e-05
2.9990683e-05
3.1131492e-05
3.2439383e-05
3.3935177e-05
3.5646459e-05
3.7608793e-05
3.9866023e-05
4.2472123e-05
4.5491552e-05
4.9001195e-05
5.3092826e-05
5.7880096e-05
6.3503932e-05
7.0129995e-05
7.7953655e-05
8.7221333e-05
9.8235244e-05
0.00011135563
0.0001270151
0.0001457505
0.00016821692
0.00019521319
0.00022771446
0.00026691647
0.00031428898
0.00037163265
0.00044115852
0.00052558252
0.00062825516
0.00075332474
0.00090595219
0.001092599
0.0011801488
0.0011808528
0.0011814501
0.0011819207
0.0011822322
0.0011823849
0.0011823727
0.0011821902
0.0011818249
0.0011812491
0.0011804215
0.0011793159
0.0011779306
0.0011762826
0.0011749795
0.0011739606
0.0011731691
0.0011725895
0.0011724736
0.0011726531
0.0011734694
4.4438171e-07
1.0213508e-05
2.1283078e-05
2.3171598e-05
1.7802557e-05
2.4362943e-05
1.7028738e-05
2.3047223e-05
1.8134089e-05
2.5007942e-05
2.1575817e-05
2.5266557e-05
2.3376984e-05
2.380242e-05
2.3128699e-05
2.2950782e-05
2.2752427e-05
2.2698336e-05
2.2735769e-05
2.2869197e-05
2.3095963e-05
2.3415423e-05
2.3825849e-05
2.4327658e-05
2.4923083e-05
2.5618496e-05
2.6421852e-05
2.7346171e-05
2.8408067e-05
2.9626015e-05
3.1019414e-05
3.2613499e-05
3.4441213e-05
3.6543181e-05
3.896993e-05
4.1782107e-05
4.5052525e-05
4.8867494e-05
5.3332986e-05
5.858252e-05
6.4775396e-05
7.2095755e-05
8.0775883e-05
9.1104147e-05
0.00010342681
0.00011815547
0.00013580269
0.00015699611
0.00018250289
0.0002132602
0.00025041764
0.00029539206
0.00034992177
0.00041614534
0.00049669208
0.00059480876
0.00071451954
0.00086082519
0.0010399709
0.0011796478
0.0011803547
0.0011809147
0.0011813571
0.0011816437
0.0011817755
0.0011817477
0.0011815544
0.0011811832
0.0011806087
0.0011797915
0.0011787052
0.001177362
0.0011757784
0.0011745199
0.0011735378
0.0011727663
0.0011722031
0.0011719492
0.0011722288
0.0011731277
3.964995e-07
9.7716357e-06
2.0100781e-05
2.1152964e-05
1.5926698e-05
2.1432481e-05
1.5149749e-05
2.0015384e-05
1.6292757e-05
2.1926602e-05
1.9658937e-05
2.2485137e-05
2.1164134e-05
2.1306003e-05
2.0792759e-05
2.0591414e-05
2.0427745e-05
2.0378978e-05
2.0419113e-05
2.0545975e-05
2.0758339e-05
2.1055927e-05
2.1437371e-05
2.1903338e-05
2.245566e-05
2.3100476e-05
2.3844921e-05
2.4700807e-05
2.5683624e-05
2.6811362e-05
2.8102452e-05
2.958026e-05
3.1275548e-05
3.3226155e-05
3.5479544e-05
3.8092841e-05
4.1135235e-05
4.4688728e-05
4.8852807e-05
5.3753552e-05
5.9544986e-05
6.6402527e-05
7.4546255e-05
8.4251484e-05
9.585318e-05
0.00010974572
0.00012642103
0.00014648343
0.00017067326
0.0001998963
0.0002352632
0.00027814616
0.00033023046
0.00039359323
0.00047079027
0.00056497929
0.00068007745
0.00082095591
0.00099368672
0.0011793305
0.0011800288
0.0011805341
0.0011809288
0.0011811721
0.0011812656
0.0011812057
0.0011809861
0.0011805932
0.0011800023
0.0011791775
0.0011780926
0.001176772
0.0011752529
0.0011740508
0.0011731147
0.0011723774
0.0011718153
0.0011714917
0.0011717746
0.001172274
3.5187583e-07
9.4370358e-06
1.9057805e-05
1.9629743e-05
1.4304899e-05
1.8910287e-05
1.3491283e-05
1.7481442e-05
1.4656232e-05
1.9318257e-05
1.7937081e-05
2.002913e-05
1.9127875e-05
1.906291e-05
1.8668728e-05
1.8465862e-05
1.833237e-05
1.8294233e-05
1.8339942e-05
1.846406e-05
1.8665963e-05
1.8945798e-05
1.9302575e-05
1.9737344e-05
2.0251668e-05
2.0851611e-05
2.154376e-05
2.2338976e-05
2.3251691e-05
2.4299504e-05
2.5500209e-05
2.6875591e-05
2.845465e-05
3.0272845e-05
3.2375056e-05
3.4815387e-05
3.7659914e-05
4.0987271e-05
4.4891804e-05
4.9492687e-05
5.4939902e-05
6.1402265e-05
6.9090073e-05
7.8267066e-05
8.9260057e-05
0.00010245018
0.00011831304
0.0001374348
0.00016053513
0.0001884967
0.0002224005
0.00026358584
0.00031369892
0.00037477277
0.00044931126
0.00054040943
0.00065190896
0.00078859285
0.00095642456
0.0011628381
0.0011799084
0.0011803437
0.0011806745
0.0011808597
0.0011809009
0.0011807953
0.0011805365
0.0011801087
0.0011794874
0.001178641
0.0011775454
0.0011762336
0.0011747632
0.0011736146
0.0011727237
0.0011720206
0.0011714561
0.0011710892
0.0011713201
0.0011715441
3.1847362e-07
9.1876781e-06
1.8147919e-05
1.9606603e-05
1.423433e-05
1.6714942e-05
1.2036345e-05
1.5311003e-05
1.325062e-05
1.7070144e-05
1.6407715e-05
1.7819621e-05
1.7231632e-05
1.7026984e-05
1.6720871e-05
1.6531829e-05
1.642331e-05
1.6396588e-05
1.6446707e-05
1.6567553e-05
1.6758723e-05
1.702097e-05
1.7353734e-05
1.7758571e-05
1.823692e-05
1.8794865e-05
1.9438602e-05
2.0178239e-05
2.1027171e-05
2.2002563e-05
2.312179e-05
2.4405328e-05
2.5880724e-05
2.7581387e-05
2.9549982e-05
3.1837996e-05
3.4508729e-05
3.7638096e-05
4.1316598e-05
4.5656855e-05
5.0805462e-05
5.6926302e-05
6.4222051e-05
7.2945619e-05
8.3417659e-05
9.6009014e-05
0.00011118184
0.00012950746
0.00015168838
0.00017858934
0.00021126694
0.00025103422
0.00029950553
0.00035867847
0.00043101555
0.00051956157
0.00062809754
0.000761335
0.00092515201
0.0011268697
0.0011799732
0.0011803244
0.0011805758
0.0011806889
0.0011806647
0.0011805006
0.0011801892
0.0011797133
0.0011790474
0.0011781652
0.001177047
0.0011757312
0.0011743118
0.0011732155
0.001172369
0.0011716996
0.0011711333
0.0011707295
0.0011708676
0.0011708256
2.9259318e-07
9.0343483e-06
1.7420477e-05
1.9348995e-05
1.3992887e-05
1.4798294e-05
1.1354269e-05
1.352004e-05
1.2249158e-05
1.5176926e-05
1.5072414e-05
1.5884154e-05
1.5504994e-05
1.5217899e-05
1.4967301e-05
1.4794391e-05
1.4701867e-05
1.4682105e-05
1.4732764e-05
1.4848021e-05
1.5027449e-05
1.5272309e-05
1.5582294e-05
1.5959376e-05
1.6404957e-05
1.692512e-05
1.7525738e-05
1.8216335e-05
1.90093e-05
1.992134e-05
2.0969603e-05
2.2173517e-05
2.3559482e-05
2.5159215e-05
2.7013578e-05
2.9171898e-05
3.1695148e-05
3.4657096e-05
3.8145802e-05
4.226826e-05
4.7168007e-05
5.3005739e-05
5.9979267e-05
6.8331736e-05
7.8379827e-05
9.0487564e-05
0.0001051071
0.00012279915
0.00014425337
0.00017032306
0.00020204727
0.00024072131
0.00028793763
0.0003456701
0.00041635462
0.0005030034
0.00060935757
0.00074008157
0.00090099936
0.0010993625
0.0011802114
0.0011804659
0.0011806244
0.001180653
0.0011805519
0.0011803176
0.0011799417
0.0011794051
0.0011786821
0.0011777519
0.0011766014
0.0011752682
0.0011739058
0.0011728602
0.0011720561
0.0011714194
0.0011708556
0.0011704093
0.0011704168
0.0011701324
2.6513395e-07
8.9474623e-06
1.6855071e-05
1.8302241e-05
1.3869061e-05
1.3070433e-05
1.1407639e-05
1.2446275e-05
1.1830413e-05
1.3548617e-05
1.3877655e-05
1.4178854e-05
1.3908538e-05
1.358485e-05
1.3365403e-05
1.3208652e-05
1.3127731e-05
1.3113613e-05
1.3164464e-05
1.3275057e-05
1.3444645e-05
1.3674903e-05
1.3965508e-05
1.4234599e-05
1.4641773e-05
1.5120533e-05
1.5675917e-05
1.6316659e-05
1.7053942e-05
1.7903648e-05
1.8882671e-05
2.0009413e-05
2.1309228e-05
2.2812216e-05
2.455757e-05
2.6592643e-05
2.8976228e-05
3.1779992e-05
3.5090415e-05
3.9304294e-05
4.4002956e-05
4.9613371e-05
5.6331291e-05
6.4391515e-05
7.4108021e-05
8.5841408e-05
0.0001000372
0.00011724937
0.00013815843
0.00016361233
0.00019463863
0.00023252275
0.00027884415
0.00033556329
0.00040510244
0.00049045684
0.00059534603
0.0007244083
0.00088343951
0.0010796575
0.0011806056
0.0011807522
0.0011808063
0.00118074
0.0011805517
0.0011802368
0.001179785
0.0011791768
0.0011783864
0.0011773981
0.001176209
0.0011748471
0.0011735536
0.0011725573
0.0011717924
0.0011711871
0.0011706299
0.0011701333
0.0011699974
0.0011695144
2.3871682e-07
8.8982987e-06
1.6374651e-05
1.6646869e-05
1.2713554e-05
1.1388378e-05
9.8686348e-06
1.1113534e-05
1.0395275e-05
1.2177975e-05
1.2678033e-05
1.261563e-05
1.2388159e-05
1.207209e-05
1.1878009e-05
1.1742261e-05
1.1675559e-05
1.1670247e-05
1.1653356e-05
1.1745191e-05
1.1896064e-05
1.2106544e-05
1.2374593e-05
1.2700692e-05
1.3089763e-05
1.3545479e-05
1.4073207e-05
1.4681601e-05
1.5381237e-05
1.6187521e-05
1.7117565e-05
1.8189231e-05
1.9427379e-05
2.0861091e-05
2.2528596e-05
2.4476011e-05
2.6760829e-05
2.9453444e-05
3.26398e-05
3.6424615e-05
4.0935634e-05
4.6334643e-05
5.2817444e-05
6.112323e-05
7.0601817e-05
8.207172e-05
9.5975599e-05
0.00011286449
0.0001334136
0.00015847202
0.0001890623
0.00022646816
0.00027226579
0.00032841335
0.00039733327
0.00048202079
0.00058619371
0.00071448714
0.00087269562
0.00106804
0.0011811355
0.0011811648
0.0011811053
0.0011809353
0.0011806512
0.0011802463
0.0011797087
0.0011790196
0.0011781546
0.0011771013
0.0011758705
0.0011744827
0.001173261
0.001172313
0.0011715846
0.0011710095
0.0011704627
0.0011699085
0.0011696331
0.0011690157
2.1939424e-07
8.8505024e-06
1.5881918e-05
1.4569321e-05
1.0448888e-05
1.0122476e-05
8.1340027e-06
9.4776088e-06
9.6705583e-06
1.0957556e-05
1.1462786e-05
1.1164402e-05
1.0957004e-05
1.0674279e-05
1.0505957e-05
1.0320986e-05
1.0243289e-05
1.0232241e-05
1.0280183e-05
1.038417e-05
1.0540116e-05
1.0750028e-05
1.1012957e-05
1.1329229e-05
1.170373e-05
1.214113e-05
1.2646835e-05
1.3229538e-05
1.3899405e-05
1.4671352e-05
1.5562823e-05
1.6591401e-05
1.778178e-05
1.916235e-05
2.0770759e-05
2.2652403e-05
2.4864018e-05
2.7475327e-05
3.0571611e-05
3.4256707e-05
3.8658773e-05
4.3937314e-05
5.0291291e-05
5.7951707e-05
6.7214795e-05
7.8449357e-05
9.2912361e-05
0.00010963402
0.000130008
0.00015489077
0.00018530671
0.00022254622
0.00026819211
0.00032421161
0.00039304134
0.00047769396
0.00058190615
0.00071033345
0.00086879556
0.0010645511
0.0011817774
0.0011816823
0.0011815023
0.0011812215
0.0011808341
0.0011803311
0.0011796998
0.0011789229
0.0011779796
0.001176858
0.0011755826
0.0011741875
0.0011730342
0.0011721334
0.0011714394
0.0011708935
0.0011703594
0.0011697434
0.0011693376
0.0011686478
2.0193694e-07
8.8054129e-06
1.4278028e-05
1.2687194e-05
8.4501699e-06
8.9985495e-06
7.2332813e-06
8.5552348e-06
8.9582878e-06
9.8060318e-06
1.0261625e-05
9.8437046e-06
9.6429815e-06
9.3083865e-06
9.1292692e-06
9.019537e-06
8.9764259e-06
8.9908997e-06
9.0567781e-06
9.1708932e-06
9.3339913e-06
9.5438144e-06
9.8031015e-06
1.0112109e-05
1.047596e-05
1.089975e-05
1.1389054e-05
1.1952746e-05
1.2600739e-05
1.3347499e-05
1.4210873e-05
1.5208511e-05
1.6365203e-05
1.7708957e-05
1.9277214e-05
2.1115105e-05
2.3279114e-05
2.5838903e-05
2.8880141e-05
3.2507179e-05
3.6848318e-05
4.2062656e-05
4.8352808e-05
5.5949916e-05
6.5152869e-05
7.6332833e-05
8.9947819e-05
0.00010653614
0.00012794015
0.00015286947
0.0001833766
0.00022076678
0.00026664014
0.00032298494
0.00039226679
0.00047753414
0.00058256454
0.00071205973
0.00087189241
0.0010693924
0.0011825053
0.0011822808
0.0011819756
0.0011815788
0.0011810818
0.0011804744
0.0011797439
0.0011788754
0.0011778526
0.0011766633
0.0011753396
0.0011739659
0.0011728768
0.0011720225
0.0011713626
0.0011708446
0.0011703228
0.0011696437
0.0011691058
0.0011684544
1.8624593e-07
8.7586698e-06
1.1344398e-05
1.0533615e-05
6.9420184e-06
8.0153387e-06
6.5967104e-06
7.6915559e-06
8.3869054e-06
8.7636334e-06
9.084723e-06
8.5516463e-06
8.2997555e-06
8.0694429e-06
7.9391462e-06
7.8695772e-06
7.8558488e-06
7.8924429e-06
7.973938e-06
8.0996898e-06
8.2670626e-06
8.4788427e-06
8.7368551e-06
9.041887e-06
9.399163e-06
9.8142602e-06
1.0293052e-05
1.0844659e-05
1.1478965e-05
1.2210074e-05
1.2989286e-05
1.3957128e-05
1.5082041e-05
1.6391629e-05
1.7923119e-05
1.972142e-05
2.184284e-05
2.435705e-05
2.7350251e-05
3.0927624e-05
3.5218781e-05
4.0701126e-05
4.6993243e-05
5.4606283e-05
6.3841988e-05
7.5075318e-05
8.8777058e-05
0.0001054979
0.00012593279
0.00015094882
0.00018327141
0.00022113447
0.00026762164
0.00032475483
0.00039504412
0.00048159336
0.00058824431
0.00071977289
0.00088213523
0.0010827645
0.0011832916
0.0011829344
0.0011825014
0.0011819849
0.0011813742
0.0011806586
0.0011798267
0.0011788657
0.0011777641
0.0011765112
0.0011751332
0.0011738202
0.0011727912
0.0011719823
0.0011713576
0.0011708653
0.0011703512
0.0011696175
0.0011689726
0.0011684339
1.7255057e-07
8.7148844e-06
8.9544568e-06
8.9625585e-06
6.1085732e-06
7.1047847e-06
6.0625787e-06
6.939615e-06
7.807115e-06
7.7923828e-06
7.8079986e-06
7.3546964e-06
7.1501166e-06
6.9827765e-06
6.8939911e-06
6.8579391e-06
6.8697946e-06
6.9254257e-06
7.0211485e-06
7.1568972e-06
7.3314976e-06
7.5470006e-06
7.8064543e-06
8.1111438e-06
8.4663932e-06
8.8399513e-06
9.3064954e-06
9.845237e-06
1.0465927e-05
1.1182206e-05
1.2010504e-05
1.2972197e-05
1.4091418e-05
1.5395905e-05
1.6923304e-05
1.8719069e-05
2.0840293e-05
2.3357667e-05
2.635923e-05
2.9952511e-05
3.4270312e-05
3.9478653e-05
4.5781051e-05
5.3421672e-05
6.2707376e-05
7.4663238e-05
8.8583497e-05
0.00010559211
0.0001263961
0.00015188877
0.00018316246
0.00022365173
0.00027114756
0.00032954356
0.00040141055
0.0004899288
0.00059902927
0.00073359268
0.00089969335
0.0011048991
0.0011841074
0.0011836161
0.0011830548
0.0011824169
0.0011816908
0.0011808661
0.0011799338
0.0011788829
0.0011777039
0.0011763953
0.0011749723
0.0011737504
0.0011727772
0.0011720119
0.0011714239
0.0011709548
0.0011704412
0.0011696758
0.0011689647
0.0011685339
1.6035228e-07
8.6637842e-06
7.1270185e-06
7.8737362e-06
5.4486454e-06
6.2934216e-06
5.606267e-06
6.2752815e-06
7.1163172e-06
6.6885441e-06
6.656704e-06
6.3089233e-06
6.1478887e-06
6.0314653e-06
5.9782737e-06
5.9711571e-06
6.005667e-06
6.0793202e-06
6.1891695e-06
6.3359379e-06
6.5190611e-06
6.7409126e-06
6.9752738e-06
7.2769441e-06
7.6288867e-06
8.0360164e-06
8.5065323e-06
9.0492281e-06
9.6741185e-06
1.0395103e-05
1.1228821e-05
1.2196441e-05
1.3323564e-05
1.4638396e-05
1.6179296e-05
1.7992684e-05
2.0137048e-05
2.2684686e-05
2.5726287e-05
2.9372902e-05
3.3760769e-05
3.9059733e-05
4.5483818e-05
5.3283411e-05
6.2775006e-05
7.4352498e-05
8.850557e-05
0.00010582661
0.00012816447
0.00015435891
0.00018651226
0.00022601871
0.00027721849
0.00033736284
0.00041139193
0.00050258527
0.00061499002
0.00075362419
0.0009247217
0.0011360191
0.0011849245
0.0011842991
0.0011836107
0.0011828522
0.0011820118
0.0011810804
0.0011800514
0.0011789158
0.0011776627
0.0011763052
0.0011748985
0.0011737538
0.0011728326
0.0011721079
0.0011715577
0.0011711096
0.0011705868
0.0011698213
0.0011691269
0.0011687952
1.4954299e-07
8.6024184e-06
5.7218708e-06
6.8873925e-06
4.8631088e-06
5.5732534e-06
5.2198525e-06
5.5988654e-06
6.2445217e-06
5.7310107e-06
5.6470952e-06
5.3947138e-06
5.2747308e-06
5.2009022e-06
5.1794035e-06
5.1985113e-06
5.2543792e-06
5.3456418e-06
5.4702091e-06
5.6081262e-06
5.7952651e-06
6.0211175e-06
6.2884255e-06
6.6007182e-06
6.9630195e-06
7.380682e-06
7.8618355e-06
8.4160073e-06
9.0534875e-06
9.7883941e-06
1.0637545e-05
1.1622417e-05
1.271141e-05
1.4037747e-05
1.5593209e-05
1.7425149e-05
1.959369e-05
2.2172803e-05
2.5255886e-05
2.8958109e-05
3.3420311e-05
3.9112176e-05
4.5718859e-05
5.375122e-05
6.3536683e-05
7.5480442e-05
9.009553e-05
0.00010800033
0.00012995263
0.00015833342
0.00019164032
0.00023258068
0.00028293211
0.00034820356
0.00042499111
0.00051958101
0.0006361671
0.00077993779
0.00095733466
0.001176309
0.0011857155
0.001184958
0.0011841457
0.0011832697
0.0011823194
0.0011812864
0.0011801658
0.0011789525
0.0011776341
0.0011762237
0.0011749002
0.0011738274
0.0011729537
0.0011722655
0.0011717527
0.0011713244
0.0011707846
0.0011700453
0.0011694588
0.0011691945
1.3997853e-07
8.4813876e-06
4.6511143e-06
6.0112073e-06
4.3412872e-06
4.9336204e-06
4.8842393e-06
4.8619351e-06
5.3639707e-06
4.8772567e-06
4.7723069e-06
4.5986962e-06
4.5179398e-06
4.481101e-06
4.4886113e-06
4.5322009e-06
4.6087685e-06
4.6989772e-06
4.8328972e-06
5.0012955e-06
5.2053253e-06
5.4468806e-06
5.7294739e-06
6.056862e-06
6.4347185e-06
6.8687014e-06
7.3670328e-06
7.9158221e-06
8.5669155e-06
9.3165368e-06
1.0181589e-05
1.1183614e-05
1.2348959e-05
1.3710738e-05
1.5308467e-05
1.7191115e-05
1.9421597e-05
2.2076744e-05
2.5253751e-05
2.9073714e-05
3.3684031e-05
3.9270514e-05
4.6057963e-05
5.4323406e-05
6.4408329e-05
7.7377226e-05
9.258024e-05
0.00011121785
0.00013408469
0.00016216133
0.00019850367
0.00024120631
0.00029374056
0.00035838921
0.00044216962
0.0005408861
0.00066254446
0.00081253761
0.00099756455
0.0011873203
0.0011864554
0.0011855705
0.0011846394
0.0011836516
0.0011825977
0.0011814707
0.0011802651
0.001178979
0.0011776124
0.0011761774
0.0011749686
0.0011739652
0.0011731364
0.001172481
0.0011720019
0.0011715931
0.0011710365
0.0011703368
0.0011699144
0.0011696463
1.3157236e-07
8.1543159e-06
3.9136662e-06
5.2346866e-06
3.8780351e-06
4.3681749e-06
4.3494793e-06
4.1954944e-06
4.5144726e-06
4.1226109e-06
4.0229533e-06
3.912333e-06
3.868579e-06
3.8646155e-06
3.8989293e-06
3.9510564e-06
4.0408539e-06
4.1638374e-06
4.3193162e-06
4.5077439e-06
4.7309629e-06
4.9914405e-06
5.2931637e-06
5.6402112e-06
6.0249368e-06
6.4762959e-06
6.9927312e-06
7.5837678e-06
8.2613784e-06
9.0398253e-06
9.9364804e-06
1.09738e-05
1.2179259e-05
1.358729e-05
1.5240202e-05
1.7188835e-05
1.9499567e-05
2.2252951e-05
2.55503e-05
2.9520052e-05
3.4315649e-05
4.0132419e-05
4.7209978e-05
5.5837923e-05
6.637717e-05
7.927069e-05
9.5907888e-05
0.0001154268
0.00013938321
0.00016881705
0.0002049811
0.0002518176
0.00030692443
0.00037475314
0.00045825272
0.00056639326
0.00069401463
0.00085132139
0.0010453117
0.0011881021
0.0011871227
0.0011861185
0.0011850759
0.0011839837
0.0011828339
0.0011816212
0.0011803395
0.001178985
0.0011775792
0.001176208
0.0011750936
0.0011741588
0.0011733751
0.0011727516
0.0011723
0.0011719066
0.0011713434
0.001170694
0.0011704332
0.001170263
1.2440837e-07
7.7390046e-06
3.4508344e-06
4.5467538e-06
3.467307e-06
3.7053276e-06
3.8781403e-06
3.5849085e-06
3.7455392e-06
3.4672538e-06
3.3892133e-06
3.3285671e-06
3.3187069e-06
3.3444236e-06
3.3865998e-06
3.4706896e-06
3.5867346e-06
3.7335864e-06
3.9115359e-06
4.1218325e-06
4.366918e-06
4.6495638e-06
4.9645636e-06
5.3321534e-06
5.751451e-06
6.2291516e-06
6.7733003e-06
7.3937708e-06
8.1027939e-06
8.9155572e-06
9.8500115e-06
1.0929608e-05
1.2183115e-05
1.3646746e-05
1.5299556e-05
1.73106e-05
1.9697391e-05
2.2544812e-05
2.6114954e-05
3.0264044e-05
3.5281515e-05
4.1372182e-05
4.8791817e-05
5.7845773e-05
6.8913561e-05
8.2465105e-05
9.9077007e-05
0.00011945698
0.00014576511
0.00017675822
0.00021485114
0.00026169252
0.00032233861
0.0003938055
0.00048178649
0.00059588371
0.00073033572
0.00089603058
0.0011003015
0.001188791
0.001187703
0.0011865892
0.0011854439
0.0011842562
0.0011830187
0.0011817275
0.0011803799
0.0011789713
0.0011775251
0.001176295
0.0011752661
0.0011743979
0.0011736624
0.0011730739
0.0011726445
0.0011722593
0.0011717039
0.0011711176
0.001171014
0.0011709094
1.1877824e-07
6.7116027e-06
3.0571739e-06
3.922773e-06
3.1137041e-06
3.0930864e-06
3.4085966e-06
3.031965e-06
3.0849524e-06
2.9075736e-06
2.8588819e-06
2.8390658e-06
2.8516071e-06
2.8964872e-06
2.9771972e-06
3.0893809e-06
3.231081e-06
3.4022499e-06
3.6039951e-06
3.8380399e-06
4.1012191e-06
4.4064705e-06
4.7539577e-06
5.1484613e-06
5.5956882e-06
6.1025588e-06
6.6774899e-06
7.3307476e-06
8.0749612e-06
8.9063107e-06
9.8767572e-06
1.0996054e-05
1.2294193e-05
1.380875e-05
1.5586718e-05
1.7686843e-05
2.0181741e-05
2.3162311e-05
2.6741328e-05
3.1058112e-05
3.6285648e-05
4.2943976e-05
5.0751892e-05
6.0289345e-05
7.1955751e-05
8.6247669e-05
0.00010377585
0.00012529209
0.00015311304
0.00018584959
0.00022609758
0.00027559514
0.00033975849
0.00041528386
0.00050827183
0.00062278932
0.00077108615
0.00094619062
0.001162007
0.0011893767
0.0011881876
0.0011869753
0.001185737
0.0011844635
0.0011831473
0.001181784
0.0011803758
0.00117894
0.0011775536
0.0011764243
0.0011754761
0.0011746711
0.0011739878
0.0011734405
0.0011730316
0.0011726459
0.0011721059
0.0011715895
0.0011716056
0.0011716582
1.1425752e-07
4.7119605e-06
2.701628e-06
3.3444287e-06
2.6635485e-06
2.5802924e-06
2.9135017e-06
2.5395187e-06
2.5349628e-06
2.4364293e-06
2.4207852e-06
2.42852e-06
2.472084e-06
2.5512182e-06
2.6615583e-06
2.800608e-06
2.9677243e-06
3.1635894e-06
3.3866434e-06
3.6440428e-06
3.9370009e-06
4.2688789e-06
4.6437606e-06
5.0666096e-06
5.5434116e-06
6.0813813e-06
6.6892784e-06
7.3666437e-06
8.1445962e-06
9.0317255e-06
1.004833e-05
1.121962e-05
1.2577369e-05
1.4161475e-05
1.6021947e-05
1.82211e-05
2.0836372e-05
2.3964091e-05
2.7724084e-05
3.2265012e-05
3.7771065e-05
4.4469315e-05
5.3032037e-05
6.3100885e-05
7.5425025e-05
9.0529756e-05
0.00010906169
0.00013181823
0.00015978228
0.00019590652
0.00023850197
0.0002908959
0.00035536836
0.00043880888
0.00053725361
0.00065849641
0.00081562048
0.0010010502
0.0011911461
0.001189855
0.0011885737
0.001187275
0.0011859542
0.0011846041
0.0011832185
0.001181793
0.0011803317
0.0011788713
0.0011776323
0.0011765912
0.0011757148
0.0011749686
0.00117434
0.00117384
0.0011734534
0.0011730621
0.0011725398
0.0011721165
0.0011722384
0.0011723553
1.0949089e-07
3.9150972e-06
2.3297102e-06
2.8115335e-06
2.2969151e-06
2.1521306e-06
2.4006475e-06
2.107169e-06
2.0878752e-06
2.0498165e-06
2.0630559e-06
2.1053414e-06
2.1849357e-06
2.2948672e-06
2.4325456e-06
2.5970482e-06
2.7887146e-06
3.0065504e-06
3.2562375e-06
3.5390833e-06
3.8580647e-06
4.2167887e-06
4.6195703e-06
5.071565e-06
5.578968e-06
6.1492623e-06
6.7839593e-06
7.5060777e-06
8.3242228e-06
9.2554205e-06
1.032109e-05
1.1547969e-05
1.2969682e-05
1.4628495e-05
1.6577592e-05
1.8883546e-05
2.1628981e-05
2.4916267e-05
2.8872689e-05
3.3655534e-05
3.946e-05
4.6863989e-05
5.5563486e-05
6.6199834e-05
7.9226133e-05
9.5197915e-05
0.00011479943
0.00013887425
0.00017002285
0.00020668909
0.00025177434
0.00030724106
0.00037550468
0.00046386508
0.00056811851
0.00069653378
0.00086302566
0.0010595169
0.0011915859
0.0011902252
0.0011888642
0.0011874912
0.0011860988
0.0011846813
0.0011832341
0.0011817564
0.0011802675
0.0011788823
0.0011777446
0.0011767878
0.0011759765
0.0011752845
0.0011747102
0.0011742602
0.0011738981
0.0011735042
0.001173007
0.0011726896
0.0011729063
0.0011730489
1.0628869e-07
3.1540974e-06
2.0090347e-06
2.2722617e-06
1.996358e-06
1.7857985e-06
1.9237128e-06
1.7404841e-06
1.7368852e-06
1.7474683e-06
1.7907455e-06
1.8709706e-06
1.9815025e-06
2.1183895e-06
2.280616e-06
2.468458e-06
2.6818201e-06
2.9244238e-06
3.1981025e-06
3.5055815e-06
3.8501222e-06
4.2355416e-06
4.6663157e-06
5.147746e-06
5.6861944e-06
6.2850568e-06
6.960208e-06
7.7204147e-06
8.5799166e-06
9.5565862e-06
1.0673113e-05
1.195784e-05
1.3446444e-05
1.5183702e-05
1.7225914e-05
1.9643853e-05
2.2525962e-05
2.5980762e-05
3.0143732e-05
3.5181594e-05
4.1572521e-05
4.9088405e-05
5.826458e-05
6.9490883e-05
8.324513e-05
0.00010011573
0.00012082621
0.00014626901
0.00017914346
0.00021789153
0.00026554824
0.0003241886
0.00039637376
0.00048977057
0.00060004597
0.00073591515
0.00091208843
0.0011201244
0.0011919177
0.0011904942
0.001189066
0.0011876303
0.0011861778
0.0011847028
0.0011832034
0.0011816871
0.0011801929
0.0011789402
0.0011778869
0.0011770047
0.0011762558
0.0011756162
0.0011750913
0.0011746892
0.0011743496
0.0011739607
0.0011735027
0.0011732887
0.0011735793
0.0011737109
1.04962e-07
2.4876635e-06
1.7318698e-06
1.7544097e-06
1.7193546e-06
1.4723545e-06
1.5342603e-06
1.4483741e-06
1.4756301e-06
1.5211962e-06
1.6031551e-06
1.7138933e-06
1.849912e-06
2.0096434e-06
2.1933738e-06
2.4022748e-06
2.6373015e-06
2.9020048e-06
3.198505e-06
3.5297899e-06
3.8992918e-06
4.3109686e-06
4.7694198e-06
5.2800662e-06
5.8493993e-06
6.4853209e-06
7.1975816e-06
7.9983104e-06
8.892423e-06
9.9150263e-06
1.1083046e-05
1.2426536e-05
1.3983363e-05
1.5801046e-05
1.7939049e-05
2.0555064e-05
2.3599487e-05
2.7252354e-05
3.1658057e-05
3.6994636e-05
4.348128e-05
5.1387431e-05
6.1045852e-05
7.2866025e-05
8.735214e-05
0.00010512544
0.00012695006
0.00015511025
0.00018831994
0.00022915111
0.00027937935
0.00034119575
0.00042125627
0.00051568706
0.00063201671
0.00077540622
0.00096127979
0.0011810235
0.0011921556
0.0011906757
0.0011891906
0.0011877017
0.0011862004
0.0011846794
0.0011831365
0.0011815977
0.0011801994
0.0011790351
0.0011780556
0.001177234
0.0011765427
0.0011759598
0.0011754747
0.0011751132
0.0011747931
0.0011744206
0.0011740185
0.0011738922
0.0011742199
0.0011743256
1.065678e-07
1.9167413e-06
1.5008533e-06
1.3575063e-06
1.4371267e-06
1.2095126e-06
1.2492366e-06
1.2344813e-06
1.2944819e-06
1.3744484e-06
1.4849962e-06
1.6192272e-06
1.7758136e-06
1.9548715e-06
2.157613e-06
2.3857814e-06
2.6411367e-06
2.9267281e-06
3.2450914e-06
3.5993474e-06
3.9930305e-06
4.4301922e-06
4.9155339e-06
5.4545976e-06
6.0540286e-06
6.7219305e-06
7.4683398e-06
8.3058179e-06
9.2501866e-06
1.032146e-05
1.1544937e-05
1.2952656e-05
1.4584978e-05
1.6492634e-05
1.8739106e-05
2.1403544e-05
2.4584386e-05
2.8404043e-05
3.3013899e-05
3.8601256e-05
4.5397321e-05
5.3686361e-05
6.3815836e-05
7.6216022e-05
9.1415222e-05
0.00011097532
0.00013404898
0.00016239065
0.00019722575
0.00024006688
0.00029277897
0.00036102179
0.00044151314
0.00054065843
0.00066285649
0.00082146384
0.001008787
0.0011938715
0.0011923176
0.0011907881
0.0011892552
0.0011877197
0.0011861767
0.0011846234
0.0011830628
0.0011815334
0.0011802558
0.0011791693
0.0011782522
0.001177476
0.0011768242
0.001176302
0.0011758523
0.0011755209
0.0011752187
0.0011748736
0.0011745399
0.0011744914
0.0011748349
0.0011749149
1.1226457e-07
1.4480684e-06
1.3134062e-06
1.0677344e-06
1.2826483e-06
9.9119825e-07
1.05582e-06
1.0930534e-06
1.1799733e-06
1.287596e-06
1.4191722e-06
1.5716169e-06
1.7453019e-06
1.9413533e-06
2.161479e-06
2.4076862e-06
2.6822607e-06
2.9875702e-06
3.3267234e-06
3.7028091e-06
4.1194373e-06
4.5807451e-06
5.0915382e-06
5.6574906e-06
6.2854172e-06
6.9836441e-06
7.7625055e-06
8.6350222e-06
9.6176465e-06
1.0731282e-05
1.2002378e-05
1.3464514e-05
1.5160031e-05
1.7142177e-05
1.9477588e-05
2.2249378e-05
2.5560802e-05
2.953978e-05
3.4344429e-05
4.0169869e-05
4.7579049e-05
5.629393e-05
6.6942721e-05
7.9976634e-05
9.5949997e-05
0.00011554531
0.00013960359
0.00016916149
0.0002054937
0.00025251798
0.00030791961
0.00037610622
0.00046007999
0.00056356239
0.00069791338
0.00085654156
0.0010523782
0.0011940035
0.0011924185
0.0011908509
0.0011892812
0.0011877071
0.001186125
0.0011845373
0.0011829685
0.0011815377
0.001180344
0.0011793312
0.0011784735
0.001177744
0.0011771254
0.0011766169
0.0011762222
0.0011759126
0.0011756288
0.0011753172
0.0011750552
0.0011750726
0.00117541
0.0011754582
1.2270085e-07
1.1467821e-06
1.1520835e-06
9.2698762e-07
9.3884742e-07
8.6699742e-07
9.28656e-07
1.0079845e-06
1.115715e-06
1.2429052e-06
1.3903554e-06
1.5578405e-06
1.746571e-06
1.9580708e-06
2.1941993e-06
2.4570334e-06
2.7488954e-06
3.0723733e-06
3.4303667e-06
3.8261413e-06
4.2634065e-06
4.7464224e-06
5.2801486e-06
5.8704559e-06
6.5244198e-06
7.2481265e-06
8.0560527e-06
8.960022e-06
9.9860341e-06
1.1141882e-05
1.2461352e-05
1.3979698e-05
1.5741334e-05
1.7802035e-05
2.0231546e-05
2.3116724e-05
2.6565383e-05
3.0710983e-05
3.5718353e-05
4.1790777e-05
4.9178707e-05
5.8190509e-05
6.9205505e-05
8.2688196e-05
9.9212436e-05
0.00011948387
0.00014565675
0.00017646959
0.00021433432
0.00026089604
0.00031818713
0.00038872539
0.00047563024
0.00058831223
0.00072146303
0.00088583771
0.0010889541
0.0011940917
0.0011924785
0.001190881
0.0011892852
0.001187687
0.0011860824
0.0011844765
0.0011829108
0.0011815834
0.0011804558
0.0011795027
0.0011786946
0.0011780063
0.001177432
0.0011769474
0.001176577
0.0011762855
0.0011760214
0.0011757475
0.0011755534
0.0011756159
0.001175922
0.0011759316
1.4420861e-07
1.1853071e-06
9.9196931e-07
7.0736367e-07
7.669531e-07
7.7487871e-07
8.5844623e-07
9.6059875e-07
1.0847821e-06
1.2267705e-06
1.3877009e-06
1.5684907e-06
1.7706405e-06
1.9957888e-06
2.2458233e-06
2.5228483e-06
2.8292184e-06
3.16757e-06
3.5408638e-06
3.9524378e-06
4.4060807e-06
4.9061352e-06
5.4576465e-06
6.0665743e-06
6.7400948e-06
7.4870125e-06
8.318307e-06
9.2478315e-06
1.0293199e-05
1.1476837e-05
1.282725e-05
1.4380613e-05
1.6182553e-05
1.8290384e-05
2.0775748e-05
2.3727818e-05
2.7257212e-05
3.1500734e-05
3.6627182e-05
4.2844497e-05
5.040868e-05
6.0061692e-05
7.1425139e-05
8.5329606e-05
0.00010236584
0.00012325993
0.00014890725
0.00018041252
0.00021913998
0.00026677393
0.00032540332
0.00040128596
0.00049093196
0.00060147814
0.00073792839
0.00090652839
0.001115077
0.0011941771
0.0011925337
0.0011909057
0.0011892842
0.0011876655
0.0011860477
0.001184442
0.0011829179
0.0011816611
0.0011805876
0.0011796805
0.0011789121
0.0011782622
0.0011777454
0.0011772713
0.0011769215
0.0011766301
0.001176391
0.0011761512
0.0011760095
0.001176089
0.0011763496
0.0011763438
1.3749803e-07
7.905544e-07
8.1352325e-07
6.0306987e-07
6.6022335e-07
7.2078058e-07
8.2293529e-07
9.4186898e-07
1.0791321e-06
1.233725e-06
1.4068899e-06
1.5998286e-06
1.8140716e-06
2.0513235e-06
2.3135116e-06
2.602797e-06
2.9216021e-06
3.2725997e-06
3.6588892e-06
4.0838688e-06
4.5514123e-06
5.0659485e-06
5.6326104e-06
6.2574499e-06
6.9477442e-06
7.7124161e-06
8.5625913e-06
9.5123199e-06
1.0588111e-05
1.1799372e-05
1.3181133e-05
1.4770493e-05
1.6614179e-05
1.8770836e-05
2.1313691e-05
2.4333838e-05
2.7944204e-05
3.2284397e-05
3.7526664e-05
4.3883183e-05
5.1615009e-05
6.1042989e-05
7.2561172e-05
8.6655554e-05
0.00010392355
0.00012510153
0.00015109771
0.00018463919
0.00022418664
0.00027282079
0.00033267738
0.0004064033
0.00049728923
0.00060943386
0.00074795381
0.00091925165
0.0011313401
0.0011943103
0.0011926379
0.0011909783
0.0011893259
0.0011876786
0.0011860392
0.0011844332
0.0011829818
0.0011817686
0.0011807368
0.0011798646
0.0011791271
0.0011785056
0.00117802
0.0011775741
0.001177242
0.0011769286