/*--------------------------------*- C++ -*----------------------------------*\
  =========                 |
  \\      /  F ield         | OpenFOAM: The Open Source CFD Toolbox
   \\    /   O peration     | Website:  https://openfoam.org
    \\  /    A nd           | Version:  12
     \\/     M anipulation  |
\*---------------------------------------------------------------------------*/
FoamFile
{
    format      ascii;
    class       volScalarField;
    location    "0.138";
    object      nut;
}
// * * * * * * * * * * * * * * * * * * * * * * * * * * * * * * * * * * * * * //

dimensions      [0 2 -1 0 0 0 0];

internalField   nonuniform List<scalar> 
16000
(
4.5687853e-07
9.8835043e-06
1.7955543e-05
2.3821392e-05
1.8257011e-05
2.5023947e-05
1.7692609e-05
2.4213648e-05
1.8890275e-05
2.6021211e-05
2.1895388e-05
2.5722035e-05
2.3444447e-05
2.4068005e-05
2.3250256e-05
2.3115692e-05
2.2871009e-05
2.2802828e-05
2.2811925e-05
2.2918453e-05
2.3114723e-05
2.3400163e-05
2.3772234e-05
2.423091e-05
2.4778312e-05
2.5420199e-05
2.61644e-05
2.7023458e-05
2.8012661e-05
2.914846e-05
3.0448888e-05
3.1937924e-05
3.3646548e-05
3.561295e-05
3.7884134e-05
4.051617e-05
4.3575855e-05
4.7142828e-05
5.1315685e-05
5.6216625e-05
6.1989057e-05
6.8801864e-05
7.6868069e-05
8.6448751e-05
9.7854742e-05
0.00011145895
0.00012772402
0.0001472141
0.0001706167
0.00019877056
0.00023270363
0.00027367887
0.00032324284
0.00038329377
0.00045616246
0.00054472334
0.00065253432
0.00078402093
0.00094472318
0.0010195896
0.0010194036
0.0010191713
0.001018875
0.0010184867
0.0010180059
0.0010174274
0.0010167467
0.0010159535
0.001015024
0.001013923
0.0010126279
0.0010111375
0.0010094675
0.001008141
0.0010071057
0.0010063109
0.0010057437
0.0010056788
0.0010056488
0.001007037
4.213566e-07
9.3878019e-06
1.9795565e-05
2.136352e-05
1.6483977e-05
2.2482488e-05
1.5729495e-05
2.1250073e-05
1.6717443e-05
2.3026395e-05
1.9853238e-05
2.3225977e-05
2.1470283e-05
2.1839557e-05
2.1200471e-05
2.1015627e-05
2.0811762e-05
2.0739334e-05
2.0749809e-05
2.0846971e-05
2.1028087e-05
2.1292252e-05
2.1637564e-05
2.2064065e-05
2.257343e-05
2.3171054e-05
2.386373e-05
2.4662767e-05
2.5582638e-05
2.6639399e-05
2.7849837e-05
2.9235863e-05
3.0826154e-05
3.2656078e-05
3.4769625e-05
3.721954e-05
4.0069075e-05
4.3393107e-05
4.728352e-05
5.1856075e-05
5.7248692e-05
6.362049e-05
7.1172206e-05
8.0152935e-05
9.0861453e-05
0.00010365249
0.00011896768
0.0001373475
0.00015945213
0.00018608761
0.00021824213
0.00025713316
0.00030425366
0.00036143957
0.00043094728
0.00051556209
0.00061873532
0.00074475486
0.00089897466
0.0010188975
0.0010187299
0.001018481
0.0010181756
0.0010177801
0.0010172949
0.0010167157
0.0010160375
0.0010152499
0.0010143316
0.0010132489
0.0010119791
0.0010105334
0.0010089267
0.0010076461
0.0010066494
0.0010058806
0.0010053456
0.0010051181
0.001005319
0.0010066087
3.7701499e-07
9.0025453e-06
1.8745852e-05
1.9562811e-05
1.4785347e-05
1.9823734e-05
1.4027348e-05
1.8495741e-05
1.5053586e-05
2.0232482e-05
1.8127234e-05
2.0710734e-05
1.9475373e-05
1.9585022e-05
1.909269e-05
1.8886567e-05
1.8714731e-05
1.8647671e-05
1.8661275e-05
1.8753253e-05
1.8922185e-05
1.9167504e-05
1.9487642e-05
1.9882876e-05
2.0354527e-05
2.09078e-05
2.1548756e-05
2.2287642e-05
2.3137944e-05
2.4115312e-05
2.523569e-05
2.6519348e-05
2.7993046e-05
2.9689706e-05
3.1650631e-05
3.3925482e-05
3.6574351e-05
3.9668353e-05
4.3293697e-05
4.7559643e-05
5.2599547e-05
5.8564936e-05
6.5645912e-05
7.4080224e-05
8.4156879e-05
9.621568e-05
0.00011068038
0.00012807127
0.00014902537
0.00017432161
0.0002049146
0.00024198331
0.00028697502
0.0003416728
0.00040826977
0.00048947467
0.00058864677
0.00070996255
0.000858627
0.0010182492
0.0010181007
0.0010178301
0.0010175079
0.0010170982
0.0010166018
0.0010160152
0.0010153332
0.0010145444
0.0010136281
0.0010125538
0.0010112991
0.0010098857
0.0010083464
0.0010071249
0.0010061782
0.0010054515
0.0010049247
0.0010046304
0.0010049223
0.001005728
3.3542856e-07
8.7124948e-06
1.7817777e-05
1.8190363e-05
1.3309954e-05
1.7527381e-05
1.2517841e-05
1.6186209e-05
1.3567361e-05
1.7858343e-05
1.6568216e-05
1.8479106e-05
1.7629006e-05
1.7548823e-05
1.716578e-05
1.6958503e-05
1.6814685e-05
1.6757861e-05
1.6777184e-05
1.6867378e-05
1.7027581e-05
1.7257622e-05
1.7556286e-05
1.7924206e-05
1.8362471e-05
1.8876231e-05
1.9471069e-05
2.0156386e-05
2.094474e-05
2.185145e-05
2.2891909e-05
2.4084992e-05
2.5455908e-05
2.7035478e-05
2.886273e-05
3.0984667e-05
3.3458649e-05
3.6352838e-05
3.9748927e-05
4.375011e-05
4.8486223e-05
5.4103024e-05
6.0782056e-05
6.8750954e-05
7.8291638e-05
8.9732382e-05
0.00010348273
0.00012004722
0.00014004491
0.00016423472
0.00019354557
0.00022912798
0.00027239543
0.00032509293
0.00038936878
0.00046787763
0.00056391369
0.00068157739
0.00082598005
0.0010034921
0.0010175207
0.001017226
0.0010168832
0.001016456
0.0010159452
0.001015348
0.0010146587
0.0010138645
0.0010129448
0.0010118729
0.0010106284
0.0010092405
0.0010077596
0.0010065988
0.0010057058
0.001005024
0.0010045019
0.0010041841
0.0010044855
0.0010049584
3.0425015e-07
8.4971756e-06
1.7003423e-05
1.8202863e-05
1.3270155e-05
1.5519399e-05
1.1187307e-05
1.4199293e-05
1.2285e-05
1.580274e-05
1.5175794e-05
1.6461001e-05
1.5899392e-05
1.5690839e-05
1.5389024e-05
1.5194831e-05
1.5074414e-05
1.5028629e-05
1.505264e-05
1.5140557e-05
1.5291731e-05
1.5506553e-05
1.578421e-05
1.6125808e-05
1.6532332e-05
1.7008964e-05
1.7560946e-05
1.8197016e-05
1.8928805e-05
1.9771261e-05
2.0739417e-05
2.185099e-05
2.3129901e-05
2.4605154e-05
2.631382e-05
2.8300582e-05
3.0620349e-05
3.3338884e-05
3.6534487e-05
4.0304568e-05
4.4775977e-05
5.009014e-05
5.6421899e-05
6.3989376e-05
7.3069088e-05
8.3980299e-05
9.7120796e-05
0.00011298214
0.00013216843
0.00015542296
0.00018365342
0.00021798748
0.00025981098
0.00031083819
0.00037318154
0.00044945219
0.00054289182
0.00065753899
0.00079843113
0.000971841
0.0010169863
0.0010166651
0.0010162975
0.0010158492
0.0010153206
0.0010147089
0.001014008
0.0010132033
0.0010122738
0.0010111975
0.0010099579
0.0010085889
0.0010071721
0.0010060746
0.0010052383
0.0010046024
0.0010040882
0.0010037618
0.0010040233
0.0010041852
2.8002694e-07
8.367015e-06
1.6350126e-05
1.7989609e-05
1.3065605e-05
1.3758032e-05
1.0567364e-05
1.2553174e-05
1.1368772e-05
1.4064059e-05
1.3953087e-05
1.4684679e-05
1.4315919e-05
1.4031708e-05
1.3781416e-05
1.3602558e-05
1.3497387e-05
1.3458591e-05
1.3483741e-05
1.3567219e-05
1.3708363e-05
1.3908039e-05
1.4165673e-05
1.4482759e-05
1.4860263e-05
1.5303371e-05
1.5817045e-05
1.6409502e-05
1.7091478e-05
1.7877515e-05
1.8782452e-05
1.9823071e-05
2.1022274e-05
2.2407556e-05
2.4014376e-05
2.5885496e-05
2.8073747e-05
3.0642979e-05
3.3669313e-05
3.7245169e-05
4.1494658e-05
4.6556369e-05
5.2600823e-05
5.9837517e-05
6.8539406e-05
7.9019718e-05
9.1667414e-05
0.00010696468
0.00012550432
0.00014801951
0.00017540254
0.00020876551
0.00024947506
0.00029922462
0.00036010338
0.00043469397
0.00052620323
0.00063862864
0.00077696037
0.00094741046
0.0010164918
0.0010161422
0.0010157465
0.0010152744
0.0010147253
0.0010140959
0.001013379
0.0010125589
0.0010116141
0.0010105277
0.0010092892
0.0010079317
0.0010065877
0.0010055557
0.0010047774
0.0010041879
0.0010036885
0.0010033555
0.0010035366
0.0010034155
2.5410345e-07
8.2950056e-06
1.5840568e-05
1.7033464e-05
1.296402e-05
1.2162523e-05
1.0626139e-05
1.1564596e-05
1.0987306e-05
1.2562093e-05
1.2852612e-05
1.311253e-05
1.2844616e-05
1.2527136e-05
1.2306059e-05
1.2142634e-05
1.2048712e-05
1.20157e-05
1.2041639e-05
1.2121469e-05
1.2254239e-05
1.2441203e-05
1.2681783e-05
1.2901502e-05
1.3244879e-05
1.3651192e-05
1.4124651e-05
1.4672759e-05
1.5305172e-05
1.603569e-05
1.6878924e-05
1.7850743e-05
1.8973108e-05
2.0272068e-05
2.1781584e-05
2.354265e-05
2.560614e-05
2.8034016e-05
3.0900967e-05
3.4554135e-05
3.8622835e-05
4.3480065e-05
4.9294444e-05
5.626805e-05
6.4671321e-05
7.4814354e-05
8.7080152e-05
0.00010194483
0.00011999301
0.00014195294
0.00016870667
0.00020135735
0.00024126001
0.00029009604
0.00034994233
0.00042336631
0.00051355554
0.00062448416
0.00076111723
0.00092963673
0.0010160332
0.0010156533
0.0010152267
0.0010147284
0.0010141562
0.0010135057
0.0010127685
0.0010119283
0.0010109639
0.001009863
0.001008624
0.0010072715
0.0010060135
0.0010050487
0.0010043283
0.0010037851
0.0010033072
0.0010029662
0.0010030496
0.0010026856
2.2903094e-07
8.2552144e-06
1.5404181e-05
1.5502421e-05
1.1892485e-05
1.0602576e-05
9.1969903e-06
1.0329273e-05
9.6570396e-06
1.1292978e-05
1.1741662e-05
1.16655e-05
1.1437527e-05
1.1127666e-05
1.0930533e-05
1.0787036e-05
1.0706777e-05
1.0682438e-05
1.064707e-05
1.0710475e-05
1.0826887e-05
1.099654e-05
1.1217294e-05
1.1489304e-05
1.1816738e-05
1.2202605e-05
1.2651421e-05
1.3170624e-05
1.3769324e-05
1.4460891e-05
1.5260126e-05
1.6182408e-05
1.7249243e-05
1.8485755e-05
1.9925017e-05
2.1606891e-05
2.3581052e-05
2.5908276e-05
2.8662708e-05
3.1934623e-05
3.5834067e-05
4.0500411e-05
4.6102183e-05
5.3280994e-05
6.1465983e-05
7.1366737e-05
8.3363521e-05
9.7929608e-05
0.00011564468
0.0001372376
0.00016358565
0.00019579005
0.00023520244
0.00028350161
0.00034276387
0.00041555587
0.00050506276
0.00061525488
0.00075109493
0.00091876615
0.001015605
0.001015193
0.0010147334
0.0010142066
0.0010136087
0.0010129338
0.0010121719
0.0010113076
0.0010103211
0.001009203
0.0010079637
0.0010066216
0.0010054544
0.0010045585
0.0010038953
0.0010033978
0.0010029476
0.0010025964
0.0010025786
0.0010020284
2.1064953e-07
8.2141167e-06
1.4950366e-05
1.3570558e-05
9.7778336e-06
9.4261696e-06
7.5814895e-06
8.8096879e-06
8.9820754e-06
1.0158052e-05
1.0610944e-05
1.0316992e-05
1.0108048e-05
9.8296743e-06
9.6569231e-06
9.4689718e-06
9.3794384e-06
9.3506595e-06
9.375322e-06
9.4504493e-06
9.5720466e-06
9.7416712e-06
9.9581931e-06
1.0221643e-05
1.0536164e-05
1.0905676e-05
1.1334735e-05
1.1830813e-05
1.2402649e-05
1.3063163e-05
1.3827437e-05
1.4710588e-05
1.5733947e-05
1.6921992e-05
1.8307239e-05
1.9928853e-05
2.1835776e-05
2.4088111e-05
2.6759322e-05
2.9938798e-05
3.3736816e-05
3.8290587e-05
4.377121e-05
5.0377109e-05
5.8362795e-05
6.8045044e-05
8.0509442e-05
9.491036e-05
0.00011245026
0.00013386391
0.00016002967
0.00019205389
0.00023129326
0.00027943362
0.00033856264
0.00041126095
0.00050072885
0.00061095295
0.00074691609
0.00091483221
0.0010152012
0.0010147558
0.0010142614
0.0010137039
0.0010130774
0.0010123744
0.0010115841
0.0010106926
0.0010096833
0.0010085476
0.0010073078
0.0010059937
0.0010049162
0.0010040902
0.0010034834
0.0010030306
0.0010026135
0.0010022513
0.0010021315
0.0010014488
1.9396287e-07
8.1727187e-06
1.3444332e-05
1.1816042e-05
7.9075534e-06
8.3776048e-06
6.7394369e-06
7.9479679e-06
8.3145099e-06
9.082744e-06
9.4889629e-06
9.0853424e-06
8.8831839e-06
8.5580493e-06
8.3763563e-06
8.2584312e-06
8.2014017e-06
8.1966783e-06
8.2383341e-06
8.3232215e-06
8.4517618e-06
8.6216585e-06
8.8351426e-06
9.0921979e-06
9.397185e-06
9.7544085e-06
1.0168581e-05
1.0647328e-05
1.1199156e-05
1.1836562e-05
1.2574962e-05
1.3429513e-05
1.442159e-05
1.5575294e-05
1.6922896e-05
1.8503262e-05
2.0365023e-05
2.256813e-05
2.5186269e-05
2.8309136e-05
3.2046977e-05
3.6536459e-05
4.1951634e-05
4.8490824e-05
5.6410561e-05
6.6029337e-05
7.7740053e-05
9.2004216e-05
0.0001104079
0.0001318319
0.00015804186
0.00019015622
0.00022954578
0.00027791362
0.0003373713
0.0004105291
0.00050062111
0.00061167214
0.00074870882
0.00091800422
0.0010148158
0.0010143352
0.0010138047
0.0010132142
0.001012556
0.0010118213
0.0010109997
0.0010100794
0.0010090478
0.0010078963
0.0010066538
0.0010053936
0.0010044034
0.0010036479
0.0010030968
0.0010026872
0.0010023066
0.001001934
0.0010017011
0.0010009791
1.7888449e-07
8.1264913e-06
1.068051e-05
9.8072343e-06
6.4932895e-06
7.4568779e-06
6.140709e-06
7.1380099e-06
7.7739733e-06
8.1052801e-06
8.386347e-06
7.8777869e-06
7.6295608e-06
7.4016219e-06
7.265758e-06
7.1855147e-06
7.1561062e-06
7.1722021e-06
7.2286046e-06
7.324482e-06
7.4572157e-06
7.629095e-06
7.8415312e-06
8.0950022e-06
8.3939582e-06
8.7431365e-06
9.1475135e-06
9.6149225e-06
1.015383e-05
1.0776386e-05
1.1439369e-05
1.2266264e-05
1.322867e-05
1.4350285e-05
1.5663128e-05
1.7205793e-05
1.9026669e-05
2.1185601e-05
2.3756611e-05
2.6829975e-05
3.0516906e-05
3.522939e-05
4.0635406e-05
4.7175657e-05
5.510883e-05
6.4756338e-05
7.6521694e-05
9.0876667e-05
0.00010841662
0.00012988433
0.00015761994
0.00019009895
0.00022996778
0.00027895741
0.00033921649
0.00041340158
0.00050480042
0.00061749981
0.000756596
0.00092844853
0.001014442
0.0010139245
0.0010133564
0.0010127306
0.0010120376
0.0010112686
0.0010104142
0.0010094648
0.0010084118
0.0010072484
0.0010059984
0.0010048257
0.0010039199
0.0010032341
0.0010027382
0.0010023695
0.0010020253
0.0010016486
0.0010013131
0.0010006181
1.6564053e-07
8.0792213e-06
8.4249321e-06
8.3368024e-06
5.7075213e-06
6.6011728e-06
5.634801e-06
6.4292282e-06
7.2221531e-06
7.1913228e-06
7.1902049e-06
6.7570727e-06
6.5535901e-06
6.384643e-06
6.2877616e-06
6.238963e-06
6.2335541e-06
6.2675078e-06
6.3372417e-06
6.4424685e-06
6.5819141e-06
6.7572135e-06
6.970886e-06
7.2238693e-06
7.5206975e-06
7.8325877e-06
8.2255767e-06
8.6809096e-06
9.2069173e-06
9.8153117e-06
1.0520198e-05
1.1339945e-05
1.2295251e-05
1.3409881e-05
1.4716145e-05
1.6253029e-05
1.8069496e-05
2.022616e-05
2.2798492e-05
2.5878639e-05
2.9580388e-05
3.4045975e-05
3.9449726e-05
4.6000727e-05
5.3961761e-05
6.4213005e-05
7.6145341e-05
9.0723407e-05
0.00010855242
0.00013039703
0.00015719214
0.00019188153
0.00023256566
0.00028258078
0.00034412638
0.0004199232
0.00051333386
0.00062853318
0.00077071659
0.00094635659
0.0010140733
0.0010135166
0.0010129095
0.0010122459
0.0010115158
0.0010107109
0.001009824
0.0010088468
0.0010077732
0.0010066039
0.0010053535
0.0010042933
0.001003468
0.0010028496
0.0010024077
0.0010020772
0.0010017664
0.0010014007
0.0010009868
0.0010003223
1.5377057e-07
8.0214211e-06
6.6977708e-06
7.3127405e-06
5.0822893e-06
5.8361497e-06
5.1990905e-06
5.7998182e-06
6.5650748e-06
6.1543519e-06
6.110036e-06
5.7758243e-06
5.6135118e-06
5.4922777e-06
5.42878e-06
5.4070577e-06
5.4228005e-06
5.4735117e-06
5.5563088e-06
5.6716329e-06
5.8187806e-06
5.9996837e-06
6.1908917e-06
6.4409417e-06
6.7344524e-06
7.075565e-06
7.4712958e-06
7.929151e-06
8.4576777e-06
9.0687857e-06
9.7767266e-06
1.0599639e-05
1.1559453e-05
1.2680287e-05
1.399499e-05
1.5543296e-05
1.7375271e-05
1.9552789e-05
2.2153465e-05
2.5272316e-05
2.9025898e-05
3.3559517e-05
3.9056284e-05
4.5730364e-05
5.3852493e-05
6.3759619e-05
7.5870622e-05
9.0692198e-05
0.00010980732
0.00013222036
0.00015973105
0.00019353177
0.00023733669
0.0002887901
0.00035211903
0.00043012775
0.00052627671
0.00064485635
0.00079119651
0.00097191158
0.0010137027
0.0010131044
0.0010124568
0.0010117537
0.0010109854
0.0010101444
0.0010092261
0.0010082239
0.0010071305
0.0010059594
0.0010047593
0.0010037984
0.001003049
0.0010024933
0.0010021033
0.0010018085
0.0010015251
0.001001188
0.0010007553
0.0010001298
1.4317724e-07
7.9501091e-06
5.3679753e-06
6.3831249e-06
4.5253129e-06
5.1548539e-06
4.8262177e-06
5.1581395e-06
5.7401422e-06
5.2529644e-06
5.1616149e-06
4.9166051e-06
4.7930008e-06
4.7116156e-06
4.677722e-06
4.6803911e-06
4.7158983e-06
4.7827861e-06
4.8789756e-06
4.9865393e-06
5.1372707e-06
5.3216049e-06
5.5417911e-06
5.8007707e-06
6.1027928e-06
6.4523833e-06
6.8564828e-06
7.3232244e-06
7.8613792e-06
8.4830164e-06
9.2025073e-06
1.0038212e-05
1.0962676e-05
1.2090619e-05
1.3414583e-05
1.4975024e-05
1.682331e-05
1.9022634e-05
2.1652793e-05
2.4812177e-05
2.8621111e-05
3.3481365e-05
3.9122967e-05
4.5982896e-05
5.434094e-05
6.4543356e-05
7.7028582e-05
9.2325098e-05
0.00011108053
0.00013532989
0.00016378892
0.00019877166
0.00024179736
0.00029757407
0.00036319293
0.00044402636
0.00054365857
0.00066652372
0.00081812691
0.0010052635
0.0010133239
0.0010126814
0.0010119922
0.0010112487
0.0010104423
0.0010095665
0.0010086181
0.001007594
0.0010064858
0.0010053066
0.0010042114
0.0010033429
0.0010026637
0.0010021641
0.0010018217
0.0010015616
0.0010012996
0.0010010003
0.0010006142
0.0010000222
1.3372642e-07
7.8194976e-06
4.3530182e-06
5.5554248e-06
4.0269763e-06
4.5478016e-06
4.4984196e-06
4.460857e-06
4.9082536e-06
4.4485858e-06
4.3390427e-06
4.1675113e-06
4.0807027e-06
4.0337732e-06
4.0267867e-06
4.0520157e-06
4.1064474e-06
4.1726994e-06
4.2773622e-06
4.412019e-06
4.577518e-06
4.7753713e-06
5.0085169e-06
5.2801034e-06
5.5949472e-06
5.9578404e-06
6.3757902e-06
6.8366894e-06
7.385235e-06
8.0179808e-06
8.7493395e-06
9.5976858e-06
1.0585487e-05
1.1740983e-05
1.309787e-05
1.46979e-05
1.6594734e-05
1.8853897e-05
2.1558293e-05
2.4811221e-05
2.8738437e-05
3.3498484e-05
3.9283205e-05
4.6329045e-05
5.4927504e-05
6.5986765e-05
7.8953177e-05
9.4851211e-05
0.00011435945
0.00013831531
0.00016932681
0.00020577036
0.00025060902
0.00030579266
0.00037731178
0.00046158959
0.00056546127
0.00069353365
0.00085152935
0.0010135968
0.0010129306
0.0010122427
0.0010115112
0.0010107273
0.0010098838
0.0010089755
0.0010079987
0.0010069533
0.0010058414
0.0010046751
0.0010037081
0.001002927
0.0010023125
0.0010018617
0.0010015603
0.001001334
0.0010010932
0.0010008325
0.0010005256
0.00099992642
1.2533842e-07
7.4954623e-06
3.6512351e-06
4.8205312e-06
3.5827339e-06
4.0093409e-06
3.9863234e-06
3.829474e-06
4.1073886e-06
3.7373231e-06
3.6338052e-06
3.5208579e-06
3.468519e-06
3.451996e-06
3.4696253e-06
3.5029669e-06
3.5694813e-06
3.6649652e-06
3.7886245e-06
3.9407021e-06
4.122676e-06
4.3365804e-06
4.5857747e-06
4.8736964e-06
5.1936784e-06
5.5706316e-06
6.0031013e-06
6.4991917e-06
7.0690938e-06
7.7249461e-06
8.4815341e-06
9.3579729e-06
1.0377646e-05
1.156986e-05
1.2970625e-05
1.4623219e-05
1.6584153e-05
1.8922019e-05
2.1723102e-05
2.5096807e-05
2.9173874e-05
3.4120763e-05
4.0141721e-05
4.7483668e-05
5.6454382e-05
6.7431686e-05
8.1598931e-05
9.822452e-05
0.00011863409
0.00014371509
0.00017453677
0.00021445949
0.00026144175
0.0003192792
0.00039048946
0.00048272297
0.00059158969
0.00072579484
0.00089131392
0.0010132206
0.0010125178
0.0010117852
0.0010110117
0.0010101883
0.001009309
0.0010083703
0.0010073682
0.001006301
0.001005189
0.001004107
0.0010032471
0.0010025493
0.0010019956
0.0010015878
0.0010013192
0.0010011232
0.0010009079
0.0010006842
0.0010004474
0.00099994354
1.1809244e-07
7.0881577e-06
3.2063883e-06
4.1684001e-06
3.1869583e-06
3.3826235e-06
3.5325792e-06
3.2509334e-06
3.3836964e-06
3.1195089e-06
3.0368157e-06
2.9701498e-06
2.9491064e-06
2.9597429e-06
2.984916e-06
3.0468985e-06
3.1366647e-06
3.2530308e-06
3.3961097e-06
3.5668744e-06
3.7673472e-06
3.9998437e-06
4.2598445e-06
4.5646858e-06
4.9135421e-06
5.3120997e-06
5.767194e-06
6.2872163e-06
6.8825603e-06
7.5661302e-06
8.353177e-06
9.2636223e-06
1.0321904e-05
1.1558785e-05
1.2956652e-05
1.4658836e-05
1.6680376e-05
1.9093444e-05
2.2120402e-05
2.5639987e-05
2.9897995e-05
3.5068769e-05
4.1370085e-05
4.9062045e-05
5.8467989e-05
6.9988371e-05
8.4114664e-05
0.00010145022
0.00012383284
0.00015021032
0.00018263836
0.00022252326
0.00027417084
0.00033505047
0.00041001242
0.00050723842
0.00062183567
0.00076308447
0.00093724359
0.0010128256
0.0010120841
0.0010113082
0.0010104937
0.0010096324
0.0010087187
0.0010077504
0.0010067267
0.0010056452
0.0010045274
0.0010035913
0.001002827
0.0010022068
0.0010017116
0.0010013443
0.0010011014
0.0010009286
0.001000743
0.0010005605
0.001000391
0.00099995552
1.1224758e-07
6.120582e-06
2.8260038e-06
3.5761466e-06
2.8435236e-06
2.804581e-06
3.0812096e-06
2.727345e-06
2.7627116e-06
2.5918572e-06
2.5367257e-06
2.5075793e-06
2.5072376e-06
2.5353953e-06
2.5948359e-06
2.6815113e-06
2.7935475e-06
2.9307793e-06
3.0940704e-06
3.2848352e-06
3.5003337e-06
3.7515949e-06
4.0387232e-06
4.3657741e-06
4.7375928e-06
5.1600554e-06
5.6403074e-06
6.1870616e-06
6.8110326e-06
7.5090784e-06
8.3251083e-06
9.2674542e-06
1.0361547e-05
1.163925e-05
1.3140421e-05
1.4914898e-05
1.7024316e-05
1.9545848e-05
2.2575281e-05
2.6230999e-05
3.0660045e-05
3.630311e-05
4.2924029e-05
5.1014807e-05
6.0915462e-05
7.3048799e-05
8.793499e-05
0.0001062145
0.00012985572
0.00015768586
0.000191912
0.00023401592
0.00028860516
0.00035288314
0.00043204211
0.00052955071
0.00065584007
0.00080499795
0.00098886862
0.0010124118
0.0010116302
0.0010108135
0.0010099598
0.0010090625
0.0010081162
0.0010071183
0.0010060723
0.0010049944
0.0010039515
0.0010031222
0.0010024455
0.0010018959
0.0010014573
0.0010011302
0.0010009095
0.0010007511
0.0010005904
0.0010004434
0.0010003175
0.0010000379
1.0737349e-07
4.2731603e-06
2.4809178e-06
3.0273632e-06
2.4128193e-06
2.3199275e-06
2.6089704e-06
2.2617529e-06
2.2461685e-06
2.1476759e-06
2.1229715e-06
2.1190714e-06
2.1466029e-06
2.205018e-06
2.2902858e-06
2.4000874e-06
2.5337637e-06
2.6918309e-06
2.8729326e-06
3.083134e-06
3.3234528e-06
3.5967407e-06
3.9064659e-06
4.2568445e-06
4.6529579e-06
5.100927e-06
5.6081786e-06
6.174426e-06
6.8258681e-06
7.5698394e-06
8.4235196e-06
9.4082457e-06
1.0550911e-05
1.188529e-05
1.3453732e-05
1.530903e-05
1.7516817e-05
2.0158778e-05
2.3336572e-05
2.717638e-05
3.183461e-05
3.7504174e-05
4.4754095e-05
5.3284403e-05
6.3729992e-05
7.6537808e-05
9.2258174e-05
0.0001115699
0.00013530995
0.00016598535
0.00020217273
0.00024669927
0.00030150782
0.00037245583
0.00045619279
0.0005593486
0.00069305542
0.0008508976
0.001012791
0.0010119808
0.0010111596
0.0010103053
0.0010094148
0.0010084833
0.0010075063
0.0010064818
0.0010054146
0.0010043374
0.0010034392
0.0010027018
0.0010021013
0.0010016141
0.0010012288
0.0010009422
0.0010007433
0.0010005937
0.0010004509
0.0010003423
0.0010002545
0.0010000618
1.0218785e-07
3.5247613e-06
2.1219231e-06
2.5228824e-06
2.0599475e-06
1.9148765e-06
2.1250773e-06
1.8539895e-06
1.8263558e-06
1.7827686e-06
1.7843177e-06
1.8112268e-06
1.8703205e-06
1.9553494e-06
2.0639481e-06
2.1952455e-06
2.3494874e-06
2.5258322e-06
2.7290728e-06
2.9603275e-06
3.2221293e-06
3.5175469e-06
3.8502485e-06
4.2246121e-06
4.6458924e-06
5.1204296e-06
5.6496071e-06
6.2527381e-06
6.9371616e-06
7.7172653e-06
8.611145e-06
9.641391e-06
1.0836418e-05
1.2231952e-05
1.3872968e-05
1.5815788e-05
1.8130358e-05
2.0903391e-05
2.4242766e-05
2.8281859e-05
3.3186285e-05
3.9444173e-05
4.6802159e-05
5.5802781e-05
6.683115e-05
8.0359614e-05
9.6970151e-05
0.00011738043
0.00014379523
0.00017490633
0.00021317574
0.00026027452
0.00031825979
0.00039333293
0.00048194591
0.00059112745
0.00073270894
0.00089985825
0.0010123699
0.0010115348
0.0010106776
0.0010097893
0.0010088652
0.0010079012
0.0010068949
0.001005847
0.0010047753
0.001003779
0.0010029815
0.0010023285
0.0010017945
0.0010013615
0.0010010242
0.0010007768
0.0010005997
0.0010004576
0.0010003288
0.0010002587
0.0010002078
0.0010000837
9.8381298e-08
2.8146824e-06
1.8111008e-06
2.0170741e-06
1.7682214e-06
1.5684541e-06
1.6789966e-06
1.5088279e-06
1.4960465e-06
1.4959121e-06
1.5241448e-06
1.5840095e-06
1.6695985e-06
1.7774339e-06
1.9066019e-06
2.0573201e-06
2.2295298e-06
2.4263668e-06
2.6494042e-06
2.900967e-06
3.1838336e-06
3.5012517e-06
3.8570247e-06
4.2556507e-06
4.7025199e-06
5.2005856e-06
5.7631469e-06
6.3976547e-06
7.1161275e-06
7.9336433e-06
8.8693379e-06
9.9471225e-06
1.11971e-05
1.2657073e-05
1.437459e-05
1.6409462e-05
1.8836474e-05
2.1747466e-05
2.5257155e-05
2.9506806e-05
3.4899552e-05
4.1246383e-05
4.8999428e-05
5.8489671e-05
7.0122979e-05
8.4399341e-05
0.00010193377
0.00012348508
0.00015133992
0.00018419112
0.00022461213
0.00027436891
0.00033564161
0.00041493882
0.00050860847
0.00062405393
0.00077377509
0.00095063992
0.0010119406
0.0010110795
0.0010101905
0.0010092723
0.0010083185
0.0010073253
0.0010062925
0.0010052279
0.0010041662
0.0010032949
0.0010025798
0.0010019992
0.0010015255
0.0010011408
0.0010008434
0.0010006311
0.0010004731
0.0010003384
0.0010002232
0.001000186
0.0010001731
0.0010000966
9.6155959e-08
2.1953734e-06
1.5408614e-06
1.5362858e-06
1.4992376e-06
1.272409e-06
1.3162256e-06
1.2334901e-06
1.2482572e-06
1.2788973e-06
1.3404262e-06
1.4261933e-06
1.5331655e-06
1.6600085e-06
1.8069748e-06
1.9750731e-06
2.1651518e-06
2.3802025e-06
2.6220502e-06
2.8932419e-06
3.1966999e-06
3.5357894e-06
3.9144152e-06
4.3371728e-06
4.8095562e-06
5.338243e-06
5.9314621e-06
6.5994391e-06
7.3464843e-06
8.2018933e-06
9.1800401e-06
1.0306242e-05
1.1612411e-05
1.3138617e-05
1.4935032e-05
1.7133904e-05
1.9695046e-05
2.2769857e-05
2.6480506e-05
3.0977739e-05
3.6447261e-05
4.311749e-05
5.1270661e-05
6.1254245e-05
7.3496261e-05
8.8524301e-05
0.00010698754
0.00013081854
0.00015894136
0.00019353435
0.00023610762
0.00028852506
0.00035643112
0.00043656648
0.00053532037
0.00065708598
0.00081496254
0.0010016799
0.0010115123
0.0010106248
0.0010097072
0.0010087619
0.0010077829
0.0010067655
0.0010057092
0.0010046375
0.0010036675
0.00100288
0.0010022344
0.001001711
0.0010012902
0.0010009535
0.0010006846
0.0010005008
0.0010003585
0.0010002343
0.0010001362
0.0010001221
0.0010001382
0.0010000917
9.6297704e-08
1.667464e-06
1.312833e-06
1.1683658e-06
1.2289467e-06
1.0246902e-06
1.0500172e-06
1.0300315e-06
1.0731902e-06
1.1332478e-06
1.2188344e-06
1.324168e-06
1.4481594e-06
1.5909443e-06
1.7535747e-06
1.9375478e-06
2.1443845e-06
2.3766624e-06
2.6365526e-06
2.9267129e-06
3.2501504e-06
3.6103076e-06
4.0111734e-06
4.4574423e-06
4.9547334e-06
5.5098876e-06
6.1313653e-06
6.8297431e-06
7.6183338e-06
8.5139722e-06
9.5379395e-06
1.0717193e-05
1.208571e-05
1.3686226e-05
1.5572256e-05
1.7810578e-05
2.0484306e-05
2.369687e-05
2.7576281e-05
3.2281023e-05
3.8006865e-05
4.4994646e-05
5.3538931e-05
6.4004641e-05
7.6840049e-05
9.3364081e-05
0.00011287092
0.00013684409
0.00016632477
0.00020259853
0.00024725075
0.00030507625
0.00037331891
0.00045740977
0.00056109114
0.00069569629
0.00085474095
0.001012001
0.0010110959
0.0010101827
0.0010092396
0.0010082683
0.0010072663
0.0010062324
0.0010051707
0.0010041153
0.0010032546
0.0010025384
0.0010019499
0.0010014679
0.0010010813
0.0010007927
0.0010005467
0.0010003825
0.001000254
0.0010001447
0.0010000697
0.0010000751
0.0010001106
0.0010000881
9.9608235e-08
1.2366595e-06
1.1240267e-06
8.9934109e-07
1.0714351e-06
8.2038098e-07
8.6727573e-07
8.9209195e-07
9.5803012e-07
1.0411932e-06
1.1441892e-06
1.2645456e-06
1.4026249e-06
1.5594135e-06
1.7363768e-06
1.9352308e-06
2.1579257e-06
2.4064889e-06
2.6835564e-06
2.9917631e-06
3.3341792e-06
3.7143186e-06
4.1362566e-06
4.604796e-06
5.1256947e-06
5.7059749e-06
6.3543391e-06
7.0817381e-06
7.9019997e-06
8.8326866e-06
9.8960249e-06
1.1120242e-05
1.2540947e-05
1.420296e-05
1.6162415e-05
1.8489381e-05
2.1270985e-05
2.4615254e-05
2.8655818e-05
3.3557703e-05
3.9794134e-05
4.7136038e-05
5.6112581e-05
6.7106274e-05
8.058726e-05
9.7134626e-05
0.00011746221
0.00014245021
0.00017318127
0.00021296929
0.00025987615
0.00031763383
0.00038879456
0.00047652261
0.00059044905
0.00072502682
0.00089122661
0.0010116163
0.0010106984
0.0010097655
0.0010088023
0.0010078085
0.0010067822
0.001005727
0.001004665
0.0010036985
0.0010029131
0.0010022621
0.0010017256
0.0010012836
0.0010009232
0.0010006406
0.0010004333
0.0010002821
0.0010001661
0.0010000713
0.0010000185
0.0010000407
0.0010000911
0.0010000842
1.0619535e-07
9.5700596e-07
9.5938597e-07
7.6048538e-07
7.6378837e-07
6.997187e-07
7.4491317e-07
8.0485031e-07
8.8804877e-07
9.8734163e-07
1.1034183e-06
1.2361757e-06
1.3866667e-06
1.5562042e-06
1.7463781e-06
1.9589626e-06
2.1959395e-06
2.4595158e-06
2.752162e-06
3.0766574e-06
3.4361551e-06
3.8342705e-06
4.2752056e-06
4.7639247e-06
5.3063997e-06
5.9078284e-06
6.5802846e-06
7.3337471e-06
8.1898715e-06
9.1554888e-06
1.0258838e-05
1.152953e-05
1.3004895e-05
1.473185e-05
1.6769112e-05
1.9189873e-05
2.2085058e-05
2.5567322e-05
2.9775908e-05
3.4882672e-05
4.1099488e-05
4.8687386e-05
5.7967643e-05
6.9333901e-05
8.3272671e-05
0.00010038245
0.00012248132
0.00014851804
0.00018053074
0.00021991653
0.00026840181
0.00032812582
0.00040173952
0.00049721497
0.00061009279
0.00074949093
0.00092180215
0.0010112623
0.0010103309
0.0010093822
0.0010084054
0.0010073986
0.0010063598
0.0010052947
0.0010042397
0.0010033643
0.0010026368
0.0010020373
0.0010015427
0.0010011342
0.0010008072
0.0010005381
0.0010003442
0.0010002036
0.0010000987
0.0010000158
0.00099998011
0.0010000129
0.0010000725
0.0010000726
1.2074612e-07
9.6104027e-07
8.0053878e-07
5.6388706e-07
6.0697188e-07
6.0991014e-07
6.7336533e-07
7.5207837e-07
8.4878621e-07
9.6024017e-07
1.0874208e-06
1.2311476e-06
1.3927082e-06
1.5735098e-06
1.7751672e-06
1.9994783e-06
2.2484525e-06
2.524337e-06
2.8296522e-06
3.1672369e-06
3.5403088e-06
3.9525509e-06
4.408235e-06
4.9123978e-06
5.4710923e-06
6.091731e-06
6.7835427e-06
7.5581584e-06
8.4303548e-06
9.418944e-06
1.0547842e-05
1.1847412e-05
1.335598e-05
1.5121731e-05
1.7204947e-05
1.9680732e-05
2.2642341e-05
2.6205198e-05
3.0511845e-05
3.573801e-05
4.2100185e-05
5.0221937e-05
5.9791428e-05
7.1508065e-05
8.5872512e-05
0.00010350039
0.00012515117
0.00015176215
0.00018449123
0.00022476833
0.00027436735
0.00033858286
0.00041449134
0.00050813656
0.00062377105
0.00076670348
0.00094356343
0.0010109646
0.001010016
0.0010090489
0.0010080572
0.0010070391
0.0010059943
0.0010049337
0.0010039172
0.0010031038
0.0010024233
0.0010018628
0.0010014007
0.0010010218
0.0010007386
0.0010004714
0.0010002889
0.0010001441
0.0010000522
0.0009999748
0.00099994768
0.00099998186
0.0010000452
0.0010000557
1.1071519e-07
6.203084e-07
6.3476546e-07
4.6698569e-07
5.0930926e-07
5.5502508e-07
6.3361105e-07
7.2594886e-07
8.3332756e-07
9.5507651e-07
1.0922657e-06
1.2459438e-06
1.4174246e-06
1.6081692e-06
1.8198249e-06
2.0542355e-06
2.3134647e-06
2.5997893e-06
2.9158408e-06
3.2645069e-06
3.6490741e-06
4.0732957e-06
4.5415148e-06
5.058843e-06
5.6314154e-06
6.26674e-06
6.9741637e-06
7.765476e-06
8.6627294e-06
9.6741017e-06
1.0828839e-05
1.2158066e-05
1.3701015e-05
1.5506968e-05
1.7637516e-05
2.0169357e-05
2.3197653e-05
2.6840158e-05
3.1242276e-05
3.6583256e-05
4.3083794e-05
5.1015311e-05
6.0711352e-05
7.2583486e-05
8.7137889e-05
0.00010499872
0.0001269361
0.00015525135
0.00018866212
0.00022977135
0.0002803922
0.00034277227
0.00041970644
0.0005146765
0.00063202966
0.00077720646
0.00095701647
0.0010107569
0.0010097915
0.0010088048
0.0010077932
0.0010067565
0.0010056983
0.0010046414
0.0010036898
0.0010029155
0.0010022715
0.0010017408
0.0010013038
0.0010009461