/*--------------------------------*- C++ -*----------------------------------*\
  =========                 |
  \\      /  F ield         | OpenFOAM: The Open Source CFD Toolbox
   \\    /   O peration     | Website:  https://openfoam.org
    \\  /    A nd           | Version:  12
     \\/     M anipulation  |
\*---------------------------------------------------------------------------*/
FoamFile
{
    format      ascii;
    class       volScalarField;
    location    "0.138";
    object      omega;
}
// * * * * * * * * * * * * * * * * * * * * * * * * * * * * * * * * * * * * * //

dimensions      [0 0 -1 0 0 0 0];

internalField   nonuniform List<scalar> 
16000
(
1089.7048
2191.4712
1074.0648
644.51612
454.85477
316.3004
240.0273
181.18174
145.9758
118.16657
100.41689
85.938761
75.223742
66.264323
58.957269
52.799425
47.601519
43.168094
39.358697
36.061241
33.191407
30.678248
28.46335
26.500108
24.750974
23.186734
21.783191
20.52166
19.38631
18.362697
17.437755
16.601169
15.844725
15.161473
14.545479
13.991232
13.493546
13.047523
12.649068
12.294728
11.980624
11.702672
11.457898
11.243605
11.056727
10.894142
10.753422
10.632267
10.528469
10.439938
10.364803
10.301428
10.248287
10.204026
10.167468
10.137715
10.114184
10.096675
10.085569
10.081511
10.081928
10.081706
10.080892
10.079643
10.077839
10.075426
10.072341
10.068538
10.063984
10.058641
10.052378
10.044724
10.035307
10.0282
10.023115
10.019238
10.016174
10.016958
10.020001
10.037665
1131.3823
2182.6384
1062.3893
644.84307
454.9611
319.14332
241.06894
182.96798
146.79387
119.18685
100.9508
86.49578
75.578223
66.57209
59.179042
52.971369
47.726796
43.258752
39.422202
36.103213
33.216676
30.691339
28.467847
26.498888
24.745873
23.179217
21.774027
20.511261
19.37517
18.351553
17.427081
16.591083
15.835201
15.152372
14.536696
13.98273
13.485396
13.039739
12.641475
12.287269
11.973538
11.695979
11.451463
11.237409
11.050933
10.888759
10.74842
10.627632
10.524213
10.436067
10.36129
10.29826
10.245445
10.201498
10.165211
10.135645
10.11217
10.094472
10.082677
10.077402
10.077431
10.077189
10.07631
10.075007
10.073166
10.070726
10.067625
10.063816
10.059267
10.053935
10.04773
10.040313
10.031246
10.024485
10.019729
10.016188
10.013563
10.013147
10.018235
10.035973
1171.4582
2183.951
1050.9861
641.26775
451.58881
319.38222
239.96237
183.14985
146.34028
119.33837
100.79187
86.503028
75.471559
66.47103
59.045202
52.826259
47.571086
43.098085
39.260513
35.942759
33.05934
30.539094
28.322119
26.36087
24.615971
23.057754
21.660864
20.405987
19.277395
18.261247
17.344145
16.515158
15.765852
15.089073
14.478965
13.930134
13.437637
12.996566
12.602458
12.251956
11.941854
11.667733
11.426286
11.214954
11.031104
10.871357
10.733198
10.614361
10.512701
10.42615
10.352781
10.290996
10.239276
10.196296
10.160847
10.131968
10.109007
10.09162
10.079782
10.073829
10.073333
10.072992
10.071994
10.070584
10.06865
10.066129
10.06296
10.059096
10.054507
10.049145
10.042932
10.035654
10.026969
10.020639
10.01627
10.013149
10.010763
10.010013
10.016262
10.029763
1209.7477
2191.9803
1041.1908
637.79785
447.80303
319.4128
238.5568
183.16952
145.7456
119.38895
100.58162
86.448476
75.323972
66.322994
58.871321
52.642819
47.38029
42.904737
39.068583
35.754344
32.87605
30.362769
28.154003
26.20212
24.46687
22.918557
21.531389
20.285761
19.165877
18.1583
17.249651
16.428709
15.686981
15.017195
14.413544
13.870662
13.383737
12.947963
12.558729
12.212517
11.906567
11.636406
11.398536
11.190321
11.009455
10.852467
10.716782
10.600147
10.50045
10.415675
10.343861
10.283445
10.232917
10.190979
10.156434
10.128297
10.105891
10.088845
10.077068
10.070719
10.069603
10.069111
10.067961
10.06641
10.064351
10.061721
10.058453
10.054504
10.049846
10.044432
10.038179
10.030993
10.022655
10.016767
10.012809
10.010117
10.007946
10.007181
10.013678
10.025197
1246.0693
2210.1682
1032.7235
634.05859
443.26387
318.70121
236.47087
182.703
144.77401
119.16194
100.18408
86.217902
75.038003
66.043306
58.582972
52.355799
47.096799
42.627665
38.800954
35.497377
32.630431
30.12963
27.933923
25.995786
24.274166
22.739409
21.365357
20.132161
19.023861
18.027452
17.129706
16.31911
15.587142
14.926395
14.331121
13.79597
13.316238
12.887273
12.504402
12.163788
11.863145
11.598025
11.364782
11.160562
10.98345
10.829924
10.697338
10.58345
10.486171
10.40357
10.333648
10.274885
10.225783
10.18508
10.151601
10.124349
10.102624
10.086037
10.074461
10.06795
10.066247
10.065541
10.064202
10.062473
10.060255
10.057481
10.054085
10.050017
10.045258
10.039767
10.033442
10.026291
10.018373
10.012947
10.009414
10.007141
10.005215
10.0046
10.010965
10.019931
1280.2779
2235.8971
1028.6883
631.06092
439.23519
317.36527
233.90658
181.82961
143.52796
118.69555
99.643594
85.833454
74.633029
65.64915
58.194607
51.978374
46.732096
42.27708
38.46659
35.1798
32.329544
29.845996
27.667572
25.746888
24.042397
22.524427
21.166505
19.948602
18.854498
17.871611
16.986997
16.188842
15.46863
14.818795
14.233655
13.70787
13.236819
12.816018
12.440864
12.107083
11.812784
11.553646
11.325975
11.126534
10.953845
10.804388
10.675436
10.564764
10.470283
10.390188
10.322433
10.265556
10.218068
10.178751
10.146462
10.120205
10.099257
10.083211
10.071919
10.065361
10.063217
10.062244
10.060683
10.058743
10.056337
10.053392
10.049839
10.045627
10.040738
10.035147
10.028735
10.021548
10.014152
10.009207
10.006105
10.004244
10.002625
10.002203
10.008071
10.015354
1312.3308
2266.8024
1028.6746
628.22939
435.28066
315.39188
231.23757
180.5842
142.09884
117.99215
98.969027
85.293832
74.10523
65.138382
57.703007
51.50756
46.283104
41.850016
38.062404
34.798641
31.970572
29.50922
27.352589
25.452763
23.769095
22.271365
20.932793
19.733259
18.656189
17.689378
16.820317
16.036868
15.330573
14.693674
14.120563
13.605907
13.14515
12.733948
12.367918
12.042442
11.755583
11.50337
11.282236
11.08841
10.920809
10.776019
10.651228
10.544234
10.452913
10.37564
10.310313
10.255537
10.20984
10.172046
10.14106
10.115895
10.095811
10.080381
10.069447
10.062945
10.060477
10.059192
10.057378
10.055199
10.052576
10.049436
10.045704
10.041325
10.03628
10.030566
10.024067
10.016779
10.010049
10.005602
10.002929
10.001467
10.000219
10.000028
10.005195
10.010753
1342.3382
2300.3413
1030.2352
625.0886
431.4002
312.77219
228.58863
179.10592
140.58571
117.07425
98.177291
84.607571
73.455741
64.513063
57.10828
50.942802
45.748718
41.345268
37.586303
34.351717
31.5514
29.11725
26.987281
25.109815
23.450807
21.977001
20.661251
19.483436
18.426541
17.478631
16.627805
15.861572
15.171589
14.549862
13.990868
13.489281
13.040601
12.64058
12.285105
11.970159
11.691886
11.447521
11.233861
11.046597
10.884716
10.745145
10.625014
10.522128
10.434291
10.36012
10.297445
10.244956
10.201199
10.165042
10.135449
10.111454
10.092306
10.077554
10.06703
10.06066
10.057977
10.056345
10.054253
10.051809
10.048947
10.045591
10.041662
10.037099
10.031879
10.026014
10.019448
10.012098
10.006101
10.00217
9.9999181
9.9988396
9.9980154
9.9980887
10.002446
10.006907
1370.3959
2334.2992
1028.7126
621.17539
426.62166
309.45178
225.05774
177.23628
138.74366
115.97158
97.264189
83.773808
72.677563
63.768488
56.405404
50.278366
45.123236
40.757715
37.030224
33.830928
31.06427
28.662667
26.56511
24.718822
23.088875
21.643118
20.353943
19.201378
18.167938
17.241813
16.411904
15.665371
14.994054
14.389676
13.846809
13.360132
12.925207
12.537876
12.19409
11.889812
11.621441
11.385926
11.180668
11.001449
10.845912
10.712057
10.59712
10.498738
10.414676
10.343842
10.284005
10.233954
10.192256
10.157825
10.129689
10.106922
10.088765
10.074743
10.064668
10.058476
10.055667
10.053665
10.051271
10.048542
10.045421
10.041833
10.037694
10.032937
10.027528
10.021485
10.014862
10.007638
10.002349
9.9989503
9.9971084
9.996388
9.9960223
9.9964157
9.9999866
10.003311
1396.5989
2367.0352
1020.0627
616.17513
420.13046
305.68905
220.69291
174.89425
136.84461
114.6878
96.219366
82.787259
71.762616
62.896638
55.586308
49.501346
44.392716
40.073975
36.39251
33.237126
30.511702
28.149073
26.089521
24.278834
22.682637
21.269196
20.010516
18.886901
17.880392
16.979108
16.172868
15.44863
14.798445
14.213685
13.689029
13.219156
12.799685
12.426551
12.095865
11.803655
11.546238
11.320425
11.124139
10.952865
10.804384
10.676713
10.567838
10.474321
10.394343
10.327032
10.270186
10.222681
10.183131
10.150483
10.123844
10.102336
10.085207
10.071954
10.062357
10.056366
10.05349
10.051105
10.048394
10.045364
10.04197
10.038137
10.033779
10.028821
10.023221
10.016984
10.010273
10.003427
9.9988274
9.9959713
9.9945321
9.9941391
9.9942346
9.9950026
9.9979184
10.000278
1421.0639
2397.8404
1011.1562
610.10456
411.98998
301.52805
216.07117
172.35612
134.84869
113.22284
95.02991
81.64081
70.699186
61.876917
54.62839
48.606826
43.558476
39.298063
35.671183
32.568413
29.89178
27.574755
25.55932
23.789952
22.232442
20.855745
19.63169
18.540913
17.565008
16.691824
15.911783
15.212492
14.585968
14.023142
13.518799
13.067621
12.665284
12.307797
11.991442
11.712343
11.466903
11.251728
11.065123
10.902533
10.761585
10.640264
10.537118
10.448827
10.373525
10.309876
10.256178
10.211296
10.173946
10.143112
10.117978
10.097738
10.081651
10.069195
10.060098
10.054308
10.05139
10.048622
10.045581
10.042241
10.038562
10.034476
10.029894
10.024733
10.018947
10.012527
10.005662
9.9995013
9.995564
9.9932549
9.9922182
9.9921222
9.9926437
9.9938359
9.9963209
9.9976616
1443.9149
2427.7257
997.72818
602.49877
402.45033
296.95925
211.27723
169.56279
132.82778
111.58271
93.668623
80.304103
69.449475
60.702853
53.535197
47.591464
42.616721
38.426521
34.86472
31.823583
29.204182
26.939787
24.974729
23.252535
21.73906
20.403357
19.21827
18.164421
17.222971
16.381489
15.628897
14.957234
14.356965
13.818451
13.336572
12.905999
12.522488
12.182091
11.881305
11.616364
11.383802
11.1808
11.004372
10.850882
10.717916
10.603327
10.506141
10.423112
10.352165
10.292313
10.242113
10.199943
10.164823
10.135804
10.112158
10.093166
10.078111
10.066463
10.057891
10.052289
10.049312
10.046171
10.042796
10.03914
10.035169
10.030824
10.026018
10.020656
10.014686
10.008138
10.001157
9.9958853
9.9925802
9.9908117
9.9901865
9.9903682
9.9912396
9.9928609
9.9952671
9.9960027
1465.4614
2455.843
980.38538
593.98138
392.40131
291.9809
206.41352
166.5714
130.75608
109.74543
92.070326
78.760433
68.018541
59.368383
52.300182
46.451458
41.564726
37.457559
33.971868
31.002011
28.44867
26.244586
24.335998
22.667204
21.203706
19.911581
18.769942
17.757309
16.854277
16.048657
15.329333
14.687918
14.116332
13.604339
13.146858
12.738526
12.375233
12.05304
11.768699
11.518648
11.299332
11.107855
10.942116
10.798117
10.673493
10.566365
10.475133
10.397491
10.331133
10.274973
10.227886
10.188704
10.155862
10.12865
10.106449
10.088659
10.074604
10.063751
10.055731
10.050314
10.047205
10.043711
10.040003
10.03603
10.031766
10.027158
10.022127
10.016576
10.010424
10.003801
9.9971294
9.9926004
9.9898917
9.9886427
9.9884432
9.9889035
9.9900262
9.9920172
9.9944461
9.9948753
1485.9395
2478.4589
958.87825
584.90772
381.90755
286.6462
201.56607
163.38886
128.5623
107.61578
90.219184
76.998934
66.393545
57.865219
50.917193
45.181961
40.399151
36.388845
32.99157
30.102704
27.625067
25.489937
23.641685
22.032627
20.625891
19.386837
18.293738
17.326956
16.46649
15.700237
15.016895
14.408265
13.867185
13.383612
12.952189
12.567445
12.225503
11.922392
11.655098
11.420421
11.214892
11.035489
10.880484
10.746047
10.629707
10.529405
10.444145
10.371846
10.310486
10.25814
10.214048
10.17744
10.1471
10.12172
10.100912
10.084256
10.071146
10.061046
10.053595
10.048399
10.045027
10.041205
10.03717
10.032886
10.028331
10.023458
10.018201
10.012477
10.006179
9.9994374
9.9935314
9.9896786
9.9875119
9.9867432
9.9869767
9.987741
9.989019
9.9912776
9.9939121
9.994506
1505.6068
2490.8976
933.25328
575.18613
371.03676
280.9875
196.80952
159.936
126.12607
105.20103
88.087817
75.001801
64.561971
56.183201
49.378833
43.777886
39.117083
35.218032
31.923121
29.122511
26.730479
24.674207
22.900246
21.358677
20.015405
18.834912
17.795532
16.878632
16.064581
15.341125
14.696753
14.123194
13.61265
13.158857
12.754753
12.394564
12.074787
11.791395
11.541519
11.32245
11.130843
10.964407
10.820055
10.695085
10.58713
10.493849
10.414353
10.347018
10.290039
10.241902
10.200821
10.166587
10.13837
10.115025
10.095598
10.079991
10.067761
10.058344
10.051433
10.046546
10.042749
10.03862
10.034273
10.029687
10.024847
10.019714
10.014227
10.00833
10.001988
9.9953019
9.9903656
9.9871372
9.9854548
9.9851103
9.985759
9.9868688
9.9882728
9.9906062
9.9937782
9.994955
1524.6832
2482.7567
903.89063
564.86387
359.83565
275.01074
192.13744
156.08538
123.37006
102.45622
85.646462
72.746292
62.507765
54.311211
47.677699
42.233681
37.71577
33.939173
30.762087
28.070185
25.777358
23.810837
22.119709
20.653606
19.380181
18.264396
17.283763
16.418645
15.654089
14.976105
14.372826
13.836576
13.35981
12.93633
12.560142
12.224865
11.927481
11.663986
11.43144
11.227857
11.04962
10.894782
10.760986
10.645256
10.545536
10.459795
10.385997
10.323443
10.270449
10.225995
10.188261
10.156328
10.129989
10.108389
10.090513
10.075897
10.064471
10.055659
10.04918
10.04456
10.04036
10.035935
10.031294
10.026422
10.021305
10.01592
10.010212
10.004127
9.9977847
9.9917534
9.9876168
9.9849822
9.9837333
9.9837504
9.9847598
9.9862269
9.9878463
9.9902894
9.993767
9.9960093
1543.337
2433.8593
872.2506
553.97383
348.36122
268.62851
187.23953
151.80918
120.18074
99.333531
82.861418
70.207734
60.215055
52.239642
45.807204
40.539874
36.187747
32.563921
29.524791
26.956825
24.777192
22.911877
21.31276
19.929954
18.729954
17.683654
16.766483
15.959052
15.246119
14.615443
14.054491
13.556128
13.11314
12.719823
12.371211
12.060633
11.785337
11.541603
11.326144
11.137699
10.972622
10.828982
10.705182
10.598229
10.506036
10.426936
10.359235
10.301303
10.252026
10.210894
10.176097
10.146714
10.122088
10.102031
10.085504
10.071985
10.061291
10.053029
10.046864
10.042396
10.037847
10.033138
10.028222
10.023085
10.017705
10.012074
10.006168
9.9999419
9.9935459
9.9886787
9.9852792
9.9832024
9.9823518
9.9826764
9.9839704
9.9857478
9.9876345
9.9902447
9.9939545
9.9967438
1561.4335
2398.3143
840.34346
542.45953
336.6162
261.29911
182.18968
147.00418
116.44425
95.774974
79.697619
67.362053
57.668498
49.960231
43.754922
38.708116
34.554555
31.107694
28.227842
25.800972
23.747815
21.994833
20.492838
19.20044
18.08209
17.108911
16.257638
15.509309
14.848765
14.265573
13.747096
13.286506
12.87704
12.513088
12.189865
11.903239
11.649215
11.424684
11.226789
11.05281
10.90046
10.767452
10.652958
10.554305
10.469223
10.396169
10.333657
10.280322
10.234918
10.19679
10.16466
10.137521
10.114737
10.096021
10.080724
10.068226
10.058211
10.050477
10.044548
10.040054
10.035212
10.03023
10.025058
10.019678
10.014062
10.008191
10.002086
9.9958607
9.9900367
9.986019
9.9833205
9.9817703
9.981297
9.9818914
9.9833908
9.9853843
9.9875298
9.990323
9.9940865
9.997294
1578.5155
2356.3548
807.52014
529.98622
324.49763
252.78811
176.7943
141.5551
112.05198
91.719442
76.121545
64.18845
54.849431
47.458576
41.546224
36.760896
32.840217
29.596957
26.896598
24.626881
22.708243
21.077525
19.6834
18.485495
17.450981
16.552483
15.767693
15.078601
14.469867
13.93161
13.454529
13.030517
12.653434
12.318213
12.020533
11.756466
11.522473
11.315532
11.13308
10.972831
10.832712
10.710677
10.604787
10.513777
10.435306
10.367889
10.310164
10.260935
10.219125
10.18376
10.154044
10.128985
10.107936
10.090398
10.076152
10.064508
10.055203
10.047985
10.042313
10.037549
10.032467
10.027232
10.021817
10.016211
10.010388
10.004324
9.9980408
9.9917945
9.9870769
9.9837748
9.9816977
9.9806431
9.9805346
9.9813779
9.9830238
9.9851248
9.9874504
9.990466
9.9942492
9.9977914
1593.9185
2288.5783
773.04203
516.05521
311.23948
242.94635
170.73858
135.32228
106.90339
87.108059
72.107343
60.667705
51.775267
44.782605
39.217541
34.73704
31.082873
28.066764
25.558974
23.459641
21.689326
20.18648
18.903138
17.801396
16.850768
16.025968
15.305788
14.672617
14.114633
13.620934
13.183093
12.793762
12.447155
12.138625
11.864423
11.621251
11.405909
11.215462
11.047514
10.899818
10.770527
10.658027
10.560918
10.476828
10.404385
10.342123
10.288753
10.243158
10.204377
10.171859
10.144265
10.121026
10.101505
10.085215
10.071891
10.06098
10.052242
10.045459
10.040033
10.034934
10.02964
10.024176
10.018534
10.01271
10.006696
10.000485
9.9941914
9.9885713
9.9846084
9.9819286
9.9803719
9.9797688
9.980013
9.9810893
9.9828537
9.9849964
9.9874196
9.9906231
9.9944458
9.9981974
1606.55
2219.722
736.00517
500.0866
297.19616
231.5784
163.5516
128.13841
100.92161
81.910877
67.649227
56.840898
48.507993
41.991417
36.82856
32.689599
29.328884
26.554313
24.255667
22.333914
20.7152
19.34204
18.169439
17.162221
16.292651
15.538147
14.878234
14.299476
13.788858
13.336411
12.93498
12.577781
12.259472
11.975683
11.722971
11.498623
11.300168
11.124643
10.969952
10.833918
10.714681
10.611284
10.521335
10.443558
10.376513
10.318903
10.269504
10.227287
10.191391
10.161075
10.135399
10.113759
10.095598
10.080441
10.067946
10.057677
10.04939
10.0429
10.037632
10.03226
10.026769
10.021106
10.015264
10.009234
10.003038
9.9967346
9.9905651
9.9859589
9.9826417
9.9804758
9.9793244
9.9790959
9.9796792
9.9809596
9.9828289
9.9849912
9.9874673
9.9907946
9.9946758
9.9984851
1613.6123
2136.2365
696.17491
480.38102
282.10193
218.365
154.75806
119.86573
94.106399
76.175463
62.831381
52.816436
45.144743
39.171701
34.453578
30.680051
27.623982
25.106138
23.019921
21.27655
19.807683
18.560926
17.49523
16.578377
15.784979
15.094921
14.491955
13.962455
13.49538
13.080533
12.712023
12.383853
12.091199
11.830028
11.596978
11.389427
11.205999
11.043679
10.900691
10.775195
10.665384
10.569524
10.486184
10.414004
10.351723
10.298207
10.252355
10.213046
10.179808
10.151483
10.127471
10.107196
10.090193
10.076073
10.064313
10.054628
10.046744
10.040429
10.035179
10.029589
10.023909
10.01807
10.012061
10.005862
9.9994895
9.9931396
9.9877178
9.983823
9.9811147
9.9794115
9.9785779
9.9785861
9.9794924
9.9809334
9.9828905
9.9850857
9.9876072
9.9909656
9.9948549
9.9986064
1609.9408
2033.8196
653.03664
454.63782
265.77741
202.95514
144.11665
110.52886
86.609137
70.030415
57.840336
48.742497
41.805434
36.419221
32.170195
28.772563
26.021733
23.759358
21.881283
20.309678
18.98317
17.855126
16.889048
16.05619
15.33377
14.703714
14.151598
13.66561
13.235969
12.854749
12.515401
12.212827
11.94276
11.701689
11.486645
11.295078
11.124802
10.973999
10.84093
10.724041
10.621854
10.532854
10.455356
10.388179
10.330096
10.28008
10.237464
10.200886
10.169641
10.143078
10.120546
10.101447
10.085501
10.072115
10.060985
10.051805
10.04434
10.038187
10.032742
10.026998
10.021142
10.015132
10.008973
10.002667
9.9962557
9.9900159
9.9854273
9.9821017
9.9799051
9.9786482
9.9781659
9.9782717
9.9794152
9.9809815
9.9829922
9.9852342
9.9878324
9.9912028
9.9950504
9.9987268
1589.3833
1902.7799
606.80059
422.18135
248.2268
185.14069
131.84994
100.45452
78.780623
63.802357
52.898017
44.785117
38.61379
33.827445
30.050159
27.023409
24.56577
22.546145
20.863309
19.450508
18.254094
17.233407
16.3567
15.598848
14.939716
14.363109
13.85617
13.408976
13.01284
12.660787
12.346797
12.066364
11.815671
11.591596
11.391512
11.213166
11.054578
10.913967
10.789707
10.680302
10.584443
10.501303
10.428872
10.366076
10.311804
10.265045
10.224885
10.190493
10.161009
10.13587
10.11467
10.096656
10.081439
10.068668
10.058029
10.049282
10.042061
10.036039
10.030412
10.024554
10.018565
10.012408
10.006086
9.9996342
9.9932316
9.98768
9.9836429
9.980778
9.9789416
9.9779883
9.9778056
9.9783023
9.9794107
9.9810847
9.9831143
9.9853895
9.988059
9.9914355
9.995233
9.9988166
1543.1069
1742.9653
558.63193
383.8042
230.36694
165.19477
118.6448
90.268628
71.079092
57.816332
48.22954
41.104635
35.686772
31.481117
28.154684
25.479382
23.296026
21.491593
19.984063
18.712098
17.630019
16.702835
15.903317
15.209918
14.605278
14.075086
13.606838
13.192561
12.824533
12.497285
12.204809
11.943161
11.708916
11.499274
11.311869
11.14467
10.99589
10.863919
10.747278
10.644589
10.554561
10.475969
10.407634
10.348269
10.296897
10.252551
10.214416
10.181942
10.154065
10.130248
10.10995
10.092722
10.078142
10.065842
10.055622
10.04709
10.040021
10.034045
10.028259
10.022302
10.016224
10.009991
10.003598
9.9970926
9.9907628
9.9859312
9.98235
9.9798726
9.9783332
9.9776223
9.9775673
9.9782808
9.9794864
9.9812007
9.9832396
9.9855415
9.9882628
9.9916232
9.9953584
9.9988213
1462.9446
1580.9123
509.51897
344.27791
206.37984
145.87303
105.44369
80.660786
63.961629
52.386504
44.050658
37.856333
33.135079
29.456131
26.532182
24.167773
22.226815
20.612647
19.255413
18.103886
17.118833
16.270392
15.535173
14.894626
14.33381
13.840546
13.404806
13.018282
12.674232
12.367044
12.092067
11.845641
11.624694
11.42669
11.249478
11.091205
10.950224
10.825038
10.714254
10.61656
10.53073
10.455683
10.390708
10.334197
10.285289
10.243068
10.206725
10.17552
10.14879
10.125887
10.10633
10.089688
10.075674
10.063792
10.053787
10.045406
10.038394
10.032387
10.026436
10.020354
10.014165
10.007853
10.001425
9.9949727
9.9889636
9.9846311
9.9814368
9.9792797
9.9779952
9.9774674
9.9773728
9.9783588
9.9795885
9.9813175
9.9833491
9.9856657
9.9884026
9.9917098
9.9953724
9.9987683
1350.7076
1493.1994
463.34493
296.85719
182.51476
127.72512
93.508036
72.152685
57.802258
47.806358
40.579398
35.191572
31.062391
27.822761
25.22946
23.117728
21.372847
19.91279
18.676702
17.622227
16.715569
15.930979
15.248131
14.650778
14.125743
13.662258
13.25141
12.885865
12.55967
12.268341
12.006948
11.772295
11.561566
11.372452
11.20299
11.051482
10.916421
10.796432
10.690234
10.596613
10.514395
10.442434
10.379607
10.32498
10.277607
10.236643
10.201316
10.170962
10.145114
10.122934
10.103986
10.087827
10.074085
10.062439
10.052602
10.044321
10.037341
10.031291
10.025203
10.018988
10.012655
10.006204
9.9996736
9.9932493
9.987745
9.9837174
9.9808057
9.9788767
9.9777821
9.9774121
9.9774175
9.9784824
9.979738
9.9814622
9.9834849
9.9858059
9.9885143
9.991696
9.995203
9.9985821
1217.9268
1251.8517
423.13054
254.55281
160.31811
112.58864
83.630536
65.281409
52.933659
44.275979
37.969078
33.224146
29.553964
26.648372
24.302491
22.37693
20.774169
19.424318
18.276159
17.291351
16.440762
15.701719
15.056268
14.489913
13.99075
13.548879
13.156253
12.806112
12.492882
12.211957
11.959563
11.732557
11.52835
11.344776
11.179997
11.032417
10.900616
10.783297
10.679252
10.587349
10.506569
10.436181
10.374627
10.321071
10.274594
10.234377
10.199662
10.169766
10.144079
10.122063
10.103232
10.087164
10.07349
10.061889
10.052082
10.043818
10.036846
10.03079
10.024679
10.018421
10.012028
10.005495
9.9988695
9.9923983
9.9871371
9.9832708
9.9805056
9.9786984
9.9777051
9.9773894
9.9775207
9.9786334
9.9799022
9.9816283
9.9836603
9.9860019
9.9886923
9.9917617
9.9951086
9.9984527
1098.535
1113.6392
390.41972
223.81286
143.71139
101.45197
76.313549
60.275761
49.452615
41.798127
36.165203
31.88649
28.54611
25.878953
23.708668
21.914463
20.411238
19.13761
18.04834
17.109428
16.294824
15.584181
14.961322
14.413254
13.929831
13.500714
13.118636
12.777213
12.471199
12.196232
11.948713
11.725677
11.524669
11.343642
11.180859
11.034812
10.904159
10.787672
10.684198
10.592641
10.511944
10.441096
10.379134
10.325125
10.278198
10.237543
10.202414
10.172131
10.146085
10.12373
10.104584
10.088223
10.074276
10.06242
10.052374
10.043888
10.036718
10.030528
10.024509
10.018312
10.012004
10.005564
9.9990359
9.9926294
9.9872706
9.9833653
9.9805715
9.9787575
9.9777835
9.9774888
9.9778302
9.9786877
9.9800127
9.9817248
9.9837739
9.9861379
9.9888182
9.9918042
9.9950338
9.998367
1043.6837
1072.6764
366.13202
206.71203
132.82855
93.889378
70.858749
56.295862
46.485881
39.538079
34.409307
30.495564
27.426896
24.966439
22.95657
21.288935
19.886965
18.695259
17.672896
16.789079
16.020197
15.3478
14.757178
14.236365
13.775453
13.366146
13.001418
12.675351
12.38297
12.120125
11.883375
11.669876
11.477279
11.303629
11.147274
11.006795
10.88093
10.768533
10.668532
10.579906
10.501669
10.432871
10.372598
10.319976
10.274181
10.234441
10.200046
10.170349
10.144763
10.122765
10.10389
10.087729
10.073923
10.062158
10.052161
10.043688
10.036499
10.030265
10.024181
10.017927
10.011563
10.005074
9.998512
9.9921256
9.9869971
9.9831971
9.9804771
9.9786991
9.9777439
9.9774559
9.9778402
9.9787095
9.9800062
9.9817216
9.9837776
9.9861583
9.9888361
9.9917862
9.9949688
9.9983152
31449.132
79156.164
37035.653
10720.709
1411.3374
612.6177
435.1029
351.42219
291.17267
236.85617
192.93932
159.59202
134.94317
116.66228
102.59839
91.095655
81.355149
73.044038
65.928093
59.791261
54.454592
49.782046
45.668521
42.028473
38.796422
35.907715
33.316837
30.983674
28.87626
26.969371
25.2415
23.673478
22.248567
20.952026
19.772274
18.69958
17.725181
16.841317
16.040903
15.317489
14.665452
14.07922
13.553716
13.084365
12.666668
12.296383
11.969678
11.682514
11.4312
11.212378
11.022772
10.859263
10.718873
10.599078
10.497361
10.411474
10.340945
10.28572
10.245917
10.224523
10.21745
10.21522
10.212753
10.209419
10.205567
10.201215
10.196168
10.188869
10.178499
10.165996
10.14902
10.131687
10.100606
10.084027
10.062095
10.062782
10.036308
10.053964
9.9973228
10.024306
19973.354
59534.697
24640.57
5093.7686
974.47895
529.94264
398.69053
322.21643
264.69659
213.24958
174.83314
145.95385
124.85237
109.04216
96.559161
86.078781
77.140956
69.507568
62.949279
57.264106
52.296928
47.931365
44.075074
40.651876
37.599736
34.865437
32.407436
30.188209
28.179553
26.358786
24.706064
23.203624
21.836048
20.589771
19.454435
18.421036
17.481398
16.628313
15.855136
15.155835
14.525155
13.957758
13.448878
12.99418
12.589341
12.230323
11.913466
11.634839
11.390924
11.178496
10.99438
10.83556
10.699168
10.582784
10.483977
10.400517
10.331502
10.277604
10.239038
10.218903
10.212432
10.210363
10.207922
10.204652
10.200883
10.19661
10.191718
10.185125
10.175427
10.163425
10.147034
10.129988
10.099865
10.083678
10.062084
10.062813
10.036831
10.054868
9.9981831
10.02526
28222.39
35488.594
13538.564
2553.2229
838.07672
499.95494
388.63807
306.9068
251.22532
201.63392
167.03183
139.84945
120.27107
105.35644
93.449658
83.378061
74.818434
67.510065
61.219089
55.75626
50.977959
46.774691
43.05831
39.755943
36.806639
34.163033
31.784871
29.635579
27.689019
25.923442
24.319705
22.86073
21.531791
20.319916
19.215449
18.209701
17.294823
16.463923
15.710597
15.029059
14.414273
13.861026
13.364758
12.921276
12.526364
12.176121
11.866999
11.595129
11.357125
11.149844
10.970183
10.815204
10.682129
10.568632
10.472203
10.390784
10.32309
10.270216
10.232602
10.213428
10.207408
10.205484
10.20309
10.199898
10.19622
10.192031
10.187195
10.18123
10.172246
10.160778
10.145003
10.128261
10.099116
10.083252
10.061995
10.062742
10.037228
10.055635
9.9990415
10.026207
35742.364
24016.529
8361.0496
1548.555
755.90599
476.65365
376.2167
290.93898
239.96314
190.93079
159.97418
133.92563
115.9194
101.81202
90.478222
80.811422
72.618217
65.613018
59.572345
54.318846
49.718153
45.667125
42.081862
38.892808
36.042308
33.482395
31.179089
29.095934
27.208395
25.495427
23.93857
22.521369
21.229721
20.051201
18.976812
17.998102
17.107538
16.298512
15.564828
14.900934
14.30199
13.762886
13.279268
12.847066
12.462162
12.120788
11.819501
11.554489
11.322495
11.120459
10.945343
10.794292
10.664684
10.554052
10.460075
10.380752
10.314571
10.262742
10.226114
10.207887
10.202356
10.20058
10.198237
10.195129
10.191545
10.187444
10.182695
10.177102
10.168864
10.157959
10.142823
10.126397
10.098226
10.08268
10.061815
10.062573
10.03751
10.056276
9.9999008
10.027137
40264.298
20447.042
5885.4664
1229.9368
721.41778
459.12839
366.50275
278.46358
231.76033
182.75702
154.97231
129.32168
112.63364
98.997131
88.088
78.721513
70.814286
64.041499
58.194964
53.105668
48.645872
44.716826
41.237565
38.14093
35.371226
32.883108
30.640619
28.613242
26.775942
25.108091
23.591743
22.210907
20.951969
19.802926
18.755323
17.800832
16.932192
16.143011
15.427254
14.779557
14.195233
13.669247
13.197426
12.77579
12.400302
12.067312
11.773459
11.514977
11.288735
11.091732
10.920999
10.773761
10.64748
10.539646
10.448062
10.370787
10.306216
10.255372
10.219693
10.202258
10.197295
10.195657
10.193372
10.190356
10.186869
10.182859
10.178195
10.172782
10.165308
10.154994
10.140519
10.124428
10.097217
10.081979
10.061526
10.062293
10.037681
10.056788
10.000757
10.028037
43059.817
19076.255
4529.0471
1157.979
700.92618
440.74681
358.97763
268.6318
225.48431
176.22659
151.04568
125.42405
109.91774
96.569834
86.027875
76.907766
69.24084
62.660696
56.977481
52.027411
47.687874
43.863491
40.475637
37.459094
34.759906
32.334094
30.145749
28.16771
26.374993
24.747441
23.267468
21.919459
20.690211
19.568066
18.545049
17.61288
16.764557
15.993855
15.294869
14.662397
14.091878
13.578327
13.117743
12.706208
12.339756
12.014842
11.728173
11.476024
11.255378
11.063292
10.896867
10.753438
10.630342
10.525263
10.436047
10.360803
10.297948
10.248059
10.21331
10.196716
10.192237
10.190719
10.188501
10.185581
10.182195
10.178278
10.173704
10.168352
10.161569
10.151875
10.13808
10.122345
10.096069
10.081147
10.061103
10.061916
10.037743
10.057177
10.00161
10.02891
45281.018
17171.779
3637.4307
1107.1183
685.58548
428.09113
353.04043
260.73333
220.62122
171.02419
147.91947
122.1436
107.66502
94.475235
84.251258
75.331195
67.865336
61.445198
55.899425
51.067319
46.830389
43.095831
39.786867
36.839828
34.202136
31.831076
29.69206
27.756468
26.003188
24.411632
22.964342
21.645979
20.443682
19.346083
18.345623
17.434014
16.604503
15.850987
15.167669
14.54949
13.991983
13.490202
13.040302
12.638404
12.280607
11.963458
11.683717
11.437697
11.222493
11.035219
10.873081
10.73325
10.613298
10.510935
10.424056
10.350821
10.289724
10.240813
10.206976
10.191233
10.187178
10.185774
10.183628
10.18081
10.177527
10.173706
10.169223
10.163966
10.157648
10.148606
10.135509
10.120151
10.094778
10.08019
10.06055
10.061491
10.037666
10.057441
10.002459
10.02979
46922.436
14531.626
3065.8922
1075.658
673.89941