/*--------------------------------*- C++ -*----------------------------------*\
  =========                 |
  \\      /  F ield         | OpenFOAM: The Open Source CFD Toolbox
   \\    /   O peration     | Website:  https://openfoam.org
    \\  /    A nd           | Version:  12
     \\/     M anipulation  |
\*---------------------------------------------------------------------------*/
FoamFile
{
    format      ascii;
    class       volScalarField;
    location    "0.138";
    object      p;
}
// * * * * * * * * * * * * * * * * * * * * * * * * * * * * * * * * * * * * * //

dimensions      [1 -1 -2 0 0 0 0];

internalField   nonuniform List<scalar> 
16000
(
89692.309
89818.508
89830.365
89965.038
89991.117
90118.743
90169.157
90286.085
90359.906
90471.12
90563.242
90674.329
90780.542
90895.921
91013.182
91135.894
91262.669
91394.11
91530.095
91670.71
91815.965
91965.865
92120.391
92279.501
92443.127
92611.175
92783.519
92960.001
93140.434
93324.594
93512.224
93703.03
93896.688
94092.837
94291.086
94491.015
94692.178
94894.107
95096.313
95298.297
95499.552
95699.566
95897.833
96093.855
96287.149
96477.253
96663.731
96846.175
97024.212
97197.506
97365.76
97528.717
97686.16
97837.913
97983.839
98123.841
98257.858
98385.863
98507.861
98623.89
98734.012
98838.313
98936.9
99029.9
99117.454
99199.714
99276.839
99348.998
99416.363
99479.11
99537.42
99591.476
99641.466
99687.639
99730.286
99769.845
99806.961
99833.452
99896.071
99851.417
89320.803
89463.946
89473.206
89620.044
89647.787
89786.388
89839.213
89967.475
90045.128
90166.495
90265.01
90385.049
90499.574
90623.811
90750.321
90882.503
91019.157
91160.767
91307.256
91458.677
91615.025
91776.282
91942.398
92113.299
92288.877
92468.994
92653.478
92842.121
93034.68
93230.873
93430.382
93632.853
93837.896
94045.086
94253.968
94464.059
94674.855
94885.832
95096.452
95306.173
95514.452
95720.753
95924.553
96125.347
96322.659
96516.04
96705.078
96889.4
97068.675
97242.615
97410.977
97573.562
97730.214
97880.82
98025.304
98163.629
98295.791
98421.817
98541.761
98655.706
98763.751
98866.014
98962.63
99053.746
99139.518
99220.107
99295.678
99366.398
99432.433
99493.952
99551.132
99604.142
99653.165
99698.464
99740.358
99779.045
99813.905
99847.139
99889.76
99870.067
88981.092
89139.733
89148.873
89308.999
89336.711
89489.062
89543.49
89684.065
89766.539
89898.398
90004.662
90134.268
90258.354
90392.448
90529.397
90672.247
90820.004
90973.03
91131.26
91294.707
91463.339
91637.098
91815.898
91999.619
92188.108
92381.176
92578.594
92780.097
92985.376
93194.083
93405.83
93620.189
93836.696
94054.854
94274.136
94493.991
94713.849
94933.132
95151.252
95367.629
95581.692
95792.888
96000.688
96204.598
96404.16
96598.958
96788.623
96972.833
97151.318
97323.856
97490.275
97650.449
97804.299
97951.783
98092.899
98227.679
98356.184
98478.501
98594.736
98705.017
98809.487
98908.296
99001.606
99089.581
99172.392
99250.208
99323.196
99391.52
99455.34
99514.82
99570.127
99621.415
99668.863
99712.766
99753.351
99790.457
99824.401
99858.783
99889.905
99888.375
88676.208
88845.659
88855.833
89031.327
89058.501
89227.095
89283.733
89438.624
89526.899
89670.819
89786.341
89926.897
90062.191
90207.625
90356.553
90511.56
90671.863
90837.699
91009.008
91185.764
91367.905
91555.336
91747.929
91945.517
92147.895
92354.812
92565.975
92781.043
92999.631
93221.308
93445.601
93671.995
93899.938
94128.849
94358.122
94587.13
94815.24
95041.815
95266.226
95487.862
95706.134
95920.49
96130.414
96335.44
96535.15
96729.184
96917.237
97099.062
97274.468
97443.319
97605.532
97761.071
97909.943
98052.194
98187.902
98317.175
98440.143
98556.956
98667.776
98772.779
98872.147
98966.063
99054.711
99138.277
99216.939
99290.872
99360.242
99425.21
99485.928
99542.552
99595.234
99644.108
99689.364
99731.298
99769.943
99805.07
99838.107
99870.854
99894.869
99905.834
88409.739
88594.144
88601.01
88795.302
88821.419
89008.5
89067.35
89238.445
89333.842
89491.268
89617.864
89770.6
89918.656
90076.705
90238.878
90407.262
90581.284
90761.092
90946.629
91137.839
91334.623
91536.846
91744.323
91956.826
92174.075
92395.74
92621.437
92850.732
93083.139
93318.123
93555.107
93793.472
94032.567
94271.716
94510.226
94747.397
94982.533
95214.95
95443.988
95669.023
95889.472
96104.802
96314.539
96518.271
96715.651
96906.397
97090.296
97267.2
97437.021
97599.727
97755.341
97903.928
98045.594
98180.479
98308.748
98430.586
98546.194
98655.785
98759.573
98857.778
98950.618
99038.306
99121.046
99199.034
99272.458
99341.492
99406.3
99467.034
99523.837
99576.856
99626.222
99672.054
99714.554
99753.976
99790.13
99822.988
99854.713
99884.431
99903.253
99924.132
88186.614
88388.664
88393.44
88608.808
88633.81
88841.381
88902.522
89091.526
89195.282
89367.018
89505.979
89671.445
89833.211
90004.727
90181.107
90363.948
90552.858
90747.901
90948.994
91156.028
91368.844
91587.229
91810.916
92039.583
92272.846
92510.264
92751.336
92995.507
93242.164
93490.648
93740.258
93990.259
94239.889
94488.374
94734.936
94978.81
95219.248
95455.54
95687.02
95913.075
96133.16
96346.796
96553.584
96753.198
96945.395
97130.005
97306.935
97476.158
97637.711
97791.685
97938.22
98077.494
98209.719
98335.129
98453.976
98566.522
98673.035
98773.784
98869.03
98959.032
99044.036
99124.278
99199.973
99271.327
99338.528
99401.746
99461.138
99516.844
99569
99617.735
99663.158
99705.375
99744.601
99780.993
99814.165
99844.487
99874.39
99900.112
99914.666
99944.107
88007.488
88230.457
88232.44
88472.491
88496.48
88728.291
88792.644
89001.137
89113.283
89298.672
89450.91
89629.707
89806.509
89992.994
90185.263
90384.407
90590.119
90802.355
91020.964
91245.749
91476.453
91712.759
91954.284
92200.578
92451.124
92705.341
92962.581
93222.139
93483.255
93745.127
94006.916
94267.761
94526.791
94783.14
95035.96
95284.437
95527.803
95765.352
95996.445
96220.528
96437.129
96645.871
96846.465
97038.719
97222.525
97397.86
97564.776
97723.394
97873.891
98016.494
98151.469
98279.109
98399.73
98513.658
98621.228
98722.769
98818.608
98909.06
98994.423
99074.985
99151.012
99222.75
99290.423
99354.234
99414.366
99470.983
99524.228
99574.229
99621.107
99664.974
99705.91
99744.02
99779.517
99812.409
99842.19
99869.756
99897.334
99918.282
99929.192
99966.513
87866.425
88113.965
88111.631
88381.443
88402.307
88660.991
88728.483
88956.089
89079.853
89281.287
89450.452
89645.397
89840.258
90044.633
90255.591
90473.797
90698.975
90930.981
91169.569
91414.435
91665.197
91921.403
92182.521
92447.94
92716.979
92988.88
93262.821
93537.923
93813.26
94087.869
94360.773
94630.987
94897.545
95159.508
95415.988
95666.161
95909.281
96144.694
96371.845
96590.283
96799.671
96999.778
97190.481
97371.756
97543.673
97706.384
97860.11
98005.135
98141.788
98270.435
98391.465
98505.285
98612.305
98712.934
98807.574
98896.61
98980.412
99059.329
99133.685
99203.78
99269.89
99332.262
99391.117
99446.651
99499.035
99548.417
99594.926
99638.673
99679.765
99718.286
99754.292
99787.893
99819.275
99848.256
99874.329
99898.978
99923.742
99939.308
99947.254
99991.925
87761.371
88037.308
88030.556
88337.31
88352.242
88639.666
88712.469
88962.042
89102.625
89322.653
89512.449
89726.495
89942.506
90167.901
90400.577
90640.849
90888.411
91142.991
91404.215
91671.628
91944.686
92222.755
92505.114
92790.952
93079.377
93369.424
93660.067
93950.229
94238.804
94524.674
94806.726
95083.877
95355.094
95619.41
95875.948
96123.932
96362.7
96591.719
96810.581
97019.013
97216.869
97404.123
97580.863
97747.279
97903.645
98050.31
98187.68
98316.205
98436.364
98548.655
98653.582
98751.645
98843.336
98929.125
99009.465
99084.779
99155.462
99221.878
99284.361
99343.213
99398.704
99451.073
99500.527
99547.247
99591.385
99633.071
99672.413
99709.507
99744.437
99777.256
99808.004
99836.796
99863.752
99888.491
99910.648
99932.277
99953.713
99963.449
99969.305
100020.96
87694.966
88004.08
87994.222
88338.002
88352.105
88671.778
88755.989
89030.9
89191.496
89432.13
89646.218
89882.587
90123.038
90372.877
90630.598
90896.206
91169.29
91449.41
91736.011
92028.438
92325.928
92627.613
92932.525
93239.602
93547.703
93855.617
94162.089
94465.84
94765.586
95060.068
95348.077
95628.475
95900.22
96162.39
96414.195
96654.992
96884.293
97101.769
97307.246
97500.697
97682.234
97852.09
98010.605
98158.207
98295.395
98422.719
98540.765
98650.141
98751.46
98845.331
98932.348
99013.084
99088.083
99157.858
99222.884
99283.601
99340.409
99393.672
99443.714
99490.824
99535.256
99577.229
99616.927
99654.508
99690.101
99723.814
99755.731
99785.929
99814.463
99841.359
99866.643
99890.434
99912.737
99933
99951.166
99969.705
99987.251
99990.859
99995.663
100054.13
87673.884
88022.436
88008.611
88392.959
88410.976
88767.175
88866.448
89168.618
89354.942
89619.057
89861.694
90124.358
90393.018
90671.144
90957.589
91252.075
91554.015
91862.741
92177.45
92497.213
92820.974
93147.562
93475.699
93804.018
94131.088
94455.435
94775.57
95090.021
95397.362
95696.247
95985.433
96263.814
96530.443
96784.543
97025.529
97253.003
97466.76
97666.773
97853.185
98026.288
98186.503
98334.357
98470.464
98595.496
98710.169
98815.22
98911.392
98999.422
99080.026
99153.891
99221.669
99283.972
99341.37
99394.384
99443.491
99489.124
99531.666
99571.461
99608.81
99643.974
99677.18
99708.617
99738.44
99766.777
99793.731
99819.381
99843.79
99867.009
99889.065
99909.952
99929.7
99948.408
99965.923
99981.599
99995.838
100011.23
100024.31
100021.81
100026.79
100091.38
87706.922
88102.384
88084.641
88517.083
88540.056
88935.99
89054.838
89386.117
89603.956
89894.896
90170.481
90463.96
90765.064
91075.759
91395.011
91722.226
92056.541
92396.964
92742.341
93091.369
93442.612
93794.516
94145.436
94493.664
94837.462
95175.096
95504.875
95825.191
96134.555
96431.634
96715.281
96984.56
97238.762
97477.414
97700.273
97907.322
98098.746
98274.917
98436.362
98583.734
98717.789
98839.352
98949.297
99048.519
99137.915
99218.373
99290.748
99355.863
99414.492
99467.36
99515.139
99558.443
99597.833
99633.813
99666.835
99697.299
99725.557
99751.915
99776.637
99799.945
99822.03
99843.041
99863.102
99882.306
99900.725
99918.409
99935.4
99951.719
99967.358
99982.294
99996.562
100010.21
100022.91
100034.03
100044.54
100056.73
100064.84
100056.69
100063.13
100132.43
87795.14
88246.392
88225.313
88712.55
88743.969
89183.481
89329.507
89692.505
89949.009
90271.573
90585.267
90915.041
91253.655
91601.874
91958.535
92322.626
92692.866
93067.803
93445.811
93825.11
94203.798
94579.882
94951.317
95316.045
95672.046
96017.386
96350.263
96669.062
96972.389
97259.109
97528.365
97779.596
98012.524
98227.15
98423.729
98602.739
98764.846
98910.871
99041.75
99158.5
99262.189
99353.904
99434.729
99505.726
99567.921
99622.285
99669.735
99711.121
99747.23
99778.776
99806.41
99830.715
99852.211
99871.358
99888.561
99904.171
99918.488
99931.77
99944.231
99956.051
99967.371
99978.304
99988.932
99999.314
100009.49
100019.48
100029.3
100038.95
100048.38
100057.55
100066.52
100075.24
100083.19
100089.96
100097.06
100105.96
100108.74
100095.99
100105.09
100177.09
87943.677
88461.158
88437.373
88986.85
89033.076
89520.117
89702.641
90100.733
90403.725
90764.277
91122.179
91494.755
91876.839
92268.133
92667.065
93072.037
93481.185
93892.46
94303.649
94712.412
95116.321
95512.918
95899.767
96274.521
96634.983
96979.178
97305.401
97612.272
97898.76
98164.199
98408.286
98631.062
98832.885
99014.381
99176.409
99320.007
99446.343
99556.679
99652.321
99734.594
99804.806
99864.229
99914.08
99955.509
99989.59
100017.31
100039.59
100057.25
100071.03
100081.61
100089.56
100095.41
100099.62
100102.59
100104.64
100106.06
100107.11
100107.97
100108.8
100109.75
100110.88
100112.29
100114.01
100116.05
100118.44
100121.17
100124.22
100127.55
100131.1
100134.84
100138.8
100142.8
100146.22
100148.97
100153.03
100158.56
100155.78
100139.96
100153.1
100225.14
88159.162
88755.85
88731.258
89351.442
89419.733
89958.377
90188.702
90627.112
90985.63
91392.7
91802.328
92225.25
92657.35
93097.277
93542.796
93991.564
94440.987
94888.299
95330.604
95764.934
96188.323
96597.893
96990.939
97365.022
97718.047
98048.324
98354.612
98636.137
98892.584
99124.072
99331.11
99514.542
99675.483
99815.26
99935.347
100037.31
100122.76
100193.32
100250.55
100295.97
100331.04
100357.11
100375.41
100387.11
100393.25
100394.77
100392.51
100387.22
100379.57
100370.14
100359.42
100347.86
100335.82
100323.62
100311.52
100299.74
100288.45
100277.79
100267.86
100258.73
100250.45
100243.05
100236.53
100230.88
100226.07
100222.09
100218.88
100216.37
100214.49
100213.21
100212.54
100212.13
100211.34
100210.54
100211.98
100214.06
100205.64
100187.97
100206.89
100276.53
88447.909
89139.225
89116.698
89817.207
89918.931
90515.076
90807.928
91295.242
91719.85
92183.77
92653.459
93134.301
93622.385
94115.277
94609.876
95102.917
95590.908
96070.232
96537.234
96988.338
97420.172
97829.692
98214.298
98571.915
98901.053
99200.826
99470.937
99711.643
99923.683
100108.21
100266.68
100400.83
100512.51
100603.69
100676.36
100732.47
100773.94
100802.58
100820.09
100828.05
100827.91
100821
100808.49
100791.45
100770.84
100747.47
100722.09
100695.33
100667.73
100639.77
100611.84
100584.28
100557.36
100531.32
100506.34
100482.55
100460.06
100438.95
100419.27
100401.02
100384.23
100368.86
100354.9
100342.29
100330.99
100320.94
100312.07
100304.29
100297.52
100291.73
100286.86
100282.44
100277.88
100274.1
100273.22
100271.81
100258.11
100239.76
100265.25
100330.73
88817.46
89621.83
89606.966
90402.941
90555.163
91218.877
91591.414
92138.506
92639.842
93171.025
93708.494
94253.519
94801.688
95349.282
95892.017
96425.43
96944.946
97446.053
97924.481
98376.385
98798.502
99188.272
99543.911
99864.431
100149.61
100399.94
100616.49
100800.87
100955.02
101081.18
101181.73
101259.14
101315.86
101354.3
101376.74
101385.35
101382.12
101368.89
101347.32
101318.93
101285.05
101246.87
101205.43
101161.65
101116.32
101070.12
101023.65
100977.39
100931.77
100887.13
100843.76
100801.89
100761.71
100723.34
100686.9
100652.46
100620.04
100589.67
100561.34
100535.03
100510.7
100488.3
100467.75
100448.99
100431.96
100416.56
100402.7
100390.27
100379.2
100369.46
100360.89
100352.89
100345.13
100338.94
100336.03
100331.24
100313.1
100294.68
100326.53
100388.08
89287.636
90231.36
90235.55
91146.712
91367.063
92108.639
92578.233
93196.33
93783.965
94392.011
95003.7
95616.863
96225.731
96824.808
97408.231
97970.202
98505.22
99008.35
99475.455
99903.358
100289.94
100634.13
100935.89
101196.08
101416.3
101598.76
101746.09
101861.22
101947.21
102007.17
102044.13
102061.02
102060.6
102045.41
102017.8
101979.9
101933.59
101880.58
101822.36
101760.23
101695.34
101628.68
101561.08
101493.28
101425.88
101359.41
101294.28
101230.85
101169.41
101110.17
101053.31
100998.97
100947.24
100898.16
100851.77
100808.07
100767.05
100728.66
100692.85
100659.56
100628.71
100600.21
100573.97
100549.91
100527.93
100507.92
100489.77
100473.35
100458.62
100445.5
100433.72
100422.68
100412.33
100404.33
100399.59
100391.6
100370.37
100353.07
100390.06
100447.63
89890.916
91011.67
91045.182
92090.14
92397.431
93224.862
93810.336
94513.034
95196.525
95889.917
96579.362
97259.163
97921.36
98558.41
99163.07
99728.908
100250.61
100724.22
101147.23
101518.58
101838.56
102108.62
102331.15
102509.24
102646.46
102746.67
102813.8
102851.77
102864.35
102855.1
102827.32
102784
102727.88
102661.38
102586.64
102505.56
102419.77
102330.69
102239.55
102147.4
102055.12
101963.46
101873.04
101784.39
101697.92
101613.98
101532.84
101454.71
101379.75
101308.06
101239.72
101174.78
101113.22
101055.05
101000.22
100948.68
100900.36
100855.17
100813.02
100773.82
100737.45
100703.8
100672.77
100644.23
100618.08
100594.19
100572.44
100552.7
100534.93
100519.02
100504.56
100491.02
100478.74
100469.47
100463.06
100452.01
100428.9
100414.78
100456.06
100508.08
90656.42
91990.434
92067.902
93266.372
93694.393
94619.653
95342.591
96146.5
96933.285
97714.2
98474.848
99205.964
99897.651
100541.41
101130.32
101659.41
102125.78
102528.52
102868.51
103148.13
103370.95
103541.32
103664.1
103744.39
103787.29
103797.73
103780.38
103739.54
103679.14
103602.72
103513.39
103413.9
103306.65
103193.71
103076.86
102957.61
102837.25
102716.88
102597.38
102479.53
102363.93
102251.09
102141.42
102035.24
101932.78
101834.23
101739.73
101649.35
101563.13
101481.1
101403.22
101329.47
101259.77
101194.05
101132.21
101074.16
101019.78
100968.96
100921.56
100877.45
100836.52
100798.61
100763.61
100731.39
100701.82
100674.76
100650.07
100627.65
100607.44
100589.26
100572.65
100557.21
100543.64
100533.55
100525.6
100511.88
100488.16
100478.68
100523.34
100567.76
91614.124
93214.619
93372.733
94741.931
95336.488
96375.6
97253.044
98168.596
99053.01
99904.34
100706.66
101448.94
102121.97
102719.48
103238.18
103677.54
104039.51
104327.93
104548.09
104706.18
104808.86
104862.87
104874.82
104850.92
104796.94
104718.08
104618.97
104503.72
104375.87
104238.5
104094.24
103945.32
103793.64
103640.78
103488.07
103336.59
103187.25
103040.79
102897.79
102758.72
102623.95
102493.76
102368.35
102247.86
102132.38
102021.95
101916.58
101816.25
101720.9
101630.46
101544.84
101463.93
101387.62
101315.77
101248.24
101184.9
101125.61
101070.2
101018.53
100970.46
100925.82
100884.47
100846.28
100811.09
100778.77
100749.17
100722.16
100697.65
100675.55
100655.6
100637.33
100620.58
100606.3
100595.68
100586.34
100570.67
100547.76
100543.34
100589.26
100624.72
92847.448
94784.677
95068.345
96628.912
97437.545
98599.196
99626.221
100638.11
101583.23
102452.94
103233.46
103917.05
104500.04
104982.81
105369.01
105664.84
105878.17
106017.82
106092.94
106112.53
106085.12
106018.55
105919.9
105795.4
105650.5
105489.87
105317.53
105136.83
104950.63
104761.27
104570.72
104380.6
104192.21
104006.63
103824.71
103647.15
103474.46
103307.06
103145.26
102989.28
102839.25
102695.26
102557.36
102425.52
102299.72
102179.88
102065.9
101957.68
101855.08
101757.97
101666.2
101579.6
101498.02
101421.28
101349.22
101281.67
101218.45
101159.39
101104.33
101053.09
101005.52
100961.44
100920.72
100883.21
100848.74
100817.17
100788.38
100762.29
100738.76
100717.48
100698.03
100680.51
100665.96
100654.99
100644.43
100627.68
100606.76
100606.77
100651.19
100678.68
94488.543
96841.786
97306.061
99056.278
100114.2
101383.72
102507.96
103549.69
104471.15
105266.08
105930.2
106465.66
106879.01
107180.12
107380.79
107493.71
107531.51
107506.23
107428.92
107309.46
107156.46
106977.36
106778.45
106565.01
106341.46
106111.42
105877.88
105643.26
105409.53
105178.27
104950.73
104727.91
104510.58
104299.34
104094.62
103896.74
103705.93
103522.32
103345.98
103176.93
103015.12
102860.48
102712.93
102572.33
102438.55
102311.41
102190.76
102076.41
101968.18
101865.87
101769.29
101678.25
101592.55
101511.99
101436.37
101365.51
101299.21
101237.29
101179.57
101125.85
101075.98
101029.78
100987.1
100947.79
100911.67
100878.61
100848.51
100821.27
100796.7
100774.46
100754.28
100736.43
100721.9
100710.65
100699.1
100682.01
100663.8
100667.57
100709.22
100729.87
96728.305
99547.556
100254.87
102145.73
103415.31
104732.19
105836.99
106780.97
107551.04
108152.95
108597.71
108901.1
109081.03
109155.92
109143.43
109059.77
108919.25
108734.26
108515.25
108270.93
108008.49
107733.77
107451.51
107165.5
106878.77
106593.71
106312.21
106035.74
105765.42
105502.1
105246.43
104998.86
104759.7
104529.15
104307.31
104094.21
103889.83
103694.08
103506.85
103327.99
103157.34
102994.71
102839.89
102692.68
102552.85
102420.19
102294.46
102175.43
102062.89
101956.6
101856.33
101761.86
101672.97
101589.45
101511.07
101437.64
101368.95
101304.81
101245.01
101189.38
101137.73
101089.9
101045.71
101005.02
100967.67
100933.51
100902.46
100874.39
100849.1
100826.25
100805.7
100787.88
100773.52
100762.01
100749.75
100733.17
100718.34
100725.27
100762.59
100775.6
99820.346
103016.96
104031.87
105989.38
107300.45
108470.47
109389.32
110081.73
110565.4
110866.99
111014.46
111035.32
110954.67
110794.52
110573.48
110306.99
110007.58
109685.31
109348.16
109002.41
108652.95
108303.6
107957.26
107616.17
107282
106956
106639.08
106331.88
106034.83
105748.19
105472.11
105206.61
104951.66
104707.15
104472.93
104248.82
104034.61
103830.05
103634.9
103448.89
103271.77
103103.26
102943.09
102790.98
102646.67
102509.88
102380.34
102257.79
102141.98
102032.66
101929.57
101832.47
101741.13
101655.32
101574.81
101499.39
101428.84
101362.96
101301.55
101244.43
101191.4
101142.3
101096.95
101055.21
101016.92
100981.95
100950.22
100921.57
100895.78
100872.58
100851.96
100834.35
100820.17
100808.4
100795.85
100780.6
100769.37
100778.06
100809.35
100816.21
104022.68
107433.88
108652.26
110346.91
111475.37
112308.36
112844.78
113139.35
113236.74
113180.04
113005.75
112744.14
112419.46
112050.77
111652.83
111236.93
110811.62
110383.33
109956.84
109535.71
109122.52
108719.13
108326.85
107946.56
107578.84
107224.02
106882.25
106553.54
106237.8
105934.87
105644.51
105366.46
105100.44
104846.11
104603.16
104371.24
104150.01
103939.14
103738.28
103547.09
103365.25
103192.41
103028.27
102872.5
102724.8
102584.87
102452.41
102327.15
102208.8
102097.1
101991.79
101892.6
101799.31
101711.66
101629.42
101552.38
101480.32
101413.03
101350.3
101291.95
101237.79
101187.65
101141.36
101098.76
101059.72
101024.12
100991.84
100962.74
100936.6
100913.24
100892.69
100875.32
100861.24
100849.26
100836.92
100823.62
100815.61
100824.41
100848.86
100851.3
109264.97
112639.24
113761.37
114891.82
115506.09
115792.39
115815.28
115648.19
115345.25
114948.91
114490.71
113993.9
113475.34
112947.18
112418.06
111894.06
111379.45
110877.13
110389.05
109916.43
109460.01
109020.15
108596.97
108190.36
107800.12
107425.94
107067.42
106724.17
106395.74
106081.66
105781.47
105494.72
105220.93
104959.65
104710.45
104472.88
104246.52
104030.96
103825.8
103630.65
103445.15
103268.92
103101.61
102942.89
102792.43
102649.9
102515.01
102387.44
102266.92
102153.16
102045.91
101944.89
101849.85
101760.56
101676.78
101598.28
101524.84
101456.26
101392.33
101332.85
101277.65
101226.55
101179.38
101136
101096.28
101060.08
101027.31
100997.8
100971.37
100947.9
100927.46
100910.23
100896.11
100884.05
100872.44
100861.45
100855.83
100862.75
100879.67
100880.82
115497.88
118015.46
118628.88
118912.36
118820.08
118493.05
118010.72
117433.7
116802.62
116145
115479.11
114816.98
114166.41
113532.33
112917.78
112324.47
111753.29
111204.51
110678.02
110173.46
109690.31
109227.94
108785.68
108362.81
107958.6
107572.36
107203.37
106850.95
106514.45
106193.22
105886.67
105594.2
105315.25
105049.3
104795.82
104554.33
104324.35
104105.44
103897.15
103699.09
103510.85
103332.04
103162.3
103001.27
102848.62
102704.01
102567.13
102437.68
102315.36
102199.89
102091
101988.42
101891.91
101801.21
101716.09
101636.32
101561.68
101491.97
101426.98
101366.51
101310.39
101258.43
101210.49
101166.41
101126.07
101089.34
101056.1
101026.22
100999.54
100975.99
100955.57
100938.35
100924.1
100912.1
100901.46
100892.58
100888.36
100892.51
100902.77
100903.95
122136.19
122579.31
122363.08
121815.75
121086.06
120263.96
119405.57
118542.66
117693.77
116869.12
116074.15
115311.4
114581.7
113884.85
113220.08
112586.28
111982.18
111406.45
110857.73
110334.71
109836.13
109360.76
108907.48
108475.2
108062.92
107669.68
107294.6
106936.84
106595.62
106270.19
105959.87
105664.01
105381.98
105113.21
104857.13
104613.24
104381.02
104160.01
103949.76
103749.84
103559.83
103379.34
103207.99
103045.43
102891.3
102745.28
102607.04
102476.28
102352.69
102236
102125.93
102022.22
101924.61
101832.86
101746.73
101665.99
101590.43
101519.83
101453.99
101392.73
101335.84
101283.17
101234.56
101189.86
101148.95
101111.71
101078.01
101047.74
101020.77
100997.03
100976.49
100959.09
100944.6
100932.59
100922.72
100915.33
100911.8
100913.29
100918.42
100920.22
126014.07
125389.62
124475.55
123424.75
122341.72
121270.47
120233.68
119240.67
118294.88
117396.57
116544.47
115736.52
114970.39
114243.65
113553.91
112898.91
112276.51
111684.75
111121.79
110585.96
110075.7
109589.6
109126.34
108684.72
108263.64
107862.04
107479
107113.61
106765.07
106432.58
106115.45
105813
105524.59
105249.63
104987.55
104737.83
104499.96
104273.46
104057.88
103852.78
103657.76
103472.4
103296.34
103129.22
102970.68
102820.39
102678.02
102543.28
102415.86
102295.49
102181.87
102074.76
101973.89
101879.01
101789.9
101706.32
101628.05
101554.88
101486.61
101423.04
101363.98
101309.27
101258.75
101212.28
101169.73
101130.98
101095.9
101064.39
101036.35
101011.69
100990.36
100972.22
100957.08
100944.68
100934.95
100928.11
100924.55
100924.32
100926.68
100928.94
103982.04
103955.14
104003.49
104051.9
104087.75
104097.59
104080.15
104050.58
104014.99
103970.12
103911.58
103839.9
103758.9
103673.43
103584.27
103491.5
103395.44
103296.57
103195.32
103092.07
102987.2
102881.03
102773.91
102666.11
102557.92
102449.58
102341.34
102233.4
102125.98
102019.27
101913.44
101808.67
101705.12
101602.94
101502.3
101403.33
101306.19
101211.01
101117.93
101027.1
100938.64
100852.7
100769.4
100688.88
100611.28
100536.71
100465.3
100397.18
100332.46
100271.23
100213.61
100159.68
100109.51
100063.15
100020.66
99982.049
99947.321
99916.455
99889.41
99866.117
99846.482
99830.388
99817.693
99808.227
99801.813
99798.205
99797.285
99798.539
99802.373
99807.028
99815.506
99820.747
99836.14
99836.441
99865.472
99847.293
99904.671
99850.958
99950.168
99852.322
103338.31
103332.11
103346.1
103362.45
103361.24
103353.89
103342.97
103325.32
103296.01
103260.95
103218.98
103171.86
103118.87
103061.14
102998.68
102932.2
102861.92
102788.17
102711.29
102631.57
102549.33
102464.84
102378.41
102290.29
102200.78
102110.12
102018.57
101926.39
101833.82
101741.08
101648.42
101556.04
101464.16
101372.99
101282.74
101193.59
101105.75
101019.4
100934.72
100851.89
100771.09
100692.49
100616.26
100542.55
100471.53
100403.35
100338.15
100276.07
100217.25
100161.8
100109.83
100061.43
100016.68
99975.643
99938.361
99904.852
99875.113
99849.116
99826.813
99808.126
99792.953
99781.166
99772.614
99767.118
99764.489
99764.483
99766.953
99771.43
99778.21
99785.765
99796.645
99804.688
99821.672
99824.832
99854.246
99839.675
99896.641
99845.949
99946.065
99847.057
102919.17
102903.61
102875.07
102845.11
102815.79
102788.42
102756.46
102725.17
102690.22
102654.76
102615.3
102574.47
102530.06
102483.54
102433.96
102381.85
102327.02
102269.64
102209.75
102147.46
102082.89
102016.17
101947.45
101876.88
101804.65
101730.92
101655.88
101579.73
101502.67
101424.9
101346.63
101268.08
101189.45
101110.97
101032.84
100955.28
100878.52
100802.75
100728.19
100655.04
100583.51
100513.81
100446.11
100380.62
100317.51
100256.97
100199.15
100144.23
100092.34
100043.63
99998.206
99956.177
99917.629
99882.628
99851.217
99823.416
99799.22
99778.599
99761.496
99747.83
99737.491
99730.343
99726.227
99724.958
99726.34
99730.127
99736.153
99743.986
99753.841
99764.362
99777.773
99788.578
99807.346
99813.165
99843.348
99831.975
99888.842
99840.897
99942.057
99842.074
102324.57
102301.93
102273.29
102241.75
102210.44
102182.63
102150.41
102121.12
102087.68
102056.21
102021.23
101987.01
101950
101912.61
101873.1
101832.28
101789.66
101745.38
101699.33
101651.5
101601.88
101550.49
101497.35
101442.53
101386.09
101328.12
101268.74
101208.06
101146.21
101083.37
101019.68
100955.34
100890.51
100825.41
100760.23
100695.18
100630.47
100566.32
100502.95
100440.58
100379.43
100319.7
100261.62
100205.4
100151.23
100099.31
100049.83
100002.97
99958.881
99917.72
99879.617
99844.686
99813.018
99784.685
99759.735
99738.187
99720.035
99705.247
99693.762
99685.493
99680.325
99678.117
99678.703
99681.894
99687.487
99695.238
99704.969
99716.275
99729.313
99742.864
99758.9
99772.449
99793.138
99801.473
99832.711
99824.247
99881.296
99835.845
99938.108
99837.363
101598.14
101582.16
101566.56
101548.12
101527.73
101511.64
101489.64
101472.02
101448.99
101429.25
101405.05
101382.65
101357.05
101331.92
101304.7
101276.64
101246.98
101216
101183.51
101149.5
101113.93
101076.79
101038.07
100997.79
100955.98
100912.68
100867.96
100821.88
100774.55
100726.08
100676.58
100626.19
100575.08
100523.4
100471.34
100419.08
100366.83
100314.78
100263.16
100212.18
100162.05
100113.01
100065.27
100019.05
99974.565
99932.021
99891.616
99853.537
99817.958
99785.036
99754.91
99727.702
99703.509
99682.406
99664.441
99649.636
99637.981
99629.441
99623.954
99621.426
99621.738
99624.743
99630.272
99638.132
99648.117
99659.986
99673.549
99688.432
99704.741
99721.38
99740.11
99756.401
99779.087
99789.86
99822.314
99816.602
99873.971
99830.871
99934.218
99832.925
100881.89
100875.69
100871.37
100866.13
100856.83
100852.76
100841.33
100835.81
100823.43
100815.61
100802.14
100791.47
100776.9
100763.43
100747.69
100731.44
100713.59
100694.61
100674.29
100652.63
100629.62
100605.23
100579.44
100552.25
100523.66
100493.7
100462.38
100429.76
100395.9
100360.86
100324.74
100287.65
100249.7
100211.02
100171.78
100132.14
100092.28
100052.37
100012.63
99973.261
99934.469
99896.473
99859.492
99823.742
99789.44
99756.793
99726.003
99697.26
99670.74
99646.603
99624.993
99606.032
99589.819
99576.427
99565.904
99558.268
99553.51
99551.587
99552.434
99555.951
99562.016
99570.478
99581.162
99593.875
99608.409
99624.525
99642.031
99660.576
99680.226
99700
99721.47
99740.505
99765.233
99778.411
99812.156
99809.086
99866.824
99826.041
99930.441
99828.768
100233.41
100233.55
100234.54
100237.67
100235.48
100240.04
100235.83
100239.29
100234.43
100235.76
100230.7
100229.94
100224.48
100220.3
100213.58
100206.89
100198.79
100189.9
100179.93
100168.88
100156.72
100143.4
100128.91
100113.21
100096.3
100078.17
100058.83
100038.31
100016.63
99993.857
99970.04
99945.261
99919.615
99893.212
99866.177
99838.651
99810.787
99782.753
99754.726
99726.895
99699.454
99672.607
99646.559
99621.518
99597.689
99575.275
99554.469
99535.455
99518.406
99503.479
99490.81
99480.52
99472.702
99467.424
99464.73
99464.63
99467.11
99472.124
99479.595
99489.423
99501.477
99515.603
99531.625
99549.346
99568.558
99589.03
99610.564
99632.837
99655.88
99678.822
99703.06
99724.833
99751.634
99767.226
99802.286
99801.731
99859.834
99821.408
99926.807
99824.901
99650.659
99655.777
99659.797
99668.043
99669.489
99679.732
99679.66
99689.188
99689.095
99696.9