/*--------------------------------*- C++ -*----------------------------------*\
  =========                 |
  \\      /  F ield         | OpenFOAM: The Open Source CFD Toolbox
   \\    /   O peration     | Website:  https://openfoam.org
    \\  /    A nd           | Version:  12
     \\/     M anipulation  |
\*---------------------------------------------------------------------------*/
FoamFile
{
    format      ascii;
    class       surfaceScalarField;
    location    "0.138";
    object      phi;
}
// * * * * * * * * * * * * * * * * * * * * * * * * * * * * * * * * * * * * * //

dimensions      [1 0 -1 0 0 0 0];

internalField   nonuniform List<scalar> 
31760
(
-0.00063997769
-0.050937695
0.051578061
-0.0016050164
-0.064384576
0.065349793
-0.0025881746
-0.063028615
0.064007123
-0.003609054
-0.068694903
0.069716179
-0.0046848247
-0.070371674
0.071447814
-0.0057888096
-0.074641483
0.075745776
-0.0069627931
-0.077573884
0.078748167
-0.0081756374
-0.081585244
0.082798334
-0.0094487635
-0.085213098
0.086486452
-0.010780615
-0.089336055
0.090668102
-0.012168009
-0.093475621
0.094863184
-0.013622725
-0.097893012
0.099347879
-0.015139398
-0.10247489
0.10399169
-0.016726299
-0.1072835
0.10887051
-0.018383012
-0.11230756
0.11396437
-0.020114286
-0.11756377
0.11929513
-0.02192279
-0.12306019
0.12486876
-0.023811722
-0.12880826
0.13069726
-0.025784322
-0.13481902
0.13679167
-0.027843982
-0.14110374
0.14316344
-0.029994133
-0.14767484
0.14982502
-0.032238526
-0.1545443
0.15678873
-0.034580749
-0.16172575
0.16406799
-0.037024695
-0.1692329
0.17167685
-0.039573323
-0.1770803
0.17962892
-0.042231199
-0.18528209
0.18793995
-0.045002199
-0.19385454
0.19662551
-0.047889726
-0.20281428
0.20570177
-0.050897253
-0.21217826
0.21518574
-0.0540288
-0.22196459
0.22509608
-0.057287645
-0.23219225
0.23545103
-0.06067709
-0.24288109
0.24627045
-0.064199913
-0.25405264
0.25757536
-0.067859124
-0.26572808
0.26938717
-0.071656672
-0.27793156
0.28172896
-0.075594175
-0.29068741
0.29462474
-0.079672911
-0.30402144
0.30809997
-0.083893299
-0.31796144
0.32218159
-0.088255089
-0.33253551
0.33689701
-0.092756894
-0.3477752
0.35227668
-0.097396632
-0.3637124
0.36835177
-0.10217079
-0.38038104
0.38515479
-0.10707467
-0.39781734
0.40272075
-0.11210237
-0.41605932
0.4210865
-0.11724604
-0.43514758
0.44029066
-0.12249644
-0.45512395
0.4603737
-0.12784191
-0.4760336
0.48137834
-0.13326941
-0.49792318
0.50334988
-0.13876334
-0.52084305
0.52633609
-0.14430526
-0.54484532
0.55038627
-0.14987404
-0.56998472
0.57555244
-0.15544606
-0.59631964
0.6018905
-0.16099386
-0.62391075
0.6294573
-0.16648637
-0.65282201
0.65831319
-0.17188905
-0.68312031
0.68852157
-0.17716189
-0.71487662
0.72014798
-0.18226077
-0.74816441
0.75326175
-0.18713622
-0.78306082
0.7879347
-0.19173181
-0.81964699
0.824241
-0.19598533
-0.85800727
0.86225923
-0.19982663
-0.8982298
0.90206961
-0.20317782
-0.9404065
0.94375632
-0.2059515
-0.98463398
0.98740647
-0.20805026
-1.0310129
1.0331107
-0.20936529
-1.0796463
1.0809608
-0.20977557
-1.1306412
1.1310514
-0.20914473
-1.1841051
1.1834748
-0.20732711
-1.2401454
1.2383291
-0.20415587
-1.2988767
1.2957075
-0.1994443
-1.3604152
1.3557065
-0.19299066
-1.424881
1.418431
-0.18457545
-1.4923938
1.4839833
-0.17394544
-1.5630746
1.5524507
-0.16083421
-1.6370355
1.6239322
-0.14493662
-1.7144031
1.6985159
-0.12594741
-1.7953168
1.7763403
-0.10337542
-1.8799581
1.8574009
-0.077306403
-1.9685342
1.942484
-0.04611828
-2.0605468
2.0293708
-2.1584937
2.1235481
-0.0006340717
-0.050303431
-0.0015029716
-0.063515461
-0.0024040922
-0.062125876
-0.003363345
-0.067735553
-0.0043336664
-0.069401266
-0.0053815393
-0.073593509
-0.0064446816
-0.076510651
-0.0075880623
-0.080441765
-0.008757387
-0.084043679
-0.01000127
-0.088092073
-0.011288247
-0.092188547
-0.012642813
-0.096538345
-0.014054951
-0.10106265
-0.015533742
-0.1058046
-0.017079368
-0.11076183
-0.018695978
-0.11594706
-0.020385761
-0.1213703
-0.022152484
-0.12704144
-0.023999368
-0.13297204
-0.025929992
-0.13917302
-0.027948016
-0.14565672
-0.030056692
-0.15243554
-0.032260125
-0.15952223
-0.034562001
-0.16693094
-0.036967116
-0.17467511
-0.039478277
-0.18277086
-0.042100175
-0.19123257
-0.04483654
-0.20007785
-0.047691649
-0.20932309
-0.050669066
-0.21898713
-0.053772864
-0.22908841
-0.057006365
-0.23964755
-0.060372862
-0.25068612
-0.06387533
-0.26222561
-0.067516179
-0.27429072
-0.071297715
-0.28690591
-0.075221087
-0.30009813
-0.079287776
-0.31389484
-0.0834971
-0.3283263
-0.087848621
-0.34342383
-0.092340701
-0.35922051
-0.096970198
-0.37575177
-0.1017327
-0.3930551
-0.10662309
-0.41116925
-0.11163423
-0.4301368
-0.11675749
-0.45000111
-0.12198258
-0.47080899
-0.12729679
-0.49260951
-0.13268575
-0.51545471
-0.13813282
-0.53939895
-0.14361852
-0.56449979
-0.14912071
-0.59081828
-0.15461408
-0.61841829
-0.16007021
-0.64736684
-0.16545693
-0.67773461
-0.17073786
-0.70959675
-0.17587245
-0.74303091
-0.18081509
-0.77811927
-0.18551439
-0.81494874
-0.18991344
-0.8536092
-0.19394814
-0.89419597
-0.19754707
-0.93680828
-0.20063007
-0.98155147
-0.20310893
-1.0285342
-0.20488397
-1.0778711
-0.20584574
-1.1296787
-0.20586838
-1.1840812
-0.20481637
-1.2411955
-0.20253888
-1.3011515
-0.19886755
-1.3640831
-0.19361883
-1.4301253
-0.18658643
-1.4994207
-0.17754396
-1.57211
-0.16623987
-1.6483304
-0.15240573
-1.7282254
-0.13573217
-1.8119758
-0.11587982
-1.8997933
-0.092621938
-1.9917724
-0.06504755
-2.0881059
-2.1897954
-0.00057332916
-0.049730022
-0.0013842908
-0.062704487
-0.002193634
-0.061316131
-0.0030972423
-0.066831928
-0.0039901013
-0.068508344
-0.0049694493
-0.072614105
-0.0059502215
-0.075529801
-0.007014577
-0.079377327
-0.0080980902
-0.082960071
-0.0092544891
-0.086935572
-0.010450693
-0.090992235
-0.011710879
-0.095278044
-0.013026011
-0.099747398
-0.014404379
-0.10442611
-0.015846653
-0.10931943
-0.017356423
-0.11443715
-0.018937037
-0.11978955
-0.020591444
-0.1253869
-0.022323913
-0.13123943
-0.024137264
-0.13735953
-0.026035983
-0.14375786
-0.028023588
-0.15044779
-0.030103954
-0.15744172
-0.032281862
-0.16475289
-0.034560575
-0.17239624
-0.036945298
-0.18038599
-0.039439471
-0.18873825
-0.042048154
-0.19746902
-0.044774891
-0.20659621
-0.047624821
-0.21613706
-0.050601039
-0.22611206
-0.053707857
-0.23654061
-0.056949066
-0.24744479
-0.060327331
-0.25884723
-0.063846222
-0.27077174
-0.067507882
-0.28324417
-0.071314524
-0.29629142
-0.075266636
-0.30994269
-0.079365201
-0.32422771
-0.083609675
-0.33917935
-0.087998234
-0.35483198
-0.092528728
-0.37122133
-0.097197743
-0.38838617
-0.10199978
-0.40636734
-0.10692881
-0.42520794
-0.11197683
-0.44495331
-0.11713456
-0.46565153
-0.12239006
-0.48735433
-0.12773074
-0.51011439
-0.13314094
-0.53398918
-0.13860245
-0.55903876
-0.14409583
-0.58532543
-0.14959776
-0.61291694
-0.15508231
-0.64188291
-0.16052029
-0.67229727
-0.16587877
-0.70423893
-0.17112117
-0.73778915
-0.17620532
-0.77303571
-0.18108576
-0.81006881
-0.18571001
-0.84898535
-0.1900206
-0.88988562
-0.19395247
-0.93287645
-0.19743395
-0.97806976
-0.20038415
-1.0255835
-0.20271308
-1.0755412
-0.20431954
-1.1280709
-0.20509514
-1.1833036
-0.20491361
-1.2413744
-0.20363536
-1.3024264
-0.20111268
-1.3666015
-0.197173
-1.4340598
-0.19163503
-1.5049522
-0.18428754
-1.5794493
-0.17490578
-1.6577015
-0.16323823
-1.7398793
-0.14900704
-1.8261903
-0.13192691
-1.9168536
-0.11167552
-2.0120023
-0.087706478
-2.1120563
-2.2173217
-0.00051726387
-0.049212597
-0.0012676996
-0.061953965
-0.0020027051
-0.060581326
-0.0028541081
-0.065980411
-0.0036810828
-0.067681233
-0.0045939653
-0.07170109
-0.0054980359
-0.074625594
-0.0064891679
-0.078386056
-0.0074926807
-0.081956416
-0.0085683851
-0.085859722
-0.0096807612
-0.08987971
-0.010854215
-0.094104436
-0.012080723
-0.098520733
-0.013367584
-0.10313908
-0.014716477
-0.10797037
-0.016131175
-0.11302229
-0.017614981
-0.11830557
-0.019171278
-0.12383042
-0.020803545
-0.12960698
-0.022516132
-0.13564675
-0.024312216
-0.14196158
-0.026196861
-0.14856295
-0.02817398
-0.1554644
-0.030247561
-0.1626791
-0.032422764
-0.17022083
-0.03470354
-0.178105
-0.037094928
-0.18634665
-0.039601267
-0.19496246
-0.042228007
-0.20396925
-0.044978497
-0.21338635
-0.047857859
-0.22323248
-0.050870443
-0.23352781
-0.054019926
-0.2442951
-0.057310168
-0.25555679
-0.060744554
-0.26733716
-0.064325509
-0.27966303
-0.068055215
-0.29256154
-0.071935553
-0.30606219
-0.075966832
-0.32019628
-0.080149059
-0.334997
-0.084481591
-0.35049933
-0.088961713
-0.36674112
-0.093586582
-0.38376124
-0.098351797
-0.40160209
-0.1032514
-0.42030833
-0.10827886
-0.43992587
-0.11342446
-0.46050599
-0.11867925
-0.48209964
-0.12403043
-0.50476335
-0.12946433
-0.52855545
-0.1349653
-0.55353801
-0.14051469
-0.57977629
-0.14609225
-0.60733965
-0.1516751
-0.63630034
-0.15723614
-0.6667365
-0.162747
-0.69872831
-0.16817418
-0.73236216
-0.17348082
-0.76772917
-0.17862572
-0.80492389
-0.18356243
-0.84404845
-0.18823924
-0.88520843
-0.19259822
-0.92851683
-0.19657513
-0.97409192
-0.20009763
-1.0220597
-0.20308525
-1.0725519
-0.20545006
-1.1257039
-0.20708659
-1.1816644
-0.20788882
-1.2405688
-0.20772832
-1.3025827
-0.20647321
-1.3678516
-0.20397135
-1.4365556
-0.20004738
-1.5088686
-0.19452419
-1.5849628
-0.18718887
-1.6650243
-0.17781927
-1.7492331
-0.16616837
-1.8378221
-0.15197046
-1.931029
-0.13490917
-2.0290396
-0.1145904
-2.1323535
-2.2409249
-0.00046182312
-0.048750614
-0.0011649538
-0.061250723
-0.0018233304
-0.059922739
-0.0026184394
-0.065185175
-0.0033713864
-0.066928154
-0.0042262532
-0.070846087
-0.0050633791
-0.073788325
-0.0059889132
-0.077460375
-0.0069209813
-0.081024195
-0.0079235925
-0.08485695
-0.0089616713
-0.088841465
-0.010058326
-0.093007609
-0.011207687
-0.097371194
-0.01241595
-0.10193064
-0.01368551
-0.10670062
-0.015019472
-0.11168813
-0.0164216
-0.11690324
-0.017895675
-0.12235613
-0.019445397
-0.12805703
-0.0210748
-0.13401712
-0.022788607
-0.14024754
-0.024590169
-0.14676115
-0.026485007
-0.15356931
-0.028477714
-0.16068614
-0.030572818
-0.16812547
-0.032775603
-0.17590195
-0.035091286
-0.18403069
-0.037524813
-0.19252866
-0.040081116
-0.20141268
-0.042765406
-0.21070178
-0.045582567
-0.22041504
-0.048537077
-0.23057302
-0.051633301
-0.2411986
-0.054875599
-0.25231421
-0.058267135
-0.26394534
-0.061810996
-0.27611889
-0.065509687
-0.28886259
-0.069365106
-0.30220651
-0.073378003
-0.31618314
-0.077548759
-0.330826
-0.081876318
-0.34617155
-0.086359491
-0.36225774
-0.090994973
-0.37912556
-0.095779056
-0.39681782
-0.10070725
-0.41537998
-0.10577254
-0.43486045
-0.11096767
-0.45531075
-0.11628347
-0.47678375
-0.12170917
-0.49933759
-0.12723316
-0.52303141
-0.1328409
-0.54793024
-0.13851688
-0.57410029
-0.14424296
-0.60161354
-0.14999871
-0.63054453
-0.1557617
-0.66097343
-0.16150602
-0.69298384
-0.16720234
-0.72666558
-0.17281921
-0.76211192
-0.17831985
-0.79942269
-0.18366418
-0.83870337
-0.1888063
-0.8800653
-0.1936956
-0.92362624
-0.19827503
-0.96951087
-0.20248138
-1.0178514
-0.20624375
-1.0687872
-0.20948157
-1.1224633
-0.21210953
-1.179033
-0.21402173
-1.2386525
-0.21511767
-1.3014819
-0.21526449
-1.3676989
-0.21433521
-1.4374777
-0.21217705
-1.5110179
-0.20862316
-1.5885054
-0.20348872
-1.6701443
-0.1965699
-1.7561337
-0.18764654
-1.8467235
-0.1764869
-1.9421632
-0.16278772
-2.0427122
-0.14624097
-2.1488757
-2.2604233
-0.00041189846
-0.048338553
-0.0010738771
-0.060588629
-0.0016694386
-0.059327036
-0.0024063793
-0.064448101
-0.0030833847
-0.066251003
-0.0038867654
-0.070042558
-0.0046571843
-0.073017749
-0.0055231652
-0.07659423
-0.0063919296
-0.080155261
-0.0073326788
-0.083916022
-0.0083103308
-0.087863628
-0.0093445274
-0.091973218
-0.01043167
-0.096283851
-0.011576425
-0.10078567
-0.012781626
-0.1054952
-0.01405113
-0.1104184
-0.015388441
-0.1155657
-0.016797432
-0.1209469
-0.018282605
-0.12657161
-0.019847949
-0.13245152
-0.021498564
-0.13859666
-0.02323926
-0.14502018
-0.025075182
-0.15173311
-0.027011434
-0.1587496
-0.029053631
-0.16608298
-0.031207582
-0.1737477
-0.033478021
-0.18175995
-0.035871251
-0.19013512
-0.038392566
-0.19889104
-0.041047339
-0.20804668
-0.043841156
-0.21762089
-0.046778582
-0.22763526
-0.049865007
-0.23811184
-0.053103715
-0.24907517
-0.056499207
-0.26054952
-0.060054807
-0.27256296
-0.063772708
-0.28514435
-0.067654892
-0.29832399
-0.071702902
-0.3121348
-0.075916805
-0.32661177
-0.080296495
-0.34179153
-0.084839971
-0.35771394
-0.089545507
-0.37441972
-0.094409856
-0.39195318
-0.099427953
-0.41036159
-0.10459471
-0.42969341
-0.10990437
-0.45000082
-0.11534806
-0.4713398
-0.12091782
-0.49376757
-0.12660222
-0.51734676
-0.13239061
-0.54214159
-0.13826895
-0.56822167
-0.14422215
-0.59566003
-0.15023307
-0.62453325
-0.15628228
-0.65492377
-0.16234797
-0.68691761
-0.16840633
-0.72060653
-0.17442924
-0.75608816
-0.18038615
-0.79346471
-0.18624197
-0.83284622
-0.19195845
-0.8743472
-0.19749162
-0.91809115
-0.2027927
-0.96420751
-0.20780671
-1.0128347
-0.21247214
-1.0641187
-0.21671985
-1.118212
-0.22047256
-1.1752762
-0.22364602
-1.2354742
-0.2261382
-1.298984
-0.22784866
-1.3659815
-0.22865402
-1.4366639
-0.22842414
-1.5112373
-0.22701181
-1.5899045
-0.22425068
-1.6728885
-0.21996032
-1.7604032
-0.21395042
-1.8527085
-0.20600571
-1.9500794
-0.19586565
-2.0528229
-0.18326778
-2.1614461
-2.2756179
-0.00036939014
-0.047968998
-0.0010005012
-0.059957393
-0.0015410912
-0.058786297
-0.0022305917
-0.063758456
-0.0028479753
-0.065633461
-0.0036035099
-0.069286863
-0.0043178216
-0.072303268
-0.0051223755
-0.075789499
-0.0059492897
-0.079328164
-0.0068437304
-0.08302139
-0.0077752198
-0.086931942
-0.0087596892
-0.090988542
-0.0097967699
-0.095246557
-0.010890493
-0.099691725
-0.012044921
-0.10434054
-0.013263533
-0.10919955
-0.014551195
-0.11427779
-0.015911999
-0.11958584
-0.01735075
-0.1251326
-0.018872845
-0.13092915
-0.02048289
-0.13698634
-0.022187093
-0.14331568
-0.023990671
-0.14992923
-0.025899317
-0.15684064
-0.02791939
-0.16406259
-0.03005653
-0.17161023
-0.032317626
-0.17949852
-0.034708238
-0.18774417
-0.037234099
-0.19636483
-0.039901814
-0.20537861
-0.042716391
-0.21480596
-0.045683415
-0.22466787
-0.048807563
-0.23498732
-0.052093953
-0.2457884
-0.055545636
-0.25709745
-0.059166282
-0.26894193
-0.062959
-0.28135124
-0.066925467
-0.29435713
-0.0710668
-0.30799307
-0.075383636
-0.32229454
-0.07987592
-0.33729886
-0.084542382
-0.35304709
-0.089381446
-0.36958025
-0.094389932
-0.38694429
-0.099564897
-0.40518623
-0.10490177
-0.42435614
-0.11039505
-0.44450713
-0.11603921
-0.46569523
-0.12182623
-0.48798013
-0.12774864
-0.5114239
-0.13379634
-0.53609341
-0.13995893
-0.56205857
-0.14622463
-0.58939374
-0.15257924
-0.61817798
-0.15900753
-0.64849471
-0.16549158
-0.68043264
-0.17201204
-0.71408498
-0.17854638
-0.7495525
-0.1850692
-0.78694032
-0.19155243
-0.82636113
-0.19796338
-0.86793406
-0.20426622
-0.91178576
-0.21041982
-0.95805099
-0.21637844
-1.0068728
-0.22209047
-1.0584029
-0.22749709
-1.1128012
-0.23253284
-1.1702356
-0.23712489
-1.2308766
-0.24118781
-1.2949144
-0.24462963
-1.3625316
-0.24735203
-1.4339315
-0.24923793
-1.509339
-0.25015742
-1.5889694
-0.24997206
-1.6730544
-0.2485177
-1.7618336
-0.24562816
-1.8555699
-0.24112238
-1.9545534
-0.23476499
-2.0591478
-0.22633307
-2.1698471
-2.2862776
-0.00032624422
-0.047642585
-0.00093180482
-0.059351701
-0.001423048
-0.058294898
-0.0020664436
-0.063114909
-0.0026393582
-0.065060383
-0.0033666841
-0.068559369
-0.0040478156
-0.071621962
-0.0048369196
-0.075000212
-0.0056242286
-0.078540667
-0.0064724924
-0.082172929
-0.0073616363
-0.086042593
-0.0083031018
-0.090046863
-0.0092994192
-0.094250018
-0.010354011
-0.098636901
-0.011471329
-0.10322299
-0.012655949
-0.10801468
-0.013911834
-0.11302164
-0.015244964
-0.11825244
-0.016660172
-0.12371711
-0.018163132
-0.1294259
-0.019759688
-0.13538948
-0.021455843
-0.14161922
-0.023257909
-0.14812685
-0.025173126
-0.1549251
-0.027206969
-0.16202841
-0.029366923
-0.16944993
-0.031659127
-0.17720596
-0.034090409
-0.18531252
-0.036667276
-0.1937876
-0.03939578
-0.20264973
-0.042281646
-0.21191971
-0.045330604
-0.22161852
-0.048547769
-0.23176976
-0.05193718
-0.24239858
-0.05550306
-0.25353116
-0.059248899
-0.26519567
-0.063176861
-0.27742285
-0.067289193
-0.29024437
-0.071587224
-0.3036946
-0.076071517
-0.3178098
-0.080741911
-0.33262801
-0.085598398
-0.34819014
-0.090638895
-0.36453929
-0.095861838
-0.38172087
-0.10126474
-0.39978284
-0.10684425
-0.41877611
-0.11259679
-0.43875407
-0.11851801
-0.45977346
-0.1246027
-0.48189486
-0.13084501
-0.50518098
-0.13723851
-0.52969923
-0.14377503
-0.55552131
-0.15044609
-0.58272185
-0.1572415
-0.61138163
-0.16415006
-0.64158505
-0.1711589
-0.67342252
-0.17825268
-0.7069897
-0.18541461
-0.74238882
-0.19262545
-0.77972742
-0.19986304
-0.81912115
-0.20710225
-0.8606921
-0.2143145
-0.90457037
-0.22146705
-0.95089489
-0.22852348
-0.99981241
-0.23544139
-1.0514806
-0.24217397
-1.1060636
-0.24866692
-1.163737
-0.25485786
-1.224679
-0.26067938
-1.289085
-0.26605745
-1.357144
-0.27089731
-1.4290799
-0.27511163
-1.5051101
-0.27858543
-1.5854775
-0.28119882
-1.6704185
-0.28281562
-1.7601898
-0.28329532
-1.8550587
-0.28247795
-1.9553355
-0.28016348
-2.0614266
-0.27617088
-2.1738049
-2.292132
-0.00028410949
-0.04735831
-0.00087034386
-0.058765334
-0.0013203693
-0.057844716
-0.0019403148
-0.06249481
-0.0024904785
-0.064510056
-0.003196165
-0.067853515
-0.0038496845
-0.070968267
-0.0046145175
-0.074235197
-0.0053716357
-0.077783358
-0.0061874302
-0.081356934
-0.0070494681
-0.085180348
-0.0079644358
-0.089131677
-0.0089372278
-0.093277001
-0.0099712506
-0.097602643
-0.011071583
-0.10212241
-0.012243049
-0.10684295
-0.013491318
-0.11177311
-0.014821798
-0.11692169
-0.016240505
-0.12229812
-0.017754208
-0.1279119
-0.019368949
-0.13377444
-0.021092256
-0.1398956
-0.022930501
-0.14628829
-0.024891072
-0.1529642
-0.026981548
-0.1599376
-0.029208704
-0.16722243
-0.031580065
-0.17483424
-0.034102482
-0.18278974
-0.03678238
-0.19110732
-0.039626542
-0.19980518
-0.042641009
-0.20890485
-0.045830809
-0.21842832
-0.049200793
-0.22839936
-0.052755739
-0.23884322
-0.056499295
-0.24978718
-0.060434196
-0.26126033
-0.064563314
-0.27329329
-0.068888503
-0.28591873
-0.073410802
-0.29917184
-0.078131288
-0.31308884
-0.083049963
-0.32770885
-0.088166505
-0.3430731
-0.093480642
-0.35922463
-0.098991718
-0.37620926
-0.10469805
-0.39407595
-0.1105982
-0.41287537
-0.11669009
-0.43266155
-0.12297151
-0.45349137
-0.12943994
-0.47542573
-0.13609181
-0.49852833
-0.14292378
-0.52286641
-0.14993153
-0.54851261
-0.15710974
-0.57554257
-0.16445285
-0.6040373
-0.17195359
-0.63408291
-0.17960393
-0.66577056
-0.18739365
-0.69919811
-0.19531221
-0.73446808
-0.2033459
-0.77169121
-0.21147923
-0.81098493
-0.21969467
-0.85247336
-0.22797143
-0.8962899
-0.23628568
-0.94257649
-0.24460935
-0.99148412
-0.25291171
-1.0431731
-0.26115583
-1.0978137
-0.26930095
-1.1555853
-0.2772966
-1.2166757
-0.28509004
-1.2812824
-0.29261561
-1.3496072
-0.29980824
-1.4218734
-0.3065889
-1.4983124
-0.3128695
-1.5791759
-0.31854423
-1.6647182
-0.32350221
-1.7552014
-0.32762757
-1.8508983
-0.33078468
-1.9521397
-0.33282156
-2.0593508
-0.33357507
-2.1730126
-2.2928668
-0.00024597728
-0.04711217
-0.00082118085
-0.058189996
-0.0012415106
-0.057424231
-0.0018861601
-0.061850008
-0.0024214892
-0.063974563
-0.0031020775
-0.067172759
-0.0037327053
-0.070337463
-0.0044556978
-0.073512019
-0.0051993913
-0.077039472
-0.005999583
-0.08055654
-0.0068518031
-0.084327919
-0.0077588295
-0.088224432
-0.0087278196
-0.092307785
-0.0097626921
-0.096567533
-0.010869211
-0.10101565
-0.012053135
-0.10565878
-0.013320708
-0.11050528
-0.014678615
-0.1155635
-0.016133653
-0.1208428
-0.017692532
-0.12635273
-0.019363879
-0.13210279
-0.021154139
-0.13810503
-0.023072177
-0.14436993
-0.025125262
-0.15091078
-0.027321212
-0.15774131
-0.029668101
-0.16487519
-0.032173307
-0.17232868
-0.03484377
-0.18011891
-0.037686856
-0.18826386
-0.040708503
-0.19678315
-0.043914258
-0.2056987
-0.047309729
-0.21503245
-0.050899297
-0.22480939
-0.054687115
-0.23505499
-0.058676419
-0.24579745
-0.06286998
-0.25706634
-0.067269995
-0.26889283
-0.071878125
-0.28131014
-0.076696079
-0.29435341
-0.081724495
-0.30805993
-0.086964241
-0.32246859
-0.092416038
-0.33762077
-0.098080303
-0.35355981
-0.10395698
-0.37033199
-0.11004684
-0.38798547
-0.1163503
-0.40657125
-0.12286726
-0.42614389
-0.12959806
-0.4467598
-0.13654281
-0.46848014
-0.14370164
-0.49136858
-0.15107371
-0.51549331
-0.15865917
-0.540926
-0.16645646
-0.56774398
-0.17446403
-0.59602825
-0.1826798
-0.62586545
-0.19110045
-0.65734797
-0.19972209
-0.69057423
-0.20853907
-0.72564852
-0.2175449
-0.76268242
-0.2267313
-0.80179516
-0.23608737
-0.84311348
-0.24560109
-0.88677191
-0.25525733
-0.9329155
-0.26503854
-0.98169762
-0.27492325
-1.0332825
-0.28488657
-1.0878438
-0.29489871
-1.1455656
-0.30492588
-1.2066397
-0.3149255
-1.271272
-0.32485214
-1.3396674
-0.33465603
-1.4120534
-0.34427113
-1.4886775
-0.3536341
-1.5697888
-0.36266308
-1.6556604
-0.37126975
-1.7465608
-0.37935447
-1.8427749
-0.38681793
-1.9446339
-0.3935392
-2.0525872
-0.39940011
-2.1671087
-2.2881236
-0.00021203882
-0.046899972
-0.00078789441
-0.057614008
-0.0011853693
-0.057026602
-0.0018471923
-0.061188038
-0.0023605359
-0.063461058
-0.0030322895
-0.066500839
-0.0036564085
-0.069713169
-0.0043744463
-0.072793798
-0.0051208164
-0.076292913
-0.0059213441
-0.079755814
-0.0067813015
-0.083467756
-0.0077007698
-0.087304748
-0.0086882528
-0.091320079
-0.00974856
-0.095506994
-0.010888369
-0.099875598
-0.012114393
-0.1044325
-0.013433815
-0.1091856
-0.014853964
-0.11414309
-0.016383276
-0.11931322
-0.018029668
-0.12470606
-0.019801405
-0.13033076
-0.021707391
-0.13619874
-0.023755757
-0.14232125
-0.025955196
-0.14871103
-0.028314407
-0.15538177
-0.030840766
-0.1623485
-0.033542085
-0.16962702
-0.036425626
-0.17723502
-0.039498116
-0.18519102
-0.042764753
-0.19351615
-0.04623193
-0.20223115
-0.049903459
-0.21136054
-0.053784076
-0.22092838
-0.057876508
-0.23096216
-0.062183525
-0.24149002
-0.066708007
-0.25254143
-0.07145182
-0.26414858
-0.076416436
-0.27634507
-0.081603531
-0.28916584
-0.087014847
-0.30264812
-0.092651829
-0.31683109
-0.098516199
-0.33175585
-0.10460955
-0.34746588
-0.11093439
-0.36400653
-0.11749298
-0.38142621
-0.1242876
-0.3997759
-0.13132181
-0.41910889
-0.138598
-0.43948275
-0.14612007
-0.46095711
-0.15389125
-0.48359634
-0.16191528
-0.5074681
-0.17019495
-0.532645
-0.178734
-0.55920341
-0.18753566
-0.58722487
-0.19660238
-0.61679675
-0.20593652
-0.64801157
-0.2155401
-0.68096806
-0.22541377
-0.71577187
-0.23555758
-0.75253523
-0.24597017
-0.79137874
-0.25664996
-0.83242937
-0.26759222
-0.87582482
-0.27879147
-0.92171087
-0.29023998
-0.97024313
-0.30192743
-1.0215883
-0.31384074
-1.0759229
-0.32596347
-1.1334341
-0.33827284
-1.1943199
-0.35074596
-1.2587864
-0.36335075
-1.3270474
-0.37604786
-1.3993376
-0.38880545
-1.4758972
-0.40156857
-1.5569984
-0.41427995
-1.6429166
-0.42687114
-1.7339321
-0.43927846
-1.830325
-0.45141565
-1.9324506
-0.46320622
-2.0407505
-0.47457036
-2.1556967
-2.2774766
-0.00019069554
-0.046709122
-0.00078592634
-0.057018646
-0.0011795927
-0.056632785
-0.0018335436
-0.060533938
-0.0023397322
-0.062954711
-0.003017201
-0.065823207
-0.0036562838
-0.069073916
-0.0043809793
-0.072068924
-0.0051489881
-0.075524719
-0.0059708426
-0.078933765
-0.0068602645
-0.082578134
-0.0078164186
-0.086348384
-0.0088488924
-0.09028739
-0.0099637467
-0.094391914
-0.011168706
-0.098670407
-0.012471657
-0.10312931
-0.013881049
-0.10777596
-0.015405712
-0.11261817
-0.017054279
-0.11766439
-0.01883669
-0.12292337
-0.020761744
-0.12840543
-0.022839091
-0.13412111
-0.025077538
-0.14008252
-0.027486161
-0.14630211
-0.030073448
-0.15279418
-0.032847428
-0.15957421
-0.03581507
-0.16665906
-0.038983461
-0.17406631
-0.042358005
-0.18181614
-0.045944646
-0.18992917
-0.049747129
-0.19842832
-0.053769538
-0.20733777
-0.058015121
-0.21668243
-0.06248639
-0.22649051
-0.067185748
-0.23679027
-0.072115359
-0.24761141
-0.077276841
-0.25898668
-0.082672582
-0.27094888
-0.088304446
-0.28353351
-0.094175087
-0.29677699
-0.10028732
-0.31071833
-0.10664444
-0.32539817
-0.11325053
-0.34085919
-0.12010977
-0.35714664
-0.12722692
-0.37430834
-0.13460785
-0.39239418
-0.14225829
-0.41145759
-0.15018481
-0.43155528
-0.15839404
-0.45274682
-0.1668934
-0.47509579
-0.17569032
-0.49866984
-0.1847932
-0.52354061
-0.19420966
-0.54978524
-0.20394797
-0.5774846
-0.21401583
-0.60672665
-0.224422
-0.63760283
-0.23517365
-0.67021347
-0.24627849
-0.70466369
-0.25774374
-0.74106617
-0.26957617
-0.77954201
-0.28178133
-0.82021939
-0.2943644
-0.86323636
-0.30732925
-0.90873999
-0.32067843
-0.95688721
-0.33441324
-1.0078459
-0.34853262
-1.0617949
-0.36303278
-1.1189239
-0.37790653
-1.1794342
-0.39314672
-1.2435318
-0.40873294
-1.3114435
-0.42465274
-1.3833964
-0.44087979
-1.4596442
-0.45739143
-1.540456
-0.47415576
-1.6261164
-0.49112412
-1.7169223
-0.50824869
-1.8131538
-0.52547776
-1.9151711
-0.54277361
-2.0234038
-0.56008481
-2.1383319
-2.2604423
-0.00017210586
-0.046536868
-0.00079604571
-0.056394579
-0.0011963293
-0.056232357
-0.0018615193
-0.059868606
-0.0023804492
-0.062435629
-0.0030724278
-0.065131071
-0.0037419471
-0.068404233
-0.0044901864
-0.071320514
-0.0052982668
-0.074716462
-0.0061640128
-0.078067834
-0.007107126
-0.081634831
-0.0081275231
-0.085327788
-0.0092355436
-0.089179165
-0.010438903
-0.093188342
-0.011746661
-0.097362431
-0.013168151
-0.10170759
-0.014713134
-0.10623074
-0.016391724
-0.11093934
-0.018214205
-0.11584166
-0.020190513
-0.12094682
-0.022331069
-0.12626462
-0.024645473
-0.13180644
-0.027142923
-0.1375848
-0.029832595
-0.14361216
-0.032722258
-0.14990424
-0.035819182
-0.156477
-0.039130547
-0.16334741
-0.042661182
-0.17053538
-0.04641627
-0.17806075
-0.050399688
-0.18594545
-0.054614803
-0.19421289
-0.059064605
-0.20288765
-0.063750404
-0.2119963
-0.068675391
-0.22156518
-0.073840952
-0.23162435
-0.079249001
-0.24220299
-0.084902394
-0.25333289
-0.090803379
-0.26504748
-0.096956115
-0.27738033
-0.10336436
-0.29036827
-0.11003273
-0.30404944
-0.11696676
-0.31846357
-0.12417313
-0.3336522
-0.13165873
-0.34966036
-0.13943161
-0.36653471
-0.14750069
-0.38432427
-0.15587529
-0.40308206
-0.16456553
-0.422864
-0.17358256
-0.44372862
-0.18293757
-0.46573947
-0.1926429
-0.48896301
-0.2027104
-0.51347142
-0.21315396
-0.53933975
-0.2239864
-0.56664995
-0.23522206
-0.59548847
-0.24687439
-0.62594763
-0.25895832
-0.65812627
-0.27148801
-0.69213027
-0.2844779
-0.72807206
-0.29794327
-0.76607186
-0.31189794
-0.80625936
-0.32635648
-0.84877182
-0.34133308
-0.89375668
-0.35684118
-0.94137154
-0.37289322
-0.9917853
-0.38950132
-1.0451769
-0.40667601
-1.1017376
-0.42442645
-1.1616699
-0.4427554
-1.2251861
-0.46166704
-1.2925116
-0.48116075
-1.3638782
-0.50123675
-1.439539
-0.52189039
-1.519768
-0.54310869
-1.6048583
-0.56487992
-1.6951057
-0.58716948
-1.7908132
-0.60996527
-1.8923201
-0.63324703
-2.000066
-0.65700688
-2.1145116
-2.2364742
-0.00015805569
-0.046378671
-0.00082404744
-0.055728466
-0.0012380026
-0.055818264
-0.0019331885
-0.059173284
-0.0024823627
-0.06188631
-0.0032030312
-0.064410254
-0.0039234306
-0.067683678
-0.0047163707
-0.070527411
-0.0055874604
-0.073845206
-0.0065242439
-0.077130875
-0.0075503739
-0.080608522
-0.0086679672
-0.084210008
-0.0098884365
-0.087958506
-0.011221576
-0.091855005
-0.012677987
-0.095905819
-0.014268761
-0.10011661
-0.016005055
-0.10449424
-0.017898118
-0.10904606
-0.019959091
-0.11378047
-0.022198783
-0.1187069
-0.024627309
-0.12383587
-0.027254595
-0.12917893
-0.030089817
-0.13474934
-0.033140485
-0.14056126
-0.036414099
-0.14663038
-0.039916595
-0.15297426
-0.043652807
-0.15961095
-0.047627035
-0.1665609
-0.05184238
-0.17384515
-0.056301157
-0.18148641
-0.061005097
-0.18950868
-0.065956265
-0.1979362
-0.071156093
-0.20679618
-0.076606319
-0.21611464
-0.082309414
-0.22592093
-0.088268034
-0.23624402
-0.094485636
-0.24711491
-0.1009673
-0.25856541
-0.10771741
-0.27062979
-0.11474302
-0.28334218
-0.12205103
-0.29674092
-0.12965077
-0.31086326
-0.13755068
-0.32575165
-0.14576159
-0.34144874
-0.15429548
-0.35800004
-0.163164
-0.37545485
-0.17238086
-0.3938642
-0.18196052
-0.41328322
-0.19191769
-0.43377017
-0.20226875
-0.45538697
-0.21302999
-0.47820012
-0.22421974
-0.50227979
-0.2358555
-0.52770185
-0.24795648
-0.55454653
-0.26054286
-0.58289929
-0.2736349
-0.61285241
-0.28725346
-0.64450408
-0.30142111
-0.67795849
-0.31616007
-0.71332844
-0.33149293
-0.75073374
-0.34744359
-0.79030278
-0.36403646
-0.83217229
-0.38129594
-0.87648969
-0.3992464
-0.92341257
-0.41791392
-0.97310803
-0.43732332
-1.0257562
-0.4574992
-1.0815484
-0.47846548
-1.1406877
-0.50024326
-1.2033892
-0.52285579
-1.269876
-0.54632045
-1.3403858
-0.57065416
-1.4151725
-0.59587697
-1.4945071
-0.62200921
-1.5786823
-0.64905382
-1.6680113
-0.67700884
-1.7628023
-0.70588306
-1.8633857
-0.73570515
-1.9701818
-0.7664653
-2.0836831
-2.2049563
-0.00015005125
-0.046228487
-0.00087704911
-0.055001353
-0.0013098936
-0.05538529
-0.0020489454
-0.058434104
-0.0026491003
-0.061286019
-0.0034164156
-0.063642798
-0.0042107161
-0.066889233
-0.0050732007
-0.069664775
-0.0060329905
-0.072885262
-0.0070721955
-0.076091509
-0.0082165595
-0.079463994
-0.0094717782
-0.082954618
-0.010850772
-0.086579339
-0.012365385
-0.090340213
-0.014028026
-0.094242997
-0.015851063
-0.098293391
-0.017846834
-0.10249828
-0.020027241
-0.10686546
-0.022403817
-0.1114037
-0.024987312
-0.11612321
-0.027787775
-0.12103521
-0.030813873
-0.12615263
-0.034073208
-0.13148981
-0.037572555
-0.13706171
-0.041316594
-0.14288614
-0.045309647
-0.148981
-0.049553891
-0.1553665
-0.054051469
-0.16206311
-0.05880378
-0.16909262
-0.063811511
-0.17647845
-0.069075906
-0.18424405
-0.074597798
-0.19241406
-0.080379328
-0.20101439
-0.08642267
-0.21007102
-0.092731658
-0.21961165
-0.099310211
-0.22966515
-0.10616455
-0.24026023
-0.11330085
-0.25142873
-0.1207281
-0.26320212
-0.12845476
-0.27561505
-0.13649253
-0.28870263
-0.144852
-0.3025032
-0.1535469
-0.31705609
-0.16259167
-0.33240324
-0.17200111
-0.34858976
-0.18179181
-0.3656632
-0.19198136
-0.38367358
-0.20258828
-0.40267507
-0.21363249