/*--------------------------------*- C++ -*----------------------------------*\
  =========                 |
  \\      /  F ield         | OpenFOAM: The Open Source CFD Toolbox
   \\    /   O peration     | Website:  https://openfoam.org
    \\  /    A nd           | Version:  12
     \\/     M anipulation  |
\*---------------------------------------------------------------------------*/
FoamFile
{
    format      ascii;
    class       volVectorField;
    location    "0.138";
    object      U;
}
// * * * * * * * * * * * * * * * * * * * * * * * * * * * * * * * * * * * * * //

dimensions      [0 1 -1 0 0 0 0];

internalField   nonuniform List<vector> 
16000
(
(215.70463 -3.1390384e-17 -8.3903349)
(252.65847 0 5.3906086)
(238.76086 0 -7.580149)
(246.41669 4.967419e-17 3.7902931)
(241.72388 -4.9032295e-17 -5.9642342)
(243.93377 0 1.7565817)
(242.13759 0 -4.3338398)
(242.64465 8.3926039e-17 -0.028274478)
(241.80417 -7.9736185e-17 -3.1646087)
(241.68278 0 -1.2694571)
(241.1688 7.20475e-17 -2.5692999)
(240.82136 -2.0526312e-16 -1.9873776)
(240.37761 1.2991864e-16 -2.4268355)
(239.94875 -1.2358276e-16 -2.3635331)
(239.49179 1.1725565e-16 -2.5246938)
(239.02095 -3.4782338e-18 -2.5964551)
(238.53147 -3.3041833e-18 -2.6997929)
(238.02427 -9.750177e-17 -2.7923814)
(237.4988 1.9102691e-16 -2.8867309)
(236.95494 -9.0634956e-17 -2.9788686)
(236.39252 1.7240045e-16 -3.0691796)
(235.81148 -1.6342131e-16 -3.1569675)
(235.21183 0 -3.2417355)
(234.59367 1.5212004e-16 -3.3229038)
(233.95717 -4.1169323e-18 -3.3998844)
(233.30265 -2.6549796e-16 -3.472058)
(232.63052 1.25837e-16 -3.5387983)
(231.94129 0 -3.5994664)
(231.23565 0 -3.6534266)
(230.51437 2.1853889e-16 -3.7000518)
(229.7784 -2.0362028e-16 -3.7387363)
(229.02879 0 -3.7689051)
(228.26674 0 -3.7900245)
(227.4936 0 -3.8016165)
(226.71082 5.137145e-18 -3.8032689)
(225.91999 1.5590227e-16 -3.7946468)
(225.12281 -1.4271578e-16 -3.7755046)
(224.32106 -1.3977957e-16 -3.7456933)
(223.51659 1.2376658e-16 -3.7051709)
(222.71135 0 -3.6540089)
(221.90727 -1.1845599e-16 -3.5923939)
(221.10635 1.1180957e-16 -3.5206319)
(220.31055 -2.1190025e-16 -3.4391447)
(219.5218 1.9992313e-16 -3.3484671)
(218.742 -1.9525464e-16 -3.2492396)
(217.97295 3.574813e-16 -3.142198)
(217.21636 5.6005542e-18 -3.0281628)
(216.47382 2.9692472e-19 -2.9080246)
(215.7468 -1.5046923e-16 -2.7827284)
(215.03662 1.4231051e-16 -2.6532572)
(214.34444 -1.2570445e-16 -2.5206137)
(213.67126 0 -2.3858017)
(213.0179 7.4711135e-18 -2.2498089)
(212.38502 0 -2.1135892)
(211.7731 6.6483625e-18 -1.978047)
(211.18241 2.0701711e-16 -1.8440247)
(210.61306 -3.7837652e-16 -1.7122899)
(210.06496 1.0926154e-17 -1.5835249)
(209.53786 1.6813778e-16 -1.4583176)
(209.03128 -1.4882511e-16 -1.3371727)
(208.54453 1.4018419e-16 -1.2204897)
(208.07685 -8.8210181e-18 -1.1086125)
(207.62739 0 -1.0017909)
(207.19505 0 -0.90018206)
(206.7785 -1.111588e-16 -0.80386393)
(206.37603 1.1183709e-16 -0.7128217)
(205.98551 -9.9096886e-17 -0.62695208)
(205.60439 1.9343106e-16 -0.54606401)
(205.22997 -1.887711e-16 -0.46988594)
(204.85967 8.3685274e-17 -0.39808741)
(204.49098 5.2844679e-18 -0.33029749)
(204.12105 0 -0.26609975)
(203.74628 4.7510791e-18 -0.20510783)
(203.36253 -4.5129413e-18 -0.14706587)
(202.96662 0 -0.091476861)
(202.55771 -3.3748991e-17 -0.038946822)
(202.13093 6.2468716e-17 0.01072656)
(201.72822 -3.1744616e-17 0.073847346)
(201.15123 0 0.037220544)
(200.96092 0 0.3331402)
(217.02209 0 -11.213579)
(254.29725 -3.7246789e-18 3.3410379)
(239.68709 -1.1970746e-16 -10.507834)
(247.88445 1.103681e-16 1.7073386)
(242.83574 0 -8.8266317)
(245.27681 1.0154596e-16 -0.40107519)
(243.27592 -1.8751817e-16 -7.0806916)
(243.87147 -1.0237611e-19 -2.3095811)
(242.93937 8.4506998e-17 -5.7570633)
(242.81859 0 -3.6692727)
(242.26366 -1.5264976e-16 -5.0472358)
(241.88716 1.4931966e-16 -4.4329189)
(241.41132 1.4201792e-16 -4.8588088)
(240.94801 -2.6143517e-16 -4.7963958)
(240.4565 1.2018321e-16 -4.937461)
(239.94926 1.1048996e-17 -5.0019332)
(239.42242 1.1553878e-16 -5.0896955)
(238.87657 -1.0290045e-16 -5.1685464)
(238.31133 0 -5.2468209)
(237.72657 0 -5.3218281)
(237.12224 5.6781579e-18 -5.3934529)
(236.49835 -1.7813069e-16 -5.4609919)
(235.85502 3.3777001e-16 -5.5238161)
(235.19247 -3.1562217e-16 -5.5812474)
(234.51104 1.4265887e-16 -5.632593)
(233.81118 0 -5.677146)
(233.0935 1.2442527e-16 -5.7141907)
(232.35871 -1.3342146e-16 -5.743018)
(231.60768 0 -5.7629328)
(230.84144 3.5258876e-18 -5.7732655)
(230.06113 -1.3373992e-17 -5.7733833)
(229.26808 0 -5.762706)
(228.46372 0 -5.7407134)
(227.64964 -1.7065933e-16 -5.7069659)
(226.82755 3.388725e-16 -5.6611123)
(225.99927 -1.6272438e-16 -5.6029037)
(225.16672 -1.5912862e-16 -5.5322064)
(224.33188 1.4564446e-16 -5.4490081)
(223.49681 -1.1217949e-16 -5.3534279)
(222.66358 -2.8589968e-19 -5.2457203)
(221.83429 -2.6743514e-19 -5.1262769)
(221.011 2.3284529e-16 -4.9956249)
(220.19573 -1.0985989e-16 -4.8544228)
(219.39044 0 -4.7034518)
(218.59698 2.0242589e-16 -4.5436056)
(217.81711 1.1939967e-17 -4.3758764)
(217.05242 -5.1192241e-18 -4.2013383)
(216.30438 -1.6458016e-16 -4.0211298)
(215.57428 0 -3.8364336)
(214.86326 -1.4659443e-16 -3.6484567)
(214.17225 -8.8612376e-18 -3.45841)
(213.50204 2.6018198e-16 -3.2674863)
(212.85321 -1.3012301e-16 -3.0768429)
(212.22618 0 -2.8875821)
(211.62117 -2.038812e-17 -2.7007355)
(211.03825 -2.1126273e-16 -2.5172515)
(210.4773 3.6136514e-16 -2.3379827)
(209.93804 -2.1532747e-16 -2.1636769)
(209.42001 0 -1.9949701)
(208.92259 -1.708363e-16 -1.8323975)
(208.44496 1.795215e-16 -1.676371)
(207.98622 2.6691313e-17 -1.5272249)
(207.54541 0 -1.385199)
(207.12139 -1.4191295e-16 -1.2504198)
(206.71278 7.3226187e-18 -1.1229259)
(206.31787 1.1172236e-16 -1.0026557)
(205.93451 -1.9738651e-17 -0.88945217)
(205.56014 9.3006968e-17 -0.78306408)
(205.19198 -1.0512893e-16 -0.68315306)
(204.82733 5.5086925e-18 -0.58931977)
(204.46363 -5.1976979e-18 -0.50111962)
(204.09809 0 -0.41805538)
(203.7271 -4.6375066e-18 -0.33972236)
(203.34628 4.386342e-18 -0.26596033)
(202.95203 8.3074995e-18 -0.19630665)
(202.54377 9.843691e-19 -0.13040816)
(202.12385 0 -0.067101952)
(201.68713 3.0223375e-17 -0.010935517)
(201.1903 -5.7574169e-17 0.0052712958)
(200.87522 2.585608e-17 0.238302)
(218.20488 0 -14.110873)
(255.78634 -1.2251035e-16 1.0959642)
(240.6491 2.4984548e-16 -13.522721)
(249.14869 -2.2311995e-16 -0.55019334)
(243.83817 1.1019587e-16 -11.769477)
(246.41573 -3.262985e-18 -2.7533521)
(244.28689 9.9315882e-17 -9.8783676)
(244.90808 -9.4060337e-17 -4.7904006)
(243.91896 -5.5836846e-18 -8.4155787)
(243.77472 -5.3016905e-18 -6.2363783)
(243.18436 -1.0071324e-17 -7.6249678)
(242.77177 1.3895178e-16 -7.0161902)
(242.26039 -1.4084733e-16 -7.4105555)
(241.75852 1.3823373e-16 -7.3550389)
(241.22787 -1.1875048e-16 -7.4745819)
(240.67984 -1.5563981e-17 -7.5308786)
(240.11094 0 -7.6029116)
(239.52177 -1.2390433e-20 -7.6667971)
(238.91201 -2.2637493e-16 -7.7278817)
(238.28167 -3.6725073e-19 -7.7841424)
(237.63077 1.7351105e-16 -7.8351471)
(236.95947 1.7043631e-17 -7.8801057)
(236.26804 -2.1557992e-17 -7.9182671)
(235.55687 0 -7.9488472)
(234.82647 7.3288297e-21 -7.9710554)
(234.0775 -1.6549182e-16 -7.9840983)
(233.31078 1.4784876e-16 -7.9871905)
(232.52727 8.2518632e-18 -7.979563)
(231.72809 0 -7.9604819)
(230.91452 -7.4030673e-18 -7.9292553)
(230.08802 -1.248741e-21 -7.8852531)
(229.25016 -1.9927982e-16 -7.8279196)
(228.40269 2.0070005e-16 -7.7567885)
(227.54748 1.1892665e-17 -7.6715022)
(226.68652 -1.8003985e-16 -7.5718198)
(225.8219 1.4858772e-16 -7.457635)
(224.95579 -1.8105421e-16 -7.3289844)
(224.09039 1.5175599e-16 -7.186057)
(223.22795 -1.4368987e-16 -7.0291965)
(222.3707 1.3542106e-16 -6.8589067)
(221.52083 1.6012158e-17 -6.6758476)
(220.68047 0 -6.4808278)
(219.85166 1.9973954e-16 -6.2747973)
(219.03633 -2.4176421e-16 -6.0588324)
(218.23623 0 -5.8341198)
(217.453 1.7943604e-16 -5.6019385)
(216.68807 -1.5745951e-16 -5.3636363)
(215.9427 1.6989112e-16 -5.1206091)
(215.21794 -1.796985e-16 -4.8742763)
(214.51465 0 -4.6260582)
(213.83352 1.7719598e-16 -4.3773537)
(213.175 -1.3316867e-16 -4.129517)
(212.53941 0 -3.8838394)
(211.92684 0 -3.641532)
(211.33726 1.2477289e-16 -3.4037086)
(210.77044 -2.0837645e-16 -3.1713769)
(210.22601 1.2232027e-16 -2.9454265)
(209.70343 1.8408617e-16 -2.7266236)
(209.20206 1.986933e-19 -2.5156054)
(208.72109 1.7674294e-19 -2.3128917)
(208.25954 -3.2401053e-16 -2.1188707)
(207.81639 8.9418523e-17 -1.933829)
(207.39054 0 -1.7579648)
(206.98079 1.421133e-16 -1.5913488)
(206.58572 -1.6301471e-16 -1.4339566)
(206.2036 1.1141799e-16 -1.2856603)
(205.83228 1.3150054e-17 -1.1462304)
(205.46919 -8.5970062e-17 -1.0153412)
(205.1115 1.154445e-17 -0.89258311)
(204.75645 2.1710092e-17 -0.77749343)
(204.40146 -1.0209174e-16 -0.66955393)
(204.0438 9.6015549e-17 -0.56818777)
(203.67992 -7.2341159e-17 -0.47301604)
(203.30523 1.3626618e-16 -0.38397198)
(202.91618 -5.6191126e-17 -0.30024857)
(202.51316 -6.0625672e-17 -0.22084765)
(202.09645 5.009136e-17 -0.14784788)
(201.65315 0 -0.087231129)
(201.19639 3.2055467e-18 -0.034430177)
(200.81645 -1.2155977e-17 0.13890376)
(219.22626 0 -17.077375)
(257.1239 0 -1.2858057)
(241.4146 0 -16.671563)
(250.2323 1.0662495e-16 -2.9116859)
(244.65377 -1.2380823e-16 -14.839278)
(247.38707 -2.205026e-16 -5.2221025)
(245.11603 2.0971783e-16 -12.792495)
(245.7658 -1.2421223e-17 -7.3974877)
(244.71243 5.9147812e-18 -11.183593)
(244.54082 -1.7393215e-16 -8.9343764)
(243.91054 1.7027786e-16 -10.313529)
(243.45643 1.011973e-17 -9.7245208)
(242.9047 -1.5366822e-16 -10.079423)
(242.359 1.3650689e-16 -10.032459)
(241.78412 -1.3822242e-20 -10.129251)
(241.19016 -8.1866331e-18 -10.175434)
(240.57422 0 -10.23015)
(239.93685 -7.390476e-18 -10.27663)
(239.27786 -2.1037371e-16 -10.317879)
(238.59738 2.1241997e-16 -10.352324)
(237.89558 1.2609113e-17 -10.379303)
(237.17276 -1.1954577e-17 -10.397937)
(236.42936 2.1542271e-16 -10.407376)
(235.66597 -1.7159547e-16 -10.406742)
(234.88332 1.0176187e-17 -10.395155)
(234.08233 1.929567e-16 -10.371748)
(233.26406 -1.276412e-16 -10.335672)
(232.42978 0 -10.286118)
(231.5809 1.4748974e-16 -10.222326)
(230.71905 -1.2380003e-16 -10.143611)
(229.84599 2.495054e-16 -10.049374)
(228.96366 -1.3326586e-17 -9.9391242)
(228.07412 -2.0958033e-16 -9.812496)
(227.17959 1.7383068e-16 -9.6692644)
(226.28235 -1.8725987e-16 -9.5093588)
(225.38478 -2.9795804e-20 -9.3328774)
(224.48928 2.0934231e-16 -9.1400939)
(223.59829 -3.1593233e-16 -8.9314621)
(222.7142 9.2984516e-17 -8.7076182)
(221.83936 3.5204374e-17 -8.4693753)
(220.97601 -4.978038e-17 -8.2177183)
(220.12627 0 -7.9537877)
(219.29213 -8.8578282e-17 -7.6788658)
(218.47539 1.3873006e-16 -7.394355)
(217.67766 -2.0947082e-16 -7.1017553)
(216.90033 1.9681766e-16 -6.8026417)
(216.14458 -2.0875611e-16 -6.498634)
(215.41138 3.9253e-16 -6.1913729)
(214.70147 -3.0761518e-16 -5.8824934)
(214.01536 3.0846831e-16 -5.5735988)
(213.35339 -1.4478397e-16 -5.2662383)
(212.71567 1.3628749e-16 -4.9618858)
(212.10215 -9.5806669e-17 -4.6619197)
(211.51262 3.0042178e-17 -4.3676108)
(210.9467 0 -4.0801059)
(210.40386 0 -3.8004219)
(209.88347 0 -3.529438)
(209.38476 2.3254284e-17 -3.267893)
(208.90684 0 -3.0163832)
(208.44873 -1.636664e-16 -2.7753745)
(208.00932 1.915943e-16 -2.5451976)
(207.58744 -1.0783924e-16 -2.3260635)
(207.18191 -1.1713322e-19 -2.1180985)
(206.79145 2.5228987e-16 -1.9212985)
(206.41461 2.9630705e-17 -1.7355591)
(206.04967 -1.383694e-16 -1.5606733)
(205.6945 5.1888772e-17 -1.396332)
(205.34653 -1.4577082e-16 -1.2421304)
(205.0029 -4.5547924e-17 -1.0975891)
(204.6608 -6.4025826e-17 -0.96218189)
(204.31762 -6.0038795e-17 -0.83531037)
(203.97074 5.6263481e-17 -0.71633384)
(203.61664 0 -0.604945)
(203.25063 0 -0.50106686)
(202.86947 -1.5507694e-17 -0.40331144)
(202.4737 0 -0.3110754)
(202.06032 6.8505542e-18 -0.22980448)
(201.62092 5.1585644e-17 -0.15714745)
(201.188 -7.287635e-17 -0.076488335)
(200.75983 -1.1222155e-20 0.03829414)
(220.0699 0 -20.242295)
(258.28877 -8.8140597e-18 -3.7449949)
(242.04021 2.6660779e-16 -19.956081)
(251.09447 -2.4901669e-16 -5.3984566)
(245.23427 2.5410877e-16 -18.02362)
(248.15582 -2.3248178e-16 -7.8440266)
(245.74525 -2.2161884e-16 -15.812234)
(246.41227 2.0978872e-16 -10.162945)
(245.29716 0 -14.054786)
(245.08753 0 -11.782626)
(244.41505 1.7979477e-16 -13.116601)
(243.9126 -1.7032995e-16 -12.565895)
(243.31574 -1.0118927e-17 -12.871579)
(242.72098 2.8781312e-17 -12.832415)
(242.09691 -9.1082674e-18 -12.904403)
(241.45218 3.4545302e-17 -12.936721)
(240.78444 0 -12.971175)
(240.09419 0 -12.996494)
(239.38138 -2.359245e-16 -13.014079)
(238.64626 2.0923167e-16 -13.022579)
(237.88915 0 -13.021147)
(237.11054 0 -13.0088)
(236.31111 -1.9037785e-16 -12.984555)
(235.49168 3.6028606e-16 -12.94743)
(234.65329 -1.7040361e-16 -12.896445)
(233.79716 -2.0187991e-17 -12.830648)
(232.92473 -3.8235974e-17 -12.749136)
(232.0376 -1.4488266e-16 -12.65107)
(231.13761 1.1962261e-16 -12.535697)
(230.22676 0 -12.402373)
(229.30723 -3.0638004e-17 -12.250583)
(228.38134 0 -12.079963)
(227.45155 0 -11.890313)
(226.52042 2.0683287e-16 -11.68162)
(225.59058 -2.1922655e-16 -11.454067)
(224.66466 2.2997184e-17 -11.208038)
(223.74532 -2.1699275e-17 -10.94413)
(222.83515 -4.1023503e-17 -10.663146)
(221.93665 -8.5325369e-20 -10.366093)
(221.0522 8.1057595e-20 -10.054164)
(220.18403 -7.6502972e-20 -9.7287295)
(219.33416 0 -9.3913112)
(218.50441 -1.2178268e-16 -9.0435616)
(217.69635 1.1435921e-16 -8.687232)
(216.91132 0 -8.3241446)
(216.15038 -5.0687417e-17 -7.9561664)
(215.41437 1.9050954e-16 -7.5851712)
(214.70385 -2.2333063e-16 -7.2130163)
(214.01915 -2.101127e-16 -6.8415125)
(213.3604 1.5752916e-16 -6.4723995)
(212.72749 1.1110334e-16 -6.1073234)
(212.12015 -1.3868224e-16 -5.7478191)
(211.53794 -3.2514121e-17 -5.3952928)
(210.98027 -2.1359869e-16 -5.0510134)
(210.44642 1.142397e-16 -4.7161)
(209.93559 -1.0714559e-16 -4.3915208)
(209.44682 1.0021742e-16 -4.0780899)
(208.97913 2.3481233e-16 -3.7764671)
(208.53142 -1.7561764e-16 -3.4871614)
(208.10254 0 -3.2105439)
(207.69123 -3.8430626e-17 -2.9468486)
(207.29623 -7.1936494e-17 -2.6961845)
(206.91627 1.344151e-16 -2.4585755)
(206.55002 1.2575794e-16 -2.2339231)
(206.19601 -2.3500816e-16 -2.0220256)
(205.85255 8.2305252e-17 -1.8225848)
(205.51753 5.1306001e-17 -1.6352019)
(205.18843 9.5916632e-17 -1.4593902)
(204.86239 1.3446574e-16 -1.2946013)
(204.53654 2.4166095e-20 -1.1402445)
(204.20829 0 -0.99563805)
(203.8751 0 -0.86010642)
(203.53353 -3.421976e-17 -0.73342965)
(203.17894 9.6009928e-17 -0.61535186)
(202.8085 -8.9797452e-17 -0.50394179)
(202.42201 -8.4059545e-17 -0.39995345)
(202.0143 5.2456133e-17 -0.31055306)
(201.58503 0 -0.22247667)
(201.16862 4.6081971e-17 -0.12290715)
(200.70886 1.9316631e-20 -0.060720997)
(220.7148 0 -23.579837)
(259.25502 1.906814e-20 -6.2799111)
(242.47338 9.0722196e-18 -23.336363)
(251.78927 2.884112e-16 -8.0247982)
(245.65733 3.339994e-19 -21.312377)
(248.69281 -5.0588014e-16 -10.617287)
(246.12903 -3.2418319e-19 -18.927587)
(246.8178 4.5626993e-16 -13.091377)
(245.64166 -2.0992939e-16 -17.027124)
(245.38736 -1.2452423e-17 -14.780585)
(244.67121 1.1827023e-17 -16.033086)
(244.11533 -1.7958739e-16 -15.533435)
(243.46962 1.9132838e-16 -15.781921)
(242.82156 -1.8179531e-16 -15.746494)
(242.14393 3.0623846e-16 -15.791385)
(241.44385 -3.0854725e-16 -15.805342)
(240.71954 1.3751649e-16 -15.816106)
(239.97147 0 -15.81624)
(239.1998 0 -15.80601)
(238.40496 1.4648704e-17 -15.784073)
(237.58752 -2.7775763e-17 -15.749367)
(236.74827 0 -15.700748)
(235.8882 1.9946013e-16 -15.63708)
(235.00851 4.7308855e-19 -15.557253)
(234.11064 -3.5697251e-16 -15.460189)
(233.19624 1.6867166e-16 -15.344873)
(232.26719 1.995736e-17 -15.210379)
(231.32559 0 -15.055885)
(230.37373 -1.7878368e-16 -14.880705)
(229.41411 1.3481354e-16 -14.684313)
(228.44936 -2.2356131e-16 -14.466359)
(227.48226 2.1042601e-16 -14.226699)
(226.51568 -2.2774138e-16 -13.9654)
(225.55254 2.1436807e-16 -13.682768)
(224.59577 7.5993113e-17 -13.379341)
(223.64827 0 -13.055899)
(222.71285 0 -12.713461)
(221.79219 4.2355024e-17 -12.353273)
(220.88881 3.9893122e-17 -11.976791)
(220.00501 -3.7558767e-17 -11.585658)
(219.14286 3.5346152e-17 -11.181684)
(218.30415 6.6686625e-17 -10.766806)
(217.49041 -6.2634921e-17 -10.343064)
(216.70285 3.5314273e-16 -9.9125605)
(215.94239 -2.7624015e-16 -9.4774263)
(215.20967 5.1848086e-17 -9.0397881)
(214.50504 -4.8786473e-17 -8.6017322)
(213.82858 0 -8.1652783)
(213.18015 2.1442926e-16 -7.7323502)
(212.55938 -1.6061021e-16 -7.304756)
(211.96571 0 -6.8841662)
(211.39843 0 -6.4721037)
(210.85669 1.3215654e-16 -6.0699294)
(210.33952 -6.1769202e-17 -5.6788394)
(209.84588 0 -5.2998594)
(209.37464 -1.6229737e-16 -4.9338464)
(208.92462 1.0102556e-16 -4.5814925)
(208.49459 1.4180346e-16 -4.2433281)
(208.08327 -1.7638925e-16 -3.91973)
(207.68938 1.6487242e-16 -3.6109368)
(207.31156 -1.5378903e-16 -3.3170511)
(206.94845 6.6747743e-20 -3.0380543)
(206.59873 0 -2.7738449)
(206.26106 6.2509153e-17 -2.5242117)
(205.93396 -2.9144038e-16 -2.2888436)
(205.61578 1.6299263e-16 -2.0673409)
(205.30449 0 -1.8592117)
(204.99762 -1.4171286e-16 -1.6638869)
(204.69232 8.8028864e-17 -1.4807523)
(204.3857 1.2314842e-16 -1.3091477)
(204.07519 3.3665533e-20 -1.1483123)
(203.75835 -7.1273859e-17 -0.99757364)
(203.4318 9.9677734e-17 -0.8567727)
(203.09122 -1.5484507e-16 -0.72530398)
(202.73405 8.6608093e-17 -0.60093616)
(202.35873 2.6906023e-17 -0.48640027)
(201.95928 5.0221374e-17 -0.38858977)
(201.54404 0 -0.28299659)
(201.14185 -4.3750618e-17 -0.17118241)
(200.65821 2.0373022e-17 -0.15694366)
(221.14452 0 -27.085927)
(260.01435 9.807525e-18 -8.9213954)
(242.70564 -3.0585349e-16 -26.841829)
(252.29864 2.4972561e-16 -10.792846)
(245.8838 2.5651957e-16 -24.700289)
(248.98708 -5.0030801e-16 -13.545554)
(246.31056 2.301307e-16 -22.125567)
(246.96587 2.3299108e-16 -16.18233)
(245.74649 -2.2080832e-16 -20.08521)
(245.42927 3.9303812e-17 -17.915068)
(244.66864 0 -19.050917)
(244.05388 0 -18.611506)
(243.35436 -2.2354162e-17 -18.799181)
(242.64719 -1.6971705e-16 -18.763261)
(241.90966 1.4045354e-16 -18.780368)
(241.14758 1.9053303e-17 -18.772445)
(240.3598 -3.6117634e-17 -18.756545)
(239.54694 3.0815529e-16 -18.727607)
(238.70947 -2.2645104e-16 -18.685096)
(237.84815 2.4579271e-16 -18.627559)
(236.96393 -2.0311449e-16 -18.553723)
(236.05801 2.753923e-17 -18.462288)
(235.13185 1.5646e-16 -18.351985)
(234.18713 -1.9678653e-16 -18.221614)
(233.22582 0 -18.070047)
(232.25011 0 -17.896268)
(231.26246 0 -17.699401)
(230.26551 -1.9710088e-16 -17.478733)
(229.26215 1.8566991e-16 -17.233746)
(228.2554 -3.5181746e-17 -16.964139)
(227.24841 0 -16.669854)
(226.24444 -2.8203409e-16 -16.351093)
(225.24674 2.3572044e-16 -16.008326)
(224.25857 -5.5754726e-17 -15.642302)
(223.28311 1.5767647e-16 -15.254052)
(222.32341 -4.8996066e-17 -14.844865)
(221.38234 -1.8585486e-16 -14.416294)
(220.46253 2.1925359e-16 -13.970116)
(219.56636 -1.6460193e-16 -13.50831)
(218.6959 7.7643588e-17 -13.033023)
(217.8529 -7.2856657e-17 -12.546533)
(217.03875 1.369556e-16 -12.051206)
(216.2545 -6.4174512e-17 -11.549457)
(215.50087 -2.4153572e-16 -11.04371)
(214.77824 5.0931035e-16 -10.536355)
(214.08665 -2.1212145e-16 -10.029716)
(213.4259 -1.4948258e-16 -9.5260195)
(212.7955 9.293687e-17 -9.0273639)
(212.19474 8.7424638e-17 -8.5356998)
(211.62275 -1.6354854e-16 -8.0528125)
(211.07847 1.5280625e-16 -7.5803091)
(210.56074 0 -7.1196131)
(210.06831 1.337496e-16 -6.6719586)
(209.59986 -1.8733913e-16 -6.2383928)
(209.15402 5.8381088e-17 -5.8197786)
(208.72941 5.4408362e-17 -5.4168005)
(208.32461 0 -5.0299742)
(207.93822 0 -4.6596543)
(207.56883 0 -4.3060451)
(207.21503 0 -3.9692196)
(206.87542 0 -3.6491222)
(206.54858 -7.1481884e-17 -3.3455851)
(206.23318 0 -3.0583656)
(205.92786 -5.465224e-20 -2.7871263)
(205.63121 2.3081589e-16 -2.5314391)
(205.34162 -2.1471649e-16 -2.2907981)
(205.05716 -9.9951329e-17 -2.0646165)
(204.77544 -1.8584101e-16 -1.8522473)
(204.49366 2.5904439e-16 -1.6530117)
(204.20893 4.5671739e-20 -1.4661765)
(203.91871 7.4608229e-17 -1.2909176)
(203.62061 0 -1.1266016)
(203.31141 0 -0.97305852)
(202.98728 0 -0.82920093)
(202.64576 -1.1135751e-16 -0.6928852)
(202.28343 0 -0.56907269)
(201.89487 -9.6211747e-17 -0.46236847)
(201.49689 1.341428e-16 -0.33822808)
(201.10828 8.3166277e-17 -0.21948168)
(200.60685 -1.9267263e-17 -0.24901419)
(221.36312 0 -30.769383)
(260.57329 0 -11.671448)
(242.7438 3.2178482e-16 -30.479097)
(252.62639 1.9306913e-17 -13.719386)
(245.92472 -2.6927003e-16 -28.197859)
(249.09969 0 -16.651527)
(246.29198 1.6133747e-17 -25.402004)
(246.98732 -3.0582598e-17 -19.427425)
(245.60361 0 -23.208461)
(245.21589 1.9278221e-16 -21.169195)
(244.40376 -4.1737141e-16 -22.166084)
(243.71962 1.976324e-16 -21.794631)
(242.9565 2.3457689e-17 -21.923571)
(242.18031 0 -21.882622)
(241.37297 2.104889e-17 -21.871103)
(240.53917 -3.3953779e-16 -21.836949)
(239.67842 7.4851124e-17 -21.789851)
(238.79162 2.502268e-16 -21.726152)
(237.87966 2.3764127e-16 -21.644822)
(236.94372 -2.5632746e-16 -21.544288)
(235.98527 0 -21.423111)
(235.00606 -2.8761919e-16 -21.27988)
(234.00811 2.4420682e-16 -21.113248)
(232.99375 -2.0584008e-16 -20.921988)
(231.96559 1.9400792e-16 -20.705006)
(230.92649 -1.8386396e-16 -20.461378)
(229.87958 3.4685282e-16 -20.190396)
(228.82817 -1.6368093e-16 -19.891578)
(227.77577 1.5480472e-16 -19.564719)
(226.72597 -2.9185615e-16 -19.209897)
(225.68246 1.3736561e-16 -18.827505)
(224.64891 1.2973347e-16 -18.418254)
(223.62893 -2.447771e-16 -17.983176)
(222.62601 5.6825937e-17 -17.52362)
(221.64345 -5.7576075e-19 -17.041244)
(220.68427 2.5466466e-16 -16.537971)
(219.75125 0 -16.015981)
(218.84676 1.9396084e-19 -15.477662)
(217.97285 0 -14.925562)
(217.13112 -7.94936e-17 -14.362351)
(216.3228 -1.4939578e-16 -13.790772)
(215.5487 7.0143372e-17 -13.213586)
(214.80921 0 -12.63353)
(214.10437 -6.1812066e-17 -12.053274)
(213.43388 2.8931392e-16 -11.475379)
(212.79712 -3.2480775e-16 -10.902267)
(212.1932 -3.0434299e-16 -10.336193)
(211.62103 2.8415957e-16 -9.7792258)
(211.0793 -1.7733514e-16 -9.2332289)
(210.56659 0 -8.6998583)
(210.08139 0 -8.180556)
(209.62211 7.2376915e-17 -7.6765517)
(209.18712 6.7544811e-17 -7.1888687)
(208.77478 1.2587975e-16 -6.7183305)
(208.38348 -5.8698936e-17 -6.2655713)
(208.01162 -1.0934235e-16 -5.8310482)
(207.65761 -2.039036e-16 -5.4150538)
(207.31993 -9.5126931e-17 -5.0177283)
(206.99709 1.7660612e-16 -4.6390733)
(206.68762 0 -4.2789722)
(206.39008 -7.649497e-17 -3.937192)
(206.10309 -1.4218783e-16 -3.6134034)
(205.8253 1.3210539e-16 -3.3072141)
(205.55542 6.1273111e-17 -3.0181542)
(205.29208 5.6989007e-17 -2.7456767)
(205.03377 0 -2.4891695)
(204.77867 1.9646667e-16 -2.2479552)
(204.52451 1.8230277e-16 -2.0213152)
(204.26855 -2.5367696e-16 -1.8085065)
(204.00797 7.8456104e-17 -1.6087224)
(203.74022 -7.2721124e-17 -1.421104)
(203.46291 -4.3943481e-20 -1.2450805)
(203.17312 2.4994599e-16 -1.0803594)
(202.86767 -2.3164883e-16 -0.92531546)
(202.54389 5.3631518e-17 -0.77836858)
(202.19622 1.4918492e-16 -0.64658614)
(201.82112 -4.6085773e-17 -0.53040095)
(201.44305 -4.2690209e-17 -0.38747976)
(201.06753 0 -0.26589379)
(200.55348 3.6559359e-17 -0.33348807)
(221.38123 3.9137132e-16 -34.639961)
(260.93708 5.4346298e-19 -14.537443)
(242.56606 -3.5865831e-16 -34.264455)
(252.76629 0 -16.810207)
(245.70335 0 -31.771329)
(248.87226 -2.6758579e-16 -19.931015)
(245.96743 2.7069913e-16 -28.733366)
(246.49297 6.4203499e-17 -22.833495)
(245.18961 -2.4369047e-16 -26.432017)
(244.72273 2.3049782e-16 -24.569082)
(243.84855 -2.4635403e-16 -25.405785)
(243.08217 2.0706168e-16 -25.0979)
(242.24333 -4.9123021e-17 -25.167678)
(241.38641 -4.6583072e-17 -25.112115)
(240.49773 -1.7652222e-16 -25.066955)
(239.58111 1.6672884e-16 -24.998825)
(238.63676 -3.5606334e-16 -24.912571)
(237.66597 5.9852417e-16 -24.805233)
(236.67017 -2.8279627e-16 -24.675388)
(235.65116 -2.6833315e-16 -24.521324)
(234.61104 2.5304115e-16 -24.341467)
(233.55226 -3.0135105e-17 -24.134336)
(232.47762 -2.2684152e-16 -23.89858)
(231.39021 2.1368647e-16 -23.633043)
(230.29343 2.5314155e-16 -23.33678)
(229.19095 -1.4273777e-16 -23.009104)
(228.08664 0 -22.649632)
(226.98457 2.5527927e-16 -22.2583)
(225.88888 -3.2064072e-16 -21.835403)
(224.80374 1.1281959e-16 -21.381602)
(223.73328 -2.8524907e-16 -20.897937)
(222.68151 2.0097056e-16 -20.385824)
(221.65225 -6.3326722e-17 -19.847036)
(220.64902 2.3798007e-16 -19.283679)
(219.67503 -2.2322934e-16 -18.698167)
(218.73307 -2.10394e-16 -18.093165)
(217.82551 1.9719641e-16 -17.471549)
(216.95425 -4.6251078e-17 -16.836349)
(216.1207 0 -16.190687)
(215.32578 8.184833e-17 -15.537724)
(214.56994 -7.6392403e-17 -14.880603)
(213.85317 0 -14.222391)
(213.17505 1.3451891e-16 -13.566039)
(212.53482 -6.2925875e-17 -12.914335)
(211.93135 -1.7644074e-16 -12.269876)
(211.36327 5.5036475e-16 -11.635039)
(210.82901 -2.0606497e-16 -11.011968)
(210.32681 9.6110577e-17 -10.402563)
(209.85481 -2.6949411e-16 -9.808477)
(209.4111 -1.8488027e-19 -9.2311178)
(208.99372 1.5625557e-16 -8.6716575)
(208.60071 -1.4576939e-16 -8.131041)
(208.23015 -6.7837678e-17 -7.610001)
(207.88018 -6.3190091e-17 -7.1090719)
(207.54898 -1.1799134e-16 -6.6286055)
(207.23482 2.1911636e-16 -6.1687879)
(206.93603 0 -5.7296549)
(206.65101 9.4689843e-17 -5.311107)
(206.37826 -3.5234699e-16 -4.9129246)
(206.11632 2.4522059e-16 -4.534789)
(205.86378 7.5890093e-17 -4.176282)
(205.61928 1.4098412e-16 -3.8369094)
(205.38156 1.3099553e-16 -3.5161302)
(205.14939 -1.2120196e-16 -3.2133428)
(204.92148 -1.1231551e-16 -2.9278859)
(204.69645 -3.1243791e-16 -2.659047)
(204.4726 -4.1270703e-20 -2.4060673)
(204.24782 -8.9287988e-17 -2.1681636)
(204.01949 0 -1.9445287)
(203.78484 -2.2953362e-16 -1.7342893)
(203.54132 7.0779107e-17 -1.5365889)
(203.28651 0 -1.3509182)
(203.01788 1.2109431e-16 -1.1767273)
(202.73306 0 -1.0119093)
(202.42879 1.034527e-16 -0.85594122)
(202.09736 -1.4336741e-16 -0.71747731)
(201.73835 1.3249096e-16 -0.59122523)
(201.38232 -8.1595622e-17 -0.4302089)
(201.01885 7.536591e-17 -0.30969208)
(200.49744 0 -0.40999216)
(221.18651 -4.1114444e-16 -38.704038)
(261.09294 3.6315141e-16 -17.537147)
(242.13655 -3.3273511e-16 -38.227969)
(252.65101 3.3085445e-16 -20.078159)
(245.19669 3.1684244e-16 -35.403253)
(248.416 -1.8007998e-17 -23.396057)
(245.39946 -2.8369684e-16 -32.14748)
(245.86937 -2.6931278e-16 -26.431867)
(244.47967 2.866491e-16 -29.775381)
(243.90496 0 -28.116201)
(242.95826 2.8602512e-17 -28.777311)
(242.09704 0 -28.520768)
(241.16979 -1.2865023e-16 -28.53091)
(240.21984 2.4290869e-16 -28.449084)
(239.23762 0 -28.362474)
(238.22648 0 -28.250082)
(237.18743 0 -28.113713)
(236.12239 3.9123106e-17 -27.950682)
(235.03353 0 -27.759274)
(233.92344 -2.446943e-16 -27.537679)
(232.79511 3.2968759e-16 -27.284258)
(231.65189 1.2475088e-16 -26.997569)
(230.49752 1.7689415e-16 -26.676383)
(229.33607 -2.7785408e-16 -26.319775)
(228.17186 -5.2360519e-17 -25.927137)
(227.00947 -2.4780172e-16 -25.498238)
(225.85361 1.8650318e-16 -25.033247)
(224.70906 -2.2028578e-16 -24.532773)
(223.58057 8.2417239e-17 -23.997858)
(222.47278 7.7923475e-17 -23.429992)
(221.39013 0 -22.831097)
(220.33673 2.7722856e-16 -22.203495)
(219.31635 -2.6037663e-16 -21.549879)
(218.33228 0 -20.873255)
(217.38729 -2.3019328e-16 -20.176892)
(216.48361 2.1560997e-16 -19.464252)
(215.62288 -1.0161139e-16 -18.738918)
(214.80616 1.9023928e-16 -18.00453)
(214.03394 -2.6730405e-16 -17.264712)
(213.30617 1.2827157e-19 -16.523004)
(212.62228 -1.5618118e-16 -15.782812)
(211.98128 -7.3093359e-17 -15.047348)
(211.38178 -1.3718936e-16 -14.3196)
(210.82208 2.5574405e-16 -13.602296)
(210.30023 -1.1934424e-16 -12.897885)
(209.81409 0 -12.208528)
(209.3614 -3.8257394e-19 -11.536095)
(208.93981 9.7089956e-17 -10.882171)
(208.54697 0 -10.248066)
(208.18053 8.4450094e-17 -9.6348278)
(207.83821 7.8965188e-17 -9.0432625)
(207.51779 -7.3316725e-17 -8.4739529)
(207.21716 2.7296816e-16 -7.9272783)
(206.93429 -2.5376028e-16 -7.4034357)
(206.66728 -1.1802081e-16 -6.9024584)
(206.41437 -1.096406e-16 -6.424236)
(206.17385 1.0180562e-16 -5.9685306)
(205.94418 1.8884809e-16 -5.5349935)
(205.72386 -3.5030296e-16 -5.12318)
(205.5115 4.059762e-16 -4.7325702)
(205.30578 -1.5042609e-16 -4.3625638)
(205.10545 1.3943308e-16 -4.0125087)
(204.90932 -1.2907178e-16 -3.6817247)
(204.71626 2.3904314e-16 -3.3694872)
(204.52511 -3.3183775e-16 -3.0750307)
(204.33461 2.0455873e-16 -2.7975542)
(204.14324 -8.1178214e-20 -2.5362306)
(203.94903 8.7435611e-17 -2.2902195)
(203.74956 0 -2.058649)
(203.54213 0 -1.8405957)
(203.32414 0 -1.6352467)
(203.09315 -1.2706478e-16 -1.4421165)
(202.84714 1.5712254e-20 -1.2602698)
(202.58453 0 -1.0873094)
(202.30113 0 -0.92417875)
(201.98745 9.1900206e-17 -0.78019397)
(201.64732 -1.6935615e-16 -0.64337228)
(201.315 0 -0.46602608)
(200.96171 0 -0.35131558)
(200.43854 -1.3191286e-16 -0.48128335)
(220.74531 2.7753769e-17 -42.971191)
(261.00383 -7.8625619e-16 -20.693187)
(241.42769 3.4810139e-16 -42.331603)
(252.00925 -2.1747736e-17 -23.527386)
(244.37457 3.7345038e-16 -39.156817)
(247.62454 -3.5217187e-16 -27.08506)
(244.52091 0 -35.678332)
(244.85867 -3.1723651e-16 -30.2227)
(243.41743 2.3321323e-16 -33.233871)
(242.71836 2.2150985e-16 -31.802728)
(241.6856 -2.391022e-16 -32.283067)
(240.71543 0 -32.058916)
(239.68529 1.9122362e-19 -32.007286)
(238.62869 0 -31.885324)
(237.53967 3.8516032e-16 -31.745842)
(236.42162 -7.2760567e-16 -31.575487)
(235.2765 3.4350845e-16 -31.374238)
(234.10711 -4.0578294e-17 -31.139511)
(232.91664 -3.8560068e-17 -30.869411)
(231.70877 3.6649869e-17 -30.562119)
(230.4876 -6.8437682e-17 -30.216086)
(229.25767 -3.2421341e-16 -29.830071)
(228.02386 3.0514188e-16 -29.4032)
(226.79136 5.7523807e-17 -28.935033)
(225.56557 -2.7261888e-16 -28.425586)
(224.35199 -6.9998788e-19 -27.875394)
(223.15614 2.8955064e-16 -27.285508)
(221.98343 -1.8173637e-16 -26.65751)
(220.83905 -6.1509417e-19 -25.9935)
(219.72786 0 -25.29607)
(218.65428 0 -24.568255)
(217.6222 -7.1517943e-17 -23.813483)
(216.63491 1.3389067e-16 -23.035506)
(215.69504 0 -22.238314)
(214.80449 -1.1834467e-16 -21.426058)
(213.96449 2.2143923e-16 -20.602963)
(213.17555 -1.037436e-16 -19.773231)
(212.43753 -1.9442121e-16 -18.940977)