/*--------------------------------*- C++ -*----------------------------------*\
  =========                 |
  \\      /  F ield         | OpenFOAM: The Open Source CFD Toolbox
   \\    /   O peration     | Website:  https://openfoam.org
    \\  /    A nd           | Version:  12
     \\/     M anipulation  |
\*---------------------------------------------------------------------------*/
FoamFile
{
    format      ascii;
    class       volScalarField;
    location    "0.097";
    object      Ma;
}
// * * * * * * * * * * * * * * * * * * * * * * * * * * * * * * * * * * * * * //

dimensions      [];

internalField   nonuniform List<scalar> 
16000
(
0.62710355
0.74482458
0.69987595
0.72448959
0.70946542
0.71637587
0.71067904
0.7121864
0.70953998
0.70908932
0.70746338
0.70632378
0.70490531
0.70352051
0.70205336
0.7005396
0.698968
0.69734019
0.69565492
0.69391174
0.69211027
0.69025037
0.68833214
0.68635597
0.68432256
0.68223293
0.68008846
0.67789094
0.67564253
0.67334581
0.6710038
0.66861995
0.66619811
0.66374257
0.66125802
0.6587495
0.6562224
0.65368238
0.65113538
0.64858746
0.64604484
0.64351375
0.6410004
0.63851088
0.63605109
0.63362668
0.63124296
0.62890486
0.62661685
0.62438292
0.62220648
0.62009041
0.61803698
0.61604785
0.61412412
0.6122663
0.61047439
0.60874792
0.60708598
0.60548705
0.60394906
0.60246955
0.60104563
0.59967365
0.5983493
0.59706761
0.59582286
0.59460859
0.59341764
0.59224268
0.59107695
0.58991502
0.58875205
0.58757995
0.58638628
0.58516637
0.58391593
0.582568
0.5810215
0.57992239
0.63161713
0.75007926
0.7034126
0.72916619
0.7133207
0.72069278
0.71455162
0.71617599
0.71334826
0.71282472
0.71111139
0.70985587
0.70834575
0.70684646
0.70527031
0.70363957
0.70194835
0.7001966
0.69838369
0.69650924
0.69457311
0.69257546
0.69051671
0.68839767
0.68621947
0.68398366
0.68169218
0.67934741
0.67695217
0.67450975
0.67202389
0.6694988
0.66693911
0.66434989
0.66173659
0.65910504
0.65646133
0.6538118
0.65116297
0.64852146
0.64589388
0.64328678
0.64070657
0.6381594
0.63565114
0.63318726
0.63077277
0.6284122
0.62610953
0.62386815
0.62169085
0.61957979
0.61753652
0.61556196
0.61365647
0.61181983
0.61005134
0.60834987
0.60671391
0.60514148
0.60363006
0.60217684
0.60077866
0.59943172
0.59813163
0.59687342
0.59565147
0.59445941
0.5932901
0.59213588
0.59098942
0.58984489
0.58869705
0.5875369
0.58635307
0.58514279
0.58388573
0.58251197
0.58107904
0.57972764
0.63583398
0.75489478
0.70702298
0.73324852
0.71694709
0.72442254
0.71812258
0.71963661
0.7167536
0.71607356
0.71429189
0.71289845
0.71128377
0.7096574
0.70795638
0.70619423
0.70436766
0.70247633
0.70051991
0.69849832
0.69641178
0.69426084
0.6920464
0.68976976
0.68743264
0.68503721
0.68258609
0.6800824
0.67752976
0.67493231
0.67229466
0.66962193
0.66691968
0.66419391
0.66145099
0.65869759
0.65594062
0.65318716
0.65044436
0.64771933
0.64501908
0.64235041
0.63971978
0.63713331
0.63459662
0.63211483
0.62969245
0.62733339
0.6250409
0.62281757
0.62066532
0.6185854
0.61657843
0.61464442
0.61278281
0.61099253
0.60927205
0.60761948
0.60603262
0.60450892
0.60304539
0.60163879
0.60028568
0.59898206
0.59772347
0.59650491
0.59532086
0.59416516
0.59303077
0.59190993
0.59079497
0.58967962
0.58855801
0.58742074
0.58625817
0.58506613
0.58381205
0.58244591
0.58106959
0.57956984
0.63968938
0.75929128
0.7100736
0.73682714
0.72011853
0.72770001
0.72123529
0.72261806
0.71967133
0.7188145
0.71694996
0.71540208
0.71366456
0.7118947
0.7100511
0.70814056
0.70616176
0.70411436
0.70199836
0.69981406
0.69756208
0.69524343
0.69285956
0.69041237
0.68790425
0.68533813
0.68271746
0.68004628
0.67732918
0.67457131
0.67177836
0.66895652
0.66611245
0.66325318
0.6603861
0.6575188
0.65465903
0.65181458
0.64899315
0.64620227
0.64344915
0.64074065
0.6380831
0.6354823
0.63294338
0.63047082
0.62806835
0.625739
0.62348503
0.62130798
0.61920869
0.61718733
0.61524341
0.61337589
0.6115832
0.60986333
0.60821387
0.60663213
0.60511519
0.60365994
0.6022629
0.60092048
0.59962892
0.59838411
0.59718149
0.59601613
0.59488263
0.59377504
0.59268654
0.59160936
0.59053555
0.58945835
0.58837116
0.58726462
0.58613086
0.58496215
0.58371774
0.58237282
0.58103251
0.57942778
0.64316749
0.76320311
0.7128867
0.73977074
0.72267481
0.73041338
0.72383118
0.72502379
0.72203097
0.72096311
0.71900484
0.71728477
0.71540581
0.71347679
0.71147355
0.70939852
0.70725139
0.70503198
0.70274059
0.7003779
0.69794499
0.69544346
0.69287543
0.69024359
0.68755123
0.68480228
0.68200129
0.67915346
0.67626462
0.67334121
0.67039019
0.66741905
0.66443569
0.66144833
0.65846544
0.65549555
0.65254722
0.64962884
0.64674853
0.64391401
0.6411325
0.6384106
0.6357542
0.63316846
0.63065769
0.62822538
0.62587419
0.62360593
0.62142162
0.6193215
0.61730512
0.61537136
0.61351853
0.61174442
0.61004639
0.60842143
0.60686624
0.60537734
0.60395113
0.60258391
0.60127178
0.60001082
0.59879704
0.59762622
0.5964938
0.59539492
0.59432437
0.59327648
0.59224472
0.59122146
0.59019864
0.58916892
0.58812487
0.58705767
0.58596095
0.58482192
0.58359557
0.58228327
0.58097236
0.57929204
0.64621667
0.76654493
0.71523983
0.74225841
0.72488404
0.73248256
0.7257717
0.72677502
0.72373958
0.72244651
0.72038234
0.71847919
0.71644284
0.71434167
0.7121635
0.7099084
0.70757648
0.70516796
0.70268358
0.70012463
0.69749292
0.69479096
0.69202184
0.68918942
0.68629822
0.68335352
0.68036132
0.67732831
0.67426187
0.67116997
0.66806112
0.66494426
0.66182867
0.65872381
0.65563919
0.65258424
0.64956814
0.64659968
0.6436871
0.64083801
0.63805922
0.63535669
0.63273548
0.63019965
0.6277523
0.62539557
0.62313064
0.62095783
0.61887661
0.61688574
0.61498328
0.61316672
0.61143306
0.6097789
0.60820051
0.60669389
0.60525493
0.60387939
0.60256307
0.60130177
0.60009124
0.59892729
0.59780581
0.59672253
0.59567295
0.59465237
0.5936558
0.59267793
0.59171259
0.59075246
0.58978945
0.5888156
0.58782266
0.58680272
0.58575041
0.58464666
0.58344603
0.58217644
0.5808949
0.57915411
0.6488093
0.7693
0.71713938
0.74425086
0.72663019
0.73388972
0.72721188
0.72783938
0.72481652
0.72324476
0.72106031
0.71896302
0.71674935
0.71445752
0.71208299
0.70962533
0.70708522
0.70446368
0.7017623
0.69898336
0.69612985
0.69320554
0.69021494
0.68716344
0.68405723
0.6809033
0.67770948
0.67448428
0.67123692
0.66797716
0.66471522
0.66146161
0.658227
0.65502202
0.6518571
0.64874231
0.64568714
0.64270038
0.63978998
0.63696292
0.63422511
0.63158136
0.62903533
0.62658953
0.62424539
0.62200326
0.61986254
0.61782172
0.61587853
0.61403004
0.61227275
0.6106027
0.60901558
0.60750681
0.60607164
0.60470521
0.60340266
0.60215914
0.60096995
0.59983051
0.59873633
0.59768307
0.59666658
0.59568265
0.59472695
0.59379497
0.59288206
0.59198326
0.59109289
0.59020406
0.58930879
0.58839843
0.58746399
0.58649882
0.58549767
0.58443436
0.58326725
0.58204983
0.58079867
0.57900983
0.65098799
0.77149957
0.71862877
0.74577751
0.72796489
0.73486255
0.72816062
0.72865874
0.72522961
0.72338062
0.72104005
0.71872227
0.71629685
0.71378241
0.71117861
0.70848572
0.7057052
0.70283915
0.69989035
0.69686248
0.69376002
0.69058845
0.68735413
0.68406441
0.68072753
0.67735266
0.67394978
0.67052958
0.66710336
0.66368285
0.66028005
0.656907
0.65357564
0.65029753
0.64708366
0.64394427
0.64088868
0.63792509
0.6350605
0.63230061
0.6296498
0.62711107
0.62468611
0.62237535
0.62017804
0.61809241
0.61611572
0.61424446
0.61247447
0.61080106
0.60921915
0.60772339
0.60630824
0.6049681
0.60369733
0.60249036
0.60134175
0.60024623
0.59919874
0.59819449
0.59722889
0.59629758
0.59539648
0.59452156
0.59366872
0.59283377
0.59201243
0.59120018
0.59039188
0.58958122
0.5887604
0.58792005
0.58705069
0.58614704
0.58520276
0.58418454
0.58305895
0.58190158
0.58067989
0.57885657
0.65282048
0.77317207
0.71966488
0.74683624
0.72864303
0.73489109
0.72828251
0.72798094
0.72493544
0.72280011
0.72025414
0.71767974
0.71500048
0.71222411
0.70935206
0.70638582
0.70332791
0.70018181
0.69695194
0.69364378
0.69026384
0.6868198
0.68332038
0.67977543
0.67619576
0.67259313
0.66898006
0.66536969
0.66177557
0.65821143
0.65469095
0.65122749
0.64783385
0.64452203
0.64130297
0.63818641
0.63518066
0.63229255
0.62952729
0.62688851
0.62437824
0.62199699
0.61974388
0.61761673
0.61561224
0.6137262
0.61195358
0.61028876
0.60872569
0.60725799
0.60587915
0.60458258
0.60336171
0.60221012
0.60112153
0.60008989
0.59910939
0.59817453
0.59728013
0.59642134
0.59559362
0.59479275
0.59401483
0.59325614
0.5925129
0.59178132
0.59105756
0.59033758
0.58961683
0.58888972
0.58814867
0.58738364
0.58658499
0.58574864
0.58486576
0.58389704
0.58282143
0.58173067
0.58053585
0.57869277
0.65430461
0.77429056
0.72017384
0.74722552
0.72859695
0.73437723
0.72780353
0.72712148
0.7238693
0.72138244
0.71858141
0.71571291
0.71273647
0.70965584
0.70647349
0.70319268
0.6998176
0.69635373
0.69280772
0.68918754
0.68550244
0.68176295
0.67798088
0.67416916
0.67034173
0.66651336
0.66269944
0.65891568
0.65517786
0.65150151
0.6479016
0.64439224
0.64098642
0.6376957
0.63453004
0.6314976
0.62860467
0.62585561
0.62325287
0.62079705
0.61848707
0.61632026
0.61429263
0.61239903
0.61063338
0.60898892
0.60745833
0.60603399
0.60470813
0.60347293
0.60232068
0.60124385
0.60023518
0.59928769
0.59839475
0.5975501
0.59674784
0.59598247
0.59524887
0.59454236
0.59385858
0.59319359
0.59254384
0.59190594
0.59127659
0.59065247
0.59003021
0.58940628
0.58877682
0.58813698
0.58747941
0.58679365
0.58607023
0.58530566
0.58448739
0.58357245
0.58255578
0.58153687
0.58036455
0.57851895
0.6553774
0.77475148
0.72007738
0.74607614
0.72777631
0.73301469
0.72653436
0.72525445
0.72187375
0.71901048
0.71589701
0.71268883
0.70936615
0.70593308
0.70239341
0.69875271
0.69501763
0.69119645
0.68729892
0.68333639
0.67932172
0.67526923
0.67119451
0.66711427
0.66304606
0.65900797
0.65501831
0.65109525
0.64725641
0.64351851
0.639897
0.63640573
0.63305664
0.62985958
0.62682213
0.62394953
0.62124471
0.61870835
0.61633906
0.61413357
0.61208695
0.61019291
0.60844404
0.60683211
0.60534828
0.60398338
0.60272807
0.60157305
0.60050917
0.59952757
0.59861974
0.59777761
0.59699357
0.59626046
0.59557162
0.59492088
0.5943025
0.59371123
0.59314224
0.59259114
0.59205396
0.59152714
0.59100757
0.59049233
0.58997865
0.58946373
0.58894471
0.58841863
0.58788233
0.58733167
0.58675959
0.58615557
0.58551065
0.58482086
0.58406894
0.58321213
0.58226361
0.5813188
0.58016269
0.57833892
0.6559482
0.7743892
0.71926307
0.74427204
0.72633739
0.73073138
0.72432741
0.72244088
0.71882674
0.7155468
0.71205708
0.70845429
0.70472936
0.70088904
0.69693941
0.69288925
0.68874877
0.68453022
0.68024768
0.67591706
0.67155592
0.66718327
0.66281927
0.6584849
0.65420156
0.64999064
0.64587302
0.64186866
0.63799608
0.63427193
0.63071065
0.62732412
0.6241215
0.62110908
0.61829032
0.61566594
0.6132341
0.61099065
0.60892948
0.60704281
0.60532153
0.60375559
0.60233425
0.60104641
0.59988086
0.59882645
0.59787232
0.59700799
0.59622348
0.59550939
0.59485689
0.59425783
0.59370463
0.59319036
0.59270864
0.59225368
0.59182017
0.59140329
0.5909987
0.59060247
0.59021114
0.58982164
0.58943136
0.58903796
0.58863923
0.58823293
0.58781676
0.58738833
0.58694516
0.58648375
0.58599741
0.5854761
0.58491155
0.58429783
0.58361259
0.58281843
0.58194683
0.58107453
0.57992998
0.57814949
0.65595546
0.77313048
0.7175946
0.74172478
0.72402193
0.72742756
0.72105864
0.71851079
0.71458084
0.71083298
0.70689462
0.70283073
0.69863802
0.69432744
0.68990903
0.68539623
0.68080449
0.67615161
0.67145747
0.66674388
0.66203414
0.65735278
0.65272498
0.64817613
0.64373119
0.63941413
0.63524734
0.63125099
0.6274426
0.62383659
0.62044401
0.61727241
0.61432578
0.61160477
0.60910685
0.60682669
0.60475654
0.60288668
0.60120584
0.59970164
0.59836096
0.59717035
0.59611626
0.59518537
0.59436474
0.59364197
0.59300535
0.59244391
0.59194746
0.5915066
0.59111273
0.59075803
0.59043541
0.59013848
0.58986145
0.58959914
0.58934689
0.58910054
0.58885633
0.58861095
0.58836149
0.58810549
0.58784092
0.58756601
0.58727915
0.58697871
0.58666294
0.58633004
0.58597814
0.58560423
0.58520214
0.58476302
0.58427928
0.5837413
0.58312193
0.58239471
0.58160808
0.58080422
0.579665
0.57795133
0.65537986
0.77087722
0.71500203
0.7380852
0.72069485
0.72298931
0.71657893
0.71331858
0.70896186
0.70467457
0.70020224
0.69559661
0.69085962
0.68600817
0.68105858
0.6760311
0.67094834
0.66583546
0.66071962
0.65562969
0.65059555
0.64564759
0.64081591
0.63612959
0.63161586
0.62729938
0.62320155
0.61933993
0.61572789
0.61237438
0.60928397
0.60645697
0.60388982
0.60157549
0.59950404
0.59766316
0.59603877
0.5946155
0.59337728
0.59230769
0.59139037
0.59060935
0.5899492
0.58939532
0.58893395
0.58855233
0.58823868
0.58798225
0.58777326
0.58760291
0.58746328
0.58734731
0.58724873
0.58716197
0.58708208
0.58700471
0.58692598
0.5868425
0.58675124
0.58664955
0.58653515
0.58640624
0.58626135
0.58609933
0.58591918
0.58571987
0.5855002
0.58525896
0.58499475
0.5847049
0.58438403
0.58402513
0.58362112
0.58315729
0.58260246
0.58194567
0.58125073
0.58051175
0.5793713
0.57774526
0.65416299
0.76745863
0.71143224
0.73327002
0.71619518
0.71724788
0.71068797
0.70664696
0.7017358
0.69681395
0.69170748
0.68646688
0.68110193
0.6756378
0.67009983
0.66451734
0.65892217
0.65334852
0.64783217
0.64240985
0.63711818
0.63199279
0.62706719
0.62237178
0.61793287
0.61377198
0.60990528
0.60634334
0.60309117
0.60014842
0.59750992
0.59516623
0.59310438
0.59130861
0.58976113
0.58844278
0.5873337
0.58641381
0.58566332
0.58506303
0.58459463
0.58424086
0.58398566
0.58381422
0.58371302
0.58366977
0.58367345
0.58371417
0.58378315
0.58387264
0.5839758
0.58408665
0.58419999
0.58431129
0.58441661
0.58451253
0.58459607
0.58466467
0.58471607
0.58474835
0.58475987
0.58474946
0.58471625
0.58465967
0.58457932
0.58447472
0.58434528
0.5841903
0.5840087
0.58379802
0.58355401
0.58327197
0.58294509
0.58255293
0.58206165
0.5814777
0.58087808
0.58020315
0.57905964
0.5775348
0.65225027
0.76263651
0.7069289
0.72708768
0.71031616
0.70997781
0.70311627
0.69819842
0.69258362
0.68690937
0.68105763
0.67508461
0.66901168
0.66287486
0.65671123
0.6505617
0.64446946
0.63847932
0.63263643
0.62698495
0.62156661
0.61641927
0.61157563
0.60706217
0.6028985
0.59909699
0.59566286
0.59259453
0.58988435
0.58751943
0.58548261
0.58375349
0.58230938
0.58112622
0.58017933
0.57944412
0.57889654
0.57851358
0.57827345
0.57815589
0.57814217
0.57821521
0.57835955
0.57856129
0.57880806
0.57908888
0.57939408
0.5797152
0.58004489
0.58037677
0.58070538
0.58102601
0.58133468
0.58162803
0.58190318
0.58215773
0.58238962
0.58259714
0.5827788
0.58293338
0.58305992
0.58315783
0.5832268
0.58326681
0.58327799
0.58326042
0.58321408
0.58313874
0.58303344
0.58289595
0.5827234
0.58251358
0.58225956
0.58193582
0.5815081
0.58099916
0.58049356
0.57988325
0.57874623
0.57731242
0.64958379
0.75602238
0.70137537
0.71927454
0.70274947
0.70083302
0.69347615
0.6875595
0.68108154
0.67452759
0.66782155
0.66102939
0.65418851
0.64734943
0.64056457
0.63388936
0.62738019
0.62109263
0.61507937
0.6093882
0.60406016
0.59912817
0.59461601
0.59053799
0.58689908
0.58369558
0.58091606
0.57854267
0.57655243
0.57491864
0.57361214
0.5726025
0.57185895
0.57135122
0.57105013
0.57092805
0.57095917
0.57111972
0.57138801
0.57174446
0.57217152
0.57265362
0.57317697
0.57372954
0.57430079
0.57488165
0.57546428
0.57604199
0.5766091
0.57716083
0.57769318
0.57820285
0.57868711
0.57914377
0.57957106
0.57996756
0.58033212
0.58066383
0.58096197
0.58122599
0.58145553
0.58165054
0.58181123
0.58193804
0.58203157
0.58209247
0.58212123
0.58211799
0.58208186
0.58201088
0.58190374
0.58176033
0.58157317
0.58131353
0.5809505
0.58051947
0.58010112
0.57955004
0.5784368
0.57708659
0.64602883
0.7469486
0.694159
0.70937881
0.69303865
0.68933828
0.68126215
0.67421346
0.66671484
0.65915712
0.65150303
0.64383363
0.63620892
0.62869946
0.62137665
0.6143117
0.60757222
0.60121947
0.59530568
0.58987205
0.58494754
0.58054842
0.57667867
0.57333097
0.57048823
0.56812541
0.56621141
0.56471095
0.56358629
0.56279871
0.56230969
0.56208193
0.56207998
0.56227072
0.56262367
0.56311108
0.56370798
0.56439209
0.56514371
0.56594551
0.5667824
0.5676413
0.56851096
0.56938175
0.57024549
0.57109531
0.57192543
0.57273109
0.57350838
0.57425415
0.57496589
0.57564166
0.57627997
0.57687976
0.57744027
0.57796103
0.57844172
0.5788822
0.57928241
0.57964242
0.57996244
0.58024287
0.58048435
0.58068772
0.58085402
0.58098434
0.58107969
0.58114047
0.58116588
0.58115449
0.58110644
0.5810228
0.58089495
0.58069391
0.58039689
0.5800479
0.57970923
0.579202
0.57812107
0.57688131
0.64129786
0.73542462
0.68485131
0.69683973
0.68060437
0.67493244
0.66587291
0.65754058
0.64886881
0.64020029
0.63154534
0.62300884
0.61468013
0.60665276
0.59901503
0.59184682
0.58521555
0.57917341
0.57375573
0.56898061
0.56484965
0.56134967
0.55845504
0.5561303
0.55433296
0.55301603
0.55213031
0.55162627
0.55145558
0.55157218
0.55193304
0.55249858
0.55323293
0.55410393
0.55508303
0.55614515
0.55726839
0.55843377
0.55962498
0.56082807
0.56203122
0.56322445
0.56439944
0.56554927
0.56666827
0.56775186
0.56879635
0.56979889
0.57075729
0.57166993
0.57253572
0.57335397
0.57412433
0.57484676
0.57552143
0.57614868
0.57672896
0.57726281
0.57775075
0.57819339
0.57859143
0.57894565
0.57925705
0.57952678
0.57975622
0.57994691
0.58010021
0.58021676
0.580296
0.58033735
0.58034211
0.58031123
0.58023443
0.58008565
0.57985495
0.57959215
0.5793279
0.57884568
0.57779866
0.57670455
0.63503133
0.72245799
0.672893
0.68106926
0.6647282
0.65689366
0.64653989
0.63675332
0.62679106
0.61697909
0.60738765
0.59815094
0.58938474
0.5811956
0.57367186
0.56688054
0.5608649
0.55564437
0.55121596
0.54755707
0.54462915
0.54238163
0.5407559
0.53968885
0.53911594
0.53897358
0.53920093
0.5397411
0.54054195
0.54155638
0.54274242
0.54406308
0.5454861
0.54698353
0.54853142
0.5501093
0.55169989
0.55328864
0.55486342
0.55641417
0.55793268
0.55941225
0.56084754
0.56223434
0.56356942
0.56485036
0.56607545
0.56724355
0.56835404
0.56940672
0.5704017
0.57133943
0.57222053
0.57304585
0.57381634
0.57453307
0.57519713
0.57580961
0.5763716
0.57688412
0.57734829
0.5777652
0.57813612
0.57846244
0.57874586
0.57898819
0.57919109
0.57935538
0.57948103
0.57956852
0.57961996
0.57963505
0.57960171
0.57949909
0.57933231
0.57915463
0.57896078
0.5784984
0.5774887
0.57657326
0.62690213
0.70548778
0.65744942
0.66117968
0.64436531
0.63416252
0.62223064
0.61088704
0.59966527
0.58888592
0.57867563
0.56918478
0.5605302
0.5527996
0.5460463
0.54029005
0.53551957
0.53169732
0.52876511
0.5266502
0.52527101
0.52454212
0.5243783
0.52469753
0.52542307
0.52648477
0.52781959
0.52937179
0.53109267
0.53294016
0.53487825
0.53687634
0.53890868
0.54095372
0.54299356
0.54501346
0.54700138
0.54894759
0.5508443
0.55268539
0.55446611
0.55618292
0.55783325
0.55941535
0.56092817
0.56237122
0.56374451
0.56504841
0.56628363
0.56745115
0.56855214
0.56958795
0.57056006
0.57147002
0.57231946
0.57311001
0.57384331
0.57452091
0.57514433
0.57571502
0.57623436
0.57670375
0.57712461
0.57749858
0.57782754
0.57811351
0.57835827
0.5785629
0.57872809
0.57885546
0.57894751
0.57900227
0.57900655
0.57894573
0.57883766
0.57873513
0.57860467
0.57817906
0.57723852
0.57648064
0.61626352
0.68353648
0.63712449
0.63575415
0.61804051
0.60535078
0.59177232
0.57903701
0.56692797
0.55574221
0.54562122
0.53668582
0.52900169
0.52258736
0.51741728
0.51343005
0.51053744
0.50863374
0.50760418
0.50733206
0.50770401
0.5086138
0.50996453
0.51166972
0.51365362
0.51585075
0.51820527
0.52066999
0.52320545
0.52577886
0.52836325
0.53093656
0.53348093
0.535982
0.53842838
0.54081116
0.54312347
0.54536013
0.54751741
0.54959274
0.5515845
0.55349187
0.55531468
0.55705328
0.55870847
0.56028136
0.56177338
0.56318613
0.56452143
0.5657812
0.56696746
0.5680823
0.56912786
0.57010627
0.57101968
0.57187019
0.57265984
0.57339057
0.57406427
0.57468268
0.57524747
0.57576022
0.57622255
0.57663625
0.57700332
0.57732586
0.57760573
0.57784425
0.57804291
0.57820427
0.57833079
0.57841912
0.5784567
0.57843576
0.57838201
0.57834095
0.57825995
0.57788831
0.57706697
0.57642189
0.60196286
0.6544999
0.61000005
0.60303501
0.58414403
0.56908095
0.55427511
0.54084715
0.52876158
0.51823471
0.50933901
0.50209158
0.49644219
0.49229137
0.48950392
0.48792405
0.48738812
0.48773473
0.48881185
0.49048111
0.49262001
0.49512235
0.49789768
0.50087003
0.50397635
0.50716484
0.51039332
0.51362775
0.51684088
0.52001111
0.52312151
0.52615896
0.52911346
0.53197759
0.53474599
0.53741499
0.53998229
0.5424467
0.5448079
0.5470663
0.54922286
0.551279
0.55323649
0.55509738
0.55686391
0.55853848
0.56012362
0.56162193
0.56303605
0.56436865
0.56562241
0.56679998
0.567904
0.56893704
0.56990165
0.57080028
0.57163529
0.57240892
0.57312333
0.57378054
0.5743824
0.57493071
0.57542725
0.57587391
0.57627278
0.57662597
0.57693532
0.57720249
0.57742962
0.57761976
0.57777481
0.5778907
0.57795748
0.57797489
0.57797231
0.57798281
0.57793909
0.57762033
0.5769322
0.57644724
0.58202663
0.61603166
0.57388517
0.56122163
0.54165742
0.52465355
0.50977071
0.49707349
0.48652953
0.47818161
0.47193222
0.46762154
0.46503823
0.46394802
0.46411281
0.46530575
0.46732049
0.46997573
0.47311649
0.47661307
0.48035875
0.48426694
0.48826818
0.49230734
0.49634111
0.50033577
0.50426537
0.50811022
0.5118556
0.51549079
0.51900823
0.52240285
0.52567158
0.52881289
0.5318265
0.53471305
0.53747395
0.54011117
0.54262712
0.54502454
0.54730638
0.54947581
0.55153606
0.55349046
0.55534236
0.55709515
0.55875215
0.56031671
0.56179209
0.56318152
0.56448815
0.56571506
0.56686524
0.5679416
0.56894695
0.56988402
0.57075539
0.57156353
0.57231082
0.57299945
0.57363151
0.57420893
0.57473366
0.57520772
0.5756332
0.57601219
0.57634659
0.57663838
0.57689016
0.57710493
0.57728367
0.57742221
0.57751447
0.57756708
0.57760982
0.57766231
0.57764986
0.57738872
0.57683961
0.57650903
0.55384214
0.56562551
0.52742184
0.50896465
0.48830386
0.47281588
0.4598263
0.44993502
0.4428773
0.43841001
0.43618661
0.4358434
0.43702246
0.43939712
0.44268257
0.44663946
0.45107203
0.45582357
0.4607707
0.46581768
0.47089107
0.47593526
0.48090863
0.48578049
0.49052865
0.49513748
0.49959639
0.50389865
0.50804049
0.51202038
0.51583851
0.5194963
0.52299618
0.52634123
0.52953505
0.5325816
0.53548508
0.53824982
0.54088024
0.5433808
0.54575594
0.54801004
0.55014744
0.55217238
0.55408901
0.55590139
0.55761346
0.55922906
0.56075191
0.56218563
0.5635337
0.56479949
0.56598626
0.56709714
0.56813515
0.56910316
0.57000392
0.57084009
0.57161418
0.57232854
0.5729854
0.57358689
0.57413508
0.57463209
0.57508003
0.57548096
0.57583693
0.57615025
0.57642377
0.57666017
0.57685961
0.5770185
0.57713451
0.57721852
0.57729697
0.57737766
0.57738824
0.57718864
0.57678695
0.57662154
0.51329401
0.50074006
0.46349992
0.4455915
0.42816118
0.4159538
0.40764102
0.4030069
0.40139717
0.40222551
0.40492283
0.40900184
0.41406014
0.41977921
0.42591355
0.43227807
0.43873565
0.44518629
0.4515582
0.45780078
0.46387919
0.46977026
0.47545938
0.48093822
0.48620298
0.49125319
0.49609073
0.50071912
0.50514305
0.50936799
0.51339989
0.51724499
0.5209097
0.52440045
0.52772362
0.53088551
0.53389228
0.53674993
0.53946429
0.542041
0.54448551
0.54680307
0.54899875
0.55107741
0.55304375
0.55490229
0.55665737
0.55831318
0.55987374
0.56134291
0.56272442
0.56402182
0.56523855
0.56637789
0.56744298
0.56843682
0.56936227
0.57022207
0.57101885
0.57175505
0.57243305
0.57305509
0.57362338
0.5741401
0.57460738
0.57502731
0.57540211
0.57573437
0.5760271
0.57628272
0.57650133
0.57668063
0.57682096
0.57693359
0.57703871
0.57713741
0.57717236
0.57704935
0.57679187
0.57670856
0.45145912
0.4188808
0.38917348
0.3743232
0.36348543
0.35868447
0.35812008
0.36087306
0.36595174
0.37259613
0.38022063
0.38840051
0.39683522
0.4053176
0.41370796
0.42191445
0.42987874
0.43756564
0.4449559
0.45204109
0.4588201
0.46529666
0.47147765
0.47737191
0.48298944
0.48834084
0.49343692
0.49828847
0.50290608
0.50730002
0.51148019
0.5154561
0.51923682
0.52283101
0.5262469
0.52949234
0.53257477
0.53550129
0.53827862
0.54091319
0.54341108
0.5457781
0.54801978
0.5501414
0.55214798
0.55404434
0.55583506
0.55752456
0.55911703
0.5606165
0.56202684
0.56335172
0.5645947
0.56575913
0.56684826
0.56786516
0.56881274
0.56969383
0.5705111
0.57126707
0.57196419
0.5726048
0.5731912
0.5737256
0.57421019
0.5746471
0.57503868
0.57538766
0.57569704
0.5759693
0.57620524
0.57640446
0.5765691
0.57670851
0.57683577
0.57694748
0.57700205
0.57694601
0.57681944
0.57684854
0.35568806
0.32220718
0.30459256
0.30011237
0.30149653
0.30776388
0.31693636
0.32774795
0.33932488
0.35111568
0.36278452
0.37413532
0.38506036
0.39550657
0.40545433
0.41490398
0.42386757
0.43236359
0.4404138
0.44804124
0.45526903
0.46211971
0.46861482
0.47477469
0.48061841
0.48616377
0.49142735
0.49642454
0.50116966
0.505676
0.50995592
0.51402093
0.51788176
0.52154842
0.52503028
0.52833609
0.53147411
0.53445205
0.5372772
0.53995641
0.54249617
0.54490261
0.54718151
0.54933839
0.55137847
0.55330671
0.55512786
0.55684642
0.55846671
0.55999285
0.56142876
0.56277821
0.56404478
0.56523193
0.56634293
0.56738091
0.56834883
0.56924956
0.5700858
0.57086012
0.57157501
0.57223286
0.57283601
0.57338671
0.57388718
0.57433966
0.57474655
0.57511053
0.57543441
0.57572066
0.57597099
0.57618706
0.57637249
0.57653422
0.57667883
0.57680202
0.57688151
0.57689513
0.57687282
0.57693323
0.21657806
0.21529731
0.22068193
0.23407969
0.25138457
0.26976951
0.28803021
0.30551641
0.32199906
0.33741414
0.35178677
0.36517725
0.37765928
0.38930811
0.40019545
0.41038731
0.41994339
0.42891718
0.43735641
0.44530358
0.4527966
0.45986925
0.46655178
0.4728713
0.47885218
0.4845164
0.48988385
0.49497259
0.49979906
0.50437826
0.50872395
0.51284879
0.51676442
0.52048162
0.52401037
0.52735998
0.53053909
0.5335558
0.53641767
0.53913182
0.54170492
0.54414327
0.54645281
0.54863915
0.55070763
0.55266328
0.55451091
0.55625508
0.55790016
0.55945029
0.56090943
0.56228138
0.56356977
0.56477805
0.56590957
0.56696746
0.56795474
0.56887429
0.56972886
0.57052105
0.57125334
0.57192814
0.57254778
0.57311452
0.57363061
0.57409837
0.57452022
0.57489873
0.57523647
0.5755359
0.57579943
0.57602999
0.57623157
0.57640875
0.57656434
0.57669676
0.57680055
0.57687374
0.57692962
0.57700202
0.091937064
0.12183628
0.15925538
0.1928997
0.22302849
0.2495517
0.27308938
0.29410729
0.31302142
0.33015784
0.34577938
0.36009654
0.3732802
0.38547017
0.39678212
0.40731258
0.41714286
0.426342
0.4349691
0.4430751
0.4507042
0.45789499
0.46468136
0.47109324
0.47715722
0.48289699
0.48833381
0.49348681
0.49837327
0.50300891
0.50740803
0.51158372
0.51554799
0.5193119
0.52288569
0.52627884
0.52950015
0.53255784
0.53545958
0.53821256
0.54082354
0.54329885
0.54564447
0.54786607
0.54996897
0.55195825
0.55383871
0.55561493
0.55729126
0.55887186
0.56036068
0.56176152
0.563078
0.5643136
0.56547165
0.56655534
0.56756769
0.5685116
0.56938985
0.57020503
0.57095961
0.57165596
0.57229633
0.57288293
0.57341799
0.5739038
0.57434283
0.5747376
0.57509065
0.57540455
0.57568221
0.5759271
0.57614285
0.57633206
0.57649587
0.57663587
0.57675738
0.57686775
0.57696626
0.57703658
0.010648538
0.29570451
0.47111138
0.51952005
0.52940476
0.52991366
0.52957304
0.53071436
0.53219558
0.53368155
0.53516077
0.53660837
0.53803033
0.53943696
0.54083957
0.5422481
0.54366433
0.54508881
0.54652132
0.54796092
0.54940624
0.55085553
0.55230687
0.55375815
0.55520724
0.55665198
0.55809019
0.55951976
0.5609386
0.56234469
0.56373603
0.56511069
0.56646677
0.56780242
0.5691158
0.57040509
0.5716685
0.57290425
0.57411055
0.57528563
0.57642769
0.57753494
0.57860558
0.5796378
0.58062981
0.58157979
0.58248597
0.5833466
0.58415997
0.58492445
0.58563847
0.58630061
0.58690955
0.58746415
0.58796342
0.58840651
0.58879279
0.58912171
0.58939293
0.58960586
0.58975962
0.58985358
0.58988749
0.58986095
0.58977329
0.58962289
0.58940766
0.58912294
0.58876598
0.58832909
0.58781375
0.58721105
0.58651979
0.5857486
0.58484165
0.58395148
0.58278668
0.58202327
0.58041449
0.57993966
0.063342821
0.38338299
0.52191059
0.54731918
0.54822433
0.54635885
0.54548773
0.5456231
0.54582544
0.54612567
0.54651254
0.54706226
0.54773252
0.54849425
0.54931843
0.55020173
0.55113784
0.55212215
0.55314931
0.55421417
0.55531205
0.55643847
0.55758925
0.55876039
0.5599481
0.56114875
0.56235887
0.56357516
0.56479443
0.5660136
0.56722973
0.56843995
0.56964151
0.57083172
0.57200798
0.57316774
0.57430853
0.57542792
0.57652352
0.57759301
0.57863407
0.57964444
0.5806219
0.58156423
0.58246928
0.58333495
0.58415917
0.58493996
0.58567541
0.58636373
0.58700323
0.58759238
0.58812983
0.58861437
0.589045
0.58942089
0.58974143
0.59000612
0.59021468
0.59036661
0.59046111
0.59049774
0.59047637
0.59039674
0.59025824
0.59005934
0.58979789
0.58946942
0.58907104
0.58859545
0.5880441
0.58740796
0.58668786
0.585888
0.58496431
0.58404919
0.5828824
0.58209123
0.5804727
0.5800066
0.14684607
0.46434627
0.54194843
0.55480525
0.55345438
0.55248099
0.55246226
0.55300857
0.55341574
0.55392731
0.5544217
0.55497757
0.55555527
0.55617543
0.55682919
0.55752145
0.55824852
0.55901047
0.55980576
0.56063268
0.56148943
0.562374
0.56328427
0.56421795
0.56517262
0.56614576
0.56713479
0.56813701
0.5691497
0.57017007
0.57119531
0.57222261
0.57324911
0.574272
0.57528842
0.57629556
0.57729063
0.57827085
0.57923345
0.58017573
0.58109499
0.58198858
0.5828539
0.58368839
0.58448955
0.58525495
0.58598224
0.58666919
0.58731365
0.58791363
0.5884673
0.58897298
0.58942922
0.58983474
0.59018849
0.59048961
0.59073745
0.59093159
0.59107176
0.59115751
0.59118814
0.59116332
0.59108305
0.59094715
0.59075506
0.5905053
0.59019571
0.58982192
0.58938093
0.58886574
0.58827769
0.58760778
0.58685817
0.58603018
0.58508792
0.58415053
0.58297608
0.58216262
0.58052916
0.58006928
0.2291226
0.51231832
0.55561075
0.5631789
0.56050548
0.56068348
0.56074772
0.56133358
0.56160452
0.56204882
0.56242016
0.56286933
0.56332293
0.56380863
0.56431166
0.56484034
0.56539211
0.56596891
0.56657065
0.56719725
0.56784843
0.56852366
0.56922219
0.56994301
0.57068493
0.57144651
0.57222612
0.57302195
0.573832
0.57465413
0.57548605
0.57632532
0.57716942
0.57801573
0.57886152
0.57970404
0.58054044
0.58136788
0.58218346
0.58298428
0.58376744
0.58453006
0.58526927
0.58598225
0.58666626
0.5873186
0.5879367
0.58851807
0.58906039
0.58956147
0.59001933
0.59043218
0.59079843