/*--------------------------------*- C++ -*----------------------------------*\
  =========                 |
  \\      /  F ield         | OpenFOAM: The Open Source CFD Toolbox
   \\    /   O peration     | Website:  https://openfoam.org
    \\  /    A nd           | Version:  12
     \\/     M anipulation  |
\*---------------------------------------------------------------------------*/
FoamFile
{
    format      ascii;
    class       volScalarField;
    location    "0.097";
    object      rho;
}
// * * * * * * * * * * * * * * * * * * * * * * * * * * * * * * * * * * * * * //

dimensions      [1 -3 0 0 0 0 0];

internalField   nonuniform List<scalar> 
16000
(
1.0585226
1.0913474
1.0791357
1.0874604
1.0836041
1.0870566
1.0860751
1.0879033
1.088053
1.0892668
1.0899214
1.0909405
1.0918225
1.092824
1.0938249
1.0948782
1.0959638
1.0970897
1.0982538
1.0994572
1.1006997
1.1019815
1.1033023
1.1046617
1.106059
1.1074934
1.1089637
1.1104685
1.1120061
1.1135746
1.1151716
1.1167947
1.118441
1.1201074
1.1217904
1.1234865
1.1251917
1.1269022
1.1286136
1.1303217
1.1320222
1.1337105
1.1353825
1.1370337
1.1386601
1.1402577
1.1418227
1.1433515
1.1448409
1.146288
1.1476901
1.1490448
1.1503502
1.1516044
1.1528062
1.1539545
1.1550484
1.1560873
1.1570709
1.1579991
1.1588718
1.1596893
1.1604518
1.1611597
1.1618136
1.1624141
1.1629623
1.1634593
1.1639068
1.1643068
1.1646618
1.1649749
1.1652488
1.1654879
1.1656966
1.1658689
1.1659928
1.1660811
1.1661143
1.1654924
1.0552457
1.0885906
1.0757761
1.0846427
1.0805575
1.0842789
1.0831951
1.0851948
1.0853375
1.0866536
1.0873601
1.0884546
1.0894109
1.0904873
1.0915692
1.092704
1.0938754
1.0950894
1.0963446
1.0976416
1.0989804
1.1003607
1.1017819
1.1032434
1.1047443
1.1062831
1.1078584
1.1094684
1.1111108
1.1127833
1.114483
1.1162067
1.1179513
1.1197128
1.1214876
1.1232712
1.1250595
1.1268479
1.1286318
1.1304065
1.1321673
1.1339098
1.1356293
1.1373215
1.1389824
1.1406081
1.1421949
1.1437398
1.1452397
1.1466922
1.148095
1.1494463
1.1507446
1.1519887
1.1531778
1.1543113
1.1553888
1.1564102
1.1573757
1.1582854
1.1591397
1.159939
1.160684
1.1613752
1.1620134
1.1625994
1.1631344
1.1636198
1.1640573
1.1644488
1.1647968
1.1651036
1.1653719
1.1656064
1.165809
1.1659706
1.1660918
1.1661796
1.1661058
1.1656329
1.0522664
1.0860686
1.0729034
1.0820463
1.0778192
1.0817441
1.0806318
1.0827524
1.0829374
1.0843377
1.085119
1.086291
1.087334
1.0884942
1.0896676
1.0908947
1.0921625
1.0934754
1.0948322
1.0962333
1.0976782
1.0991663
1.1006969
1.1022688
1.1038806
1.1055307
1.107217
1.1089371
1.1106885
1.112468
1.1142722
1.1160975
1.1179398
1.1197949
1.1216581
1.1235249
1.1253902
1.1272491
1.1290966
1.1309277
1.1327375
1.1345213
1.1362745
1.137993
1.1396727
1.1413102
1.1429021
1.1444458
1.1459388
1.1473792
1.1487653
1.150096
1.1513703
1.1525878
1.1537482
1.1548515
1.1558978
1.1568876
1.1578214
1.1586998
1.1595235
1.1602934
1.1610101
1.1616746
1.1622877
1.1628507
1.1633646
1.1638312
1.1642521
1.1646294
1.1649652
1.1652613
1.1655203
1.1657464
1.1659389
1.1660886
1.1662064
1.1662759
1.1661323
1.1657709
1.0496128
1.0837901
1.0702018
1.0797133
1.0753513
1.07951
1.0783748
1.0806342
1.0808708
1.0823682
1.0832383
1.0844998
1.0856441
1.0869014
1.0881796
1.0895121
1.0908888
1.0923126
1.0937826
1.0952986
1.09686
1.0984659
1.1001151
1.1018061
1.1035372
1.105306
1.1071101
1.1089464
1.1108116
1.1127019
1.1146133
1.1165413
1.1184811
1.1204277
1.122376
1.1243206
1.126256
1.1281767
1.1300775
1.1319531
1.1337983
1.1356087
1.1373796
1.1391072
1.1407878
1.1424184
1.1439963
1.1455194
1.1469859
1.1483947
1.1497447
1.1510357
1.1522676
1.1534403
1.1545545
1.1556108
1.1566098
1.1575527
1.1584402
1.1592735
1.1600537
1.1607817
1.1614587
1.1620857
1.1626638
1.1631943
1.1636786
1.1641184
1.1645155
1.1648719
1.1651892
1.1654688
1.1657131
1.1659255
1.1661025
1.1662368
1.1663462
1.1663865
1.1661928
1.1659147
1.047327
1.0818922
1.0679067
1.0777108
1.0732089
1.0776423
1.0764972
1.0789013
1.0792105
1.0808126
1.0817904
1.0831511
1.0844099
1.085775
1.0871685
1.0886163
1.0901113
1.0916554
1.0932477
1.0948878
1.0965748
1.0983074
1.1000841
1.1019028
1.103761
1.1056558
1.1075839
1.1095416
1.1115245
1.1135281
1.1155474
1.1175771
1.1196116
1.121645
1.1236715
1.125685
1.1276796
1.1296494
1.1315889
1.1334928
1.1353559
1.1371739
1.1389426
1.1406586
1.1423188
1.1439209
1.1454631
1.1469438
1.1483625
1.1497186
1.1510123
1.152244
1.1534144
1.1545244
1.1555753
1.1565682
1.1575047
1.158386
1.1592137
1.1599893
1.1607139
1.161389
1.1620159
1.1625958
1.16313
1.1636199
1.164067
1.164473
1.16484
1.1651695
1.165463
1.1657212
1.1659462
1.1661403
1.1662972
1.1664136
1.1665101
1.166514
1.1662792
1.1660772
1.0454523
1.0803893
1.0660579
1.0761691
1.0715671
1.0762156
1.0750587
1.0776287
1.0780264
1.0797385
1.0808359
1.0822989
1.083679
1.0851583
1.086674
1.0882456
1.0898681
1.0915426
1.0932681
1.0950437
1.0968678
1.0987386
1.1006538
1.1026104
1.1046052
1.1066343
1.1086934
1.1107775
1.1128816
1.1149998
1.1171261
1.1192543
1.1213777
1.1234899
1.1255841
1.1276538
1.1296926
1.1316946
1.1336539
1.1355655
1.1374247
1.1392274
1.1409702
1.1426504
1.1442659
1.1458153
1.1472976
1.1487126
1.1500605
1.1513421
1.1525583
1.1537106
1.1548006
1.15583
1.1568007
1.1577147
1.1585739
1.1593802
1.1601354
1.1608413
1.1614995
1.1621116
1.162679
1.1632031
1.1636853
1.1641271
1.1645302
1.1648962
1.1652271
1.1655245
1.165789
1.1660211
1.1662226
1.1663939
1.1665267
1.1666228
1.1667021
1.1666627
1.1663927
1.1662667
1.0439865
1.0792905
1.0646431
1.0750964
1.0704056
1.0752555
1.074142
1.076846
1.0773475
1.0791459
1.0803698
1.081939
1.0834508
1.085057
1.0867092
1.0884204
1.090187
1.0920087
1.0938841
1.0958115
1.0977885
1.0998123
1.1018796
1.1039864
1.1061283
1.1083002
1.1104965
1.1127112
1.1149376
1.117169
1.1193981
1.1216175
1.1238199
1.1259978
1.1281441
1.1302517
1.1323142
1.1343256
1.1362805
1.1381741
1.1400026
1.1417626
1.1434519
1.1450686
1.146612
1.1480818
1.1494784
1.1508027
1.1520563
1.1532409
1.1543587
1.155412
1.1564033
1.1573352
1.1582101
1.1590308
1.1597994
1.1605184
1.1611899
1.161816
1.1623983
1.1629387
1.1634386
1.1638995
1.164323
1.1647106
1.1650639
1.1653846
1.1656746
1.1659351
1.1661664
1.1663685
1.1665426
1.166687
1.1667925
1.1668668
1.1669246
1.1668365
1.1665383
1.1664903
1.042867
1.0785359
1.0635987
1.0744387
1.0696474
1.0747248
1.0736438
1.0765421
1.077066
1.0789806
1.0803652
1.0820676
1.0837379
1.0854974
1.0873105
1.0891854
1.0911188
1.0931099
1.0951561
1.097255
1.099403
1.1015964
1.1038304
1.1060997
1.1083985
1.1107203
1.1130579
1.1154038
1.1177501
1.1200886
1.1224109
1.1247086
1.1269735
1.1291976
1.1313734
1.1334938
1.1355527
1.1375444
1.1394643
1.1413086
1.1430745
1.14476
1.1463641
1.1478866
1.1493281
1.1506899
1.1519738
1.1531823
1.1543179
1.1553837
1.1563829
1.1573188
1.1581946
1.1590137
1.159779
1.1604937
1.1611605
1.161782
1.1623604
1.1628981
1.1633969
1.1638585
1.1642846
1.1646766
1.165036
1.1653644
1.1656634
1.1659347
1.1661798
1.1663997
1.1665943
1.1667631
1.1669067
1.1670208
1.1670967
1.1671482
1.1671801
1.1670398
1.1667234
1.1667545
1.0420885
1.0781116
1.0629076
1.0742163
1.069238
1.0744839
1.0734903
1.0764178
1.0772652
1.0793238
1.0809
1.0827607
1.0846147
1.086554
1.0885533
1.0906169
1.0927417
1.0949254
1.0971646
1.0994555
1.1017931
1.1041721
1.1065863
1.1090285
1.1114912
1.1139661
1.1164444
1.1189168
1.121374
1.1238064
1.1262046
1.1285593
1.1308618
1.133104
1.1352783
1.1373782
1.1393982
1.1413339
1.1431817
1.1449395
1.1466059
1.148181
1.1496654
1.1510607
1.1523694
1.1535943
1.1547388
1.1558068
1.1568022
1.157729
1.1585915
1.1593937
1.1601397
1.160833
1.1614774
1.162076
1.162632
1.1631479
1.1636263
1.1640694
1.1644789
1.1648568
1.1652045
1.1655234
1.1658151
1.166081
1.1663226
1.1665414
1.1667388
1.1669155
1.1670707
1.167204
1.1673146
1.1673958
1.167441
1.1674693
1.1674705
1.1672755
1.1669528
1.1670664
1.0416869
1.0780547
1.0626107
1.0743463
1.0692274
1.0747295
1.0738861
1.0770295
1.0780468
1.0802551
1.0820526
1.0840996
1.0861644
1.0883124
1.0905257
1.0928055
1.0951477
1.0975487
1.1000036
1.1025067
1.1050513
1.1076302
1.1102348
1.1128562
1.1154844
1.1181093
1.12072
1.1233058
1.1258556
1.1283588
1.1308052
1.133185
1.1354896
1.1377111
1.1398429
1.1418796
1.1438172
1.1456528
1.1473852
1.1490141
1.1505406
1.1519668
1.1532954
1.1545302
1.1556754
1.1567356
1.1577159
1.1586212
1.1594566
1.1602273
1.160938
1.1615936
1.1621983
1.1627563
1.1632713
1.1637468
1.1641858
1.164591
1.1649648
1.1653093
1.1656264
1.1659176
1.1661843
1.166428
1.1666499
1.1668514
1.1670339
1.1671986
1.1673468
1.1674785
1.167593
1.1676895
1.1677655
1.1678124
1.1678274
1.1678326
1.1677979
1.1675479
1.167232
1.1674307
1.0417309
1.0784366
1.0627607
1.0746789
1.0697147
1.0755089
1.0748747
1.0781687
1.0794688
1.0818537
1.0839074
1.0861752
1.088482
1.0908708
1.0933287
1.0958539
1.0984411
1.1010846
1.1037774
1.1065116
1.109278
1.1120667
1.1148666
1.1176661
1.1204531
1.1232149
1.1259389
1.1286127
1.1312241
1.1337617
1.1362151
1.1385749
1.1408332
1.1429835
1.1450209
1.1469421
1.1487454
1.1504309
1.1519997
1.1534544
1.1547987
1.156037
1.1571747
1.1582174
1.1591712
1.1600424
1.160837
1.1615614
1.1622214
1.1628228
1.1633709
1.1638707
1.1643268
1.1647435
1.1651244
1.1654729
1.1657919
1.166084
1.1663515
1.1665962
1.1668197
1.1670235
1.1672088
1.1673768
1.1675288
1.1676657
1.1677888
1.1678993
1.1679979
1.1680843
1.1681579
1.1682174
1.1682581
1.1682706
1.1682573
1.1682398
1.1681646
1.1678631
1.1675684
1.167848
1.0423013
1.079329
1.0634581
1.0756842
1.0708795
1.0769153
1.0765405
1.0800153
1.0816283
1.0842184
1.0865626
1.0890898
1.0916731
1.0943383
1.0970744
1.0998768
1.1027379
1.1056491
1.1086006
1.1115812
1.1145786
1.1175795
1.1205699
1.1235354
1.126461
1.1293322
1.1321345
1.1348545
1.1374795
1.1399983
1.1424012
1.1446805
1.1468302
1.1488465
1.1507273
1.1524728
1.1540845
1.1555659
1.1569213
1.1581565
1.159278
1.1602927
1.1612081
1.1620318
1.1627713
1.1634342
1.1640274
1.1645581
1.1650324
1.1654566
1.165836
1.1661756
1.1664801
1.1667535
1.1669991
1.1672203
1.1674196
1.1675993
1.1677614
1.1679073
1.1680387
1.1681565
1.1682619
1.1683558
1.1684392
1.1685129
1.168578
1.1686354
1.1686852
1.1687273
1.168761
1.1687843
1.1687903
1.1687698
1.1687316
1.1686921
1.1685729
1.1682285
1.1679697
1.1683202
1.0433923
1.0807373
1.0646981
1.0773476
1.0727043
1.0789842
1.0789495
1.0826181
1.0846087
1.0874469
1.0901228
1.0929559
1.0958576
1.0988403
1.1018927
1.1050064
1.1081703
1.1113721
1.1145977
1.117832
1.1210588
1.1242612
1.1274217
1.1305231
1.1335481
1.1364804
1.1393048
1.1420077
1.1445773
1.1470042
1.1492813
1.151404
1.15337
1.1551795
1.1568349
1.1583404
1.1597018
1.1609261
1.1620214
1.1629963
1.16386
1.1646216
1.1652904
1.1658753
1.1663849
1.1668273
1.1672102
1.1675408
1.1678254
1.16807
1.1682799
1.1684599
1.1686141
1.1687462
1.1688593
1.1689562
1.169039
1.1691097
1.1691699
1.1692208
1.1692634
1.1692988
1.1693276
1.1693506
1.1693684
1.1693818
1.1693915
1.1693981
1.1694015
1.1694014
1.1693972
1.1693861
1.169359
1.1693086
1.1692501
1.1691893
1.1690238
1.1686486
1.1684441
1.1688518
1.045058
1.0827144
1.066544
1.0796423
1.075277
1.0818095
1.0822058
1.0860939
1.0885239
1.0916658
1.094722
1.0979158
1.1011851
1.1045313
1.10794
1.1113977
1.1148884
1.1183946
1.1218975
1.1253773
1.1288133
1.1321848
1.1354711
1.1386524
1.1417102
1.1446277
1.1473908
1.1499877
1.15241
1.1546522
1.156712
1.15859
1.1602893
1.1618155
1.163176
1.1643799
1.1654371
1.1663584
1.1671549
1.1678378
1.1684184
1.1689071
1.1693144
1.1696499
1.1699226
1.1701407
1.1703118
1.1704428
1.1705398
1.1706084
1.1706532
1.1706785
1.170688
1.1706847
1.1706713
1.1706499
1.1706224
1.17059
1.1705541
1.1705155
1.1704749
1.170433
1.1703902
1.1703469
1.1703037
1.1702609
1.1702191
1.1701785
1.1701387
1.1700996
1.1700607
1.1700178
1.1699603
1.1698845
1.1698104
1.1697294
1.1695176
1.1691258
1.1689953
1.1694409
1.0473592
1.0853189
1.0691066
1.0826964
1.0786943
1.0854925
1.0864254
1.0905758
1.0935171
1.0970379
1.1005355
1.1041533
1.1078443
1.1115996
1.1153994
1.1192239
1.123051
1.1268574
1.1306185
1.1343092
1.1379044
1.1413799
1.1447127
1.1478823
1.1508711
1.153665
1.1562536
1.1586306
1.1607937
1.1627441
1.1644865
1.1660283
1.1673791
1.1685504
1.1695547
1.1704056
1.1711166
1.1717015
1.1721737
1.1725458
1.1728301
1.173038
1.17318
1.1732655
1.1733034
1.1733016
1.1732669
1.1732055
1.173123
1.1730241
1.1729128
1.1727926
1.1726665
1.172537
1.1724059
1.1722749
1.1721452
1.1720178
1.1718935
1.1717727
1.1716559
1.1715433
1.1714351
1.1713315
1.1712327
1.1711391
1.1710506
1.1709673
1.1708887
1.1708148
1.170745
1.1706735
1.1705895
1.1704938
1.1704085
1.1703082
1.1700534
1.1696584
1.1696201
1.1700821
1.0503535
1.0885826
1.0725131
1.0865819
1.0830811
1.090171
1.0917745
1.0962624
1.0997986
1.103788
1.1077945
1.1118987
1.1160595
1.120258
1.1244675
1.1286607
1.1328078
1.1368786
1.1408419
1.1446676
1.1483273
1.1517951
1.1550493
1.1580725
1.1608523
1.1633817
1.1656584
1.1676849
1.169468
1.1710177
1.1723467
1.1734698
1.174403
1.1751629
1.1757666
1.1762305
1.1765708
1.1768029
1.1769409
1.1769982
1.176987
1.1769182
1.1768018
1.1766466
1.1764606
1.1762505
1.1760225
1.1757817
1.1755326
1.1752791
1.1750244
1.1747711
1.1745214
1.174277
1.1740392
1.1738091
1.1735873
1.1733744
1.1731707
1.1729763
1.1727913
1.1726156
1.1724493
1.1722922
1.1721444
1.1720058
1.1718764
1.1717556
1.1716432
1.1715394
1.1714429
1.1713468
1.1712412
1.1711319
1.1710393
1.1709203
1.1706303
1.1702439
1.1703059
1.1707705
1.0541123
1.0925145
1.0768902
1.0914507
1.0886432
1.096091
1.0985153
1.1034356
1.1076478
1.1121936
1.1167698
1.12141
1.126072
1.1307258
1.1353349
1.1398617
1.1442676
1.1485145
1.152566
1.1563899
1.1599587
1.1632509
1.1662518
1.1689536
1.1713549
1.1734602
1.1752793
1.1768259
1.1781171
1.1791719
1.1800108
1.1806547
1.1811245
1.1814403
1.1816216
1.1816865
1.1816518
1.1815328
1.1813437
1.1810967
1.1808033
1.1804732
1.1801151
1.1797367
1.1793444
1.178944
1.1785402
1.1781371
1.1777381
1.1773461
1.1769632
1.1765913
1.1762318
1.1758857
1.1755536
1.1752361
1.1749333
1.1746453
1.174372
1.1741133
1.1738688
1.1736384
1.1734218
1.1732185
1.1730285
1.1728515
1.1726871
1.1725347
1.1723942
1.1722656
1.1721471
1.1720307
1.1719094
1.1717935
1.1716976
1.171561
1.1712474
1.1708807
1.1710365
1.1715069
1.0588264
1.0972659
1.0824735
1.0976312
1.0957137
1.1035823
1.1069707
1.1124195
1.1173764
1.1225579
1.1277537
1.1329607
1.1381269
1.143207
1.1481509
1.1529097
1.1574366
1.1616902
1.1656355
1.169246
1.1725043
1.175402
1.1779396
1.1801248
1.1819719
1.1835001
1.1847322
1.1856931
1.186409
1.1869061
1.1872102
1.1873459
1.1873364
1.1872031
1.1869656
1.1866417
1.1862472
1.1857962
1.1853013
1.1847732
1.1842214
1.1836541
1.1830784
1.1825001
1.1819244
1.1813555
1.1807969
1.1802513
1.1797213
1.1792084
1.1787141
1.1782394
1.1777848
1.1773508
1.1769375
1.1765448
1.1761725
1.1758201
1.1754875
1.1751739
1.1748791
1.1746024
1.1743433
1.1741014
1.1738763
1.1736674
1.1734743
1.1732962
1.1731333
1.1729855
1.1728495
1.1727177
1.1725872
1.1724717
1.1723761
1.1722236
1.1718969
1.1715712
1.1718141
1.1722741
1.0647769
1.1034196
1.0896588
1.1054605
1.1046384
1.112969
1.1174708
1.123568
1.1293404
1.135229
1.1410724
1.1468322
1.1524388
1.1578287
1.1629402
1.167719
1.1721204
1.1761115
1.1796719
1.1827936
1.1854799
1.1877441
1.1896071
1.1910959
1.192241
1.1930753
1.1936323
1.1939451
1.1940455
1.1939632
1.193726
1.1933591
1.1928851
1.1923242
1.1916943
1.1910111
1.1902883
1.1895376
1.1887692
1.1879918
1.1872127
1.1864381
1.1856731
1.1849221
1.1841884
1.1834749
1.1827839
1.1821169
1.1814754
1.18086
1.1802713
1.1797097
1.179175
1.178667
1.1781854
1.1777296
1.177299
1.176893
1.1765109
1.176152
1.1758156
1.1755008
1.1752071
1.1749339
1.1746805
1.1744462
1.1742305
1.1740327
1.1738531
1.1736909
1.1735422
1.1734003
1.1732668
1.1731572
1.1730641
1.1728976
1.1725691
1.1723084
1.1726351
1.173058
1.0721507
1.1114944
1.0986453
1.1151681
1.1157887
1.1246709
1.1304552
1.1373526
1.1439975
1.1506122
1.1570461
1.1632265
1.1690678
1.1744986
1.1794606
1.1839128
1.1878316
1.1912109
1.1940594
1.1963988
1.19826
1.1996807
1.2007025
1.2013688
1.2017226
1.2018055
1.2016566
1.201312
1.2008045
1.2001634
1.1994148
1.1985814
1.1976831
1.1967372
1.1957583
1.194759
1.19375
1.1927403
1.1917373
1.1907474
1.1897755
1.1888259
1.1879019
1.1870061
1.1861405
1.1853067
1.1845056
1.183738
1.1830041
1.182304
1.1816375
1.1810042
1.1804035
1.1798347
1.1792971
1.1787897
1.1783117
1.1778621
1.17744
1.1770445
1.1766747
1.1763297
1.1760086
1.1757108
1.1754355
1.175182
1.1749494
1.1747375
1.1745463
1.1743746
1.1742176
1.1740707
1.1739397
1.1738391
1.1737493
1.1735753
1.173261
1.1730734
1.1734656
1.1738319
1.0810829
1.1213688
1.1100424
1.1273017
1.1298098
1.1393808
1.1465719
1.1543694
1.1618329
1.1690254
1.1757937
1.1820482
1.1877107
1.19273
1.19708
1.2007585
1.2037839
1.2061905
1.2080244
1.2093387
1.2101901
1.2106358
1.2107314
1.2105289
1.2100764
1.2094174
1.2085903
1.207629
1.2065632
1.205418
1.2042154
1.2029737
1.2017087
1.2004333
1.1991586
1.1978935
1.1966456
1.1954208
1.1942241
1.1930594
1.1919297
1.1908372
1.1897837
1.1887704
1.1877979
1.1868666
1.1859766
1.1851276
1.1843193
1.1835509
1.1828217
1.1821308
1.1814771
1.1808596
1.1802772
1.1797287
1.1792129
1.1787288
1.1782752
1.1778511
1.1774554
1.177087
1.1767452
1.1764289
1.1761375
1.17587
1.1756258
1.1754048
1.1752066
1.1750293
1.1748681
1.1747209
1.1745964
1.1745054
1.1744185
1.1742451
1.1739629
1.1738479
1.1742659
1.1745601
1.0923203
1.1339548
1.1247546
1.1428099
1.1476534
1.1579937
1.1665205
1.1750932
1.1830518
1.1903718
1.196928
1.2026593
1.2075373
1.2115687
1.2147873
1.2172478
1.2190186
1.2201749
1.2207945
1.220953
1.2207219
1.2201666
1.2193458
1.2183112
1.2171078
1.2157743
1.2143436
1.2128435
1.2112973
1.2097246
1.2081414
1.206561
1.2049943
1.2034501
1.2019356
1.2004562
1.1990166
1.19762
1.196269
1.1949655
1.1937106
1.1925051
1.1913493
1.1902432
1.1891863
1.1881783
1.1872182
1.1863052
1.1854383
1.1846162
1.1838377
1.1831015
1.1824064
1.1817508
1.1811334
1.1805529
1.1800079
1.1794971
1.1790194
1.1785735
1.1781583
1.1777726
1.1774155
1.1770861
1.1767835
1.1765068
1.1762555
1.1760295
1.1758281
1.1756485
1.1754867
1.1753429
1.1752269
1.1751443
1.1750591
1.1748932
1.1746553
1.1746065
1.1750143
1.175235
1.1074332
1.150353
1.1440589
1.1627628
1.1702856
1.1812783
1.1906545
1.1994293
1.2071532
1.2138042
1.2193465
1.2238044
1.2272374
1.2297322
1.2313906
1.2323203
1.2326281
1.2324146
1.2317719
1.2307818
1.2295154
1.228034
1.2263893
1.2246247
1.2227763
1.2208739
1.2189419
1.2170003
1.2150652
1.2131495
1.2112636
1.2094158
1.2076123
1.2058582
1.2041571
1.2025117
1.2009238
1.1993947
1.1979249
1.1965146
1.1951635
1.1938712
1.1926368
1.1914594
1.1903377
1.1892706
1.1882567
1.1872944
1.1863824
1.185519
1.1847026
1.1839316
1.1832045
1.1825197
1.1818756
1.1812708
1.1807036
1.1801729
1.1796772
1.1792152
1.1787857
1.1783876
1.1780199
1.1776816
1.1773718
1.1770897
1.176835
1.1766072
1.1764053
1.1762259
1.1760661
1.1759281
1.1758212
1.1757447
1.1756598
1.1755052
1.1753141
1.1753225
1.1757094
1.1758508
1.1278963
1.1718621
1.1693853
1.188178
1.1980824
1.2091879
1.2183837
1.2262676
1.2326732
1.2376677
1.2413468
1.243849
1.2453275
1.2459382
1.2458291
1.245135
1.2439744
1.2424492
1.240645
1.2386333
1.2364726
1.2342106
1.2318861
1.2295298
1.2271666
1.2248159
1.2224934
1.2202109
1.2179778
1.2158011
1.2136861
1.2116367
1.2096554
1.2077441
1.2059036
1.2041342
1.2024359
1.200808
1.1992497
1.1977598
1.1963369
1.1949797
1.1936866
1.1924557
1.1912855
1.190174
1.1891195
1.1881201
1.1871741
1.1862794
1.1854344
1.1846372
1.183886
1.1831792
1.1825151
1.181892
1.1813085
1.1807629
1.180254
1.1797804
1.1793409
1.1789342
1.1785594
1.1782155
1.1779015
1.1776169
1.1773612
1.1771338
1.1769329
1.1767554
1.1765994
1.1764682
1.1763689
1.1762956
1.1762111
1.176072
1.1759272
1.1759759
1.1763235
1.1764062
1.15633
1.1992778
1.2018291
1.2199475
1.2302179
1.2401004
1.2477085
1.2534396
1.2574223
1.2598959
1.2610973
1.2612586
1.2605888
1.2592697
1.2574541
1.2552679
1.2528133
1.2501719
1.2474083
1.2445736
1.2417074
1.2388406
1.2359969
1.2331944
1.2304469
1.2277647
1.2251552
1.2226238
1.2201741
1.2178085
1.2155281
1.2133335
1.2112243
1.2092
1.2072593
1.2054008
1.203623
1.2019239
1.2003016
1.1987541
1.1972792
1.1958748
1.1945387
1.1932688
1.1920628
1.1909186
1.1898342
1.1888073
1.1878359
1.186918
1.1860516
1.1852348
1.1844657
1.1837425
1.1830634
1.1824268
1.1818311
1.1812747
1.1807562
1.1802743
1.1798277
1.1794152
1.1790358
1.1786885
1.1783724
1.178087
1.1778315
1.1776053
1.177406
1.1772311
1.1770796
1.1769548
1.1768606
1.1767876
1.176704
1.1765845
1.1764833
1.1765535
1.1768381
1.176869
1.1953017
1.2344072
1.24018
1.2555192
1.2646606
1.271576
1.2759585
1.2783574
1.2791341
1.278655
1.2772203
1.275078
1.2724251
1.2694161
1.2661698
1.2627771
1.2593069
1.2558108
1.2523274
1.2488855
1.2455058
1.2422037
1.2389897
1.2358714
1.2328536
1.229939
1.2271292
1.2244243
1.221824
1.2193269
1.2169315
1.2146357
1.2124373
1.2103339
1.2083229
1.2064016
1.2045675
1.2028177
1.2011497
1.1995607
1.1980481
1.1966093
1.1952417
1.1939429
1.1927103
1.1915416
1.1904345
1.1893867
1.188396
1.1874603
1.1865774
1.1857453
1.1849622
1.1842262
1.1835354
1.1828882
1.1822829
1.181718
1.1811921
1.1807037
1.1802516
1.1798347
1.179452
1.1791024
1.178785
1.1784991
1.1782441
1.1780185
1.1778206
1.1776481
1.1775008
1.1773812
1.1772898
1.177216
1.1771354
1.1770362
1.1769674
1.1770361
1.1772531
1.1772648
1.2429931
1.2755857
1.2827483
1.2925571
1.2974602
1.2997922
1.2999435
1.2985647
1.2960903
1.2928661
1.2891453
1.285114
1.280907
1.2766208
1.2723246
1.2680671
1.2638823
1.2597937
1.255817
1.2519626
1.2482364
1.2446418
1.2411799
1.2378503
1.2346514
1.2315811
1.2286366
1.2258147
1.2231122
1.2205254
1.2180508
1.2156849
1.2134239
1.2112645
1.2092032
1.2072364
1.2053609
1.2035735
1.201871
1.2002503
1.1987084
1.1972425
1.1958498
1.1945276
1.1932733
1.1920843
1.1909582
1.1898926
1.1888853
1.187934
1.1870367
1.1861912
1.1853956
1.184648
1.1839465
1.1832895
1.1826754
1.1821025
1.1815695
1.1810749
1.1806175
1.1801963
1.1798101
1.179458
1.1791389
1.1788521
1.1785966
1.178371
1.1781735
1.1780027
1.1778584
1.1777418
1.1776514
1.1775775
1.1775032
1.1774248
1.1773801
1.1774333
1.1775685
1.1775636
1.2971736
1.3178586
1.3224113
1.3247752
1.3239722
1.3213114
1.3174078
1.312752
1.3076657
1.3023666
1.296999
1.2916579
1.2864052
1.2812801
1.2763069
1.2714999
1.2668664
1.262409
1.2581274
1.2540191
1.2500805
1.2463068
1.242693
1.2392339
1.2359238
1.2327575
1.2297295
1.2268347
1.2240679
1.2214242
1.2188989
1.2164875
1.2141857
1.2119891
1.2098939
1.2078961
1.205992
1.2041781
1.202451
1.2008074
1.1992441
1.1977581
1.1963465
1.1950065
1.1937353
1.1925305
1.1913894
1.1903096
1.189289
1.1883251
1.1874159
1.1865592
1.1857532
1.1849959
1.1842854
1.1836201
1.1829983
1.1824185
1.1818792
1.1813791
1.180917
1.1804917
1.1801023
1.1797476
1.1794267
1.1791387
1.1788823
1.1786563
1.178459
1.1782893
1.1781466
1.1780304
1.1779382
1.177863
1.177796
1.1777368
1.1777052
1.1777287
1.1777909
1.1777725
1.3501426
1.3534387
1.3522052
1.3477282
1.3418786
1.3352838
1.3284087
1.3214952
1.3146897
1.3080715
1.3016837
1.2955464
1.2896666
1.2840435
1.2786715
1.2735426
1.2686472
1.2639753
1.2595168
1.2552616
1.2512003
1.2473234
1.2436224
1.240089
1.2367153
1.2334942
1.2304187
1.2274824
1.2246791
1.2220033
1.2194494
1.2170124
1.2146874
1.21247
1.2103556
1.2083403
1.2064201
1.2045913
1.2028502
1.2011936
1.199618
1.1981204
1.1966979
1.1953475
1.1940665
1.1928522
1.1917022
1.190614
1.1895852
1.1886136
1.187697
1.1868334
1.1860207
1.185257
1.1845406
1.1838697
1.1832426
1.1826579
1.1821141
1.1816098
1.1811439
1.1807153
1.180323
1.1799658
1.1796429
1.1793532
1.1790955
1.1788683
1.1786705
1.1785006
1.1783576
1.1782397
1.1781444
1.1780675
1.1780058
1.1779593
1.1779319
1.1779263
1.1779329
1.1779187
1.3842446
1.3766477
1.3690843
1.3607988
1.35219
1.3436738
1.3354162
1.3274918
1.319929
1.3127311
1.3058896
1.2993898
1.2932145
1.2873458
1.281766
1.276458
1.2714058
1.2665946
1.2620105
1.2576409
1.2534739
1.2494987
1.2457053
1.2420846
1.238628
1.2353275
1.232176
1.2291664
1.2262925
1.2235483
1.2209282
1.2184271
1.2160398
1.2137619
1.2115889
1.2095166
1.207541
1.2056585
1.2038653
1.202158
1.2005335
1.1989885
1.1975201
1.1961253
1.1948015
1.193546
1.1923562
1.1912297
1.1901642
1.1891574
1.1882071
1.1873112
1.1864678
1.1856748
1.1849306
1.1842332
1.1835812
1.182973
1.1824071
1.1818823
1.1813973
1.180951
1.1805423
1.1801703
1.1798338
1.1795318
1.179263
1.1790261
1.1788199
1.1786431
1.1784939
1.1783701
1.1782689
1.1781884
1.1781279
1.1780859
1.1780562
1.1780297
1.1780048
1.1779969
1.1635178
1.1685937
1.1834429
1.1955478
1.2011318
1.2024051
1.2024692
1.20213
1.2021648
1.2018655
1.2015861
1.2010521
1.2004615
1.1998168
1.1991277
1.1983985
1.1976337
1.1968388
1.1960188
1.1951777
1.1943194
1.1934474
1.1925649
1.1916747
1.1907794
1.1898815
1.188983
1.188086
1.1871922
1.1863034
1.1854212
1.184547
1.1836822
1.1828283
1.1819865
1.1811581
1.1803443
1.1795462
1.1787652
1.1780022
1.1772585
1.1765352
1.1758333
1.1751541
1.1744985
1.1738677
1.1732627
1.1726844
1.1721337
1.1716116
1.1711188
1.170656
1.1702237
1.1698226
1.1694527
1.1691144
1.1688075
1.1685317
1.1682867
1.1680715
1.1678848
1.1677252
1.1675908
1.1674795
1.1673888
1.1673157
1.1672564
1.1672076
1.1671636
1.1671217
1.1670741
1.1670151
1.1669477
1.1668304
1.1667689
1.166529
1.1666184
1.1660876
1.166537
1.1654244
1.159387
1.1705904
1.1872628
1.1957778
1.1980915
1.1980059
1.1974714
1.1972268
1.1969175
1.1966237
1.1962418
1.1958483
1.1954086
1.1949335
1.1944191
1.1938723
1.193294
1.1926872
1.1920542
1.1913973
1.190719
1.1900215
1.189307
1.1885779
1.1878364
1.1870846
1.1863247
1.1855587
1.1847886
1.1840165
1.1832443
1.1824737
1.1817066
1.1809447
1.1801898
1.1794435
1.1787075
1.1779832
1.1772722
1.1765761
1.1758962
1.1752341
1.174591
1.1739685
1.1733677
1.1727899
1.1722364
1.1717083
1.1712065
1.1707322
1.1702861
1.169869
1.1694816
1.1691243
1.1687973
1.1685009
1.1682348
1.1679988
1.1677923
1.1676143
1.1674635
1.1673382
1.1672367
1.1671566
1.1670954
1.16705
1.1670168
1.1669922
1.1669708
1.1669494
1.1669207
1.1668796
1.1668273
1.1667279
1.1666759
1.1664575
1.1665497
1.1660484
1.1665026
1.165387
1.1600871
1.1737808
1.1858535
1.1923215
1.1933351
1.1928696
1.1923713
1.192119
1.191836
1.191561
1.191235
1.1909056
1.1905411
1.1901625
1.1897563
1.1893296
1.1888795
1.1884079
1.187915
1.1874017
1.186869
1.186318
1.1857498
1.1851658
1.1845673
1.1839557
1.1833327
1.1826999
1.1820588
1.1814112
1.1807589
1.1801035
1.1794469
1.1787909
1.1781372
1.1774876
1.176844
1.1762081
1.1755816
1.1749662
1.1743637
1.1737758
1.173204
1.1726499
1.1721151
1.171601
1.171109
1.1706404
1.1701963
1.169778
1.1693863
1.169022
1.168686
1.1683785
1.1681001
1.1678506
1.1676301
1.1674381
1.167274
1.1671369
1.1670251
1.1669371
1.1668709
1.1668243
1.1667946
1.1667787
1.166773
1.1667738
1.1667759
1.166776
1.1667669
1.166744
1.1667075
1.1666262
1.1665851
1.1663868
1.1664844
1.1660096
1.1664697
1.1653515
1.1581122
1.1727638
1.1836158
1.1884177
1.188287
1.187895
1.1874549
1.1872582
1.186947
1.1866983
1.1863895
1.1861082
1.1857958
1.1854862
1.1851561
1.1848171
1.1844627
1.1840951
1.183713
1.1833162
1.1829046
1.1824783
1.1820375
1.1815825
1.1811138
1.1806321
1.1801382
1.1796332
1.1791182
1.1785944
1.178063
1.1775257
1.1769839
1.1764392
1.1758933
1.175348
1.1748049
1.1742658
1.1737327
1.1732072
1.1726913
1.1721866
1.171695
1.1712183
1.170758
1.1703158
1.1698933
1.1694918
1.1691127
1.1687572
1.1684264
1.1681211
1.1678421
1.1675899
1.1673648
1.167167
1.1669962
1.1668521
1.166734
1.1666408
1.1665709
1.1665227
1.1664942
1.1664831
1.1664866
1.1665017
1.1665248
1.1665521
1.1665784
1.1666006
1.1666115
1.1666072
1.1665872
1.166524
1.1664951
1.1663163
1.1664217
1.1659705
1.1664384
1.1653181
1.1527261
1.1693322
1.179336
1.1829239
1.182392
1.182297
1.1819385
1.1818766
1.1816365
1.1815016
1.1812802
1.1811046
1.1808872
1.180682
1.1804548
1.1802228
1.1799765
1.1797194
1.1794498
1.1791674
1.1788721
1.1785635
1.1782418
1.1779069
1.1775591
1.1771987
1.1768263
1.1764423
1.1760476
1.1756429
1.1752295
1.1748082
1.1743804
1.1739475
1.1735109
1.1730721
1.1726328
1.1721946
1.1717595
1.171329
1.1709051
1.1704896
1.1700844
1.1696912
1.1693117
1.1689478
1.168601
1.1682728
1.1679646
1.1676778
1.1674134
1.1671724
1.1669555
1.1667633
1.1665961
1.1664541
1.1663369
1.1662441
1.1661752
1.1661288
1.1661035
1.1660974
1.1661087
1.1661348
1.1661732
1.1662208
1.1662737
1.1663284
1.1663797
1.1664245
1.1664559
1.1664706
1.1664674
1.1664224
1.1664066
1.1662471
1.1663615
1.1659321
1.1664085
1.1652866
1.1467927
1.1658445
1.1744631
1.1773947
1.1767064
1.1768696
1.1765559
1.1766312
1.1764554
1.1764317
1.1762909
1.1762164
1.1760879
1.17598
1.1758471
1.1757128
1.1755637
1.1754057
1.1752363
1.1750559
1.1748642
1.174661
1.1744461
1.1742195
1.1739812
1.1737314
1.1734701
1.1731978
1.1729149
1.1726219
1.1723197
1.172009
1.1716908
1.1713661
1.1710364
1.1707027
1.1703667
1.1700299
1.1696939
1.1693604
1.1690311
1.1687079
1.1683925
1.1680868
1.1677924
1.1675112
1.1672447
1.1669944
1.1667619
1.1665484
1.166355
1.1661827
1.1660322
1.1659041
1.1657987
1.165716
1.1656558
1.1656175
1.1656006
1.1656036
1.1656252
1.1656634
1.1657162
1.1657813
1.165856
1.1659371
1.1660208
1.1661036
1.1661805
1.1662484
1.1663006
1.1663345
1.1663485
1.1663218
1.1663198
1.1661797
1.1663036
1.1658951
1.16638
1.1652572
1.1416172
1.1625313
1.1696199
1.1722398
1.1714484
1.1718157
1.1715104
1.1716966
1.1715603
1.1716254
1.1715476
1.1715604
1.171507
1.171477
1.1714179
1.1713628
1.1712945
1.1712203
1.1711369
1.1710446
1.1709431
1.170832
1.1707111
1.1705801
1.1704389
1.1702875
1.1701259
1.1699543
1.1697728
1.169582
1.1693822
1.1691741
1.1689585
1.1687362
1.1685081
1.1682756
1.1680398
1.167802
1.1675638
1.1673267
1.1670924
1.1668624
1.1666384
1.1664222
1.1662154
1.1660197
1.1658366
1.1656677
1.1655143
1.1653777
1.165259
1.165159
1.1650785
1.1650179
1.1649775
1.1649573
1.164957
1.164976
1.1650135
1.1650683
1.1651387
1.165223
1.165319
1.1654245
1.1655365
1.1656521
1.1657675
1.1658791
1.165982
1.1660733
1.1661466
1.1661998
1.166231
1.1662228
1.166235
1.1661146
1.166248
1.1658599
1.1663526
1.1652299
1.1367971
1.1595104
1.1650623
1.1675614
1.166664
1.1671968
1.1668679
1.1671436