/*--------------------------------*- C++ -*----------------------------------*\
  =========                 |
  \\      /  F ield         | OpenFOAM: The Open Source CFD Toolbox
   \\    /   O peration     | Website:  https://openfoam.org
    \\  /    A nd           | Version:  12
     \\/     M anipulation  |
\*---------------------------------------------------------------------------*/
FoamFile
{
    format      ascii;
    class       volScalarField;
    location    "0.097";
    object      T;
}
// * * * * * * * * * * * * * * * * * * * * * * * * * * * * * * * * * * * * * //

dimensions      [0 0 0 1 0 0 0];

internalField   nonuniform List<scalar> 
16000
(
294.41914
285.96672
289.2402
287.45789
288.56527
288.05769
288.48009
288.36963
288.56646
288.60054
288.72167
288.80663
288.91217
289.01509
289.12398
289.23617
289.35249
289.47278
289.59713
289.72553
289.85802
289.99455
290.13512
290.27967
290.42812
290.58037
290.73629
290.89575
291.05854
291.22447
291.39328
291.56472
291.73848
291.91424
292.09164
292.27031
292.44986
292.62988
292.80994
292.98961
293.16846
293.34605
293.52197
293.69579
293.86714
294.03564
294.20095
294.36276
294.5208
294.67483
294.82465
294.97012
295.11111
295.24756
295.37945
295.50679
295.62963
295.74806
295.86221
295.97225
296.07841
296.18092
296.28004
296.37607
296.46933
296.56014
296.6488
296.7356
296.82087
296.90488
296.98792
297.07018
297.15173
297.23264
297.31318
297.3936
297.47606
297.57163
297.69758
297.81288
294.11602
285.56479
288.99679
287.10534
288.27993
287.73547
288.19301
288.07335
288.28456
288.32419
288.45232
288.54623
288.65897
288.77076
288.88811
289.00934
289.13488
289.26469
289.39882
289.53726
289.68
289.827
289.97821
290.13354
290.29289
290.4561
290.62301
290.79343
290.96712
291.14382
291.32323
291.50503
291.68886
291.87435
292.06109
292.24865
292.43658
292.62444
292.81176
292.99807
293.18292
293.36586
293.54646
293.72431
293.89902
294.07025
294.23767
294.40102
294.56006
294.71459
294.86446
295.00959
295.14989
295.28537
295.41604
295.54197
295.66326
295.78005
295.89249
296.0008
296.10521
296.20598
296.30339
296.39773
296.48933
296.57848
296.66548
296.75062
296.83418
296.91647
296.99779
297.07835
297.15826
297.23768
297.31686
297.39596
297.47837
297.57581
297.69388
297.82905
293.82775
285.19156
288.72075
286.79648
288.01085
287.45625
287.92763
287.81576
288.03191
288.08338
288.21706
288.32157
288.44247
288.56405
288.69104
288.82236
288.95827
289.09874
289.2438
289.3934
289.54753
289.70609
289.869
290.03614
290.20734
290.38242
290.56116
290.7433
290.92855
291.11658
291.30705
291.49955
291.69367
291.88897
292.08496
292.28118
292.47711
292.67227
292.86615
293.05825
293.2481
293.43524
293.61924
293.7997
293.97626
294.14861
294.31646
294.4796
294.63783
294.79103
294.93912
295.08205
295.21983
295.35252
295.48019
295.60298
295.72104
295.83454
295.9437
296.04876
296.14998
296.24765
296.34204
296.43347
296.52224
296.60864
296.69296
296.77545
296.85638
296.93606
297.01479
297.09281
297.17028
297.24744
297.32446
297.40167
297.4835
297.58057
297.69491
297.84125
293.56349
284.85056
288.50035
286.52495
287.77537
287.21059
287.69604
287.59362
287.81523
287.88009
288.02035
288.13669
288.26708
288.39966
288.53757
288.68021
288.82771
288.98002
289.13715
289.29902
289.46557
289.63668
289.81222
289.99202
290.17587
290.36352
290.55469
290.74905
290.94624
291.14587
291.3475
291.55065
291.75485
291.95956
292.16427
292.36841
292.57144
292.77282
292.97201
293.1685
293.36181
293.55149
293.73711
293.91832
294.0948
294.26628
294.43255
294.59344
294.74885
294.89872
295.04304
295.18186
295.31526
295.44336
295.5663
295.68429
295.79753
295.90626
296.01072
296.11119
296.20796
296.30133
296.39159
296.47904
296.56399
296.64672
296.72748
296.80652
296.88408
296.96044
297.03592
297.11079
297.18527
297.25965
297.33406
297.40912
297.48997
297.58566
297.69775
297.85158
293.32339
284.54572
288.29458
286.29973
287.58554
287.00692
287.50275
287.4143
287.63996
287.72083
287.86845
287.99795
288.13919
288.28391
288.43396
288.58909
288.74931
288.91458
289.08487
289.26008
289.4401
289.62478
289.81392
290.0073
290.20462
290.40558
290.6098
290.81689
291.02637
291.23778
291.45057
291.6642
291.87809
292.09164
292.30425
292.51531
292.72423
292.93043
293.13337
293.33251
293.5274
293.71761
293.90277
294.08256
294.25674
294.4251
294.58753
294.74394
294.89432
295.03871
295.17718
295.30987
295.43694
295.55859
295.67505
295.78657
295.89342
295.99587
296.09423
296.18878
296.27986
296.36776
296.45278
296.53524
296.61541
296.69356
296.76993
296.84472
296.91815
296.99049
297.06205
297.13313
297.20404
297.27509
297.34638
297.41894
297.49828
297.59176
297.70194
297.86071
293.11141
284.28432
288.12167
286.11151
287.42164
286.85171
287.35867
287.28406
287.51344
287.6114
287.76722
287.91066
288.06388
288.22166
288.38493
288.55361
288.7277
288.9071
289.09175
289.2815
289.47619
289.67558
289.87941
290.08735
290.29904
290.51405
290.73192
290.95212
291.1741
291.39726
291.62097
291.84458
292.06741
292.2888
292.50808
292.72459
292.93771
293.14685
293.35146
293.55104
293.74518
293.93349
294.11568
294.29152
294.46086
294.62359
294.7797
294.92922
295.07224
295.2089
295.33938
295.46391
295.58274
295.69614
295.80442
295.90788
296.00685
296.10166
296.19262
296.28007
296.36432
296.44571
296.52453
296.60108
296.67561
296.74839
296.81961
296.88946
296.9581
297.02578
297.09281
297.15955
297.22637
297.29359
297.36133
297.4311
297.50847
297.59897
297.70706
297.86931
292.93046
284.06813
287.98286
285.96033
287.29171
286.74656
287.25269
287.20547
287.43439
287.55347
287.7185
287.87665
288.04328
288.21541
288.39341
288.57722
288.76679
288.96196
289.16261
289.36848
289.57935
289.79486
290.01466
290.2383
290.46529
290.69509
290.92709
291.16064
291.39507
291.62965
291.86364
292.09629
292.32685
292.55457
292.77873
292.99866
293.21372
293.42335
293.62703
293.82432
294.01488
294.19843
294.37478
294.54381
294.70549
294.85986
295.00702
295.14712
295.28038
295.40705
295.52742
295.6418
295.75055
295.854
295.95251
296.04647
296.13622
296.22214
296.30456
296.38384
296.4603
296.53427
296.60604
296.67588
296.74404
296.81075
296.87617
296.94045
297.00373
297.0662
297.12818
297.19008
297.25234
297.31527
297.37908
297.4458
297.52074
297.60751
297.71324
297.87773
292.77828
283.89497
287.87443
285.84453
287.19301
286.6742
287.18192
287.1447
287.4054
287.54546
287.7223
287.89706
288.07957
288.26833
288.46338
288.6646
288.87188
289.08498
289.30366
289.52758
289.75637
289.98958
290.22669
290.46712
290.71024
290.95533
291.20166
291.44843
291.6948
291.93995
292.183
292.42313
292.6595
292.89133
293.11789
293.3385
293.55257
293.75958
293.9591
294.15082
294.3345
294.51
294.67727
294.83635
294.98736
295.13048
295.26597
295.3941
295.51524
295.62973
295.73797
295.84037
295.93735
296.02931
296.11668
296.19987
296.27926
296.35524
296.42818
296.49841
296.56628
296.63209
296.69611
296.75861
296.81981
296.87988
296.93898
296.9972
297.05463
297.11144
297.16793
297.22457
297.28187
297.34011
297.39967
297.46313
297.53517
297.61754
297.72067
297.88629
292.64981
283.76285
287.79985
285.76439
287.14366
286.67296
287.17482
287.20097
287.4298
287.59144
287.7837
287.97764
288.17904
288.3872
288.60202
288.82329
289.05078
289.28417
289.52308
289.76704
290.01553
290.26792
290.52353
290.7816
291.04131
291.30178
291.56209
291.82129
292.07841
292.33249
292.58257
292.82774
293.06715
293.3
293.5256
293.74333
293.95268
294.15327
294.34481
294.52712
294.70016
294.86397
295.01867
295.16449
295.30171
295.4307
295.55184
295.66558
295.77236
295.87267
295.96699
296.05579
296.13956
296.21877
296.29385
296.36525
296.43338
296.49862
296.56134
296.62188
296.68056
296.73766
296.79344
296.84813
296.90191
296.95495
297.00732
297.0591
297.11034
297.16114
297.21181
297.26286
297.31487
297.36809
297.42317
297.48318
297.5518
297.62917
297.72956
297.89523
292.54433
283.67407
287.76475
285.73548
287.14974
286.71522
287.214
287.26449
287.51245
287.70044
287.91168
288.12742
288.35074
288.58122
288.81867
289.06273
289.31306
289.56915
289.83049
290.09639
290.36614
290.63891
290.9138
291.18983
291.46597
291.74115
292.01426
292.28419
292.54985
292.81016
293.06414
293.31084
293.54942
293.77917
293.99948
294.20987
294.41001
294.59968
294.77882
294.94747
295.10579
295.25405
295.39259
295.52184
295.64226
295.75437
295.85871
295.95586
296.04637
296.1308
296.20971
296.28363
296.35309
296.41857
296.48055
296.53945
296.59569
296.64966
296.70169
296.75212
296.80123
296.84929
296.89652
296.94311
296.98921
297.03494
297.08035
297.12546
297.17026
297.21483
297.25945
297.30471
297.35118
297.39915
297.44961
297.50597
297.57065
297.64253
297.74002
297.90459
292.46567
283.63691
287.77535
285.82917
287.21474
286.8205
287.31178
287.40978
287.66503
287.88105
288.11532
288.356
288.60458
288.86061
289.12379
289.39357
289.66942
289.95063
290.23644
290.52593
290.81812
291.11192
291.40617
291.69964
291.99108
292.27919
292.5627
292.84037
293.11101
293.37352
293.62691
293.8703
294.10297
294.32435
294.53403
294.73177
294.91746
295.09118
295.25312
295.4036
295.54304
295.67194
295.79087
295.90045
296.00133
296.09418
296.17967
296.25844
296.33116
296.39845
296.46089
296.51906
296.57349
296.62466
296.67304
296.71907
296.76312
296.80556
296.84671
296.88686
296.92627
296.96516
297.00373
297.04212
297.08044
297.11877
297.15712
297.19545
297.23373
297.27196
297.31045
297.3498
297.3906
297.43319
297.47898
297.53148
297.59171
297.65791
297.75242
297.91411
292.4203
283.66451
287.83988
285.96818
287.32626
286.99588
287.48068
287.62371
287.89641
288.14312
288.40485
288.67417
288.95172
289.23686
289.5291
289.82765
290.13171
290.44027
290.75226
291.06644
291.38151
291.69606
292.00863
292.31772
292.62186
292.91957
293.20944
293.49017
293.76055
294.01956
294.26631
294.50012
294.7205
294.92716
295.11998
295.29906
295.46464
295.61711
295.75699
295.88488
296.00148
296.10754
296.20384
296.29116
296.3703
296.44205
296.50715
296.56634
296.6203
296.66968
296.71509
296.75708
296.79618
296.83286
296.86755
296.90066
296.93254
296.9635
296.99383
297.02378
297.05358
297.08339
297.11338
297.14365
297.17427
297.20525
297.23659
297.26819
297.29997
297.33191
297.3643
297.39774
297.43282
297.47004
297.51121
297.55964
297.61493
297.67556
297.76724
297.92362
292.41296
283.76266
287.96862
286.1622
287.50332
287.24815
287.72916
287.92159
288.21697
288.49776
288.79182
289.09412
289.40485
289.72305
290.0479
290.37828
290.713
291.05066
291.38978
291.72873
292.06582
292.3993
292.72741
293.0484
293.36062
293.66247
293.95252
294.22953
294.49242
294.74039
294.97284
295.18943
295.39005
295.57481
295.74403
295.8982
296.03797
296.16408
296.27738
296.37877
296.4692
296.54961
296.62095
296.68414
296.74007
296.78958
296.83347
296.87249
296.90732
296.9386
296.96692
296.99279
297.01672
297.03912
297.06039
297.08087
297.10088
297.12068
297.14052
297.16059
297.18107
297.2021
297.22378
297.24617
297.2693
297.29316
297.31767
297.34271
297.36816
297.39398
297.42042
297.44807
297.4775
297.50948
297.54617
297.59027
297.64017
297.69566
297.78468
297.93358
292.44576
283.93901
288.16648
286.4425
287.75553
287.58535
288.06781
288.31279
288.63872
288.95821
289.29018
289.63059
289.97921
290.33462
290.69555
291.06039
291.42744
291.7948
292.1605
292.52248
292.87863
293.22689
293.56522
293.89174
294.2047
294.50257
294.78409
295.04826
295.29439
295.52207
295.73121
295.92197
296.09477
296.25025
296.3892
296.51257
296.6214
296.71678
296.79986
296.87177
296.93364
296.98656
297.03157
297.06966
297.10176
297.1287
297.15128
297.17023
297.18618
297.19973
297.21141
297.22169
297.231
297.2397
297.24814
297.2566
297.26532
297.27454
297.28442
297.29513
297.30678
297.31947
297.33326
297.34817
297.36418
297.38124
297.39925
297.41803
297.43743
297.45741
297.47818
297.50025
297.52421
297.55119
297.58359
297.62313
297.66719
297.71801
297.80472
297.94426
292.5235
284.20678
288.43676
286.81075
288.09581
288.01915
288.51052
288.81233
289.17743
289.54167
289.91783
290.30197
290.69326
291.08969
291.48933
291.88995
292.28924
292.68472
293.07391
293.45427
293.82338
294.17889
294.5187
294.84094
295.14406
295.42687
295.68854
295.92864
296.14707
296.34412
296.52033
296.67654
296.81376
296.93318
297.03608
297.12382
297.19778
297.25934
297.30982
297.35052
297.38267
297.4074
297.42579
297.4388
297.44733
297.45219
297.4541
297.45371
297.45161
297.44831
297.44426
297.43986
297.43546
297.43137
297.42785
297.42511
297.42336
297.42275
297.4234
297.42543
297.42889
297.43384
297.44029
297.44823
297.4576
297.46832
297.48024
297.49316
297.50692
297.52144
297.53691
297.55371
297.57248
297.59476
297.62306
297.65784
297.69569
297.74222
297.82693
297.95523
292.65051
284.58452
288.77565
287.2813
288.5375
288.5649
289.0756
289.44013
289.85415
290.27032
290.69717
291.13036
291.56821
292.00796
292.4469
292.88206
293.31043
293.72891
294.13453
294.52441
294.89594
295.24682
295.57516
295.87952
296.15894
296.41294
296.6415
296.84504
297.02432
297.18044
297.31471
297.42863
297.52382
297.60194
297.66467
297.71367
297.75054
297.77679
297.79386
297.80307
297.80564
297.80268
297.7952
297.7841
297.77017
297.75415
297.73665
297.71824
297.69939
297.68052
297.66201
297.64416
297.62724
297.61149
297.59708
297.58419
297.57292
297.5634
297.55567
297.5498
297.54582
297.54371
297.54348
297.54506
297.54837
297.55328
297.55962
297.56718
297.57577
297.58533
297.59595
297.60787
297.62181
297.6397
297.66402
297.69391
297.72543
297.76772
297.85041
297.9661
292.83147
285.10202
289.19087
287.87215
289.10206
289.24595
289.78895
290.2233
290.69595
291.17112
291.65417
292.14009
292.62612
293.10856
293.58375
294.04788
294.49722
294.92819
295.33752
295.72235
296.08037
296.40981
296.70959
296.9792
297.21875
297.42887
297.61065
297.76554
297.89526
298.00173
298.08697
298.15306
298.20203
298.2359
298.25655
298.26579
298.26527
298.25653
298.24095
298.21979
298.19417
298.16509
298.13343
298.09997
298.06538
298.03026
297.99512
297.96039
297.92645
297.89361
297.86216
297.8323
297.80423
297.7781
297.75403
297.73211
297.7124
297.69495
297.67977
297.66688
297.65626
297.64787
297.64166
297.63755
297.63542
297.63514
297.63649
297.63925
297.64323
297.64836
297.65462
297.66214
297.67169
297.68552
297.70589
297.73083
297.75631
297.79415
297.8744
297.97724
293.07802
285.80569
289.72526
288.6145
289.82037
290.09358
290.68311
291.19416
291.73388
292.27371
292.81618
293.35536
293.88704
294.40637
294.90863
295.38927
295.84414
296.26964
296.66289
297.02178
297.34505
297.63224
297.88368
298.10032
298.28372
298.43583
298.55893
298.65547
298.72802
298.77913
298.81133
298.82701
298.82845
298.81774
298.7968
298.76739
298.73109
298.68928
298.64323
298.59401
298.54259
298.4898
298.43635
298.38288
298.3299
298.27787
298.22716
298.17809
298.13093
298.0859
298.04316
298.00285
297.96509
297.92994
297.89747
297.8677
297.84065
297.81631
297.79465
297.77563
297.75921
297.74532
297.73388
297.72478
297.71791
297.71307
297.71004
297.7086
297.70857
297.70983
297.71227
297.7159
297.72158
297.73166
297.74803
297.768
297.78802
297.82166
297.89844
297.99046
293.41697
286.67784
290.40564
289.54548
290.73015
291.14254
291.79432
292.38876
293.00194
293.60927
294.21
294.79686
295.36401
295.90547
296.41592
296.89075
297.32633
297.72013
298.07075
298.37785
298.6421
298.86501
299.04875
299.19602
299.30981
299.39331
299.44977
299.48237
299.4942
299.48814
299.46688
299.43286
299.38832
299.33523
299.27536
299.21026
299.1413
299.06964
298.99632
298.92222
298.84808
298.77455
298.70215
298.63134
298.56251
298.49594
298.4319
298.37059
298.31215
298.25673
298.20439
298.1552
298.1092
298.0664
298.02679
297.99036
297.95705
297.92683
297.89963
297.87537
297.85399
297.83538
297.81946
297.8061
297.79514
297.7864
297.77964
297.77461
297.77114
297.76908
297.76821
297.76849
297.77087
297.77754
297.78974
297.80456
297.82
297.85088
297.92286
298.00452
293.88856
287.66457
291.2749
290.70086
291.87542
292.43479
293.16555
293.84908
294.53735
295.20771
295.85571
296.47281
297.05213
297.58765
298.07481
298.51054
298.89333
299.22314
299.5012
299.72983
299.91215
300.05183
300.15288
300.21945
300.25566
300.26549
300.25268
300.22071
300.17274
300.11163
300.0399
299.95979
299.87326
299.782
299.68747
299.59094
299.49348
299.396
299.29926
299.2039
299.11047
299.0194
298.93104
298.8457
298.76358
298.68489
298.60974
298.53823
298.47043
298.40637
298.34607
298.28951
298.23666
298.18749
298.14194
298.09994
298.06142
298.02628
297.99443
297.96578
297.94023
297.91767
297.89798
297.88104
297.86666
297.85464
297.84473
297.8367
297.83034
297.82544
297.82173
297.81922
297.81887
297.8225
297.83046
297.83995
297.85137
297.88083
297.94805
298.0164
294.54849
288.93591
292.38058
292.13276
293.31707
294.02864
294.84948
295.61972
296.37158
297.08422
297.75046
298.36199
298.91305
299.39992
299.82111
300.17709
300.47005
300.7035
300.88194
301.01043
301.09436
301.13913
301.14998
301.13188
301.08939
301.02666
300.9474
300.85488
300.75198
300.64118
300.5246
300.40408
300.28118
300.1572
300.03324
299.91023
299.78893
299.66996
299.55384
299.44097
299.3317
299.22628
299.1249
299.02771
298.9348
298.84625
298.76208
298.68231
298.60691
298.53584
298.46907
298.40651
298.34809
298.29373
298.24333
298.19678
298.15397
298.11479
298.07912
298.04686
298.01787
297.99205
297.96927
297.94937
297.93216
297.91742
297.9049
297.89435
297.88556
297.87824
297.87213
297.86732
297.86476
297.86573
297.86968
297.87403
297.88159
297.90945
297.97132
298.02413
295.45333
290.55317
293.80851
293.92077
295.134
295.99146
296.89364
297.72624
298.50532
299.21394
299.84587
300.39638
300.86425
301.25088
301.55997
301.79689
301.96811
302.0807
302.14189
302.15875
302.13799
302.08576
302.00762
301.90849
301.79268
301.66393
301.52543
301.3799
301.22963
301.07656
300.92229
300.76816
300.61527
300.46451
300.31663
300.17221
300.03172
299.89553
299.76392
299.63712
299.51525
299.39844
299.28673
299.18015
299.0787
298.98234
298.89103
298.8047
298.72327
298.64664
298.57471
298.50738
298.44451
298.38599
298.33169
298.28147
298.23521
298.19277
298.15401
298.11882
298.08705
298.05859
298.03329
298.01098
297.99145
297.97447
297.95977
297.94711
297.93624
297.92687
297.91874
297.91205
297.90767
297.90632
297.90672
297.9066
297.91026
297.93462
297.9894
298.03002
296.58453
292.64068
295.66421
296.1485
297.39251
298.36687
299.30496
300.1395
300.87703
301.50883
302.03498
302.4584
302.78526
303.02373
303.18326
303.27374
303.30499
303.2863
303.22621
303.13238
303.01152
302.86944
302.7111
302.54068
302.36169
302.17705
301.98918
301.80005
301.61128
301.42419
301.23983
301.05906
300.88254
300.7108
300.54424
300.38317
300.2278
300.07829
299.93472
299.79714
299.66556
299.53996
299.42028
299.30645
299.19839
299.096
298.99915
298.90773
298.8216
298.74063
298.66467
298.59358
298.52721
298.46541
298.40802
298.3549
298.30588
298.26084
298.21961
298.18207
298.14807
298.11749
298.09015
298.06588
298.04445
298.0256
298.00908
297.99463
297.98199
297.97086
297.96108
297.95289
297.94699
297.94352
297.94083
297.93718
297.93746
297.95666
298.0016
298.03538
298.1208
295.31095
298.04291
298.86898
300.08773
301.12337
302.0077
302.74625
303.34817
303.81741
304.16452
304.40201
304.54382
304.60397
304.5959
304.5319
304.4229
304.27837
304.10639
303.91373
303.70601
303.48783
303.26296
303.03446
302.80478
302.57588
302.34933
302.12637
301.90795
301.69484
301.4876
301.28665
301.09231
300.90478
300.7242
300.55064
300.38412
300.22462
300.07208
299.92642
299.78755
299.65534
299.52965
299.41035
299.29728
299.1903
299.08923
298.99391
298.90418
298.81986
298.74078
298.66678
298.59768
298.5333
298.47349
298.41807
298.36688
298.31977
298.27658
298.23717
298.20138
298.16908
298.14009
298.1142
298.09119
298.07079
298.05274
298.03677
298.02262
298.01003
297.99893
297.98958
297.98239
297.97701
297.97167
297.96538
297.96331
297.97783
298.01226
298.03603
300.10255
298.63379
300.93997
302.0564
303.24486
304.1129
304.82241
305.35191
305.724
305.95725
306.07302
306.09157
306.0316
305.90952
305.73937
305.53285
305.29956
305.04729
304.78225
304.50941
304.23267
303.95509
303.67908
303.40647
303.1387
302.87683
302.62169
302.37385
302.13374
301.90166
301.67778
301.46219
301.25492
301.05595
300.8652
300.68258
300.50795
300.34118
300.1821
300.03052
299.88629
299.74919
299.61906
299.49568
299.37887
299.26843
299.16417
299.06589
298.9734
298.8865
298.80501
298.72874
298.65749
298.59109
298.52936
298.47212
298.4192
298.37043
298.32566
298.28474
298.2475
298.21379
298.18342
298.15619
298.13185
298.11016
298.09083
298.07362
298.05823
298.04446
298.03229
298.02194
298.01358
298.00653
297.99916
297.99109
297.98722
297.99686
298.02027
298.03148
302.55873
302.59297
304.60447
305.58151
306.47895
307.0927
307.50149
307.72674
307.80501
307.76607
307.63684
307.43955
307.19229
306.90945
306.60229
306.27955
305.9479
305.61246
305.27708
304.94466
304.61737
304.29679
303.98409
303.6801
303.38538
303.1003
302.82508
302.55983
302.30456
302.05921
301.82369
301.59784
301.3815
301.17446
300.97653
300.78747
300.60705
300.43505
300.27123
300.11535
299.96718
299.82648
299.69302
299.56657
299.44692
299.33384
299.2271
299.12651
299.03185
298.94291
298.85949
298.78139
298.70841
298.64036
298.57705
298.51831
298.46395
298.41381
298.36772
298.32552
298.28704
298.25212
298.22056
298.19216
298.16669
298.14389
298.12353
298.10531
298.08896
298.07426
298.06115
298.04977
298.04007
298.03138
298.02246
298.01339
298.00791
298.01181
298.02257
298.02279
305.63209
307.03039
308.36116
309.06545
309.54555
309.757
309.7823
309.66338
309.44102
309.14563
308.80069
308.42367
308.02746
307.62148
307.21257
306.80563
306.40415
306.01062
305.62674
305.25367
304.89214
304.54263
304.20534
303.88037
303.56766
303.26708
302.97844
302.70151
302.43603
302.18171
301.93826
301.70538
301.48276
301.2701
301.0671
300.87345
300.68886
300.51304
300.34571
300.1866
300.03543
299.89194
299.75589
299.62701
299.50506
299.38983
299.28106
299.17853
299.08204
298.99135
298.90627
298.82658
298.75208
298.68257
298.61787
298.55779
298.50216
298.45078
298.4035
298.36015
298.32055
298.28452
298.25188
298.22242
298.19592
298.17216
298.15089
298.13184
298.11471
298.09924
298.08528
298.07278
298.06156
298.05099
298.04028
298.02968
298.02191
298.02064
298.02409
298.01651
309.59215
311.38185
311.92458
312.11285
312.0596
311.82656
311.47617
311.05089
310.58092
310.087
309.58319
309.07896
308.58062
308.09232
307.6167
307.15543
306.70944
306.27922
305.86491
305.46646
305.08364
304.71614
304.36358
304.02554
303.70159
303.39129
303.09417
302.80981
302.53777
302.27763
302.02898
301.79141
301.56455
301.34803
301.14148
300.94457
300.75696
300.57833
300.40837
300.24678
300.09328
299.94758
299.80942
299.67855
299.5547
299.43764
299.32712
299.22292
299.12481
299.03258
298.94601
298.86488
298.78901
298.71818
298.65221
298.59091
298.53409
298.48158
298.43319
298.38876
298.34811
298.31106
298.27741
298.24696
298.21951
298.19485
298.17272
298.15287
298.13499
298.11882
298.10412
298.09069
298.07821
298.0662
298.05424
298.04264
298.03293
298.02665
298.02201
298.01162
314.5594
314.93285
314.66363
314.29542
313.77281
313.17955
312.55126
311.91358
311.28067
310.66119
310.05991
309.47941
308.92088
308.38466
307.87059
307.37819
306.90681
306.45572
306.02412
305.61123
305.21626
304.83847
304.47711
304.1315
303.80098
303.48492
303.18274
302.89387
302.61778
302.35399
302.102
301.86138
301.63169
301.41253
301.20352
301.00428
300.81447
300.63374
300.46177
300.29826
300.1429
299.99542
299.85553
299.72298
299.5975
299.47885
299.36679
299.2611
299.16153
299.06788
298.97993
298.89747
298.8203
298.74822
298.68103
298.61855
298.56059
298.50696
298.45749
298.41199
298.37029
298.33221
298.29755
298.26613
298.23773
298.21215
298.18915
298.16846
298.14983
298.13297
298.11762
298.10347
298.09015
298.07728
298.06463
298.05229
298.04066
298.03001
298.01968
298.00774
316.56032
316.7285
316.15446
315.3918
314.61199
313.83107
313.06938
312.33455
311.63005
310.95688
310.31473
309.70266
309.11942
308.56359
308.03376
307.52853
307.04659
306.58667
306.14761
305.72833
305.32781
304.94513
304.57942
304.22988
303.89576
303.57639
303.2711
302.9793
302.70043
302.43397
302.17941
301.93629
301.70418
301.48265
301.27132
301.0698
300.87774
300.6948
300.52065
300.35498
300.1975
300.04792
299.90596
299.77136
299.64387
299.52324
299.40923
299.30161
299.20016
299.10466
299.01489
298.93066
298.85176
298.778
298.70917
298.64509
298.58558
298.53044
298.47949
298.43256
298.38945
298.35001
298.31404
298.28138
298.25183
298.22518
298.20119
298.17961
298.16015
298.14253
298.12642
298.11148
298.09734
298.08376
298.07058
298.05767
298.04475
298.03146
298.01803
298.0058
310.49092
309.06108
305.32178
302.36871
301.06493
300.77302
300.70521
300.70317
300.59018
300.53388
300.43315
300.3584
300.27086
300.18378
300.0972
300.01023
299.92261
299.83433
299.74538
299.65582
299.56573
299.47523
299.38442
299.29343
299.20241
299.11149
299.0208
298.93049
298.84069
298.75153
298.66314
298.57565
298.48919
298.40389
298.31986
298.23723
298.15613
298.07667
297.99897
297.92317
297.84937
297.77771
297.70831
297.64129
297.57677
297.51489
297.45575
297.39949
297.34621
297.29604
297.24908
297.20542
297.16517
297.12841
297.0952
297.06561
297.03968
297.01745
296.99895
296.98424
296.97341
296.96658
296.96384
296.96534
296.97128
296.98193
296.9976
297.01873
297.04564
297.07892
297.11891
297.166
297.22191
297.28312
297.35946
297.42636
297.52902
297.57213
297.73455
297.74721
309.61638
306.63515
302.37165
300.26799
299.68569
299.68709
299.79071
299.80233
299.79648
299.76998
299.74536
299.70856
299.66616
299.61868
299.56721
299.51198
299.45338
299.39173
299.32731
299.26046
299.19144
299.12054
299.04799
298.97406
298.89897
298.82294
298.7462
298.66895
298.59138
298.5137
298.4361
298.35875
298.28184
298.20554
298.13002
298.05544
297.98198
297.90978
297.83902
297.76984
297.70241
297.63686
297.57335
297.51204
297.45306
297.39656
297.34268
297.29155
297.2433
297.19806
297.15593
297.11704
297.08147
297.04932
297.02064
296.99551
296.97397
296.95606
296.9418
296.93125
296.92451
296.92167
296.92284
296.92814
296.93777
296.95199
296.97109
296.9955
297.02554
297.06178
297.10454
297.15426
297.21239
297.27587
297.35327
297.42191
297.524
297.56899
297.73114
297.74409
308.15823
304.51908
301.33918
299.62132
299.2855
299.3265
299.36114
299.33573
299.30729
299.27507
299.2439
299.20931
299.17298
299.1338
299.09245
299.0487
299.00274
298.95454
298.9042
298.85182
298.7975
298.74136
298.68353
298.62415
298.56336
298.50133
298.4382
298.37416
298.30937
298.24401
298.17825
298.11227
298.04627
297.98041
297.91489
297.84988
297.78557
297.72213
297.65976
297.59863
297.53891
297.48078
297.42442
297.37
297.31767
297.26761
297.21996
297.17489
297.13254
297.09303
297.05651
297.02307
296.99284
296.96589
296.9423
296.92214
296.90546
296.89229
296.88265
296.87662
296.87428
296.87572
296.88103
296.89034
296.90383
296.92175
296.94439
296.97216
297.00539
297.04463
297.09018
297.14252
297.20288
297.26854
297.34707
297.41723
297.51909
297.56565
297.72777
297.74133
306.93068
303.03027
300.16862
298.86469
298.80713
298.82528
298.84284
298.80744
298.78877
298.75999
298.7361
298.70733
298.67829
298.64728
298.61517
298.58142
298.5462
298.50937
298.47093
298.43088
298.38924
298.34603
298.30129
298.2551
298.20751
298.15862
298.10853
298.05736
298.00521
297.95225
297.8986
297.84442
297.78987
297.73514
297.68037
297.62577
297.5715
297.51776
297.46473
297.4126
297.36157
297.31182
297.26354
297.21692
297.17213
297.12937
297.08879
297.05056
297.01485
296.98179
296.95153
296.92419
296.89988
296.87869
296.8607
296.84599
296.8346
296.82657
296.82193
296.82074
296.82309
296.82907
296.83875
296.85227
296.86978
296.89153
296.91782
296.94904
296.98552
297.02779
297.07615
297.13108
297.19366
297.26141
297.34109
297.41262
297.51439
297.56227
297.72453
297.73884
306.19948
301.80313
299.19631
298.23391
298.30758
298.28373
298.30913
298.27251
298.2651
298.24079
298.22527
298.20349
298.18296
298.16066
298.13781
298.11373
298.08858
298.06221
298.0346
298.0057
297.97549
297.94395
297.91108
297.8769
297.84143
297.80472
297.76682
297.7278
297.68774
297.64675
297.60493
297.5624
297.5193
297.47577
297.43197
297.38807
297.34422
297.30062
297.25744
297.21488
297.17313
297.13238
297.09282
297.05466
297.01807
296.98325
296.95038
296.91963
296.89117
296.86516
296.84173
296.82102
296.80315
296.7882
296.77627
296.76742
296.76172
296.75919
296.75987
296.76381
296.77112
296.78187
296.79613
296.81401
296.83569
296.8614
296.89142
296.92616
296.96592
297.01125
297.06242
297.11993
297.18467
297.25444
297.33526
297.40806
297.50984
297.55889
297.7214
297.73661
305.6216
300.60803
298.38841
297.62905
297.77491
297.72084
297.76586
297.72982
297.73718
297.71951
297.71485
297.70169
297.69079
297.67787
297.66464
297.65029
297.63499
297.61863
297.60118
297.58262
297.56291
297.54203
297.51998
297.49675
297.47236
297.44681
297.42014
297.3924
297.36363
297.33391
297.30331
297.27194
297.23989
297.20729
297.17427
297.14098
297.10757
297.07419
297.04104
297.00828
296.9761
296.9447
296.91426
296.88497
296.85703
296.83063
296.80595
296.78317
296.76245
296.74396
296.72784
296.71423
296.70323
296.69495
296.68947
296.68687
296.6872
296.69049
296.69678
296.70613
296.71863
296.73435
296.75335
296.77576
296.80172
296.83148
296.86532
296.90362
296.94671
296.99511
297.04907
297.10912
297.17598
297.24768
297.32962
297.40362
297.50542
297.55556
297.71837
297.73466
305.03327
299.54576
297.73275
297.07618
297.26996
297.18978
297.25434
297.21681
297.23661
297.22355
297.22791
297.22191
297.21894
297.21372
297.20844
297.20224
297.19528
297.18746
297.17876
297.16914
297.15857
297.14702
297.13449
297.12094
297.10639
297.09082
297.07426
297.05672
297.03824
297.01888
296.99867
296.97771
296.95606
296.93384
296.91114
296.8881
296.86485
296.84154
296.81831
296.79534
296.77281
296.75088
296.72973
296.70956
296.69055
296.67288
296.65673
296.64227
296.62967
296.61909
296.61065
296.6045
296.60075
296.59949
296.60081
296.60478
296.61144
296.62084
296.63299
296.64797
296.66586
296.68672
296.71062
296.73767
296.76802
296.80191
296.83962
296.88152
296.92796
296.97943
297.03617
297.0987
297.16761
297.24117
297.32416
297.39933
297.50112
297.55234
297.71545
297.73298
304.54356
298.59312
297.18199
296.57022
296.80245