/*--------------------------------*- C++ -*----------------------------------*\
  =========                 |
  \\      /  F ield         | OpenFOAM: The Open Source CFD Toolbox
   \\    /   O peration     | Website:  https://openfoam.org
    \\  /    A nd           | Version:  12
     \\/     M anipulation  |
\*---------------------------------------------------------------------------*/
FoamFile
{
    format      ascii;
    class       volScalarField;
    location    "0.011";
    object      Ma;
}
// * * * * * * * * * * * * * * * * * * * * * * * * * * * * * * * * * * * * * //

dimensions      [];

internalField   nonuniform List<scalar> 
16000
(
0.61691771
0.73506016
0.69048844
0.71488862
0.69998411
0.70689404
0.701245
0.70279221
0.70022555
0.69981275
0.6982241
0.69711479
0.69572319
0.69436131
0.69291415
0.69141799
0.68986239
0.68824959
0.6865791
0.68485111
0.68306592
0.68122398
0.67932598
0.67737283
0.67536567
0.67330589
0.67119516
0.6690354
0.66682881
0.66457791
0.66228548
0.65995466
0.65758887
0.65519192
0.65276799
0.65032164
0.64785785
0.64538202
0.64289994
0.64041777
0.63794198
0.63547926
0.63303641
0.63062031
0.62823778
0.62589558
0.62360036
0.62135877
0.61917745
0.61706319
0.61502302
0.6130643
0.61119485
0.60942301
0.60775775
0.60620843
0.60478437
0.60349399
0.60234476
0.60134433
0.60049892
0.59980902
0.59926973
0.59887102
0.59859235
0.59840444
0.59825594
0.59810838
0.59787069
0.59748389
0.59688195
0.59602268
0.59494208
0.59371103
0.59246083
0.591257
0.590575
0.59258424
0.58814914
0.59481399
0.62172645
0.7403306
0.69398229
0.71962931
0.70392048
0.71127947
0.70519662
0.70686154
0.70410738
0.70362539
0.70195228
0.7007303
0.69925045
0.69777765
0.69622519
0.69461579
0.69294433
0.69121136
0.68941697
0.68756138
0.68564509
0.68366884
0.68163363
0.67954075
0.6773918
0.67518868
0.67293363
0.67062919
0.66827828
0.66588412
0.66345027
0.66098063
0.65847946
0.65595134
0.6534012
0.65083432
0.64825632
0.64567318
0.64309114
0.64051674
0.63795668
0.63541782
0.63290701
0.63043104
0.62799656
0.62561002
0.62327766
0.62100558
0.61879976
0.61666622
0.61461117
0.61264112
0.61076311
0.60898481
0.60731465
0.60576189
0.60433643
0.60304803
0.60190536
0.60091609
0.60008666
0.59941989
0.59891443
0.59856316
0.59834804
0.59824618
0.59823541
0.5982094
0.59812169
0.59793564
0.59753244
0.59686597
0.59592933
0.59476657
0.59346903
0.59238944
0.59226154
0.59303756
0.59142241
0.59517021
0.62628374
0.74522543
0.69779064
0.72384056
0.70767893
0.7151395
0.70890623
0.71046916
0.70764815
0.70701416
0.70527655
0.70392072
0.70234052
0.70074496
0.69907196
0.69733551
0.695533
0.69366471
0.69173095
0.68973224
0.68766943
0.68554364
0.68335632
0.68110928
0.67880468
0.67644507
0.67403336
0.67157288
0.66906734
0.66652081
0.66393778
0.66132307
0.65868188
0.65601971
0.65334241
0.65065609
0.64796716
0.64528222
0.64260809
0.63995169
0.63732
0.63471997
0.63215842
0.62964193
0.6271768
0.62476899
0.62242408
0.62014736
0.61794389
0.61581862
0.61377659
0.61182309
0.60996391
0.60820557
0.60655545
0.60502201
0.603615
0.60234504
0.60122209
0.60025393
0.59944657
0.59880511
0.5983321
0.59802333
0.59786445
0.59783439
0.59789751
0.59800776
0.59811205
0.59809285
0.59792057
0.59751271
0.59683218
0.59588983
0.59482206
0.5941099
0.5942993
0.59491127
0.59485782
0.59599174
0.63051284
0.74974966
0.70100596
0.72763302
0.71104711
0.71860029
0.71221375
0.71364733
0.71075868
0.70995055
0.70813427
0.70662845
0.7049298
0.70319517
0.7013839
0.69950325
0.69755255
0.69553205
0.69344239
0.69128448
0.68905956
0.68676923
0.68441548
0.68200071
0.67952779
0.677
0.67442111
0.67179535
0.6691274
0.66642237
0.66368582
0.66092367
0.65814218
0.65534793
0.65254775
0.64974866
0.64695786
0.64418259
0.64143016
0.63870779
0.63602257
0.63338138
0.63079079
0.62825693
0.62578551
0.6233817
0.62105017
0.61879515
0.61662051
0.61452991
0.612527
0.61061565
0.60880024
0.60708592
0.60547884
0.60398641
0.60261768
0.60138328
0.60029406
0.59935858
0.59858344
0.59797544
0.59753957
0.59727428
0.59716854
0.59720754
0.59736181
0.59758651
0.59782931
0.59803135
0.59812086
0.59803004
0.59771255
0.597156
0.59654519
0.59636469
0.59687793
0.59767332
0.59844349
0.59705319
0.63439418
0.75383743
0.70403862
0.73077198
0.71389392
0.72154132
0.71505454
0.71628237
0.71335448
0.71233465
0.71042789
0.70875336
0.70691653
0.70502593
0.70305808
0.70101592
0.69889976
0.69671005
0.69444774
0.69211413
0.68971091
0.68724025
0.68470482
0.68210778
0.67945287
0.67674436
0.67398707
0.67118641
0.66834827
0.66547903
0.66258554
0.65967501
0.65675495
0.65383311
0.6509174
0.64801578
0.64513619
0.64228648
0.63947426
0.63670691
0.63399139
0.63133426
0.6287415
0.62621854
0.62377011
0.6214003
0.61911255
0.61690972
0.61479423
0.61276823
0.61083378
0.60899313
0.60724905
0.60560514
0.60406618
0.60263831
0.60132937
0.60014908
0.59910827
0.59821705
0.59748404
0.59691727
0.5965231
0.59630342
0.59625123
0.59635938
0.59660236
0.59695498
0.59737734
0.59781902
0.59822424
0.59852939
0.59867228
0.59863702
0.59864241
0.59908337
0.59995111
0.60095114
0.60204707
0.59813518
0.63785538
0.75738077
0.70663427
0.73344906
0.71625657
0.72385618
0.71730768
0.71827325
0.71532374
0.71406647
0.71205456
0.71019829
0.70820549
0.70614441
0.7040035
0.7017833
0.69948454
0.69710805
0.69465515
0.69212772
0.68952815
0.68685946
0.68412525
0.68132981
0.67847806
0.6755756
0.67262868
0.66964414
0.66662942
0.66359245
0.66054158
0.65748549
0.65443306
0.65139328
0.64837512
0.64538741
0.64243869
0.63953716
0.63669054
0.63390596
0.63118996
0.62854834
0.62598615
0.62350764
0.62111623
0.61881455
0.61660444
0.61448714
0.61246337
0.6105336
0.60869816
0.6069576
0.60531299
0.60376635
0.60232098
0.60098173
0.59975516
0.59864959
0.59767528
0.59684378
0.59616633
0.59565258
0.59531093
0.59514678
0.59516048
0.59535384
0.59571011
0.59621816
0.59685385
0.59758277
0.59836121
0.59912597
0.59978926
0.60032999
0.60098375
0.60202412
0.60320319
0.60429641
0.60541235
0.5989695
0.64082428
0.76032457
0.70876358
0.73561171
0.7182095
0.72548386
0.71885518
0.71954124
0.71659424
0.71508768
0.71295565
0.71090647
0.70873813
0.70648865
0.70415393
0.70173395
0.69922992
0.69664336
0.69397639
0.69123186
0.68841325
0.68552481
0.68257153
0.67955921
0.67649436
0.67338431
0.67023708
0.66706135
0.66386635
0.66066182
0.65745779
0.65426451
0.65109226
0.64795121
0.64485123
0.64180177
0.63881168
0.63588913
0.63304147
0.6302752
0.62759586
0.62500804
0.62251535
0.62012042
0.61782491
0.61562958
0.61353441
0.61153875
0.60964151
0.60784135
0.60613686
0.60452692
0.60301098
0.60158954
0.6002645
0.59903951
0.59792001
0.59691322
0.59602878
0.59527903
0.59467722
0.59423584
0.59396702
0.5938807
0.59398649
0.59429415
0.59479924
0.59550412
0.5963964
0.59745487
0.5986409
0.59987865
0.60104819
0.60211245
0.60330802
0.6047983
0.60616158
0.60725725
0.60809561
0.59942446
0.64330345
0.76267034
0.71043745
0.73727171
0.71971324
0.7265391
0.7200125
0.72048255
0.71720867
0.71539755
0.71311312
0.71084747
0.7084714
0.70600342
0.70344345
0.70079217
0.69805149
0.69522401
0.69231304
0.68932277
0.68625818
0.68312523
0.6799307
0.67668234
0.67338872
0.6700593
0.66670424
0.66333436
0.65996098
0.65659575
0.65325051
0.64993701
0.6466668
0.64345096
0.64029991
0.63722329
0.63422972
0.63132678
0.62852085
0.62581712
0.62321956
0.62073094
0.61835287
0.61608585
0.61392938
0.61188205
0.60994173
0.60810578
0.60637125
0.60473506
0.60319424
0.60174615
0.60038889
0.5991217
0.59794538
0.59686264
0.59587813
0.59499852
0.59423334
0.59359531
0.59309904
0.59276036
0.59259653
0.59262378
0.59285915
0.59331949
0.59401307
0.59494964
0.59612394
0.59751975
0.59909262
0.60073896
0.60229843
0.6037244
0.60524962
0.60695997
0.60840258
0.6095076
0.61004253
0.59948519
0.64535767
0.76445146
0.71162872
0.73843686
0.72054212
0.72676387
0.72027338
0.7200178
0.71702483
0.71495266
0.71246702
0.70994937
0.70732382
0.70459813
0.70177398
0.69885328
0.69583895
0.69273505
0.68954644
0.68627916
0.68294018
0.67953763
0.67608066
0.67257948
0.66904519
0.66548979
0.66192597
0.65836696
0.65482627
0.65131756
0.64785428
0.64444949
0.6411156
0.63786409
0.63470535
0.63164846
0.6287011
0.62586941
0.62315803
0.62057007
0.61810721
0.61576976
0.61355678
0.61146623
0.60949509
0.6076396
0.60589547
0.60425813
0.60272294
0.60128534
0.59994109
0.59868647
0.59751867
0.59643616
0.59543909
0.59452965
0.59371212
0.59299313
0.5923826
0.59189381
0.59154261
0.59134734
0.59132985
0.59151252
0.59191877
0.59256338
0.59347338
0.59464933
0.59608838
0.59776842
0.59962688
0.60152421
0.60327185
0.60483587
0.60644999
0.60817634
0.60967836
0.61094315
0.6112756
0.5990987
0.64700629
0.76565049
0.7122464
0.7389536
0.72060148
0.72637636
0.7198792
0.71923931
0.71606608
0.71364211
0.7109042
0.70809573
0.70517642
0.70215006
0.69901931
0.69578781
0.69246012
0.68904225
0.68554128
0.68196569
0.67832515
0.67463064
0.6708943
0.66712939
0.66335009
0.65957137
0.6558087
0.65207782
0.64839443
0.64477393
0.64123102
0.6377795
0.63443189
0.63119927
0.628091
0.62511466
0.62227589
0.61957845
0.61702426
0.61461352
0.61234489
0.61021562
0.60822182
0.6063586
0.60462032
0.6030009
0.60149405
0.60009356
0.59879349
0.59758826
0.59647289
0.59544315
0.59449596
0.59362965
0.59284429
0.592142
0.59152706
0.59100651
0.59059069
0.59029356
0.59013158
0.59012411
0.59029499
0.59067124
0.59127839
0.59212324
0.59323493
0.59460997
0.59623744
0.59807905
0.60004685
0.60197285
0.60366991
0.60514891
0.60665869
0.60827606
0.60994259
0.61158357
0.61172004
0.59823027
0.64819883
0.76617153
0.71222207
0.73791714
0.71985458
0.72504332
0.71868278
0.71745548
0.71414655
0.71134966
0.70830205
0.70515732
0.70189557
0.69852089
0.69503719
0.69145036
0.68776739
0.683997
0.68014936
0.67623625
0.67227091
0.66826801
0.66424343
0.66021413
0.65619781
0.65221266
0.648277
0.64440894
0.64062597
0.63694457
0.6333799
0.62994544
0.6266527
0.62351104
0.6205275
0.61770679
0.61505131
0.61256128
0.61023493
0.60806879
0.60605788
0.60419606
0.60247626
0.60089077
0.59943151
0.59809039
0.59685959
0.59573177
0.59470027
0.59375913
0.5929033
0.59212876
0.59143281
0.59081428
0.59027368
0.58981332
0.58943818
0.589155
0.58897448
0.58891011
0.5889772
0.58919406
0.58958332
0.59016693
0.59096428
0.59198979
0.59324797
0.59473241
0.59641507
0.59824125
0.60010485
0.60183122
0.60326797
0.60449009
0.6057742
0.6072745
0.60921344
0.61142527
0.61137815
0.59683878
0.6488468
0.7658454
0.71144956
0.73614042
0.718459
0.7228237
0.71652406
0.71469405
0.71115491
0.70794533
0.70452567
0.70099116
0.69733238
0.69355607
0.68966834
0.68567822
0.68159622
0.67743496
0.67320883
0.66893413
0.66462867
0.66031175
0.65600369
0.65172561
0.64749895
0.64334506
0.63928475
0.63533781
0.63152252
0.62785528
0.62435018
0.62101878
0.61786983
0.61490923
0.61214005
0.60956261
0.60717475
0.6049721
0.60294845
0.60109612
0.59940629
0.5978694
0.59647541
0.59521417
0.59407569
0.5930505
0.59212994
0.59130628
0.59057285
0.58992406
0.58935546
0.58886392
0.5884477
0.58810656
0.58784155
0.5876555
0.58755414
0.58754236
0.58763031
0.58782895
0.5881497
0.58860637
0.58921568
0.58998999
0.59094031
0.59207054
0.59337518
0.59483165
0.59640185
0.59802313
0.59958732
0.60093911
0.60198379
0.60285757
0.60386487
0.60528903
0.60763865
0.61054092
0.61021188
0.5949
0.6488974
0.7646062
0.7098056
0.73363049
0.7161709
0.7195568
0.71329288
0.71080868
0.70695716
0.70328536
0.69942309
0.69543416
0.69131484
0.68707593
0.68272747
0.67828305
0.67375829
0.66917126
0.66454206
0.65989272
0.65524671
0.65062865
0.64606378
0.64157744
0.63719448
0.63293874
0.62883235
0.62489527
0.62114475
0.61759493
0.61425661
0.61113706
0.60824008
0.60556609
0.60311239
0.60087355
0.5988418
0.59700755
0.59535983
0.59388676
0.59257599
0.591415
0.59039145
0.5894935
0.58871011
0.58803133
0.58744851
0.58695435
0.58654295
0.58620971
0.58595143
0.58576628
0.58565374
0.58561448
0.58565012
0.58576372
0.58595868
0.58623947
0.58661187
0.58708219
0.58765492
0.58833563
0.58913072
0.59004097
0.59106476
0.59219411
0.59341208
0.59469079
0.5959907
0.59725391
0.59838744
0.59927591
0.59988829
0.60039996
0.60113058
0.60253096
0.60537768
0.60899706
0.60812558
0.59243724
0.6483447
0.76236912
0.70723525
0.73002887
0.71287458
0.71516224
0.7088558
0.70566723
0.70139496
0.69719152
0.69280368
0.68828209
0.68362818
0.67885855
0.67398942
0.66904101
0.66403599
0.6589996
0.65395907
0.6489433
0.64398214
0.63910589
0.63434448
0.62972676
0.62527972
0.62102775
0.61699195
0.61318967
0.60963404
0.6063339
0.60329371
0.60051378
0.59799057
0.59571717
0.5936838
0.59187843
0.59028736
0.58889584
0.58768856
0.58665015
0.58576555
0.58502028
0.58440076
0.58389455
0.5834906
0.58317949
0.58295348
0.58280647
0.58273392
0.58273274
0.58280122
0.58293886
0.58314614
0.58342418
0.5837746
0.58419865
0.58469574
0.58526846
0.58591568
0.58663651
0.58742652
0.58828051
0.58919246
0.59015137
0.59114424
0.59215422
0.59316042
0.5941382
0.59505829
0.59587852
0.59653222
0.59695185
0.59716127
0.59734996
0.59784358
0.59926608
0.60261719
0.60680522
0.60516093
0.58958666
0.6471441
0.75897906
0.7036999
0.72526429
0.70841877
0.70948065
0.70302713
0.69906836
0.69425045
0.68942285
0.68441199
0.67926719
0.67399764
0.66862803
0.66318341
0.65769288
0.65218813
0.64670319
0.64127369
0.63593607
0.6307267
0.62568084
0.62083166
0.61620917
0.61183937
0.60774348
0.60393747
0.60043184
0.59723161
0.59433657
0.59174178
0.58943813
0.58741307
0.58565135
0.58413576
0.58284788
0.58176874
0.5808794
0.58016142
0.57959726
0.57917048
0.57886602
0.57867033
0.57857159
0.57855986
0.57862716
0.57876742
0.57897626
0.57925088
0.57958976
0.57999248
0.5804594
0.58099114
0.5815881
0.58224991
0.58297463
0.58375863
0.58459554
0.5854787
0.58639795
0.58733932
0.58828761
0.58922545
0.59013374
0.59099295
0.59178411
0.59249044
0.59309886
0.59359753
0.59396484
0.59416162
0.59416254
0.59403006
0.59394971
0.59425829
0.59574957
0.59956092
0.60405931
0.60156787
0.5866533
0.64525383
0.75421397
0.69925165
0.71916006
0.70261249
0.70230199
0.69555217
0.69072956
0.68521981
0.67965294
0.67391065
0.66804783
0.66208511
0.65605776
0.65000236
0.64395924
0.63797116
0.63208237
0.6263375
0.62078016
0.6154515
0.61038885
0.60562446
0.60118444
0.59708817
0.59334794
0.58996904
0.58695016
0.58428403
0.58195832
0.57995654
0.57825903
0.57684398
0.57568825
0.57476826
0.57406061
0.57354275
0.57319336
0.57299266
0.57292265
0.57296716
0.573112
0.57334497
0.573656
0.57403719
0.57448269
0.57498849
0.57555217
0.57617251
0.57684923
0.57758248
0.57837239
0.57921832
0.58011832
0.58106854
0.58206247
0.58309009
0.58413806
0.58519144
0.58623447
0.5872402
0.58819108
0.58906221
0.58983206
0.59048153
0.59099649
0.59137025
0.59160476
0.59170589
0.59166993
0.5914783
0.59113372
0.59071808
0.5904015
0.59054939
0.59214925
0.59638589
0.60094129
0.59755711
0.58365012
0.64262778
0.7477055
0.69377944
0.71146425
0.69515943
0.69329267
0.68605601
0.68025013
0.67389203
0.66746129
0.66088115
0.65421601
0.64750222
0.64078918
0.63412836
0.62757418
0.62118208
0.61500669
0.60909983
0.60350845
0.59827296
0.59342572
0.58899022
0.58498064
0.58140209
0.57825119
0.57551708
0.57318261
0.57122571
0.56962069
0.56833952
0.56735297
0.56663156
0.56614641
0.56586991
0.56577618
0.56584146
0.5660443
0.56636565
0.56678885
0.56729957
0.56788578
0.56853776
0.56924805
0.5700113
0.5708241
0.57168454
0.57259182
0.57354581
0.57454652
0.57559356
0.57668536
0.57781848
0.57898695
0.58018192
0.58139122
0.58259826
0.58378255
0.58492543
0.58600502
0.58698651
0.58785501
0.58858523
0.58915926
0.58956425
0.58979565
0.58985872
0.58976829
0.58954195
0.58918567
0.5886921
0.58807673
0.58742032
0.58687411
0.58685897
0.58858017
0.59316502
0.59751369
0.5933507
0.58039006
0.63914242
0.73880146
0.68669014
0.70173514
0.68561288
0.68198724
0.67404338
0.66712366
0.65976287
0.65234694
0.64483755
0.63731373
0.62983391
0.62246692
0.61528262
0.60835065
0.60173726
0.59550245
0.58969743
0.58436265
0.57952659
0.57520534
0.571403
0.56811267
0.56531792
0.56299463
0.56111278
0.55963836
0.558535
0.55776543
0.55729271
0.5570811
0.55709684
0.55730866
0.55768809
0.5582097
0.55885113
0.55959304
0.56041898
0.56131514
0.56227028
0.56327551
0.56432424
0.56541202
0.56653622
0.56769565
0.56889004
0.57011951
0.57138399
0.57268261
0.57401298
0.57537037
0.57674713
0.57813224
0.57951123
0.58086602
0.58217459
0.58341406
0.58456274
0.5855916
0.58647703
0.5872027
0.58774947
0.58810777
0.58827533
0.58825805
0.58807072
0.58773517
0.58727208
0.58668809
0.58597877
0.58516131
0.58429902
0.58353266
0.58336454
0.58516495
0.58985833
0.59373574
0.58907776
0.57737418
0.63451906
0.72748088
0.67756026
0.68941921
0.67340148
0.66783339
0.65892285
0.6507406
0.64222752
0.63372147
0.62523095
0.61685819
0.60869015
0.600818
0.59332797
0.58629805
0.57979413
0.57386726
0.56855204
0.56386624
0.55981158
0.55637533
0.55353262
0.5512491
0.54948355
0.54819045
0.54732222
0.54683104
0.54667034
0.54679588
0.54716649
0.5477445
0.5484961
0.54939134
0.55040419
0.55151239
0.55269721
0.55394319
0.5552378
0.55657116
0.55793578
0.55932641
0.5607398
0.56217441
0.56362995
0.56510687
0.56660566
0.56812632
0.56966763
0.57122647
0.57279708
0.57437049
0.57593411
0.57747173
0.57896383
0.58038832
0.58172121
0.58293727
0.58401425
0.58493234
0.58567472
0.58622443
0.58657739
0.58673427
0.5867023
0.58649556
0.58613406
0.58564011
0.58503023
0.58430519
0.58345616
0.58250103
0.58148378
0.58053911
0.58024848
0.58200594
0.58646594
0.58970557
0.58478823
0.57491796
0.62840008
0.71477715
0.66583539
0.67394145
0.65781909
0.65012049
0.63993712
0.63032394
0.62054221
0.61091265
0.60150258
0.5924428
0.58384611
0.57581631
0.56843959
0.56178124
0.55588346
0.55076512
0.54642323
0.54283569
0.5399648
0.53776123
0.53616784
0.53512321
0.5345646
0.53443035
0.53466159
0.53520344
0.53600578
0.53702355
0.53821685
0.53955089
0.54099575
0.54252612
0.54412098
0.54576322
0.54743922
0.54913841
0.5508529
0.5525771
0.55430751
0.55604241
0.55778161
0.55952597
0.56127681
0.56303524
0.56480149
0.56657421
0.56834979
0.57012172
0.57188003
0.57361103
0.57529741
0.57691871
0.57845237
0.57987558
0.58116448
0.58228996
0.58325245
0.58402074
0.58459163
0.58496387
0.58514084
0.585132
0.58495221
0.58462055
0.58415776
0.58358134
0.58289874
0.58210318
0.58118248
0.58014733
0.57904325
0.57801161
0.57764616
0.57917871
0.58301198
0.58553431
0.5808128
0.57291513
0.62046506
0.69814303
0.65069698
0.65442533
0.6378358
0.62780117
0.6160635
0.6049157
0.59389258
0.58330919
0.57328828
0.56397656
0.55548786
0.54790754
0.54128738
0.53564625
0.53097278
0.52722985
0.52436024
0.52229257
0.52094692
0.52023973
0.52008775
0.52041107
0.52113509
0.52219178
0.52352025
0.52506691
0.52678519
0.52863517
0.53058308
0.53260075
0.53466506
0.53675746
0.53886346
0.54097209
0.5430754
0.54516799
0.54724662
0.54930985
0.55135782
0.55339191
0.5554143
0.55742739
0.55943312
0.56143222
0.56342351
0.56540323
0.56736446
0.56929663
0.57118536
0.57301269
0.57475773
0.57639775
0.57790953
0.57927086
0.58046164
0.58146621
0.58227504
0.58288114
0.58328754
0.583501
0.58353361
0.5834019
0.58312559
0.58272519
0.58221824
0.58161425
0.58091051
0.58009427
0.57915605
0.57810992
0.57701047
0.57600235
0.57558471
0.57667812
0.57950436
0.58128916
0.5774449
0.57143702
0.61008235
0.67662382
0.63077112
0.62946506
0.61198809
0.59949605
0.58613137
0.57360664
0.56170321
0.55071317
0.54077411
0.53200384
0.52446598
0.51817787
0.51311369
0.50921247
0.50638705
0.50453321
0.50353805
0.50328688
0.50366852
0.50457894
0.50592346
0.50761786
0.50958853
0.51177219
0.51411511
0.51657227
0.51910631
0.52168672
0.52428885
0.5268933
0.52948515
0.53205341
0.53459048
0.53709157
0.53955418
0.5419777
0.54436307
0.54671243
0.54902891
0.55131616
0.55357784
0.55581691
0.55803489
0.56023111
0.56240206
0.56454082
0.56663671
0.56867511
0.57063781
0.57250379
0.57425037
0.57585474
0.57729555
0.57855454
0.57961791
0.58047746
0.58113116
0.58158306
0.58184303
0.5819256
0.58184918
0.58163476
0.58130384
0.58087507
0.58036004
0.5797597
0.57906444
0.57826212
0.57735396
0.57636705
0.57535777
0.57445116
0.57395382
0.57443586
0.57602581
0.57700716
0.57448502
0.57054805
0.59610531
0.64812969
0.60415071
0.5973133
0.57866647
0.5638242
0.54923732
0.53601784
0.5241262
0.51377526
0.50503493
0.49792088
0.4923825
0.48832086
0.485602
0.48407189
0.48356898
0.48393417
0.48501774
0.48668369
0.48881178
0.49129803
0.49405413
0.49700621
0.50009328
0.50326556
0.5064829
0.50971331
0.51293166
0.51611864
0.51925979
0.52234486
0.52536712
0.52832282
0.53121068
0.53403142
0.53678724
0.53948156
0.54211868
0.54470352
0.54724132
0.54973711
0.55219504
0.55461767
0.55700519
0.55935476
0.56165994
0.56391041
0.56609181
0.56818615
0.57017255
0.57202859
0.57373182
0.57526152
0.57660031
0.57773562
0.5786607
0.57937512
0.57988469
0.5802009
0.58033995
0.58032172
0.58016849
0.57990313
0.57954619
0.57911194
0.57860499
0.57802005
0.57734713
0.57658275
0.57574299
0.5748667
0.5740013
0.57320107
0.57257481
0.57236778
0.57273534
0.57293629
0.5717559
0.57062601
0.57658169
0.61032108
0.56863939
0.55615961
0.53681837
0.52005957
0.50537898
0.49286468
0.48248058
0.4742681
0.46812938
0.4639054
0.46138649
0.46034064
0.46053228
0.46173727
0.46375185
0.46639726
0.46952083
0.47299506
0.47671525
0.48059675
0.48457196
0.48858758
0.49260209
0.4965836
0.50050803
0.50435762
0.50811977
0.51178606
0.5153516
0.51881437
0.52217483
0.5254354
0.52860005
0.53167389
0.53466286
0.53757341
0.54041232
0.54318639
0.54590208
0.54856487
0.55117857
0.55374455
0.55626103
0.55872256
0.56111964
0.56343871
0.5656624
0.56777034
0.5697405
0.57155071
0.57318055
0.57461296
0.57583578
0.57684275
0.57763404
0.57821611
0.5786011
0.57880586
0.5788509
0.57875923
0.57855487
0.57826035
0.57789309
0.5774616
0.57696446
0.57639484
0.57575029
0.5750432
0.5743029
0.57356253
0.57283546
0.57209244
0.57127073
0.5703646
0.56969241
0.5694363
0.56948973
0.57145625
0.54890297
0.56069321
0.52283028
0.50463058
0.48420378
0.46890158
0.45607461
0.44631716
0.43936444
0.43497483
0.43280437
0.43249254
0.43368487
0.43605808
0.4393305
0.44326561
0.44767012
0.4523895
0.45730229
0.46231445
0.46735416
0.47236732
0.4773138
0.48216443
0.48689858
0.49150222
0.49596646
0.50028643
0.50446042
0.50848931
0.51237604
0.51612531
0.51974324
0.523237
0.52661454
0.52988422
0.5330546
0.53613427
0.53913159
0.54205443
0.54490965
0.54770249
0.55043573
0.55310906
0.55571845
0.55825577
0.56070871
0.563061
0.56529314
0.56738364
0.56931057
0.57105346
0.57259501
0.5739227
0.57502992
0.57591649
0.57658863
0.57705828
0.57734213
0.57746047
0.57743622
0.57729376
0.57705704
0.57674645
0.57637484
0.57594505
0.57545245
0.57489404
0.57428069
0.57364337
0.57302047
0.57242154
0.57178884
0.57099051
0.5698559
0.56833284
0.56692294
0.56673574
0.56817066
0.57224852
0.50896801
0.49661981
0.45973669
0.44202085
0.42476267
0.41269143
0.40447615
0.39990549
0.39832976
0.39916774
0.40185545
0.40591028
0.41093383
0.41661098
0.42269898
0.42901496
0.43542363
0.44182651
0.44815314
0.45435414
0.46039581
0.46625613
0.47192168
0.47738538
0.48264478
0.48770084
0.49255701
0.49721859
0.50169235
0.50598616
0.51010889
0.51407013
0.51788011
0.52154935
0.52508852
0.52850816
0.53181855
0.53502955
0.53815038
0.5411893
0.54415298
0.54704587
0.5498694
0.55262139
0.55529555
0.55788133
0.56036406
0.5627255
0.56494495
0.56700073
0.56887205
0.57054081
0.57199339
0.57322185
0.57422478
0.57500728
0.57558049
0.57596042
0.57616676
0.57622175
0.57614925
0.57597352
0.57571695
0.57539649
0.57502017
0.57458685
0.57409263
0.57354285
0.57296312
0.57239777
0.57188338
0.57139554
0.57079344
0.56982325
0.56827397
0.56628357
0.56461082
0.56472984
0.56768143
0.5730117
0.44792985
0.41566555
0.38619787
0.3714935
0.36075268
0.35599949
0.3554445
0.358177
0.36321349
0.36980085
0.3773589
0.38546709
0.39382802
0.40223684
0.4105556
0.41869384
0.42659426
0.4342226
0.44156045
0.44860021
0.45534162
0.46178934
0.46795123
0.47383725
0.47945861
0.48482725
0.48995549
0.49485588
0.49954106
0.5040238
0.50831695
0.51243343
0.51638614
0.52018775
0.52385061
0.52738654
0.53080678
0.5341218
0.5373411
0.54047278
0.54352296
0.54649503
0.54938894
0.5522007
0.55492203
0.55754037
0.56003925
0.56239916
0.56459888
0.56661719
0.56843481
0.5700362
0.57141117
0.57255589
0.57347331
0.57417283
0.57466938
0.57498195
0.57513225
0.5751435
0.57503946
0.57484294
0.57457329
0.57424312
0.57385645
0.57341157
0.57291048
0.57237081
0.57183017
0.5713332
0.57089481
0.5704456
0.56978853
0.56861337
0.56669542
0.56440666
0.56286565
0.56344783
0.56766104
0.57376575
0.35313063
0.31988378
0.30239978
0.29795781
0.29932477
0.30553457
0.31462296
0.32533506
0.33680462
0.34848537
0.36004492
0.37128945
0.38211277
0.39246286
0.40232084
0.4116877
0.420576
0.42900477
0.43699636
0.44457442
0.45176285
0.458585
0.46506339
0.47121942
0.47707339
0.48264442
0.48795063
0.49300919
0.49783652
0.50244846
0.50686036
0.51108716
0.51514333
0.51904276
0.52279869
0.52642357
0.52992898
0.53332553
0.53662257
0.53982778
0.5429465
0.54598108
0.54893015
0.55178823
0.55454551
0.55718799
0.55969803
0.56205545
0.56423894
0.56622796
0.56800462
0.56955552
0.57087314
0.57195675
0.57281253
0.57345304
0.57389599
0.57416264
0.57427619
0.5742605
0.57413868
0.57393093
0.5736518
0.57330848
0.57290216
0.57243476
0.57192063
0.57139454
0.57090336
0.5704783
0.57009458
0.56963278
0.56887315
0.56752295
0.56535609
0.56279241
0.56128846
0.5629522
0.56806809
0.57433788
0.21509931
0.21382627
0.21916806
0.23246026
0.24962422
0.26785482
0.28595794
0.30328927
0.31962255
0.33489526
0.34913319
0.36239701
0.37476059
0.38629931
0.397085
0.40718385
0.41665582
0.42555476
0.43392885
0.4418212
0.44927042
0.45631116
0.46297466
0.46928914
0.47528022
0.48097128
0.4863838
0.49153767
0.4964515
0.50114289
0.50562864
0.50992479
0.51404671
0.51800895
0.52182522
0.52550824
0.52906977
0.5325204
0.53586936
0.53912403
0.54228934
0.54536702
0.54835506
0.55124723
0.55403297
0.55669759
0.55922295
0.56158853
0.56377303
0.56575621
0.56752082
0.56905444
0.57035079
0.5714106
0.57224169
0.57285832
0.57327984
0.57352903
0.57363044
0.57360842
0.5734855
0.57327807
0.57299618
0.57264169
0.57221336
0.57171806
0.57118454
0.57066741
0.57022536
0.56987654
0.56955334
0.56907677
0.56819598
0.56667776
0.56439555
0.56175676
0.56033699
0.56266677
0.5684374
0.57475692
0.091336507
0.12102761
0.15818988
0.19159184
0.22149507
0.24781108
0.27115756
0.29199843
0.31074802
0.32773118
0.34320975
0.35739359
0.37045304
0.38252759
0.39373272
0.40416492
0.41390558
0.42302399
0.4315796
0.43962387
0.44720167
0.45435238
0.46111087
0.46750817
0.47357207
0.47932768
0.48479782
0.49000349
0.49496419
0.49969825
0.50422313
0.50855545
0.5127111
0.51670515
0.52055181
0.52426431
0.52785493
0.53133481
0.53471375
0.53799972
0.54119826
0.54431167
0.54733842
0.55027261
0.55310381
0.55581722
0.55839429
0.56081386
0.56305372
0.5650925
0.56691178
0.56849793
0.56984363
0.57094885
0.57182095
0.57247405
0.57292773
0.57320536
0.57333232
0.57333377
0.57323117
0.57304162
0.57277128
0.57241792
0.57197767
0.57146035
0.57090603
0.57038419
0.56997996
0.56969106
0.56940714
0.56895245
0.56795422
0.56628175
0.56398798
0.56136045
0.55969938
0.56257091
0.56862176
0.57497799
0.00876783
0.37467994
0.49203109
0.51643465
0.5184353
0.5174381
0.51830029
0.52003799
0.52178188
0.52348124
0.5250965
0.52665805
0.52818987
0.52971713
0.5312421
0.53276763
0.534294
0.53582384
0.53735816
0.5388965
0.54043795
0.54198112
0.54352428
0.54506534
0.54660189
0.54813131
0.54965082
0.55115754
0.55264862
0.55412134
0.55557321
0.55700207
0.55840613
0.55978404
0.56113484
0.56245791
0.56375283
0.56501923
0.56625669
0.56746456
0.56864194
0.56978772
0.57090063
0.57197936
0.57302272
0.5740297
0.57499953
0.57593161
0.57682546
0.57768063
0.57849658
0.57927266
0.58000799
0.58070124
0.58135049
0.58195302
0.58250522
0.58300246
0.58343874
0.58380652
0.58409774
0.58430491
0.58442311
0.5844496
0.58439232
0.58425493
0.5840805
0.58384286
0.58367477
0.58339782
0.58332841
0.58302407
0.58295467
0.58276932
0.58254034
0.58215155
0.5822538
0.58268456
0.58147954
0.58521336
0.1316372
0.44468916
0.52646969
0.53840519
0.53567462
0.53428314
0.53416777
0.53462337
0.53501105
0.53557779
0.53624571
0.53703857
0.53789185
0.53880677
0.53977133
0.54078349
0.54183713
0.54293021
0.54405897
0.54521947
0.54640822
0.54762173
0.54885655
0.5501091
0.55137571
0.55265261
0.55393599
0.55522198
0.55650678
0.55778674
0.55905844
0.56031881
0.56156514
0.56279518
0.5640071
0.56519944
0.56637096
0.56752058
0.5686472
0.5697496
0.57082638
0.57187595
0.57289665
0.5738868
0.57484486
0.57576952
0.57665972
0.57751468
0.57833376
0.57911639
0.57986204
0.5805701
0.58123982
0.58187005
0.58245907
0.58300433
0.58350238
0.58394877
0.58433751
0.58466088
0.58491028
0.58507736
0.58515593
0.58514223
0.58504276
0.58486201
0.58464041
0.58435982
0.58414609
0.58383244
0.58373665
0.58338359
0.5833479
0.58303456
0.5828712
0.58236841
0.58255563
0.58286881
0.58164015
0.5855277
0.21918067
0.50121152
0.54084425
0.54561356
0.54231781
0.54265529
0.54296839
0.54371848
0.54420494
0.54484362
0.54541388
0.54604342
0.54668359
0.547361
0.54806472
0.54879902
0.54956298
0.5503595
0.55118818
0.55204842
0.55293944
0.55386001
0.55480843
0.55578253
0.55677973
0.55779705
0.55883123
0.55987875
0.56093596
0.5619992
0.5630649
0.5641297
0.56519055
0.56624472
0.56728988
0.56832401
0.56934534
0.57035224
0.57134312
0.57231627
0.57326986
0.5742019
0.57511032
0.57599306
0.57684819
0.57767406
0.57846931
0.57923287
0.57996389
0.58066166
0.58132556
0.581955
0.58254927
0.58310735
0.58362768
0.58410787
0.58454459
0.58493356
0.58526883
0.5855425
0.58574543
0.58586837
0.58590391
0.58584708
0.58570311
0.58547635
0.5852069
0.58488031
0.5846211
0.58426639
0.58414563
0.58374855
0.58373504
0.5833105
0.583194
0.58260451
0.58284629
0.58305259
0.58179458
0.58582978
0.27451196
0.53168752
0.55319163
0.5552526
0.55229256
0.55329013
0.55314238
0.55374998
0.55392727
0.55436143
0.55467972
0.55508677
0.55548566
0.55591805
0.5563703
0.5568491
0.55735446
0.55789013
0.55845655
0.55905418
0.5596832
0.56034336
0.56103391
0.56175361
0.56250071
0.56327307
0.56406811
0.56488293
0.56571442
0.56655931
0.56741434
0.56827632
0.56914224
0.57000936
0.57087518
0.5717375
0.57259428
0.57344363
0.57428365
0.57511236
0.57592764
0.57672722
0.57750875
0.57826987
0.57900837
0.57972228
0.58040998
0.58107014
0.58170173
0.58230388
0.58287591
0.58341721
0.58392714
0.58440483
0.58484884
0.585257