/*--------------------------------*- C++ -*----------------------------------*\
  =========                 |
  \\      /  F ield         | OpenFOAM: The Open Source CFD Toolbox
   \\    /   O peration     | Website:  https://openfoam.org
    \\  /    A nd           | Version:  12
     \\/     M anipulation  |
\*---------------------------------------------------------------------------*/
FoamFile
{
    format      ascii;
    class       volScalarField;
    location    "0.011";
    object      omega;
}
// * * * * * * * * * * * * * * * * * * * * * * * * * * * * * * * * * * * * * //

dimensions      [0 0 -1 0 0 0 0];

internalField   nonuniform List<scalar> 
16000
(
1093.4369
2198.6155
1075.9723
645.53295
455.67397
315.92295
239.88592
180.62875
145.42333
117.60819
99.868457
85.422123
74.734421
65.804086
58.522054
52.387804
47.211885
42.799506
39.010458
35.733024
32.883012
30.389322
28.193474
26.248792
24.51764
22.970769
21.583944
20.33841
19.2183
18.209211
17.29818
16.474969
15.731401
15.060548
14.456495
13.913759
13.42718
12.991888
12.603777
12.259353
11.954704
11.685754
11.44952
11.243245
11.06381
10.908062
10.773526
10.657857
10.558833
10.474361
10.402574
10.34183
10.290555
10.247379
10.211382
10.18227
10.159953
10.14432
10.136429
10.134181
10.134038
10.133544
10.130883
10.124042
10.115516
10.105451
10.098078
10.098328
10.101717
10.104345
10.107544
10.113233
10.120773
10.12647
10.127615
10.128172
10.124264
10.097505
10.080092
10.018426
1135.2447
2189.7529
1069.3276
645.88061
455.93105
318.94651
240.99573
182.53854
146.28269
118.66643
100.4283
86.005279
75.110572
66.131935
58.761795
52.576091
47.352007
42.903675
39.086196
35.785977
32.918155
30.41128
28.205915
26.254696
24.518938
22.968996
21.579944
20.332672
19.211366
18.201831
17.290828
16.467771
15.724348
15.053518
14.4494
13.906575
13.419994
12.984735
12.596521
12.251989
11.94752
11.678816
11.442747
11.236679
11.057665
10.902406
10.768388
10.653275
10.554859
10.471042
10.399918
10.33986
10.289306
10.24686
10.211487
10.182815
10.160799
10.145075
10.136107
10.133735
10.133392
10.133217
10.131808
10.126929
10.119885
10.110811
10.103221
10.102472
10.104294
10.104952
10.105763
10.109688
10.116736
10.122299
10.123657
10.123364
10.117373
10.091206
10.065499
10.014197
1175.5282
2190.8547
1057.9031
642.19511
452.62339
319.1842
239.93515
182.75486
145.86614
118.85258
100.29746
86.04005
75.028464
66.05352
58.648749
52.450139
47.213967
42.759322
38.939604
35.639382
32.773529
30.270697
28.070866
26.126462
24.398012
22.855765
21.474336
20.234344
19.119991
18.117404
17.213261
16.396711
15.659374
14.994123
14.395116
13.856984
13.374812
12.943723
12.559277
12.218102
11.916958
11.651432
11.41822
11.214719
11.038226
10.885339
10.753509
10.640411
10.543865
10.461804
10.392295
10.333734
10.284582
10.24346
10.209273
10.181565
10.160343
10.145271
10.136078
10.133474
10.133117
10.133157
10.132553
10.129853
10.12444
10.116735
10.109609
10.108034
10.108397
10.107283
10.106315
10.107719
10.11311
10.117922
10.118818
10.116757
10.108352
10.080771
10.050495
10.00821
1214.0897
2197.6644
1047.3819
638.71268
448.85436
319.24049
238.57348
182.83628
145.29657
118.94157
100.11779
86.014792
74.907502
65.929751
58.497221
52.287315
47.042248
42.583603
38.764072
35.466153
32.604245
30.107309
27.914692
25.978733
24.259098
22.725985
21.35357
20.122186
19.015962
18.021404
17.125181
16.316153
15.585881
14.927126
14.334094
13.801444
13.324386
12.89815
12.518153
12.180878
11.883536
11.621658
11.391759
11.191165
11.017494
10.867253
10.737843
10.626952
10.532423
10.452242
10.384446
10.327459
10.27976
10.239998
10.20703
10.180309
10.159865
10.145521
10.136539
10.133425
10.133089
10.133414
10.13305
10.132091
10.128629
10.122741
10.116478
10.114208
10.11312
10.110675
10.108473
10.107867
10.110362
10.113168
10.11296
10.108492
10.097589
10.067799
10.034705
9.9982886
1250.7392
2214.4731
1038.2201
634.6587
444.19883
318.56279
236.50998
182.428
144.34203
118.75502
99.75393
85.815737
74.650421
65.676238
58.232973
52.02252
46.779393
42.325653
38.514279
35.225845
32.374092
29.888546
27.707979
25.784823
24.077954
22.557594
21.19755
19.97791
18.882647
17.898675
17.012788
16.213548
15.492488
14.842239
14.257064
13.731639
13.26128
12.84137
12.467266
12.135148
11.842704
11.585498
11.359897
11.16302
10.992877
10.845916
10.719481
10.611276
10.519155
10.441189
10.375385
10.320207
10.274147
10.235894
10.204288
10.178692
10.159121
10.145566
10.137222
10.133651
10.133406
10.134024
10.133845
10.133129
10.13179
10.127914
10.122822
10.119977
10.117665
10.114125
10.110896
10.108434
10.10824
10.107911
10.106087
10.098809
10.084874
10.052982
10.019114
9.9894388
1285.2996
2239.0988
1031.3599
631.33953
439.60609
317.26454
233.89344
181.60677
143.10748
118.32879
99.249446
85.464345
74.275752
65.30947
57.869824
51.668377
46.436399
41.995308
38.19885
34.926076
32.089852
29.620478
27.456187
25.549532
23.858909
22.354509
21.009817
19.804744
18.723008
17.751935
16.878579
16.091189
15.381303
14.741399
14.165806
13.649208
13.187004
12.774742
12.407853
12.082087
11.795538
11.543898
11.323492
11.131068
10.965071
10.821947
10.698967
10.593865
10.504485
10.429018
10.365435
10.312255
10.267981
10.231352
10.201212
10.176847
10.158226
10.145474
10.137906
10.13436
10.134155
10.134924
10.134971
10.134436
10.133322
10.13138
10.127636
10.124259
10.120774
10.116594
10.112243
10.108067
10.104504
10.102102
10.09856
10.088451
10.071101
10.037404
10.004256
9.9812869
1317.6731
2269.5312
1029.5671
628.35381
435.45811
315.33055
230.90276
180.39485
141.6643
117.66383
98.611367
84.958071
73.778684
64.826587
57.404042
51.221522
46.009865
41.58936
37.814496
34.563655
31.748498
29.30025
27.156742
25.269995
23.599287
22.114271
20.788121
19.60065
18.535236
17.579574
16.721133
15.947827
15.251244
14.623676
14.059527
13.553492
13.10103
12.697828
12.339535
12.021566
11.741976
11.496812
11.28253
11.095353
10.934131
10.795404
10.676364
10.574789
10.488477
10.415789
10.354648
10.303648
10.261304
10.226402
10.197818
10.174784
10.157196
10.145252
10.138426
10.135354
10.135068
10.135976
10.136201
10.135883
10.134829
10.132939
10.130298
10.126411
10.121574
10.116327
10.110676
10.105059
10.100056
10.096104
10.091119
10.078686
10.057824
10.022213
9.9905013
9.975079
1347.9448
2303.2069
1030.1829
625.18706
431.34251
312.76948
228.26476
178.91413
140.22594
116.78562
97.85643
84.304961
73.160345
64.229674
56.835768
50.681416
45.49862
41.10648
37.358982
34.1362
31.347686
28.925571
26.807691
24.942387
23.295403
21.833427
20.529257
19.362701
18.316709
17.379243
16.538363
15.78162
15.100706
14.487686
13.937047
13.443489
13.002532
12.609955
12.261675
11.953707
11.682206
11.444422
11.237178
11.056173
10.900334
10.766536
10.651909
10.554262
10.471319
10.401668
10.343165
10.294502
10.254208
10.221116
10.194154
10.172523
10.156044
10.144919
10.138738
10.136124
10.135977
10.136953
10.13728
10.137074
10.136094
10.134085
10.13098
10.126846
10.121672
10.115537
10.108818
10.101986
10.095736
10.090586
10.084727
10.070879
10.046613
10.008619
9.9784312
9.9694056
1376.2262
2337.6767
1029.7972
621.32265
426.72647
309.51064
224.84753
177.09233
138.47348
115.71645
96.982319
83.505379
72.414325
63.514394
56.1601
50.042325
44.89686
40.541329
36.824052
33.635399
30.879436
28.488801
26.402272
24.567132
22.948262
21.513426
20.234966
19.092831
18.069509
17.153095
16.332436
15.594722
14.931818
14.335509
13.800377
13.321132
12.893352
12.512906
12.175773
11.877951
11.615852
11.386442
11.187157
11.013796
10.863954
10.735574
10.625883
10.532544
10.453246
10.386856
10.331157
10.284954
10.246802
10.215575
10.190268
10.170084
10.154763
10.144453
10.138809
10.136577
10.1366
10.137538
10.137939
10.137749
10.136637
10.134518
10.13126
10.126737
10.121012
10.114246
10.106772
10.099201
10.092281
10.086466
10.080283
10.065868
10.038035
9.9973646
9.9699132
9.9646981
1402.6231
2371.041
1021.257
616.36799
420.2918
305.81172
220.5441
174.78702
136.60677
114.47279
95.977832
82.55401
71.532027
62.67226
55.368497
49.290971
44.190364
39.880245
36.20769
33.061703
30.345889
27.993136
25.943575
24.143038
22.556958
21.153522
19.904681
18.790656
17.793466
16.901143
16.103442
15.387344
14.74491
14.167578
13.650037
13.186997
12.774096
12.407296
12.082732
11.796466
11.544833
11.324659
11.133907
10.96809
10.824952
10.702458
10.598579
10.509897
10.434546
10.371596
10.318835
10.275174
10.239216
10.209872
10.186216
10.167475
10.153314
10.143788
10.138573
10.136543
10.136619
10.137387
10.137643
10.137305
10.136165
10.133884
10.130447
10.125746
10.119794
10.112761
10.105067
10.09742
10.09055
10.084659
10.078475
10.06512
10.035791
9.9910599
9.9658758
9.961191
1427.2411
2402.3829
1012.4707
610.3463
412.20243
301.68837
215.96141
172.29138
134.65672
113.04717
94.82835
81.442424
70.5008
61.682054
54.437949
48.421981
43.380066
39.126841
35.507688
32.412956
29.744924
27.436734
25.430262
23.670054
22.121712
20.754109
19.539021
18.456989
17.489598
16.624615
15.852399
15.160565
14.541131
13.985092
13.487248
13.04231
12.64598
12.294289
11.983543
11.709896
11.469774
11.259794
11.078301
10.920777
10.784828
10.668388
10.56998
10.486309
10.415489
10.356109
10.306428
10.265348
10.231589
10.204101
10.18204
10.16468
10.151621
10.142805
10.137896
10.135881
10.135738
10.136222
10.136274
10.135775
10.134477
10.132181
10.128768
10.124154
10.118382
10.111633
10.104367
10.097338
10.091192
10.085769
10.07957
10.067768
10.03735
9.9877635
9.9615145
9.959349
1450.2086
2432.7136
999.02611
602.85732
402.69372
297.16364
211.20852
169.53895
132.67902
111.44543
93.505878
80.13987
69.28273
60.537047
53.371739
47.431836
42.462095
38.277606
34.722303
31.688151
29.076222
26.819644
24.862553
23.14855
21.643304
20.315799
19.13881
18.092862
17.159114
16.325061
15.579594
14.914698
14.320853
13.788487
13.312495
12.88758
12.509522
12.174401
11.878731
11.618775
11.391092
11.192873
11.02116
10.872359
10.744055
10.634058
10.541356
10.462715
10.396066
10.340362
10.294096
10.255638
10.224039
10.198328
10.177749
10.161645
10.149567
10.141336
10.136601
10.13441
10.13379
10.133928
10.133724
10.13308
10.131768
10.129611
10.126509
10.122412
10.117344
10.111471
10.105241
10.099388
10.094434
10.089882
10.083599
10.070282
10.039761
9.9876354
9.9585746
9.9596566
1471.8482
2461.3854
981.63426
594.40808
392.6858
292.23676
206.38326
166.58521
130.6508
109.64548
91.945365
78.629712
67.882844
59.23126
52.163459
46.316854
41.433637
37.330945
33.850587
30.886598
28.339698
26.142433
24.240848
22.579287
21.12308
19.838294
18.703875
17.698287
16.802128
16.003143
15.29019
14.654842
14.089015
13.582537
13.130342
12.727102
12.368728
12.051314
11.771624
11.526121
11.311272
11.124189
10.962792
10.823122
10.702827
10.600003
10.512995
10.439492
10.377201
10.325009
10.281715
10.246097
10.216614
10.19256
10.173297
10.158273
10.146995
10.139192
10.134486
10.131993
10.130793
10.130565
10.130154
10.12947
10.128322
10.126596
10.124197
10.12107
10.117204
10.112706
10.107957
10.103617
10.100081
10.096585
10.0904
10.075354
10.041558
9.9886263
9.9564659
9.9623656
1492.4128
2484.58
960.05208
585.40847
382.22124
286.94511
201.57282
163.43833
128.50017
107.55249
90.130987
76.901287
66.288632
57.756725
50.807293
45.072594
40.291916
36.284821
32.891738
30.007688
27.535446
25.406133
23.563969
21.961179
20.560767
19.328094
18.241308
17.280686
16.426239
15.665806
14.988068
14.384794
13.848811
13.370125
12.9434
12.5632
12.225666
11.926859
11.66378
11.433242
11.231796
11.056422
10.905407
10.774951
10.662596
10.566283
10.484959
10.416519
10.35894
10.310289
10.269755
10.236478
10.209224
10.186714
10.16857
10.15441
10.143746
10.136214
10.131429
10.128615
10.126991
10.126409
10.125923
10.125386
10.124658
10.123672
10.122326
10.120542
10.118238
10.115433
10.112406
10.109704
10.107615
10.105191
10.099168
10.082463
10.045448
9.9906754
9.9561072
9.9672835
1512.1765
2497.6489
934.35963
575.75994
371.37471
281.32526
196.85156
160.0183
126.10697
105.17402
88.035848
74.93731
64.488127
56.103818
49.296355
43.694417
39.034383
35.137322
31.84544
29.048626
26.660923
24.609414
22.840474
21.304145
19.966176
18.791068
17.757041
16.845384
16.03647
15.317994
14.678443
14.109517
13.603425
13.153902
12.753921
12.397749
12.081889
11.802346
11.556265
11.340945
11.153056
10.990297
10.849593
10.728256
10.623924
10.534267
10.458361
10.394541
10.340986
10.296157
10.258265
10.227005
10.20149
10.180587
10.163398
10.149883
10.139701
10.132361
10.12749
10.124455
10.122643
10.121898
10.121518
10.121336
10.12127
10.121263
10.121207
10.120962
10.120382
10.119391
10.118159
10.117092
10.116341
10.114844
10.10898
10.090819
10.050844
9.9945378
9.958343
9.9734844
1531.3745
2490.6057
904.95311
565.50329
360.19121
275.3812
192.21479
156.19902
123.39395
102.46587
85.63096
72.715744
62.465961
54.262049
47.623816
42.177313
37.658765
33.88295
30.707651
28.018315
25.728615
23.765686
22.078427
20.616443
19.347232
18.235764
17.259473
16.398672
15.638348
14.964493
14.365243
13.832899
13.359918
12.940108
12.56749
12.235722
11.941786
11.681701
11.452542
11.252319
11.077434
10.925923
10.795415
10.68295
10.586458
10.503909
10.433266
10.373783
10.323754
10.282114
10.247044
10.217579
10.193441
10.173773
10.157622
10.144635
10.13486
10.127755
10.122933
10.119892
10.118136
10.117516
10.117425
10.117765
10.118508
10.119582
10.120859
10.122158
10.123266
10.124051
10.124595
10.125122
10.125523
10.12463
10.11884
10.099654
10.057449
10.000843
9.9644737
9.9797669
1550.1888
2443.4094
873.31639
554.67243
348.72849
269.02603
187.3541
151.95399
120.24785
99.381066
82.883526
70.212711
60.206988
52.222427
45.783615
40.512289
36.157993
32.533424
29.494616
26.927806
24.749924
22.886876
21.290354
19.910441
18.713527
17.670433
16.756548
15.952441
15.242831
14.615435
14.057734
13.562565
13.122716
12.732486
12.386908
12.079346
11.807038
11.566276
11.353786
11.168295
11.006174
10.86547
10.744557
10.640446
10.551032
10.47463
10.409533
10.354109
10.307212
10.268285
10.235522
10.207974
10.184967
10.16631
10.151034
10.138742
10.129407
10.122698
10.118169
10.115397
10.113963
10.11365
10.113987
10.114936
10.116506
10.118604
10.121085
10.12374
10.126345
10.128768
10.13103
10.133112
10.134485
10.133796
10.127891
10.108107
10.065089
10.009146
9.9736719
9.986163
1568.5006
2406.3202
841.38988
543.20828
336.9907
261.7176
182.34533
147.1817
116.55561
95.862644
79.759496
67.404933
57.696489
49.977122
43.763669
38.710954
34.553335
31.103917
28.222647
25.795288
23.742327
21.990142
20.4894
19.198595
18.082108
17.111002
16.261961
15.515981
14.857868
14.277135
13.761153
13.303065
12.896105
12.534664
12.213957
11.929848
11.678342
11.456326
11.260941
11.089468
10.939617
10.809088
10.697008
10.60069
10.517846
10.446908
10.386375
10.334869
10.291142
10.254519
10.22373
10.197775
10.176032
10.158264
10.143898
10.132427
10.123688
10.117602
10.113623
10.111333
10.110481
10.110534
10.111348
10.112903
10.115193
10.118126
10.121549
10.125257
10.129069
10.132916
10.136792
10.140381
10.142606
10.141714
10.135299
10.11533
10.073496
10.019655
9.9848692
9.9924435
1585.8611
2365.1967
808.56369
530.77292
324.87954
253.22324
176.99699
141.76893
112.20996
91.850635
76.22619
64.272059
54.915999
47.511712
41.588784
36.795197
32.868189
29.620237
26.916483
24.644449
22.72436
21.092884
19.698574
18.500951
17.467094
16.569557
15.785974
15.098286
14.491122
13.954549
13.479234
13.057053
12.681851
12.348554
12.052834
11.790756
11.558773
11.353848
11.173406
11.015146
10.876986
10.756862
10.652815
10.563534
10.48666
10.420683
10.364226
10.316092
10.275216
10.240645
10.211608
10.187161
10.166717
10.149854
10.136461
10.12593
10.118109
10.11284
10.109593
10.107984
10.107696
10.108198
10.109478
10.111544
10.114371
10.117877
10.121922
10.126339
10.131017
10.135993
10.14128
10.146251
10.149236
10.147893
10.139873
10.120572
10.082303
10.03209
9.9975388
9.9983039
1601.6004
2297.456
774.07047
516.85894
311.64209
243.39902
170.99585
135.57833
107.11164
87.286704
72.257733
60.794401
51.881969
44.872792
39.294213
34.802714
31.139684
28.116571
25.603321
23.499786
21.726312
20.221173
18.936252
17.833522
16.882393
16.057494
15.337548
14.704891
14.14764
13.654852
13.218063
12.829896
12.484539
12.177328
11.904494
11.662729
11.448815
11.2598
11.093267
10.946951
10.818984
10.707734
10.611771
10.528704
10.457133
10.395571
10.342725
10.297495
10.258953
10.226617
10.199188
10.176181
10.157055
10.141428
10.129156
10.119739
10.112969
10.108619
10.106226
10.105404
10.105568
10.106499
10.108183
10.110628
10.113795
10.117614
10.121976
10.126772
10.131967
10.137679
10.143992
10.150138
10.15378
10.151902
10.140567
10.123782
10.091183
10.045638
10.01132
10.003598
1614.6358
2228.9498
737.01751
500.90522
297.61472
232.05493
163.87142
128.44381
101.18362
82.139681
67.846622
57.010862
48.654222
42.117601
36.938031
32.785247
29.41315
26.629328
24.323207
22.395466
20.771997
19.395106
18.219624
17.210232
16.339075
15.58347
14.922866
14.34375
13.833053
13.380754
12.979654
12.622932
12.305208
12.022084
11.770088
11.546484
11.348782
11.173998
11.020016
10.884636
10.765972
10.663052
10.573465
10.495918
10.428963
10.371299
10.321714
10.279217
10.243018
10.212461
10.186678
10.16517
10.147486
10.133261
10.122254
10.114059
10.108413
10.105067
10.103491
10.103357
10.103896
10.105173
10.107177
10.109877
10.113225
10.117155
10.121595
10.126497
10.131894
10.13793
10.144715
10.151626
10.155673
10.154701
10.142982
10.125694
10.099728
10.059161
10.025581
10.008468
1622.1844
2145.7637
697.17999
481.21192
282.55356
218.87181
155.14691
120.22605
94.422618
76.453381
63.073277
53.026552
45.327319
39.330882
34.593119
30.803234
27.733589
25.204512
23.109057
21.358123
19.883086
18.631314
17.561561
16.641445
15.845445
15.153335
14.548775
14.018062
13.550091
13.13461
12.765678
12.43725
12.14446
11.88323
11.65016
11.442597
11.259141
11.096755
10.953645
10.827958
10.717867
10.621619
10.537776
10.464983
10.401995
10.347706
10.301057
10.260972
10.227107
10.198367
10.174263
10.154322
10.138175
10.125519
10.115869
10.108955
10.104466
10.102107
10.101406
10.101574
10.102416
10.103942
10.106145
10.108988
10.112412
10.116344
10.120726
10.125554
10.13091
10.136949
10.143743
10.150787
10.155997
10.156796
10.147386
10.130304
10.107224
10.071753
10.039008
10.013492
1619.0958
2043.6202
654.04459
455.47278
266.28179
203.502
144.57523
110.94372
86.973918
70.350699
58.119932
48.986697
42.019192
36.607089
32.336212
28.920266
26.154156
23.879011
21.990289
20.409836
19.075974
17.941813
16.970641
16.133532
15.407561
14.774535
14.219936
13.731873
13.300496
12.917818
12.577236
12.2736
12.00259
11.760648
11.544757
11.352327
11.181139
11.029355
10.895221
10.77718
10.673755
10.583433
10.504526
10.435885
10.376326
10.324884
10.281003
10.243356
10.211345
10.18444
10.162094
10.143791
10.129336
10.118133
10.109883
10.104253
10.100943
10.099458
10.099388
10.099829
10.100881
10.102534
10.104799
10.107663
10.111079
10.114977
10.119291
10.124009
10.129213
10.13506
10.141618
10.148467
10.15412
10.156066
10.151764
10.137199
10.113377
10.082563
10.050476
10.017963
1599.1569
1912.5722
607.82697
423.0147
248.80022
185.73513
132.36713
100.91339
79.181437
64.153549
53.205887
45.055774
38.85254
34.03897
30.238575
27.192311
24.718265
22.684871
20.990418
19.567835
18.363159
17.335464
16.452781
15.689803
15.026244
14.445788
13.935483
13.485331
13.086577
12.732188
12.41608
12.133695
11.881158
11.655292
11.453423
11.273254
11.112773
10.970176
10.843826
10.732227
10.634091
10.548651
10.47389
10.408805
10.35236
10.303636
10.261824
10.2262
10.195988
10.170749
10.150198
10.13361
10.120627
10.110876
10.103985
10.09964
10.09739
10.096823
10.096997
10.097728
10.098952
10.100661
10.102873
10.105621
10.108918
10.11275
10.117074
10.121827
10.126977
10.132581
10.138706
10.145078
10.150595
10.153302
10.151684
10.141999
10.119409
10.090434
10.059458
10.020845
1553.5101
1751.971
559.69179
384.63491
231.05229
165.83886
119.19693
90.751926
71.500063
58.185929
48.555649
41.393441
35.943545
31.71052
28.360808
25.665754
23.465654
21.647018
20.127423
18.845162
17.754245
16.819418
16.013237
15.313975
14.704127
14.169267
13.696795
13.278668
12.907104
12.576584
12.281034
12.016454
11.779365
11.56691
11.376676
11.206593
11.054844
10.919806
10.799997
10.694054
10.60072
10.518823
10.447253
10.384789
10.330568
10.283739
10.243625
10.209842
10.181379
10.157799
10.138629
10.123455
10.11185
10.103399
10.097809
10.094533
10.093157
10.093166
10.093616
10.094588
10.095994
10.097785
10.099939
10.102503
10.105572
10.109259
10.113636
10.11863
10.124013
10.129569
10.13527
10.14105
10.146213
10.149267
10.148693
10.142986
10.124615
10.094963
10.065478
10.022308
1473.786
1587.2806
510.59447
345.20048
207.109
146.52698
106.0042
81.14823
64.388434
52.762963
44.384642
38.154013
33.401809
29.696601
26.750394
24.367076
22.409989
20.781989
19.412833
18.250987
17.256921
16.40053
15.658222
15.01128
14.444628
13.945986
13.505245
13.114035
12.765559
12.454155
12.175116
11.924733
11.699881
11.497975
11.316824
11.15454
11.009458
10.880073
10.764998
10.662946
10.572738
10.493372
10.424284
10.36391
10.311533
10.266374
10.227767
10.19511
10.167851
10.145416
10.127369
10.11328
10.102838
10.095468
10.090814
10.08845
10.087819
10.08788
10.088457
10.089513
10.090991
10.092834
10.095016
10.097504
10.100404
10.103902
10.1082
10.113355
10.119134
10.125104
10.130947
10.136578
10.141686
10.145181
10.145422
10.140998
10.127834
10.101498
10.068675
10.022815
1361.6489
1499.9502
464.47329
297.75507
183.26361
128.3625
94.055142
72.630397
58.222854
48.178497
40.910622
35.488522
31.330702
28.067063
25.453516
23.324589
21.564993
20.092228
18.844998
17.780752
16.865415
16.073024
15.383066
14.779139
14.247947
13.778628
13.362205
12.991291
12.659895
12.363505
12.097132
11.857542
11.641874
11.447782
11.273269
11.116619
10.976316
10.850997
10.739405
10.64037
10.552784
10.475585
10.407748
10.34848
10.296974
10.252537
10.214546
10.182478
10.156009
10.134319
10.117007
10.103614
10.093715
10.086896
10.082722
10.080737
10.080397
10.080397
10.080915
10.081868
10.083201
10.084739
10.086844
10.089401
10.092431
10.095968
10.100079
10.104894
10.110553
10.117008
10.123922
10.130774
10.13671
10.140693
10.142755
10.141382
10.128263
10.107146
10.070081
10.022623
1228.6009
1254.1358
424.31381
255.44114
161.05003
113.19313
84.152365
65.737576
53.335577
44.632456
38.288229
33.512724
29.817327
26.890728
24.527154
22.586533
20.970831
19.609756
18.451766
17.458246
16.599834
15.853654
15.201577
14.628961
14.123784
13.676059
13.277682
12.921851
12.602959
12.316371
12.058286
11.825527
11.615476
11.425941
11.255063
11.101242
10.963063
10.839253
10.728647
10.630179
10.542927
10.466319
10.398853
10.339854
10.288557
10.244297
10.206462
10.17449
10.14786
10.126082
10.108679
10.0952
10.085211
10.078279
10.073942
10.07168
10.070781
10.070415
10.070669
10.071298
10.072988
10.075134
10.077629
10.080417
10.08357
10.08721
10.09149
10.096596
10.102647
10.109568
10.117187
10.125302
10.132804
10.137176
10.141045
10.141174
10.129083
10.112019
10.069889
10.022176
1108.7791
1117.3384
391.72603
224.67859
144.41872
102.02634
76.806263
60.7023
49.827215
42.13128
36.465196
32.159937
28.797947
26.112948
23.927723
22.120858
20.606792
19.323785
18.22632
17.280158
16.459037
15.742421
15.113962
14.560522
14.071847
13.637472
13.250071
12.903212
12.591615
12.310891
12.057417
11.828203
11.620778
11.433082
11.263378
11.110174
10.972157
10.848148
10.737062
10.63789
10.549688
10.471573
10.402734
10.342397
10.289858
10.24446
10.205599
10.172708
10.145247
10.122703
10.104591
10.090445
10.079814
10.072235
10.067219
10.064211
10.062347
10.060769
10.060106
10.061737
10.0643
10.067144
10.07025
10.073549
10.077076
10.080963
10.085429
10.090768
10.097166
10.104512
10.112675
10.121531
10.129543
10.134015
10.139029
10.140909
10.130908
10.111473
10.06966
10.021814
1053.7419
1075.1801
367.51629
207.56638
133.52044
94.444783
71.323291
56.687489
46.823876
39.835651
34.676038
30.73814
27.650157
25.173954
23.151047
21.472476
20.061241
18.86162
17.832446
16.942717
16.168643
15.49161
14.896753
14.371966
13.90722
13.49412
13.125562
12.795568
12.499117
12.232019
11.990794
11.772562
11.574936
11.395933
11.233883
11.087357
10.955108
10.836018
10.729066
10.633307
10.547861
10.471908
10.40469
10.345508
10.29372
10.248736
10.21001
10.177031
10.14931
10.126379
10.107784
10.093084
10.081848
10.073632
10.067953
10.064249
10.061692
10.059571
10.058352
10.058779
10.060234
10.062562
10.065483
10.068806
10.072365
10.076162
10.080446
10.085708
10.092163
10.099517
10.107466
10.116332
10.125409
10.13093
10.136716
10.13897
10.129295
10.112029
10.069662
10.021665
20569.324
66073.205
24830.18
4737.7646
1057.2779
576.94794
428.44857
345.31666
282.42656
228.4304
187.71555
156.74588
133.43652
115.86837
102.21156
90.930849
81.328318
73.122584
66.086895
60.004586
54.701735
50.049224
45.946753
42.311536
39.080222
36.18929
33.594399
31.256117
29.143038
27.23034
25.496682
23.922901
22.492225
21.189913
20.004436
18.926102
17.946183
17.056941
16.251304
15.522843
14.865945
14.274998
13.744826
13.270742
12.848147
12.472682
12.140391
11.847148
11.589209
11.363185
11.165792
10.993921
10.844588
10.715252
10.603375
10.506717
10.423601
10.355699
10.304703
10.270339
10.246796
10.228929
10.215507
10.206589
10.200839
10.196052
10.191577
10.185272
10.17341
10.152655
10.153332
10.123964
10.131119
10.121876
10.127002
10.12235
10.121873
10.103457
10.096702
10.098845
27001.94
35502.951
12831.203
2303.9593
851.9728
509.94657
394.09874
313.43018
255.71604
205.61596
170.92904
143.81469
123.69871
108.38373
96.221271
85.922868
77.112001
69.577347
63.09059
57.452395
52.514696
48.167304
44.321466
40.903188
37.852177
35.116477
32.655524
30.43233
28.419223
26.593873
24.936557
23.429503
22.057271
20.806307
19.666303
18.62829
17.684117
16.826597
16.0491
15.345616
14.7109
14.139574
13.626776
13.16807
12.759038
12.395523
12.073744
11.789684
11.539777
11.320765
11.129464
10.962865
10.818089
10.692702
10.584257
10.490508
10.409636
10.343506
10.294483
10.262036
10.239903
10.223073
10.210551
10.202337
10.196997
10.192453
10.188256
10.181909
10.169573
10.149628
10.152211
10.124203
10.131359
10.122941
10.127495
10.122951
10.122195
10.10536
10.098963
10.098233
34460.956
22400.233
7421.898
1503.3646
780.68408
488.19747
382.62471
297.20283
244.24982
195.59453
164.28869
138.03568
119.29134
104.75959
93.147142
83.234123
74.790451
67.569644
61.341037
55.919485
51.167682
46.981125
43.274574
39.977078
37.029173
34.384821
32.004564
29.852265
27.902295
26.133204
24.525946
23.063426
21.730897
20.515394
19.407307
18.397965
17.479539
16.645153
15.888417
15.203567
14.585576
14.029187
13.529757
13.082998
12.684602
12.330548
12.017168
11.740513
11.497144
11.283889
11.097634
10.935446
10.794535
10.672566
10.567006
10.475784
10.397006
10.332313
10.285032
10.254269
10.233376
10.217493
10.205796
10.198209
10.19323
10.188925
10.18506
10.178063
10.165353
10.146619
10.150654
10.124485
10.131444
10.1244
10.127911
10.123602
10.12243
10.107733
10.101462
10.097594
38539.041
19105.139
5110.5501
1270.8843
742.08985
462.95942
370.50709
282.62441
234.63932
186.34645
158.15691
132.4603
115.19
101.32205
90.248034
80.706034
72.61028
65.676876
59.686933
54.466808
49.887547
45.850023
42.272601
39.08731
36.237781
33.67702
31.371931
29.286323
27.396096
25.680445
24.120965
22.701165
21.406911
20.225771
19.148779
18.167485
17.274363
16.46281
15.726643
15.060325
14.459019
13.917574
13.431557
12.996813
12.609132
12.264629
11.959741
11.690579
11.453836
11.24642
11.065287
10.907583
10.770678
10.652089
10.549483
10.460839
10.384336
10.321125
10.275683
10.24661
10.226922
10.211966
10.201077
10.19409
10.189451
10.185393
10.181797
10.17373
10.160788
10.143709
10.148456
10.124757
10.131485
10.125963
10.128198
10.124328
10.122647
10.110363
10.103913
10.096854
41165.918
17293.376
3944.5014
1200.6397
718.93014
443.80344
362.28881
271.71114
228.08843
179.3722
153.7845
128.13952
112.10816
98.60745
87.938263
78.66241
70.832995
64.11567
58.307828
53.24351
48.799452
44.880015
41.405974
38.311443
35.54178
33.052453
30.808078
28.778517
26.939019
25.269124
23.750903
22.368303
21.107662
19.956949
18.907721
17.951629
17.081406
16.290653
15.573338
14.924106
14.338265
13.810737
13.337281
12.913835
12.536272
12.200826
11.904019
11.642012
11.411622
11.209822
11.033633
10.880284
10.747234
10.631951
10.532232
10.446115
10.371866
10.310197
10.266607
10.239162
10.220618
10.206558
10.196447
10.190021
10.185699
10.1819
10.178443
10.169117
10.156055
10.140951
10.145505
10.125017
10.131524
10.127534
10.128314
10.125183
10.122858
10.113124
10.106003
10.095939
43213.84
14748.723
3255.3998
1155.9508
701.84501
429.81127
355.69903
263.17657
223.0516
173.64376
150.24931
124.4691
109.55137
96.267513
85.949707
76.888669
69.282852
62.744032
57.088836
52.156115
47.826969
44.008417
40.623166
37.607006
34.906828
32.479282
30.288873
28.308788
26.514234
24.885167
23.403977
22.054964
20.824854
19.701944
18.678244
17.745434
16.896487
16.125158
15.425534
14.792413
14.221219
13.706924
13.245464
12.832843
12.465009
12.138301
11.849315
11.594251
11.370045
11.173729
11.002395
10.85339
10.724039
10.61201
10.515146
10.431531
10.359503
10.29949
10.257769
10.231902
10.214455
10.201268
10.191908
10.186008
10.181983
10.178457
10.174912
10.164357
10.151456
10.13837
10.143
10.125295
10.131615
10.129043
10.128291
10.126188
10.123049
10.115841
10.107561
10.094772
44677.419
12078.224
2910.5798
1132.3276
688.85533
418.98998
350.75406
256.35453
219.20692
169.05788
147.34232
121.38787
107.42549
94.238203
84.223362
75.33756
67.920754
61.530977
56.004939
51.184201
46.95342
43.221671
39.913214
36.965183
34.325689
31.952507
29.811366
27.873868
26.119112
24.526554
23.078682
21.760052
20.557713
19.460231
18.460011
17.548705
16.719518
15.966313
15.283272
14.665325
14.107979
13.606245
13.15622
12.753952
12.395454
12.077162
11.795726
11.547387
11.329196
11.138244
10.971736
10.826848
10.701144
10.592323
10.498277
10.417133
10.347305
10.289037
10.249183
10.224838
10.208448
10.196114
10.187479
10.182069
10.178321
10.175078
10.171133
10.159463
10.146972
10.135928
10.14139
10.125601
10.131747
10.130451
10.127786
10.127346
10.123094
10.118287
10.1085
10.093299
45568.743
9599.7997
2735.5824
1117.8616