/*--------------------------------*- C++ -*----------------------------------*\
  =========                 |
  \\      /  F ield         | OpenFOAM: The Open Source CFD Toolbox
   \\    /   O peration     | Website:  https://openfoam.org
    \\  /    A nd           | Version:  12
     \\/     M anipulation  |
\*---------------------------------------------------------------------------*/
FoamFile
{
    format      ascii;
    class       volScalarField;
    location    "0.011";
    object      T;
}
// * * * * * * * * * * * * * * * * * * * * * * * * * * * * * * * * * * * * * //

dimensions      [0 0 0 1 0 0 0];

internalField   nonuniform List<scalar> 
16000
(
295.27377
286.83166
290.03833
288.29686
289.38674
288.88201
289.29793
289.18481
289.37397
289.40515
289.5229
289.60544
289.7088
289.80999
289.91742
290.02839
290.14363
290.26294
290.3863
290.51368
290.64499
290.78019
290.91918
291.06186
291.20814
291.35789
291.511
291.66732
291.82672
291.98905
292.15414
292.32182
292.49192
292.66422
292.83853
293.01459
293.19217
293.37098
293.55074
293.73115
293.91191
294.09269
294.27322
294.45321
294.63241
294.81059
294.98753
295.16303
295.33683
295.50864
295.67807
295.84462
296.0076
296.16606
296.31883
296.46449
296.60131
296.72706
296.83904
296.93446
297.01094
297.06696
297.10167
297.11501
297.10868
297.08763
297.06064
297.03581
297.02549
297.04826
297.10599
297.21068
297.36006
297.55076
297.76134
297.92567
297.876
297.33828
297.27052
296.25696
294.94387
286.42555
289.80564
287.93504
289.09077
288.55078
288.99983
288.8774
289.08108
289.11737
289.24175
289.33282
289.44299
289.55264
289.66811
289.78771
289.91176
290.04019
290.17294
290.30997
290.45117
290.59648
290.74576
290.89891
291.05577
291.21618
291.37997
291.54696
291.71695
291.88972
292.06506
292.24274
292.4225
292.6041
292.78726
292.97171
293.15715
293.34328
293.52978
293.71634
293.90265
294.0884
294.27332
294.45715
294.63967
294.82072
295.00014
295.17779
295.35355
295.52723
295.6986
295.86731
296.03281
296.19431
296.35071
296.50068
296.64259
296.77433
296.89304
296.99549
297.07881
297.14099
297.1805
297.19636
297.18931
297.16293
297.12385
297.08299
297.05045
297.03976
297.06973
297.14382
297.27348
297.46115
297.68283
297.83438
297.69478
297.20278
296.92792
296.12956
294.62244
286.0405
289.50945
287.61004
288.80536
288.25673
288.717
288.60165
288.81114
288.85874
288.98829
289.08953
289.20742
289.32642
289.45108
289.58033
289.71431
289.85297
289.99623
290.14401
290.29621
290.45269
290.61332
290.77792
290.94631
291.11827
291.29357
291.47198
291.65322
291.83703
292.0231
292.21115
292.40084
292.59187
292.7839
292.97659
293.16961
293.36261
293.55524
293.74718
293.93811
294.12773
294.31578
294.50204
294.68636
294.86861
295.04873
295.22669
295.40246
295.57601
295.74726
295.91604
296.08199
296.24451
296.40264
296.55512
296.70045
296.83664
296.96086
297.06959
297.15955
297.22824
297.27347
297.29343
297.28801
297.25941
297.213
297.15979
297.10738
297.07156
297.06616
297.10679
297.2041
297.36909
297.5731
297.67951
297.45743
296.9202
296.52019
295.96093
294.32136
285.68254
289.26533
287.31487
288.54742
287.99113
288.4625
288.3562
288.57157
288.63215
288.76786
288.88045
289.00739
289.13693
289.27206
289.41221
289.55736
289.70746
289.86241
290.02209
290.18637
290.35508
290.52803
290.70501
290.88577
291.07004
291.25752
291.44792
291.64087
291.83604
292.03305
292.23152
292.43105
292.63126
292.83173
293.03208
293.23192
293.43085
293.62853
293.8246
294.01876
294.21071
294.40025
294.5872
294.77146
294.953
295.13185
295.30809
295.48182
295.65317
295.82223
295.98901
296.15338
296.31495
296.47296
296.62628
296.77351
296.91285
297.04157
297.15597
297.25249
297.32815
297.38013
297.40575
297.40416
297.37635
297.32656
297.26243
297.19253
297.13118
297.09162
297.08996
297.14176
297.26443
297.42405
297.46243
297.15257
296.53881
296.08037
295.77788
294.04168
285.35658
289.0372
287.06746
288.3268
287.76251
288.24204
288.15059
288.36948
288.44595
288.58866
288.71401
288.85143
288.99275
289.13969
289.29197
289.44953
289.61227
289.78008
289.9528
290.13026
290.31225
290.49854
290.68884
290.88284
291.0802
291.28055
291.48348
291.68857
291.89537
292.10341
292.31222
292.52132
292.73023
292.93849
293.14564
293.35124
293.55487
293.75617
293.95479
294.15043
294.34286
294.53191
294.71749
294.89956
295.07821
295.25357
295.42586
295.59531
295.76222
295.92685
296.08942
296.25002
296.40849
296.56433
296.71659
296.86403
297.00504
297.13704
297.25631
297.35904
297.44186
297.50134
297.53387
297.53753
297.51211
297.46122
297.38767
297.30104
297.21195
297.13317
297.08167
297.07866
297.14258
297.23514
297.19021
296.78702
296.09382
295.61465
295.60843
293.78944
285.07179
288.83775
286.85283
288.13931
287.57911
288.0656
287.99348
288.2143
288.30862
288.45938
288.59843
288.74761
288.90173
289.06164
289.22721
289.39835
289.57493
289.75682
289.94379
290.13564
290.33208
290.53281
290.73745
290.94561
291.15685
291.3707
291.58663
291.80412
292.02261
292.24152
292.46028
292.67831
292.89507
293.11
293.32262
293.53243
293.73903
293.94203
294.14114
294.33609
294.52671
294.71291
294.8947
295.07215
295.24547
295.41492
295.58085
295.74367
295.9038
296.0617
296.21779
296.37237
296.52553
296.67703
296.82617
296.97193
297.11286
297.2466
297.36948
297.47755
297.56712
297.63409
297.67396
297.68331
297.66029
297.60828
297.52495
297.41978
297.3004
297.17884
297.07217
297.00589
297.00215
297.02149
296.89238
296.40087
295.63007
295.14263
295.47482
293.57131
284.83372
288.6743
286.68324
287.98915
287.44703
287.94279
287.89178
288.11234
288.22537
288.38521
288.53872
288.70104
288.86921
289.04352
289.22388
289.41017
289.60218
289.79974
290.00253
290.21027
290.42257
290.63902
290.85915
291.08244
291.30832
291.5362
291.76541
291.99532
292.22523
292.45445
292.68232
292.90816
293.13134
293.35129
293.56745
293.77936
293.9866
294.18884
294.38583
294.5774
294.76347
294.94407
295.11931
295.28942
295.45472
295.61565
295.77267
295.92635
296.07729
296.22609
296.37335
296.51958
296.6651
296.80992
296.95363
297.09542
297.23408
297.36741
297.49187
297.60351
297.69839
297.77161
297.81752
297.83171
297.81015
297.75427
297.66021
297.53403
297.38196
297.21538
297.0533
296.92626
296.86018
296.81419
296.61481
296.05021
295.20036
294.7057
295.39511
293.38833
284.64284
288.54545
286.55187
287.86986
287.35952
287.85
287.81698
288.0608
288.19665
288.36789
288.53755
288.7153
288.89966
289.09059
289.28795
289.49156
289.70113
289.91637
290.13689
290.36227
290.59199
290.82554
291.06227
291.30153
291.5426
291.78472
292.02712
292.26898
292.5095
292.74787
292.98333
293.21514
293.44262
293.66517
293.88223
294.09339
294.29827
294.49664
294.68834
294.87333
295.05165
295.22348
295.38909
295.54887
295.70328
295.85291
295.99837
296.14036
296.27959
296.41685
296.55286
296.68831
296.82372
296.95933
297.09494
297.23
297.36356
297.49354
297.61659
297.72883
297.82614
297.90279
297.95203
297.96852
297.94751
297.88402
297.77772
297.63024
297.44684
297.23941
297.03037
296.85579
296.74447
296.65225
296.40147
295.77576
294.85187
294.3385
295.36381
293.23619
284.49699
288.45363
286.45926
287.80477
287.33822
287.82728
287.84435
288.07054
288.22588
288.41211
288.60047
288.79666
288.99998
289.21027
289.42726
289.65072
289.88021
290.11535
290.35559
290.60037
290.84902
291.10083
291.355
291.6107
291.86703
292.12307
292.37787
292.63049
292.88
293.12551
293.36616
293.6012
293.82993
294.05178
294.26626
294.47302
294.67182
294.86255
295.04521
295.21991
295.38688
295.54647
295.69913
295.84539
295.98591
296.12139
296.25257
296.38025
296.50525
296.62846
296.75071
296.8728
296.99541
297.11894
297.24339
297.3684
297.49332
297.61616
297.73377
297.84243
297.93791
298.01398
298.06271
298.07647
298.0556
297.98441
297.86629
297.70154
297.49503
297.26005
297.02309
296.82421
296.69148
296.57478
296.28894
295.60696
294.61129
294.05831
295.37433
293.11275
284.39767
288.40576
286.41679
287.7979
287.33561
287.85304
287.90221
288.13991
288.32147
288.52636
288.73615
288.95389
289.17913
289.41166
289.65106
289.89696
290.14879
290.40599
290.66782
290.93355
291.20227
291.47309
291.74498
292.01692
292.28779
292.55652
292.82199
293.08315
293.33895
293.58846
293.83081
294.06524
294.29113
294.50799
294.71548
294.91339
295.10167
295.28039
295.44975
295.61009
295.76183
295.90551
296.04176
296.17129
296.29489
296.41337
296.52757
296.63834
296.74657
296.85318
296.95906
297.06506
297.17192
297.28017
297.38995
297.50105
297.61313
297.72429
297.83166
297.93182
298.02059
298.09146
298.1354
298.14413
298.12
298.04634
297.92376
297.75234
297.53858
297.29812
297.06041
296.86575
296.73615
296.61216
296.299
295.55652
294.47934
293.88539
295.43107
293.02093
284.35253
288.40718
286.49539
287.85398
287.47154
287.94282
288.03472
288.28275
288.49191
288.71949
288.95383
289.19641
289.44676
289.70456
289.96922
290.24018
290.51666
290.79788
291.08286
291.3706
291.65997
291.94979
292.2388
292.52575
292.80934
293.08831
293.36142
293.62754
293.88558
294.13461
294.37383
294.60259
294.82042
295.027
295.22221
295.40609
295.57882
295.74072
295.89225
296.03396
296.1665
296.2906
296.40707
296.51675
296.62053
296.71928
296.8139
296.90525
296.9942
297.08167
297.16851
297.25556
297.34353
297.43305
297.52441
297.61738
297.71212
297.80678
297.89891
297.98573
298.06334
298.12513
298.16474
298.17553
298.14631
298.07546
297.95906
297.79789
297.59931
297.38032
297.17063
297.00628
296.8988
296.77641
296.43272
295.61441
294.43971
293.78399
295.54811
292.96703
284.37496
288.4662
286.63029
287.95968
287.63079
288.10516
288.24227
288.50685
288.74625
289.00081
289.26325
289.53425
289.81314
290.09941
290.39223
290.69079
290.99402
291.30082
291.60992
291.91998
292.22958
292.53724
292.84147
293.14077
293.43367
293.71881
293.99487
294.2607
294.5153
294.75786
294.98773
295.2045
295.40795
295.59808
295.77505
295.93921
296.09106
296.2312
296.36034
296.47927
296.58884
296.68995
296.78353
296.87052
296.95186
297.02842
297.10107
297.17064
297.23793
297.30376
297.36893
297.43416
297.50013
297.56751
297.63678
297.7076
297.78078
297.85469
297.92743
297.99723
298.06116
298.11282
298.14737
298.15797
298.13863
298.08351
297.99035
297.86053
297.70152
297.52966
297.37152
297.25488
297.17904
297.06048
296.68094
295.77376
294.48073
293.80182
295.70503
292.95504
284.47025
288.59169
286.82014
288.13296
287.88004
288.34872
288.53427
288.82126
289.0941
289.38034
289.67508
289.97852
290.2897
290.6078
290.93166
291.26009
291.59163
291.9248
292.25794
292.58934
292.91724
293.23989
293.55554
293.86254
294.15931
294.44445
294.71673
294.97512
295.21884
295.44733
295.6603
295.85769
296.03967
296.20662
296.3591
296.49781
296.62355
296.73724
296.83982
296.93226
297.01559
297.0908
297.1589
297.22084
297.27753
297.3298
297.37842
297.42411
297.46757
297.50949
297.55053
297.59134
297.63253
297.67468
297.71855
297.76454
297.81306
297.86357
297.91482
297.96634
298.01692
298.06089
298.09557
298.11556
298.11563
298.09115
298.03939
297.9611
297.86242
297.75687
297.66481
297.60318
297.55937
297.44125
297.02112
296.02599
294.62208
293.97089
295.89858
292.98562
284.64442
288.78686
287.09578
288.38105
288.21164
288.68228
288.9195
289.23637
289.54709
289.87038
290.20231
290.54269
290.8901
291.24328
291.60061
291.96038
292.32067
292.67952
293.03484
293.38454
293.72655
294.05886
294.37959
294.68702
294.97964
295.2562
295.51573
295.75755
295.98129
296.18686
296.37444
296.54449
296.69766
296.83476
296.95678
297.06476
297.15982
297.24309
297.31569
297.37873
297.43331
297.48046
297.52116
297.5563
297.5867
297.61306
297.636
297.65611
297.67396
297.69008
297.70503
297.71937
297.73373
297.74862
297.76495
297.7851
297.80796
297.83493
297.86561
297.90115
297.94183
297.98404
298.02658
298.06591
298.09789
298.11807
298.12275
298.11077
298.08564
298.05671
298.03638
298.02965
298.01264
297.88821
297.42654
296.35797
294.88198
294.26585
296.12235
293.06234
284.90911
289.05365
287.45858
288.71673
288.63903
289.11827
289.4112
289.76633
290.12075
290.48712
290.86163
291.24348
291.63071
292.0214
292.41334
292.80422
293.19159
293.57295
293.9458
294.30771
294.6564
294.98975
295.30593
295.60341
295.88102
296.13793
296.37371
296.58827
296.78187
296.95505
297.10863
297.24361
297.36116
297.46255
297.54911
297.62219
297.68309
297.73309
297.77341
297.80518
297.82948
297.84727
297.85944
297.86674
297.86982
297.86922
297.8654
297.85879
297.84981
297.83889
297.82655
297.81337
297.8001
297.78769
297.77747
297.77106
297.77056
297.7766
297.79069
297.81631
297.85315
297.90147
297.96068
298.02873
298.10223
298.1764
298.24599
298.30717
298.36011
298.40971
298.46067
298.50638
298.51194
298.37576
297.87248
296.74966
295.24517
294.63143
296.36748
293.18821
285.28117
289.38735
287.9212
289.15114
289.17545
289.67353
290.02782
290.43067
290.83572
291.25141
291.67359
292.10061
292.52979
292.95844
293.38366
293.80245
294.21178
294.60868
294.99032
295.35414
295.69786
296.01961
296.31798
296.592
296.84118
297.0655
297.26532
297.44138
297.59472
297.7266
297.83848
297.9319
298.00847
298.06981
298.11749
298.15301
298.17778
298.19308
298.20009
298.19988
298.19339
298.18146
298.16479
298.14395
298.11937
298.09142
298.0604
298.02661
297.99039
297.95216
297.91247
297.87211
297.83213
297.79389
297.75921
297.73069
297.711
297.70164
297.70526
297.72895
297.76997
297.832
297.91506
298.01786
298.13716
298.26769
298.40265
298.53568
298.66372
298.78772
298.90646
299.00371
299.03316
298.88691
298.34621
297.18744
295.6866
295.07714
296.61631
293.36658
285.78832
289.795
288.50045
289.70464
289.84306
290.3726
290.79512
291.25513
291.71764
292.18796
292.66132
293.13498
293.6054
294.06895
294.52194
294.96068
295.38167
295.78169
296.15795
296.50814
296.83055
297.12408
297.38821
297.62301
297.82908
298.00743
298.15944
298.28675
298.39118
298.47467
298.53919
298.58669
298.61906
298.63809
298.64543
298.64257
298.63086
298.61147
298.58544
298.55366
298.51689
298.47575
298.43072
298.38214
298.33027
298.27529
298.21741
298.15687
298.09402
298.02938
297.96372
297.89817
297.83427
297.77394
297.71965
297.67472
297.64268
297.62556
297.62659
297.65512
297.70794
297.7894
297.8999
298.03844
298.20168
298.38386
298.57737
298.77442
298.9696
299.16039
299.34202
299.49261
299.55442
299.40817
298.84098
297.66727
296.19329
295.59067
296.89025
293.60786
286.47544
290.31747
289.22642
290.40702
290.67204
291.24696
291.74438
292.26972
292.79516
293.32319
293.84817
294.36597
294.87191
295.3614
295.83001
296.27367
296.68888
297.0728
297.42336
297.7393
298.02016
298.2662
298.47834
298.65803
298.80714
298.92782
299.02242
299.09338
299.14312
299.17404
299.1884
299.18833
299.17579
299.15251
299.12005
299.07975
299.03275
298.98002
298.92236
298.86042
298.79473
298.72565
298.65343
298.57822
298.50011
298.4192
298.33566
298.24978
298.16206
298.07327
297.98456
297.89752
297.81424
297.7373
297.66985
297.6158
297.57884
297.56183
297.56922
297.60775
297.6766
297.77959
297.91699
298.08743
298.28745
298.51134
298.7517
299.00082
299.25239
299.50112
299.73969
299.94592
300.05338
299.92607
299.35186
298.18504
296.75993
296.14881
297.18
293.93743
287.32742
290.98091
290.1354
291.29509
291.69627
292.33188
292.91068
293.50759
294.09869
294.68329
295.25447
295.80651
296.33369
296.83079
297.29336
297.71786
298.10181
298.44382
298.74354
299.0016
299.21942
299.39908
299.54315
299.65449
299.73616
299.79124
299.82277
299.83367
299.82667
299.80429
299.76882
299.7223
299.66653
299.60302
299.53307
299.45774
299.3779
299.29421
299.20721
299.11728
299.02468
298.92955
298.83192
298.7318
298.6292
298.52421
298.41709
298.30832
298.19867
298.0893
297.98185
297.87843
297.78168
297.69468
297.62097
297.56495
297.5314
297.52084
297.54006
297.59128
297.67822
297.80161
297.96154
298.15648
298.38308
298.63625
298.9097
299.1971
299.49307
299.79101
300.07926
300.33918
300.50313
300.41599
299.86283
298.72976
297.37394
296.74383
297.45742
294.3945
288.28826
291.82787
291.26205
292.41182
292.95676
293.66942
294.3352
295.00533
295.65783
296.28843
296.88894
297.45268
297.97386
298.44804
298.87225
299.24501
299.56626
299.83721
300.06006
300.23782
300.37402
300.47253
300.53733
300.57236
300.58141
300.56808
300.53564
300.48708
300.42508
300.35197
300.26979
300.18029
300.08492
299.98484
299.88099
299.7741
299.66468
299.55311
299.43965
299.3244
299.20738
299.08854
298.96778
298.84502
298.7203
298.59382
298.46605
298.33775
298.21012
298.08477
297.96385
297.85
297.74628
297.65606
297.58263
297.53042
297.50778
297.5036
297.53924
297.6065
297.70953
297.84917
298.02508
298.23566
298.47798
298.748
299.04121
299.3534
299.68091
300.01811
300.35113
300.654
300.86573
300.83224
300.33713
299.28578
298.02871
297.36545
297.71804
295.03357
289.52643
292.90438
292.65754
293.81684
294.51084
295.31158
296.0622
296.79457
297.48847
298.13698
298.73212
299.26831
299.74198
300.15169
300.49792
300.78279
301.00973
301.18308
301.30777
301.389
301.432
301.44181
301.42321
301.38057
301.31784
301.23854
301.14576
301.04217
300.93005
300.81133
300.68762
300.56021
300.43011
300.29808
300.16466
300.03021
299.89494
299.75893
299.62217
299.48454
299.34589
299.20601
299.06476
298.92209
298.77817
298.63341
298.48858
298.34485
298.20384
298.06768
297.93896
297.82067
297.71613
297.62883
297.56229
297.51987
297.50436
297.51968
297.56677
297.64768
297.76331
297.91385
298.09869
298.31634
298.56458
298.84077
299.14242
299.46772
299.81491
300.17889
300.54475
300.87977
301.12146
301.13628
300.73745
299.83414
298.70625
297.99173
297.96384
295.91134
291.10127
294.29443
294.40054
295.58817
296.42538
297.30602
298.11806
298.87748
299.56789
300.18324
300.71904
301.17413
301.54994
301.85009
302.07985
302.24552
302.35401
302.41236
302.42743
302.40574
302.35322
302.27525
302.17653
302.0612
301.93277
301.79426
301.64819
301.49664
301.34135
301.18367
301.0247
300.86523
300.70582
300.54681
300.38837
300.23053
300.07321
299.91626
299.75944
299.60249
299.44511
299.28707
299.12825
298.96875
298.80894
298.64953
298.49167
298.33695
298.18743
298.04565
297.9145
297.79716
297.69691
297.617
297.56049
297.53009
297.52808
297.55622
297.61576
297.70741
297.8314
297.98746
298.17485
298.39248
298.63903
298.91335
299.21485
299.54371
299.8998
300.27841
300.66227
301.01327
301.26436
301.32387
301.05506
300.3564
299.37779
298.58891
298.20836
297.01336
293.13586
296.10265
296.57409
297.79244
298.74481
299.66145
300.4762
301.19574
301.81164
302.32404
302.73588
303.05325
303.28419
303.43796
303.52425
303.55266
303.53227
303.47141
303.37752
303.25712
303.11582
302.95838
302.78881
302.61041
302.42593
302.23757
302.04713
301.85601
301.6653
301.47582
301.2881
301.10249
300.91912
300.73797
300.55889
300.38165
300.20594
300.03142
299.8577
299.68442
299.51127
299.33803
299.16472
298.99165
298.81945
298.64921
298.48244
298.32112
298.1677
298.02496
297.89593
297.78373
297.69138
297.62167
297.577
297.55928
297.56989
297.60968
297.67904
297.77799
297.90623
298.06322
298.24829
298.46087
298.70068
298.96796
299.26353
299.58852
299.94322
300.32312
300.7109
301.06742
301.33051
301.43129
301.29888
300.82468
299.99788
299.1057
298.42827
298.50839
295.74241
298.42489
299.23259
300.42807
301.44068
302.30581
303.02757
303.61514
304.07248
304.41001
304.64007
304.77634
304.83262
304.82208
304.75676
304.64739
304.5032
304.33208
304.14061
303.93422
303.71736
303.49362
303.26587
303.0364
302.807
302.57903
302.35354
302.13129
301.91277
301.69829
301.48793
301.28164
301.0792
300.8803
300.68456
300.49154
300.30078
300.1118
299.92416
299.73744
299.55138
299.36589
299.18116
298.99776
298.81665
298.63924
298.46741
298.30345
298.15004
298.01005
297.88646
297.78214
297.69968
297.64127
297.60859
297.60274
297.62428
297.67332
297.74958
297.85255
297.98163
298.1362
298.31581
298.52047
298.75088
299.00843
299.29473
299.61073
299.95565
300.32472
300.7034
301.05918
301.34198
301.49432
301.48245
301.19961
300.5234
299.52429
298.58148
300.44541
298.99171
301.26086
302.35338
303.51929
304.36998
305.06469
305.5823
305.94518
306.17164
306.28268
306.29826
306.23674
306.11426
305.94458
305.73918
305.50748
305.25704
304.99396
304.72302
304.44798
304.17177
303.89663
303.62424
303.35588
303.09244
302.83457
302.58265
302.33688
302.0973
301.86379
301.63609
301.41382
301.19652
300.98366
300.7747
300.56907
300.3662
300.16556
299.96669
299.7692
299.57293
299.37795
299.18469
298.99397
298.80707
298.62571
298.45203
298.28854
298.138
298.00325
297.88703
297.79184
297.71974
297.67231
297.65051
297.65477
297.68498
297.74066
297.82107
297.92538
298.05283
298.20289
298.37546
298.57118
298.79151
299.03849
299.31384
299.6177
299.9476
300.29803
300.65908
301.01102
301.31896
301.53997
301.63037
301.4935
300.92042
299.82763
298.67981
302.84973
302.87485
304.85249
305.81158
306.6931
307.29482
307.69498
307.9145
307.98941
307.94902
307.81983
307.62368
307.37837
307.09802
306.79369
306.47393
306.14526
305.81266
305.47986
305.14964
304.82403
304.50452
304.19212
303.88752
303.59114
303.3032
303.02372
302.75262
302.48969
302.23461
301.98694
301.74618
301.51174
301.28298
301.05924
300.83988
300.62424
300.41172
300.20178
299.99397
299.78801
299.58384
299.38173
299.18233
298.98675
298.7965
298.61355
298.44025
298.27919
298.1331
298.00465
297.89629
297.81006
297.74751
297.70964
297.69683
297.70895
297.74544
297.80541
297.88782
297.99162
298.11601
298.2606
298.4258
298.61288
298.82386
299.06078
299.32455
299.61405
299.92593
300.25554
300.59835
300.94935
301.29442
301.59287
301.76849
301.69687
301.11846
300.03664
298.73387
305.8645
307.23358
308.54354
309.23528
309.70688
309.91378
309.93743
309.81907
309.59887
309.30676
308.96584
308.59328
308.20175
307.80047
307.39614
306.99352
306.59603
306.20601
305.8251
305.45432
305.09435
304.7455
304.40788
304.08144
303.76599
303.46124
303.16682
302.8823
302.60719
302.34092
302.08287
301.83236
301.58867
301.35106
301.1188
300.89117
300.66752
300.44723
300.22979
300.0148
299.80209
299.59173
299.3842
299.18035
298.98149
298.78936
298.60609
298.43414
298.27612
298.13465
298.01218
297.91081
297.83217
297.77735
297.74687
297.7407
297.75834
297.79896
297.86144
297.94456
298.04711
298.16819
298.30754
298.46592
298.64525
298.848
299.07593
299.32862
299.60329
299.89646
300.20676
300.53622
300.88922
301.26424
301.62093
301.83866
301.83021
301.21129
300.15158
298.74458
309.75189
311.51593
312.0496
312.23404
312.18079
311.95043
311.60457
311.18498
310.72143
310.23427
309.73735
309.23994
308.74822
308.26619
307.79644
307.34052
306.8993
306.47317
306.06221
305.66624
305.28495
304.91791
304.56462
304.22453
303.89705
303.58158
303.27748
302.98412
302.70082
302.42685
302.16149
301.90395
301.65343
301.40915
301.17035
300.9363
300.70635
300.4799
300.2565
300.03581
299.81776
299.60258
299.39088
299.18368
298.98245
298.78909
298.60582
298.43513
298.2796
298.14172
298.02372
297.9274
297.85406
297.80444
297.77871
297.77659
297.79742
297.84029
297.90402
297.98734
298.08888
298.20755
298.34294
298.49571
298.66799
298.86272
299.08192
299.32493
299.58799
299.86687
300.16149
300.47898
300.832
301.22766
301.62708
301.88463
301.91672
301.283
300.17059
298.73721
314.64892
315.01492
314.74783
314.38389
313.86793
313.28258
312.66291
312.03412
311.41018
310.79951
310.2068
309.63452
309.08377
308.55485
308.04751
307.56122
307.09527
306.64883
306.22105
305.81103
305.41789
305.04075
304.67876
304.33108
303.99689
303.67541
303.36585
303.06744
302.7794
302.50093
302.23121
301.96943
301.71473
301.46631
301.22339
300.98524
300.75123
300.52078
300.29344
300.06897
299.84733
299.62883
299.41415
299.20442
299.00119
298.80641
298.62235
298.45152
298.29645
298.15954
298.0429
297.94815
297.87641
297.8282
297.80355
297.80209
297.82313
297.8658
297.92902
298.01159
298.11207
298.22905
298.36164
298.51011
298.67624
298.86305
299.07321
299.30691
299.56109
299.83134
300.1171
300.42629
300.77406
301.17408
301.60035
301.91322
301.99008
301.29081
300.1687
298.72762
316.62119
316.7862
316.21755
315.46426
314.69426
313.92351
313.172
312.44719
311.75246
311.08871
310.45561
309.85215
309.27705
308.72885
308.20609
307.70733
307.23119
306.77634
306.34156
305.92566
305.52754
305.14614
304.78049
304.42964
304.09269
303.76879
303.45709
303.15679
302.86707
302.5871
302.31604
302.05302
301.79718
301.54767
301.30369
301.06447
300.82933
300.59764
300.36892
300.14286
299.91937
299.6987
299.48151
299.26886
299.06232
298.86382
298.6757
298.5005
298.34082
298.19915
298.07767
297.97808
297.90152
297.84857
297.81926
297.81323
297.82983
297.86825
297.9275
298.00628
298.10315
298.21654
298.3452
298.48899
298.64932
298.82906
299.03128
299.25778
299.50709
299.77364
300.05859
300.3698
300.72228
301.1278
301.56623
301.90903
302.00095
301.30025
300.1673
298.72191
310.09179
308.0429
304.4542
302.38606
301.71615
301.58243
301.56947
301.49328
301.39637
301.29625
301.20086
301.10867
301.01809
300.92762
300.83699
300.74604
300.65466
300.56269
300.46998
300.37654
300.28239
300.18761
300.09228
299.99656
299.90063
299.80472
299.70906
299.61394
299.51961
299.42635
299.3344
299.24393
299.15511
299.06801
298.98266
298.89904
298.81712
298.73684
298.65819
298.58117
298.50581
298.43219
298.3604
298.29055
298.22273
298.15698
298.09335
298.03185
297.97246
297.9152
297.86007
297.80714
297.75651
297.70839
297.66309
297.62116
297.58339
297.55087
297.52507
297.50781
297.50108
297.50687
297.52667
297.56126
297.60944
297.6696
297.73471
297.80431
297.86265
297.92083
297.96171
297.99541
298.0639
298.0536
298.18111
298.16341
298.27683
298.12414
298.25365
297.89356
309.42699
305.59312
302.1923
300.72425
300.53592
300.61548
300.65728
300.63767
300.61219
300.57676
300.53632
300.48868
300.43733
300.38224
300.32399
300.26274
300.19875
300.13212
300.063
299.99159
299.91805
299.84259
299.76539
299.68669
299.60674
299.52582
299.44423
299.36228
299.28031
299.19861
299.11749
299.03718
298.95789
298.87976
298.80286
298.72724
298.65292
298.57989
298.50817
298.4378
298.36885
298.30142
298.23563
298.17161
298.10945
298.04924
297.99103
297.93484
297.88067
297.82852
297.7784
297.73033
297.6844
297.64077
297.59973
297.56173
297.52752
297.49813
297.47498
297.45988
297.45488
297.46207
297.48315
297.51915
297.56917
297.63168
297.70005
297.77303
297.83564
297.89753
297.94137
297.97943
298.04689
298.04297
298.17332
298.15416
298.27511
298.11863
298.27003
297.85643
308.00789
303.83632
301.21655
300.14866
300.12969
300.12844
300.12696
300.08231
300.05141
300.01196
299.9771
299.93865
299.89966
299.85838
299.81545
299.77056
299.72372
299.67469
299.62343
299.56994
299.51423
299.45634
299.39637
299.33445
299.27077
299.20555
299.13905
299.07157
299.00341
298.9349
298.86633
298.79796
298.73002
298.66268
298.59606
298.53024
298.46527
298.40118
298.33803
298.27589
298.21484
298.15501
298.09655
298.03959
297.98428
297.9307
297.87894
297.82902
297.78097
297.73477
297.69044
297.64797
297.60744
297.56895
297.53275
297.49926
297.46913
297.44333
297.42323
297.41063
297.40761
297.41639
297.43888
297.47637
297.52829
297.59327
297.66496
297.74156
297.80858
297.87449
297.92133
297.96335
298.02978
298.03208
298.16638
298.14343
298.27417
298.11518
298.28583
297.81945
307.35303
302.52335
300.20803
299.42254
299.50912
299.47822
299.49653
299.45886
299.44727
299.42021
299.40086
299.37599
299.35183
299.3255
299.29795
299.26866
299.23762
299.20453
299.16931
299.1319
299.09223
299.0503
299.00615
298.95985
298.91154
298.86139
298.80961
298.75647
298.70224
298.64721
298.59166
298.53584
298.47999
298.42428
298.36884
298.31378
298.25916
298.20504
298.1515
298.09861
298.0465
297.99529
297.94514
297.89622
297.84868
297.80264
297.75818
297.71537
297.67422
297.63472
297.59689
297.5607
297.52619
297.49345
297.46267
297.43419
297.40861
297.38681
297.37012
297.36028
297.35943
297.36989
297.39379
297.4327
297.48645
297.55388
297.62893
297.70943
297.78102
297.85127
297.90146
297.94732
298.01337
298.02057
298.15914
298.13113
298.27349
298.11342
298.29945
297.78093
306.81418
301.26297
299.42004
298.787
298.93389
298.8761
298.9147
298.87822
298.88174
298.86227
298.85496
298.8404
298.82782
298.81306
298.79754
298.78058
298.76213
298.74191
298.71982
298.69573
298.66956
298.64126
298.6108
298.57823
298.54361
298.50709
298.46882
298.42901
298.38791
298.34576
298.30281
298.2593
298.21544
298.17141
298.12733
298.08331
298.03943
297.99574
297.95233
297.90928
297.86671
297.82477
297.78361
297.74341
297.70433
297.6665
297.63003
297.59498
297.56137
297.52921
297.49848
297.46916
297.44124
297.41478
297.38992
297.36693
297.34634
297.32894
297.31598
297.30918
297.31069
297.32293
297.34824
297.38849
297.44392
297.51369
297.59207
297.67666
297.75305
297.82796
297.88192
297.93159
297.99837
298.00835
298.15124
298.11738
298.27331
298.11311
298.30948
297.74088
306.28598
300.23536
298.78473
298.20406
298.39323
298.31243
298.37135
298.33466
298.35169
298.33817
298.34088
298.33464
298.33147
298.32609
298.32033
298.31335
298.30508
298.29532
298.28395
298.27083
298.25586
298.23896
298.22009
298.19926
298.17649
298.15188
298.12556
298.09769
298.06847
298.03812
298.00686
297.9749
297.94243
297.90962
297.87658
297.84341
297.81018
297.77696
297.7438
297.7108
297.67807
297.64574
297.61396
297.58292
297.55277
297.52365
297.49568
297.46891
297.44338
297.41907
297.39596
297.37401
297.35319
297.33348
297.31499
297.29793
297.28273
297.2701
297.26119
297.25769
297.26174
297.27584
297.30252
297.34396
297.40086
297.47275
297.55436
297.64311
297.72457
297.8045
297.86271
297.91624
297.98348
297.99539
298.14194
298.10233
298.27347
298.11399
298.31464
297.69923
305.83191
299.30267
298.24436
297.68275
297.90574
297.80252
297.87971
297.83955
297.8671
297.85666
297.86688
297.86618
297.86994
297.87125
297.87262
297.87306
297.87246
297.87071
297.86769
297.86325
297.85726
297.84963
297.84029
297.82922
297.81641
297.80193
297.78587
297.76837
297.74959
297.72973
297.70898
297.68754
297.66557
297.64322
297.6206
297.59779
297.57485
297.55183
297.52879
297.50579
297.48292
297.46031
297.43811
297.41646
297.39554
297.37546
297.35635
297.33825
297.3212
297.30516
297.29011
297.27596
297.26264
297.25012
297.23841
297.22766
297.2182
297.21068
297.20613
297.20618
297.21295
297.22898
297.25698
297.29944
297.35753
297.43123
297.51584
297.60874
297.6955
297.78086
297.84381
297.90132
297.96802
297.98173
298.13089
298.08606
298.27386
298.11515
298.31398
297.65563
305.42636
298.38306
297.78834
297.20983