/*--------------------------------*- C++ -*----------------------------------*\
  =========                 |
  \\      /  F ield         | OpenFOAM: The Open Source CFD Toolbox
   \\    /   O peration     | Website:  https://openfoam.org
    \\  /    A nd           | Version:  12
     \\/     M anipulation  |
\*---------------------------------------------------------------------------*/
FoamFile
{
    format      ascii;
    class       volVectorField;
    location    "0.011";
    object      U;
}
// * * * * * * * * * * * * * * * * * * * * * * * * * * * * * * * * * * * * * //

dimensions      [0 1 -1 0 0 0 0];

internalField   nonuniform List<vector> 
16000
(
(212.67284 -3.1530348e-17 -8.2674246)
(249.88449 0 5.2926824)
(235.97504 0 -7.4838113)
(243.67302 4.9882036e-17 3.7403872)
(238.99873 -4.9235161e-17 -5.8971619)
(241.21457 0 1.7388792)
(239.42689 0 -4.2923467)
(239.94679 8.4271925e-17 -0.021647434)
(239.12809 -8.0063616e-17 -3.1362421)
(239.01728 0 -1.249879)
(238.5129 7.2339787e-17 -2.5429988)
(238.17337 -2.0609547e-16 -1.9607006)
(237.7363 1.3044641e-16 -2.3974455)
(237.31298 -1.2408014e-16 -2.3316068)
(236.86061 1.1772994e-16 -2.4901561)
(236.39362 -3.4920103e-18 -2.5589684)
(235.90745 -3.3172346e-18 -2.6591986)
(235.40323 -9.7890657e-17 -2.7484335)
(234.88062 1.9178966e-16 -2.8391824)
(234.33968 -9.0997344e-17 -2.9274524)
(233.78047 1.7308155e-16 -3.0136034)
(233.20309 -1.6407013e-16 -3.096912)
(232.60774 0 -3.1768478)
(231.99467 1.527125e-16 -3.252792)
(231.36421 -4.1376018e-18 -3.3241106)
(230.71679 -2.6652402e-16 -3.3901305)
(230.0529 1.263218e-16 -3.4501628)
(229.37316 0 -3.5034963)
(228.67824 0 -3.5494119)
(227.96894 2.1934998e-16 -3.5871876)
(227.24615 -2.0437387e-16 -3.6161091)
(226.51087 0 -3.635479)
(225.7642 0 -3.644624)
(225.00735 0 -3.6429082)
(224.24168 5.154581e-18 -3.6297394)
(223.46865 1.5644121e-16 -3.6045761)
(222.68987 -1.4320297e-16 -3.5669359)
(221.90709 -1.4025118e-16 -3.5163968)
(221.12218 1.2417714e-16 -3.4526027)
(220.33713 0 -3.3752672)
(219.55405 -1.1884289e-16 -3.2841751)
(218.77511 1.1216346e-16 -3.1791907)
(218.00253 -2.1258029e-16 -3.0602633)
(217.23857 2.0053772e-16 -2.9274363)
(216.48546 -1.9587173e-16 -2.7808554)
(215.74545 3.5857876e-16 -2.6207754)
(215.02072 5.6489756e-18 -2.4475775)
(214.31348 3.3269074e-19 -2.2617975)
(213.62591 -1.5090226e-16 -2.0641809)
(212.96023 1.427547e-16 -1.8557651)
(212.31871 -1.2605839e-16 -1.6379827)
(211.70371 0 -1.4127648)
(211.11766 7.4925975e-18 -1.1826345)
(210.56313 0 -0.95079229)
(210.04282 6.6675606e-18 -0.72121129)
(209.5595 2.0763349e-16 -0.49873209)
(209.11584 -3.7943047e-16 -0.28913219)
(208.71408 1.0935472e-17 -0.099159078)
(208.35594 1.6857548e-16 0.063650015)
(208.04323 -1.4917841e-16 0.1916554)
(207.77741 1.4052395e-16 0.27807565)
(207.55822 -8.8421393e-18 0.31764132)
(207.38373 0 0.30677505)
(207.25048 0 0.24469926)
(207.15194 -1.1121239e-16 0.13600861)
(207.07962 1.1197194e-16 -0.007729736)
(207.01875 -9.9065073e-17 -0.17303274)
(206.95884 1.9341098e-16 -0.33370573)
(206.87277 -1.8869571e-16 -0.4550444)
(206.74673 8.3640118e-17 -0.50813497)
(206.5586 5.2786391e-18 -0.47365374)
(206.29783 0 -0.34504726)
(205.97578 4.7457872e-18 -0.1402065)
(205.61551 -4.5092752e-18 0.096728632)
(205.25492 0 0.30328382)
(204.89412 -3.3780401e-17 0.44472443)
(204.64045 6.2427176e-17 0.5526939)
(205.1503 -3.1679698e-17 0.83704777)
(203.59262 0 -0.5552239)
(205.52792 0 2.9553496)
(214.08739 0 -11.054594)
(251.53308 -3.7407234e-18 3.2713495)
(236.96583 -1.202157e-16 -10.380971)
(245.15812 1.1084435e-16 1.6713949)
(240.13411 0 -8.7347923)
(242.57781 1.0197523e-16 -0.40011456)
(240.58851 -1.8830643e-16 -7.0124258)
(241.19703 -1.0032294e-19 -2.2822903)
(240.28504 8.4858845e-17 -5.702455)
(240.17588 0 -3.625518)
(239.63156 -1.5327489e-16 -4.9949885)
(239.26394 1.4993262e-16 -4.3801428)
(238.79582 1.425942e-16 -4.8028013)
(238.3391 -2.6249691e-16 -4.7374996)
(237.85326 1.2067207e-16 -4.8755744)
(237.35095 1.1092996e-17 -4.9368174)
(236.82848 1.1600148e-16 -5.0211905)
(236.28667 -1.0331559e-16 -5.0964494)
(235.72532 0 -5.1709113)
(235.1445 0 -5.241869)
(234.54434 5.6999793e-18 -5.3091831)
(233.92505 -1.7882855e-16 -5.372125)
(233.2869 3.3909267e-16 -5.4300343)
(232.63028 -3.1685216e-16 -5.4821972)
(231.95568 1.4321541e-16 -5.5278771)
(231.26366 0 -5.5663177)
(230.55493 1.2489745e-16 -5.596744)
(229.83028 -1.339262e-16 -5.6183802)
(229.09062 0 -5.6304527)
(228.33698 3.5376191e-18 -5.6322042)
(227.57047 -1.3420916e-17 -5.6228999)
(226.79236 0 -5.6018451)
(226.00399 0 -5.5683875)
(225.20684 -1.7125734e-16 -5.5219363)
(224.40249 3.4004331e-16 -5.4619663)
(223.59263 -1.6327956e-16 -5.388026)
(222.77908 -1.5966344e-16 -5.2997458)
(221.96376 1.4612589e-16 -5.1968364)
(221.14869 -1.1254877e-16 -5.0790933)
(220.33597 -2.9126118e-19 -4.9463953)
(219.52777 -2.7439436e-19 -4.7987053)
(218.72633 2.3357554e-16 -4.6360707)
(217.93388 -1.1019551e-16 -4.4586261)
(217.15263 0 -4.266593)
(216.38477 2.0305399e-16 -4.0602823)
(215.63244 1.2004416e-17 -3.8400919)
(214.89771 -5.1010211e-18 -3.6065099)
(214.18259 -1.6504874e-16 -3.3601325)
(213.48908 0 -3.1017072)
(212.81916 -1.4704576e-16 -2.8322106)
(212.17485 -8.9327605e-18 -2.5529536)
(211.55826 2.6094037e-16 -2.2656944)
(210.9716 -1.3047907e-16 -1.972746)
(210.41722 0 -1.6770859)
(209.89766 -2.0446521e-17 -1.3824816)
(209.41565 -2.1190162e-16 -1.0936282)
(208.97411 3.6238079e-16 -0.81628783)
(208.57574 -2.1590173e-16 -0.55741352)
(208.22264 0 -0.3250682)
(207.91649 -1.7126646e-16 -0.12774907)
(207.65867 1.7996789e-16 0.026627489)
(207.4496 2.6752732e-17 0.13117768)
(207.28841 0 0.17991009)
(207.17237 -1.4208532e-16 0.16926622)
(207.09551 7.4643016e-18 0.10080994)
(207.05108 1.1187163e-16 -0.018428597)
(207.03367 -1.9747495e-17 -0.17490518)
(207.01022 9.2937045e-17 -0.3433385)
(206.96823 -1.0511968e-16 -0.49555793)
(206.89985 5.5042579e-18 -0.59759071)
(206.77069 -5.1933908e-18 -0.62261736)
(206.56603 0 -0.54841534)
(206.28724 -4.6356104e-18 -0.38370096)
(205.95001 4.3862651e-18 -0.15965915)
(205.57732 8.2994825e-18 0.052365248)
(205.25545 9.8498431e-19 0.23938131)
(205.16265 0 0.46320407)
(205.26135 3.0161443e-17 0.57810126)
(204.60826 -5.7156938e-17 -0.27706857)
(205.60467 2.5783978e-17 3.0999884)
(215.37702 0 -13.918211)
(253.04511 -1.2305268e-16 1.0510168)
(237.998 2.5088523e-16 -13.362712)
(246.45866 -2.2408153e-16 -0.55876051)
(241.17571 1.1066252e-16 -11.644141)
(243.75504 -3.2771248e-18 -2.7259602)
(241.6406 9.973207e-17 -9.7788843)
(242.27687 -9.4455908e-17 -4.7355787)
(241.30477 -5.6061462e-18 -8.331548)
(241.17335 -5.3228691e-18 -6.1642225)
(240.59491 -1.011128e-17 -7.5440547)
(240.1924 1.3951653e-16 -6.9347877)
(239.69002 -1.4142272e-16 -7.325834)
(239.19601 1.3878913e-16 -7.2673749)
(238.67229 -1.1923073e-16 -7.3837698)
(238.13043 -1.5625901e-17 -7.4367183)
(237.56714 0 -7.5052187)
(236.9832 -1.4191168e-20 -7.5653808)
(236.37849 -2.2726165e-16 -7.6225363)
(235.7532 -3.6006115e-19 -7.6746511)
(235.10755 1.7419402e-16 -7.7212739)
(234.44188 1.7108714e-17 -7.7615923)
(233.75662 -2.1640745e-17 -7.7948262)
(233.05231 0 -7.8201587)
(232.32962 1.0044626e-20 -7.8367584)
(231.58934 -1.6610955e-16 -7.8437864)
(230.83238 1.4840527e-16 -7.8404031)
(230.05978 8.283409e-18 -7.8257782)
(229.27271 0 -7.7991068)
(228.47245 -7.4307755e-18 -7.7596163)
(227.66043 2.9800265e-21 -7.7065828)
(226.83819 -1.9997957e-16 -7.6393435)
(226.00738 2.0139949e-16 -7.5573074)
(225.16976 1.1927501e-17 -7.4599721)
(224.32719 -1.806441e-16 -7.3469281)
(223.48163 1.4908526e-16 -7.2178703)
(222.63513 -1.8164118e-16 -7.0725999)
(221.78982 1.5224339e-16 -6.9110259)
(220.94786 -1.4415197e-16 -6.7331603)
(220.1115 1.3584149e-16 -6.5391167)
(219.28299 1.6058462e-17 -6.3291044)
(218.46456 0 -6.1034201)
(217.65843 2.0035356e-16 -5.862446)
(216.86675 -2.4246389e-16 -5.606641)
(216.09159 0 -5.3365325)
(215.33493 1.7997191e-16 -5.0527069)
(214.59861 -1.578998e-16 -4.755798)
(213.88442 1.7039838e-16 -4.4464929)
(213.19404 -1.8018622e-16 -4.1255629)
(212.52914 0 -3.7939352)
(211.89138 1.7771926e-16 -3.4527961)
(211.2825 -1.3352196e-16 -3.1037069)
(210.70432 0 -2.7487245)
(210.15887 0 -2.390534)
(209.64832 1.2515339e-16 -2.0326088)
(209.17518 -2.0896836e-16 -1.6794022)
(208.74231 1.2264575e-16 -1.336529)
(208.35275 1.846233e-16 -1.0108756)
(208.00907 2.3624619e-19 -0.71058437)
(207.71285 1.8918996e-19 -0.44469484)
(207.46524 -3.2480603e-16 -0.2222967)
(207.2673 8.9635344e-17 -0.052095637)
(207.11933 0 0.057584824)
(207.01938 1.4229794e-16 0.10097299)
(206.9625 -1.6329885e-16 0.07708723)
(206.94215 1.1144926e-16 -0.011128963)
(206.94779 1.3013926e-17 -0.15024104)
(206.96723 -8.6034507e-17 -0.31946945)
(206.98473 1.1535604e-17 -0.49267356)
(206.96522 2.1693878e-17 -0.6358637)
(206.90347 -1.0196296e-16 -0.71206398)
(206.77652 9.5876079e-17 -0.70021938)
(206.57519 -7.2279374e-17 -0.58432548)
(206.30672 1.3612243e-16 -0.39035439)
(206.00797 -5.6130907e-17 -0.1697316)
(205.79817 -6.0591595e-17 0.074928739)
(205.78669 4.9997205e-17 0.3443769)
(205.81237 0 0.40976898)
(205.65562 3.1922052e-18 -0.013047805)
(205.82979 -1.2108509e-17 3.1066624)
(216.51776 0 -16.852584)
(254.42083 0 -1.3057595)
(238.80241 0 -16.477984)
(247.60651 1.0707799e-16 -2.8935157)
(242.05278 -1.2432571e-16 -14.679237)
(244.78254 -2.2143066e-16 -5.1678872)
(242.52934 2.1059347e-16 -12.661331)
(243.19363 -1.2470777e-17 -7.3148085)
(242.15639 5.9397815e-18 -11.069487)
(241.9979 -1.7463755e-16 -8.833281)
(241.38076 1.7097288e-16 -10.203426)
(240.93783 1.0161695e-17 -9.6139429)
(240.39629 -1.5428181e-16 -9.9655039)
(239.85963 1.3705332e-16 -9.9156149)
(239.29284 -1.6423164e-20 -10.009237)
(238.7062 -8.2149969e-18 -10.0521)
(238.09696 0 -10.10332)
(237.46587 -7.420199e-18 -10.146131)
(236.81293 -2.1117915e-16 -10.183521)
(236.13846 2.1324053e-16 -10.2139)
(235.44281 1.2659039e-17 -10.236588)
(234.72647 -1.2001632e-17 -10.250684)
(233.99005 2.1622695e-16 -10.255309)
(233.23429 -1.7224054e-16 -10.249559)
(232.46008 1.0215399e-17 -10.232518)
(231.66844 1.9366034e-16 -10.203283)
(230.86056 -1.2811153e-16 -10.160958)
(230.03777 0 -10.104682)
(229.20154 1.4800713e-16 -10.033637)
(228.35349 -1.2423651e-16 -9.9470649)
(227.49538 2.50365e-16 -9.8442829)
(226.62908 -1.3382893e-17 -9.7247029)
(225.75658 -2.102871e-16 -9.5878417)
(224.87997 1.743977e-16 -9.4333378)
(224.00142 -1.8787066e-16 -9.2609575)
(223.12317 -2.2018303e-20 -9.0706043)
(222.24749 2.0999975e-16 -8.862318)
(221.3767 -3.1691012e-16 -8.6362704)
(220.51312 9.3270518e-17 -8.3927599)
(219.65906 3.5303323e-17 -8.1321984)
(218.8168 -4.9924101e-17 -7.8551018)
(217.98853 0 -7.5620729)
(217.17637 -8.8833375e-17 -7.2537898)
(216.38234 1.3912343e-16 -6.9309884)
(215.60828 -2.1007556e-16 -6.5944464)
(214.85593 1.9735055e-16 -6.2449617)
(214.12685 -2.093582e-16 -5.8833284)
(213.42246 3.9360582e-16 -5.5103277)
(212.74411 -3.0845886e-16 -5.1267493)
(212.09304 3.0931701e-16 -4.7334514)
(211.47051 -1.4516678e-16 -4.3314612)
(210.87781 1.3669251e-16 -3.9220929)
(210.31636 -9.6047991e-17 -3.507072)
(209.78776 3.0123045e-17 -3.0886881)
(209.29384 0 -2.6699901)
(208.83675 0 -2.255041)
(208.41914 0 -1.8491402)
(208.04412 2.3318619e-17 -1.4588886)
(207.71455 0 -1.0921975)
(207.43227 -1.6412244e-16 -0.75832233)
(207.1985 1.9209521e-16 -0.4674782)
(207.01478 -1.0809304e-16 -0.23039418)
(206.88209 -5.9403204e-20 -0.057474874)
(206.79915 2.5276057e-16 0.043982558)
(206.76198 2.9549942e-17 0.069889211)
(206.76582 -1.3860104e-16 0.020415153)
(206.8019 5.1820526e-17 -0.094824608)
(206.85724 -1.458817e-16 -0.25836602)
(206.91664 -4.5548875e-17 -0.44364071)
(206.96475 -6.3975038e-17 -0.61803606)
(206.98153 -5.9940348e-17 -0.7457662)
(206.9494 5.6185743e-17 -0.77924359)
(206.85778 0 -0.7191416)
(206.7083 0 -0.56401855)
(206.5528 -1.5501892e-17 -0.33384048)
(206.50389 0 -0.045599372)
(206.57381 6.8391556e-18 0.22488922)
(206.63527 5.128376e-17 0.29944357)
(206.74164 -7.2222769e-17 0.22174773)
(206.13511 -5.8028577e-20 2.940131)
(217.4893 0 -19.986004)
(255.63799 -8.8517564e-18 -3.7415059)
(239.49946 2.6770699e-16 -19.732621)
(248.52681 -2.5007553e-16 -5.3574788)
(242.72111 2.5514859e-16 -17.8321)
(245.61893 -2.3345318e-16 -7.7618165)
(243.23214 -2.2251941e-16 -15.65032)
(243.90787 2.1065178e-16 -10.051578)
(242.81121 0 -13.911062)
(242.61422 0 -11.652169)
(241.95584 1.8050769e-16 -12.977448)
(241.46545 -1.7100395e-16 -12.426274)
(240.87966 -1.0159992e-17 -12.728899)
(240.29478 2.8891348e-17 -12.687071)
(239.67962 -9.1447827e-18 -12.756141)
(239.04299 3.4677498e-17 -12.785395)
(238.38273 0 -12.816583)
(237.6995 0 -12.838435)
(236.99349 -2.3680592e-16 -12.852336)
(236.26509 2.1002097e-16 -12.85692)
(235.51483 0 -12.85133)
(234.74339 0 -12.834571)
(233.95159 -1.9107619e-16 -12.805644)
(233.14043 3.615904e-16 -12.763551)
(232.31107 -1.7101917e-16 -12.707289)
(231.46486 -2.0263038e-17 -12.635881)
(230.60331 -3.8370057e-17 -12.54839)
(229.72813 -1.4538164e-16 -12.443937)
(228.84117 1.2003276e-16 -12.321718)
(227.94445 0 -12.181028)
(227.04013 -3.0734505e-17 -12.021274)
(226.13047 0 -11.842001)
(225.21786 0 -11.642901)
(224.30474 2.0748627e-16 -11.423829)
(223.39359 -2.1990891e-16 -11.184807)
(222.48693 2.3071819e-17 -10.926029)
(221.58727 -2.1768578e-17 -10.647859)
(220.69707 -4.1137837e-17 -10.350816)
(219.81874 -7.1830538e-20 -10.035565)
(218.9546 6.8377779e-20 -9.7028876)
(218.10688 -6.4604249e-20 -9.3536742)
(217.27764 0 -8.9888863)
(216.46882 -1.2212371e-16 -8.6095431)
(215.68215 1.1466438e-16 -8.2166908)
(214.9192 0 -7.8113782)
(214.18133 -5.0814515e-17 -7.3946267)
(213.4697 1.9103709e-16 -6.96739)
(212.78533 -2.2390794e-16 -6.5305351)
(212.12908 -2.1068809e-16 -6.084849)
(211.50176 1.5792047e-16 -5.6310925)
(210.90411 1.1142363e-16 -5.1700946)
(210.33695 -1.3902416e-16 -4.7028701)
(209.80122 -3.2606067e-17 -4.2307466)
(209.29808 -2.1421347e-16 -3.7555287)
(208.82894 1.1452434e-16 -3.2797212)
(208.39559 -1.0747628e-16 -2.8068302)
(208.0003 1.004718e-16 -2.3416391)
(207.64588 2.355291e-16 -1.8903108)
(207.33528 -1.7607213e-16 -1.4604302)
(207.07081 0 -1.0612477)
(206.85434 -3.8526493e-17 -0.70381209)
(206.6877 -7.2090046e-17 -0.40053953)
(206.57219 1.3474974e-16 -0.16325302)
(206.50747 1.2598379e-16 -0.00073055742)
(206.49065 -2.3541662e-16 0.078097783)
(206.51929 8.2428002e-17 0.07406577)
(206.58577 5.1322251e-17 -0.008886241)
(206.68226 9.5950138e-17 -0.1555617)
(206.79814 1.343446e-16 -0.34240235)
(206.91961 -4.1622261e-20 -0.53713052)
(207.03194 0 -0.70042502)
(207.11927 0 -0.79117258)
(207.16771 -3.4123713e-17 -0.77874103)
(207.17827 9.5750104e-17 -0.64210278)
(207.21299 -8.9542238e-17 -0.40921401)
(207.35032 -8.3747314e-17 -0.10924633)
(207.50975 5.2213379e-17 0.12382627)
(207.61269 0 0.20213694)
(207.82271 4.5516213e-17 0.36812332)
(206.45403 1.8244113e-19 2.6081028)
(218.2637 0 -23.292711)
(256.66265 2.1793527e-20 -6.2562749)
(240.00608 9.1107723e-18 -23.084834)
(249.27481 2.8961816e-16 -7.9615389)
(243.18829 3.2739624e-19 -21.092993)
(246.22706 -5.0795318e-16 -10.512081)
(243.70894 -3.1740753e-19 -18.738548)
(244.3837 4.58097e-16 -12.951585)
(243.23184 -2.1076081e-16 -16.855076)
(242.98689 -1.2499379e-17 -14.621647)
(242.28504 1.187474e-17 -15.866726)
(241.74148 -1.8027522e-16 -15.366932)
(241.10716 1.9205995e-16 -15.612941)
(240.46939 -1.8248445e-16 -15.57523)
(239.80113 3.0739167e-16 -15.617465)
(239.10968 -3.0970375e-16 -15.628536)
(238.39341 1.3803032e-16 -15.636144)
(237.65298 0 -15.632872)
(236.88873 0 -15.618989)
(236.10126 1.4704234e-17 -15.593163)
(235.29133 -2.7871482e-17 -15.554331)
(234.45988 0 -15.501354)
(233.60805 2.0015278e-16 -15.433093)
(232.7372 4.6454019e-19 -15.348433)
(231.84887 -3.5821107e-16 -15.246284)
(230.94484 1.6925498e-16 -15.125614)
(230.02707 2.0028376e-17 -14.985473)
(229.09771 0 -14.825003)
(228.15911 -1.793647e-16 -14.643477)
(227.21376 1.3525565e-16 -14.44031)
(226.26428 -2.2426688e-16 -14.215083)
(225.31338 2.110999e-16 -13.967565)
(224.36386 -2.2844401e-16 -13.697718)
(223.41852 2.1502549e-16 -13.40572)
(222.48016 7.6217101e-17 -13.091954)
(221.55154 0 -12.757009)
(220.63531 0 -12.401673)
(219.73403 4.2482711e-17 -12.026905)
(218.8501 4.0011478e-17 -11.633817)
(217.98574 -3.7668498e-17 -11.223638)
(217.143 3.544793e-17 -10.797683)
(216.32368 6.6855072e-17 -10.357312)
(215.52941 -6.2815767e-17 -9.903912)
(214.76152 3.5407395e-16 -9.4388491)
(214.02116 -2.7693253e-16 -8.9634423)
(213.30919 5.1989678e-17 -8.4789202)
(212.6263 -4.8904782e-17 -7.9863722)
(211.97298 0 -7.4867151)
(211.34956 2.1501198e-16 -6.9806907)
(210.75633 -1.6099537e-16 -6.4689145)
(210.19352 0 -5.9519641)
(209.66144 0 -5.4304964)
(209.16052 1.3254248e-16 -4.9053727)
(208.69146 -6.1895315e-17 -4.3778304)
(208.25528 0 -3.8497213)
(207.85339 -1.6278408e-16 -3.3238312)
(207.48767 1.0127941e-16 -2.8042271)
(207.16052 1.4227131e-16 -2.2964942)
(206.87472 -1.7684762e-16 -1.8078489)
(206.6331 1.6538487e-16 -1.3474007)
(206.43837 -1.5419775e-16 -0.92658146)
(206.29285 1.1097142e-19 -0.55863953)
(206.19832 0 -0.25629358)
(206.15543 6.259516e-17 -0.030808232)
(206.16338 -2.9205703e-16 0.1077046)
(206.22236 1.6328294e-16 0.1542129)
(206.32777 0 0.11260555)
(206.47485 -1.4168917e-16 -0.0060272735)
(206.65838 8.8102584e-17 -0.18077589)
(206.86897 1.2301588e-16 -0.37990892)
(207.09568 -1.0081315e-19 -0.56140604)
(207.3228 -7.1181946e-17 -0.67904245)
(207.52911 9.9389716e-17 -0.69885862)
(207.71519 -1.5440341e-16 -0.60445875)
(207.94869 8.632388e-17 -0.38499909)
(208.26371 2.6881232e-17 -0.12068895)
(208.49883 4.9910134e-17 0.029166068)
(208.60492 0 0.08539862)
(208.81747 -4.3177886e-17 0.37207582)
(206.70099 2.0226587e-17 2.1108518)
(218.81172 0 -26.767216)
(257.47617 9.851732e-18 -8.876671)
(240.30858 -3.070857e-16 -26.559531)
(249.83403 2.5077983e-16 -10.706846)
(243.47813 2.5755812e-16 -24.454232)
(246.584 -5.0234215e-16 -13.417937)
(243.92132 2.3105434e-16 -21.910154)
(244.59149 2.3391029e-16 -16.017453)
(243.39362 -2.2167339e-16 -19.89011)
(243.09346 3.9454581e-17 -17.732515)
(242.34712 0 -18.861848)
(241.74497 0 -18.421906)
(241.0573 -2.2441325e-17 -18.60697)
(240.361 -1.7034599e-16 -18.568539)
(239.63353 1.4097909e-16 -18.582748)
(238.88082 1.912073e-17 -18.571711)
(238.10186 -3.624427e-17 -18.55246)
(237.29743 3.092542e-16 -18.519963)
(236.46816 -2.2727117e-16 -18.473697)
(235.61497 2.4665644e-16 -18.412221)
(234.73898 -2.0382927e-16 -18.334268)
(233.84154 2.7631224e-17 -18.238545)
(232.92423 1.5699216e-16 -18.123785)
(231.9889 -1.9746202e-16 -17.988786)
(231.0376 0 -17.832412)
(230.07264 0 -17.653636)
(229.09655 0 -17.45156)
(228.11206 -1.9773002e-16 -17.225445)
(227.12205 1.8627264e-16 -16.974732)
(226.12956 -3.5287599e-17 -16.699067)
(225.13773 0 -16.398328)
(224.14974 -2.8287517e-16 -16.072634)
(223.16878 2.3643108e-16 -15.722352)
(222.19798 -5.5911337e-17 -15.348107)
(221.24039 1.5812246e-16 -14.950774)
(220.29891 -4.9131542e-17 -14.531457)
(219.37626 -1.8637451e-16 -14.091475)
(218.47493 2.1985067e-16 -13.632321)
(217.59717 -1.6504495e-16 -13.155628)
(216.74495 7.7840287e-17 -12.663122)
(215.91997 -7.3060617e-17 -12.156578)
(215.12363 1.3728711e-16 -11.637772)
(214.35706 -6.4347451e-17 -11.108449)
(213.62107 -2.4216239e-16 -10.570275)
(212.91623 5.1059845e-16 -10.024804)
(212.24283 -2.1263231e-16 -9.4734223)
(211.60094 -1.498719e-16 -8.9172984)
(210.99047 9.3153948e-17 -8.3573334)
(210.41121 8.7634483e-17 -7.7941578)
(209.86287 -1.6399154e-16 -7.2281751)
(209.34518 1.5316328e-16 -6.6596496)
(208.85795 0 -6.088816)
(208.40115 1.3413803e-16 -5.5160034)
(207.97503 -1.8779945e-16 -4.941808)
(207.58025 5.8537861e-17 -4.3673375)
(207.21789 5.4562843e-17 -3.7945399)
(206.88953 0 -3.2266139)
(206.59725 0 -2.6683858)
(206.34365 0 -2.126528)
(206.13188 0 -1.6098264)
(205.9653 0 -1.1295886)
(205.84714 -7.167125e-17 -0.69905724)
(205.78024 0 -0.33182642)
(205.76646 -1.0430226e-19 -0.041387847)
(205.80796 2.3130069e-16 0.16035107)
(205.90699 -2.1511303e-16 0.26609873)
(206.06265 -9.999506e-17 0.27597798)
(206.27435 -1.8577221e-16 0.19827344)
(206.53972 2.5925874e-16 0.051367152)
(206.85336 1.7442023e-19 -0.13483912)
(207.20573 7.4574957e-17 -0.31833962)
(207.57728 0 -0.45335766)
(207.93738 0 -0.50550737)
(208.28253 0 -0.44686459)
(208.68024 -1.1086651e-16 -0.2686134)
(209.1256 0 -0.096989985)
(209.39742 -9.5451713e-17 -0.077802905)
(209.47461 1.3257068e-16 -0.069351269)
(209.58789 8.2026809e-17 0.20561399)
(206.83576 -1.9081559e-17 1.4559892)
(219.1257 0 -30.41682)
(258.07665 0 -11.603732)
(240.40388 3.2307e-16 -30.163001)
(250.20045 1.9377413e-17 -13.607733)
(243.56976 -2.7035909e-16 -27.919098)
(246.71942 0 -16.497078)
(243.96397 1.6199601e-17 -25.162161)
(244.64879 -3.0701551e-17 -19.239901)
(243.30849 0 -22.992898)
(242.92997 1.9351786e-16 -20.963746)
(242.13319 -4.1896139e-16 -21.953861)
(241.46275 1.9838165e-16 -21.581008)
(240.71258 2.3542802e-17 -21.706901)
(239.94837 0 -21.663098)
(239.15218 2.1128171e-17 -21.648459)
(238.32879 -3.4075817e-16 -21.611053)
(237.47785 7.5135759e-17 -21.560544)
(236.60042 2.5111644e-16 -21.493289)
(235.69753 2.3846287e-16 -21.408262)
(234.77054 -2.572247e-16 -21.303901)
(233.82107 0 -21.178774)
(232.851 -2.8859121e-16 -21.031477)
(231.86251 2.4503803e-16 -20.860669)
(230.85805 -2.0651868e-16 -20.665128)
(229.84033 1.9465093e-16 -20.443758)
(228.81233 -1.8445535e-16 -20.195629)
(227.77722 3.4796332e-16 -19.920018)
(226.73839 -1.6419204e-16 -19.616421)
(225.69936 1.5528239e-16 -19.284599)
(224.66374 -2.9274135e-16 -18.924582)
(223.63517 1.3778275e-16 -18.5367)
(222.61726 1.3011923e-16 -18.121588)
(221.61355 -2.4548641e-16 -17.680176)
(220.62741 5.700238e-17 -17.21369)
(219.66198 -5.7305942e-19 -16.723636)
(218.72017 2.5537646e-16 -16.211749)
(217.80456 0 -15.67998)
(216.9174 1.8440175e-19 -15.13043)
(216.06058 0 -14.5653)
(215.23561 -7.9708872e-17 -13.986833)
(214.44365 -1.4979775e-16 -13.397258)
(213.68551 7.0307363e-17 -12.798737)
(212.96164 0 -12.193324)
(212.27221 -6.1959832e-17 -11.582923)
(211.61705 2.9004006e-16 -10.969242)
(210.99579 -3.255753e-16 -10.353739)
(210.40785 -3.0510474e-16 -9.7375617)
(209.85252 2.8484104e-16 -9.1215022)
(209.329 -1.7777421e-16 -8.5059893)
(208.83653 0 -7.8911365)
(208.37434 0 -7.2768253)
(207.94181 7.255694e-17 -6.6628055)
(207.53854 6.7716327e-17 -6.0488124)
(207.16445 1.2621602e-16 -5.4347351)
(206.81989 -5.8814071e-17 -4.8208717)
(206.50574 -1.0961043e-16 -4.2082648)
(206.22338 -2.0457325e-16 -3.5991495)
(205.97478 -9.5556192e-17 -2.9973884)
(205.76253 1.770724e-16 -2.4087927)
(205.58995 0 -1.8414762)
(205.46089 -7.6735697e-17 -1.3061751)
(205.37964 -1.4264495e-16 -0.81579673)
(205.35056 1.3249508e-16 -0.38474587)
(205.37733 6.1443362e-17 -0.027880856)
(205.46445 5.7175845e-17 0.24202002)
(205.61646 0 0.41442807)
(205.83473 1.9675437e-16 0.48664989)
(206.12253 1.8244629e-16 0.46386116)
(206.47843 -2.5346481e-16 0.36033409)
(206.89834 7.8607312e-17 0.20338941)
(207.37071 -7.2389356e-17 0.031873476)
(207.86742 3.4114898e-19 -0.11265008)
(208.34571 2.4898139e-16 -0.19686391)
(208.79983 -2.3057895e-16 -0.18553349)
(209.29487 5.3604334e-17 -0.082893732)
(209.79758 1.4822166e-16 -0.062145975)
(210.07404 -4.56404e-17 -0.20831629)
(210.12658 -4.2196786e-17 -0.26020008)
(210.12797 0 -0.10124075)
(206.84977 3.6653973e-17 0.6754962)
(219.21581 3.9280064e-16 -34.252106)
(258.47097 5.3347525e-19 -14.445974)
(240.27484 -3.6009943e-16 -33.913489)
(250.37124 0 -16.671059)
(243.39417 0 -31.462452)
(246.54791 -2.6866577e-16 -19.749977)
(243.68007 2.7178308e-16 -28.467915)
(244.2124 6.4457494e-17 -22.617703)
(242.92648 -2.4463449e-16 -26.188251)
(242.47556 2.3139082e-16 -24.334099)
(241.6178 -2.4728209e-16 -25.16497)
(240.86629 2.0784358e-16 -24.855733)
(240.04148 -4.9305451e-17 -24.922783)
(239.19761 -4.675012e-17 -24.864609)
(238.32109 -1.7715647e-16 -24.816591)
(237.41586 1.6733041e-16 -24.745455)
(236.48225 -3.5731921e-16 -24.656034)
(235.52171 6.0062089e-16 -24.54539)
(234.53583 -2.8378452e-16 -24.412113)
(233.52656 -2.6924502e-16 -24.254511)
(232.49615 2.539064e-16 -24.071026)
(231.44721 -3.0227771e-17 -23.860198)
(230.38265 -2.2758611e-16 -23.620689)
(229.30568 2.1439193e-16 -23.351358)
(228.21981 2.539489e-16 -23.051267)
(227.12879 -1.4320262e-16 -22.719733)
(226.03657 0 -22.356365)
(224.94724 2.5606648e-16 -21.961083)
(223.86496 -3.2161956e-16 -21.534153)
(222.79389 1.1317315e-16 -21.076193)
(221.73814 -2.8608648e-16 -20.588184)
(220.70164 2.015531e-16 -20.071464)
(219.68811 -6.3502103e-17 -19.527707)
(218.70096 2.3864595e-16 -18.958897)
(217.74325 -2.2384785e-16 -18.367294)
(216.81763 -2.1096461e-16 -17.755376)
(215.92629 1.9772274e-16 -17.125786)
(215.07099 -4.6376984e-17 -16.481267)
(214.25299 0 -15.824586)
(213.47313 8.2051126e-17 -15.158467)
(212.73178 -7.6591537e-17 -14.485534)
(212.02897 0 -13.808245)
(211.36434 1.3485847e-16 -13.128862)
(210.73722 -6.306715e-17 -12.449405)
(210.1467 -1.7690294e-16 -11.771612)
(209.59166 5.5171372e-16 -11.096878)
(209.07086 -2.0652932e-16 -10.426201)
(208.58299 9.6379254e-17 -9.760142)
(208.12679 -2.7015245e-16 -9.0988231)
(207.70103 -2.487808e-19 -8.4419827)
(207.3046 1.5661578e-16 -7.7890531)
(206.93659 -1.4614138e-16 -7.1392449)
(206.59635 -6.8019665e-17 -6.4916491)
(206.28365 -6.3363476e-17 -5.8454037)
(205.99869 -1.1839032e-16 -5.199959)
(205.74224 2.1965228e-16 -4.5554132)
(205.51564 0 -3.9129669)
(205.32096 9.4976085e-17 -3.2753672)
(205.16093 -3.5356091e-16 -2.6472423)
(205.03911 2.4585947e-16 -2.03561)
(204.95981 7.6124257e-17 -1.4502952)
(204.92813 1.4144784e-16 -0.90367883)
(204.94981 1.3142994e-16 -0.4104143)
(205.03029 -1.2155748e-16 0.014059144)
(205.17553 -1.1267431e-16 0.35630895)
(205.3912 -3.1301807e-16 0.60230055)
(205.68159 1.0820683e-19 0.74597983)
(206.04813 -8.9346555e-17 0.79011558)
(206.48982 0 0.74305984)
(207.00036 -2.2905104e-16 0.62726508)
(207.56231 7.0832465e-17 0.47591938)
(208.13636 0 0.32331642)
(208.67133 1.2054291e-16 0.20085418)
(209.16558 0 0.148475)
(209.68254 1.0276005e-16 0.14002006)
(210.17812 -1.4240009e-16 -0.035988915)
(210.45427 1.312159e-16 -0.3581935)
(210.53519 -8.05148e-17 -0.46466601)
(210.4519 7.416459e-17 -0.49479982)
(206.72111 0 -0.18764491)
(219.07628 -4.1264348e-16 -38.280176)
(258.64904 3.647707e-16 -17.421856)
(239.88041 -3.3406994e-16 -37.841595)
(250.29187 3.3226567e-16 -19.911421)
(242.91853 3.1812756e-16 -35.066859)
(246.11522 -1.8095994e-17 -23.183055)
(243.13693 -2.8483786e-16 -31.848859)
(243.6141 -2.7037779e-16 -26.181842)
(242.24716 2.8777292e-16 -29.499216)
(241.68803 0 -27.84868)
(240.75829 2.8713257e-17 -28.505207)
(239.91267 0 -28.247582)
(239.00022 -1.2912246e-16 -28.255482)
(238.06415 2.4380685e-16 -28.171393)
(237.09495 0 -28.082264)
(236.0961 0 -27.967175)
(235.0687 0 -27.827946)
(234.01483 3.9257116e-17 -27.661924)
(232.9368 0 -27.467421)
(231.83735 -2.4552185e-16 -27.24266)
(230.7196 3.3080104e-16 -26.98603)
(229.58705 1.2516633e-16 -26.696122)
(228.44354 1.7747211e-16 -26.371734)
(227.29324 -2.787573e-16 -26.011962)
(226.14057 -5.2532409e-17 -25.61622)
(224.99018 -2.4858178e-16 -25.184283)
(223.84682 1.8708831e-16 -24.716325)
(222.71529 -2.2095966e-16 -24.21294)
(221.60035 8.2676643e-17 -23.675144)
(220.50662 7.8161523e-17 -23.104388)
(219.43846 0 -22.502534)
(218.39994 2.7802035e-16 -21.871822)
(217.39471 -2.6110595e-16 -21.214847)
(216.42592 0 -20.534484)
(215.49623 -2.30821e-16 -19.833847)
(214.60769 2.1619009e-16 -19.116204)
(213.76181 -1.0187331e-16 -18.3849)
(212.95951 1.9073731e-16 -17.64328)
(212.20114 -2.679824e-16 -16.894602)
(211.48659 1.3251123e-19 -16.14196)
(210.81527 -1.5656772e-16 -15.388229)
(210.18624 -7.3285749e-17 -14.636013)
(209.59821 -1.3755017e-16 -13.887609)
(209.04963 2.5635326e-16 -13.144986)
(208.5388 -1.1964203e-16 -12.409733)
(208.0639 0 -11.683018)
(207.62308 -3.708817e-19 -10.965534)
(207.21458 9.7333023e-17 -10.257473)
(206.83675 0 -9.5585468)
(206.4881 8.4699415e-17 -8.8680379)
(206.16733 7.9221803e-17 -8.1848731)
(205.87342 -7.3463398e-17 -7.5076866)
(205.60569 2.7369481e-16 -6.834903)
(205.36391 -2.543728e-16 -6.164898)
(205.14837 -1.1831694e-16 -5.4962723)
(204.95985 -1.0991943e-16 -4.828171)
(204.7998 1.0206809e-16 -4.1606611)
(204.6705 1.8947277e-16 -3.4953151)
(204.57487 -3.5133749e-16 -2.8354067)
(204.51677 4.0720114e-16 -2.186542)
(204.50078 -1.5092473e-16 -1.5573224)
(204.53234 1.3980451e-16 -0.95913629)
(204.61773 -1.2945814e-16 -0.40630741)
(204.76363 2.3968283e-16 0.085324776)
(204.97652 -3.3256384e-16 0.50125013)
(205.26004 2.0503241e-16 0.82652844)
(205.61899 -5.1149643e-20 1.0490234)
(206.05258 8.7470087e-17 1.1663523)
(206.55703 0 1.1832549)
(207.12103 0 1.1145867)
(207.71919 0 0.98520687)
(208.30331 -1.2640629e-16 0.82161494)
(208.8227 1.9124884e-19 0.65455458)
(209.28899 0 0.52418025)
(209.76763 0 0.37442229)
(210.21615 9.1225028e-17 -0.025656994)
(210.52722 -1.6758254e-16 -0.50194825)
(210.70822 0 -0.63925051)
(210.54166 0 -0.89565804)
(206.43846 -1.3124148e-16 -1.0965894)
(218.67727 2.7838917e-17 -42.508619)
(258.5755 -7.8979385e-16 -20.551746)
(239.19564 3.4953453e-16 -41.908313)
(249.67734 -2.1839925e-17 -23.329028)
(242.11917 3.7498308e-16 -38.785393)
(245.34596 -3.5364034e-16 -26.837076)
(242.27985 0 -35.346596)
(242.62555 -3.1850147e-16 -29.93726)
(241.20591 2.3413827e-16 -32.925717)
(240.52322 2.2236642e-16 -31.501445)
(239.50794 -2.4002641e-16 -31.978189)
(238.55414 0 -31.752959)
(237.53968 1.8699065e-19 -31.699362)
(236.49793 0 -31.575354)
(235.42299 3.8654826e-16 -31.433606)
(234.31834 -7.3021527e-16 -31.260826)
(233.18603 3.4473542e-16 -31.057022)
(232.029 -4.0722528e-17 -30.819649)
(230.85057 -3.8690836e-17 -30.546853)
(229.65454 3.67679e-17 -30.236857)
(228.44515 -6.8672146e-17 -29.888158)
(227.22702 -3.2528444e-16 -29.499553)
(226.00517 3.0615225e-16 -29.07021)
(224.78484 5.7713429e-17 -28.599721)
(223.5715 -2.7347537e-16 -28.088128)
(222.37069 -6.8985277e-19 -27.535982)
(221.18797 2.9045243e-16 -26.944337)
(220.02872 -1.8229422e-16 -26.314766)
(218.89813 -6.0407123e-19 -25.649342)
(217.80101 0 -24.950609)
(216.74172 0 -24.221538)
(215.72406 -7.1716753e-17 -23.465467)
(214.75121 1.3426649e-16 -22.686036)
(213.82568 0 -21.887099)
(212.94927 -1.1865838e-16 -21.072639)
(212.12304 2.2203259e-16 -20.246675)