/*--------------------------------*- C++ -*----------------------------------*\
  =========                 |
  \\      /  F ield         | OpenFOAM: The Open Source CFD Toolbox
   \\    /   O peration     | Website:  https://openfoam.org
    \\  /    A nd           | Version:  12
     \\/     M anipulation  |
\*---------------------------------------------------------------------------*/
FoamFile
{
    format      ascii;
    class       volScalarField;
    location    "1150";
    object      k;
}
// * * * * * * * * * * * * * * * * * * * * * * * * * * * * * * * * * * * * * //

dimensions      [0 2 -2 0 0 0 0];

internalField   nonuniform List<scalar> 
16200
(
445.4307412
511.3464781
466.9238605
423.6719121
367.1322265
280.8057255
158.3834249
46.90139355
5.488015584
0.1921538268
0.002097976066
0.001015394695
0.0009693605879
0.0009440433628
0.000929952721
0.0009216330996
0.0009162407475
0.000913028923
0.0009114048744
0.00091089102
0.0009112409756
0.0009123100218
0.0009140065982
0.0009162789899
0.0009191032185
0.00092247226
0.0009263859822
0.0009308397643
0.0009358114402
0.0009412465903
0.0009470437422
0.0009530461046
0.0009590495115
0.0009648306543
0.0009701856274
0.0009749604981
0.0009790639044
0.000982462647
0.0009851680888
0.0009872199145
0.00098867029
0.0009895684882
0.0009899460819
0.0009897977523
0.0009890339023
0.0009873535497
0.000984986288
0.0009839037811
0.0009834781855
0.0009833399478
0.0009833350774
0.0009834078232
0.000983548937
0.0009837744333
0.0009841187159
0.0009846362597
0.0009854088482
0.0009865653259
0.0009883196731
0.0009910930869
466.794059
529.5121116
475.8446731
423.2252424
354.7109576
253.023955
120.8198567
27.44169503
2.258773058
0.05138750426
0.001163500341
0.0009979922002
0.0009567811883
0.0009337205176
0.0009209297832
0.0009134963635
0.0009087657872
0.0009060734487
0.0009048873739
0.0009047640661
0.0009054813439
0.0009069133819
0.0009089837489
0.0009116530167
0.0009149067902
0.0009187443297
0.0009231670542
0.0009281649262
0.0009337006508
0.0009396928079
0.0009460023301
0.0009524320956
0.0009587479807
0.0009647181649
0.0009701535987
0.0009749308456
0.0009789929895
0.0009823357684
0.0009849894962
0.0009870030633
0.0009884309953
0.0009893217699
0.0009897067558
0.0009895875969
0.000988902453
0.0009874138651
0.0009850629317
0.0009839758537
0.000983553594
0.0009834224768
0.000983425976
0.0009835068074
0.0009836546879
0.0009838847527
0.0009842306776
0.0009847462314
0.0009855134648
0.0009866631126
0.0009884177114
0.0009912323954
487.6721951
545.7369384
482.1140221
419.1777812
336.9265431
219.59261
84.84426099
14.23549754
0.7862616047
0.01170141424
0.001062085183
0.000982889399
0.0009455377927
0.0009245797035
0.0009130243958
0.0009064305548
0.0009023401404
0.0009001606099
0.0008994156226
0.0008996944954
0.0009007985541
0.0009026203118
0.0009050983235
0.0009082052798
0.0009119356119
0.0009162927503
0.000921275382
0.0009268608355
0.0009329860589
0.0009395297563
0.0009463044944
0.0009530701027
0.0009595705393
0.0009655810041
0.0009709438407
0.0009755786307
0.0009794699058
0.0009826449145
0.0009851528857
0.0009870506228
0.0009883931475
0.0009892258079
0.0009895764519
0.0009894479622
0.0009887971687
0.0009874524307
0.0009851394452
0.0009840524322
0.0009836330199
0.0009835070911
0.0009835169935
0.0009836044004
0.0009837581295
0.0009839924759
0.0009843403312
0.0009848547705
0.0009856178536
0.0009867619759
0.0009885170904
0.0009913693398
507.0573237
558.6216663
484.8696689
410.5409721
312.9986879
180.8736885
54.16308047
6.517283047
0.2348341481
0.002675546317
0.001031666847
0.0009695239429
0.0009357229988
0.0009167518426
0.0009063785665
0.0009005816103
0.0008971097969
0.0008954348736
0.0008951320525
0.0008958227026
0.000897331212
0.0008995677222
0.0009024850411
0.0009060665722
0.0009103128381
0.0009152267521
0.000920797038
0.000926978111
0.0009336684631
0.0009406956074
0.0009478204626
0.0009547690364
0.0009612825249
0.0009671641257
0.0009723029187
0.0009766685357
0.000980287287
0.0009832146889
0.000985514684
0.0009872481562
0.000988467553
0.0009892125892
0.0009895049921
0.0009893445865
0.0009886976113
0.0009874324469
0.0009851934423
0.0009841195832
0.0009837075644
0.0009835880157
0.0009836043686
0.000983698173
0.0009838577251
0.0009840966473
0.0009844471121
0.0009849615419
0.0009857218946
0.0009868619867
0.0009886183036
0.0009915054349
524.5614815
568.4827225
484.2302323
397.8180769
284.4808232
140.2683306
31.56936005
2.744517396
0.06443099036
0.001271617974
0.001012809472
0.0009579644656
0.0009274496123
0.0009103521873
0.0009011116689
0.0008960770918
0.0008932090689
0.0008920363534
0.000892181526
0.0008932974999
0.0008952313913
0.0008979101217
0.0009012993648
0.0009053906527
0.0009101862871
0.0009156820601
0.0009218471106
0.0009286002389
0.00093578852
0.0009431816813
0.0009504952388
0.0009574403893
0.0009637796474
0.0009693638734
0.0009741390373
0.0009781260208
0.0009813887352
0.0009840050466
0.0009860482144
0.000987579152
0.000988644969
0.0009892778764
0.0009894918286
0.0009892808733
0.0009886149855
0.0009873830163
0.0009852349533
0.0009841824126
0.0009837801126
0.0009836670775
0.000983689378
0.0009837890783
0.0009839542108
0.000984197834
0.0009845514458
0.0009850668405
0.0009858257835
0.0009869632946
0.0009887215464
0.000991640753
539.6445721
575.4202084
480.144016
380.0342777
250.0290773
100.9517133
17.78426689
1.105056669
0.01782541923
0.001117276764
0.000997399318
0.0009482507286
0.0009207851798
0.0009054533393
0.0008972952352
0.0008929893772
0.0008907101952
0.0008900373928
0.0008906369148
0.0008921925922
0.0008945731997
0.0008977205196
0.0009016103862
0.0009062384229
0.0009116026775
0.0009176829529
0.0009244166308
0.0009316732609
0.0009392393758
0.0009468299864
0.0009541330733
0.0009608713986
0.0009668528857
0.000971990182
0.0009762891188
0.0009798171028
0.0009826677567
0.0009849335717
0.0009866911483
0.0009879974568
0.0009888918992
0.0009893978763
0.0009895206868
0.0009892470153
0.0009885476586
0.0009873317982
0.0009852617306
0.0009842392224
0.0009838495752
0.0009837436714
0.0009837717585
0.0009838770779
0.0009840476823
0.000984296196
0.0009846535087
0.0009851708197
0.0009859296486
0.0009870660207
0.0009888270396
0.0009917756807
552.1166254
579.793554
472.833036
356.2583581
209.3188161
67.33931494
9.444237436
0.4351337374
0.005243348642
0.00107310145
0.0009843171047
0.0009403018816
0.0009156728251
0.0009020093776
0.0008948907487
0.0008912906496
0.0008895948155
0.0008894281721
0.0008904954682
0.0008925102461
0.0008953612569
0.0008990027685
0.0009034174037
0.0009085996038
0.0009145350608
0.0009211761351
0.00092841477
0.0009360601568
0.0009438376524
0.0009514224939
0.0009585018887
0.000964837809
0.0009703020591
0.0009748749568
0.000978618167
0.0009816367059
0.000984044351
0.0009859403808
0.0009873993361
0.0009884710236
0.000989185473
0.000989556591
0.0009895807795
0.0009892365142
0.0009884928482
0.000987278506
0.0009852768716
0.0009842910613
0.0009839163458
0.0009838180396
0.000983851758
0.000983962455
0.0009841384448
0.0009843920349
0.000984753573
0.0009852736993
0.0009860336532
0.0009871702873
0.0009889349345
0.0009919104117
561.7743612
581.5400016
461.961849
327.2726512
165.6592389
40.44431709
4.729660129
0.1792848128
0.002211430453
0.001049528606
0.0009733879269
0.0009340398623
0.0009120441559
0.0008999572736
0.0008938384539
0.0008909269576
0.0008898125598
0.0008901602297
0.0008917091812
0.0008942017021
0.0008975447037
0.0009017018818
0.0009066576648
0.0009123976324
0.0009188843266
0.0009260294165
0.0009336671539
0.0009415422635
0.0009493298325
0.0009566907002
0.0009633414692
0.0009691063496
0.0009739307083
0.0009778601285
0.0009810027884
0.0009834902233
0.0009854467074
0.0009869713183
0.000988132198
0.0009889697015
0.0009895035391
0.0009897379762
0.0009896607732
0.0009892419769
0.0009884467349
0.0009872217149
0.0009852819516
0.0009843381535
0.0009839803305
0.0009838901154
0.0009839294208
0.0009840453569
0.0009842267143
0.0009844855967
0.0009848518798
0.0009853756855
0.0009861379552
0.0009872762088
0.0009890453591
0.000992045144
568.4932109
580.2879668
445.4903488
291.6145628
122.6335616
23.76599049
2.303344287
0.07825589227
0.001605657443
0.001031763841
0.0009644530627
0.0009293665627
0.0009098173558
0.0008992188303
0.0008940583296
0.0008918184528
0.0008912828912
0.0008921524291
0.0008941966217
0.0008971850012
0.0009010394006
0.0009057279018
0.0009112294527
0.0009175109521
0.000924499585
0.0009320538351
0.0009399432218
0.0009478542501
0.0009554339134
0.0009623596641
0.0009684046927
0.0009734697026
0.0009775738405
0.0009808189753
0.0009833475485
0.0009853062834
0.0009868214003
0.0009879862448
0.000988859511
0.0009894707786
0.0009898291467
0.0009899295184
0.0009897516141
0.0009892573145
0.0009884061385
0.0009871601891
0.0009852793304
0.0009843811635
0.0009840416726
0.0009839599565
0.0009840048546
0.0009841259631
0.0009843127233
0.0009845771373
0.0009849486782
0.000985476993
0.0009862427179
0.0009873838948
0.0009891584078
0.0009921800218
572.631737
576.317649
423.0793088
248.7916143
83.4911507
13.56738826
1.107719645
0.03658837198
0.001425134745
0.001017078001
0.0009573183378
0.0009261380104
0.0009088676566
0.000899678301
0.0008954393474
0.0008938605833
0.0008939064079
0.0008953092781
0.00089786439
0.000901365771
0.0009057454334
0.0009109694811
0.0009170029268
0.0009237832083
0.0009311900309
0.0009390194947
0.0009469779172
0.0009547112068
0.000961868306
0.000968173719
0.0009734764388
0.0009777576443
0.0009811025474
0.0009836563292
0.0009855827634
0.0009870335842
0.0009881301542
0.0009889561809
0.000989559096
0.0009899572142
0.0009901492485
0.0009901213167
0.0009898459074
0.0009892773411
0.000988368249
0.0009870926449
0.0009852710367
0.0009844206668
0.0009841004919
0.0009840276088
0.0009840781545
0.0009842044382
0.0009843966903
0.000984666902
0.0009850442108
0.0009855778344
0.0009863481038
0.0009874934493
0.000989274152
0.0009923151631
574.3902348
569.6753036
394.9087138
201.5212168
52.01333918
7.390024105
0.5326093814
0.01859004641
0.001345545706
0.001004878044
0.0009518394961
0.0009242374593
0.0009090898618
0.0009012365281
0.000897885844
0.000896962147
0.0008975940738
0.0008995412464
0.0009026194133
0.0009066436833
0.0009115508366
0.000917297904
0.0009238264431
0.0009310326827
0.0009387381612
0.0009466739004
0.0009544954469
0.0009618355081
0.0009683773021
0.0009739164765
0.0009783864859
0.0009818436498
0.0009844262437
0.0009863084037
0.000987663336
0.0009886395658
0.0009893487378
0.0009898625431
0.0009902163836
0.0009904174655
0.0009904547089
0.0009903062031
0.0009899381052
0.0009892979975
0.0009883308445
0.0009870179808
0.0009852589667
0.0009844572714
0.0009841569642
0.0009840931591
0.0009841494368
0.0009842809547
0.0009844788338
0.0009847551327
0.0009851387171
0.0009856784203
0.0009864542737
0.00098760497
0.0009893926399
0.0009924506549
573.8343282
559.7216178
360.2788808
153.8083889
32.36487087
4.003539918
0.2634102993
0.01006971413
0.001251503051
0.0009948519503
0.0009478724628
0.0009235571135
0.0009103907157
0.0009038060163
0.0009013117227
0.0009010372951
0.0009022574571
0.0009047549313
0.0009083613511
0.0009129090083
0.0009183329231
0.0009245723387
0.0009315340185
0.0009390613481
0.0009469115948
0.0009547580061
0.0009622289305
0.0009689764967
0.0009747465066
0.0009794196565
0.0009830120339
0.0009856429836
0.0009874884763
0.0009887379491
0.0009895642072
0.0009901065746
0.0009904639386
0.0009906948708
0.0009908227705
0.0009908443426
0.0009907395331
0.0009904792446
0.0009900242105
0.0009893162012
0.0009882922254
0.0009869352908
0.0009852446941
0.0009844915255
0.0009842112779
0.000984156715
0.0009842188309
0.000984355688
0.0009845593686
0.000984842065
0.0009852324302
0.0009857789571
0.0009865613847
0.0009877185473
0.0009895138995
0.0009925865591
571.1093294
545.6017044
317.0838096
109.0738118
20.52872638
2.22287165
0.1375790307
0.006073779266
0.001174538606
0.0009867773192
0.0009453019481
0.0009240023823
0.0009126820109
0.0009072988583
0.0009056271961
0.000905994349
0.0009078022095
0.0009108525081
0.0009149875331
0.0009200510378
0.0009259676164
0.000932647825
0.0009399517105
0.0009476614551
0.0009554728058
0.0009630202375
0.0009699362663
0.0009759238079
0.0009808104304
0.0009845644957
0.000987274547
0.0009891071994
0.0009902608785
0.0009909287194
0.0009912757733
0.0009914282939
0.0009914708941
0.0009914488891
0.0009913742524
0.0009912340691
0.0009910002425
0.0009906373421
0.000990101538
0.0009893297323
0.0009882511705
0.0009868438985
0.0009852294919
0.0009845239195
0.0009842636345
0.0009842184074
0.0009842864808
0.0009844288185
0.0009846385077
0.0009849279292
0.0009853255769
0.0009858796455
0.0009866695888
0.0009878342639
0.0009896379403
0.0009927229138
566.5608547
526.1876963
267.1106418
73.66284268
12.03980719
1.210356028
0.0730066801
0.003847580493
0.001113396468
0.0009798696838
0.0009439950486
0.0009254645241
0.0009158641079
0.0009116195884
0.0009107407429
0.0009117456692
0.0009141430425
0.0009177480731
0.0009224072298
0.0009279681585
0.0009343345794
0.0009413767107
0.0009488981421
0.0009566189862
0.0009641877785
0.000971228867
0.000977411825
0.0009825143131
0.0009864533043
0.0009892776192
0.0009911329439
0.0009922166775
0.0009927363178
0.0009928797699
0.0009927994118
0.0009926063551
0.0009923705817
0.00099212468
0.00099187011
0.0009915853537
0.0009912352297
0.0009907787933
0.000990168431
0.0009893370719
0.0009882068505
0.0009867433443
0.0009852143352
0.0009845548729
0.0009843142371
0.0009842783825
0.0009843525419
0.00098450053
0.000984716461
0.0009850129487
0.0009854183765
0.0009859806791
0.0009867790313
0.0009879521937
0.0009897647543
0.0009928597358
560.817391
500.249333
215.3822047
48.60518832
7.28048924
0.6786261621
0.03966011471
0.002579679214
0.001069636871
0.000974560307
0.0009437270002
0.0009278446574
0.0009198544812
0.0009166970685
0.0009165900842
0.0009182332987
0.0009212213013
0.0009253768777
0.0009305439793
0.0009365651669
0.0009433116686
0.0009506029452
0.000958182385
0.0009657178615
0.0009728357366
0.0009791829686
0.0009844938149
0.0009886335001
0.0009916050586
0.0009935238191
0.0009945754321
0.0009949730268
0.0009949225547
0.0009946004978
0.0009941437443
0.0009936475787
0.0009931678019
0.0009927252172
0.0009923118516
0.0009918986347
0.0009914442267
0.0009909029238
0.0009902240144
0.0009893372551
0.0009881587484
0.0009866333588
0.000985199943
0.0009845847392
0.0009843632863
0.0009843367981
0.0009844171778
0.000984571008
0.0009847934344
0.0009850973396
0.0009855110392
0.0009860822427
0.000986889849
0.0009880724007
0.0009898943172
0.0009929970224
554.4337714
464.5061569
167.6127528
34.48979285
4.633044513
0.3914299456
0.02211739201
0.001886236586
0.00104087548
0.0009709369866
0.000944544697
0.0009310763818
0.0009246293255
0.000922508223
0.000923149808
0.00092542528
0.0009289953197
0.0009336837318
0.0009393238538
0.0009457416813
0.0009527647193
0.0009601560636
0.0009676049277
0.0009747477669
0.0009812198849
0.0009867207592
0.0009910668826
0.0009942122024
0.0009962341924
0.0009972975135
0.0009976113519
0.0009973922159
0.0009968368712
0.0009961066154
0.0009953216828
0.0009945618231
0.0009938696125
0.0009932552237
0.0009927023797
0.0009921754742
0.0009916278693
0.0009910097776
0.0009902679798
0.0009893297375
0.0009881065845
0.0009865231561
0.0009851868217
0.000984613812
0.0009844109766
0.0009843938189
0.0009844805575
0.0009846404378
0.0009848696289
0.00098518131
0.0009856037662
0.0009861845122
0.0009870021699
0.0009881949386
0.0009900265916
0.0009931347527
548.3464045
417.4061571
126.419644
23.77022871
2.919903024
0.2260499695
0.01245620485
0.001492730065
0.001021867835
0.0009689060872
0.0009464319629
0.0009351733655
0.0009301595296
0.0009290332303
0.0009303962955
0.0009332910909
0.0009374238679
0.0009426103346
0.0009486634011
0.000955380969
0.0009625401527
0.0009698508796
0.0009769649253
0.0009835155233
0.0009891774631
0.0009937242295
0.0009970604156
0.0009992202681
0.001000339385
0.001000614403
0.001000264039
0.0009994989812
0.0009985019168
0.0009974171477
0.0009963482757
0.0009953604345
0.0009944842015
0.0009937203439
0.0009930453796
0.0009924181075
0.0009917873661
0.0009910998774
0.0009903004151
0.0009893142856
0.0009880497741
0.000986420639
0.0009851753114
0.0009846423339
0.0009844574943
0.0009844496121
0.0009845428517
0.0009847090024
0.000984945239
0.0009852650584
0.0009856967479
0.0009862876523
0.0009871161109
0.0009883198498
0.0009901615312
0.0009932728892
544.0210905
360.7673701
92.73616213
15.90721136
1.81402789
0.1282551766
0.007001232572
0.001266880649
0.001009583156
0.000968342791
0.0009493378594
0.0009401072036
0.0009364305631
0.0009362495846
0.0009383091118
0.0009418025967
0.0009464621583
0.0009520860142
0.000958458269
0.0009653417377
0.0009724640339
0.0009794945998
0.0009860722427
0.0009918566941
0.0009965863634
0.001000119159
0.001002443206
0.001003658465
0.001003941018
0.001003504054
0.001002564998
0.001001322541
0.0009999426666
0.0009985522991
0.000997239207
0.0009960551734
0.0009950201045
0.0009941265638
0.0009933448837
0.000992629114
0.0009919242524
0.0009911740415
0.0009903216697
0.0009892909105
0.0009879875544
0.0009863259118
0.000985165626
0.0009846705061
0.0009845030164
0.000984504345
0.0009846042305
0.0009847768806
0.0009850204519
0.0009853487741
0.0009857901638
0.0009863918163
0.0009872317777
0.0009884471657
0.0009902990787
0.0009934113788
542.4587015
299.329548
65.9522698
10.79424047
1.128269104
0.07145306955
0.004016592415
0.001145565849
0.001002324766
0.0009691747664
0.000953246413
0.000945876257
0.0009434470633
0.0009441567479
0.0009468743605
0.0009509245136
0.0009560457048
0.0009620119931
0.0009685741106
0.000975457951
0.0009823501917
0.0009888999811
0.0009947607444
0.0009996443592
0.001003367197
0.001005871204
0.001007216017
0.001007550112
0.001007073621
0.001006003912
0.001004549527
0.001002893556
0.001001184355
0.0009995320501
0.0009980098256
0.0009966575251
0.0009954856997
0.0009944798301
0.0009936049799
0.0009928111931
0.000992040218
0.0009912332533
0.0009903322557
0.0009892598086
0.0009879193736
0.0009862388646
0.0009851578879
0.0009846984961
0.0009845477102
0.0009845581818
0.0009846648609
0.0009848442459
0.0009850954461
0.0009854326353
0.0009858841812
0.0009864971453
0.0009873492629
0.0009885769054
0.0009904391602
0.0009935501536
543.0863303
238.0746999
50.32533711
7.646898579
0.6956231005
0.03825986421
0.002437104251
0.001083348373
0.0009986002967
0.0009713499881
0.0009581629919
0.0009524907988
0.0009512111429
0.0009527368706
0.0009560510548
0.0009605865515
0.0009660728879
0.0009722549759
0.0009788495509
0.0009855487573
0.0009920141483
0.0009978993821
0.001002898403
0.001006792771
0.001009480614
0.001010979043
0.001011403231
0.001010933256
0.001009779585
0.001008154723
0.001006253597
0.001004242077
0.001002251142
0.001000375281
0.0009986745516
0.0009971782791
0.0009958888956
0.0009947858095
0.0009938296216
0.0009929670123
0.0009921369871
0.0009912785667
0.0009903327726
0.0009892212968
0.0009878448473
0.0009861592489
0.0009851521547
0.0009847264451
0.0009845917332
0.0009846112822
0.000984724905
0.0009849112645
0.0009851703911
0.0009855168093
0.0009859789552
0.000986603767
0.000987468646
0.0009887090744
0.0009905816728
0.0009936891313
543.6535669
182.3538607
39.15012554
5.425666115
0.4133534015
0.01905221856
0.001638262444
0.001052948605
0.0009974626856
0.0009748074789
0.0009640604912
0.0009599197125
0.0009596768756
0.0009619219905
0.0009657532598
0.0009706792199
0.0009764098135
0.0009826578707
0.0009891095507
0.0009954335078
0.001001287947
0.001006356347
0.001010392921
0.001013256494
0.001014921627
0.001015466503
0.001015045063
0.001013854261
0.001012104477
0.001009997394
0.001007711861
0.001005396326
0.001003165373
0.001001099312
0.0009992465739
0.0009976273156
0.0009962369681
0.0009950497578
0.0009940225189
0.0009930991165
0.0009922162432
0.0009913110462
0.0009903238593
0.0009891757681
0.0009877637168
0.0009860867356
0.0009851484403
0.0009847544734
0.0009846352329
0.0009846637994
0.0009847845185
0.0009849780947
0.0009852454463
0.0009856014514
0.0009860746279
0.0009867117953
0.0009875899915
0.000988843662
0.0009907264888
0.0009938282157
544.2198776
144.1541313
30.43404323
3.749864974
0.2269274408
0.00864248534
0.001272866023
0.001039201228
0.0009983045797
0.0009794315177
0.0009708504243
0.0009680781029
0.0009687471197
0.0009716121548
0.0009758688258
0.0009810722513
0.0009869061899
0.0009930532776
0.0009991788295
0.001004945368
0.001010031779
0.001014172294
0.001017192146
0.001019025593
0.001019711996
0.001019374592
0.001018190792
0.001016362798
0.001014093696
0.001011570925
0.001008956457
0.001006382026
0.001003947213
0.001001719694
0.0009997377236
0.0009980135157
0.0009965364884
0.0009952764559
0.0009941870797
0.0009932098744
0.0009922795818
0.0009913317263
0.0009903061588
0.0009891236605
0.0009876758038
0.0009860209537
0.00098514673
0.0009847826847
0.0009846783469
0.000984715879
0.0009848438493
0.0009850448857
0.0009853207603
0.0009856867048
0.0009861713274
0.0009868213294
0.0009877133487
0.0009889806402
0.0009908734788
0.0009939672974
542.6990592
123.960113
24.76017929
2.509616246
0.1104638559
0.003668122647
0.001134077475
0.001033735475
0.001000740674
0.0009850947999
0.0009784348023
0.0009768644847
0.0009783212067
0.0009817038386
0.0009862791452
0.0009916262614
0.0009974032721
0.001003272022
0.001008892498
0.001013941996
0.001018141178
0.001021288007
0.001023280142
0.001024118359
0.001023892129
0.001022754371
0.001020893392
0.001018508249
0.00101579029
0.001012911197
0.001010016389
0.001007222122
0.00100461453
0.001002250176
0.001000158464
0.000998344756
0.0009967933118
0.0009954701915
0.000994326387
0.0009933014533
0.0009923284851
0.0009913415878
0.000990280298
0.000989065439
0.0009875809689
0.0009859615184
0.0009851469916
0.0009848111695
0.0009847212031
0.0009847676584
0.0009849030369
0.000985111777
0.0009853964704
0.0009857726996
0.0009862691677
0.0009869324529
0.0009878387507
0.0009891199646
0.0009910224961
0.0009941062573
537.3615361
115.3620871
20.40762562
1.560162659
0.04379175117
0.001741524492
0.00109253848
0.001032191733
0.001004550998
0.0009917290343
0.0009867220504
0.0009861896614
0.0009883139672
0.0009920935661
0.0009968565546
0.001002190854
0.001007737304
0.001013151671
0.001018106727
0.001022314041
0.001025550293
0.001027681257
0.001028670886
0.001028573564
0.001027513919
0.001025661399
0.00102320577
0.001020337458
0.001017233764
0.001014050445
0.001010917361
0.001007936791
0.001005182977
0.001002702789
0.001000517966
0.0009986279607
0.0009970126099
0.0009956347749
0.0009944432015
0.0009933758132
0.0009923643121
0.0009913415468
0.0009902468758
0.0009890015881
0.0009874790702
0.0009859080483
0.0009851491825
0.0009848400071
0.0009847639198
0.0009848192661
0.0009849622112
0.0009851788976
0.000985472702
0.0009858595526
0.000986368248
0.0009870452335
0.0009879662135
0.0009892615719
0.0009911733593
0.0009942449697
527.1710231
114.4636858
16.62640125
0.8955030635
0.013947941
0.00124912123
0.001081598115
0.001033007415
0.00100966791
0.0009992072671
0.0009956319667
0.0009959797793
0.0009986282877
0.00100265961
0.001007454734
0.001012605033
0.001017747262
0.001022547454
0.001026708207
0.00102998965
0.001032230592
0.001033361096
0.001033400571
0.001032442962
0.00103063472
0.001028151558
0.001025178228
0.001021893376
0.001018459499
0.001015017097
0.001011681835
0.001008543569
0.001005666134
0.001003087976
0.001000824204
0.0009988691751
0.000997198919
0.000995773568
0.0009945399768
0.0009934347131
0.0009923882982
0.0009913324517
0.0009902064584
0.0009889326135
0.0009873699245
0.0009858601771
0.0009851532551
0.0009848692676
0.0009848066055
0.0009848708208
0.000985021492
0.0009852463652
0.0009855495679
0.0009859473664
0.0009864686512
0.0009871597214
0.0009880957344
0.0009894053748
0.0009913258593
0.0009943833025
512.1077343
107.0728821
12.68743257
0.4642947717
0.003853059241
0.001171373357
0.001077378101
0.001035571418
0.001015851393
0.001007435158
0.001005072355
0.001006123744
0.001009132316
0.0010132525
0.001017911654
0.001022707379
0.001027287132
0.001031342725
0.001034619688
0.001036934125
0.001038185763
0.001038360303
0.001037519863
0.001035784853
0.001033312752
0.001030278203
0.001026856942
0.001023214425
0.001019498605
0.001015835883
0.001012329227
0.001009057577
0.001006075704
0.00100341475
0.001001084084
0.0009990736513
0.000997356199
0.000995889522
0.0009946188815
0.0009934797214
0.0009924015598
0.000991315083
0.0009901595755
0.0009888590482
0.0009872532649
0.0009858175592
0.0009851591594
0.0009848990123
0.000984849359
0.0009849224312
0.0009850809888
0.0009853142861
0.0009856271681
0.0009860362289
0.0009865704443
0.000987275949
0.0009882272911
0.0009895512612
0.0009914798108
0.0009945211105
492.3867506
95.6030719
9.000940757
0.2084320349
0.0016932508
0.001155327652
0.001075554249
0.001039556143
0.001022950881
0.001016274655
0.001014902442
0.001016471417
0.001019666354
0.001023707291
0.001028064534
0.001032350523
0.001036237529
0.001039455586
0.001041800695
0.001043145641
0.001043444555
0.001042727617
0.001041087186
0.001038659145
0.001035603985
0.001032090481
0.001028283258
0.001024334363
0.00102037809
0.001016528117
0.001012876208
0.00100949178
0.001006421731
0.001003690864
0.001001303563
0.0009992459406
0.0009974878979
0.0009959852211
0.0009946818279
0.0009935122338
0.000992405104
0.0009912901596
0.0009901067203
0.0009887814698
0.0009871287003
0.000985779872
0.0009851668453
0.0009849292952
0.0009848922697
0.0009849741961
0.0009851408
0.0009853827546
0.0009857055887
0.0009861262126
0.000986673677
0.0009873939302
0.00098836084
0.0009896990997
0.0009916350621
0.0009946582277
468.5855457
81.90542066
5.958462363
0.0904502384
0.001427718904
0.001144651612
0.001075763274
0.001044737814
0.001030786823
0.001025560516
0.001024959055
0.001026857078
0.001030064007
0.001033862917
0.001037767084
0.001041414761
0.00104451432
0.001046841649
0.001048245029
0.001048649363
0.00104805373
0.001046521296
0.001044163812
0.001041124177
0.001037560406
0.001033632628
0.001029493608
0.001025282527
0.001021121215
0.001017112064
0.001013337037
0.00100985727
0.001006712822
0.001003922979
0.001001487778
0.0009993899847
0.0009975970165
0.0009960629268
0.0009947305007
0.0009935334923
0.0009923998407
0.0009912583461
0.0009900483489
0.0009887005237
0.000987008076
0.0009857468173
0.0009851762631
0.0009849601631
0.0009849354176
0.0009850262037
0.0009852010128
0.0009854518524
0.0009857849023
0.0009862173745
0.0009867783814
0.000987513659
0.0009884963159
0.0009898487438
0.0009917914255
0.0009947944772
440.9080943
68.38771433
3.809603963
0.04015675577
0.001319795832
0.001137488818
0.001077678508
0.00105088775
0.001039170372
0.001035117495
0.001035070916
0.001037112238
0.00104016442
0.001043573798
0.001046898816
0.001049813383
0.001052068985
0.001053489811
0.001053973369
0.001053488912
0.001052070159
0.001049802881
0.001046809585
0.001043234161
0.001039228742
0.001034943516
0.001030519532
0.001026084066
0.001021747812
0.001017603257
0.001013723834
0.001010163488
0.00100695632
0.0010041168
0.00100164115
0.0009995091894
0.0009976861609
0.000996124615
0.0009947663828
0.000993544601
0.0009923865931
0.0009912202599
0.0009899848782
0.0009886164329
0.0009868979094
0.0009857181197
0.0009851873635
0.0009849916556
0.0009849788731
0.0009850785317
0.0009852617027
0.0009855216484
0.0009858651665
0.0009863097547
0.0009868845708
0.0009876351091
0.0009886336312
0.0009900000298
0.0009919486746
0.0009949296821
409.1253003
55.42989342
2.432169879
0.01538722882
0.001269787111
0.001133227643
0.001081008067
0.001057786897
0.001047912523
0.001044768124
0.001045067368
0.001047075885
0.001049823082
0.001052719618
0.001055371481
0.001057494661
0.001058886147
0.001059416401
0.001059025889
0.001057719191
0.001055554996
0.001052633135
0.001049080505
0.001045038041
0.001040650163
0.001036056833
0.001031388064
0.001026760397
0.001022274713
0.001018014868
0.001014046891
0.001010418468
0.0010071585
0.001004277221
0.001001767484
0.000999606504
0.0009977576004
0.0009961720171
0.0009947907841
0.0009935465471
0.0009923661117
0.0009911764842
0.0009899167063
0.0009885291376
0.0009867974652
0.0009856935258
0.0009852000984
0.0009850238056
0.0009850226968
0.0009851312466
0.0009853229333
0.0009855921978
0.0009859464237
0.0009864033759
0.0009869922393
0.0009877582326
0.000988772675
0.0009901527752
0.0009921065694
0.0009950636561
373.2364705
43.62455316
1.493671925
0.00652012495
0.001244354158
0.001131310387
0.001085444992
0.001065206857
0.001056820204
0.001054336763
0.001054787365
0.00105660587
0.001058922972
0.001061213988
0.001063133466
0.001064441812
0.001064979963
0.001064659583
0.001063456352
0.001061401381
0.001058570127
0.001055069977
0.001051027857
0.001046579424
0.001041860661
0.001037001656
0.001032122353
0.001027329777
0.001022716241
0.001018358109
0.001014314979
0.001010629081
0.001007324744
0.001004408457
0.001001870077
0.0009996844931
0.0009978133188
0.0009962066557
0.0009948048658
0.0009935402162
0.0009923390846
0.0009911275743
0.0009898442273
0.0009884385356
0.0009867060735
0.000985672801
0.0009852144198
0.0009850566392
0.0009850669401
0.0009851844044
0.0009853847557
0.0009856635423
0.0009860287006
0.0009864982431
0.0009871013607
0.000987882959
0.0009889133124
0.0009903067772
0.0009922648516
0.0009951962059
334.2616156
32.8379219
0.8559300729
0.003227130546
0.001229124304
0.001131281672
0.001090708595
0.001072929467
0.001065707979
0.001063659364
0.001064089074
0.001065587146
0.001067380034
0.001069005855
0.001070167055
0.001070667059
0.001070386468
0.001069271543
0.001067325349
0.001064597845
0.001061174825
0.001057166605
0.0010526974
0.001047896438
0.001042891272
0.001037802834
0.001032742074
0.001027807684
0.001023084535
0.001018642495
0.001014535567
0.001010801195
0.00100745967
0.001004514142
0.001001951782
0.0009997453912
0.0009978550551
0.0009962298757
0.0009948096632
0.0009935264093
0.0009923061502
0.0009910740707
0.0009897678442
0.0009883444501
0.0009866231266
0.0009856557286
0.0009852302794
0.0009850901753
0.0009851116441
0.0009852380488
0.0009854472077
0.000985735708
0.0009861120065
0.0009865943414
0.000987211887
0.0009880091936
0.000989055383
0.0009904618111
0.0009924232462