/*--------------------------------*- C++ -*----------------------------------*\
  =========                 |
  \\      /  F ield         | OpenFOAM: The Open Source CFD Toolbox
   \\    /   O peration     | Website:  https://openfoam.org
    \\  /    A nd           | Version:  12
     \\/     M anipulation  |
\*---------------------------------------------------------------------------*/
FoamFile
{
    format      ascii;
    class       volScalarField;
    location    "1150";
    object      Ma;
}
// * * * * * * * * * * * * * * * * * * * * * * * * * * * * * * * * * * * * * //

dimensions      [];

internalField   nonuniform List<scalar> 
16200
(
0.5344434399
0.6373907834
0.6955183276
0.7416355534
0.7849949161
0.8311768097
0.8821458326
0.9285729716
0.9452720569
0.9457035775
0.944596117
0.9435505433
0.9422614455
0.9408400765
0.939169608
0.9372558275
0.9350253623
0.9324381105
0.9294253027
0.9259203731
0.9218433839
0.9171079948
0.911619695
0.9052790284
0.8979858931
0.8896472721
0.8801899456
0.8695791648
0.8578439416
0.8451064851
0.8316076851
0.8177125075
0.8038791152
0.7905917463
0.7782804954
0.7672596941
0.7577030007
0.7496523549
0.7430460677
0.7377523303
0.7336001358
0.7304046333
0.727985781
0.7261804431
0.72484864
0.7238754064
0.7231694214
0.7226601491
0.7222942551
0.7220321015
0.7218445954
0.7217105574
0.7216146567
0.7215457125
0.7214956872
0.7214583967
0.7214303123
0.7214077321
0.7213889773
0.7213674424
0.5476585048
0.6541415302
0.7141812664
0.7618611323
0.8070675018
0.8557137108
0.9084058584
0.9482817784
0.9577068171
0.9573953253
0.9562223569
0.9550896358
0.9537020922
0.9521627434
0.9503493407
0.9482625127
0.9458241581
0.942986403
0.9396736119
0.9358097706
0.9313055249
0.9260636571
0.9199787513
0.9129407278
0.9048410939
0.8955835253
0.8851011483
0.873381165
0.8604966939
0.8466401132
0.8321428134
0.8174596623
0.8031079939
0.7895787631
0.7772569405
0.7663804736
0.7570421161
0.7492184928
0.7428069577
0.7376580601
0.7336001355
0.7304569971
0.7280604277
0.72625838
0.7249195317
0.7239348098
0.7232164756
0.7226958665
0.7223204371
0.7220507033
0.7218574133
0.7217191095
0.721620151
0.7215491119
0.7214976457
0.7214595109
0.721430701
0.7214078363
0.7213888622
0.7213658105
0.5606213036
0.6706246584
0.7325714773
0.781903015
0.8291163337
0.8800543131
0.9333949769
0.9638973969
0.9681092175
0.9672724594
0.9660264062
0.9647922351
0.9632768498
0.9615851561
0.9595911007
0.9572883424
0.9545942908
0.9514521914
0.9477788739
0.9434877846
0.9384789465
0.9326430562
0.925862823
0.9180176175
0.9089927594
0.8986944843
0.8870733535
0.8741563051
0.8600851054
0.8451489987
0.8297878577
0.814544396
0.7999711304
0.7865297979
0.774526279
0.7640989655
0.7552484805
0.7478833886
0.7418615726
0.7370189218
0.7331864336
0.7302000992
0.7279072046
0.7261705754
0.7248712223
0.7239093176
0.7232035773
0.7226895735
0.7223174025
0.7220491502
0.7218564573
0.7217183524
0.7216194454
0.7215484396
0.721497022
0.7214590072
0.7214302427
0.7214075359
0.7213889151
0.7213659129
0.5726501922
0.6857923526
0.7494787751
0.8005908216
0.8501209773
0.9031012865
0.9540988374
0.9747035842
0.9758981172
0.9749037982
0.9735711892
0.9722192996
0.9705625858
0.9687002284
0.9665035422
0.9639572034
0.9609737924
0.9574864371
0.9534035372
0.948627102
0.9430457962
0.9365380948
0.9289757943
0.9202308657
0.9101889636
0.8987701706
0.8859598964
0.8718488939
0.8566749013
0.8408440794
0.8249036625
0.8094561092
0.795043571
0.7820539931
0.7706848303
0.7609642452
0.7528037911
0.7460534711
0.7405420456
0.7360992427
0.7325648555
0.7297913753
0.7276448152
0.7260055059
0.7247690411
0.7238467835
0.7231655322
0.7226664104
0.7223031782
0.72204026
0.7218507489
0.7217145593
0.7216168316
0.7215465871
0.7214956891
0.7214580703
0.7214295374
0.7214070422
0.7213887451
0.7213654897
0.5835415335
0.6995589985
0.7648606837
0.8177387324
0.8697611916
0.9247744382
0.9690638582
0.9813514138
0.9811895983
0.9801014886
0.9786571891
0.9771653337
0.9753431833
0.9732813339
0.9708498274
0.9680227381
0.9647075988
0.9608263895
0.956278134
0.9509525656
0.9447265216
0.9374669628
0.9290373615
0.9193079442
0.9081746388
0.8955871175
0.8815883215
0.8663606894
0.850262362
0.8338227398
0.817674164
0.8024328054
0.7885790009
0.7763887043
0.765934099
0.7571345957
0.7498242767
0.7438086682
0.7388994435
0.7349286351
0.7317500734
0.7292358218
0.7272725396
0.7257595032
0.7246081691
0.7237423021
0.7230979044
0.7226226417
0.7222747702
0.7220217215
0.7218385591
0.7217064723
0.721611418
0.7215429411
0.7214932366
0.7214564463
0.7214284511
0.7214063258
0.7213884896
0.7213651955
0.5929342682
0.7116021972
0.7784309596
0.8331123252
0.8876124834
0.9440655534
0.9789029239
0.9849992794
0.9838875724
0.9827379593
0.9811628644
0.9795146848
0.9775096157
0.9752257637
0.9725326668
0.9693919525
0.9657052971
0.9613825132
0.9563125454
0.9503729997
0.9434300026
0.9353419117
0.9259692168
0.9151895072
0.9029233808
0.8891712389
0.8740607633
0.8578928255
0.8411583507
0.8244941749
0.8085730782
0.7939677111
0.7810488005
0.7699553565
0.7606323595
0.7529033897
0.7465433601
0.7413303663
0.7370717631
0.7336099952
0.7308173432
0.7285874888
0.7268285673
0.7254591727
0.7244069269
0.7236083722
0.7230091596
0.7225639678
0.7222359967
0.7219960778
0.7218215702
0.721695194
0.7216039183
0.7215379571
0.7214899444
0.721454304
0.7214270642
0.7214054185
0.7213881027
0.7213647734
0.6007266869
0.7219507915
0.7903230184
0.8470495791
0.9040654263
0.9594295616
0.9842637423
0.9869023539
0.9842431389
0.9829581368
0.9812263444
0.9793970012
0.9771813122
0.9746415853
0.9716474802
0.9681471279
0.9640360849
0.9592120693
0.9535542847
0.9469294826
0.9391952931
0.930205792
0.9198261253
0.9079539995
0.8945539545
0.879702841
0.8636407005
0.8468045073
0.8298103778
0.813363427
0.7981179014
0.7845472302
0.7728785661
0.7631062824
0.7550598424
0.7484874705
0.7431257043
0.7387418131
0.7351500113
0.7322095336
0.7298140317
0.7278796435
0.7263358172
0.7251200024
0.7241755876
0.7234516877
0.7229035856
0.7224930897
0.7221885301
0.7219643454
0.7218003864
0.7216810741
0.7215945277
0.7215317388
0.7214858631
0.7214516674
0.7214253851
0.7214043297
0.72138761
0.7213643082
0.6068416561
0.7306027004
0.8006902814
0.8597918573
0.9193535339
0.9694301903
0.9844920132
0.9837176905
0.9822907535
0.9808642983
0.9789810394
0.9769404381
0.9744815393
0.9716482725
0.9683109381
0.9644036071
0.9598153735
0.9544319712
0.9481230765
0.9407461013
0.9321535114
0.9222019534
0.9107729243
0.8978019682
0.8833214085
0.8675117438
0.8507468844
0.8336007301
0.8167836959
0.8010120428
0.7868596798
0.7746571247
0.7644724679
0.756163969
0.7494670225
0.744078503
0.739716916
0.7361531577
0.7332170947
0.7307891562
0.7287858415
0.7271455554
0.7258181342
0.7247588115
0.7239258317
0.7232802418
0.7227865774
0.7224136013
0.7221347336
0.7219280572
0.7217759872
0.7216647273
0.7215836237
0.7215245118
0.7214811223
0.7214486079
0.7214234466
0.721403074
0.7213870105
0.7213637679
0.611221531
0.7375070919
0.8096462213
0.8713485889
0.9328849833
0.9747880417
0.9813774585
0.9800588579
0.9782344534
0.9766433791
0.9745675585
0.9722923377
0.9695637023
0.9664050883
0.9626871771
0.9583293941
0.9532137083
0.9472143044
0.9401925022
0.9319999184
0.9224903595
0.9115338453
0.8990440158
0.8850154798
0.869573799
0.8530267207
0.8358905265
0.8188552396
0.8026740297
0.7880094275
0.7753020173
0.7647144269
0.7561588847
0.7493784545
0.7440409858
0.7398158578
0.7364212171
0.7336428289
0.7313322622
0.7293935638
0.7277662607
0.726410019
0.7252936049
0.7243885786
0.7236668168
0.7231003897
0.722662475
0.7223284199
0.7220765374
0.721888469
0.7217491746
0.7216466546
0.721571511
0.7215164551
0.7214758225
0.7214451791
0.721421273
0.7214016635
0.7213863127
0.7213631625
0.6141483468
0.7431169082
0.8176073447
0.8819691966
0.9433522085
0.9747672954
0.9756271352
0.974169965
0.9722923119
0.9705111918
0.9682248532
0.9656853821
0.9626533127
0.9591300929
0.9549863009
0.9501268502
0.9444266763
0.9377503145
0.9299538832
0.9208891154
0.9104201684
0.8984436192
0.8849233672
0.8699362083
0.8537253949
0.8367407709
0.8196307391
0.8031584384
0.7880552652
0.7748691023
0.7638715319
0.7550527954
0.7481877234
0.7429323639
0.7389143245
0.7357966105
0.7333109059
0.7312656663
0.7295376601
0.7280552994
0.7267803208
0.7256920859
0.724776515
0.7240198333
0.7234061662
0.7229175535
0.7225350686
0.7222401505
0.7220157014
0.721846749
0.7217207091
0.72162734
0.7215584896
0.7215077485
0.7214700666
0.7214414368
0.7214188904
0.7214001105
0.7213855209
0.7213624874
0.6157834423
0.7477266159
0.8248879902
0.8921553359
0.949768628
0.9690057654
0.9682991143
0.9667041245
0.9646674755
0.9626700867
0.960144931
0.9573084994
0.9539355126
0.9500048328
0.9453866608
0.9399726338
0.9336318095
0.926222223
0.917599212
0.9076218483
0.8961753486
0.8831984346
0.8687264177
0.8529429916
0.8362288313
0.8191754318
0.8025305272
0.7870696101
0.7734358809
0.7620159792
0.7528981554
0.7459139408
0.7407292304
0.7369435019
0.7341689721
0.7320792001
0.7304292359
0.7290548874
0.7278594874
0.7267952769
0.7258446923
0.7250048955
0.7242770453
0.7236603086
0.7231496339
0.722735928
0.7224073566
0.7221508959
0.721953673
0.7218038741
0.7216912362
0.7216072002
0.7215448208
0.7214985501
0.7214639462
0.7214374309
0.7214163222
0.7213984262
0.7213846399
0.721361743
0.6162015377
0.7515825839
0.831557166
0.9014024549
0.952012509
0.961387429
0.9594423272
0.9577423503
0.9555353754
0.9532938647
0.9505000107
0.9473312534
0.9435775855
0.9391958542
0.9340557368
0.9280373061
0.9210050719
0.9128140072
0.9033239862
0.8924105461
0.8799939136
0.8660747334
0.8507842304
0.8344358487
0.8175553486
0.8008537148
0.785123861
0.7710848704
0.7592352687
0.7497748033
0.742614802
0.7374549126
0.7338849182
0.7314764382
0.7298467424
0.7286922166
0.7277973417
0.7270273303
0.7263118338
0.7256255046
0.7249695594
0.7243569275
0.7238020845
0.7233154542
0.7229014196
0.7225586707
0.7222816586
0.7220623233
0.7218916255
0.721760653
0.7216613011
0.7215865936
0.7215307337
0.7214890011
0.7214575444
0.7214332075
0.7214135907
0.7213966214
0.7213836738
0.7213609279
0.6155147629
0.7549976144
0.8379803568
0.9085871049
0.9466811052
0.9517841232
0.9492806202
0.9474669719
0.9450532036
0.942538842
0.9394457567
0.9359106023
0.9317381267
0.9268639108
0.9211562717
0.914485269
0.9067127159
0.8976956075
0.8873066826
0.8754511079
0.862102719
0.8473477566
0.8314376501
0.8148291427
0.7981807611
0.7822774791
0.7678897852
0.7556162219
0.7457732987
0.7383708097
0.7331660539
0.7297606955
0.7277007515
0.7265543433
0.7259590521
0.7256419591
0.7254199051
0.7251875871
0.724899625
0.7245511336
0.7241600072
0.7237529128
0.7233558064
0.7229887874
0.7226643733
0.7223880136
0.7221596716
0.7219756892
0.7218304669
0.7217177264
0.7216313452
0.7215658167
0.7215164213
0.7214792228
0.7214509342
0.7214288077
0.7214107161
0.7213947066
0.7213826271
0.7213600416
0.6139305853
0.7582083764
0.8444430563
0.9129405099
0.9398942798
0.9407024381
0.9379735831
0.9360108221
0.9333682834
0.9305565377
0.9271346704
0.9231985775
0.918565776
0.9131519236
0.9068239589
0.8994454424
0.8908802479
0.8809958875
0.8696900338
0.8569144503
0.8427186168
0.8272986416
0.8110435949
0.7945496489
0.7785721531
0.7639068756
0.75123331
0.7409812796
0.7332712373
0.727939596
0.7246227963
0.7228598107
0.7221813321
0.7221707535
0.7224961531
0.7229194455
0.7232903726
0.7235318361
0.723621402
0.723572446
0.7234174195
0.7231947971
0.7229403198
0.7226823211
0.7224402695
0.7222254351
0.7220425749
0.7218919017
0.7217708755
0.7216755876
0.7216017177
0.7215451098
0.7215020443
0.7214693186
0.7214441791
0.7214242684
0.7214077171
0.7213926918
0.7213815051
0.7213590833
0.6118814703
0.7614444274
0.850425807
0.913846948
0.9293202409
0.9285635424
0.9257106071
0.9235421762
0.9206357627
0.9174864517
0.9136887509
0.9092998141
0.9041485883
0.8981342222
0.8911242474
0.8829811532
0.8735774531
0.8628014986
0.8505905962
0.8369632768
0.8220683426
0.806231522
0.7899823907
0.7740301792
0.759170779
0.7461412595
0.735473206
0.7274021711
0.7218606448
0.7185419579
0.7169987439
0.71673963
0.717302663
0.7182995533
0.71943466
0.720505984
0.7213950438
0.722050829
0.7224714942
0.7226864233
0.7227405981
0.7226825262
0.7225562088
0.7223969283
0.7222300474
0.7220718142
0.7219311266
0.7218115794
0.721713335
0.7216346016
0.7215726859
0.7215246629
0.7214877331
0.721459375
0.7214373339
0.7214196221
0.7214046108
0.7213905872
0.7213803122
0.721358053
0.6097825718
0.7651239945
0.8548887514
0.9086031539
0.9172398621
0.9154768469
0.9124893068
0.9100604326
0.9068494536
0.9033168034
0.899092783
0.8941985104
0.8884737465
0.8818048309
0.8740621047
0.865112846
0.8548465168
0.8431859964
0.8301275263
0.8157796445
0.8004114672
0.7844859826
0.768655413
0.7536941975
0.7403718089
0.7293038339
0.7208374907
0.7150121049
0.7115973528
0.7101806622
0.7102665117
0.7113599476
0.7130227733
0.7149029395
0.7167433963
0.7183774377
0.7197161893
0.7207321792
0.7214417031
0.7218879819
0.7221266611
0.7222146918
0.7222029896
0.7221326579
0.7220340256
0.721927573
0.7218257565
0.7217351097
0.7216581706
0.7215950277
0.721544448
0.7215046221
0.7214735919
0.7214494633
0.7214304453
0.7214148977
0.7214014131
0.7213884022
0.7213790476
0.7213569503
0.6080577909
0.7687507934
0.8568982767
0.8994620245
0.9035934865
0.9013771061
0.8982342406
0.8954996911
0.891951619
0.8879995612
0.8833086613
0.8778664495
0.8715225967
0.8641546505
0.8556396388
0.8458589413
0.83473253
0.822236769
0.8084490103
0.7935882811
0.7780541997
0.7624360853
0.7474699061
0.7339336656
0.7225051768
0.7136327803
0.7074665375
0.7038674555
0.7024777192
0.702816774
0.7043716657
0.7066639973
0.7092898927
0.7119373215
0.7143876199
0.7165072675
0.7182342675
0.7195619982
0.7205225191
0.7211708801
0.7215717163
0.7217890257
0.7218794674
0.7218889882
0.7218520778
0.7217927967
0.7217266454
0.7216627013
0.7216055818
0.7215570391
0.7215171453
0.7214850973
0.7214597025
0.7214396419
0.7214235531
0.7214101204
0.7213981384
0.721386145
0.7213777019
0.7213557745
0.6075279117
0.7717419604
0.8558644815
0.8886259276
0.888761552
0.8862817246
0.8829444622
0.8798652124
0.8759443321
0.8715322614
0.8663283521
0.860289847
0.8532774867
0.8451672619
0.8358513642
0.825239122
0.8132982127
0.8000779751
0.7857551834
0.7706703356
0.7553482167
0.7404745498
0.7268148964
0.715086305
0.7058222646
0.6992804286
0.6954226734
0.6939630522
0.694454987
0.6963841244
0.6992441351
0.7025868415
0.7060483849
0.7093574598
0.7123319243
0.7148686015
0.7169294349
0.7185260204
0.7197039723
0.7205283648
0.7210713519
0.7214027674
0.7215840082
0.721665025
0.7216837741
0.7216673316
0.7216337923
0.7215944282
0.7215556712
0.7215207413
0.7214908732
0.7214661683
0.7214461278
0.7214299579
0.7214166909
0.7214053129
0.7213948002
0.7213838217
0.7213762485
0.721354525
0.6089963173
0.7733685312
0.8518505857
0.8744734328
0.8728440902
0.8701821489
0.8665946555
0.8631221982
0.8587817508
0.8538588935
0.8480891965
0.84140546
0.8336835642
0.8248082663
0.8146977892
0.8033039033
0.7906578214
0.7768976815
0.7623112671
0.7473601984
0.7326732504
0.7189870265
0.7070356406
0.6974182896
0.6904910473
0.6863199635
0.6847041077
0.6852483582
0.687454128
0.6908011615
0.6948068695
0.699061363
0.7032427895
0.7071191878
0.7105421048
0.7134355551
0.7157825135
0.7176103348
0.7189761975
0.7199536122
0.7206209786
0.7210529288
0.7213147394
0.7214596499
0.7215284891
0.7215508623
0.7215470679
0.7215302662
0.721508469
0.7214861881
0.7214656911
0.7214478906
0.7214329153
0.7214204493
0.7214098873
0.7214004951
0.721391411
0.7213814357
0.7213746787
0.721353202
0.6126261554
0.7731006889
0.8425903487
0.8589691364
0.855807206
0.8529407571
0.8490553299
0.8451451587
0.8403443001
0.8348711671
0.8285004703
0.8211482755
0.8127102208
0.8030903257
0.7922432356
0.7801766367
0.7669997579
0.7529523508
0.7384375843
0.7240248375
0.7104100098
0.6983247144
0.6884130887
0.6811155004
0.6765995807
0.674757565
0.6752606468
0.6776426043
0.6813841767
0.685979958
0.6909819552
0.6960222412
0.7008203643
0.7051810539
0.708986255
0.7121840006
0.7147755609
0.7168018267
0.7183297869
0.7194400126
0.7202160593
0.720736476
0.7210696921
0.7212716295
0.7213854833
0.7214429709
0.7214662571
0.7214701228
0.7214639528
0.7214533939
0.7214416304
0.7214303009
0.7214200999
0.7214111462
0.7214031666
0.7213956849
0.7213879827
0.7213789894
0.7213730646
0.7213518079
0.6174956412
0.771003808
0.8294934925
0.8415723215
0.8375386563
0.8344461773
0.8302276517
0.8258540697
0.8205729377
0.8145351832
0.8075561881
0.7995437933
0.7904178227
0.7801122782
0.7686298702
0.7560490542
0.7425715806
0.7285467756
0.7144859598
0.7010368679
0.688912508
0.6787815831
0.6711515393
0.6662835156
0.6641658514
0.6645472583
0.6670089393
0.671047606
0.6761476718
0.681832545
0.6876945922
0.6934083498
0.6987325103
0.7035051823
0.707635316
0.711091948
0.7138921593
0.7160884137
0.7177559893
0.7189813405
0.7198522535
0.7204504498
0.7208468984
0.721099692
0.7212539618
0.7213431814
0.7213910908
0.7214138594
0.7214220633
0.7214223451
0.7214187018
0.7214134208
0.7214077069
0.7214020727
0.7213965494
0.7213908984
0.7213845266
0.721376493
0.7213713566
0.7213503486
0.6213506416
0.7669007345
0.8154986208
0.822704801
0.8180953857
0.8147358583
0.8101643324
0.8053101304
0.7995367399
0.7929301853
0.7853462639
0.7766951232
0.766927337
0.7560202919
0.7440399284
0.7311507871
0.7176570618
0.7040140708
0.6908177099
0.6787499152
0.6684853552
0.660579849
0.6553758049
0.6529554009
0.6531518643
0.6556064434
0.6598460481
0.6653579497
0.6716474884
0.6782751076
0.6848754973
0.6911640586
0.6969354532
0.7020576324
0.7064632808
0.7101396821
0.7131175271
0.715459148
0.7172468088
0.7185718482
0.7195255027
0.7201920406
0.7206444562
0.7209425798
0.7211331165
0.7212509913
0.7213212702
0.721361309
0.7213827163
0.721393008
0.7213969005
0.721397261
0.7213957535
0.7213932477
0.7213900537
0.7213861502
0.7213810534
0.7213739503
0.7213695823
0.72134883
0.624401309
0.7603365817
0.7985260359
0.8025751279
0.7976057656
0.7939144187
0.7889683419
0.7836114234
0.7773263025
0.7701428218
0.7619575488
0.7526973187
0.7423540077
0.7309645819
0.7186728586
0.7057391241
0.6925682617
0.6797023464
0.6677835536
0.6574766535
0.6493672808
0.6438641092
0.6411363854
0.6411044115
0.6434789872
0.6478299777
0.6536603089
0.660468332
0.667791279
0.675230407
0.6824620808
0.6892397218
0.6953903908
0.7008084025
0.7054471564
0.7093097294
0.7124385066
0.7149042262
0.7167950319
0.7182063036
0.7192320734
0.719958632
0.7204605678
0.720799084
0.7210221538
0.7211658948
0.7212564837
0.7213122889
0.7213458125
0.7213653356
0.7213762111
0.7213818239
0.7213842511
0.7213846863
0.721383695
0.721381454
0.7213775725
0.721371368
0.7213677574
0.7213472548
0.6256868694
0.751188193
0.7798149645
0.7813553142
0.776107897
0.7720074042
0.7666558461
0.7607676936
0.7539471132
0.7461843282
0.7374190015
0.7276108698
0.7168055302
0.7051123314
0.6927613225
0.6801073984
0.6676408058
0.6559580387
0.64570161
0.6374700016
0.6317218989
0.6287034148
0.6284202306
0.6306587242
0.6350423476
0.641101706
0.6483392836
0.6562783793
0.6644940301
0.6726289165
0.6803987951
0.6875916461
0.6940633154
0.6997312265
0.7045667881
0.7085867278
0.7118434784
0.7144149422
0.7163942087
0.7178799915
0.71896857
0.7197478194
0.7202935609
0.7206680645
0.7209203137
0.7210873974
0.7211964198
0.7212666106
0.7213112444
0.7213392722
0.7213566103
0.7213671055
0.7213732066
0.7213764005
0.7213774868
0.7213768219
0.7213740928
0.721368759
0.7213659456
0.7213456173
0.6246008562
0.7355106447
0.7593747841
0.7589478788
0.7534769375
0.7488901459
0.7431090932
0.7366820697
0.7293307267
0.7210259888
0.7117539626
0.7015207118
0.690435078
0.6786857863
0.6665892154
0.6545833269
0.6432175705
0.633103027
0.6248366912
0.6189112652
0.6156372253
0.6151003659
0.6171650309
0.6215163644
0.6277233404
0.6353033769
0.6437752846
0.6526956047
0.6616793532
0.6704091666
0.678637015
0.6861817902
0.6929246821
0.6988032796
0.7038046261
0.7079572543
0.7113222446
0.7139836135
0.7160386121
0.7175886951
0.7187319317
0.7195574157
0.7201418983
0.7205484615
0.7208268799
0.7210150262
0.7211407746
0.7212240856
0.7212789009
0.7213147576
0.7213380703
0.7213530979
0.7213626234
0.7213683997
0.7213714414
0.7213722651
0.7213706236
0.7213661485
0.7213641928
0.7213439104
0.6208218481
0.7187010343
0.7370825424
0.7351487354
0.7295073663
0.7244145293
0.7182163466
0.711292118
0.703467964
0.6947155971
0.6850715665
0.6745986072
0.6634754276
0.651971737
0.6404825716
0.6295081982
0.6196234358
0.6114121215
0.6053863044
0.6019073469
0.6011329964
0.6030046514
0.6072743852
0.6135585285
0.6213994645
0.6303208923
0.6398687651
0.6496368744
0.6592798291
0.6685175267
0.6771345985
0.6849772888
0.6919489804
0.6980048276
0.7031454558
0.7074096291
0.710865891
0.7136034897
0.7157231801
0.7173286634
0.7185194159
0.7193854453
0.7200041801
0.7204393001
0.7207411862
0.7209483357
0.7210892575
0.7211845306
0.7212486713
0.7212917295
0.7213205601
0.72133979
0.7213525022
0.7213606916
0.7213655696
0.7213677939
0.7213671755
0.7213635672
0.7213623664
0.7213421532
0.614149614
0.6999806299
0.7130385016
0.7099602258
0.7041734955
0.6986072907
0.6920308994
0.6846831849
0.6764814342
0.6674154749
0.6575775177
0.6470949656
0.6362189342
0.625294703
0.6147794486
0.6052068398
0.5971394566
0.5910956732
0.5874742658
0.5864949054
0.5881721069
0.5923273268
0.5986311342
0.6066598475
0.615951026
0.6260479866
0.6365298777
0.647028694
0.6572366468
0.6669075908
0.6758552352
0.6839498654
0.6911142488
0.6973188466
0.7025761113
0.7069337057
0.7104666391
0.7132686509
0.7154434498
0.7170965692
0.7183285744
0.7192301324
0.7198791376
0.7203396892
0.7206626179
0.7208869101
0.7210415941
0.7211477695
0.7212204473
0.7212701251
0.7213040474
0.7213271686
0.7213428421
0.7213532822
0.7213598808
0.7213634175
0.7213637598
0.7213610303
0.7213604769
0.7213403835
0.6046454317
0.6798964781
0.6874936908
0.6835254154
0.6775878729
0.6715992842
0.664697423
0.6570172521
0.6485587931
0.63934472
0.6295266587
0.6192999513
0.6089841673
0.598986424
0.5898015699
0.5819632316
0.5759857573
0.572292431
0.5711537872
0.5726511782
0.5766751069
0.5829550881
0.591108895
0.6006963095
0.6112657643
0.6223884099
0.6336791117
0.6448070088
0.6554990355
0.6655395117
0.6747678179
0.683075296
0.6904016434
0.6967306894
0.7020852245
0.7065206869
0.7101177143
0.7129739164
0.7151954948
0.7168894693
0.7181572282
0.7190898859
0.7197656264
0.7202488186
0.7205906111
0.7208303644
0.7209975272
0.7211136353
0.7211941243
0.7212498827
0.7212884988
0.7213152193
0.7213336404
0.7213461763
0.7213543837
0.7213591444
0.7213603893
0.7213585515
0.7213585056
0.7213386004
0.592525505
0.65707896
0.6606106861
0.6559322369
0.6498550584
0.643513557
0.6363650912
0.6284731168
0.6199131678
0.6107523591
0.6012028344
0.591525227
0.5820966986
0.5733655411
0.565835273
0.5600064407
0.5563156591
0.5550729078
0.556418437
0.5603090419
0.5665355693
0.5747631886
0.5845813203
0.5955509429
0.6072417391
0.6192569549
0.6312472576
0.6429166599
0.6540235493
0.6643792911
0.6738458186
0.6823328963
0.6897950326
0.6962277744
0.701662992
0.7061629539
0.7098132226
0.7127147572
0.7149758653
0.716704764
0.7180034419
0.718963284
0.7196626171
0.7201659542
0.720524651
0.7207783441
0.7209568178
0.7210819709
0.7211696027
0.7212309423
0.7212738813
0.7213039268
0.7213248933
0.7213393777
0.7213490855
0.7213549826
0.7213570776
0.7213561392
0.7213564403
0.721336836
0.5780577362
0.6320750782
0.6325089962
0.6272647396
0.6210897565
0.6144918907
0.607206503
0.5992564745
0.5907858386
0.5819127139
0.5729069998
0.5640858189
0.5558669715
0.548714995
0.5431126526
0.5394991181
0.538213197
0.5394450494
0.5432130756
0.5493696162
0.5576313947
0.5676238215
0.5789272562
0.5911162894
0.6037879562
0.616579019
0.6291744772
0.6413103208
0.6527730596
0.6633979111
0.6730665789
0.6817049611
0.6892805655
0.6957992588
0.7013009309
0.7058538859
0.7095480199
0.7124872026
0.7147815233
0.7165401524
0.7178654936
0.7188490549
0.7195691832
0.7200904311
0.7204642676
0.7207305229
0.7209192437
0.7210526289
0.7211467877
0.7212132457
0.721260162
0.7212932751
0.7213165962
0.7213328891
0.7213439925
0.7213509395
0.7213538389
0.7213537975
0.7213542874
0.7213351028
0.5613285858
0.6051897003
0.603314247
0.5976563407
0.5914345938
0.5847066975
0.5774254337
0.5696019846
0.5614420774
0.5531152451
0.5449414534
0.5372803235
0.5305695709
0.5252642373
0.5218001823
0.5205343955
0.5216979276
0.5253646242
0.5314465436
0.5397142425
0.5498341861
0.5614122824
0.5740340309
0.5872955918
0.6008242632
0.6142898438
0.6274093081
0.6399475034
0.6517158736
0.6625706021
0.6724107257
0.6811763105
0.6888463252
0.695435777
0.7009916837
0.7055877165
0.7093176065
0.7122877647
0.7146097875
0.7163935949
0.7177418495
0.7187460594
0.7194844901
0.7200216465
0.7204090322
0.7206866009
0.7208845991
0.7210254712
0.7211255895
0.721196737
0.7212473083
0.7212832478
0.7213087437
0.7213267124
0.7213391098
0.7213470223
0.7213506882
0.7213515284
0.7213520543
0.721333418
0.542465453
0.5766411067
0.5731471836
0.5672532045
0.5610698891
0.5543687386
0.5472654469
0.5397792585
0.5321711524
0.5246580757
0.5175988289
0.5113786045
0.5064332693
0.5031846519
0.5020011291
0.5031450873
0.5067390213
0.5127513236
0.521006917
0.5312169146
0.5430180629
0.5560123735
0.5698002028
0.584003765
0.5982812897
0.6123339555
0.6259079316
0.6387938293
0.6508250906
0.6618763085
0.671861745
0.6807339572
0.6884820735
0.6951292475
0.7007288735
0.7053594256
0.7091180484
0.7121133807
0.7144582939
0.7162632847
0.7176311442
0.7186532787
0.7194077874
0.7199590553
0.7203585546
0.7206463031
0.7208526936
0.7210003688
0.7211059232
0.7211813627
0.7212352888
0.7212738285
0.7213013298
0.7213208484
0.7213344413
0.7213432383
0.7213476409
0.7213493322
0.721349751
0.7213318017
0.5215997651
0.5466962333
0.542051521
0.5362974938
0.5302603035
0.5237549484
0.517018458
0.5100888489
0.5032747027
0.4968332032
0.4911480419
0.4866114054
0.4836362705
0.4825913771
0.4837636837
0.4873165903
0.4932704813
0.5015036754
0.5117740846
0.5237535063
0.5370655055
0.55131947
0.5661366803
0.5811673369
0.5960997893
0.6106642827
0.6246332776
0.6378202243
0.6500779216
0.6612971364
0.6714055439
0.680366766
0.6881789887
0.6948726722
0.7005069519
0.7051646252
0.7089458917
0.7119613498
0.7143249484
0.7161476144
0.7175321576
0.7185697973
0.7193383971
0.7199021619
0.7203124775
0.7206093759
0.7208233505
0.7209772009
0.7210877084
0.7211670712
0.7212240722
0.7212650001
0.7212943476
0.7213152972
0.7213299897
0.7213395952
0.7213447121
0.7213472055
0.721347387
0.7213302857
0.4989144181
0.5157487152
0.5107069488
0.5050460493
0.4992854288
0.4931476836
0.486968755
0.4808119937
0.4750234499
0.4698901447
0.4658048578
0.4631481435
0.4622915977
0.4635361502
0.4670801899
0.4729905114
0.4811967664
0.4915045189
0.5036236985
0.5172037138
0.5318674948
0.5472393998
0.5629649242
0.5787224366
0.5942287089
0.6092404591
0.6235536117
0.6370017837
0.6494547989
0.6608176655
0.6710299248
0.6800650526
0.6879293616
0.694659907
0.7003210253
0.7049994292
0.7087980649
0.7118292612
0.7142078742
0.716045137
0.717443786
0.7184947833
0.7192757
0.719850511
0.7202704708
0.7205755832
0.7207964034
0.7209558527
0.7210708678
0.7211538122
0.7212136273
0.7212567453
0.7212877897
0.7213100571
0.7213257564
0.721336101
0.7213419149
0.7213451403
0.7213449806
0.7213289113
0.4744143442
0.4841787721
0.4791815562
0.4737608264
0.4684111028
0.4628160355
0.4573844052
0.4522077115
0.4476577293
0.4440391274
0.4417380042
0.4411065812
0.4424605609
0.4460239489
0.4519054814
0.4600827688
0.4704088448
0.4826338133
0.4964363544
0.5114569257
0.5273267891
0.5436899349
0.5602173542
0.5766146275
0.5926247778
0.6080283536
0.6226420986
0.6363174034
0.6489390815
0.6604247211
0.6707244101
0.6798204519
0.6877264947
0.6944855844
0.7001667966
0.7048604078
0.7086718445
0.7117149666
0.7141053913
0.7159545512
0.7173650322
0.7184274808
0.7192191299
0.7198036839
0.7202322285
0.7205447045
0.7207716959
0.7209362152
0.7210553269
0.7211415364
0.721203923
0.721249046
0.7212816473
0.7213051255
0.721321742
0.7213327646
0.7213392591
0.7213431264
0.7213425757
0.72132771
0.4486791117
0.4523777616
0.4477495505
0.4426953473
0.4379005278
0.4330219451
0.4285190314
0.424511416
0.4213849667
0.4194497438
0.4190708025
0.4205582652
0.4241617893
0.430024508
0.4381692486
0.4484951226
0.4607935974
0.4747752828
0.4901015073
0.5064138932
0.5233580159
0.5405999381
0.5578360403
0.5747974713
0.5912511343
0.606998851
0.6218757672
0.6357489288
0.6485163699
0.6601068304
0.6704798185
0.6796255896
0.6875644524
0.6943449248
0.7000404235
0.7047444828
0.7085647778
0.7116165254
0.7140159768
0.7158746732
0.7172949849
0.7183671966
0.7191681649
0.7197612922
0.720197465
0.7205165327
0.7207490797
0.7209181837
0.7210410136
0.7211301952
0.7211949279
0.7212418833
0.7212759111
0.7213004979
0.7213179464
0.7213295945
0.7213367502
0.7213411567
0.7213402401
0.7213265877
0.4219012773
0.420737221
0.4166756873
0.4121181377
0.4080119475
0.4040067807
0.4005927837
0.3979150452
0.3963619767
0.3962372029
0.3978721961
0.4015242577
0.4073708466
0.4154745091
0.4257793219
0.4381182463
0.4522358227
0.467817044
0.4845168648
0.5019852779
0.5198858065
0.537907433
0.5557709345
0.5732310322
0.5900761261
0.606126927
0.6212348179
0.6352806444
0.6481741333
0.659853952
0.6702880669
0.6794739364
0.6874379514
0.694233654
0.6999384551
0.7046488798
0.7084746466
0.7115321768
0.7139382444
0.7158044214
0.717232809
0.7183132923
0.7191223221
0.7197229747
0.7201659136
0.7204908727
0.7207284142
0.7209016584
0.7210278581
0.7211197412
0.7211866107
0.7212352383
0.7212705704
0.7212961687
0.7213143693
0.7213265986
0.7213343897
0.7213392306
0.7213379847
0.7213255927
0.3943939817
0.3896110454
0.3862252545
0.3822863882
0.3789848953
0.3759863183
0.3737931112
0.3725720491
0.3727037478
0.3744746203
0.378171855
0.38399193
0.3920373716
0.4022937254
0.414635685
0.4288428772
0.4446263016
0.4616568364
0.4795913346
0.4980929669
0.5168450659
0.5355592879
0.5539792809
0.5718812027
0.5890726556
0.6053910625
0.6207021219
0.634898859
0.6479013728
0.6596572054
0.6701419545
0.679359638
0.6873422274
0.6941478985
0.6998577517
0.7045710651
0.7083994188
0.7114603024
0.7138709157
0.7157427952
0.7171777285
0.718265172
0.719081149
0.7196883915
0.7201373211
0.7204675386
0.7207095642
0.7208865424
0.7210157922
0.721110127
0.7211789398
0.7212290909
0.7212656137
0.7212921312
0.7213110099