/*--------------------------------*- C++ -*----------------------------------*\
  =========                 |
  \\      /  F ield         | OpenFOAM: The Open Source CFD Toolbox
   \\    /   O peration     | Website:  https://openfoam.org
    \\  /    A nd           | Version:  12
     \\/     M anipulation  |
\*---------------------------------------------------------------------------*/
FoamFile
{
    format      ascii;
    class       volScalarField;
    location    "1150";
    object      p;
}
// * * * * * * * * * * * * * * * * * * * * * * * * * * * * * * * * * * * * * //

dimensions      [1 -1 -2 0 0 0 0];

internalField   nonuniform List<scalar> 
16200
(
79522.83298
79529.67983
79538.70069
79550.41195
79565.76524
79586.05222
79613.24493
79649.31698
79694.54699
79748.81348
79813.44256
79890.36286
79981.45152
80089.83932
80218.05691
80370.27077
80550.20789
80763.1429
81014.39396
81310.60003
81658.88269
82067.45576
82545.16436
83101.54158
83746.28872
84488.66475
85336.29667
86293.44763
87358.59838
88521.52561
89760.58785
91041.86788
92321.974
93554.61331
94698.55059
95723.67103
96613.32957
97363.36564
97979.32848
98473.29443
98860.99975
99159.5189
99385.54109
99554.23707
99678.65978
99769.54869
99835.44444
99882.94628
99917.04374
99941.44443
99958.86765
99971.28979
99980.13378
99986.42577
99990.88805
99994.07174
99996.28474
99997.99229
99998.72762
100000.0073
78429.27639
78437.51807
78447.12709
78460.08096
78477.28047
78500.20439
78531.32296
78571.99933
78622.6211
78682.99791
78754.73672
78840.13365
78941.16316
79061.4076
79203.56983
79372.32648
79571.77771
79807.80705
80086.35761
80414.86888
80801.37
81255.11477
81786.0824
82404.95881
83122.47393
83948.50464
84890.45428
85950.92267
87124.56936
88394.61893
89730.49713
91088.99266
92420.23372
93676.69046
94821.23301
95831.15557
96697.8098
97423.57463
98018.18319
98495.61388
98871.81883
99163.13359
99385.154
99551.98957
99675.83929
99766.84139
99833.15234
99881.15174
99915.71732
99940.5107
99958.24103
99970.89125
99979.89867
99986.30148
99990.84138
99994.06428
99996.30859
99998.01862
99998.7325
100000.0106
77515.06817
77524.25303
77535.03428
77549.61528
77569.06367
77595.14059
77630.64778
77676.20918
77732.22675
77798.81736
77877.86939
77972.09513
78083.54241
78216.33821
78373.43397
78560.12302
78781.01954
79042.75295
79352.0514
79717.28244
80147.49912
80653.06468
81245.11476
81935.40391
82735.40927
83655.01729
84700.33514
85870.60832
87154.30688
88525.49039
89942.96483
91354.71475
92707.20948
93955.62588
95070.42067
96038.40674
96859.66762
97542.96321
98101.67714
98551.0997
98906.87878
99184.1659
99397.07489
99558.30492
99678.89353
99768.11539
99833.52987
99881.13047
99915.55861
99940.3393
99958.10739
99970.80809
99979.86208
99986.30068
99990.86751
99994.10213
99996.35628
99998.06218
99998.75522
100000.0541
76792.79572
76802.78706
76815.27207
76831.89102
76854.11541
76884.11533
76924.59852
76975.75273
77037.97021
77111.97562
77199.77282
77304.60152
77428.60358
77576.52819
77751.62682
77959.8525
78206.37557
78498.5947
78844.06838
79252.14507
79732.99022
80298.1593
80959.9607
81731.04821
82623.16101
83645.25716
84800.59126
86082.73652
87471.13136
88928.35913
90402.35486
91834.82887
93172.97853
94379.0501
95433.9753
96335.16429
97091.19624
97716.37397
98226.82159
98638.40659
98965.95125
99223.05742
99422.07731
99574.06011
99688.66573
99774.11042
99837.18786
99883.36519
99916.93614
99941.20356
99958.6643
99971.17951
99980.11994
99986.4872
99991.00849
99994.20989
99996.44091
99998.12571
99998.78379
100000.0805
76288.36404
76299.54083
76314.12656
76333.20873
76358.80107
76393.62899
76439.97134
76497.77465
76567.37955
76650.24359
76748.43499
76865.75304
77004.38714
77169.72667
77365.35804
77597.94569
77873.32317
78199.7837
78585.89567
79042.15196
79579.94835
80212.01359
80951.60614
81811.76897
82803.60473
83933.69343
85200.24602
86588.30831
88065.61417
89582.37731
91077.75713
92491.81928
93777.70779
94908.57762
95877.47335
96692.18643
97368.58022
97925.06682
98379.30076
98746.88344
99041.29638
99274.29835
99456.30556
99596.59316
99703.33619
99783.59097
99843.29087
99887.29246
99919.47065
99942.84887
99959.74159
99971.89259
99980.59827
99986.81306
99991.23478
99994.36909
99996.55407
99998.20597
99998.8236
100000.1194
76010.21351
76022.89049
76039.98098
76062.00758
76091.6714
76132.25906
76185.46317
76250.70526
76328.31638
76420.54302
76529.61772
76660.14161
76814.46441
76998.72703
77216.98515
77476.73979
77784.63574
78149.94853
78582.30765
79093.29973
79695.40766
80402.26287
81227.62616
82184.17233
83281.09816
84520.60851
85893.12529
87372.28569
88912.57686
90453.19348
91928.91651
93283.90573
94482.01791
95509.74581
96372.37579
97086.77606
97674.3074
98155.859
98549.41148
98869.54646
99128.00215
99334.51395
99497.49438
99624.41729
99721.94957
99795.95529
99851.46699
99892.68657
99923.0277
99945.19677
99961.29454
99972.92263
99981.28403
99987.27176
99991.54372
99994.57848
99996.69569
99998.30244
99998.87241
100000.1625
75934.51179
75949.01507
75969.02396
75994.59559
76029.24969
76076.43212
76137.07558
76209.72801
76296.29355
76399.89599
76522.38123
76669.07436
76842.51991
77049.65702
77295.05366
77587.04108
77933.08907
78343.42014
78828.69952
79401.54868
80075.43233
80864.61814
81782.77101
82841.05908
84044.92252
85389.59757
86854.784
88400.64855
89968.92483
91491.61006
92905.05431
94163.13132
95243.77213
96147.49373
96890.60134
97497.00225
97991.53421
98395.97731
98727.58438
98999.32315
99220.9216
99400.02094
99543.0528
99655.74003
99743.28492
99810.38333
99861.1723
99899.19093
99927.37607
99948.09902
99963.22933
99974.21115
99982.14149
99987.84204
99991.92326
99994.83134
99996.86286
99998.41395
99998.93061
100000.2134
76054.2633
76071.20624
76094.42741
76124.14687
76164.8692
76219.54591
76288.43856
76370.31524
76468.17597
76585.06052
76723.1138
76888.44457
77083.79991
77316.95072
77593.05726
77921.3238
78310.14129
78770.74303
79314.88885
79956.18635
80708.82944
81587.10399
82603.45318
83765.80724
85073.47566
86511.90746
88047.67639
89627.09943
91182.0925
92643.20526
93954.62231
95084.29269
96025.67123
96792.35045
97409.48718
97905.6816
98307.30712
98635.6819
98906.52169
99130.78305
99316.05735
99467.91795
99590.9085
99689.10592
99766.33687
99826.19163
99871.94924
99906.50365
99932.31947
99951.42996
99965.46689
99975.70943
99983.14139
99988.50693
99992.36407
99995.12276
99997.05347
99998.53959
99998.99754
100000.2712
76357.06509
76376.98435
76403.89604
76438.56884
76486.62185
76549.53584
76627.54242
76720.13888
76829.8617
76961.22954
77116.26664
77302.06115
77521.64352
77783.66754
78094.00148
78462.78084
78899.40213
79416.10501
80025.64217
80742.28773
81580.34063
82553.08187
83670.23806
84934.46262
86336.37048
87849.06108
89424.81685
90997.97128
92495.78912
93853.98809
95029.93573
96008.06638
96796.90493
97420.95616
97911.60089
98299.83606
98611.90914
98867.64091
99080.6646
99259.71521
99410.24144
99535.84965
99639.33638
99723.27221
99790.22523
99842.76709
99883.37752
99914.3411
99937.66951
99955.06648
99967.92823
99977.36785
99984.25337
99989.2485
99992.85607
99995.44738
99997.26513
99998.67841
99999.07296
100000.3366
76816.98926
76840.37751
76871.53177
76912.08358
76968.34131
77039.84799
77127.21872
77231.67531
77355.5986
77504.00761
77678.9234
77888.42702
78135.93014
78431.00297
78780.31952
79194.96477
79685.34437
80264.56285
80946.07106
81744.28131
82672.77994
83742.64754
84959.1916
86317.48785
87796.83606
89356.17915
90934.26843
92457.72957
93855.78678
95075.53314
96091.02867
96903.47771
97534.49914
98016.67332
98384.9509
98670.72916
98898.8487
99086.93032
99246.22227
99383.18452
99501.20918
99602.08712
99687.03654
99757.27866
99814.2536
99859.61381
99895.11028
99922.46486
99943.26511
99958.90173
99970.54388
99979.14229
99985.45019
99990.05054
99993.39008
99995.80032
99997.49562
99998.82948
99999.15652
100000.4097
77419.72138
77447.15461
77483.23878
77530.96796
77596.58091
77678.84269
77778.2868
77895.91613
78035.13993
78202.26235
78399.19578
78635.07229
78913.79499
79245.87001
79638.80903
80104.53501
80654.30452
81301.79933
82060.76088
82945.1203
83966.79323
85133.19909
86443.11771
87881.42295
89413.82038
90984.8514
92522.95257
93953.29025
95213.87344
96267.82292
97107.14429
97748.25373
98222.94161
98568.86897
98822.18964
99013.1345
99164.25362
99290.56494
99400.82755
99499.29049
99587.43748
99665.42414
99733.0705
99790.40995
99837.88818
99876.34168
99906.86808
99930.67861
99948.97097
99962.84426
99973.25332
99980.99363
99986.7073
99990.89821
99993.95756
99996.17698
99997.74282
99998.9919
99999.24796
100000.4908
78147.45335
78179.61344
78221.46274
78277.4601
78352.33284
78444.75477
78556.88166
78690.4273
78847.83911
79036.87607
79259.4753
79525.77247
79840.14691
80213.93235
80655.44432
81177.34203
81791.65186
82512.44109
83353.33486
84326.98938
85442.31515
86701.08866
88092.98742
89590.13654
91143.59651
92685.62869
94139.93853
95437.34958
96530.36051
97400.50826
98056.85356
98528.19389
98853.21667
99071.90579
99219.71642
99324.60695
99406.31243
99477.08798
99543.2464
99606.96889
99668.01473
99725.0956
99776.81285
99822.1689
99860.74435
99892.66067
99918.43735
99938.82854
99954.67867
99966.81926
99976.00607
99982.88868
99988.0035
99991.77846
99994.5509
99996.57321
99998.00475
99999.1648
99999.34705
100000.5803
78987.46612
79025.12778
79073.67658
79139.17936
79226.5148
79332.61115
79458.91455
79610.04137
79787.68007
80000.88614
80251.58157
80550.96854
80904.0234
81322.95152
81817.00591
82399.58609
83083.34565
83882.27955
84809.04154
85873.68727
87080.24251
88422.39609
89878.09252
91405.09499
92940.93367
94410.28929
95739.17565
96870.61351
97775.17311
98452.81412
98927.13344
99235.86855
99421.46589
99523.95256
99576.70505
99604.72659
99624.70498
99646.15212
99673.07576
99705.77837
99742.49353
99780.67847
99817.88639
99852.23535
99882.56133
99908.36572
99929.6617
99946.79859
99960.30416
99970.76731
99978.76113
99984.79985
99989.32079
99992.68001
99995.16333
99996.98527
99998.2796
99999.34734
99999.45349
100000.6782
79928.94963
79973.04973
80029.75765
80106.55101
80206.87668
80326.64449
80468.06343
80637.81922
80837.05221
81076.39315
81357.73002
81693.47564
82089.3588
82558.42113
83110.75469
83760.14614
84519.30298
85401.30016
86416.65391
87571.20765
88861.905
90271.77912
91765.06312
93285.41124
94760.54187
96114.17486
97281.68301
98222.99296
98927.81756
99412.56593
99711.92504
99869.10682
99927.63676
99925.8806
99894.24883
99854.45601
99820.12776
99798.17287
99790.49323
99795.72201
99810.76555
99832.00579
99856.10447
99880.42832
99903.1781
99923.32187
99940.43302
99954.5052
99965.78487
99974.64282
99981.48618
99986.70486
99990.64429
99993.59327
99995.789
99997.40981
99998.5657
99999.53866
99999.56689
100000.785
80948.39767
81000.30844
81066.57298
81154.64605
81267.68965
81403.7349
81563.4097
81755.40993
81980.27345
82250.48345
82567.84302
82945.89116
83391.013
83916.81708
84533.93418
85256.09408
86095.48792
87063.41987
88166.91216
89405.57072
90766.71863
92220.51992
93717.07239
95188.66513
96559.14114
97758.46125
98736.99725
99473.79141
99976.49072
100274.7006
100410.5039
100429.5139
100374.2658
100280.3227
100174.6559
100075.6208
99993.91304
99934.05011
99896.05397
99877.10022
99872.95623
99879.09243
99891.41955
99906.67124
99922.51035
99937.44933
99950.682
99961.89161
99971.07626
99978.41208
99984.15647
99988.58611
99991.96189
99994.51024
99996.42286
99997.84389
99998.86154
99999.73786
99999.68683
100000.9007
82051.24635
82112.55424
82189.29401
82290.6691
82418.51591
82572.80011
82753.74455
82971.68864
83226.06468
83531.37074
83889.32061
84314.42712
84813.66528
85401.05702
86087.5842
86886.53022
87808.81467
88862.61446
90049.39359
91359.99013
92769.80564
94235.28356
95694.29143
97072.84784
98297.9114
99311.97544
100083.723
100611.037
100916.6548
101039.5964
101025.9184
100921.1797
100765.484
100590.9363
100420.9131
100270.5203
100147.745
100054.9598
99990.53745
99950.39814
99929.34262
99922.07595
99923.88133
99930.96287
99940.53073
99950.71035
99960.36967
99968.92238
99976.14845
99982.05118
99986.75368
99990.43005
99993.26391
99995.4243
99997.0606
99998.2849
99999.16573
99999.94413
99999.81348
100001.0256
83239.89011
83312.69941
83401.77945
83520.96314
83667.01691
83841.65711
84045.63325
84291.99114
84578.59651
84922.00281
85323.97392
85799.96191
86357.54847
87010.98451
87771.17689
88650.04975
89655.7555
90791.30574
92050.24799
93412.52768
94840.61006
96278.44663
97655.85533
98899.06449
99944.74909
100752.2114
101309.2029
101630.2172
101749.3898
101711.4679
101563.6437
101349.6444
101106.2609
100861.8639
100636.3014
100441.6514
100283.4588
100162.2053
100074.8366
100016.2027
99980.29172
99961.17117
99953.60385
99953.35384
99957.25247
99963.09803
99969.47989
99975.57855
99980.98317
99985.54419
99989.26476
99992.22651
99994.5428
99996.33004
99997.69856
99998.73055
99999.47698
100000.1567
99999.94828
100001.1601
84515.15861
84602.22553
84705.39462
84843.55234
85008.33128
85205.84915
85435.02082
85712.65678
86034.99
86420.57637
86871.32081
87403.42747
88024.81349
88749.28396
89586.65903
90546.05027
91631.03763
92837.52283
94149.34345
95534.51213
96943.20684
98310.12698
99562.77157
100634.1685
101475.7309
102065.3653
102408.45
102532.6784
102479.753
102296.9629
102030.5034
101721.1221
101401.8629
101097.3583
100824.1347
100591.5229
100402.9045
100257.1163
100149.8809
100075.1442
100026.2159
99996.63656
99980.74055
99973.9285
99972.71645
99974.62733
99978.01321
99981.85355
99985.57106
99988.88141
99991.68092
99993.96813
99995.79271
99997.22311
99998.33365
99999.17882
99999.7941
100000.3752
100000.0947
100001.3044
85876.69567
85981.1397
86097.81178
86255.0026
86441.21571
86665.82919
86924.34862
87237.96537
87601.32083
88034.69993
88539.97832
89133.57089
89823.13668
90621.06338
91534.92498
92569.65117
93722.75008
94981.51841
96318.96058
97691.25337
99038.60246
100291.3227
101380.8996
102252.6768
102875.5676
103245.5375
103382.6516
103323.9787
103115.3264
102804.0398
102433.8706
102041.9572
101657.4916
101301.5411
100987.5953
100722.5387
100507.8616
100340.9834
100216.5861
100127.8564
100067.5417
100028.7503
100005.466
99992.79133
99986.98124
99985.3279
99985.9819
99987.7498
99989.90944
99992.05793
99993.99668
99995.64975
99997.00927
99998.1
99998.96325
99999.6279
100000.116
100000.5995
100000.2555
100001.4587
87339.21421
87463.78786
87595.66965
87775.16925
87984.44917
88239.89527
88531.64722
88885.14735
89293.47402
89778.25751
90341.08324
90997.92439
91755.61894
92624.25612
93608.14328
94706.80527
95910.24666
97195.85146
98525.36301
99844.63718
101087.9301
102187.0276
103083.1643
103737.574
104137.0623
104293.3398
104237.5066
104012.3695
103665.0299
103241.1272
102781.1099
102318.269
101878.0595
101478.2591
101129.6376
100836.9304
100599.9891
100415.0192
100275.8224
100174.9511
100104.6896
100057.7938
100027.963
100010.0569
100000.1157
99995.23868
99993.40607
99993.27599
99994.00046
99995.07245
99996.20917
99997.26802
99998.18923
99998.95793
99999.58514
100000.0762
100000.4417
100000.8297
100000.4267
100001.6231
88911.42208
89059.999
89211.50088
89418.2296
89651.79893
89939.55061
90266.21271
90661.08121
91115.62922
91652.42484
92272.61252
92991.07747
93813.31421
94746.19797
95789.58079
96936.08942
98166.68652
99448.06912
100731.656
101956.3064
103055.6647
103968.7707
104650.797
105080.145
105259.9332
105214.298
104981.6855
104607.5614
104138.245
103616.5539
103079.2291
102555.7453
102068.0695
101631.0126
101252.9432
100936.726
100680.8008
100480.3382
100328.3973
100217.0033
100138.0608
100084.0407
100048.4138
100025.8432
100012.1934
100004.4039
100000.3107
99998.44501
99997.84966
99997.92625
99998.31739
99998.82091
99999.33028
99999.7947
100000.1974
100000.5223
100000.7701
100001.0656
100000.6055
100001.7971
90592.53193
90768.83758
90940.20028
91174.49466
91433.62197
91755.00057
92117.90923
92555.14627
93056.59557
93645.29067
94321.92036
95099.49645
95981.37158
96969.90262
98058.85833
99232.37961
100461.4764
101702.8036
102900.2498
103990.4788
104912.1243
105616.042
106073.3844
106278.9129
106249.2055
106017.2212
105625.4864
105119.7596
104544.1907
103938.1768
103334.6715
102759.5339
102231.5598
101762.9271
101359.9051
101023.7389
100751.6567
100537.9481
100375.0474
100254.5427
100168.0295
100107.7503
100066.994
100040.2663
100023.2892
100012.8699
100006.7234
100003.2723
100001.4648
100000.6225
100000.3218
100000.3075
100000.4308
100000.6086
100000.7985
100000.9649
100001.1005
100001.3067
100000.7933
100001.9803
92369.06107
92574.76483
92765.81154
93030.7957
93317.07776
93673.12804
94073.63493
94554.60141
95104.44012
95745.65096
96478.15706
97311.817
98246.4745
99278.36688
100393.6854
101567.3251
102760.8757
103923.3408
104995.3119
105916.491
106635.182
107116.6821
107348.0574
107338.1377
107113.5745
106712.8003
106179.8111
105559.0018
104891.539
104213.1808
103553.2243
102934.2086
102372.0978
101876.758
101452.6341
101099.5734
100813.7653
100588.7498
100416.4362
100288.051
100194.9398
100129.1641
100083.8695
100053.4379
100033.4764
100020.6836
100012.6731
100007.7748
100004.8552
100003.1655
100002.2239
100001.7275
100001.4898
100001.3981
100001.3869
100001.4027
100001.432
100001.5528
100000.9871
100002.1724
94242.80715
94473.20634
94677.6507
94973.8919
95291.65471
95686.46886
96128.57811
96656.48494
97257.32385
97951.46287
98737.37465
99620.39042
100595.5216
101651.8429
102767.4042
103908.3639
105028.8677
106073.8871
106985.4286
107710.8057
108210.998
108466.3349
108478.1119
108266.1769
107863.9335
107312.5002
106655.4378
105934.7375
105188.2027
104447.9913
103739.9992
103083.7801
102492.8011
101974.9121
101532.977
101165.6379
100868.1924
100633.5427
100453.1561
100317.9617
100219.1041
100148.5032
100099.1942
100065.4631
100042.8251
100027.8906
100018.1885
100011.9699
100008.0306
100005.5604
100004.0257
100003.0813
100002.5067
100002.1624
100001.9615
100001.8348
100001.7639
100001.8029
100001.1799
100002.3745
96197.52421
96462.22279
96693.89726
97023.46115
97375.59454
97811.93827
98297.80156
98872.51041
99522.45666
100264.3764
101094.5692
102012.9394
103008.7812
104063.5995
105147.593
106219.7229
107229.6632
108122.4805
108845.9022
109358.0533
109633.7214
109667.1938
109471.3695
109073.9338
108512.1621
107827.7444
107062.5422
106255.5859
105441.2397
104648.2582
103899.4522
103211.7293
102596.3715
102059.4766
101602.5395
101223.1612
100915.8725
100673.031
100485.7329
100344.6622
100240.8038
100165.969
100113.1098
100076.4394
100051.4013
100034.5344
100023.2976
100015.875
100011.0013
100007.8128
100005.7299
100004.3697
100003.4811
100002.9004
100002.5211
100002.26
100002.0957
100002.0547
100001.3656
100002.5879
98277.24511
98579.71332
98838.33765
99201.33315
99586.29712
100061.4877
100587.9037
101203.5459
101894.5484
102673.0296
103532.2476
104465.989
105457.2579
106480.1389
107498.1119
108465.4004
109330.7831
110043.3943
110559.9288
110850.8683
110904.3046
110726.3375
110338.5312
109773.5288
109070.2095
108269.3657
107410.4181
106529.228
105656.8401
104818.8881
104035.4318
103321.0553
102685.1371
102132.2533
101662.7115
101273.2112
100957.6213
100707.8335
100514.6308
100368.4967
100260.291
100181.7432
100125.7451
100086.4568
100059.2662
100040.6561
100028.0271
100019.507
100013.7777
100009.9284
100007.3394
100005.5937
100004.4129
100003.6115
100003.0648
100002.6777
100002.4264
100002.3046
100001.5507
100002.8122
100477.0914
100819.4013
101105.1023
101499.8269
101914.1602
102422.7465
102983.9515
103632.3164
104353.3682
105153.8386
106023.1271
106948.4793
107906.6203
108865.2055
109783.058
110612.792
111305.8977
111818.7576
112118.8578
112189.0331
112029.0329
111654.1557
111091.8463
110377.3533
109549.5191
108647.3167
107707.3736
106762.4077
105840.3771
104964.1114
104151.2452
103414.3336
102761.0991
102194.7947
101714.6949
101316.7152
100994.1505
100738.492
100540.2588
100389.7707
100277.7903
100195.9888
100137.2168
100095.597
100066.4766
100046.294
100032.4024
100022.882
100016.3695
100011.913
100008.857
100006.7545
100005.3024
100004.2951
100003.5917
100003.087
100002.7549
100002.5501
100001.7459
100003.0433
102784.6348
103163.9385
103471.6841
103896.9103
104338.9634
104875.8084
105464.9435
106136.1016
106873.7097
107678.5338
108535.7069
109426.1164
110320.9841
111183.3402
111970.0375
112635.3129
113136.3767
113438.8314
113521.3539
113377.9666
113017.8397
112462.8663
111744.0114
110897.3638
109960.6436
108970.5039
107960.697
106960.9649
105996.4666
105087.5471
104249.7175
103493.7655
102825.9714
102248.4345
101759.5263
101354.4762
101026.0793
100765.4808
100562.9768
100408.754
100293.5018
100208.8521
100147.63
100103.9347
100073.0843
100051.4835
100036.4472
100026.0156
100018.7866
100013.7724
100010.286
100007.8535
100006.1497
100004.951
100004.1011
100003.4872
100003.0802
100002.7901
100001.9541
100003.2777
105193.0442
105605.1899
105931.809
106381.4549
106845.9918
107402.936
108009.6229
108690.0295
109427.1625
110215.4733
111035.7515
111863.2796
112665.2173
113402.3001
114032.2263
114513.6224
114811.4075
114901.0933
114771.8105
114426.9306
113882.6877
113165.2773
112307.3516
111344.6191
110313.0354
109246.7359
108176.6879
107129.9029
106129.0439
105192.2741
104333.2527
103561.2274
102881.2196
102294.3174
101798.0986
101387.1894
101053.9461
100789.2141
100583.1005
100425.6848
100307.603
100220.4636
100157.0794
100111.5372
100079.1366
100056.2572
100040.1833
100028.9221
100021.038
100015.512
100011.6293
100008.8922
100006.9553
100005.5786
100004.5923
100003.8778
100003.4009
100003.0241
100002.1763
100003.5132
107684.2075
108124.5437
108466.5856
108933.2678
109412.8086
109979.7585
110591.5204
111265.1708
111982.2228
112731.0257
113488.5384
114225.8267
114907.9327
115495.7537
115950.281
116236.4414
116327.7262
116209.1785
115878.9347
115347.6512
114636.471
113774.0507
112793.4128
111729.1158
110615.0355
109482.7927
108360.76
107273.4952
106241.4608
105280.9141
104403.9005
103618.3234
102928.1005
102333.4291
101831.1845
101415.4586
101078.2207
100810.0551
100600.9082
100440.774
100320.252
100230.94
100165.65
100118.4657
100084.6767
100060.6452
100043.6314
100031.6151
100023.1324
100017.1373
100012.8901
100009.8719
100007.7196
100006.1778
100005.0649
100004.2582
100003.7155
100003.2521
100002.4129
100003.7476
110243.2745
110704.3324
111057.0354
111532.9486
112017.5941
112581.1265
113182.3205
113830.4857
114505.7462
115191.1473
115860.8199
116483.3107
117023.5395
117444.6955
117712.8036
117800.0421
117688.3757
117371.2937
116854.192
116153.0477
115292.1251
114301.1736
113212.7127
112059.7247
110873.915
109684.5157
108517.5441
107395.3834
106336.57
105355.6998
104463.4104
103666.4272
102967.6949
102366.6203
101859.4534
101439.8093
101099.314
100828.3225
100616.6452
100454.2086
100331.5892
100240.3858
100173.4183
100124.7756
100089.7441
100064.6749
100046.8102
100034.1074
100025.0783
100018.6533
100014.0713
100010.7943
100008.4431
100006.7485
100005.5184
100004.6278
100004.0227
100003.4743
100002.6635
100003.9789
112850.0372
113321.2855
113678.1445
114153.4866
114631.8127
115176.1468
115748.846
116351.6193
116963.4195
117563.0219
118122.9372
118610.9075
118993.4882
119237.7438
119315.6924
119206.8785
118900.9736
118398.4867
117710.339
116856.1471
115861.9252
114757.5702
113574.574
112344.1593
111095.9159
109856.879
108650.9656
107498.6495
106416.787
105418.526
104513.2719
103706.713
103000.9303
102394.625
101883.4856
101460.6994
101117.5851
100844.2963
100630.5279
100466.1539
100341.7399
100248.8946
100180.4534
100130.5169
100094.3745
100068.3717
100049.7374
100036.4107
100026.8833
100020.0651
100015.1759
100011.661
100009.1265
100007.2906
100005.9525
100004.9861
100004.3208
100003.691
100002.9276
100004.2045
115486.4283
115953.7591
116301.9562
116759.4026
117218.1718
117727.8796
118254.7134
118793.4997
119322.5231
119817.4885
120250.5766
120590.3083
120806.2351
120870.2498
120760.6122
120463.7348
119975.8694
119303.0607
118460.2226
117469.2828
116357.0233
115152.8865
113887.0674
112589.0097
111286.3259
110004.0771
108764.3292
107585.8895
106484.1516
105470.9985
104554.7535
103740.1856
103028.6051
102418.078
101903.7856
101478.5283
101133.3491
100858.2234
100642.7478
100476.7573
100350.816
100256.5502
100186.8174
100135.7351
100098.6008
100071.7589
100052.4291
100038.5362
100028.5549
100021.3774
100016.2067
100012.4733
100009.7702
100007.8041
100006.3671
100005.3324
100004.6082
100003.9031
100003.2046
100004.4202
118106.5774
118554.1862
118886.2148
119315.095
119741.2255
120201.9717
120667.3743
121126.0975
121556.4961
121932.5356
122227.2615
122411.232
122457.8356
122344.1384
122054.3455
121580.8844
120925.3585
120097.9955
119116.4575
118004.0013
116787.5214
115495.6611
114157.2251
112799.9576
111449.6759
110129.693
108860.4568
107659.3243
106540.414
105514.5014
104588.9533
103767.7199
103051.4175
102437.5371
101920.7987
101493.6505
101146.8866
100870.3242
100653.4768
100486.1512
100358.9185
100263.429
100192.5672
100140.472
100102.4533
100074.8581
100054.9007
100040.4946
100030.1002
100022.5948
100017.1666
100013.2331
100010.3752
100008.2892
100006.7622
100005.6659
100004.8835
100004.1121
100003.4931
100004.6207
120668.2406
121088.988
121398.6579
121787.8504
122169.7366
122568.5528
122959.0449
123324.7808
123644.9023
123892.8412
124043.3831
124069.9209
123950.0053
123665.7397
123206.6464
122570.1833
121762.1494
120795.8276
119690.6817
118470.617
117162.2379
115793.2276
114391.0198
112981.7953
111589.7729
110236.7344
108941.7198
107720.8253
106587.0558
105550.212
104616.8114
103790.0689
103069.9727
102453.4889
101934.9152
101506.3782
101158.4459
100880.7949
100662.8685
100494.4548
100366.1388
100269.6002
100197.7546
100144.7661
100105.9601
100077.6897
100057.1664
100042.2957
100031.5261
100023.7218
100018.0586
100013.9421
100010.9421
100008.7462
100007.1379
100005.986
100005.1458
100004.3197
100003.7889
100004.8025
123156.2257
123534.9568
123811.6689
124148.999
124475.111
124801.0814
125106.3514
125370.335
125573.4094
125689.4126
125695.3788
125567.9044
125288.6296
124844.2602
124228.8671
123443.9824
122498.6116
121408.2127
120193.3742
118878.2092
117488.8149
116051.8763
114593.5444
113138.5993
111709.8567
110327.7674
109010.1506
107772.0054
106625.3618
105579.1585
104639.1538
103807.8986
103084.8081
102466.3672
101946.4848
101516.9921
101168.2509
100889.8129
100671.0621
100501.7764
100372.5605
100275.1275
100202.4276
100148.6529
100109.1474
100080.2726
100059.2401
100043.9492
100032.8392
100024.763
100018.8856
100014.6019
100011.472
100009.1756
100007.4942
100006.2915
100005.3946
100004.527
100004.0842
100004.9716
125519.9449
125850.3665
126090.1174
126369.251
126632.5953
126878.9846
127092.971
127251.0512
127335.1682
127320.2592
127185.7931
126911.6133
126483.1392
125891.1116
125133.3857
124214.7293
123146.5648
121945.8758
120633.9172
119234.7485
117773.8687
116277.0032
114769.1439
113273.8388
111812.6849
110404.9815
109067.4902
107814.254
106656.4456
105602.2377
104656.7058
103821.7971
103096.4016
102476.5598
101955.8214
101525.7449
101176.5042
100897.5391
100678.1846
100508.2151
100378.26
100280.0692
100206.6303
100152.1655
100112.0397
100082.6248
100061.1345
100045.4644
100034.0459
100025.7228
100019.6504
100015.2144
100011.9657
100009.5778
100007.8312
100006.5818
100005.6299
100004.7346
100004.3732
100005.1343
127747.4799
128019.411
128214.7944
128429.0978
128624.3809
128787.813
128908.5796
128961.1357
128928.8776
128788.2093
128520.9941
128110.179
127544.5499
126818.301
125932.3866
124894.1247
123716.7566
122418.3365
121020.4957
119547.1055
118023.0593
116473.2062
114921.5172
113390.4724
111900.6183
110470.2617
109115.2476
107848.7841
106681.2872
105620.2449
104670.1153
103832.2935
103105.185
102484.4188
101963.2109
101532.868
101183.3914
100904.1215
100684.3529
100513.8626
100383.3083
100284.4799
100210.4043
100155.3353
100114.6601
100084.7632
100062.8621
100046.85
100035.1525
100026.6054
100020.356
100015.7813
100012.4243
100009.9537
100008.1492
100006.8561
100005.8522
100004.9421
100004.6513
100005.2896
129796.6303
130008.7767
130160.0996
130309.5349
130437.0333
130519.3368
130549.4903
130500.934
130358.443
130100.1703
129710.2554
129174.5153
128484.6692
127637.8239
126637.459
125492.9075
124218.7955
122833.9433
121360.1902
119821.1701
118241.2136
116644.3989
115053.8158
113491.029
111975.6857
110525.2389
109154.7392
107876.6635
106700.7568
105633.8925
104679.9671
103839.8683
103111.5533
102490.2679
101968.9177
101538.5755
101189.0854
100909.6984
100689.6767
100518.8049
100387.7728
100288.4116
100213.7892
100158.1921
100117.0313
100086.7046
100064.435
100048.115
100036.1653
100027.4155
100021.0054
100016.3048
100012.8493
100010.3042
100008.4483
100007.114
100006.0621
100005.1478
100004.9134
100005.4392
131653.4884
131806.2356
131916.7132
132004.7421
132067.4609
132073.364
132018.339
131875.711
131631.4809
131265.6651
130764.4661
130116.274
129315.322
128361.1573
127259.323
126020.7645
124661.1894
123199.9922
121659.1356
120062.021
118432.4881
116793.9558
115168.7668
113577.71
112039.6663
110571.3555
109187.1394
107898.8531
106715.6444
105643.8321
104686.7997
103844.967
103115.874
102494.4092
101973.1889
101543.0689
101193.7486
100914.4002
100694.2597
100523.124
100391.7172
100291.9138
100216.8231
100160.7648
100119.1748
100088.4653
100065.8654
100049.2682
100037.0908
100028.1574
100021.6018
100016.7869
100013.2419
100010.63
100008.7287
100007.3554
100006.26
100005.3495
100005.1586
100005.59
133314.4954
133412.9019
133485.6891
133517.3171
133519.4955
133455.2159
133322.1557
133094.1118
132758.0258
132295.7319
131695.2251
130947.1453
130047.8593
128998.9568
127807.6834
126486.302
125051.3964
123522.8215
121922.634
120274.0405
118600.4729
116924.8028
115268.7495
113652.4509
112094.1384
110609.9038
109213.5114
107916.2313
106726.6786
105650.6694
104691.1174
103848.0084
103118.4941
102497.1292
101976.2594
101546.5394
101197.536
100918.3511
100698.2009
100526.8981
100395.2031
100295.0342
100219.5425
100163.0815
100121.1119
100090.061
100067.165
100050.3181
100037.9351
100028.8357
100022.1485
100017.2298
100013.6037
100010.9325
100008.9906
100007.58
100006.4459
100005.5456
100005.3946
100005.7445
134790.4351
134837.8878
134873.5764
134854.1445
134801.0983
134673.9683
134471.1298