/*--------------------------------*- C++ -*----------------------------------*\
  =========                 |
  \\      /  F ield         | OpenFOAM: The Open Source CFD Toolbox
   \\    /   O peration     | Website:  https://openfoam.org
    \\  /    A nd           | Version:  12
     \\/     M anipulation  |
\*---------------------------------------------------------------------------*/
FoamFile
{
    format      ascii;
    class       volScalarField;
    location    "0.114";
    object      Ma;
}
// * * * * * * * * * * * * * * * * * * * * * * * * * * * * * * * * * * * * * //

dimensions      [];

internalField   nonuniform List<scalar> 
16000
(
0.62589007
0.74330873
0.69847669
0.72303053
0.70807202
0.71494082
0.70927401
0.71076548
0.70813154
0.70767763
0.70605688
0.704919
0.70350386
0.70212211
0.70065831
0.69914801
0.69758003
0.69595591
0.69427444
0.69253511
0.69073756
0.68888161
0.68696736
0.68499518
0.68296576
0.6808801
0.6787396
0.67654599
0.67430146
0.67200857
0.66967032
0.66729013
0.66487186
0.66241977
0.6599385
0.65743308
0.65490886
0.65237146
0.64982675
0.64728077
0.64473966
0.6422096
0.63969671
0.63720703
0.6347464
0.63232039
0.62993426
0.6275929
0.62530076
0.62306183
0.6208796
0.61875703
0.61669654
0.61469997
0.61276861
0.61090315
0.60910374
0.60737001
0.60570112
0.60409565
0.60255168
0.60106706
0.59963931
0.59826525
0.59694105
0.59566211
0.59442319
0.59321833
0.59204077
0.59088274
0.58973578
0.58859141
0.58744219
0.58628253
0.58510698
0.58394148
0.58252283
0.58190894
0.57925018
0.58012581
0.63037207
0.74854106
0.70207448
0.72768192
0.71189861
0.71923599
0.71312015
0.71473414
0.71191642
0.71139223
0.70968372
0.70843093
0.70692447
0.70542879
0.70385644
0.70222961
0.70054245
0.69879483
0.69698618
0.69511605
0.69318432
0.69119111
0.68913687
0.68702234
0.6848487
0.68261744
0.68033052
0.67799029
0.67559958
0.67316165
0.67068023
0.6681595
0.66560409
0.66301904
0.66040978
0.65778208
0.65514201
0.65249587
0.64985013
0.64721134
0.64458607
0.64198081
0.63940189
0.63685542
0.63434717
0.63188255
0.62946654
0.62710362
0.62479774
0.62255231
0.62037018
0.61825362
0.61620431
0.61422338
0.61231139
0.61046833
0.60869368
0.60698643
0.60534515
0.60376794
0.60225239
0.60079588
0.59939556
0.59804797
0.59674901
0.59549392
0.5942773
0.59309311
0.59193454
0.59079381
0.58966227
0.58853091
0.58739211
0.58624211
0.58507585
0.58386567
0.58261889
0.58158299
0.57958156
0.57978274
0.63456696
0.75333632
0.70561306
0.73174955
0.71550993
0.7229505
0.71667556
0.71817938
0.71530606
0.7146257
0.71284872
0.71145829
0.7098474
0.70822491
0.70652798
0.70477007
0.70294792
0.70106114
0.69910942
0.69709262
0.69501098
0.69286501
0.69065563
0.68838409
0.68605214
0.68366189
0.68121598
0.67871751
0.67617009
0.67357784
0.67094535
0.66827773
0.66558051
0.66285968
0.66012155
0.65737277
0.65462022
0.65187092
0.64913197
0.64641044
0.64371327
0.64104719
0.63841861
0.63583359
0.63329767
0.63081591
0.62839278
0.62603214
0.62373724
0.62151069
0.61935446
0.61726991
0.61525783
0.61331843
0.61145137
0.6096558
0.6079304
0.60627344
0.60468278
0.60315596
0.60169006
0.60028196
0.59892841
0.59762561
0.59636922
0.59515427
0.59397521
0.59282593
0.59169963
0.5905886
0.58948407
0.58837684
0.58725974
0.58612933
0.58497554
0.58377621
0.58259384
0.58140335
0.57970942
0.57958354
0.63840483
0.75771922
0.70865661
0.73531575
0.71866694
0.72621533
0.71977449
0.7211485
0.71821074
0.71735455
0.71549462
0.71395029
0.71221685
0.71045127
0.70861217
0.7067063
0.7047324
0.70269002
0.70057924
0.69840026
0.69615374
0.69384066
0.69146245
0.689021
0.6865187
0.68395844
0.68134368
0.67867844
0.6759673
0.67321538
0.67042835
0.66761239
0.66477412
0.66192056
0.65905904
0.65619713
0.65334254
0.65050299
0.64768614
0.64489946
0.64215013
0.6394449
0.63679007
0.63419136
0.63165386
0.62918197
0.62677939
0.62444911
0.62219339
0.62001379
0.61791123
0.61588596
0.6139377
0.6120656
0.61026833
0.60854412
0.60689079
0.60530583
0.60378642
0.60232949
0.60093162
0.59958926
0.59829875
0.59705603
0.59585653
0.59469511
0.59356613
0.59246346
0.59138033
0.59030913
0.58924107
0.58816697
0.58708005
0.58597599
0.58484271
0.5836716
0.58251255
0.58127913
0.57979619
0.57939477
0.6418682
0.7616201
0.71145921
0.73825108
0.72121136
0.72891922
0.72235994
0.72354546
0.72056109
0.71949497
0.71754142
0.71582548
0.71395101
0.71202672
0.71002847
0.70795859
0.70581686
0.70360301
0.70131738
0.69896058
0.69653374
0.69403839
0.69147669
0.68885127
0.68616544
0.68342308
0.68062876
0.67778764
0.67490554
0.67198887
0.66904457
0.66608011
0.66310334
0.66012247
0.6571459
0.65418215
0.65123971
0.64832692
0.64545185
0.64262217
0.63984504
0.63712698
0.63447385
0.63189072
0.62938187
0.62695073
0.62459992
0.62233122
0.62014566
0.61804351
0.6160244
0.61408734
0.61223079
0.61045278
0.6087509
0.60712242
0.60556427
0.60407316
0.60264561
0.60127799
0.59996642
0.59870694
0.59749557
0.59632804
0.59519958
0.59410497
0.5930385
0.59199405
0.59096498
0.58994379
0.58892184
0.58789016
0.5868421
0.58577229
0.58467001
0.58353559
0.58239621
0.58116141
0.5798159
0.57925233
0.64490728
0.76495418
0.71380305
0.74073305
0.72341538
0.73098404
0.72429469
0.7252926
0.72226496
0.72097474
0.71891537
0.71701686
0.71498541
0.71288941
0.7107167
0.70846724
0.70614126
0.70373886
0.70126083
0.6987084
0.69608344
0.69338835
0.6906263
0.68780105
0.68491716
0.68197986
0.67899515
0.67596969
0.67291082
0.6698265
0.6667252
0.66361583
0.66050763
0.65741001
0.65433245
0.65128433
0.64827477
0.64531251
0.64240575
0.63956201
0.63678807
0.63408983
0.63147227
0.62893942
0.62649433
0.62413909
0.62187486
0.61970193
0.61761982
0.61562729
0.6137225
0.61190309
0.61016621
0.60850869
0.60692706
0.6054176
0.60397644
0.60259958
0.60128291
0.60002233
0.59881357
0.59765238
0.59653455
0.59545563
0.5944108
0.59339478
0.59240188
0.59142604
0.59046078
0.58949882
0.58853175
0.58755096
0.58654971
0.58552195
0.58445982
0.58336825
0.58225465
0.58103951
0.57981098
0.57911865
0.64749351
0.76770535
0.71569773
0.74272316
0.72515721
0.73239133
0.72573318
0.72635645
0.72334145
0.72177322
0.71959373
0.71750157
0.71529327
0.7130071
0.71063858
0.70818716
0.70565362
0.70303886
0.70034454
0.69757287
0.69472688
0.69181025
0.68882755
0.68578409
0.68268605
0.67954042
0.67635498
0.67313821
0.66989931
0.666648
0.66339446
0.66014915
0.6569227
0.65372569
0.65056851
0.64746116
0.64441309
0.64143303
0.63852886
0.63570752
0.63297487
0.63033565
0.62779349
0.62535085
0.62300912
0.62076862
0.61862874
0.61658796
0.61464406
0.61279413
0.61103479
0.6093622
0.60777223
0.60626054
0.60482264
0.60345396
0.60214987
0.60090578
0.59971712
0.59857939
0.59748808
0.59643875
0.59542706
0.59444853
0.59349833
0.59257123
0.59166162
0.59076357
0.58987079
0.5889763
0.5880721
0.58714996
0.58620296
0.58522483
0.58421111
0.58316857
0.5820892
0.58090804
0.57977485
0.57898645
0.64966902
0.76990429
0.71718421
0.74425001
0.72649062
0.73336384
0.72668272
0.72717588
0.72375779
0.72191258
0.71957735
0.71726531
0.7148459
0.71233779
0.70974072
0.70705481
0.70428163
0.70142317
0.69848229
0.69546256
0.69236853
0.68920558
0.68598009
0.68269936
0.67937164
0.67600603
0.67261249
0.66920167
0.66578482
0.66237364
0.65898006
0.65561609
0.65229361
0.64902411
0.64581854
0.64268709
0.63963899
0.63668241
0.6338243
0.63107031
0.62842475
0.6258906
0.6234695
0.62116186
0.61896691
0.61688285
0.61490696
0.61303574
0.61126505
0.60959029
0.60800647
0.60650838
0.60509068
0.60374798
0.60247491
0.6012662
0.60011666
0.59902124
0.59797508
0.59697345
0.59601173
0.59508544
0.59419025
0.59332173
0.59247516
0.59164545
0.59082715
0.5900145
0.58920149
0.58838151
0.58754708
0.58669038
0.58580425
0.58488275
0.5839246
0.58293624
0.58189911
0.58076636
0.57971118
0.57885421
0.65150034
0.77157796
0.71821956
0.74531154
0.72717176
0.73340012
0.72680996
0.72650927
0.72346885
0.72133915
0.71879915
0.71623125
0.71355882
0.7107896
0.70792514
0.70496678
0.70191713
0.69877959
0.69555861
0.6922596
0.68888911
0.68545473
0.6819652
0.67843029
0.67486082
0.67126848
0.66766575
0.66406571
0.66048187
0.6569279
0.65341742
0.64996372
0.64657956
0.64327685
0.6400665
0.63695815
0.6339601
0.6310791
0.62832032
0.62568735
0.62318218
0.62080531
0.61855581
0.61643152
0.61442912
0.6125444
0.61077236
0.6091074
0.60754353
0.60607445
0.60469375
0.60339499
0.6021718
0.60101796
0.59992748
0.59889456
0.5979137
0.59697961
0.59608729
0.595232
0.59440915
0.59361436
0.59284345
0.59209217
0.59135602
0.59063013
0.58990928
0.58918796
0.58846047
0.58772065
0.58696165
0.58617606
0.5853566
0.58449799
0.58360138
0.58267096
0.5816828
0.580612
0.57962554
0.57871013
0.65298591
0.77270073
0.7187316
0.74571
0.7271336
0.73289535
0.72633819
0.72565686
0.72241309
0.71993276
0.71713853
0.71427739
0.71130872
0.70823619
0.70506242
0.70179051
0.69842474
0.69497051
0.6914345
0.6878246
0.68415008
0.6804214
0.67665036
0.67284981
0.66903367
0.66521664
0.66141405
0.65764156
0.65391486
0.65024942
0.64666015
0.64316109
0.63976514
0.63648381
0.633327
0.6303028
0.62741748
0.62467533
0.62207877
0.6196284
0.61732309
0.61516018
0.61313567
0.61124444
0.60948041
0.60783683
0.60630645
0.60488168
0.6035548
0.60231811
0.60116399
0.60008509
0.5990743
0.59812487
0.59723045
0.59638502
0.59558298
0.59481905
0.59408833
0.5933862
0.5927083
0.5920505
0.59140888
0.59077949
0.59015813
0.58954025
0.58892095
0.58829502
0.58765711
0.5870016
0.58632231
0.58561226
0.58486426
0.58407393
0.58324353
0.5823738
0.58144097
0.58044229
0.57951703
0.57855661
0.65406417
0.77317098
0.71864338
0.74458253
0.72632442
0.73154618
0.72508149
0.72380555
0.72043224
0.7175766
0.7144709
0.71127105
0.70795719
0.70453331
0.70100333
0.69737269
0.69364812
0.68983779
0.68595149
0.6820005
0.67799766
0.67395721
0.66989472
0.66582681
0.66177099
0.65774526
0.65376787
0.64985688
0.64602986
0.64230344
0.63869299
0.63521227
0.63187317
0.62868546
0.62565667
0.622792
0.62009434
0.61756435
0.61520063
0.61299989
0.61095722
0.60906635
0.60731988
0.60570961
0.60422675
0.60286217
0.60160658
0.60045074
0.59938559
0.59840235
0.59749264
0.59664855
0.59586262
0.59512793
0.59443807
0.59378711
0.59316961
0.59258053
0.59201526
0.59146951
0.59093929
0.59042084
0.58991063
0.58940509
0.58890041
0.58839247
0.58787671
0.58734829
0.58680226
0.58623361
0.5856368
0.58500534
0.58433253
0.58361484
0.58285403
0.58204732
0.5811767
0.58025747
0.57938494
0.57839146
0.65464401
0.77282279
0.71784161
0.74278712
0.72489724
0.72928066
0.72289141
0.72101042
0.71740456
0.71413331
0.71065251
0.70705918
0.70334427
0.69951439
0.69557575
0.69153697
0.68740835
0.68320203
0.67893209
0.67461437
0.67026639
0.66590707
0.66155651
0.65723561
0.6529657
0.64876803
0.64466344
0.64067177
0.63681144
0.63309902
0.62954886
0.62617277
0.62297984
0.61997632
0.61716563
0.61454845
0.61212293
0.60988495
0.60782838
0.60594546
0.60422715
0.6026634
0.60124354
0.59995652
0.59879117
0.59773642
0.59678146
0.59591591
0.59512986
0.59441401
0.59375967
0.59315881
0.59260405
0.59208865
0.59160648
0.59115197
0.59072009
0.59030628
0.58990638
0.5895166
0.58913343
0.5887536
0.58837406
0.58799168
0.58760315
0.58720477
0.58679245
0.58636174
0.58590817
0.58542727
0.58491412
0.58436289
0.58376775
0.5831258
0.5824367
0.58169507
0.58089345
0.58005901
0.5792316
0.57821597
0.65466327
0.77158192
0.71618992
0.74026165
0.72260057
0.72599828
0.71964371
0.71710331
0.71318257
0.70944461
0.70551653
0.70146346
0.69728219
0.69298352
0.68857758
0.68407769
0.67949933
0.67486019
0.67018015
0.66548088
0.66078566
0.65611889
0.65150568
0.6469713
0.64254062
0.63823748
0.63408416
0.63010073
0.62630461
0.62271013
0.61932827
0.61616649
0.61322878
0.61051573
0.60802481
0.60575068
0.60368564
0.60181997
0.60014246
0.59864076
0.59730185
0.59611229
0.59505864
0.59412763
0.59330638
0.5925826
0.59194463
0.5913816
0.59088339
0.59044074
0.59004515
0.58968895
0.58936522
0.58906774
0.58879096
0.58852993
0.58828024
0.58803798
0.5877996
0.58756191
0.58732199
0.58707715
0.58682484
0.58656248
0.58628724
0.58599595
0.58568498
0.58535037
0.58498812
0.58459425
0.58416441
0.58369358
0.58317722
0.58261256
0.58199601
0.58132108
0.58059392
0.57984745
0.57906171
0.57803564
0.65410245
0.76935082
0.71361759
0.7366455
0.71929524
0.72158562
0.7151896
0.71193856
0.70759243
0.70331648
0.69885604
0.69426285
0.68953897
0.68470111
0.6797657
0.67475281
0.66968509
0.66458754
0.65948732
0.65441313
0.64939479
0.64446255
0.63964639
0.63497525
0.63047625
0.6261739
0.6220895
0.61824049
0.61464016
0.61129738
0.60821667
0.60539832
0.60283875
0.60053094
0.59846496
0.59662857
0.5950077
0.59358708
0.59235069
0.59128219
0.5903653
0.58958413
0.58892334
0.58836839
0.58790564
0.58752238
0.58720693
0.58694864
0.58673782
0.58656577
0.5864247
0.58630768
0.58620859
0.58612204
0.58604329
0.5859682
0.58589315
0.58581497
0.58573087
0.58563831
0.58553502
0.58541894
0.58528808
0.58514037
0.58497355
0.58478495
0.58457148
0.58432971
0.5840561
0.58374706
0.58339873
0.58300714
0.58256918
0.58208163
0.58153716
0.58092989
0.58027992
0.5796201
0.57887669
0.57785994
0.65290345
0.76595935
0.71007089
0.7318585
0.71482227
0.7158743
0.70932924
0.70529954
0.70040071
0.69549195
0.69039924
0.68517296
0.679823
0.67437435
0.6688524
0.6632863
0.65770788
0.65215117
0.64665189
0.64124657
0.63597174
0.63086284
0.62595325
0.62127321
0.61684889
0.61270169
0.60884767
0.60529732
0.60205559
0.5991221
0.59649166
0.59415485
0.59209872
0.59030758
0.58876368
0.58744795
0.5863406
0.58542164
0.58467138
0.5840707
0.58360139
0.58324628
0.58298942
0.58281607
0.5827128
0.58266744
0.58266902
0.58270777
0.582775
0.58286306
0.58296524
0.58307568
0.58318932
0.58330179
0.58340934
0.58350875
0.58359729
0.58367262
0.5837327
0.58377576
0.58380017
0.58380449
0.58378731
0.5837471
0.58368211
0.58359025
0.58346896
0.58331535
0.58312635
0.58289866
0.58262886
0.58231419
0.58195279
0.58154037
0.58106633
0.58052743
0.57995512
0.5793748
0.57867159
0.57769714
0.6510114
0.7611699
0.70559173
0.72570872
0.70897481
0.70863955
0.70179387
0.69688953
0.69128915
0.68563002
0.67979414
0.67383754
0.66778167
0.66166236
0.65551669
0.64938536
0.64331152
0.63733976
0.63151509
0.62588148
0.62048048
0.61534978
0.6105219
0.6060232
0.60187316
0.59808404
0.594661
0.59160245
0.5889007
0.58654289
0.58451191
0.58278741
0.58134678
0.58016604
0.57922061
0.578486
0.57793827
0.57755449
0.57731301
0.57719364
0.57717777
0.57724842
0.57739022
0.57758937
0.57783359
0.57811198
0.57841498
0.57873422
0.57906245
0.57939339
0.57972168
0.58004276
0.58035275
0.58064843
0.58092713
0.58118659
0.58142501
0.58164089
0.58183296
0.58200019
0.58214161
0.58225638
0.58234364
0.5824024
0.58243141
0.58242911
0.58239352
0.58232231
0.58221281
0.58206196
0.58186687
0.58162591
0.58133795
0.58099712
0.58059113
0.58012188
0.5796275
0.57911606
0.57844419
0.57754335
0.64836877
0.75459623
0.70007032
0.71793388
0.70144563
0.69953625
0.69219662
0.68629587
0.67983467
0.67329815
0.66661029
0.65983685
0.65301523
0.64619575
0.63943074
0.6327754
0.62628595
0.62001773
0.61402323
0.60835002
0.60303897
0.59812279
0.59362516
0.58956026
0.58593301
0.58273967
0.57996882
0.57760263
0.57561817
0.57398882
0.57268552
0.57167793
0.5709354
0.57042777
0.57012597
0.57000249
0.57003163
0.57018974
0.57045524
0.57080864
0.57123251
0.57171136
0.57223153
0.57278103
0.57334947
0.57392783
0.57450839
0.57508453
0.57565069
0.57620218
0.57673511
0.57724629
0.5777331
0.57819349
0.57862584
0.57902889
0.57940171
0.57974363
0.58005412
0.58033282
0.58057943
0.58079366
0.58097518
0.58112348
0.5812378
0.58131708
0.58135992
0.58136453
0.58132858
0.58124935
0.58112458
0.58095352
0.58073487
0.58046099
0.58012059
0.57972303
0.57930662
0.57885193
0.57820163
0.5773925
0.64484224
0.74557077
0.69289149
0.70808292
0.69177877
0.68808965
0.68003259
0.67300244
0.66552328
0.65798562
0.65035228
0.64270403
0.63510081
0.62761289
0.62031148
0.61326748
0.60654831
0.60021493
0.59431937
0.58890262
0.58399351
0.57960818
0.57575054
0.57241326
0.56957925
0.56722352
0.56531505
0.56381867
0.56269673
0.56191063
0.561422
0.56119365
0.56119027
0.56137886
0.56172905
0.56221324
0.56280656
0.56348684
0.56423447
0.56503224
0.56586515
0.56672022
0.56758629
0.56845381
0.56931472
0.57016221
0.57099061
0.57179526
0.57257234
0.57331879
0.57403222
0.57471077
0.57535308
0.57595818
0.57652547
0.57705461
0.5775455
0.5779982
0.57841288
0.57878979
0.57912924
0.57943146
0.57969658
0.57992454
0.58011505
0.58026752
0.58038105
0.58045435
0.58048546
0.58047214
0.5804129
0.58030744
0.58015331
0.57994143
0.5796643
0.57933973
0.5789996
0.57859235
0.5779602
0.57725142
0.64014488
0.73408779
0.68362705
0.69559484
0.67939513
0.6737392
0.66470138
0.65639066
0.64774143
0.63909588
0.63046433
0.62195129
0.6136459
0.60564133
0.59802562
0.59087833
0.58426662
0.57824246
0.57284102
0.56808026
0.56396175
0.56047228
0.55758625
0.5552683
0.55347602
0.55216256
0.55127885
0.55077551
0.55060436
0.55071949
0.55107801
0.55164047
0.55237115
0.55323801
0.55421261
0.55526999
0.55638834
0.5575488
0.55873514
0.55993352
0.5611322
0.5623213
0.56349257
0.56463919
0.56575559
0.56683725
0.56788062
0.56888291
0.56984204
0.5707565
0.57162527
0.57244777
0.57322376
0.57395328
0.57463662
0.57527427
0.57586685
0.5764151
0.57691978
0.57738169
0.57780166
0.5781804
0.57851846
0.5788162
0.57907373
0.57929089
0.57946725
0.57960186
0.57969324
0.57973981
0.57974096
0.57969631
0.5796016
0.57944711
0.57923115
0.5789789
0.57871133
0.57834837
0.57774244
0.57710219
0.63391553
0.72117807
0.67171805
0.67988397
0.66357836
0.65576496
0.6454363
0.63567478
0.62573823
0.615952
0.60638612
0.59717435
0.58843214
0.58026565
0.57276295
0.56599076
0.55999219
0.55478654
0.55037078
0.54672232
0.54380268
0.5415614
0.53994001
0.53887558
0.53830371
0.53816102
0.53838682
0.53892441
0.53972181
0.54073206
0.54191334
0.54322879
0.54464626
0.54613794
0.54767994
0.54925193
0.5508367
0.55241978
0.55398914
0.55553482
0.55704866
0.55852407
0.55995578
0.56133968
0.56267261
0.56395227
0.56517702
0.56634584
0.5674582
0.56851398
0.56951342
0.57045702
0.57134552
0.57217985
0.57296107
0.57369036
0.57436898
0.57499819
0.57557931
0.5761136
0.5766023
0.57704656
0.5774473
0.57780527
0.57812093
0.57839452
0.57862594
0.57881456
0.57895936
0.57905965
0.57911559
0.57912631
0.57908576
0.57898486
0.57882838
0.57864565
0.57844316
0.57811847
0.57754496
0.57698326
0.62582808
0.70427179
0.65633302
0.66006468
0.64328646
0.63310971
0.62120671
0.60989146
0.59869798
0.58794611
0.57776213
0.56829595
0.55966406
0.55195387
0.54521851
0.53947759
0.53471986
0.53090778
0.5279833
0.52587384
0.52449801
0.52377059
0.52360657
0.52392416
0.52464682
0.52570459
0.52703462
0.52858134
0.53029619
0.53213725
0.53406862
0.53605981
0.53808518
0.54012326
0.54215624
0.54416948
0.546151
0.54809115
0.54998221
0.55181814
0.55359428
0.55530715
0.55695427
0.55853398
0.56004532
0.5614879
0.56286182
0.56416756
0.56540592
0.56657798
0.56768501
0.56872844
0.56970984
0.57063085
0.57149318
0.57229859
0.57304883
0.57374561
0.57439069
0.57498571
0.57553228
0.57603187
0.57648575
0.57689501
0.57726046
0.57758265
0.57786174
0.57809734
0.57828898
0.57843678
0.57854143
0.57860135
0.57860946
0.57855894
0.5784605
0.57834323
0.57819675
0.57790386
0.57736795
0.5768974
0.61523931
0.68239844
0.63608011
0.63472171
0.61704613
0.60438691
0.59084043
0.57813564
0.56605572
0.55489704
0.54480069
0.53588716
0.52822192
0.52182339
0.51666604
0.51268857
0.50980292
0.50790361
0.50687614
0.50660405
0.50697428
0.50788084
0.50922707
0.51092675
0.51290429
0.51509443
0.51744147
0.51989836
0.52242577
0.52499102
0.52756723
0.53013244
0.53266885
0.53516219
0.53760114
0.53997684
0.54228248
0.54451298
0.54666466
0.548735
0.55072248
0.55262634
0.5544465
0.55618341
0.55783794
0.55941131
0.56090505
0.56232088
0.56366069
0.56492652
0.56612049
0.56724477
0.56830158
0.56929315
0.5702217
0.57108944
0.5718985
0.57265098
0.57334894
0.57399436
0.57458909
0.5751349
0.57563334
0.57608579
0.57649339
0.57685696
0.57717685
0.57745296
0.5776853
0.57787462
0.57802168
0.57812416
0.57817519
0.5781715
0.57812846
0.57807109
0.57797247
0.57770924
0.5772191
0.57684916
0.60099733
0.65345543
0.60904261
0.60209958
0.58324789
0.56821893
0.55344586
0.54004798
0.52798947
0.51748624
0.50861058
0.50137947
0.49574276
0.49160113
0.48881966
0.48724287
0.48670745
0.48705236
0.48812591
0.48979006
0.49192259
0.49441756
0.49718474
0.50014837
0.50324556
0.50642466
0.50964361
0.51286848
0.51607211
0.51923299
0.52233424
0.52536281
0.52830878
0.53116477
0.53392547
0.53658728
0.53914794
0.54160632
0.54396217
0.54621595
0.5483687
0.55042192
0.55237746
0.55423746
0.55600426
0.55768037
0.55926841
0.56077108
0.56219114
0.56353136
0.56479452
0.56598336
0.5671006
0.56814893
0.56913096
0.57004923
0.57090618
0.5717042
0.57244557
0.57313251
0.57376708
0.57435124
0.57488678
0.57537534
0.57581833
0.57621679
0.57657131
0.5768821
0.57714965
0.57737499
0.57755852
0.57769732
0.57778563
0.57782424
0.57783128
0.57782571
0.57776942
0.57754479
0.57711751
0.57682121
0.58113225
0.61509785
0.57302888
0.56039629
0.54086769
0.52390234
0.50904958
0.49637835
0.48585594
0.47752507
0.47128835
0.4669862
0.46440769
0.46331896
0.46348238
0.46467156
0.46668058
0.46932851
0.47246074
0.47594784
0.47968335
0.48358088
0.48757116
0.49159922
0.49562183
0.4996054
0.50352406
0.50735819
0.51109313
0.51471822
0.51822595
0.5216113
0.52487123
0.52800427
0.53101017
0.53388962
0.53664409
0.53927559
0.54178659
0.54417988
0.54645851
0.5486257
0.55068478
0.55263918
0.55449234
0.55624774
0.55790885
0.55947908
0.56096183
0.56236042
0.56367811
0.56491809
0.56608343
0.56717715
0.56820216
0.56916124
0.57005708
0.57089225
0.57166923
0.57239037
0.57305789
0.5736739
0.57424034
0.57475906
0.57523165
0.57565939
0.57604311
0.57638347
0.57668134
0.57693784
0.57715276
0.57732281
0.57744379
0.57751976
0.57756915
0.57760442
0.57758333
0.57740404
0.57705183
0.57681232
0.55303215
0.56482012
0.52667307
0.50825904
0.48763616
0.47217687
0.45921117
0.4493382
0.44229337
0.43783396
0.43561398
0.43527036
0.43644581
0.43881427
0.44209148
0.44603855
0.45046013
0.45519982
0.46013454
0.46516875
0.4702292
0.4752604
0.48022086
0.48507997
0.48981564
0.49441228
0.49885937
0.5031502
0.50728107
0.51125047
0.51505862
0.518707
0.52219804
0.52553487
0.52872114
0.53176083
0.53465819
0.5374176
0.54004356
0.54254055
0.54491311
0.5471657
0.54930273
0.55132855
0.55324742
0.55506349
0.55678083
0.55840337
0.55993496
0.56137931
0.56274003
0.56402058
0.56522434
0.56635454
0.5674143
0.56840658
0.56933422
0.57019996
0.57100639
0.57175598
0.57245104
0.57309378
0.57368625
0.57423039
0.57472795
0.57518036
0.57558875
0.5759542
0.57627798
0.57656113
0.57680304
0.57700051
0.57715105
0.57726059
0.57734548
0.57741124
0.57741497
0.57727464
0.57700076
0.57686288
0.51258433
0.50006691
0.46288605
0.44501022
0.42760788
0.41542154
0.40712254
0.40249579
0.40088791
0.40171355
0.40440454
0.40847443
0.4135215
0.41922784
0.42534839
0.43169844
0.43814114
0.4445767
0.45093352
0.45716112
0.46322476
0.46910134
0.47477632
0.4802414
0.48549286
0.49053024
0.49535545
0.49997204
0.50438473
0.50859901
0.51262085
0.51645653
0.52011247
0.52359515
0.52691097
0.53006628
0.53306727
0.53592001
0.53863037
0.54120405
0.54364658
0.5459633
0.54815935
0.55023972
0.5522092
0.55407242
0.55583383
0.55749774
0.55906827
0.56054942
0.561945
0.56325871
0.56449407
0.56565449
0.56674321
0.56776334
0.56871783
0.5696095
0.57044106
0.57121503
0.57193381
0.57259966
0.5732147
0.57378091
0.5743001
0.57477381
0.57520343
0.57559037
0.57593613
0.57624172
0.57650646
0.57672794
0.57690543
0.5770454
0.5771603
0.57724992
0.57727676
0.57718285
0.57698868
0.576893
0.45087857
0.41835357
0.38868691
0.37386158
0.36303991
0.35824608
0.35768169
0.36042905
0.36549793
0.37212953
0.37973917
0.38790286
0.39632056
0.4047855
0.41315826
0.4213472
0.42929411
0.43696392
0.44433745
0.45140633
0.45816948
0.46463068
0.47079682
0.47667676
0.48228053
0.48761874
0.49270223
0.49754178
0.50214801
0.50653122
0.51070131
0.51466783
0.51843987
0.52202611
0.52543483
0.5286739
0.53175083
0.53467274
0.53744644
0.54007839
0.54257478
0.54494149
0.54718414
0.54930813
0.55131858
0.55322042
0.55501836
0.55671692
0.55832042
0.559833
0.56125864
0.56260114
0.56386415
0.56505117
0.56616554
0.56721043
0.56818888
0.56910378
0.5699579
0.57075382
0.57149399
0.57218072
0.57281616
0.57340233
0.57394105
0.57443393
0.57488252
0.5752884
0.57565311
0.5759776
0.57626149
0.57650351
0.5767043
0.57686966
0.57700765
0.57711468
0.5771616
0.57711212
0.57699422
0.57695661
0.35526403
0.32182363
0.30423192
0.29975896
0.30114059
0.30739812
0.31655583
0.3273496
0.33890694
0.35067722
0.36232519
0.37365512
0.38455952
0.39498547
0.40491342
0.41434379
0.42328865
0.4317665
0.43979913
0.44740958
0.45462097
0.46145586
0.46793577
0.47408105
0.47991079
0.4854428
0.49069365
0.49567875
0.50041243
0.504908
0.50917783
0.51323346
0.51708564
0.52074442
0.52421918
0.52751875
0.5306514
0.53362491
0.53644662
0.53912346
0.541662
0.54406845
0.54634871
0.54850838
0.55055282
0.5524871
0.55431608
0.55604441
0.55767651
0.55921661
0.56066877
0.56203687
0.5633246
0.56453553
0.56567303
0.56674034
0.56774052
0.56867652
0.56955114
0.570367
0.57112661
0.5718323
0.57248627
0.57309055
0.57364699
0.5741573
0.57462309
0.57504597
0.5754274
0.5757683
0.57606877
0.57632867
0.57654937
0.57673507
0.57689
0.57701005
0.57707684
0.57707173
0.5770162
0.57700188
0.21633084
0.21505226
0.22043015
0.23381058
0.25109198
0.26945101
0.28768503
0.30514475
0.32160152
0.33699153
0.35133997
0.36470715
0.37716676
0.388794
0.39966056
0.4098324
0.41936921
0.42832445
0.43674581
0.44467579
0.45215227
0.45920903
0.46587631
0.47218121
0.4781481
0.48379897
0.4891537
0.49423037
0.49904542
0.50361387
0.50794951
0.51206499
0.51597201
0.51968135
0.52320305
0.52654644
0.52972022
0.53273254
0.53559102
0.53830285
0.54087479
0.54331323
0.54562421
0.54781347
0.54988644
0.55184831
0.553704
0.55545821
0.55711541
0.5586799
0.56015576
0.56154689
0.56285703
0.56408976
0.56524848
0.56633644
0.56735673
0.5683123
0.56920598
0.57004042
0.57081813
0.57154148
0.5722127
0.57283382
0.57340677
0.57393328
0.57441505
0.57485362
0.57525036
0.5756062
0.57592171
0.57619746
0.57643491
0.57663648
0.57680381
0.57693417
0.57701902
0.57705142
0.57704381
0.57703948
0.091835402
0.12169901
0.1590741
0.19267715
0.22276756
0.24925555
0.27276065
0.29374826
0.31263402
0.32974372
0.34533996
0.35963311
0.37279387
0.38496197
0.39625299
0.40676337
0.41657437
0.42575501
0.43436432
0.44245323
0.4500659
0.45724091
0.46401215
0.47040953
0.47645962
0.48218613
0.48761032
0.49275131
0.49762641
0.50225133
0.5066404
0.51080673
0.51476234
0.51851834
0.52208498
0.52547178
0.5286876
0.5317407
0.53463882
0.53738922
0.53999872
0.54247377
0.54482046
0.54704455
0.54915151
0.55114654
0.55303459
0.55482036
0.55650836
0.55810288
0.55960802
0.56102768
0.56236562
0.56362541
0.56481048
0.56592406
0.56696927
0.56794905
0.56886623
0.56972347
0.5705233
0.57126809
0.57196005
0.57260125
0.5731936
0.5737389
0.57423882
0.57469488
0.57510838
0.57548029
0.57581143
0.57610271
0.57635527
0.57657029
0.57674822
0.57688796
0.5769868
0.57704272
0.57706051
0.57706066
0.010959406
0.29667606
0.47123916
0.51918508
0.52895072
0.52948327
0.52916384
0.53029986
0.531778
0.53325944
0.53473733
0.53617764
0.53759573
0.53899935
0.54039963
0.54180644
0.54322108
0.54464412
0.54607533
0.54751375
0.5489579
0.55040599
0.55185602
0.55330586
0.55475334
0.55619624
0.55763238
0.55905961
0.5604758
0.56187892
0.56326693
0.56463788
0.56598983
0.56732088
0.56862917
0.56991281
0.57116998
0.57239882
0.57359748
0.5747641
0.57589683
0.57699379
0.5780531
0.57907285
0.58005114
0.58098607
0.58187575
0.5827183
0.58351187
0.58425468
0.58494497
0.58558111
0.58616151
0.58668474
0.58714948
0.58755454
0.58789891
0.58818168
0.58840218
0.58855969
0.58865335
0.58868281
0.58864831
0.58855081
0.58839037
0.58816983
0.58788483
0.58754789
0.58713207
0.58669607
0.58611707
0.58561679
0.58479401
0.58436719
0.58309647
0.58294235
0.58104393
0.58124415
0.57884833
0.57919684
0.064184345
0.38440676
0.52164967
0.54672302
0.5476043
0.54579997
0.54494582
0.54508557
0.54528727
0.54559101
0.54597968
0.54653429
0.5472088
0.5479742
0.54880198
0.54968889
0.55062812
0.55161525
0.55264493
0.55371196
0.5548116
0.55593936
0.55709106
0.55826267
0.55945041
0.56065064
0.56185991
0.56307489
0.5642924
0.56550937
0.56672282
0.56792989
0.56912779
0.57031383
0.57148534
0.57263976
0.57377456
0.57488725
0.5759754
0.57703659
0.57806846
0.57906867
0.58003489
0.58096485
0.58185628
0.58270697
0.58351475
0.58427752
0.58499322
0.5856599
0.5862757
0.58683886
0.58734776
0.58780094
0.58819709
0.58853504
0.58881386
0.58903272
0.58919107
0.58928826
0.58932359
0.5892969
0.58920863
0.58905985
0.58885095
0.58858451
0.58825713
0.5878794
0.58742822
0.58695422
0.58634922
0.58581409
0.58497787
0.58450998
0.58324166
0.58304585
0.58113992
0.58134034
0.57886567
0.57931049
0.14933377
0.46540141
0.5413355
0.55411093
0.55277075
0.5518459
0.55183213
0.55239083
0.55280366
0.55332618
0.55382819
0.55439291
0.55497761
0.55560432
0.55626443
0.55696245
0.5576944
0.55846068
0.55925974
0.56008986
0.56094922
0.56183585
0.56274763
0.56368228
0.56463742
0.56561054
0.56659905
0.56760027
0.56861148
0.56962989
0.5706527
0.57167706
0.57270011
0.573719
0.57473086
0.57573283
0.57672206
0.57769572
0.57865101
0.57958514
0.58049535
0.5813789
0.58223312
0.58305536
0.58384301
0.58459355
0.58530453
0.58597356
0.58659837
0.5871768
0.58770683
0.58818658
0.58861433
0.58898857
0.58930795
0.5895713
0.58977774
0.5899265
0.59001707
0.59004892
0.59002144
0.58993461
0.58978904
0.58958591
0.58932585
0.58901126
0.58863935
0.58821945
0.5877308
0.5872188
0.58658493
0.58601736
0.5851618
0.58465778
0.58338214
0.58315128
0.58123117
0.58143212
0.57889045
0.579415
0.23176972
0.51263363
0.55496198
0.56249184
0.55982868
0.56006186
0.56011754
0.56071783
0.56098854
0.56144188
0.56181626
0.56227193
0.56272967
0.56321951
0.56372668
0.56425902
0.5648138
0.56539332
0.5659974
0.56662595
0.56727867
0.56795503
0.56865428
0.56937543
0.57011727
0.57087838
0.57165711
0.57245166
0.57326003
0.57408004
0.5749094
0.57574567
0.57658628
0.57742859
0.57826984
0.57910721
0.57993784
0.5807588
0.58156715
0.58235992
0.58313413
0.58388683
0.58461506
0.58531593
0.58598656
0.58662418
0.58722608
0.58778967
0.58831245
0.58879209
0.58922641
0.5896134
0.58995127
0.59023843
0.59047349
0.5906553