/*--------------------------------*- C++ -*----------------------------------*\
  =========                 |
  \\      /  F ield         | OpenFOAM: The Open Source CFD Toolbox
   \\    /   O peration     | Website:  https://openfoam.org
    \\  /    A nd           | Version:  12
     \\/     M anipulation  |
\*---------------------------------------------------------------------------*/
FoamFile
{
    format      ascii;
    class       volScalarField;
    location    "0.114";
    object      nut;
}
// * * * * * * * * * * * * * * * * * * * * * * * * * * * * * * * * * * * * * //

dimensions      [0 2 -1 0 0 0 0];

internalField   nonuniform List<scalar> 
16000
(
4.6290668e-07
9.8552496e-06
1.931197e-05
2.343327e-05
1.8204222e-05
2.4929476e-05
1.7668425e-05
2.4128159e-05
1.8891397e-05
2.5926997e-05
2.1895722e-05
2.5643126e-05
2.341708e-05
2.4015702e-05
2.3213297e-05
2.3076251e-05
2.2835326e-05
2.2768046e-05
2.2778233e-05
2.2885242e-05
2.3081624e-05
2.336677e-05
2.3738184e-05
2.419585e-05
2.4741877e-05
2.5382039e-05
2.612416e-05
2.6980761e-05
2.7967068e-05
2.9099426e-05
3.0395767e-05
3.1879959e-05
3.3582826e-05
3.5542349e-05
3.780524e-05
4.0427188e-05
4.3474482e-05
4.7026144e-05
5.1179992e-05
5.6057168e-05
6.1799675e-05
6.857466e-05
7.6592813e-05
8.6111949e-05
9.7438467e-05
0.00011093954
0.00012707011
0.00014638399
0.00016955478
0.00019740253
0.00023092989
0.00027136531
0.00032020856
0.00037929471
0.00045086954
0.0005376932
0.0006431702
0.00077152128
0.00092801937
0.0010187251
0.0010187926
0.0010188354
0.0010188657
0.0010188427
0.0010187628
0.0010186084
0.0010183529
0.0010179548
0.0010173583
0.0010164992
0.0010153211
0.0010138043
0.0010120158
0.001010165
0.0010086113
0.0010073304
0.0010062422
0.0010066514
0.0010043982
0.0010053721
4.1597747e-07
9.3579877e-06
1.9742438e-05
2.1353903e-05
1.6458754e-05
2.2392866e-05
1.5713473e-05
2.1177671e-05
1.6719774e-05
2.2957248e-05
1.9857938e-05
2.3165937e-05
2.144779e-05
2.1796387e-05
2.1166598e-05
2.0979292e-05
2.0776992e-05
2.070463e-05
2.0715235e-05
2.0812214e-05
2.0992892e-05
2.125633e-05
2.1600628e-05
2.2025821e-05
2.253354e-05
2.3129176e-05
2.381949e-05
2.4615762e-05
2.5532397e-05
2.6585337e-05
2.7791256e-05
2.9171945e-05
3.075592e-05
3.257834e-05
3.468291e-05
3.7121996e-05
3.9958352e-05
4.3266225e-05
4.7136718e-05
5.1684545e-05
5.7046202e-05
6.3379036e-05
7.0881478e-05
7.9799436e-05
9.0427323e-05
0.00010311424
0.00011829435
0.00013649806
0.00015837207
0.00018470428
0.00021645861
0.00025481961
0.00030123604
0.00035748467
0.00042574288
0.0005086905
0.00060963815
0.00073268757
0.00088294849
0.0010179311
0.0010180192
0.0010180389
0.0010180527
0.0010180131
0.0010179147
0.0010177393
0.0010174593
0.0010170326
0.0010164035
0.0010155122
0.0010143171
0.0010128184
0.0010110921
0.0010093692
0.0010079354
0.001006676
0.0010057927
0.001005893
0.001004108
0.0010050226
3.7441406e-07
8.9737294e-06
1.8710822e-05
1.9517277e-05
1.4758837e-05
1.9757215e-05
1.4010875e-05
1.8444084e-05
1.5053127e-05
2.0180176e-05
1.8127194e-05
2.0659292e-05
1.9450198e-05
1.9545152e-05
1.9059007e-05
1.8851462e-05
1.8680607e-05
1.8613629e-05
1.8627251e-05
1.8719e-05
1.8887464e-05
1.9132059e-05
1.9451204e-05
1.9845178e-05
2.031525e-05
2.0866615e-05
2.1505306e-05
2.2241533e-05
2.308873e-05
2.4062445e-05
2.5178512e-05
2.645709e-05
2.7924789e-05
2.9614345e-05
3.1566801e-05
3.3831478e-05
3.6468015e-05
3.954694e-05
4.3153736e-05
4.7396711e-05
5.2407904e-05
5.8337195e-05
6.537257e-05
7.3748909e-05
8.3751237e-05
9.5714213e-05
0.00011005477
0.00012728407
0.00014802682
0.0001730455
0.00020327279
0.0002398581
0.00028420924
0.00033805678
0.00040352422
0.00048322793
0.00058040475
0.00069907041
0.00084422178
0.0010171897
0.0010172979
0.0010172903
0.0010172799
0.0010172165
0.0010170925
0.0010168886
0.0010165757
0.0010161109
0.0010154394
0.0010145059
0.001013284
0.0010117984
0.001010128
0.0010085396
0.0010072178
0.0010060612
0.001005297
0.0010051002
0.0010038676
0.0010046093
3.3898312e-07
8.6851717e-06
1.7783991e-05
1.8157079e-05
1.3286258e-05
1.7469722e-05
1.250108e-05
1.6141266e-05
1.3564396e-05
1.7811438e-05
1.6562238e-05
1.8431044e-05
1.7600303e-05
1.7510556e-05
1.7131969e-05
1.6924317e-05
1.6781341e-05
1.6724788e-05
1.6744188e-05
1.6834217e-05
1.6993998e-05
1.722336e-05
1.7521078e-05
1.7887797e-05
1.8324554e-05
1.8836491e-05
1.9429164e-05
2.0111945e-05
2.0897342e-05
2.180059e-05
2.2836979e-05
2.402528e-05
2.5390564e-05
2.6963485e-05
2.8782832e-05
3.0895303e-05
3.3357843e-05
3.6238076e-05
3.9617019e-05
4.3596999e-05
4.8306651e-05
5.3890214e-05
6.0527294e-05
6.8442952e-05
7.7915492e-05
8.9268493e-05
0.0001029053
0.00011932214
0.00013912691
0.00016306363
0.00019204146
0.00022718444
0.00026987088
0.00032179919
0.00038505637
0.00046221631
0.00055646669
0.00067176835
0.00081305231
0.0009864586
0.0010166202
0.0010165814
0.0010165409
0.0010164484
0.0010162938
0.0010160568
0.0010157068
0.0010151998
0.0010144834
0.0010135086
0.0010122625
0.0010107939
0.0010091781
0.0010077188
0.0010065078
0.0010054641
0.0010047655
0.0010044685
0.0010037377
0.0010043818
3.0928346e-07
8.4719565e-06
1.6974134e-05
1.8164556e-05
1.3276778e-05
1.5468039e-05
1.1172304e-05
1.4160587e-05
1.2281613e-05
1.576317e-05
1.5166652e-05
1.6418734e-05
1.5870459e-05
1.5656109e-05
1.5357257e-05
1.5163131e-05
1.5043313e-05
1.4997779e-05
1.5021815e-05
1.5109546e-05
1.5260288e-05
1.5474448e-05
1.5751196e-05
1.6091658e-05
1.6496769e-05
1.6971703e-05
1.7521676e-05
1.8155395e-05
1.8884456e-05
1.9723732e-05
2.0688161e-05
2.1795365e-05
2.306914e-05
2.453834e-05
2.6239821e-05
2.8217994e-05
3.0527398e-05
3.323331e-05
3.6413414e-05
4.0164342e-05
4.4611875e-05
4.9896067e-05
5.619001e-05
6.370955e-05
7.2727986e-05
8.3560367e-05
9.6598917e-05
0.00011232779
0.00013134115
0.00015436902
0.00018230163
0.00021624335
0.00025754924
0.000307893
0.00036933415
0.00044441474
0.00053628587
0.00064886782
0.00078704466
0.00095689342
0.0010159865
0.0010159129
0.0010158361
0.0010157086
0.001015518
0.0010152427
0.0010148505
0.0010142966
0.0010135316
0.0010125157
0.0010112487
0.0010097999
0.0010082449
0.0010069112
0.0010058123
0.0010048797
0.0010042279
0.0010039014
0.0010035035
0.0010040271
2.7641284e-07
8.3425796e-06
1.6326297e-05
1.793205e-05
1.3057458e-05
1.3714211e-05
1.0576447e-05
1.2520828e-05
1.1408291e-05
1.4034073e-05
1.3941422e-05
1.464799e-05
1.4288021e-05
1.4000663e-05
1.3752286e-05
1.3573678e-05
1.3468911e-05
1.3430315e-05
1.345544e-05
1.3538718e-05
1.3679438e-05
1.3878492e-05
1.4135277e-05
1.4451319e-05
1.4827538e-05
1.5269105e-05
1.578096e-05
1.6371293e-05
1.7050808e-05
1.7833983e-05
1.8735574e-05
1.9772275e-05
2.0966876e-05
2.2346736e-05
2.3947128e-05
2.5810568e-05
2.7989562e-05
3.054753e-05
3.356004e-05
3.7118817e-05
4.1347034e-05
4.6382061e-05
5.2392849e-05
5.9586902e-05
6.8234349e-05
7.8644682e-05
9.1201939e-05
0.00010638179
0.00012476831
0.00014708306
0.00017420311
0.00020722042
0.00024747512
0.00029662599
0.00035671739
0.00043027405
0.00052042762
0.00063107783
0.00076708889
0.0009345123
0.0010153908
0.0010152785
0.0010151597
0.0010149917
0.00101476
0.0010144416
0.0010140029
0.0010133985
0.0010125825
0.0010115275
0.0010102461
0.0010088199
0.0010073374
0.0010061263
0.0010051388
0.0010043103
0.0010037007
0.0010033879
0.0010032672
0.0010036303
2.5023111e-07
8.2717095e-06
1.581942e-05
1.6969998e-05
1.295651e-05
1.2125541e-05
1.0624379e-05
1.1543017e-05
1.0977047e-05
1.2532174e-05
1.2838564e-05
1.3080642e-05
1.2818254e-05
1.2499379e-05
1.227957e-05
1.211649e-05
1.2022865e-05
1.1990039e-05
1.2015947e-05
1.2095604e-05
1.2227992e-05
1.2414412e-05
1.2654228e-05
1.2873191e-05
1.3215455e-05
1.3620415e-05
1.4092274e-05
1.4638509e-05
1.5268748e-05
1.5996741e-05
1.6837025e-05
1.7805393e-05
1.8923704e-05
2.0217888e-05
2.1721745e-05
2.3476054e-05
2.5531405e-05
2.7949388e-05
3.0804207e-05
3.4441683e-05
3.849161e-05
4.3325312e-05
4.9110012e-05
5.6046057e-05
6.4401444e-05
7.4483009e-05
8.6669459e-05
0.00010143127
0.00011934553
0.00014113051
0.00016765528
0.00020000592
0.00023951518
0.0002878356
0.00034700714
0.00041955034
0.00050859254
0.00061803037
0.00075273008
0.00091874905
0.0010148293
0.0010146744
0.0010145081
0.0010142944
0.0010140168
0.0010136507
0.0010131615
0.001012504
0.0010116366
0.0010105456
0.0010092567
0.001007853
0.0010064662
0.0010053743
0.0010044952
0.0010037633
0.0010031968
0.0010029128
0.001003018
0.0010031543
2.3285707e-07
8.2294598e-06
1.5385319e-05
1.5443161e-05
1.1862438e-05
1.0571814e-05
9.1785817e-06
1.0303954e-05
9.6416594e-06
1.1268013e-05
1.1724847e-05
1.163743e-05
1.1412919e-05
1.1102773e-05
1.0906592e-05
1.0763522e-05
1.0683532e-05
1.0659395e-05
1.06242e-05
1.0687517e-05
1.0803624e-05
1.0972858e-05
1.119293e-05
1.1464138e-05
1.1790573e-05
1.2175245e-05
1.2622651e-05
1.31402e-05
1.373698e-05
1.4426319e-05
1.5222953e-05
1.6142194e-05
1.7205455e-05
1.8437759e-05
1.9872034e-05
2.1547956e-05
2.3514955e-05
2.5833484e-05
2.8577264e-05
3.1836026e-05
3.5719121e-05
4.0364999e-05
4.594098e-05
5.3085737e-05
6.122895e-05
7.1076205e-05
8.3004081e-05
9.748106e-05
0.0001150805
0.00013652285
0.00016267463
0.00019462302
0.00023370159
0.00028156593
0.00034026323
0.00041232402
0.00050088813
0.00060986851
0.00074415628
0.00090984682
0.0010142963
0.001014095
0.0010138767
0.0010136125
0.0010132845
0.0010128667
0.0010123237
0.001011612
0.0010106959
0.0010095738
0.0010082847
0.0010068998
0.0010056398
0.0010046629
0.0010038874
0.0010032451
0.0010027254
0.0010024723
0.0010026972
0.0010025969
2.1052758e-07
8.1889005e-06
1.4931502e-05
1.3524792e-05
9.7541225e-06
9.3985527e-06
7.5664993e-06
8.7894434e-06
8.9758658e-06
1.0134014e-05
1.0592545e-05
1.029229e-05
1.0085649e-05
9.8075702e-06
9.6356002e-06
9.4483096e-06
9.3590979e-06
9.33056e-06
9.355253e-06
9.4302989e-06
9.5516473e-06
9.7208151e-06
9.9367786e-06
1.019951e-05
1.051315e-05
1.0881606e-05
1.1309419e-05
1.1804037e-05
1.2374175e-05
1.3032718e-05
1.3794694e-05
1.467516e-05
1.5695363e-05
1.687969e-05
1.8260534e-05
1.9876898e-05
2.1777512e-05
2.40222e-05
2.6684061e-05
2.9852016e-05
3.3635739e-05
3.817166e-05
4.362984e-05
5.0207428e-05
5.8157229e-05
6.7793709e-05
8.0196859e-05
9.4521606e-05
0.00011196317
0.0001332495
0.00015925035
0.00019106107
0.00023002443
0.00027780876
0.00033648035
0.00040859443
0.00049732101
0.00060660976
0.00074139964
0.00090785492
0.0010137861
0.0010135354
0.0010132612
0.0010129424
0.0010125601
0.001012087
0.0010114877
0.0010107226
0.0010097634
0.001008617
0.0010073362
0.0010059846
0.0010048652
0.0010039988
0.0010033207
0.0010027607
0.0010022925
0.0010020695
0.0010022967
0.0010021148
1.9384791e-07
8.1473875e-06
1.3422691e-05
1.1785891e-05
7.8874375e-06
8.3528289e-06
6.7289798e-06
7.9293366e-06
8.3068535e-06
9.0613389e-06
9.4704358e-06
9.0639207e-06
8.8633486e-06
8.5389802e-06
8.3580272e-06
8.2406018e-06
8.1838476e-06
8.1792706e-06
8.2209294e-06
8.3055694e-06
8.4339897e-06
8.603516e-06
8.816485e-06
9.0728958e-06
9.3770934e-06
9.7333745e-06
1.0146436e-05
1.062388e-05
1.1174191e-05
1.1809837e-05
1.2546187e-05
1.3398342e-05
1.4387604e-05
1.5537995e-05
1.6881678e-05
1.8457379e-05
2.0313549e-05
2.2509902e-05
2.5119811e-05
2.8232575e-05
3.1957927e-05
3.6431881e-05
4.1827617e-05
4.8342405e-05
5.6231387e-05
6.5811208e-05
7.7472281e-05
9.1673005e-05
0.00010999193
0.00013131095
0.00015738636
0.00018932862
0.00022849886
0.00027658841
0.00033569526
0.00040841517
0.00049796733
0.00060836096
0.00074460761
0.00091297058
0.0010132931
0.0010129903
0.0010126578
0.001012281
0.0010118409
0.00101131
0.0010106536
0.0010098374
0.0010088425
0.0010076805
0.0010064137
0.0010051412
0.0010041481
0.0010033867
0.0010027985
0.0010023131
0.0010018991
0.0010017132
0.0010019159
0.0010017148
1.7900738e-07
8.1011221e-06
1.0661388e-05
9.7818571e-06
6.4782038e-06
7.4357227e-06
6.1312997e-06
7.1213769e-06
7.7653257e-06
8.0861631e-06
8.368779e-06
7.8596076e-06
7.6126986e-06
7.3854061e-06
7.250112e-06
7.1702705e-06
7.1412551e-06
7.1572603e-06
7.2136516e-06
7.3094129e-06
7.4418781e-06
7.6134014e-06
7.8253628e-06
8.0782419e-06
8.376477e-06
8.7247973e-06
9.1281641e-06
9.5943892e-06
1.0131918e-05
1.0752872e-05
1.141408e-05
1.2238813e-05
1.3198682e-05
1.4317319e-05
1.5626648e-05
1.7165148e-05
1.8981056e-05
2.1134022e-05
2.3697809e-05
2.6762364e-05
3.0438481e-05
3.5137066e-05
4.0526369e-05
4.7045809e-05
5.4952993e-05
6.4567938e-05
7.6292288e-05
9.0595519e-05
0.00010807014
0.00012945536
0.00015708247
0.00018943046
0.00022913652
0.00027792588
0.0003379417
0.00041183722
0.00050290134
0.00061522795
0.000753929
0.00092539631
0.0010128113
0.0010124547
0.0010120626
0.0010116257
0.0010111256
0.0010105354
0.0010098228
0.0010089595
0.0010079362
0.0010067697
0.0010055165
0.0010043683
0.0010034936
0.0010028301
0.0010023238
0.0010019067
0.0010015471
0.0010013977
0.0010015825
0.0010013495
1.6566229e-07
8.0539659e-06
8.4103948e-06
8.3180811e-06
5.6956866e-06
6.5828959e-06
5.6261346e-06
6.4146232e-06
7.2122538e-06
7.17438e-06
7.1747212e-06
6.7418683e-06
6.5393478e-06
6.3709562e-06
6.2745147e-06
6.2259937e-06
6.2207267e-06
6.2547678e-06
6.3244479e-06
6.4295192e-06
6.5687194e-06
6.7436719e-06
6.9568911e-06
7.2093154e-06
7.5054668e-06
7.8166128e-06
8.2086655e-06
8.6628999e-06
9.187627e-06
9.7945326e-06
1.0497691e-05
1.1315427e-05
1.2268386e-05
1.3380273e-05
1.468332e-05
1.6216417e-05
1.8028403e-05
2.0179733e-05
2.2745671e-05
2.5818098e-05
2.9510471e-05
3.3964606e-05
3.9354301e-05
4.5888024e-05
5.3827794e-05
6.40517e-05
7.5951454e-05
9.0489297e-05
0.00010826877
0.00013005265
0.00015677388
0.00019137005
0.00023194907
0.00028184386
0.00034325698
0.00041891759
0.00051220632
0.00062732958
0.00076953201
0.00094536322
0.0010123353
0.0010119236
0.0010114721
0.0010109745
0.0010104134
0.0010097642
0.0010089985
0.0010080937
0.0010070479
0.0010058898
0.0010046669
0.0010036694
0.0010029044
0.0010023309
0.0010018991
0.0010015457
0.0010012392
0.0010011121
0.0010012713
0.0010010296
1.537938e-07
7.9963251e-06
6.6868421e-06
7.2965446e-06
5.0718941e-06
5.820692e-06
5.1909959e-06
5.7866817e-06
6.5544316e-06
6.1401024e-06
6.0968369e-06
5.7631675e-06
5.6015727e-06
5.4807928e-06
5.4176282e-06
5.3961161e-06
5.4119671e-06
5.462677e-06
5.5453888e-06
5.6605379e-06
5.8074224e-06
5.9879745e-06
6.1787881e-06
6.428298e-06
6.7211549e-06
7.0614928e-06
7.4563131e-06
7.9131043e-06
8.4403947e-06
9.0500705e-06
9.7563562e-06
1.0577356e-05
1.1534954e-05
1.2653219e-05
1.3964938e-05
1.5509767e-05
1.7337676e-05
1.9510418e-05
2.2105448e-05
2.5217585e-05
2.8963143e-05
3.3487135e-05
3.8972308e-05
4.5632434e-05
5.3737807e-05
6.362489e-05
7.5712005e-05
9.0505292e-05
0.00010958563
0.00013196029
0.00015942811
0.00019318308
0.00023693977
0.00028835639
0.00035166907
0.00042970296
0.00052595428
0.00064477128
0.00079157015
0.00097309069
0.0010118593
0.0010113925
0.001010883
0.0010103256
0.0010097048
0.001008999
0.0010081849
0.0010072462
0.001006184
0.0010050413
0.0010039158
0.0010030447
0.0010023813
0.0010018895
0.0010015251
0.0010012313
0.0010009746
0.0010008518
0.0010009602
0.0010007555
1.4318433e-07
7.9248732e-06
5.3594672e-06
6.3693149e-06
4.516099e-06
5.1416577e-06
4.8185312e-06
5.1464206e-06
5.7296216e-06
5.2410439e-06
5.1505692e-06
4.9061108e-06
4.7830477e-06
4.7020185e-06
4.6683662e-06
4.671171e-06
4.7067228e-06
4.7735699e-06
4.8696361e-06
4.9770414e-06
5.1274977e-06
5.311468e-06
5.531196e-06
5.7896182e-06
6.0909735e-06
6.4397794e-06
6.842963e-06
7.3086418e-06
7.8455695e-06
8.4657949e-06
9.1836669e-06
1.0017518e-05
1.0939902e-05
1.2065421e-05
1.3386607e-05
1.494386e-05
1.6788479e-05
1.8983574e-05
2.1608839e-05
2.4762535e-05
2.8564841e-05
3.3417083e-05
3.9049601e-05
4.5898995e-05
5.4244944e-05
6.4433709e-05
7.6903864e-05
9.2184292e-05
0.00011092349
0.0001351569
0.00016360581
0.0001985883
0.0002416324
0.00029745965
0.00036318577
0.00044421617
0.00054418939
0.00066762489
0.00082015463
0.0010087528
0.0010113782
0.001010857
0.0010102925
0.0010096779
0.0010090008
0.0010082431
0.0010073865
0.0010064217
0.0010053544
0.0010042214
0.0010032491
0.0010024942
0.0010019226
0.0010015038
0.0010011997
0.0010009601
0.0010007491
0.0010006202
0.0010006513
0.001000498
1.3371997e-07
7.7962389e-06
4.3462659e-06
5.543603e-06
4.0188377e-06
4.5364738e-06
4.4910011e-06
4.4507048e-06
4.8985599e-06
4.4387388e-06
4.3299081e-06
4.1588465e-06
4.0724388e-06
4.0257725e-06
4.0189459e-06
4.0442443e-06
4.0986644e-06
4.1648714e-06
4.2693801e-06
4.4038006e-06
4.5689791e-06
4.7664271e-06
4.9990754e-06
5.2700677e-06
5.5842101e-06
5.9462862e-06
6.3632914e-06
6.823124e-06
7.3704312e-06
8.0017664e-06
8.7315252e-06
9.5780616e-06
1.056382e-05
1.1717013e-05
1.3071304e-05
1.4668414e-05
1.6561962e-05
1.8817433e-05
2.1517681e-05
2.4765955e-05
2.8687965e-05
3.3442222e-05
3.9220582e-05
4.6259597e-05
5.4851017e-05
6.590313e-05
7.8863926e-05
9.4758951e-05
0.00011426909
0.00013823539
0.00016927149
0.00020576352
0.00025068817
0.00030601695
0.00037777776
0.00046243579
0.00056690251
0.00069589766
0.00085531269
0.0010114363
0.0010108869
0.0010103141
0.0010096984
0.0010090313
0.001008303
0.0010075
0.001006608
0.0010056221
0.0010045639
0.0010034983
0.0010026619
0.0010020137
0.0010015242
0.0010011691
0.0010009179
0.0010007248
0.001000554
0.0010004233
0.0010003791
0.0010002226
1.2531963e-07
7.4757012e-06
3.6457201e-06
4.8103497e-06
3.5755164e-06
3.9995474e-06
3.9795033e-06
3.8207775e-06
4.0989689e-06
3.7292584e-06
3.6262988e-06
3.5137228e-06
3.4616714e-06
3.445327e-06
3.4630423e-06
3.496427e-06
3.5628877e-06
3.6582353e-06
3.7816778e-06
3.9334604e-06
4.1150583e-06
4.3285033e-06
4.5771479e-06
4.8644241e-06
5.183669e-06
5.5597604e-06
5.991245e-06
6.4862166e-06
7.0548547e-06
7.7092854e-06
8.4642822e-06
9.3389478e-06
1.0356653e-05
1.154669e-05
1.2945057e-05
1.4595022e-05
1.6553091e-05
1.8887857e-05
2.1685617e-05
2.5055808e-05
2.9129238e-05
3.4072489e-05
4.0090024e-05
4.7429153e-05
5.6398298e-05
6.737632e-05
8.1548122e-05
9.8184912e-05
0.00011861601
0.00014373457
0.00017461849
0.00021464323
0.00026178371
0.00031986613
0.00039145156
0.00048426878
0.00059399787
0.00072949362
0.00089693939
0.0010109707
0.0010103817
0.001009762
0.0010091002
0.0010083867
0.0010076137
0.0010067722
0.0010058529
0.0010048532
0.0010037974
0.0010028715
0.0010021501
0.0010015972
0.0010011809
0.0010008798
0.0010006734
0.0010005183
0.001000381
0.001000258
0.0010001834
0.0010000663
1.1806061e-07
7.0679296e-06
3.2014898e-06
4.1595923e-06
3.1805034e-06
3.374484e-06
3.5262304e-06
3.2436185e-06
3.3766831e-06
3.1129457e-06
3.0306764e-06
2.9642867e-06
2.9434335e-06
2.9541677e-06
2.9794003e-06
3.0413323e-06
3.1309657e-06
3.2471229e-06
3.3899173e-06
3.5603223e-06
3.7603564e-06
3.9923323e-06
4.2517349e-06
4.5558742e-06
4.9039267e-06
5.3015712e-06
5.7556355e-06
6.274503e-06
6.8685596e-06
7.550702e-06
8.3361753e-06
9.2448971e-06
1.0301304e-05
1.1536162e-05
1.2931875e-05
1.4631776e-05
1.6650943e-05
1.9061598e-05
2.2086163e-05
2.5603536e-05
2.9859686e-05
3.5029248e-05
4.1330439e-05
4.9024052e-05
5.8434494e-05
6.9963833e-05
8.4105981e-05
0.00010146793
0.00012389382
0.00015033795
0.00018286821
0.00022290793
0.00027479418
0.00033602327
0.00041150394
0.00050951884
0.00062525246
0.00076816564
0.00094475867
0.0010104917
0.0010098629
0.0010092008
0.0010084986
0.0010077458
0.0010069354
0.0010060616
0.00100512
0.0010041225
0.0010031201
0.0010023303
0.0010017097
0.0010012388
0.0010008884
0.0010006316
0.0010004625
0.0010003375
0.0010002292
0.001000128
0.0010000587
0.00099999132
1.1220301e-07
6.1121306e-06
2.821541e-06
3.5684876e-06
2.8377086e-06
2.7979284e-06
3.0753998e-06
2.7213102e-06
2.7570247e-06
2.58655e-06
2.531722e-06
2.5027588e-06
2.5025398e-06
2.5307359e-06
2.5901208e-06
2.6766592e-06
2.7884843e-06
2.9254343e-06
3.0883724e-06
3.2787118e-06
3.4937171e-06
3.7443979e-06
4.0308595e-06
4.3571524e-06
4.7281155e-06
5.1496193e-06
5.6288035e-06
6.1743761e-06
6.7970481e-06
7.493675e-06
8.3081676e-06
9.2488644e-06
1.0341208e-05
1.1617083e-05
1.3116379e-05
1.4888984e-05
1.6996604e-05
1.9516521e-05
2.2544674e-05
2.6199669e-05
3.062887e-05
3.6273513e-05
4.2898006e-05
5.0995416e-05
6.0907263e-05
7.3058567e-05
8.7972757e-05
0.00010629507
0.00013000265
0.00015792996
0.00019229994
0.00023461546
0.00028952376
0.00035425728
0.00043407892
0.00053254964
0.00066027418
0.0008114589
0.00099824562
0.0010100027
0.0010093337
0.0010086335
0.0010078963
0.001007111
0.0010062704
0.0010053722
0.0010044144
0.0010034149
0.0010025527
0.0010018716
0.0010013383
0.0010009344
0.0010006443
0.001000424
0.0010002858
0.0010001831
0.0010000992
0.0010000332
0.00099999689
0.00099996915
1.0732138e-07
4.2642568e-06
2.476996e-06
3.020571e-06
2.4079742e-06
2.3145483e-06
2.6038566e-06
2.2568629e-06
2.2416237e-06
2.1434002e-06
2.1188837e-06
2.1150952e-06
2.1426547e-06
2.201004e-06
2.2861256e-06
2.3957099e-06
2.5291021e-06
2.6868201e-06
2.8675114e-06
3.077229e-06
3.3169903e-06
3.5896429e-06
3.8986504e-06
4.248224e-06
4.6434403e-06
5.0904162e-06
5.5965754e-06
6.1616279e-06
6.811776e-06
7.5543584e-06
8.4065648e-06
9.3897496e-06
1.0530833e-05
1.1863631e-05
1.3430552e-05
1.5284471e-05
1.749114e-05
2.0132413e-05
2.3310182e-05
2.7150959e-05
3.1811613e-05
3.7485714e-05
4.4743485e-05
5.3285871e-05
6.3749901e-05
7.6585328e-05
9.234653e-05
0.00011171818
0.00013554565
0.00016635187
0.00020272473
0.00024751896
0.00030271283
0.00037423119
0.00045876764
0.00056306788
0.00069846257
0.00085865646
0.0010102085
0.0010095085
0.0010088006
0.0010080661
0.001007298
0.001006486
0.0010056218
0.0010047058
0.0010037546
0.0010028087
0.0010020746
0.001001492
0.0010010364
0.0010006849
0.001000443
0.0010002594
0.0010001476
0.0010000612
0.00099999451
0.00099996537
0.00099997874
0.0009999886
1.0212538e-07
3.5171575e-06
2.1183874e-06
2.5169428e-06
2.0559677e-06
1.9105485e-06
2.1208132e-06
1.8500825e-06
1.8227273e-06
1.7792999e-06
1.7809428e-06
1.8078662e-06
1.8668804e-06
1.9517526e-06
2.0601272e-06
2.1911386e-06
2.3450347e-06
2.5209778e-06
2.7237506e-06
2.9544711e-06
3.2156685e-06
3.5104076e-06
3.8423521e-06
4.2158763e-06
4.6362315e-06
5.109756e-06
5.6378306e-06
6.2397747e-06
6.9229331e-06
7.7017054e-06
8.5942075e-06
9.6230592e-06
1.0816719e-05
1.2210976e-05
1.3850894e-05
1.5792915e-05
1.8107153e-05
2.0880553e-05
2.4221314e-05
2.8263253e-05
3.3172595e-05
3.943863e-05
4.6808665e-05
5.5827148e-05
6.688156e-05
8.0447609e-05
9.7112052e-05
0.00011759938
0.00014412767
0.0001753966
0.00021389066
0.00026130889
0.00031974788
0.00039548517
0.0004850167
0.00059549703
0.00073897277
0.00090872599
0.0010097387
0.0010090144
0.0010082728
0.0010075074
0.0010067114
0.0010058777
0.0010049995
0.0010040719
0.0010031195
0.0010023186
0.0010016807
0.0010011833
0.0010008002
0.0010005084
0.0010002873
0.0010001396
0.0010000509
0.00099997808
0.00099992698
0.00099993313
0.00099999326
0.0010000191
9.830878e-08
2.8081782e-06
1.8080924e-06
2.0124012e-06
1.7647616e-06
1.5649148e-06
1.6756063e-06
1.5057195e-06
1.4931077e-06
1.4930299e-06
1.521268e-06
1.5810403e-06
1.6664625e-06
1.7740688e-06
1.9029514e-06
2.0533301e-06
2.2251482e-06
2.4215358e-06
2.6440642e-06
2.8950548e-06
3.1772824e-06
3.493991e-06
3.8489805e-06
4.2467464e-06
4.6926774e-06
5.1897252e-06
5.7511955e-06
6.3845454e-06
7.1018064e-06
7.9180767e-06
8.8525226e-06
9.9290989e-06
1.117797e-05
1.2637024e-05
1.4353929e-05
1.6388655e-05
1.8816209e-05
2.1728729e-05
2.5241335e-05
2.9495846e-05
3.4896465e-05
4.1254684e-05
4.9024308e-05
5.8538297e-05
7.0205264e-05
8.4529032e-05
0.00010212998
0.00012377447
0.00015176416
0.00018479958
0.00022547878
0.0002755977
0.00033737848
0.00041741163
0.00051208735
0.00062893981
0.00078069122
0.00096031009
0.0010092757
0.0010085292
0.0010077599
0.0010069689
0.0010061491
0.001005296
0.0010044108
0.001003504
0.0010026054
0.001001918
0.0010013674
0.0010009381
0.0010006098
0.0010003742
0.0010001918
0.001000069
0.00099999503
0.0009999377
0.00099990778
0.00099995007
0.0010000406
0.0010000519
9.6071726e-08
2.1897427e-06
1.5382699e-06
1.5327183e-06
1.4962821e-06
1.2695556e-06
1.3135575e-06
1.2309844e-06
1.2458023e-06
1.2764198e-06
1.3378466e-06
1.42344e-06
1.5301811e-06
1.6567423e-06
1.8033785e-06
1.9710981e-06
2.1607489e-06
2.3753173e-06
2.6166261e-06
2.8872189e-06
3.1900147e-06
3.5283756e-06
3.9062042e-06
4.3280949e-06
4.7995424e-06
5.3272279e-06
5.9193874e-06
6.5862593e-06
7.3321611e-06
8.1864365e-06
9.1634928e-06
1.0288706e-05
1.1594066e-05
1.3119755e-05
1.4916092e-05
1.7115626e-05
1.9678271e-05
2.2755867e-05
2.6471074e-05
3.0975299e-05
3.6455139e-05
4.3140216e-05
5.1314404e-05
6.13274e-05
7.3610265e-05
8.8694763e-05
0.00010723582
0.00013117769
0.00015944918
0.00019424702
0.00023710298
0.00028991119
0.00035837716
0.00043926799
0.00053906837
0.00066228198
0.00082222566
0.0010096032
0.001008828
0.0010080618
0.0010072715
0.001006461
0.0010056261
0.0010047609
0.0010038612
0.0010029541
0.001002198
0.0010015966
0.0010011235
0.0010007537
0.0010004703
0.00100028
0.0010001157
0.0010000359
0.00099997409
0.00099993516
0.00099992833
0.00099999381
0.0010000888
0.0010000792
9.6198938e-08
1.662701e-06
1.3105781e-06
1.1656252e-06
1.2264636e-06
1.0224127e-06
1.0478608e-06
1.0279363e-06
1.0710447e-06
1.1309959e-06
1.2164065e-06
1.3215109e-06
1.4452275e-06
1.5876944e-06
1.7499634e-06
1.9335296e-06
2.1399121e-06
2.3716845e-06
2.6310155e-06
2.9205598e-06
3.243322e-06
3.6027427e-06
4.0028098e-06
4.4482182e-06
4.9445902e-06
5.4987728e-06
6.1192374e-06
6.8165782e-06
7.6041344e-06
8.4987784e-06
9.5218441e-06
1.0700362e-05
1.2068408e-05
1.3668852e-05
1.5555387e-05
1.7795031e-05
2.0471216e-05
2.3687799e-05
2.7573355e-05
3.2287121e-05
3.8025868e-05
4.5031775e-05
5.3601197e-05
6.4101452e-05
7.6984039e-05
9.3574541e-05
0.00011316904
0.00013726089
0.00016690225
0.00020339366
0.00024834113
0.00030658266
0.00037537607
0.00046021818
0.00056492575
0.00070098452
0.00086195525
0.0010091832
0.0010084019
0.0010076201
0.0010068162
0.0010059911
0.0010051457
0.0010042824
0.0010034026
0.001002531
0.001001869
0.0010013425
0.0010009333
0.0010006178
0.0010003766
0.001000219
0.0010000705
0.0010000155
0.00099997068
0.00099994554
0.00099994883
0.0010000104
0.0010000931
0.0010000834
9.9489975e-08
1.2325728e-06
1.1220152e-06
8.9718299e-07
1.0692996e-06
8.1860319e-07
8.6545592e-07
8.902455e-07
9.5606066e-07
1.0390507e-06
1.1418232e-06
1.2619146e-06
1.3996902e-06
1.5561356e-06
1.7327148e-06
1.9311415e-06
2.1533634e-06
2.4014056e-06
2.6779016e-06
2.985484e-06
3.3272217e-06
3.7066274e-06
4.127777e-06
4.5954754e-06
5.1154856e-06
5.6948388e-06
6.3422523e-06
7.0686996e-06
7.8880408e-06
8.817885e-06
9.8805221e-06
1.1104266e-05
1.2524843e-05
1.4187228e-05
1.6147762e-05
1.8476789e-05
2.1261794e-05
2.4611284e-05
2.8659512e-05
3.3572331e-05
3.9824706e-05
4.7187865e-05
5.6193379e-05
6.7226248e-05
8.07599e-05
9.7377752e-05
0.00011779937
0.00014291256
0.00017381007
0.00021382804
0.00026103131
0.0003191833
0.0003908694
0.0004792988
0.00059420043
0.00073004443
0.00089793749
0.0010087904
0.0010080005
0.0010072099
0.0010064014
0.0010055706
0.001004714
0.0010038364
0.001002963
0.001002209
0.0010016134
0.0010011461
0.0010007837
0.0010005081
0.001000308
0.0010001578
0.0010000336
0.00099999904
0.00099996331
0.00099994147
0.00099994048
0.0009999845
0.001000052
0.0010000583
1.0605159e-07
9.5270952e-07
9.5756899e-07
7.58766e-07
7.6212958e-07
6.9817483e-07
7.4332179e-07
8.0313954e-07
8.8616489e-07
9.8524266e-07
1.1010662e-06
1.2335348e-06
1.3837011e-06
1.5528768e-06
1.7426497e-06
1.9547923e-06
2.1912844e-06
2.4543311e-06
2.7464014e-06
3.070273e-06
3.4290986e-06
3.8264937e-06
4.2666619e-06
4.7545717e-06
5.296202e-06
5.8967575e-06
6.5683377e-06
7.3209451e-06
8.176293e-06
9.141237e-06
1.0244102e-05
1.15146e-05
1.2990193e-05
1.4717973e-05
1.6756888e-05
1.9180432e-05
2.2079928e-05
2.5568545e-05
2.9786201e-05
3.4905626e-05
4.113983e-05
4.8751314e-05
5.8063258e-05
6.9471755e-05
8.3466481e-05
0.00010065
0.0001228496
0.00014901377
0.00018119249
0.00022079397
0.00026955889
0.00032964492
0.0004037269
0.00049983345
0.00061350066
0.00075391996
0.00092755018
0.0010084428
0.0010076397
0.0010068382
0.0010060279
0.0010052028
0.0010043558
0.001003487
0.0010026295
0.0010019577
0.0010014205
0.0010010003
0.0010006729
0.0010004201
0.0010002438
0.0010001228
0.0010000341
0.00099998152
0.00099994938
0.00099992402
0.00099991895
0.00099995688
0.0010000223
0.0010000417
1.2055599e-07
9.5631374e-07
7.9894727e-07
5.625418e-07
6.0562283e-07
6.0855565e-07
6.7189643e-07
7.5044071e-07
8.4693895e-07
9.5815018e-07
1.085056e-06
1.2284755e-06
1.3896951e-06
1.5701205e-06
1.7713651e-06
1.9952251e-06
2.2437087e-06
2.5190614e-06
2.8238029e-06
3.160771e-06
3.5331835e-06
3.9447244e-06
4.3996683e-06
4.9030569e-06
5.4609519e-06
6.0807798e-06
6.7717905e-06
7.5456455e-06
8.4171652e-06
9.4052215e-06
1.0533812e-05
1.1833407e-05
1.3342478e-05
1.5109396e-05
1.7194689e-05
1.967378e-05
2.2640336e-05
2.6210316e-05
3.0526947e-05
3.5766841e-05
4.2147615e-05
5.029534e-05
5.9898124e-05
7.1658533e-05
8.6080113e-05
0.00010378208
0.00012552832
0.00015226158
0.0001851463
0.00022562028
0.00027546668
0.00034000477
0.0004162985
0.00051041734
0.00062662951
0.00077026027
0.00094795419
0.001008169
0.0010073506
0.0010065329
0.0010057111
0.0010048816
0.0010040395
0.0010031883
0.0010023837
0.0010017663
0.0010012759
0.0010008944
0.0010005989
0.0010003683
0.0010002107
0.0010000933
0.0010000241
0.00099997405
0.00099994127
0.00099991568
0.00099990989
0.00099994143
0.00099999852
0.0010000228
1.1053317e-07
6.164816e-07
6.3342295e-07
4.6585831e-07
5.0816046e-07
5.5377887e-07
6.3220031e-07
7.2433592e-07
8.3148075e-07
9.5296678e-07
1.0898636e-06
1.243219e-06
1.4143457e-06
1.6047035e-06
1.8159385e-06
2.0498932e-06
2.3086304e-06
2.5944259e-06
2.9099107e-06
3.2579723e-06
3.6418982e-06
4.0654431e-06
4.5329542e-06
5.0495492e-06
5.6213734e-06
6.2559507e-06
6.9626513e-06
7.7532984e-06
8.6500146e-06
9.6610072e-06
1.0815626e-05
1.214511e-05
1.3688847e-05
1.5496316e-05
1.7629368e-05
2.0165032e-05
2.3198896e-05
2.6849261e-05
3.1262224e-05
3.6617913e-05
4.3138133e-05
5.1095685e-05
6.0825825e-05
7.2742222e-05
8.735359e-05
0.00010528712
0.00012731645
0.0001557521
0.00018930676
0.00023059218
0.00028142566
0.00034405792
0.00042128473
0.00051658479
0.00063429558
0.00077983709
0.00095998027
0.0010079873
0.0010071604
0.0010063312
0.0010054974
0.0010046563
0.0010038066
0.0010029621
0.0010022163
0.0010016346
0.0010011758
0.001000821
0.0010005504
0.0010003436