/*--------------------------------*- C++ -*----------------------------------*\
  =========                 |
  \\      /  F ield         | OpenFOAM: The Open Source CFD Toolbox
   \\    /   O peration     | Website:  https://openfoam.org
    \\  /    A nd           | Version:  12
     \\/     M anipulation  |
\*---------------------------------------------------------------------------*/
FoamFile
{
    format      ascii;
    class       volScalarField;
    location    "0.114";
    object      omega;
}
// * * * * * * * * * * * * * * * * * * * * * * * * * * * * * * * * * * * * * //

dimensions      [0 0 -1 0 0 0 0];

internalField   nonuniform List<scalar> 
16000
(
1090.6802
2189.582
1066.2116
643.41659
453.77883
315.59716
239.38733
180.75616
145.58892
117.91104
100.18267
85.761657
75.063372
66.129095
58.8375
52.69455
47.508724
43.085814
39.285417
35.995785
33.132742
30.62549
28.415757
26.457056
24.711927
23.151238
21.750868
20.492189
19.359404
18.33809
17.415213
16.580493
15.825744
15.144037
14.529449
13.976478
13.479943
13.034959
12.637442
12.28395
11.970608
11.693347
11.449209
11.235497
11.049143
10.887031
10.746741
10.625973
10.52252
10.434295
10.359431
10.296295
10.243362
10.199286
10.162896
10.133284
10.109839
10.092289
10.08092
10.076403
10.076791
10.07675
10.076034
10.074901
10.073226
10.070976
10.068115
10.064621
10.060485
10.055697
10.050156
10.043531
10.035432
10.026792
10.020991
10.018363
10.017836
10.027203
10.009349
10.020155
1132.4138
2181.2218
1060.1814
643.53215
453.92671
318.47134
240.4512
182.55328
146.41593
118.93462
100.72162
86.320586
75.42101
66.438824
59.061489
52.868353
47.635758
43.178068
39.350385
36.039091
33.159233
30.639697
28.421272
26.456762
24.707668
23.144482
21.742384
20.482395
19.348803
18.327426
17.404963
16.570778
15.816541
15.135209
14.520897
13.968169
13.471955
13.027306
12.629952
12.276571
11.96358
11.686691
11.442791
11.229304
11.043341
10.881632
10.741715
10.621308
10.518231
10.430389
10.355883
10.293091
10.240485
10.196723
10.160606
10.131188
10.107819
10.090134
10.078171
10.072486
10.07238
10.072292
10.071476
10.070248
10.068491
10.066169
10.063248
10.059707
10.055535
10.050722
10.045191
10.038636
10.030728
10.022664
10.017266
10.014297
10.01496
10.021098
10.009342
10.020165
1172.5647
2182.9506
1048.1031
639.96775
450.57937
318.71612
239.36222
182.74283
145.97404
119.09027
100.56979
86.330652
75.318336
66.340471
58.930387
52.72559
47.48218
43.019314
39.19042
35.880186
33.003295
30.488714
28.276679
26.319768
24.578687
23.023844
21.629956
20.37777
19.2516
18.237623
17.322469
16.495236
15.747519
15.072187
14.463396
13.915762
13.424349
12.984255
12.591028
12.241325
11.931941
11.658471
11.417621
11.206841
11.023494
10.864204
10.72646
10.608001
10.50668
10.420433
10.347334
10.28579
10.234281
10.191489
10.156213
10.127488
10.104645
10.0873
10.07537
10.069121
10.068406
10.068188
10.067223
10.065848
10.063955
10.061508
10.058475
10.054839
10.050586
10.045705
10.040133
10.033594
10.025769
10.018351
10.013322
10.010627
10.011939
10.016585
10.009976
10.019388
1210.9224
2191.293
1038.5413
636.56336
446.83172
318.76467
237.97831
182.77448
145.39223
119.14624
100.36681
86.279212
75.174615
66.195104
58.75909
52.544356
47.293358
42.827718
39.000057
35.693172
32.821261
30.313518
28.109576
26.161925
24.430398
22.885372
21.501122
20.258105
19.140572
18.135103
17.228344
16.409104
15.668914
15.000528
14.398151
13.85643
13.370557
12.935732
12.547354
12.201919
11.896669
11.627142
11.389853
11.182179
11.001808
10.845271
10.709998
10.593739
10.494382
10.409911
10.338371
10.278198
10.227885
10.18614
10.151772
10.123797
10.101523
10.084546
10.072729
10.066202
10.064811
10.064412
10.063268
10.061715
10.059656
10.057055
10.053882
10.050121
10.04576
10.04078
10.035133
10.028594
10.020819
10.014028
10.009387
10.007071
10.008522
10.012539
10.010728
10.019725
1247.3102
2209.6696
1030.2789
632.86284
442.33328
318.07196
235.91392
182.31986
144.43388
118.92433
99.976062
86.051474
74.892108
65.91791
58.473128
52.259413
47.011727
42.552304
38.733911
35.43753
32.57683
30.081444
27.890447
25.956439
24.23845
22.706894
21.335681
20.105018
18.998998
18.004637
17.108725
16.299779
15.569302
14.909912
14.315873
13.781847
13.303136
12.875096
12.493059
12.153201
11.853243
11.588743
11.356068
11.152378
10.975756
10.822679
10.690503
10.57699
10.480054
10.39776
10.328115
10.269601
10.220719
10.180215
10.146917
10.119835
10.098256
10.081761
10.070178
10.063528
10.061604
10.060961
10.059605
10.057841
10.055584
10.052796
10.049452
10.045536
10.041038
10.035932
10.030168
10.023608
10.015945
10.009771
10.005558
10.003617
10.005074
10.00895
10.010731
10.019022
1281.5838
2235.6042
1026.3448
629.89379
438.3592
316.75101
233.37261
181.45733
143.20323
118.46298
99.442019
85.669784
74.490359
65.52618
58.087041
51.883988
46.648815
42.203312
38.400969
35.121221
32.277075
29.798823
27.624997
25.708342
24.00739
22.49254
21.13738
19.921937
18.830043
17.849144
16.966312
16.169758
15.450992
14.802473
14.21853
13.693837
13.22378
12.80388
12.42954
12.096497
11.802868
11.54434
11.317226
11.118307
10.946103
10.797094
10.668552
10.558258
10.464122
10.384339
10.316867
10.260244
10.212983
10.17387
10.141769
10.115688
10.094898
10.078964
10.067702
10.061054
10.058728
10.057792
10.056195
10.054191
10.051708
10.048709
10.045168
10.041073
10.036413
10.03116
10.025247
10.018627
10.0112
10.005639
10.001889
10.00029
10.001715
10.005663
10.00997
10.017197
1313.7025
2266.6823
1026.5057
627.07714
434.44212
314.79346
230.73656
180.2232
141.79831
117.76515
98.773549
85.132982
73.965634
65.017831
57.597663
51.415134
46.201576
41.777801
37.99817
34.741294
31.919202
29.463028
27.310886
25.414991
23.734773
22.24008
20.904196
19.707051
18.632125
17.667243
16.799912
16.018019
15.313127
14.677503
14.105553
13.591958
13.132168
12.721846
12.356611
12.031857
11.745656
11.494043
11.273458
11.080146
10.913027
10.768684
10.644305
10.537691
10.44672
10.369765
10.304726
10.250211
10.204748
10.167165
10.136373
10.111391
10.091475
10.076174
10.065299
10.058752
10.056147
10.054877
10.05301
10.050741
10.048009
10.044776
10.041018
10.036723
10.031881
10.026464
10.020382
10.013638
10.006657
10.001704
9.9984401
9.9971614
9.9985575
10.002691
10.008904
10.014325
1343.7759
2300.3602
1028.1752
623.94619
430.59489
312.18915
228.10779
178.75711
140.29209
116.85217
97.987431
84.449588
73.319073
64.394906
57.005105
50.852296
45.668912
41.27458
37.523433
34.295583
31.501114
29.072024
26.946438
25.07281
23.417163
21.946315
20.633179
19.457683
18.402868
17.456828
16.60768
15.842957
15.154335
14.533845
13.975979
13.475421
13.027682
12.628519
12.273823
11.959585
11.681959
11.438185
11.225067
11.03831
10.876909
10.737785
10.618067
10.515566
10.428083
10.354236
10.291855
10.239634
10.196119
10.160181
10.130787
10.106981
10.08801
10.073403
10.062961
10.056585
10.053809
10.052174
10.050015
10.047459
10.044458
10.040975
10.036984
10.032473
10.027431
10.021833
10.015587
10.008651
10.002364
9.9980178
9.9952559
9.9942887
9.995673
9.9999076
10.00715
10.010853
1371.8989
2334.4443
1026.6624
620.04219
425.83099
308.88418
224.59003
176.89708
138.45971
115.75461
97.079319
83.618691
72.543689
63.652693
56.304358
50.189758
45.045142
40.68855
36.96873
33.776021
31.015081
28.618422
26.525145
24.682596
23.055921
21.613042
20.326408
19.176095
18.144669
17.220355
16.392073
15.647005
14.977007
14.373828
13.832055
13.346379
12.912369
12.525874
12.18285
11.879267
11.611531
11.376599
11.171877
10.99316
10.838099
10.704693
10.590173
10.492178
10.408475
10.337971
10.278435
10.228659
10.187212
10.153007
10.125076
10.102502
10.08453
10.070665
10.060691
10.054526
10.051664
10.049643
10.047172
10.044314
10.041029
10.037281
10.033046
10.028308
10.023053
10.017255
10.010875
10.003852
9.9983708
9.994629
9.9923753
9.9917132
9.9931106
9.9973742
10.004783
10.008428
1398.1684
2367.3051
1018.0974
615.05922
419.36033
305.13583
220.24141
174.56581
136.57232
114.47518
96.038917
82.634989
71.63145
62.7832
55.487394
49.414661
44.316374
40.006382
36.33243
33.183484
30.463643
28.105844
26.050464
24.243419
22.650404
21.239759
19.983547
18.862115
17.857556
16.958023
16.153357
15.430539
14.781631
14.198033
13.674436
13.205533
12.786951
12.414633
12.084693
11.793164
11.536371
11.311133
11.115377
10.944601
10.796592
10.669369
10.560915
10.467789
10.388176
10.321201
10.264662
10.217439
10.178148
10.145735
10.119307
10.097996
10.081057
10.067972
10.058491
10.052551
10.049656
10.04724
10.044442
10.04127
10.037691
10.03367
10.029183
10.024211
10.018738
10.012724
10.006218
9.999479
9.9947207
9.991579
9.9898273
9.9894628
9.9908783
9.9951197
10.002425
10.005993
1422.6978
2398.2285
1009.2429
609.01146
411.23821
300.98795
215.63745
172.03684
134.58622
113.01451
94.853462
81.491442
70.570737
61.765913
54.531698
48.522137
43.483944
39.232108
35.612582
32.516115
29.844917
27.532599
25.521228
23.755401
22.20098
20.826995
19.605332
18.516668
17.542647
16.671151
15.892631
15.19471
14.569422
14.007718
13.504399
13.05416
12.652687
12.295993
11.980367
11.701936
11.45711
11.242502
11.056421
10.894324
10.753844
10.632971
10.530248
10.442353
10.36742
10.304114
10.250729
10.206136
10.169053
10.138462
10.113547
10.093507
10.077612
10.065332
10.056366
10.050641
10.047731
10.044922
10.041789
10.038297
10.034417
10.030118
10.025373
10.020162
10.014469
10.008251
10.00157
9.99552
9.9914579
9.9889014
9.9876362
9.9875672
9.9889992
9.9930806
10.000146
10.004286
1445.613
2428.2422
995.8778
601.42866
401.72057
296.43209
210.85994
169.25212
132.57424
111.37845
93.49594
80.157768
69.32387
60.594409
53.440842
47.50889
42.544082
38.36231
34.807693
31.772704
29.1586
26.898784
24.937675
23.218917
21.708433
20.375355
19.192579
18.14077
17.201135
16.361277
15.610147
14.939803
14.340724
13.803291
13.3224
12.892735
12.51006
12.170435
11.87036
11.606073
11.374116
11.171673
10.995765
10.842763
10.710261
10.596119
10.499357
10.416728
10.346155
10.286651
10.236772
10.194897
10.160051
10.131284
10.107865
10.089076
10.074214
10.062747
10.054319
10.048794
10.045836
10.042649
10.039176
10.035362
10.03118
10.0266
10.021597
10.016144
10.010226
10.003855
9.9970877
9.9919953
9.9886073
9.9866167
9.9858173
9.9860507
9.9875143
9.9912995
9.9979047
10.002635
1467.2244
2456.5004
978.6023
592.9397
391.69501
291.46623
206.01189
166.26907
130.51018
109.54516
91.901429
78.617334
67.895946
59.262676
52.208332
46.371168
41.494172
37.395227
33.916545
30.952674
28.404478
26.204835
24.300073
22.634603
21.173993
19.884399
18.744984
17.734312
16.83302
16.028955
15.311031
14.670879
14.100435
13.589482
13.132951
12.725494
12.363009
12.041565
11.757917
11.508507
11.289787
11.098862
10.933638
10.790123
10.66596
10.559276
10.468469
10.39123
10.325251
10.269445
10.222685
10.183805
10.151243
10.124291
10.102326
10.084744
10.07088
10.060211
10.052349
10.047018
10.043926
10.040382
10.036573
10.032441
10.027959
10.023099
10.017836
10.012144
10.005995
9.9995081
9.9931942
9.988903
9.9861759
9.9847278
9.984372
9.9849203
9.9864494
9.9898488
9.9957595
10.000959
1487.7685
2479.2801
957.16742
583.89196
381.22354
286.1442
201.17901
163.09419
128.32315
107.41972
90.054237
76.859339
66.274201
57.762483
50.828066
45.104152
40.330853
36.328566
32.938106
30.055049
27.582393
25.451554
23.606998
22.00114
20.597177
19.360547
18.269576
17.304668
16.445863
15.681091
14.999081
14.391656
13.851667
13.369089
12.938578
12.554676
12.213516
11.91113
11.644513
11.410465
11.205523
11.026666
10.872171
10.738216
10.622333
10.522472
10.437637
10.365743
10.304767
10.252779
10.20902
10.172721
10.142667
10.117553
10.096992
10.080551
10.067631
10.057712
10.050431
10.045341
10.041965
10.038091
10.033954
10.029512
10.024737
10.019599
10.014077
10.008154
10.001812
9.9951577
9.9898005
9.9862518
9.9841527
9.983221
9.9832831
9.9841548
9.9857979
9.9888255
9.9938907
9.999124
1507.503
2491.926
931.61871
574.19666
370.37423
280.49793
196.43587
159.64859
125.89314
105.00945
87.927119
74.866054
64.446192
56.083732
49.2927
43.702808
39.051267
35.160006
31.871693
29.076704
26.689469
24.637319
22.866898
21.328389
19.987762
18.809578
17.772219
16.857098
16.044622
15.32257
14.67946
14.107042
13.597538
13.144696
12.741465
12.382087
12.063065
11.780378
11.531162
11.312712
11.121683
10.955788
10.811944
10.687453
10.579953
10.487109
10.408036
10.341107
10.284515
10.236742
10.196
10.162081
10.134154
10.111081
10.091909
10.07653
10.064492
10.055249
10.04851
10.043761
10.039932
10.035751
10.0313
10.026559
10.021501
10.016095
10.010318
10.004163
9.9977178
9.9913634
9.9869043
9.9840363
9.9825183
9.9820746
9.9825223
9.9837057
9.9854971
9.9882604
9.992611
9.9975956
1526.6483
2484.1664
902.33537
563.90034
359.19396
274.53336
191.77613
155.80511
123.14318
102.26959
85.490453
72.614835
62.39595
54.215376
47.594887
42.161627
37.652692
33.883635
30.7129
28.026387
25.738143
23.775549
22.087786
20.624585
19.353664
18.240058
17.261331
16.397891
15.634821
14.95816
14.356072
13.820903
13.345123
12.922551
12.5472
12.212703
11.91605
11.653241
11.421341
11.218367
11.040701
10.886402
10.75311
10.637858
10.538591
10.453285
10.379906
10.317758
10.265154
10.221068
10.183679
10.152066
10.126022
10.104698
10.087082
10.072706
10.061485
10.052843
10.04652
10.042038
10.03782
10.033345
10.028601
10.023576
10.018248
10.012589
10.006576
10.000213
9.9936355
9.9882092
9.9845157
9.9822544
9.98125
9.9812663
9.9820626
9.9835251
9.9854728
9.988098
9.9920039
9.9969794
1545.3732
2435.8154
870.77439
553.03593
347.73982
268.16316
186.89023
151.5362
119.9602
99.152497
82.710684
70.081121
60.107697
52.147874
45.728096
40.471186
36.127701
32.511094
29.47802
26.915172
24.739875
22.878265
21.282316
19.902235
18.704588
17.660329
16.744943
15.939083
15.227544
14.598111
14.038281
13.540939
13.098888
12.706438
12.35863
12.048806
11.77422
11.531155
11.316331
11.128485
10.963976
10.820871
10.697575
10.591099
10.499357
10.42069
10.353405
10.295876
10.246988
10.206227
10.171781
10.142724
10.118399
10.09862
10.082355
10.069086
10.058614
10.050531
10.044509
10.040165
10.035615
10.030865
10.025852
10.020563
10.014984
10.009089
10.00286
9.9963998
9.990092
9.9856237
9.9826328
9.9809063
9.9803215
9.9807685
9.9818782
9.983577
9.9856781
9.9883117
9.991984
9.9967818
1563.5436
2400.0246
838.93654
541.54693
336.01469
260.84627
181.85182
146.73905
116.23077
95.600387
79.552922
67.240969
57.566188
49.87303
43.679959
38.64313
34.49779
31.057762
28.183614
25.761546
23.712446
21.962921
20.463881
19.174021
18.057859
17.086581
16.236972
15.490109
14.83087
14.248846
13.731427
13.271803
12.863229
12.500106
12.177659
11.891763
11.63843
11.414556
11.217285
11.043899
10.892113
10.759638
10.645649
10.547472
10.462842
10.390218
10.328119
10.275183
10.230166
10.192409
10.160633
10.133827
10.11135
10.092915
10.077879
10.065633
10.055856
10.048326
10.042542
10.038133
10.033314
10.028311
10.023058
10.017532
10.01172
10.005621
9.9992182
9.992643
9.9872927
9.9835678
9.9812112
9.9799814
9.9797055
9.9805318
9.9819238
9.983819
9.986051
9.9887708
9.9923651
9.9969521
1580.7031
2358.2113
806.18322
529.09826
323.9164
252.34881
176.46783
141.29889
111.84676
91.552425
75.983838
64.073706
54.752854
47.376502
41.475786
36.699875
32.786903
29.550018
26.85496
24.589693
22.674812
21.047286
19.655889
18.460329
17.427841
16.531106
15.747862
15.060139
14.452627
13.91547
13.439389
13.016295
12.640064
12.305641
12.008711
11.745353
11.512037
11.30574
11.123905
10.964244
10.824687
10.703184
10.5978
10.507266
10.429247
10.36226
10.304946
10.25611
10.214682
10.179685
10.150324
10.125603
10.104869
10.087619
10.073634
10.062237
10.053171
10.046182
10.040694
10.03596
10.030923
10.025691
10.020226
10.014498
10.008478
10.002188
9.995767
9.9895256
9.9850775
9.9819941
9.9801568
9.9794109
9.9794173
9.9804782
9.982113
9.984174
9.9865327
9.9893954
9.9930187
9.9973755
1596.1846
2290.3756
771.77361
515.18997
310.68233
242.52255
170.42428
135.07667
106.70805
86.949998
71.977728
60.560193
51.685063
44.706065
39.151877
34.680114
31.033054
28.022807
25.519886
23.424628
21.657751
20.157829
18.876991
17.777407
16.82865
16.005485
15.286745
14.654854
14.098019
13.605359
13.168467
12.780013
12.434224
12.126464
11.85299
11.610513
11.395833
11.206023
11.038683
10.891572
10.762841
10.650874
10.55427
10.470658
10.398668
10.336836
10.283874
10.23867
10.200265
10.168109
10.140867
10.117966
10.098766
10.082774
10.069718
10.059051
10.05054
10.043974
10.038737
10.033694
10.028461
10.023025
10.017369
10.011472
10.005304
9.9988403
9.9923036
9.9871139
9.9833693
9.9808436
9.9793863
9.9789197
9.9793852
9.9805346
9.9823416
9.984533
9.9870273
9.9900521
9.9937094
9.9978159
1608.8966
2221.4889
734.80682
499.24735
296.66255
231.17284
163.25151
127.90568
100.7381
81.76327
67.528814
56.741351
48.424568
41.920602
36.767714
32.636726
29.282466
26.513223
24.218994
22.300941
20.685354
19.31486
18.14455
17.139317
16.271477
15.518493
14.859927
14.282371
13.772837
13.321377
12.920853
12.564496
12.246976
11.963933
11.711932
11.488264
11.290462
11.115564
10.961478
10.826024
10.707344
10.604478
10.515036
10.43774
10.371151
10.313971
10.26498
10.22315
10.187625
10.157665
10.132334
10.111028
10.093189
10.078337
10.066122
10.056105
10.048042
10.041756
10.036666
10.03137
10.025956
10.020348
10.014521
10.008455
10.00218
9.9957894
9.9895632
9.9851752
9.9820602
9.9800386
9.9789567
9.9786673
9.9793726
9.9806624
9.9825449
9.9848042
9.9874209
9.9906359
9.9943815
9.9982353
1616.0378
2137.9432
695.05031
479.57378
281.59401
217.98033
154.47551
119.64863
93.936663
76.039618
62.720957
52.725186
45.068163
39.10652
34.397382
30.63103
27.580765
25.067708
22.98547
21.245441
19.77941
18.535081
17.471484
16.55646
15.764667
15.076029
14.474328
13.945963
13.479918
13.066014
12.698375
12.371017
12.079129
11.818684
11.586329
11.379446
11.196662
11.034963
10.892574
10.767655
10.658398
10.563069
10.480237
10.408538
10.346716
10.293633
10.24819
10.209269
10.176398
10.148424
10.124749
10.1048
10.088114
10.074297
10.062827
10.053408
10.045758
10.039639
10.034538
10.029043
10.023452
10.017693
10.01174
10.005541
9.9990886
9.9926404
9.9874668
9.9836558
9.9810494
9.9794507
9.9787017
9.9785186
9.9794716
9.9808367
9.9827395
9.9849964
9.9876679
9.9910186
9.9948735
9.9985682
1612.4384
2035.4101
651.99042
453.87103
265.29806
202.59573
143.85554
110.33008
86.454662
69.907139
57.740056
48.659401
41.735419
36.359347
32.118314
28.727075
25.98143
23.723332
21.84883
20.280239
18.956305
17.830478
16.866329
16.035163
15.314239
14.685515
14.134594
13.649686
13.221029
12.840715
12.502208
12.200423
11.931101
11.690741
11.476378
11.285469
11.115827
10.965639
10.833164
10.716849
10.615213
10.526742
10.449752
10.383058
10.325435
10.275855
10.23365
10.197463
10.166586
10.140373
10.118173
10.099392
10.083752
10.070661
10.059817
10.05091
10.043697
10.037758
10.032423
10.026794
10.02103
10.015103
10.009025
10.002797
9.9964476
9.9902404
9.9857929
9.9825105
9.9802997
9.9790146
9.9785378
9.9785727
9.9796381
9.9810799
9.98298
9.9852031
9.9878555
9.9912095
9.9950848
9.998707
1591.9413
1904.1424
605.83761
421.46492
247.77902
184.81194
131.61338
100.27574
78.641848
63.691458
52.807413
44.709631
38.54981
33.772392
30.002159
26.981072
24.528049
22.512241
20.832613
19.422538
18.228468
17.209815
16.33489
15.578613
14.920882
14.345532
13.83973
13.393568
12.998379
12.647201
12.334027
12.054364
11.8044
11.581023
11.381609
11.203911
11.045951
10.905947
10.782277
10.673441
10.578131
10.495519
10.423593
10.36128
10.30747
10.261148
10.221403
10.187405
10.158294
10.133509
10.112641
10.094943
10.080026
10.067541
10.057175
10.048688
10.041711
10.035906
10.030414
10.024688
10.018807
10.012734
10.006472
10.000068
9.9937372
9.9884228
9.984488
9.9816716
9.9798131
9.9787894
9.9784663
9.9788963
9.9798664
9.9813831
9.9832808
9.9854812
9.9880915
9.9913417
9.9950837
9.9986429
1545.6979
1743.8734
557.75412
383.14639
229.95902
164.90269
118.43411
90.109716
70.955261
57.71686
48.14772
41.035979
35.628156
31.430313
28.110076
25.439775
23.260526
21.459515
19.954877
18.68539
17.605459
16.680154
15.882295
15.190373
14.587056
14.058058
13.590897
13.177612
12.8105
12.484102
12.192423
11.931528
11.698
11.489045
11.302302
11.135743
10.987584
10.856215
10.740158
10.638034
10.548551
10.470484
10.402653
10.343769
10.292858
10.248952
10.211237
10.179159
10.15166
10.1282
10.108241
10.091334
10.077056
10.065042
10.05509
10.046811
10.039977
10.034209
10.028567
10.022757
10.016808
10.01069
10.004393
9.9979671
9.9917105
9.9870147
9.9835105
9.9810715
9.9795299
9.9787743
9.9785906
9.979107
9.9801675
9.9817016
9.9835934
9.9857849
9.9883777
9.9915423
9.995145
9.9986179
1465.5128
1581.0142
508.72046
343.69009
206.01625
145.61575
105.25831
80.519948
63.851082
52.297049
43.976487
37.793573
33.081052
29.408933
26.490435
24.130459
22.193171
20.582086
19.227482
18.078226
17.095157
16.248467
15.514805
14.875656
14.3161
13.82398
13.389285
13.003722
12.660562
12.354205
12.080009
11.834324
11.614084
11.416759
11.240203
11.082564
10.942199
10.817611
10.707406
10.610274
10.524986
10.450461
10.385987
10.329957
10.281508
10.239727
10.203803
10.172998
10.146649
10.12411
10.104898
10.088584
10.07488
10.063291
10.053561
10.045436
10.038659
10.03286
10.027061
10.021126
10.015066
10.008867
10.002538
9.9961759
9.9902864
9.9860021
9.9828255
9.980656
9.9793443
9.9788014
9.9787343
9.9793662
9.9804707
9.9820162
9.9838987
9.9860859
9.9886591
9.9917254
9.9951664
9.998543
1353.1846
1492.701
462.62138
296.34073
182.19713
127.50075
93.344888
72.027413
57.702925
47.725206
40.511499
35.133596
31.012052
27.778441
25.189987
23.082232
21.340672
19.883429
18.649763
17.597396
16.692592
15.909649
15.228277
14.632256
14.10843
13.646048
13.236213
12.871605
12.546281
12.255767
11.995143
11.761221
11.551193
11.362753
11.193943
11.043067
10.908618
10.789224
10.683604
10.590541
10.508863
10.437421
10.375093
10.320946
10.274033
10.233508
10.198601
10.168649
10.143185
10.121372
10.102774
10.086949
10.073526
10.062182
10.05263
10.044615
10.037883
10.032053
10.026141
10.020092
10.013907
10.007586
10.001166
9.9948292
9.9893797
9.9853594
9.9824177
9.9804295
9.9792632
9.9788339
9.9788223
9.9796073
9.9807399
9.9822982
9.9841826
9.9863753
9.9889313
9.9919095
9.9952091
9.998502
1220.2514
1249.8945
422.47018
254.1014
160.04242
112.39126
83.485269
65.168484
52.843117
44.2012
37.905876
33.169689
29.506304
26.606121
24.264639
22.342721
20.743028
19.395799
18.249911
17.267094
16.418267
15.680799
15.036766
14.471697
13.973707
13.53291
13.141274
12.792051
12.479678
12.199557
11.947925
11.721645
11.518133
11.335231
11.171101
11.024152
10.892963
10.776239
10.672771
10.581428
10.501189
10.43132
10.370265
10.317188
10.271171
10.231393
10.197099
10.167605
10.142303
10.120655
10.102176
10.086445
10.073093
10.061799
10.052282
10.044294
10.037578
10.031755
10.025841
10.019772
10.013549
10.007165
10.000667
9.9942867
9.9890364
9.9851464
9.9823171
9.9804118
9.9792968
9.9788823
9.9790684
9.9797852
9.9809464
9.9825044
9.9843944
9.9865972
9.9891358
9.992029
9.9952008
9.9984444
1100.7032
1112.6162
389.83594
223.40626
143.46644
101.27378
76.181221
60.171719
49.368297
41.727771
36.10521
31.834401
28.500225
25.838053
23.671857
21.881065
20.380737
19.109599
18.0225
17.085503
16.272602
15.56349
14.942017
14.39521
13.91294
13.484883
13.103784
12.763271
12.458108
12.18394
11.93718
11.714866
11.514552
11.334194
11.172058
11.02664
10.896599
10.780706
10.67781
10.586811
10.506655
10.436328
10.374867
10.321339
10.274874
10.234659
10.199951
10.170071
10.144409
10.122422
10.103627
10.087601
10.073973
10.062422
10.052665
10.044453
10.037541
10.031591
10.025789
10.019803
10.013694
10.007438
10.001073
9.9947864
9.9894118
9.9854695
9.9825977
9.9806699
9.9795393
9.9790749
9.9790929
9.979956
9.981078
9.9826292
9.9845217
9.986735
9.9892618
9.9920914
9.9951713
9.9983961
1045.7883
1071.1356
365.60376
206.33168
132.60226
93.723323
70.735327
56.198315
46.40636
39.47129
34.351993
30.44551
27.382572
24.926742
22.920687
21.256251
19.857005
18.667653
17.647349
16.765354
15.9981
15.327172
14.737886
14.218295
13.758506
13.350236
12.98647
12.6613
12.36976
12.107708
11.871711
11.658931
11.467026
11.294044
11.138339
10.99849
10.87324
10.761442
10.662023
10.573962
10.496273
10.428005
10.368242
10.31611
10.270785
10.231495
10.197531
10.168244
10.14305
10.121425
10.102905
10.087081
10.073595
10.062132
10.05242
10.044216
10.037281
10.031284
10.025413
10.01937
10.013207
10.006905
10.000512
9.9942553
9.9891371
9.9853233
9.9825518
9.9806844
9.9795843
9.9791457
9.9791208
9.980005
9.9811051
9.9826444
9.9845347
9.986752
9.9892722
9.992072
9.9951188
9.9983584
31542.529
79171.471
37086.595
10753.577
1415.1114
610.80393
433.6274
350.0841
289.99711
235.87621
192.19935
159.01715
134.47726
116.25371
102.22274
90.756876
81.058641
72.784024
65.696234
59.582424
54.265856
49.611106
45.513294
41.887104
38.667269
35.789384
33.208156
30.88366
28.784094
26.884357
25.163014
23.600946
22.181471
20.889921
19.714791
18.646391
17.675988
16.795836
15.998867
15.27865
14.629588
14.046113
13.523163
13.056182
12.64069
12.272454
11.947644
11.66223
11.412539
11.195217
11.006996
10.844766
10.70556
10.586851
10.486129
10.401236
10.332119
10.278234
10.239488
10.218208
10.21123
10.209715
10.20827
10.206045
10.203373
10.200308
10.19555
10.188885
10.178939
10.169489
10.150351
10.138057
10.109876
10.099717
10.056976
10.068456
9.9957903
10.014332
9.9850414
10.006466
19952.938
59608.106
24691.367
5108.5377
972.65189
528.25293
397.29126
320.94821
263.62711
212.37041
174.19381
145.43459
124.42182
108.64988
96.196174
85.756604
76.861232
69.260428
62.727127
57.063373
52.115247
47.766548
43.925144
40.515097
37.474584
34.750622
32.301868
30.090978
28.089895
26.276046
24.629643
23.132971
21.770671
20.52925
19.39842
18.369212
17.433475
16.584016
15.814203
15.118027
14.490254
13.925552
13.419167
12.966786
12.564103
12.207088
11.892081
11.615162
11.372831
11.161866
10.979098
10.821524
10.686282
10.570952
10.473108
10.390509
10.322879
10.270286
10.232719
10.212617
10.206224
10.204879
10.203438
10.201244
10.19862
10.195537
10.191469
10.185372
10.176075
10.166878
10.148744
10.136767
10.108664
10.099052
10.057003
10.069141
9.9962522
10.0151
9.9858902
10.007111
28182.745
35551.668
13565.743
2557.8251
836.40505
498.30319
387.22654
305.65481
250.22103
200.81227
166.44293
139.34466
119.85638
104.96886
93.094466
83.066725
74.548152
67.269637
61.002489
55.560577
50.800814
46.613903
42.911968
39.622369
36.684373
34.05083
31.681679
29.540525
27.601369
25.842557
24.245
22.791667
21.467892
20.260777
19.160733
18.159097
17.248048
16.420706
15.670679
14.992206
14.380273
13.829666
13.335844
12.894633
12.501834
12.153551
11.846238
11.576039
11.339582
11.133729
10.955382
10.801615
10.669659
10.557182
10.461687
10.381132
10.314646
10.263048
10.22638
10.207164
10.201209
10.200008
10.198588
10.196442
10.193871
10.190839
10.18714
10.181648
10.173051
10.164138
10.147053
10.135377
10.107466
10.098328
10.056932
10.069727
9.9967435
10.01584
9.9866817
10.007727
35737.628
24021.123
8367.8445
1547.8295
753.92758
475.01427
374.82435
289.71129
239.01122
190.1529
159.42916
133.43247
115.52312
101.42851
90.132616
80.511136
72.35707
65.379439
59.361716
54.128562
49.545835
45.510652
41.939388
38.762709
35.923174
33.373044
31.078504
29.003278
27.122957
25.416588
23.86576
22.454062
21.167458
19.993592
18.923529
17.948843
17.062025
16.256477
15.52602
14.865124
14.268968
13.732444
13.251214
12.821229
12.438389
12.098928
11.799403
11.536019
11.305531
11.104882
10.931043
10.781168
10.65264
10.542995
10.449921
10.37143
10.306303
10.255729
10.219987
10.201635
10.196168
10.195113
10.193718
10.191623
10.18911
10.18612
10.182521
10.177634
10.169779
10.161179
10.14516
10.133796
10.106151
10.097504
10.056773
10.070231
9.9972703
10.016583
9.9874824
10.008328
40283.7
20457.421
5885.2626
1226.5103
719.3744
457.56378
365.14233
277.24638
230.84912
182.0033
154.46062
128.83471
112.25444
98.615905
87.752641
78.4312
70.561087
63.814107
57.989958
52.9205
48.478154
44.564499
41.098837
38.014223
35.255179
32.776579
30.542639
28.522995
26.69274
25.03133
23.520864
22.145399
20.891387
19.746893
18.70352
17.752963
16.887984
16.102202
15.389595
14.744826
14.163223
13.639753
13.170261
12.750787
12.37731
12.046182
11.754041
11.497142
11.272362
11.076704
10.907207
10.761106
10.635867
10.528985
10.43827
10.3618
10.298121
10.248513
10.213656
10.196029
10.191118
10.190197
10.188834
10.186797
10.184345
10.181402
10.177817
10.17336
10.166278
10.158027
10.143076
10.132047
10.104709
10.096567
10.056524
10.07065
9.9978274
10.017343
9.9882692
10.008933
43085.882
19085.086
4522.4424
1154.2308
698.8824
439.14897
357.62908
267.43122
224.61916
175.50315
150.56236
124.94215
109.55493
96.190618
85.703259
76.626534
68.994963
62.43925
56.77795
51.847209
47.524639
43.715229
40.340604
37.335755
34.646945
32.230406
30.050405
28.079913
26.294074
24.67281
23.198577
21.855807
20.631366
19.513666
18.49478
17.566453
16.721704
15.954317
15.258401
14.628784
14.060915
13.549814
13.091495
12.682063
12.317567
11.994461
11.709453
11.458838
11.239608
11.048823
10.883591
10.741256
10.619164
10.514999
10.426617
10.352145
10.290034
10.241353
10.207361
10.19049
10.186073
10.185267
10.183941
10.181968
10.179579
10.176686
10.173143
10.168836
10.162537
10.154672
10.140776
10.130119
10.103154
10.095518
10.056182
10.070986
9.9984126
10.018126
9.989047
10.009554
45310.831
17176.251
3630.7312
1103.5449
683.54265
426.51402
351.69534
259.56786
219.81018
170.33346
147.45774
121.66538
107.31643
94.097698
83.936979
75.057833
67.625967
61.229227
55.704994
50.891769
46.671401
42.951462
39.655411
36.719783
34.09222
31.730216
29.599347
27.671137
25.924579
24.339164
22.897475
21.584224
20.386618
19.293357
18.296929
17.389066
16.563039
15.812753
15.132424
14.517023
13.962094
13.462694
13.014993
12.615136
12.259237
11.943838
11.665705
11.421169
11.207332
11.021311
10.86032
10.721543
10.602554
10.501066
10.414987
10.342491
10.282048
10.23426
10.201113
10.185027
10.181029
10.180329
10.179046
10.177141
10.174818
10.171975
10.168471
10.164169
10.158559
10.151118
10.138249
10.128008
10.101521
10.094368
10.055747
10.071234
9.9990231
10.018908
9.9898141
10.010151
46953.365
14528.346
3062.9228
1072.5511
671.88618
416.32835
346.55034