/*--------------------------------*- C++ -*----------------------------------*\
  =========                 |
  \\      /  F ield         | OpenFOAM: The Open Source CFD Toolbox
   \\    /   O peration     | Website:  https://openfoam.org
    \\  /    A nd           | Version:  12
     \\/     M anipulation  |
\*---------------------------------------------------------------------------*/
FoamFile
{
    format      ascii;
    class       volScalarField;
    location    "0.114";
    object      p;
}
// * * * * * * * * * * * * * * * * * * * * * * * * * * * * * * * * * * * * * //

dimensions      [1 -1 -2 0 0 0 0];

internalField   nonuniform List<scalar> 
16000
(
89580.639
89706.483
89718.212
89852.486
89878.707
90005.85
90056.277
90172.747
90246.479
90357.286
90449.212
90559.936
90665.867
90780.9
90897.827
91020.182
91146.592
91277.655
91413.251
91553.466
91698.31
91847.789
92001.885
92160.556
92323.735
92491.327
92663.209
92839.223
93019.182
93202.864
93390.013
93580.337
93773.514
93969.185
94166.962
94366.429
94567.143
94768.637
94970.43
95172.024
95372.916
95572.598
95770.568
95966.332
96159.411
96349.348
96535.711
96718.099
96896.144
97069.514
97237.917
97401.1
97558.852
97711.001
97857.415
97998.001
98132.701
98261.493
98384.383
98501.412
98612.645
98718.168
98818.091
98912.54
99001.659
99085.606
99164.55
99238.668
99308.148
99373.18
99433.951
99490.68
99543.636
99592.975
99638.573
99679.93
99733.644
99718.774
99873.768
99711.831
89209.517
89352.184
89361.6
89507.758
89535.429
89673.418
89726.147
89853.836
89931.319
90052.187
90150.435
90270.04
90384.22
90508.051
90634.168
90765.939
90902.172
91043.352
91189.397
91340.363
91496.246
91657.025
91822.653
91993.053
92168.121
92347.718
92531.672
92719.777
92911.79
93107.432
93306.387
93508.301
93712.788
93919.426
94127.762
94337.318
94547.592
94758.062
94968.198
95177.459
95385.306
95591.208
95794.644
95995.116
96192.151
96385.305
96574.171
96758.382
96937.61
97111.573
97280.033
97442.795
97599.707
97750.661
97895.587
98034.45
98167.25
98294.018
98414.811
98529.712
98638.827
98742.275
98840.192
98932.729
99020.046
99102.315
99179.712
99252.419
99320.623
99384.507
99444.255
99500.095
99552.264
99600.726
99645.565
99689.758
99729.215
99745.984
99852.824
99735.427
88868.823
89026.946
89036.101
89195.621
89223.397
89375.103
89429.526
89569.507
89651.85
89783.193
89889.19
90018.343
90142.06
90275.721
90412.243
90554.642
90701.937
90854.484
91012.22
91175.159
91343.266
91516.486
91694.732
91877.886
92065.794
92258.268
92455.082
92655.97
92860.627
93068.705
93279.819
93493.543
93709.417
93926.945
94145.604
94364.848
94584.11
94802.814
95020.378
95236.225
95449.788
95660.519
95867.893
96071.42
96270.647
96465.163
96654.603
96838.652
97017.041
97189.555
97356.026
97516.332
97670.397
97818.187
97959.701
98094.976
98224.076
98347.091
98464.132
98575.329
98680.828
98780.784
98875.36
98964.73
99049.07
99128.562
99203.387
99273.732
99339.778
99401.7
99459.681
99513.948
99564.654
99611.736
99655.926
99698.984
99733.714
99765.061
99843.252
99752.764
88563.393
88732.242
88742.456
88917.25
88944.515
89112.396
89169.033
89323.263
89411.393
89554.74
89669.958
89810.016
89944.891
90089.845
90238.29
90392.793
90552.574
90717.871
90888.62
91064.8
91246.346
91433.165
91625.129
91822.073
92023.791
92230.035
92440.511
92654.883
92872.766
93093.733
93317.31
93542.987
93770.217
93998.419
94226.992
94455.313
94682.752
94908.677
95132.463
95353.502
95571.212
95785.042
95994.483
96199.073
96398.398
96592.103
96779.887
96961.508
97136.778
97305.566
97467.793
97623.427
97772.478
97914.997
98051.065
98180.795
98304.319
98421.79
98533.375
98639.252
98739.608
98834.632
98924.513
99009.444
99089.616
99165.218
99236.436
99303.452
99366.443
99425.573
99481.022
99532.988
99581.556
99626.768
99669.587
99710.257
99743.218
99779.88
99840.639
99766.394
88296.328
88480.038
88487.101
88680.56
88706.736
88893.012
88951.837
89122.181
89217.401
89374.191
89500.439
89652.623
89800.197
89957.708
90119.332
90287.143
90460.572
90639.766
90824.668
91015.222
91211.332
91412.861
91619.626
91831.4
92047.904
92268.808
92493.733
92722.245
92953.86
93188.047
93424.23
93661.795
93900.094
94138.454
94376.187
94612.596
94846.99
95078.688
95307.037
95531.415
95751.244
95965.996
96175.202
96378.453
96575.407
96765.786
96949.382
97126.049
97295.702
97458.316
97613.913
97762.565
97904.381
98039.503
98168.099
98290.359
98406.487
98516.698
98621.21
98720.249
98814.037
98902.793
98986.73
99066.054
99140.968
99211.663
99278.325
99341.13
99400.242
99455.817
99508.021
99557.015
99602.842
99645.67
99686.377
99724.244
99755.866
99793.751
99841.493
99780.058
88072.543
88273.864
88278.719
88493.215
88518.285
88724.933
88786.06
88974.221
89077.769
89248.791
89387.332
89552.177
89713.382
89884.284
90060.037
90242.226
90430.461
90624.808
90825.182
91031.476
91243.53
91461.133
91684.019
91911.865
92144.292
92380.858
92621.067
92864.362
93110.137
93357.735
93606.457
93855.572
94104.324
94351.941
94597.651
94840.691
95080.321
95315.833
95546.565
95771.912
95991.33
96204.347
96410.565
96609.666
96801.407
96985.625
97162.227
97331.191
97492.556
97646.416
97792.915
97932.233
98064.584
98190.205
98309.352
98422.289
98529.288
98630.619
98726.551
98817.345
98903.255
98984.524
99061.379
99134.037
99202.703
99267.569
99328.814
99386.603
99441.087
99492.406
99540.708
99586.109
99628.637
99668.549
99706.488
99741.225
99771.244
99808.556
99845.521
99794.827
87892.532
88114.662
88116.745
88355.806
88379.902
88610.663
88675.007
88882.546
88994.431
89179.016
89330.752
89508.858
89685.017
89870.812
90062.373
90260.784
90465.737
90677.191
90894.992
91118.945
91348.795
91584.224
91824.851
92070.227
92319.84
92573.107
92829.385
93087.972
93348.112
93609.006
93869.818
94129.693
94387.765
94643.17
94895.068
95142.647
95385.147
95621.863
95852.164
96075.498
96291.4
96499.493
96699.496
96891.216
97074.551
97249.48
97416.058
97574.407
97724.707
97867.186
98002.112
98129.782
98250.512
98364.632
98472.477
98574.381
98670.673
98761.67
98847.679
98928.99
99005.878
99078.6
99147.391
99212.469
99274.038
99332.281
99387.366
99439.443
99488.646
99535.098
99578.918
99620.179
99658.916
99695.416
99730.023
99761.323
99789.329
99824.653
99852.485
99811.966
87750.347
87996.924
87994.738
88263.38
88284.386
88541.859
88609.315
88835.849
88959.312
89159.888
89328.478
89522.673
89716.81
89920.419
90130.584
90347.968
90572.297
90803.424
91041.107
91285.041
91534.846
91790.07
92050.184
92314.581
92582.58
92853.427
93126.305
93400.336
93674.6
93948.139
94219.979
94489.143
94754.667
95015.619
95271.116
95520.339
95762.548
95997.091
96223.419
96441.086
96649.756
96849.204
97039.308
97220.048
97391.494
97553.801
97707.191
97851.95
97988.407
98116.929
98237.909
98351.751
98458.869
98559.673
98654.565
98743.937
98828.159
98907.584
98982.542
99053.34
99120.263
99183.571
99243.496
99300.253
99354.033
99405.007
99453.326
99499.12
99542.504
99583.577
99622.426
99659.091
99693.618
99726.264
99757.073
99784.722
99810.345
99842.275
99862.579
99831.762
87644.021
87918.899
87912.321
88217.545
88232.702
88518.789
88591.555
88839.981
88980.199
89199.3
89388.425
89601.645
89816.836
90041.37
90273.154
90512.501
90759.107
91012.699
91272.906
91539.272
91811.258
92088.23
92369.47
92654.17
92941.443
93230.326
93519.799
93808.789
94096.197
94380.908
94661.816
94937.844
95207.964
95471.215
95726.724
95973.721
96211.551
96439.682
96657.711
96865.369
97062.511
97249.114
97425.269
97591.164
97747.077
97893.356
98030.407
98158.68
98278.656
98390.831
98495.709
98593.793
98685.573
98771.523
98852.095
98927.715
98998.782
99065.665
99128.704
99188.208
99244.458
99297.706
99348.175
99396.062
99441.543
99484.768
99525.867
99564.949
99602.103
99637.403
99670.901
99702.613
99732.594
99761.012
99787.67
99811.58
99834.531
99861.911
99875.924
99854.24
87576.09
87884.015
87874.243
88216.554
88230.796
88549.035
88633.166
88906.835
89066.962
89306.585
89519.882
89755.329
89994.846
90243.712
90500.423
90764.986
91036.991
91315.998
91601.455
91892.707
92188.996
92489.457
92793.125
93098.943
93405.772
93712.411
94017.608
94320.089
94618.578
94911.823
95198.619
95477.836
95748.438
96009.508
96260.261
96500.059
96728.419
96945.014
97149.673
97342.372
97523.222
97692.458
97850.421
97997.537
98134.305
98261.276
98379.033
98488.183
98589.339
98683.108
98770.085
98850.842
98925.923
98995.842
99061.077
99122.069
99179.222
99232.906
99283.45
99331.154
99376.282
99419.067
99459.711
99498.39
99535.255
99570.432
99604.024
99636.115
99666.768
99696.027
99723.911
99750.425
99775.611
99799.506
99821.782
99841.946
99861.866
99883.859
99892.832
99879.929
87553.41
87900.602
87886.872
88269.612
88287.75
88642.359
88741.471
89042.273
89228.01
89491.026
89732.734
89994.361
90261.958
90538.978
90824.278
91117.58
91418.3
91725.771
92039.193
92357.639
92680.06
93005.287
93332.048
93658.982
93984.663
94307.625
94626.386
94939.48
95245.49
95543.075
95831.001
96108.168
96373.633
96626.627
96866.567
97093.06
97305.903
97505.072
97690.709
97863.108
98022.688
98169.977
98305.585
98430.184
98544.487
98649.229
98745.152
98832.989
98913.455
98987.236
99054.984
99117.309
99174.78
99227.92
99277.208
99323.078
99365.919
99406.081
99443.87
99479.56
99513.388
99545.558
99576.243
99605.591
99633.722
99660.734
99686.703
99711.683
99735.71
99758.794
99780.928
99802.112
99822.345
99841.515
99859.31
99875.756
99892.2
99908.258
99913.59
99909.209
87584.691
87978.599
87960.967
88391.616
88414.663
88808.833
88927.425
89257.223
89474.309
89764.045
90038.541
90330.843
90630.733
90940.169
91258.121
91583.994
91916.93
92255.939
92599.871
92947.43
93297.183
93647.584
93996.995
94343.715
94686.013
95022.164
95350.486
95669.378
95977.36
96273.107
96555.477
96823.542
97076.597
97314.172
97536.029
97742.15
97932.724
98108.12
98268.863
98415.607
98549.104
98670.176
98779.694
98878.549
98967.637
99047.839
99120.011
99184.97
99243.489
99296.292
99344.047
99387.37
99426.819
99462.901
99496.068
99526.725
99555.227
99581.887
99606.976
99630.73
99653.348
99674.999
99695.821
99715.926
99735.403
99754.317
99772.714
99790.62
99808.04
99824.952
99841.332
99857.169
99872.388
99886.747
99900.09
99912.855
99925.348
99935.165
99938.207
99942.201
87670.919
88120.387
88099.419
88584.642
88616.096
89053.664
89199.305
89560.704
89816.263
90137.499
90449.927
90778.359
91115.587
91462.371
91817.554
92180.125
92548.809
92922.159
93298.554
93676.222
94053.269
94427.71
94797.509
95160.617
95515.026
95858.808
96190.175
96507.518
96809.451
97094.846
97362.854
97612.916
97844.758
98058.382
98254.044
98432.219
98593.574
98738.925
98869.205
98985.427
99088.654
99179.969
99260.451
99331.159
99393.112
99447.279
99494.572
99535.84
99571.864
99603.358
99630.971
99655.284
99676.818
99696.034
99713.338
99729.084
99743.579
99757.086
99769.83
99782
99793.751
99805.211
99816.478
99827.627
99838.712
99849.766
99860.804
99871.822
99882.793
99893.671
99904.422
99915.009
99925.255
99934.854
99943.911
99953.058
99961.204
99964.756
99966.521
99978.522
87817.238
88332.668
88308.989
88856.211
88902.395
89387.31
89569.266
89965.635
90267.453
90626.521
90982.955
91353.996
91734.494
92124.153
92521.406
92924.661
93332.06
93741.564
94150.966
94557.936
94960.059
95354.886
95739.993
96113.044
96471.855
96814.46
97139.166
97444.599
97729.735
97993.914
98236.835
98458.542
98659.39
98840.006
99001.244
99144.138
99269.853
99379.643
99474.811
99556.674
99626.534
99685.658
99735.257
99776.476
99810.383
99837.967
99860.133
99877.704
99891.42
99901.946
99909.87
99915.712
99919.928
99922.913
99925.008
99926.504
99927.648
99928.644
99929.663
99930.843
99932.293
99934.094
99936.303
99938.958
99942.077
99945.661
99949.696
99954.148
99958.958
99964.066
99969.429
99974.965
99980.391
99985.427
99990.499
99996.15
99999.76
99997.483
99998.749
100017.57
88030.253
88624.576
88600.073
89217.736
89285.862
89822.19
90051.708
90488.252
90845.331
91250.721
91658.651
92079.811
92510.097
92948.163
93391.783
93838.621
94286.093
94731.446
95171.795
95604.185
96025.666
96433.371
96824.611
97196.959
97548.332
97877.05
98181.88
98462.053
98717.257
98947.614
99153.63
99336.146
99496.274
99635.335
99754.797
99856.22
99941.206
100011.36
100068.25
100113.4
100148.23
100174.1
100192.24
100203.81
100209.84
100211.26
100208.92
100203.57
100195.86
100186.38
100175.61
100164
100151.93
100139.69
100127.57
100115.78
100104.49
100093.86
100083.99
100074.98
100066.87
100059.71
100053.51
100048.28
100043.99
100040.63
100038.14
100036.46
100035.51
100035.22
100035.54
100036.31
100037.18
100037.99
100039.48
100041.79
100040.85
100033.59
100035.39
100059.26
88316.255
89004.837
88982.357
89680.044
89781.421
90375.046
90666.789
91152.058
91574.929
92036.928
92504.655
92983.475
93469.49
93960.274
94452.737
94943.627
95429.469
95906.66
96371.562
96820.617
97250.469
97658.092
98040.898
98396.826
98724.393
99022.721
99291.516
99531.034
99742.014
99925.599
100083.26
100216.69
100327.76
100418.42
100490.65
100546.41
100587.58
100615.98
100633.29
100641.09
100640.83
100633.81
100621.22
100604.12
100583.45
100560.03
100534.59
100507.76
100480.1
100452.06
100424.05
100396.4
100369.39
100343.24
100318.15
100294.25
100271.66
100250.47
100230.71
100212.44
100195.65
100180.35
100166.52
100154.11
100143.09
100133.38
100124.93
100117.65
100111.43
100106.21
100101.9
100098.27
100094.95
100092.01
100090.37
100089.43
100084.08
100073.04
100076.66
100103.62
88682.756
89483.94
89469.043
90261.844
90413.467
91074.429
91445.498
91990.32
92489.583
93018.554
93553.762
94096.475
94642.294
95187.518
95727.878
96258.933
96776.128
97274.972
97751.218
98201.039
98621.191
99009.128
99363.076
99682.055
99965.848
100214.94
100430.4
100613.83
100767.17
100892.64
100992.62
101069.55
101125.9
101164.03
101186.24
101194.66
101191.3
101177.98
101156.36
101127.93
101094.02
101055.82
101014.37
100970.57
100925.21
100878.98
100832.46
100786.13
100740.42
100695.67
100652.18
100610.16
100569.8
100531.24
100494.59
100459.92
100427.28
100396.68
100368.14
100341.63
100317.13
100294.6
100273.96
100255.16
100238.13
100222.77
100209
100196.7
100185.77
100176.14
100167.68
100160.07
100153.02
100146.88
100142.51
100138.36
100128.94
100115.95
100122.37
100149.69
89149.473
90089.44
90093.483
91001.101
91220.538
91959.079
92426.779
93042.318
93627.501
94232.994
94842.085
95452.619
96058.849
96655.301
97236.142
97795.6
98328.2
98829.034
99293.984
99719.893
100104.65
100447.2
100747.51
101006.41
101225.52
101407.04
101553.59
101668.07
101753.55
101813.1
101849.76
101866.43
101865.86
101850.58
101822.93
101785.02
101738.74
101685.78
101627.61
101565.54
101500.71
101434.09
101366.52
101298.74
101231.33
101164.83
101099.64
101036.11
100974.54
100915.15
100858.1
100803.52
100751.52
100702.15
100655.44
100611.39
100570
100531.23
100495.04
100461.37
100430.15
100401.31
100374.74
100350.37
100328.09
100307.79
100289.36
100272.68
100257.65
100244.17
100232.06
100220.95
100210.7
100201.95
100195.2
100187.87
100175
100161.75
100171.54
100196.44
89748.751
90865.045
90898.31
91939.324
92245.293
93069.322
93652.387
94352.169
95032.783
95723.237
96409.729
97086.588
97745.89
98380.125
98982.088
99545.376
100064.71
100536.14
100957.18
101326.78
101645.23
101913.98
102135.4
102312.57
102449.05
102548.68
102615.37
102653.03
102665.41
102656.05
102628.23
102584.94
102528.9
102462.51
102387.9
102306.97
102221.33
102132.41
102041.42
101949.41
101857.24
101765.67
101675.31
101586.68
101500.2
101416.21
101334.98
101256.72
101181.57
101109.66
101041.05
100975.78
100913.86
100855.27
100799.99
100747.96
100699.12
100653.38
100610.67
100570.89
100533.93
100499.7
100468.07
100438.93
100412.16
100387.64
100365.23
100344.81
100326.28
100309.52
100294.27
100280.19
100267.36
100256.54
100247.69
100237.36
100221.82
100209.73
100222.67
100243.95
90509.727
91838.475
91915.569
93109.268
93535.535
94457.005
95176.934
95977.495
96760.953
97538.537
98295.908
99023.844
99712.496
100353.4
100939.68
101466.38
101930.62
102331.49
102669.88
102948.16
103169.88
103339.37
103461.49
103541.29
103583.86
103594.11
103576.69
103535.87
103475.58
103399.32
103310.21
103210.97
103103.99
102991.32
102874.75
102755.78
102635.69
102515.55
102396.27
102278.6
102163.15
102050.43
101940.82
101834.65
101732.16
101633.54
101538.89
101448.32
101361.86
101279.51
101201.26
101127.08
101056.89
100990.63
100928.2
100869.51
100814.44
100762.88
100714.71
100669.82
100628.06
100589.31
100553.44
100520.31
100489.79
100461.73
100436
100412.46
100391.04
100371.54
100353.68
100337.18
100322.37
100310
100299.31
100286.31
100268.95
100258.95
100275.26
100292.57
91462.111
93056.338
93213.685
94577.443
95169.527
96204.402
97078.171
97989.894
98870.561
99718.257
100517.12
101256.18
101926.25
102521.12
103037.5
103474.87
103835.17
104122.23
104341.33
104498.61
104600.71
104654.36
104666.12
104642.19
104588.29
104509.62
104410.79
104295.86
104168.39
104031.43
103887.59
103739.11
103587.85
103435.41
103283.09
103131.98
102982.98
102836.81
102694.07
102555.21
102420.6
102290.52
102165.16
102044.66
101929.11
101818.56
101712.99
101612.4
101516.71
101425.87
101339.77
101258.32
101181.39
101108.85
101040.58
100976.42
100916.25
100859.92
100807.28
100758.18
100712.47
100670.01
100630.65
100594.25
100560.64
100529.69
100501.24
100475.19
100451.41
100429.7
100409.74
100391.4
100375.17
100361.66
100349.38
100334.24
100316.14
100308.9
100328.15
100341.14
92688.973
94618.662
94900.979
96455.393
97260.64
98417.575
99440.313
100447.97
101389.12
102255.14
103032.31
103712.95
104293.4
104774.03
105158.5
105452.96
105665.27
105804.21
105878.89
105898.27
105870.85
105804.43
105706.06
105581.95
105437.51
105277.41
105105.63
104925.53
104739.93
104551.17
104361.22
104171.66
103983.82
103798.75
103617.31
103440.17
103267.87
103100.8
102939.28
102783.5
102633.63
102489.73
102351.85
102219.97
102094.05
101974.01
101859.77
101751.2
101648.17
101550.55
101458.19
101370.92
101288.58
101211.01
101138.04
101069.49
101005.21
100945.02
100888.76
100836.27
100787.37
100741.91
100699.73
100660.67
100624.58
100591.3
100560.7
100532.66
100507.03
100483.58
100462.02
100442.37
100425.23
100410.86
100397.28
100380.73
100362.95
100358.69
100379.66
100388.28
94321.963
96666.108
97128.194
98871.585
99925.119
101189.53
102309.14
103346.57
104264.2
105055.78
105717.09
106250.24
106661.78
106961.53
107161.27
107273.6
107311.13
107285.84
107208.74
107089.65
106937.16
106758.68
106560.46
106347.77
106125
105895.77
105663.03
105429.2
105196.25
104965.73
104738.91
104516.76
104300.06
104089.39
103885.19
103687.78
103497.38
103314.11
103138.04
102969.18
102807.5
102652.93
102505.36
102364.66
102230.69
102103.29
101982.29
101867.5
101758.74
101655.82
101558.53
101466.68
101380.08
101298.53
101221.83
101149.8
101082.24
101018.98
100959.83
100904.62
100853.17
100805.31
100760.88
100719.71
100681.66
100646.55
100614.27
100584.69
100557.64
100532.88
100510.18
100489.7
100472.01
100457.02
100442.5
100425.39
100408.78
100406.77
100427.37
100433.12
96551.288
99359.775
100063.85
101947.47
103211.89
104523.5
105623.84
106563.96
107330.87
107930.26
108373.13
108675.2
108854.29
108928.77
108916.23
108832.8
108692.76
108508.41
108290.19
108046.76
107785.27
107511.56
107230.32
106945.34
106659.63
106375.58
106095.06
105819.53
105550.1
105287.64
105032.76
104785.93
104547.44
104317.5
104096.21
103883.59
103679.61
103484.19
103297.21
103118.53
102947.98
102785.36
102630.47
102483.1
102343.03
102210.02
102083.86
101964.31
101851.13
101744.1
101643
101547.59
101457.66
101372.99
101293.37
101218.58
101148.44
101082.75
101021.31
100963.94
100910.46
100860.7
100814.49
100771.67
100732.07
100695.54
100661.97
100631.23
100603.12
100577.41
100553.97
100533.03
100515.04
100499.61
100484.53
100467.62
100452.7
100452.05
100470.71
100475.27
99629.666
102814.27
103825.03
105774.98
107080.87
108246.26
109161.43
109851.03
110332.7
110633.01
110779.8
110800.48
110720.07
110560.46
110340.22
110074.71
109776.41
109455.34
109119.44
108774.98
108426.82
108078.75
107733.68
107393.83
107060.85
106736.01
106420.18
106114.02
105817.94
105532.21
105256.97
104992.24
104737.99
104494.11
104260.44
104036.81
103822.98
103618.74
103423.81
103237.96
103060.89
102892.35
102732.05
102579.72
102435.09
102297.88
102167.82
102044.65
101928.11
101817.94
101713.9
101615.73
101523.21
101436.1
101354.17
101277.22
101205.04
101137.41
101074.15
101015.07
100959.98
100908.71
100861.08
100816.94
100776.13
100738.51
100703.95
100672.32
100643.43
100617.07
100593.19
100572.04
100553.89
100538.15
100522.83
100506.67
100493.77
100494.21
100510.02
100511.67
103814.71
107213.2
108426.76
110114.98
111239.01
112068.73
112602.99
112896.34
112993.26
112936.71
112763.02
112502.36
112178.87
111811.56
111415.11
111000.78
110577.07
110150.39
109725.51
109305.95
108894.29
108492.39
108101.54
107722.62
107356.21
107002.63
106662.03
106334.42
106019.7
105717.7
105428.21
105150.95
104885.63
104631.93
104389.52
104158.07
103937.22
103726.63
103525.97
103334.89
103153.06
102980.14
102815.82
102659.77
102511.69
102371.27
102238.21
102112.24
101993.06
101880.42
101774.04
101673.66
101579.05
101489.96
101406.17
101327.44
101253.57
101184.35
101119.58
101059.08
101002.64
100950.12
100901.32
100856.1
100814.3
100775.79
100740.44
100708.11
100678.62
100651.81
100627.68
100606.44
100588.19
100572.23
100557.05
100542.15
100531.28
100531.65
100543.2
100543.56
109036.38
112398.26
113515.94
114642.14
115254
115539.14
115561.87
115395.35
115093.5
114698.62
114242.13
113747.17
113230.57
112704.4
112177.27
111655.25
111142.58
110642.15
110155.89
109685.03
109230.31
108792.07
108370.42
107965.27
107576.4
107203.51
106846.21
106504.09
106176.7
105863.58
105564.27
105278.31
105005.23
104744.58
104495.9
104258.78
104032.77
103817.48
103612.49
103417.42
103231.89
103055.54
102888.01
102728.96
102578.06
102434.98
102299.42
102171.07
102049.64
101934.85
101826.43
101724.12
101627.66
101536.81
101451.34
101371.01
101295.62
101224.95
101158.81
101097.01
101039.36
100985.69
100935.83
100889.62
100846.93
100807.62
100771.56
100738.62
100708.62
100681.46
100657.15
100635.82
100617.41
100601.32
100586.49
100572.97
100563.75
100563.51
100570.95
100569.87
115245.44
117754.03
118364.98
118647.36
118555.36
118229.49
117748.92
117174.03
116545.29
115890.12
115226.73
114567.09
113918.96
113287.27
112675.03
112083.96
111514.93
110968.2
110443.67
109940.99
109459.62
108998.94
108558.27
108136.9
107734.11
107349.19
106981.43
106630.16
106294.72
105974.46
105668.79
105377.11
105098.87
104833.53
104580.57
104339.51
104109.87
103891.2
103683.07
103485.06
103296.76
103117.8
102947.8
102786.4
102633.26
102488.06
102350.46
102220.16
102096.87
101980.3
101870.17
101766.22
101668.19
101575.83
101488.91
101407.21
101330.5
101258.58
101191.25
101128.31
101069.6
101014.93
100964.14
100917.08
100873.61
100833.6
100796.92
100763.44
100733.02
100705.58
100681.11
100659.64
100641.06
100624.9
100610.62
100598.44
100590.26
100588.56
100592.03
100590.99
121859.19
122300.75
122085.27
121539.91
120812.87
119993.79
119138.56
118278.85
117433.1
116611.52
115819.52
115059.63
114332.66
113638.43
112976.15
112344.72
111742.89
111169.3
110622.62
110101.53
109604.77
109131.13
108679.47
108248.71
107837.86
107445.96
107072.12
106715.51
106375.34
106050.88
105741.44
105446.36
105165.02
104896.85
104641.29
104397.81
104165.92
103945.14
103735.01
103535.12
103345.03
103164.36
102992.73
102829.77
102675.13
102528.47
102389.48
102257.83
102133.23
102015.39
101904.04
101798.9
101699.72
101606.25
101518.25
101435.51
101357.8
101284.91
101216.66
101152.83
101093.26
101037.78
100986.23
100938.45
100894.31
100853.69
100816.45
100782.46
100751.63
100723.88
100699.16
100677.44
100658.6
100642.36
100628.53
100617.3
100609.59
100606.36
100606.73
100606.26
125722.96
125100.77
124190
123143.02
122063.94
120996.61
119963.65
118974.3
118032.02
117137.05
116288.12
115483.2
114719.94
113995.92
113308.76
112656.21
112036.15
111446.59
110885.72
110351.86
109843.48
109359.14
108897.55
108457.5
108037.87
107637.66
107255.89
106891.69
106544.24
106212.76
105896.54
105594.91
105307.23
105032.9
104771.37
104522.1
104284.59
104058.35
103842.94
103637.9
103442.83
103257.33
103081.02
102913.52
102754.49
102603.59
102460.5
102324.9
102196.49
102074.97
101960.08
101851.55
101749.11
101652.51
101561.53
101475.92
101395.48
101319.99
101249.26
101183.09
101121.3
101063.73
101010.2
100960.58
100914.73
100872.51
100833.81
100798.5
100766.49
100737.7
100712.07
100689.52
100669.93
100653.19
100639.25
100628.22
100620.37
100615.96
100614.6
100614.68
103895.44
103868.51
103916.8
103965.09
104000.99
104010.99
103993.69
103964.22
103928.69
103883.88
103825.44
103753.86
103672.92
103587.49
103498.37
103405.65
103309.63
103210.8
103109.59
103006.37
102901.52
102795.38
102688.26
102580.48
102472.29
102363.95
102255.71
102147.77
102040.34
101933.61
101827.77
101722.99
101619.42
101517.24
101416.58
101317.61
101220.47
101125.29
101032.22
100941.41
100852.98
100767.07
100683.83
100603.39
100525.87
100451.41
100380.15
100312.19
100247.66
100186.67
100129.32
100075.7
100025.9
99979.962
99937.952
99899.893
99865.792
99835.636
99809.391
99786.994
99768.357
99753.364
99741.881
99733.716
99728.749
99726.572
99727.443
99729.928
99736.428
99740.904
99754.976
99756.319
99783.946
99768.509
99824.098
99773.628
99876.506
99775.981
99931.102
99768.486
103249.1
103242.94
103257.14
103273.68
103272.53
103265.22
103254.4
103236.87
103207.72
103172.82
103130.96
103083.97
103031.07
102973.43
102911.06
102844.65
102774.42
102700.73
102623.89
102544.21
102461.99
102377.53
102291.11
102203
102113.49
102022.83
101931.29
101839.1
101746.52
101653.77
101561.09
101468.7
101376.82
101285.64
101195.38
101106.23
101018.39
100932.05
100847.39
100764.59
100683.82
100605.27
100529.1
100455.47
100384.55
100316.49
100251.45
100189.55
100130.94
100075.74
100024.06
99975.991
99931.629
99891.036
99854.259
99821.324
99792.235
99766.972
99745.493
99727.726
99713.574
99702.913
99695.595
99691.426
99690.263
99691.725
99695.984
99701.781
99711.154
99718.809
99734.983
99739.376
99767.998
99756.29
99812.152
99765.289
99867.995
99768.295
99928.415
99760.012
102829.58
102814.07
102785.63
102755.74
102726.57
102699.33
102667.41
102636.18
102601.26
102565.84
102526.4
102485.61
102441.21
102394.72
102345.15
102293.05
102238.23
102180.85
102120.96
102058.66
101994.09
101927.36
101858.64
101788.06
101715.82
101642.07
101567.02
101490.85
101413.78
101335.99
101257.7
101179.13
101100.5
101022
100943.87
100866.32
100789.56
100713.8
100639.26
100566.15
100494.67
100425.01
100357.39
100291.99
100228.99
100168.58
100110.94
100056.21
100004.55
99956.098
99910.981
99869.307
99831.165
99796.627
99765.742
99738.538
99715.016
99695.151
99678.895
99666.171
99656.876
99650.875
99648.015
99648.097
99650.96
99656.247
99664.066
99673.289
99685.693
99696.524
99715.003
99722.266
99752.294
99743.979
99800.294
99756.724
99859.606
99760.841
99925.328
99752.06
102235.43
102212.75
102184.03
102152.39
102121.02
102093.14
102060.87
102031.52
101998.01
101966.5
101931.45
101897.19
101860.11
101822.69
101783.12
101742.27
101699.61
101655.29
101609.2
101561.33
101511.68
101460.25
101407.09
101352.23
101295.76
101237.76
101178.35
101117.63
101055.76
100992.89
100929.19
100864.82
100799.98
100734.87
100669.68
100604.64
100539.94
100475.81
100412.47
100350.13
100289.02
100229.36
100171.36
100115.23
100061.18
100009.42
99960.114
99913.458
99869.614
99828.734
99790.955
99756.396
99725.153
99697.304
99672.9
99651.97
99634.513
99620.502
99609.885
99602.58
99598.476
99597.435
99599.295
99603.857
99610.947
99620.226
99631.754
99644.509
99660.068
99674.095
99695.017
99705.063
99736.769
99731.603
99788.594
99748.04
99851.411
99753.615
99921.939
99744.604
101508.17
101492.11
101476.41
101457.82
101437.33
101421.12
101399.02
101381.32
101358.18
101338.37
101314.06
101291.62
101265.91
101240.74
101213.43
101185.32
101155.6
101124.56
101092.01
101057.94
101022.32
100985.12
100946.35
100906.03
100864.17
100820.82
100776.06
100729.94
100682.58
100634.07
100584.54
100534.13
100483.01
100431.32
100379.25
100327
100274.76
100222.73
100171.13
100120.19
100070.12
100021.15
99973.493
99927.382
99883.029
99840.644
99800.427
99762.568
99727.244
99694.617
99664.831
99638.013
99614.263
99593.662
99576.263
99562.094
99551.154
99543.413
99538.812
99537.266
99538.66
99542.849
99549.669
99558.918
99570.412
99583.834
99599.197
99615.583
99634.388
99651.64
99675.1
99687.931
99721.429
99719.263
99777.061
99739.352
99843.378
99746.623
99918.351
99737.604
100790.28
100784.03
100779.64
100774.28
100764.91
100760.74
100749.23
100743.64
100731.16
100723.29
100709.72
100699.02
100684.34
100670.86
100655.03
100638.72
100620.79
100601.75
100581.36
100559.64
100536.56
100512.11
100486.25
100459
100430.36
100400.34
100368.98
100336.32
100302.41
100267.34
100231.19
100194.07
100156.11
100117.43
100078.18
100038.55
99998.692
99958.809
99919.099
99879.77
99841.035
99803.115
99766.229
99730.597
99696.437
99663.959
99633.367
99604.854
99578.602
99554.775
99533.52
99514.964
99499.21
99486.337
99476.398
99469.418
99465.392
99464.286
99466.036
99470.552
99477.714
99487.375
99499.364
99513.48
99529.534
99547.224
99566.529
99586.626
99608.743
99629.246
99655.321
99670.986
99706.288
99707.029
99765.727
99730.756
99835.509
99739.879
99914.651
99731.017
100139.9
100140.01
100140.94
100144.03
100141.86
100146.36
100142.13
100145.55
100140.62
100141.92
100136.77
100135.96
100130.37
100126.2
100119.4
100112.66
100104.49
100095.54
100085.49
100074.38
100062.16
100048.79
100034.23
100018.47
100001.51
99983.326
99963.942
99943.376
99921.663
99898.853
99875.007
99850.206
99824.544
99798.132
99771.094
99743.572
99715.721
99687.709
99659.715
99631.931
99604.554
99577.789
99551.844
99526.928
99503.249
99481.011
99460.411
99441.639
99424.87
99410.264
99397.965
99388.094
99380.75
99376.007
99373.912
99374.485
99377.714
99383.559
99391.95
99402.79
99415.954
99431.292
99448.629
99467.765
99488.506
99510.568
99533.9
99557.769
99583.24
99607.009
99635.76
99654.31
99691.396
99694.99
99754.635
99722.332
99827.815
99733.402
99910.899
99724.814
99555.556
99560.65
99564.65
99572.793
99574.235
99584.398