/*--------------------------------*- C++ -*----------------------------------*\
  =========                 |
  \\      /  F ield         | OpenFOAM: The Open Source CFD Toolbox
   \\    /   O peration     | Website:  https://openfoam.org
    \\  /    A nd           | Version:  12
     \\/     M anipulation  |
\*---------------------------------------------------------------------------*/
FoamFile
{
    format      ascii;
    class       surfaceScalarField;
    location    "0.114";
    object      phi;
}
// * * * * * * * * * * * * * * * * * * * * * * * * * * * * * * * * * * * * * //

dimensions      [1 0 -1 0 0 0 0];

internalField   nonuniform List<scalar> 
31760
(
-0.00064199662
-0.050846008
0.051487334
-0.0016074196
-0.064251668
0.065216573
-0.002598412
-0.062895186
0.063888916
-0.0036211136
-0.068556009
0.069578086
-0.0046985628
-0.070233298
0.071310147
-0.0058040841
-0.074490943
0.075595898
-0.0069804381
-0.077419287
0.078595091
-0.0081952968
-0.08142063
0.082634972
-0.0094710933
-0.085041852
0.086317144
-0.01080556
-0.089155501
0.090489479
-0.012195942
-0.09328665
0.094676563
-0.013653816
-0.097694603
0.099152012
-0.015173908
-0.10226692
0.10378656
-0.016764468
-0.10706539
0.1086555
-0.018425096
-0.11207891
0.1137391
-0.020160559
-0.11732406
0.11905909
-0.021973528
-0.12280891
0.12462145
-0.023867226
-0.12854486
0.13043813
-0.025844901
-0.13454292
0.13652017
-0.027909967
-0.14081434
0.14287897
-0.030065868
-0.14737149
0.14952696
-0.032316378
-0.15422632
0.1564764
-0.034665103
-0.16139242
0.16374072
-0.037115963
-0.16888347
0.1713339
-0.039671938
-0.17671397
0.17926952
-0.042337625
-0.18489801
0.18756327
-0.045116925
-0.19345181
0.19623069
-0.048013277
-0.20239195
0.20528789
-0.051030185
-0.21173533
0.21475184
-0.054171703
-0.2215
0.22464112
-0.057441149
-0.23170485
0.23497392
-0.060841858
-0.24236968
0.24577002
-0.064376651
-0.25351593
0.25705038
-0.068048577
-0.26516471
0.26883632
-0.071859628
-0.27734006
0.28115082
-0.075811464
-0.29006622
0.2940178
-0.079905409
-0.30336888
0.3074626
-0.084141931
-0.31727571
0.32151205
-0.088520831
-0.33181465
0.33619342
-0.093040777
-0.34701713
0.351537
-0.097699747
-0.36291487
0.36757382
-0.10249429
-0.3795416
0.38433618
-0.10741977
-0.39693333
0.40185891
-0.11247036
-0.41512788
0.42017861
-0.11763828
-0.43416557
0.43933369
-0.12291435
-0.45408798
0.45936432
-0.12828699
-0.47493999
0.48031293
-0.13374324
-0.49676789
0.50222449
-0.13926757
-0.51962172
0.52514643
-0.14484165
-0.54355319
0.54912767
-0.15044443
-0.56861663
0.5742198
-0.15605238
-0.59486995
0.60047827
-0.16163811
-0.62237337
0.62795941
-0.16717063
-0.6511903
0.65672305
-0.17261543
-0.68138706
0.68683196
-0.17793252
-0.713034
0.71835102
-0.18307774
-0.74620394
0.75134887
-0.18800158
-0.78097336
0.78589661
-0.19264753
-0.81742277
0.82206777
-0.19695328
-0.85563607
0.85994045
-0.20084864
-0.89570105
0.89959452
-0.20425566
-0.93770936
0.9411139
-0.20708698
-0.98175741
0.98458558
-0.20924537
-1.0279457
1.0301002
-0.2106223
-1.0763774
1.0777497
-0.21109735
-1.1271607
1.1276304
-0.21053481
-1.180406
1.1798376
-0.20878958
-1.2362258
1.2344743
-0.20569485
-1.2947395
1.2916384
-0.20106334
-1.3560662
1.3514285
-0.19469259
-1.4203257
1.4139494
-0.1863633
-1.4876404
1.4793063
-0.17582373
-1.5581443
1.5476011
-0.16281004
-1.6319718
1.6189555
-0.1469636
-1.7092922
1.6934437
-0.1282413
-1.7902018
1.771477
-0.10532275
-1.8747499
1.8518264
-0.080003784
-1.9641753
1.9388423
-0.048321701
-2.0551245
2.0234316
-2.1558383
2.1211308
-0.0006375569
-0.05020873
-0.0015082472
-0.063381241
-0.0024016266
-0.062004168
-0.0033640594
-0.067593724
-0.0043377614
-0.069259787
-0.005388629
-0.073440283
-0.006455023
-0.076353122
-0.007601409
-0.080274494
-0.0087739582
-0.083869568
-0.010020956
-0.08790879
-0.011311228
-0.091996676
-0.012669122
-0.096337028
-0.014084738
-0.10085163
-0.015567142
-0.10558333
-0.017116548
-0.11052986
-0.018737131
-0.11570384
-0.020431094
-0.12111532
-0.022202236
-0.1267741
-0.02405379
-0.13269175
-0.025989367
-0.13887915
-0.028012641
-0.1453486
-0.030126895
-0.15211246
-0.032336252
-0.15918346
-0.034644427
-0.16657569
-0.037056237
-0.17430254
-0.039574521
-0.18238011
-0.042203995
-0.19082271
-0.044948419
-0.1996479
-0.047812098
-0.20887201
-0.050798632
-0.21851381
-0.053912124
-0.22859169
-0.057155932
-0.23912618
-0.060533384
-0.25013877
-0.064047496
-0.26165087
-0.067700714
-0.27368708
-0.07149539
-0.28627174
-0.075432717
-0.29943171
-0.079514225
-0.31319431
-0.083739283
-0.32758965
-0.088107512
-0.34264891
-0.092617331
-0.358405
-0.097265663
-0.37489316
-0.10204817
-0.39215066
-0.10695978
-0.41021604
-0.11199344
-0.42913162
-0.11714061
-0.44894048
-0.12239106
-0.46968915
-0.12773216
-0.49142635
-0.13314965
-0.51420377
-0.13862697
-0.5380754
-0.14414475
-0.56309838
-0.14968093
-0.58933333
-0.1552103
-0.61684362
-0.16070454
-0.64569577
-0.16613152
-0.67595993
-0.1714549
-0.70771065
-0.17663414
-0.74102497
-0.18162359
-0.77598446
-0.18637183
-0.81267546
-0.19082188
-0.8511874
-0.1949096
-0.89161525
-0.19856354
-0.93405797
-0.20170357
-0.97862064
-0.20424157
-1.0254117
-0.20607813
-1.0745456
-0.20710431
-1.12614
-0.20719494
-1.1803215
-0.2062152
-1.2372121
-0.20401441
-1.296947
-0.20042367
-1.3596635
-0.19525872
-1.4254967
-0.18831368
-1.4945906
-0.17936383
-1.5670984
-0.16815239
-1.6431865
-0.15441901
-1.7230284
-0.13788009
-1.8067443
-0.11797219
-1.8946646
-0.095100996
-1.9870606
-0.067264195
-2.0829754
-2.1869473
-0.00057554486
-0.049633437
-0.0013876478
-0.062569263
-0.0021997896
-0.061192036
-0.0031049139
-0.066688784
-0.0039996348
-0.068365304
-0.0049805989
-0.07245955
-0.0059634343
-0.075370542
-0.0070297228
-0.07920847
-0.00811555
-0.082784017
-0.0092742415
-0.086750388
-0.010473018
-0.090798197
-0.01173589
-0.095074467
-0.013053916
-0.099533917
-0.014435363
-0.10420221
-0.015880916
-0.10908463
-0.017394185
-0.11419091
-0.018978521
-0.11953132
-0.020636896
-0.12511608
-0.022373587
-0.13095541
-0.024191437
-0.13706165
-0.026094941
-0.14344545
-0.028087644
-0.15012012
-0.030173435
-0.15709802
-0.032357117
-0.16439236
-0.034641973
-0.17201804
-0.037033232
-0.17998919
-0.039534359
-0.18832192
-0.042150438
-0.19703215
-0.044885041
-0.20613773
-0.047743333
-0.21565582
-0.05072844
-0.22560686
-0.053844708
-0.23601017
-0.057095958
-0.24688776
-0.060484894
-0.25826214
-0.064015122
-0.27015702
-0.067688829
-0.28259816
-0.07150827
-0.29561235
-0.075473983
-0.30922863
-0.079587003
-0.32347662
-0.08384684
-0.338389
-0.088251733
-0.35399998
-0.092799592
-0.37034511
-0.09748707
-0.38746294
-0.10230874
-0.40539407
-0.10725865
-0.42418135
-0.11232885
-0.44386986
-0.11751017
-0.46450736
-0.12279076
-0.48614527
-0.12815812
-0.50883588
-0.13359667
-0.53263631
-0.13908832
-0.5576062
-0.14461375
-0.58380741
-0.15014971
-0.61130722
-0.15567038
-0.64017477
-0.16114664
-0.67048348
-0.16654562
-0.70231168
-0.17183076
-0.73574009
-0.1769599
-0.7708559
-0.18188755
-0.80774879
-0.18656119
-0.84651521
-0.19092332
-0.88725513
-0.19490885
-0.93007511
-0.19844614
-0.97508677
-0.20145435
-1.0224077
-0.20384371
-1.0721613
-0.20551345
-1.1244761
-0.20635588
-1.1794855
-0.20624544
-1.2373294
-0.20504286
-1.2981567
-0.20260001
-1.3621133
-0.19874373
-1.4293595
-0.19329309
-1.500047
-0.1860377
-1.5743586
-0.17675186
-1.6524764
-0.16519303
-1.7345911
-0.15106076
-1.8208816
-0.13404691
-1.9116876
-0.11399813
-2.0071254
-0.089895463
-2.1070954
-2.2143135
-0.00051930012
-0.049114433
-0.0012707658
-0.061817992
-0.0020083406
-0.060454502
-0.0028607746
-0.065836589
-0.0036895672
-0.06753677
-0.0046038425
-0.071545532
-0.0055098547
-0.074464791
-0.0065027245
-0.07821587
-0.0075084284
-0.081778585
-0.0085862371
-0.085672861
-0.0097009686
-0.089683749
-0.010876883
-0.093898847
-0.012106035
-0.098305059
-0.013395717
-0.10291284
-0.014747616
-0.10773304
-0.016165523
-0.11277332
-0.017652747
-0.11804442
-0.019212691
-0.12355646
-0.02084884
-0.12931959
-0.022565563
-0.13534526
-0.024366048
-0.14164529
-0.026255377
-0.14823112
-0.028237477
-0.15511625
-0.030316358
-0.1623138
-0.032497193
-0.16983752
-0.034783959
-0.17770274
-0.037181712
-0.18592447
-0.039694816
-0.19451933
-0.042328741
-0.20350407
-0.045086865
-0.21289795
-0.047974336
-0.22271962
-0.050995532
-0.23298918
-0.054154163
-0.2437293
-0.057454123
-0.25496232
-0.060898831
-0.26671241
-0.064490754
-0.2790063
-0.068232117
-0.291871
-0.072124847
-0.30533587
-0.076169306
-0.31943207
-0.080365555
-0.33419261
-0.084713008
-0.34965232
-0.089209015
-0.36584884
-0.093850799
-0.38282082
-0.09863403
-0.40061044
-0.10355282
-0.41926211
-0.10860073
-0.43882145
-0.11376813
-0.45933942
-0.11904615
-0.48086665
-0.12442209
-0.50345933
-0.12988239
-0.52717539
-0.13541149
-0.55207649
-0.14099087
-0.57822746
-0.14660038
-0.60569722
-0.15221723
-0.63455753
-0.15781441
-0.66488606
-0.16336362
-0.69676244
-0.16883141
-0.73027253
-0.17418093
-0.76550695
-0.17937098
-0.80255973
-0.18435509
-0.8415326
-0.18908151
-0.88253081
-0.19349231
-0.9256671
-0.19752323
-0.97105941
-0.20110195
-1.0188334
-0.20414815
-1.0691203
-0.20657427
-1.122056
-0.20827552
-1.1777911
-0.20914663
-1.2364656
-0.20905966
-1.2982511
-0.20788246
-1.3632979
-0.20546234
-1.4317866
-0.20162415
-1.5038916
-0.1961917
-1.5797966
-0.18895403
-1.6597191
-0.17969085
-1.7438594
-0.16813383
-1.8324453
-0.15403684
-1.925796
-0.1371116
-2.0240695
-0.11671534
-2.1275142
-2.2377685
-0.0004637873
-0.048650902
-0.001167708
-0.061114244
-0.0018274402
-0.059795074
-0.0026234628
-0.065040774
-0.0033782163
-0.066782233
-0.0042345055
-0.070689462
-0.0050736503
-0.073625875
-0.0060007963
-0.077288961
-0.0069350882
-0.080844534
-0.0079396569
-0.084668544
-0.0089799212
-0.088643739
-0.01007887
-0.092800163
-0.011230689
-0.097153507
-0.012441576
-0.10170223
-0.013713927
-0.10646097
-0.015050865
-0.11143667
-0.016456157
-0.11663941
-0.0179336
-0.1220793
-0.019486899
-0.12776658
-0.021120108
-0.13371234
-0.022837954
-0.13992774
-0.024643811
-0.14642555
-0.026543209
-0.15321714
-0.028540759
-0.16031653
-0.030641003
-0.16773754
-0.032849246
-0.17549476
-0.035170719
-0.18360324
-0.03761039
-0.19207989
-0.040173211
-0.20094146
-0.042864417
-0.21020694
-0.045688912
-0.2198953
-0.048651205
-0.23002703
-0.051755686
-0.24062492
-0.055006747
-0.25171132
-0.058407586
-0.2633116
-0.06196133
-0.27545254
-0.065670522
-0.28816174
-0.069537108
-0.30146916
-0.073561886
-0.31540711
-0.077745293
-0.33000896
-0.082086329
-0.34531098
-0.086583869
-0.36135094
-0.091234673
-0.37816959
-0.096035109
-0.39580952
-0.10098076
-0.41431591
-0.1060647
-0.4337369
-0.11127975
-0.45412371
-0.11661684
-0.47552888
-0.1220653
-0.49801017
-0.12761363
-0.52162635
-0.13324738
-0.54644205
-0.13895115
-0.57252304
-0.14470692
-0.59994087
-0.15049437
-0.62876962
-0.15629114
-0.65908899
-0.16207141
-0.69098208
-0.16780591
-0.72453823
-0.17346322
-0.75985021
-0.17900656
-0.79701738
-0.18439584
-0.83614485
-0.18958514
-0.87734366
-0.19452382
-0.92073131
-0.19915481
-0.96643215
-0.20341487
-1.0145779
-0.20723318
-1.0653075
-0.21052947
-1.1187661
-0.21321905
-1.1751086
-0.21519687
-1.2344954
-0.21636302
-1.297093
-0.21658465
-1.3630843
-0.21573421
-1.4326448
-0.2136589
-1.5059741
-0.2101932
-1.5832689
-0.20515527
-1.6647633
-0.1983395
-1.7506818
-0.18951023
-1.8412833
-0.17845426
-1.9368661
-0.16487207
-2.0376733
-0.14829071
-2.1441226
-2.2571351
-0.00041388411
-0.048237253
-0.0010767653
-0.060451515
-0.001673902
-0.059198126
-0.0024116635
-0.064303195
-0.003090101
-0.066103998
-0.0038946855
-0.06988508
-0.004666848
-0.072853925
-0.0055341518
-0.076421875
-0.006404731
-0.079974179
-0.0073473377
-0.083726168
-0.0083270407
-0.087664269
-0.0093633935
-0.091764053
-0.010452824
-0.09606432
-0.011600014
-0.10055529
-0.012807791
-0.10525344
-0.014080033
-0.11016469
-0.015420244
-0.11529946
-0.016832316
-0.1206675
-0.018320754
-0.1262784
-0.019889567
-0.13214379
-0.021543857
-0.13827371
-0.023288454
-0.14468121
-0.02512851
-0.15137733
-0.027069145
-0.15837614
-0.029115985
-0.16569093
-0.031274854
-0.1733361
-0.033550501
-0.1813278
-0.035949245
-0.18968133
-0.038476395
-0.19841447
-0.041137348
-0.20754612
-0.043937704
-0.21709504
-0.046882056
-0.22708275
-0.049975814
-0.2375312
-0.053222297
-0.24846483
-0.056626032
-0.25990781
-0.060190382
-0.27188808
-0.063917578
-0.28443438
-0.067809646
-0.29757687
-0.071868177
-0.3113483
-0.076093291
-0.32578351
-0.080484938
-0.34091893
-0.085041184
-0.35679422
-0.089760366
-0.37344987
-0.094639312
-0.39092997
-0.099673035
-0.40928153
-0.10485653
-0.4285527
-0.11018413
-0.44879536
-0.11564705
-0.47006516
-0.12123743
-0.49241897
-0.12694395
-0.51591902
-0.13275604
-0.54062916
-0.1386598
-0.56661854
-0.14464023
-0.59395978
-0.15068029
-0.62272903
-0.15676066
-0.65300825
-0.1628596
-0.68488301
-0.16895337
-0.71844462
-0.17501387
-0.75379024
-0.18101057
-0.79102168
-0.18690838
-0.8302486
-0.19266904
-0.87158524
-0.1982485
-0.91515485
-0.20359796
-0.96108656
-0.20866237
-1.0095184
-0.21338022
-1.0605955
-0.21768261
-1.1144704
-0.22149282
-1.171306
-0.22472749
-1.2312689
-0.22728545
-1.2945436
-0.22906639
-1.361312
-0.22994644
-1.4317732
-0.22979516
-1.5061335
-0.22846693
-1.5846049
-0.22579882
-1.6674391
-0.22160762
-1.7548816
-0.21569027
-1.8472119
-0.20784522
-1.9447285
-0.19781837
-2.0477249
-0.18522241
-2.1567509
-2.2722106
-0.00037124999
-0.047866222
-0.0010031196
-0.059819787
-0.0015453316
-0.0586561
-0.0022356
-0.063613096
-0.0028544828
-0.065485303
-0.0036109843
-0.069128765
-0.0043268949
-0.072138209
-0.005132731
-0.075616237
-0.0059613158
-0.079145797
-0.006857487
-0.08283021
-0.0077908427
-0.086731127
-0.0087772737
-0.090777845
-0.009816421
-0.095025395
-0.010912341
-0.099459599
-0.012069091
-0.10409692
-0.013290173
-0.10894384
-0.01458045
-0.11400941
-0.015944032
-0.11930415
-0.017385725
-0.12483694
-0.01891094
-0.1306188
-0.020524287
-0.13666058
-0.022231987
-0.14297373
-0.02403926
-0.14957026
-0.025951816
-0.15646378
-0.027976016
-0.16366691
-0.030117513
-0.17119477
-0.032383206
-0.17906225
-0.034778669
-0.18728599
-0.037309645
-0.19588359
-0.039982756
-0.20487307
-0.042803025
-0.2142748
-0.045776059
-0.2241097
-0.048906555
-0.23440065
-0.052199656
-0.24517163
-0.055658446
-0.25644887
-0.059286624
-0.2682597
-0.063087339
-0.28063341
-0.06706231
-0.29360158
-0.071212701
-0.30719753
-0.075539202
-0.32145656
-0.080041813
-0.3364158
-0.08471933
-0.35211612
-0.089570242
-0.36859831
-0.094591442
-0.38590806
-0.099780066
-0.40409212
-0.10513162
-0.42320031
-0.11064071
-0.4432854
-0.11630187
-0.4644031
-0.12210719
-0.48661273
-0.12804929
-0.509976
-0.13411819
-0.53455936
-0.14030358
-0.56043232
-0.14659378
-0.58766883
-0.15297469
-0.6163475
-0.15943118
-0.64655132
-0.16594541
-0.67836859
-0.17249807
-0.71189207
-0.1790667
-0.74722213
-0.18562588
-0.78446349
-0.19214755
-0.82372852
-0.19859899
-0.86513608
-0.20494432
-0.90881262
-0.21114232
-0.95489258
-0.21714714
-1.0035186
-0.22290713
-1.0548416
-0.22836361
-1.109021
-0.23345165
-1.1662259
-0.23809938
-1.2266299
-0.2422224
-1.2904297
-0.24572918
-1.3578146
-0.24852088
-1.4289909
-0.25047986
-1.5041837
-0.25147781
-1.5836162
-0.25138006
-1.6675464
-0.25001994
-1.7562525
-0.24721946
-1.8500266
-0.24280576
-1.9491632
-0.23655133
-2.0540074
-0.22816154
-2.1651788
-2.2827503
-0.00032789792
-0.047538527
-0.00093399675
-0.059213819
-0.0014267249
-0.058163544
-0.0020709766
-0.062968999
-0.0026454918
-0.06491096
-0.0033737068
-0.068400719
-0.0040562952
-0.071455799
-0.0048469552
-0.074825758
-0.0056357325
-0.078357208
-0.0064854722
-0.081980665
-0.0073762177
-0.085840576
-0.0083194028
-0.089834862
-0.009317543
-0.094027455
-0.010374086
-0.098403262
-0.011493474
-0.10297774
-0.012680298
-0.10775722
-0.013938517
-0.11275139
-0.015274123
-0.11796874
-0.016691946
-0.12341931
-0.018197673
-0.12911327
-0.019797145
-0.13506129
-0.021496376
-0.14127467
-0.023301676
-0.14776512
-0.025220296
-0.1545453
-0.027257711
-0.16162962
-0.029421414
-0.16903117
-0.03171755
-0.17676619
-0.034152957
-0.18485064
-0.036734146
-0.19330242
-0.039467184
-0.20214002
-0.042357808
-0.21138413
-0.045411764
-0.22105566
-0.048634186
-0.23117809
-0.052029137
-0.24177649
-0.055600867
-0.25287689
-0.059352896
-0.26450737
-0.063287427
-0.27669851
-0.067406749
-0.28948183
-0.071712235
-0.30289154
-0.076204501
-0.31696372
-0.080883444
-0.33173622
-0.085749115
-0.34724974
-0.090799502
-0.36354714
-0.09603311
-0.3806736
-0.10144752
-0.39867681
-0.10703949
-0.41760739
-0.11280549
-0.43751841
-0.11874127
-0.45846628
-0.12484171
-0.48051125
-0.13110106
-0.50371562
-0.13751299
-0.52814644
-0.14406939
-0.55387497
-0.1507619
-0.58097547
-0.15758041
-0.60952828
-0.16451383
-0.6396174
-0.17154932
-0.67133283
-0.17867163
-0.70476984
-0.18586398
-0.74003026
-0.19310716
-0.77722131
-0.20037897
-0.81645832
-0.20765424
-0.85786316
-0.21490434
-0.90156573
-0.22209642
-0.94770468
-0.22919388
-0.99642632
-0.23615425
-1.0478875
-0.24293078
-1.1022519
-0.24946965
-1.1596954
-0.25570951
-1.2203993
-0.26158419
-1.2845649
-0.26702038
-1.3523887
-0.27192292
-1.4240988
-0.27620352
-1.4999137
-0.27974862
-1.5800819
-0.2824425
-1.6648642
-0.28414759
-1.754561
-0.28471326
-1.8494788
-0.28398159
-1.9499202
-0.28175051
-2.0562708
-0.27782624
-2.1691483
-2.2884611
-0.0002857672
-0.047252949
-0.00087256278
-0.058627145
-0.001324305
-0.057711962
-0.0019448719
-0.062348573
-0.0024963654
-0.064359625
-0.0032029948
-0.067694248
-0.0038577786
-0.07080118
-0.0046236602
-0.074060051
-0.0053820194
-0.077599018
-0.0061991636
-0.081163697
-0.007062641
-0.084977273
-0.0079791618
-0.088918521
-0.0089535904
-0.093053202
-0.0099893578
-0.097367674
-0.011091531
-0.10187574
-0.012264949
-0.10658398
-0.013515271
-0.11150124
-0.014847919
-0.11663626
-0.016268899
-0.12199848
-0.01778499
-0.12759733
-0.019402228
-0.13344419
-0.021128146
-0.13954887
-0.022969112
-0.14592426
-0.024932521
-0.15258198
-0.027025944
-0.15953627
-0.029256164
-0.166801
-0.031630702
-0.17439167
-0.034156417
-0.18232491
-0.036839736
-0.19061905
-0.039687452
-0.19929221
-0.042705613
-0.20836583
-0.045899262
-0.21786182
-0.049273269
-0.22780385
-0.052832432
-0.23821704
-0.056580422
-0.24912855
-0.060520011
-0.26056736
-0.064654102
-0.27256394
-0.068984593
-0.28515079
-0.073512568
-0.29836294
-0.078239155
-0.31223644
-0.083164415
-0.32681019
-0.088288085
-0.34212523
-0.093609958
-0.35822436
-0.099129448
-0.37515314
-0.10484494
-0.39296028
-0.11075508
-0.41169616
-0.11685787
-0.4314145
-0.12315117
-0.45217184
-0.12963253
-0.47402873
-0.13629849
-0.49704851
-0.14314578
-0.52129804
-0.15017015
-0.54684955
-0.15736639
-0.5737783
-0.16472899
-0.60216489
-0.17225076
-0.63209504
-0.17992374
-0.66365954
-0.18773773
-0.69695587
-0.19568224
-0.73208622
-0.20374353
-0.76916101
-0.2119061
-0.80829739
-0.22015235
-0.84961932
-0.2284614
-0.89325999
-0.23680929
-0.93936112
-0.24516778
-0.98807327
-0.25350596
-1.039556
-0.26178693
-1.0939787
-0.26997036
-1.1515209
-0.27800685
-1.2123726
-0.28584513
-1.2767372
-0.29342063
-1.3448243
-0.30066795
-1.416863
-0.30750682
-1.4930868
-0.31385011
-1.5737514
-0.31959643
-1.659132
-0.32463563
-1.7495385
-0.32884539
-1.845291
-0.33208864
-1.9467073
-0.33419769
-2.0541993
-0.3350252
-2.1683742
-2.2890248
-0.00024739427
-0.047005728
-0.00082293018
-0.05805172
-0.0012445365
-0.057290503
-0.0018901324
-0.061703106
-0.002426598
-0.063823305
-0.0031080104
-0.067012978
-0.0037397811
-0.070169555
-0.0044636556
-0.073336323
-0.005208543
-0.076854279
-0.0060099668
-0.080362427
-0.0068634629
-0.084123926
-0.0077718623
-0.088010276
-0.0087422867
-0.092082926
-0.0097786769
-0.096331435
-0.010886785
-0.10076777
-0.012072378
-0.10539853
-0.013341692
-0.11023206
-0.014701417
-0.11527666
-0.016158338
-0.12054168
-0.017719173
-0.1260366
-0.019392533
-0.13177091
-0.021184869
-0.13775661
-0.023105031
-0.14400415
-0.025160291
-0.15052675
-0.027358458
-0.1573381
-0.029707606
-0.16445182
-0.032215106
-0.17188411
-0.0348879
-0.17965201
-0.037733355
-0.18777346
-0.040757414
-0.19626797
-0.043965631
-0.20515738
-0.047363627
-0.21446354
-0.050955798
-0.22421133
-0.054746317
-0.23442611
-0.058738448
-0.24513595
-0.062934992
-0.25637028
-0.067338182
-0.26816014
-0.071949721
-0.28053857
-0.076771365
-0.29354055
-0.081803801
-0.30720318
-0.087047953
-0.32156514
-0.092504602
-0.33666761
-0.098174225
-0.3525537
-0.10405683
-0.36926943
-0.11015326
-0.38686269
-0.116464
-0.40538421
-0.122989
-0.42488825
-0.12972869
-0.44543087
-0.13668326
-0.46707289
-0.14385288
-0.48987763
-0.1512368
-0.5139129
-0.15883522
-0.53924999
-0.16664666
-0.56596583
-0.17466962
-0.59414106
-0.18290207
-0.62386193
-0.19134074
-0.6552205
-0.19998177
-0.68831483
-0.20881951
-0.72324892
-0.21784745
-0.76013406
-0.22705724
-0.79908927
-0.23643793
-0.84024109
-0.24597736
-0.88372395
-0.25566026
-0.92968268
-0.26546889
-0.97827027
-0.27538158
-1.0296501
-0.28537338
-1.0839951
-0.2954149
-1.1414887
-0.30547341
-1.2023245
-0.31550803
-1.2667138
-0.32547481
-1.3348695
-0.33532391
-1.4070266
-0.34498789
-1.4834364
-0.35440357
-1.5643506
-0.36349343
-1.650059
-0.37217283
-1.7408794
-0.38034027
-1.8371501
-0.38789164
-1.9391916
-0.39468315
-2.0474512
-0.40062571
-2.1624946
-2.2840851
-0.00021344704
-0.04679244
-0.00078956882
-0.057475696
-0.0011882494
-0.056891953
-0.0018505
-0.061040978
-0.0023648564
-0.063309076
-0.0030372266
-0.066340733
-0.0036623265
-0.069544581
-0.0043814014
-0.072617379
-0.0051287373
-0.076107069
-0.0059303214
-0.079560974
-0.0067913529
-0.083263019
-0.007711976
-0.087089781
-0.0087006554
-0.091094366
-0.0097622156
-0.095269994
-0.010903318
-0.099626779
-0.012130682
-0.10417127
-0.013451474
-0.10891136
-0.014873028
-0.1138552
-0.01640376
-0.11901101
-0.018051587
-0.12438883
-0.019824758
-0.12999778
-0.021732172
-0.13584921
-0.023781945
-0.14195436
-0.025982763
-0.1483259
-0.028343312
-0.15497748
-0.030870964
-0.16192407
-0.033573521
-0.16918141
-0.036458244
-0.17676711
-0.039531857
-0.18469961
-0.042799562
-0.19299998
-0.046267757
-0.20168885
-0.049940269
-0.21079064
-0.053821846
-0.2203293
-0.057915241
-0.2303322
-0.062223248
-0.24082736
-0.06674878
-0.25184409
-0.07149374
-0.26341445
-0.076459643
-0.27557186
-0.08164821
-0.2883511
-0.08706123
-0.3017892
-0.092700203
-0.31592514
-0.098566904
-0.3307998
-0.10466298
-0.34645645
-0.110991
-0.36294018
-0.11755329
-0.38029912
-0.12435218
-0.39858399
-0.13139128
-0.41784778
-0.13867304
-0.43814773
-0.14620143
-0.45954313
-0.15397971
-0.48209799
-0.16201168
-0.50587963
-0.17030017
-0.53096027
-0.17884899
-0.55741591
-0.18766138
-0.58532774
-0.19673983
-0.61478277
-0.20608673
-0.6458732
-0.21570408
-0.67869744
-0.22559253
-0.71336089
-0.23575207
-0.74997552
-0.24618127
-0.78866176
-0.25687845
-0.82954644
-0.26783874
-0.87276714
-0.27905649
-0.91846952
-0.29052376
-0.9668088
-0.30223003
-1.017951
-0.3141621
-1.0720714
-0.32630383
-1.1293566
-0.33863352
-1.1900056
-0.35113011
-1.2542291
-0.36376342
-1.322249
-0.37649461
-1.3943093
-0.38929037
-1.4706559
-0.40209496
-1.5515631
-0.4148548
-1.6373191
-0.42750845
-1.7282499
-0.43999566
-1.8246943
-0.45222224
-1.9270063
-0.46408655
-2.0356369
-0.47554389
-2.1511098
-2.2732221
-0.00019209213
-0.046600488
-0.00078748969
-0.056880383
-0.0011822694
-0.056497287
-0.0018363048
-0.060387041
-0.002343403
-0.062802086
-0.0030214004
-0.065662841
-0.0036613142
-0.068904772
-0.0043867318
-0.071892069
-0.0051555255
-0.075338378
-0.0059782511
-0.078738355
-0.0068685283
-0.082372839
-0.0078255856
-0.086132822
-0.0088589738
-0.090061066
-0.0099747635
-0.094154291
-0.011180659
-0.098420957
-0.012484548
-0.10286745
-0.013894859
-0.1075011
-0.015420417
-0.11232968
-0.017069834
-0.11736161
-0.01885304
-0.12260562
-0.020778812
-0.12807198
-0.022856791
-0.13377119
-0.025095762
-0.13971531
-0.027504789
-0.14591676
-0.030092344
-0.15238978
-0.032866446
-0.15914978
-0.035834053
-0.16621357
-0.039002248
-0.17359864
-0.042376433
-0.1813251
-0.045962553
-0.18941348
-0.049764364
-0.1978866
-0.053785962
-0.20676854
-0.058030613
-0.21608408
-0.062500854
-0.22586132
-0.067199116
-0.23612839
-0.072127597
-0.24691483
-0.077287953
-0.25825324
-0.082682613
-0.27017627
-0.088313484
-0.28271922
-0.094183264
-0.29591834
-0.10029482
-0.30981243
-0.10665148
-0.32444191
-0.1132574
-0.33984925
-0.12011677
-0.35607945
-0.12723444
-0.37318006
-0.13461629
-0.39120069
-0.14226811
-0.41019449
-0.15019649
-0.43021785
-0.15840812
-0.45133002
-0.16691044
-0.47359423
-0.17571091
-0.49707776
-0.18481794
-0.52185193
-0.19423919
-0.54799349
-0.20398294
-0.575583
-0.21405689
-0.60470807
-0.2244698
-0.63545984
-0.23522881
-0.66793838
-0.24634156
-0.70224856
-0.25781523
-0.73850286
-0.26965646
-0.77682225
-0.28187068
-0.81733479
-0.29446289
-0.86017849
-0.30743682
-0.90550028
-0.32079478
-0.95345677
-0.33453786
-1.0042152
-0.34866484
-1.057953
-0.36317215
-1.1148593
-0.37805354
-1.1751355
-0.39330378
-1.2389913
-0.40890486
-1.3066616
-0.42484557
-1.3783837
-0.44109859
-1.4544198
-0.45763942
-1.5350418
-0.47443847
-1.6205431
-0.49145701
-1.7112596
-0.50865684
-1.8075311
-0.52597746
-1.9097329
-0.54335756
-2.0183138
-0.56078067
-2.133768
-2.2559681
-0.00017341225
-0.046427201
-0.00079730995
-0.056256558
-0.0011984943
-0.056096203
-0.001863802
-0.059721818
-0.0023834648
-0.062282514
-0.0030757997
-0.064970594
-0.0037459105
-0.068234747
-0.004494727
-0.07114334
-0.0053033403
-0.074529844
-0.0061697009
-0.077872075
-0.00711339
-0.081429221
-0.0081343748
-0.085111907
-0.0092429591
-0.088952538
-0.01044686
-0.092950441
-0.01175511
-0.097112741
-0.013177036
-0.10144555
-0.014722372
-0.10595577
-0.01640122
-0.11065082
-0.018223833
-0.11553897
-0.020200135
-0.12062926
-0.022340516
-0.12593151
-0.02465456
-0.13145703
-0.02715144
-0.13721828
-0.029840316
-0.1432277
-0.032728936
-0.14950093
-0.03582456
-0.15605389
-0.039134355
-0.16290345
-0.042663147
-0.17006947
-0.04641612
-0.1775717
-0.050397157
-0.18543196
-0.054609634
-0.19367357
-0.059056559
-0.20232099
-0.063739268
-0.21140069
-0.068660975
-0.22093886
-0.073823099
-0.23096544
-0.079227586
-0.24150944
-0.084877328
-0.25260252
-0.090774613
-0.26427793
-0.096923635
-0.27656907
-0.10332819
-0.28951258
-0.10999294
-0.30314641
-0.11692344
-0.31751007
-0.12412642
-0.33264486
-0.1316088
-0.34859561
-0.13937866
-0.36540869
-0.14744494
-0.38313286
-0.15581699
-0.40182087
-0.16450495
-0.42152832
-0.17351999
-0.44231342
-0.18287329
-0.46423941
-0.19257721
-0.48737238
-0.20264359
-0.51178419
-0.21308631
-0.53754955
-0.22391819
-0.56475008
-0.23515354
-0.59347193
-0.24680576
-0.62380715
-0.25888973
-0.65585434
-0.27141953
-0.68971917
-0.28440949
-0.72551393
-0.29787476
-0.76335873
-0.31182898
-0.80338319
-0.32628656
-0.84572454
-0.34126148
-0.89053013
-0.35676701
-0.93795729
-0.37281533
-0.98817425
-0.38941839
-1.0413588
-0.40658681
-1.0977011
-0.42433051
-1.1574034
-0.44265413
-1.2206807
-0.46156463
-1.2877656
-0.48106371
-1.3589009
-0.50115153
-1.4343506
-0.52182105
-1.5143942
-0.54305977
-1.5993306
-0.56486752
-1.6894844
-0.58722564
-1.7852149
-0.61011531
-1.8868972
-0.6335004
-1.9949941
-0.65739581
-2.1099626
-2.2318006
-0.00015929302
-0.046268017
-0.00082503565
-0.055590875
-0.0012397108
-0.055681611
-0.0019348651
-0.059026732
-0.0024845658
-0.061732884
-0.0032054341
-0.064249794
-0.0039261739
-0.06751407
-0.0047194712
-0.070350106
-0.005590821
-0.073658547
-0.0065279173
-0.076935033
-0.0075542903
-0.080402887
-0.0086720896
-0.083994144
-0.0098926894
-0.087731957
-0.011225878
-0.091617265
-0.01268222
-0.09565639
-0.014272795
-0.09985495
-0.016008722
-0.10421979
-0.017901234
-0.10875824
-0.019961432
-0.11347867
-0.022200107
-0.11839047
-0.024627336
-0.12350413
-0.027253025
-0.12883115
-0.030086321
-0.13438476
-0.033134717
-0.14017903
-0.03640569
-0.14622964
-0.039905168
-0.15255404
-0.043637977
-0.15917023
-0.047608416
-0.16609856
-0.051819594
-0.17335999
-0.056273838
-0.18097712
-0.060972895
-0.18897386
-0.065918853
-0.19737431
-0.071113169
-0.20620558
-0.076557611
-0.21549355
-0.082254676
-0.22526743
-0.088207056
-0.23555605
-0.094418236
-0.24639026
-0.10089333
-0.25780168
-0.10763674
-0.26982443
-0.11465556
-0.28249246
-0.12195671
-0.29584389
-0.12954954
-0.3099158
-0.13744252
-0.32475039
-0.14564647
-0.3403901
-0.15417341
-0.35688016
-0.16303499
-0.37426965
-0.17224492
-0.39260931
-0.18181764
-0.41195395
-0.19176788
-0.43236155
-0.20211198
-0.45389372
-0.21286622
-0.47661663
-0.2240489
-0.50060011
-0.23567746
-0.52591972
-0.24777109
-0.5526554
-0.26034991
-0.58089232
-0.27343409
-0.6107225
-0.28704442
-0.64224395
-0.30120334
-0.67556068
-0.31593294
-0.71078538
-0.33125564
-0.74803782
-0.34719515
-0.78744634
-0.36377567
-0.82914769
-0.38102141
-0.87328921
-0.39895654
-0.92002826
-0.41760694
-0.96953135
-0.43699718
-1.0219775
-0.45715182
-1.0775569
-0.47809529
-1.1364719
-0.49985039
-1.1989391
-0.52244335
-1.2651879
-0.545895
-1.3354667
-0.57022382
-1.4100421
-0.59544784
-1.4891943
-0.62158613
-1.5732217
-0.64865293
-1.6624543
-0.67666821
-1.7572469
-0.70564064
-1.8579853
-0.7355897
-1.9651198
-0.76652563
-2.0791282
-2.2001392
-0.00015120794
-0.046116905
-0.00087770289
-0.054864428
-0.0013110978
-0.055248284
-0.0020499291
-0.058287954
-0.0026503962
-0.061132471
-0.0034177173
-0.063482523
-0.0042120691
-0.06671976
-0.005074646
-0.069487571
-0.0060343729
-0.072698848
-0.0070735143
-0.075895916
-0.008217701
-0.079258709
-0.0094726409
-0.082739206
-0.010851211
-0.086353369
-0.012365239
-0.090103206
-0.014027092
-0.093994483
-0.015849113
-0.098032857
-0.017843598
-0.10222521
-0.02002242
-0.10657929
-0.022397071
-0.11110387
-0.024978272
-0.11580908
-0.027776032
-0.12070614
-0.030798994
-0.12580792
-0.034054734
-0.13112871
-0.037550007
-0.13668341
-0.041289482
-0.14248976
-0.045277476
-0.14856559
-0.049516166
-0.15493102
-0.054007706
-0.16160645
-0.058753508
-0.16861356
-0.06375428
-0.17597565
-0.069011285
-0.18371609
-0.074525384
-0.19185939
-0.080298741
-0.20043133
-0.086333559
-0.20945777
-0.092633695
-0.21896626
-0.099203091
-0.22898555
-0.10604799
-0.23954418
-0.11317459
-0.25067383
-0.12059188
-0.26240581
-0.12830836
-0.27477459
-0.13633571
-0.28781508
-0.14468454
-0.30156544
-0.15336859
-0.31606477
-0.16240226
-0.3313548
-0.17180037
-0.34748039
-0.1815795
-0.36448884
-0.1917572
-0.3824299
-0.20235198
-0.40135747
-0.2133837
-0.42132816