/*--------------------------------*- C++ -*----------------------------------*\
  =========                 |
  \\      /  F ield         | OpenFOAM: The Open Source CFD Toolbox
   \\    /   O peration     | Website:  https://openfoam.org
    \\  /    A nd           | Version:  12
     \\/     M anipulation  |
\*---------------------------------------------------------------------------*/
FoamFile
{
    format      ascii;
    class       volScalarField;
    location    "0.114";
    object      T;
}
// * * * * * * * * * * * * * * * * * * * * * * * * * * * * * * * * * * * * * //

dimensions      [0 0 0 1 0 0 0];

internalField   nonuniform List<scalar> 
16000
(
294.58444
286.1644
289.44014
287.6515
288.75362
288.25013
288.67025
288.5614
288.75744
288.79202
288.91284
288.99784
289.1032
289.20599
289.31469
289.42669
289.54277
289.66284
289.78692
289.91508
290.04729
290.18356
290.32386
290.46814
290.61631
290.7683
290.92396
291.08316
291.24571
291.4114
291.57999
291.75122
291.92479
292.10037
292.27761
292.45615
292.6356
292.81554
292.99555
293.17522
293.3541
293.53178
293.70782
293.88182
294.0534
294.22217
294.38781
294.54999
294.70844
294.86291
295.0132
295.15914
295.30061
295.4375
295.56978
295.69743
295.82047
295.93896
296.05298
296.16264
296.26809
296.36949
296.46698
296.56075
296.65103
296.73808
296.82228
296.90409
296.98409
297.06292
297.14128
297.21987
297.29949
297.38105
297.46554
297.55158
297.65604
297.71042
297.89881
297.8629
294.28277
285.7627
289.17429
287.30005
288.46959
287.92873
288.38439
288.26595
288.47657
288.51654
288.6444
288.73827
288.85082
288.96244
289.07956
289.20056
289.32582
289.45537
289.5892
289.72735
289.86977
290.01646
290.16734
290.32236
290.48137
290.64426
290.81086
290.98096
291.15435
291.33075
291.50987
291.69139
291.87496
292.0602
292.24671
292.43406
292.62182
292.80952
292.99672
293.18294
293.36775
293.55068
293.73132
293.90925
294.08409
294.25549
294.42313
294.58673
294.74606
294.90091
295.05112
295.19658
295.33721
295.47297
295.60386
295.72992
295.85122
295.96785
296.07993
296.18761
296.29107
296.3905
296.48607
296.578
296.66652
296.75193
296.8346
296.91501
296.99373
297.07144
297.14882
297.22659
297.30554
297.38641
297.47012
297.55882
297.65142
297.72997
297.8758
297.88533
293.99603
285.39124
288.90618
286.99208
288.20131
287.6503
288.11975
288.00904
288.22459
288.27634
288.40973
288.51417
288.63483
288.75622
288.88292
289.01398
289.14957
289.28973
289.43444
289.58371
289.73746
289.89566
290.05819
290.22495
290.39576
290.57046
290.74881
290.93058
291.11545
291.30312
291.49323
291.68538
291.87917
292.07414
292.26983
292.46577
292.66145
292.85637
293.05005
293.24199
293.43171
293.61876
293.80271
293.98316
294.15976
294.33218
294.50015
294.66343
294.82185
294.97525
295.12354
295.26667
295.40463
295.53745
295.66517
295.78791
295.90577
296.0189
296.12747
296.23166
296.33169
296.42777
296.52011
296.60895
296.69455
296.77722
296.85734
296.93539
297.01196
297.08771
297.16334
297.23957
297.31712
297.39664
297.47937
297.56703
297.65516
297.7434
297.86544
297.89903
293.73272
285.05102
288.68808
286.72081
287.96626
287.40497
287.88854
287.78715
288.0082
288.07325
288.21322
288.32943
288.45955
288.5919
288.72947
288.87181
289.01894
289.17089
289.32762
289.48909
289.65521
289.8259
290.00101
290.18036
290.36376
290.55096
290.74168
290.93559
291.13234
291.33153
291.53272
291.73546
291.93924
292.14356
292.34789
292.55167
292.75437
292.95544
293.15436
293.35061
293.54371
293.73321
293.91871
294.09983
294.27626
294.44773
294.61402
294.77496
294.93045
295.08041
295.22483
295.36373
295.49716
295.62524
295.74808
295.86585
295.97871
296.08686
296.19052
296.2899
296.38526
296.47682
296.56485
296.64958
296.7313
296.81034
296.88708
296.96201
297.03571
297.10884
297.18209
297.25618
297.33175
297.40947
297.49065
297.5761
297.66219
297.75339
297.86128
297.90733
293.4932
284.7465
288.48091
286.49523
287.77656
287.20131
287.69532
287.60775
287.83288
287.91385
288.06115
288.19047
288.33138
288.47583
288.6255
288.78027
288.94006
289.10492
289.27475
289.44951
289.62904
289.81323
290.00187
290.19473
290.39154
290.59198
290.79567
291.00223
291.2112
291.42209
291.63437
291.84751
292.06091
292.27399
292.48615
292.69678
292.90529
293.11112
293.3137
293.51254
293.70715
293.89712
294.08208
294.26171
294.43576
294.60403
294.7664
294.92278
295.07314
295.21752
295.35598
295.48863
295.61561
295.73711
295.85331
295.96444
296.07073
296.17243
296.26978
296.36304
296.45249
296.5384
296.62102
296.70064
296.77755
296.85208
296.92462
296.99566
297.06577
297.13559
297.20582
297.27715
297.35016
297.42554
297.50447
297.58712
297.67131
297.76197
297.85978
297.91274
293.28147
284.48525
288.30841
286.30705
287.61217
287.0457
287.55087
287.47706
287.70592
287.80388
287.95936
288.10256
288.25541
288.41286
288.5757
288.74397
288.91757
289.09651
289.28063
289.46987
289.66399
289.86283
290.06607
290.27343
290.48452
290.69894
290.9162
291.13581
291.35718
291.57975
291.80287
292.0259
292.24818
292.46902
292.68778
292.90379
293.11644
293.32513
293.52933
293.72854
293.92234
294.11035
294.29228
294.4679
294.63705
294.79963
294.9556
295.10501
295.24793
295.38449
295.51486
295.63924
295.75786
295.87097
295.97885
296.08177
296.18002
296.27389
296.36366
296.44962
296.53206
296.61128
296.68755
296.76116
296.83242
296.90166
296.96928
297.03574
297.10161
297.16752
297.23415
297.30214
297.37205
297.44457
297.52061
297.60002
297.68185
297.77038
297.85998
297.91749
293.10044
284.26885
288.16926
286.15551
287.48203
286.93976
287.44401
287.39776
287.62607
287.74507
287.90973
288.06759
288.23379
288.40554
288.58304
288.76638
288.9554
289.15003
289.35008
289.55537
289.76559
289.98048
290.19961
290.42258
290.64889
290.87801
291.10932
291.34219
291.57593
291.80984
292.04317
292.27517
292.50509
292.73219
292.95577
293.17514
293.38967
293.5988
293.80202
293.99889
294.18906
294.37227
294.5483
294.71706
294.87851
295.03266
295.17962
295.31955
295.45263
295.57912
295.69928
295.81341
295.92183
296.02487
296.12285
296.21611
296.30498
296.38978
296.47083
296.54844
296.62291
296.69454
296.76363
296.83046
296.89535
296.95862
297.02067
297.08196
297.14301
297.20446
297.26694
297.33108
297.3974
297.46653
297.5391
297.61482
297.6937
297.77911
297.86162
297.92209
292.94791
284.09517
288.06032
286.03915
287.3827
286.86668
287.37273
287.33648
287.59595
287.73589
287.91232
288.08671
288.26873
288.45703
288.65151
288.85219
289.05884
289.27131
289.48931
289.71255
289.94062
290.17311
290.40947
290.64914
290.89149
291.13581
291.38136
291.62736
291.87297
292.11736
292.35967
292.59908
292.83475
293.06591
293.29182
293.51182
293.72531
293.93178
294.13081
294.32207
294.50533
294.68045
294.84738
295.00615
295.15688
295.29975
295.43499
295.56289
295.68378
295.79801
295.90596
296.00801
296.10455
296.19598
296.28267
296.36501
296.44336
296.51806
296.58945
296.65784
296.72354
296.78686
296.84809
296.90751
296.96544
297.02219
297.07815
297.13375
297.18951
297.24602
297.3039
297.36372
297.42599
297.49126
297.55987
297.63151
297.70687
297.78818
297.86438
297.92723
292.81891
283.96237
287.98506
285.95826
287.33245
286.86443
287.36437
287.38962
287.61904
287.78039
287.97216
288.16566
288.36649
288.57411
288.78827
289.0089
289.23568
289.46835
289.70649
289.94967
290.19734
290.4489
290.70366
290.96088
291.21972
291.47933
291.73878
291.99712
292.2534
292.50664
292.75591
293.0003
293.23895
293.47109
293.696
293.91308
294.12184
294.32186
294.51288
294.69472
294.86733
295.03074
295.18508
295.33057
295.46749
295.59619
295.71705
295.8305
295.93698
296.03695
296.13089
296.21924
296.30247
296.38101
296.45528
296.52569
296.59261
296.6564
296.7174
296.77592
296.83227
296.88674
296.9396
296.99115
297.04168
297.09149
297.14096
297.1905
297.24059
297.29178
297.34466
297.39977
297.4576
297.51857
297.58281
297.65008
297.72145
297.79776
297.86825
297.93273
292.71273
283.87264
287.94897
285.92804
287.33699
286.90457
287.40179
287.45337
287.69995
287.88756
288.09822
288.31344
288.53608
288.76592
289.00262
289.24594
289.49545
289.75073
290.01118
290.2762
290.54503
290.81687
291.09081
291.36588
291.64107
291.91529
292.18745
292.45644
292.72118
292.9806
293.23371
293.47958
293.71738
293.94638
294.16598
294.37571
294.57524
294.76435
294.94297
295.11115
295.26904
295.41691
295.55509
295.68399
295.80409
295.91589
296.01992
296.11673
296.20688
296.29091
296.36935
296.44272
296.51152
296.57621
296.63722
296.69498
296.74986
296.8022
296.85234
296.90057
296.94719
296.99247
297.03667
297.08005
297.1229
297.16551
297.20823
297.25143
297.29558
297.34117
297.38876
297.43884
297.49189
297.5482
297.60773
297.67043
297.73735
297.80798
297.87323
297.93868
292.63308
283.83408
287.9581
286.01821
287.40009
287.008
287.49788
287.59567
287.85043
288.06595
288.29955
288.5396
288.78741
289.04269
289.305
289.57393
289.84885
290.12913
290.41394
290.70244
290.99359
291.28636
291.57955
291.87197
292.16235
292.44942
292.73191
293.00857
293.27824
293.53981
293.7923
294.03484
294.26671
294.48734
294.69632
294.89341
295.07851
295.25169
295.41314
295.56317
295.7022
295.83072
295.9493
296.05855
296.15911
296.25162
296.33676
296.41516
296.48746
296.55426
296.61614
296.67365
296.72729
296.77753
296.82481
296.86953
296.91204
296.95268
296.99175
297.02953
297.06628
297.10224
297.13766
297.17277
297.20783
297.24312
297.27896
297.31569
297.35374
297.39357
297.43565
297.48049
297.52848
297.57983
297.63442
297.69239
297.75441
297.81886
297.87937
297.94519
292.58644
283.85981
288.02082
286.15622
287.50972
287.18106
287.66451
287.80737
288.07932
288.32543
288.58637
288.85494
289.1316
289.41587
289.70713
290.00471
290.30771
290.61521
290.92609
291.23915
291.55307
291.86647
292.17788
292.48583
292.78883
293.08543
293.37422
293.65389
293.92328
294.18133
294.42718
294.66014
294.87974
295.08567
295.27784
295.45631
295.62135
295.77332
295.91275
296.04024
296.15647
296.26219
296.35815
296.44514
296.52395
296.59535
296.66007
296.71883
296.7723
296.82111
296.86586
296.90707
296.94525
296.98085
297.01428
297.0459
297.07605
297.10502
297.13308
297.16048
297.18744
297.21417
297.24088
297.26778
297.29511
297.32312
297.35208
297.38234
297.41426
297.44824
297.48473
297.52418
297.56692
297.61307
297.66259
297.71569
297.7724
297.83033
297.88655
297.95223
292.57763
283.95575
288.14738
286.34756
287.68444
287.43073
287.91042
288.10244
288.39703
288.67707
288.97021
289.27163
289.58134
289.89852
290.22226
290.55152
290.88505
291.22152
291.5594
291.89711
292.23294
292.56517
292.89203
293.21181
293.52283
293.82352
294.11246
294.38841
294.65031
294.89734
295.12892
295.34471
295.5446
295.72871
295.89734
296.05098
296.19027
296.31596
296.42888
296.52993
296.62003
296.70013
296.77116
296.83403
296.88961
296.93875
296.98221
297.02074
297.055
297.08562
297.11316
297.13813
297.16098
297.18214
297.20195
297.22076
297.23884
297.25645
297.27382
297.29113
297.3086
297.32637
297.34463
297.36356
297.38336
297.40425
297.42649
297.45038
297.47624
297.50441
297.53531
297.56931
297.60668
297.64751
297.69189
297.74005
297.79114
297.84242
297.89465
297.9595
292.6087
284.1295
288.34278
286.62514
287.93429
287.76497
288.24611
288.49051
288.81549
289.13409
289.465
289.80437
290.15181
290.50606
290.86572
291.2293
291.59502
291.96105
292.32539
292.68601
293.04081
293.38773
293.72476
294.05001
294.36175
294.65846
294.93889
295.20204
295.44721
295.67403
295.88238
296.07243
296.24461
296.39953
296.53799
296.66093
296.76937
296.86441
296.94718
297.0188
297.0804
297.13304
297.17776
297.21553
297.24726
297.27379
297.29589
297.31427
297.32956
297.34234
297.35311
297.36233
297.3704
297.37767
297.38446
297.39102
297.39761
297.40441
297.4116
297.41934
297.42778
297.43704
297.44727
297.4586
297.4712
297.48527
297.50105
297.51877
297.53874
297.56124
297.58664
297.61523
297.64722
297.68269
297.72196
297.76512
297.81044
297.85526
297.90372
297.96665
292.68447
284.39425
288.61039
286.99027
288.27155
288.19544
288.68545
288.98646
289.35046
289.71364
290.08857
290.47149
290.86144
291.25653
291.65475
292.05395
292.45177
292.84581
293.23352
293.61245
293.98013
294.33427
294.67275
294.99372
295.29565
295.57736
295.83801
296.07717
296.29477
296.49107
296.66662
296.82225
296.95897
297.07796
297.18049
297.26791
297.34159
297.40289
297.45314
297.49361
297.52552
297.55
297.5681
297.58078
297.58891
297.5933
297.59466
297.59361
297.59074
297.58652
297.58141
297.57578
297.56996
297.56423
297.55883
297.55398
297.54985
297.54659
297.54432
297.54315
297.54319
297.54452
297.54724
297.55146
297.55732
297.56497
297.57462
297.58649
297.60081
297.61787
297.63794
297.66126
297.68794
297.71815
297.75237
297.7905
297.83002
297.86887
297.91403
297.97334
292.80928
284.76845
288.94649
287.45732
288.70986
288.73742
289.24668
289.61018
290.02292
290.43783
290.86327
291.29505
291.73139
292.16963
292.60699
293.04059
293.46737
293.8843
294.28837
294.67677
295.04685
295.39637
295.72343
296.0266
296.30493
296.55795
296.78563
296.98838
297.16699
297.32252
297.4563
297.5698
297.66464
297.74247
297.80496
297.85376
297.89044
297.91653
297.93342
297.94245
297.94481
297.9416
297.93382
297.92234
297.90797
297.89141
297.87326
297.85407
297.83431
297.81438
297.79463
297.77536
297.7568
297.73918
297.72267
297.70741
297.69351
297.68107
297.67018
297.66088
297.65325
297.64732
297.64317
297.64086
297.6405
297.64221
297.64616
297.65254
297.66155
297.67343
297.68842
297.70665
297.7282
297.75334
297.78266
297.81568
297.84947
297.88311
297.92557
297.97993
292.98779
285.28173
289.35835
288.04419
289.27055
289.4142
289.95563
290.38872
290.85988
291.33359
291.81501
292.29933
292.78367
293.26443
293.73791
294.20036
294.64803
295.0774
295.48518
295.86855
296.22519
296.55337
296.852
297.12057
297.35921
297.56853
297.74963
297.90394
298.03318
298.13926
298.2242
298.29004
298.33882
298.37254
298.39307
298.40221
298.4016
298.39275
298.37705
298.35573
298.3299
298.30055
298.26856
298.23467
298.19956
298.1638
298.12789
298.09225
298.05724
298.02317
297.99028
297.95878
297.92884
297.9006
297.87416
297.8496
297.82699
297.80636
297.78776
297.77119
297.75668
297.74424
297.73389
297.72568
297.71968
297.71597
297.71469
297.716
297.72007
297.7271
297.73729
297.75068
297.76736
297.78773
297.8123
297.84011
297.86824
297.89759
297.93814
297.9866
293.23147
285.98057
289.88899
288.78201
289.98445
290.25698
290.84479
291.35434
291.89233
292.43047
292.97112
293.5085
294.03832
294.55584
295.05629
295.5352
295.9884
296.41234
296.80412
297.16168
297.48374
297.76986
298.02036
298.23621
298.41893
298.57049
298.69314
298.78934
298.86163
298.91256
298.94464
298.96025
298.96164
298.95091
298.92996
298.90053
298.86419
298.82233
298.77616
298.72679
298.67514
298.62204
298.5682
298.51422
298.46062
298.40783
298.35622
298.30608
298.25768
298.2112
298.1668
298.12462
298.08473
298.04722
298.0121
297.97942
297.94919
297.92138
297.89601
297.87305
297.85248
297.83428
297.81845
297.80499
297.79395
297.78538
297.77937
297.77605
297.77558
297.77813
297.78382
297.79266
297.8048
297.82072
297.84072
297.86333
297.88603
297.91178
297.9508
297.99322
293.56707
286.84849
290.56534
289.70792
290.88924
291.30049
291.95034
292.543
293.1542
293.7596
294.35831
294.94322
295.5084
296.04799
296.55664
297.02978
297.46381
297.85621
298.20557
298.51157
298.77488
298.997
299.18011
299.32686
299.44026
299.52349
299.57976
299.61226
299.62405
299.618
299.59679
299.56284
299.51838
299.46537
299.40557
299.34051
299.27154
299.19984
299.12641
299.05212
298.97771
298.9038
298.83092
298.75951
298.68993
298.62246
298.55736
298.4948
298.43492
298.37783
298.32361
298.27229
298.2239
298.17845
298.13591
298.09627
298.05948
298.02551
297.9943
297.96581
297.93999
297.91678
297.89616
297.8781
297.86262
297.84973
297.8395
297.83203
297.82745
297.82588
297.8274
297.83201
297.83995
297.85177
297.8674
297.88493
297.90262
297.92525
297.96243
298.00095
294.03478
287.82964
291.42978
290.8575
292.02879
292.58654
293.3151
293.99656
294.68261
295.35085
295.9967
296.61177
297.18914
297.72286
298.20837
298.64263
299.02412
299.35281
299.62995
299.85782
300.03955
300.17878
300.27952
300.3459
300.38202
300.39184
300.37909
300.34724
300.29943
300.23849
300.16695
300.08703
300.00067
299.90955
299.81514
299.71867
299.62121
299.52366
299.42677
299.33118
299.2374
299.14587
299.05693
298.97085
298.88785
298.8081
298.73171
298.65876
298.5893
298.52335
298.4609
298.40195
298.34644
298.29433
298.24556
298.20005
298.15774
298.11854
298.08238
298.04918
298.01886
297.99136
297.96661
297.94457
297.92521
297.90855
297.8946
297.88344
297.87518
297.86989
297.86758
297.86831
297.87243
297.88044
297.89187
297.90461
297.91792
297.93816
297.97344
298.0071
294.6902
289.09477
292.52995
292.28273
293.46378
294.17328
294.99165
295.75957
296.50907
297.21949
297.88361
298.4932
299.04249
299.52783
299.94768
300.30254
300.59459
300.82734
301.00525
301.13339
301.2171
301.26179
301.27267
301.25468
301.21237
301.14988
301.0709
300.97868
300.87609
300.76558
300.6493
300.52905
300.40637
300.28257
300.15873
300.03578
299.91445
299.79537
299.67905
299.56587
299.45616
299.35017
299.24808
299.15001
299.05606
298.96628
298.88067
298.79924
298.72196
298.64876
298.57959
298.51436
298.453
298.39541
298.34148
298.29112
298.24421
298.20065
298.16034
298.12318
298.08907
298.05791
298.02964
298.00418
297.98149
297.96155
297.94436
297.92998
297.91846
297.90984
297.9041
297.90136
297.90203
297.90647
297.91387
297.92214
297.93174
297.95012
297.9834
298.01125
295.5899
290.70461
293.95125
294.06305
295.27297
296.128
297.02753
297.85769
298.63444
299.34097
299.971
300.5199
300.98639
301.37191
301.68013
301.9164
302.08719
302.19953
302.26063
302.27755
302.25695
302.20498
302.12716
302.02841
301.91302
301.7847
301.64664
301.50154
301.3517
301.19902
301.0451
300.89127
300.73862
300.58805
300.44027
300.29587
300.15531
300.01895
299.88706
299.75984
299.63743
299.51993
299.40736
299.29976
299.19709
299.09932
299.00637
298.91817
298.83461
298.75561
298.68102
298.61075
298.54465
298.48261
298.42448
298.37014
298.31945
298.2723
298.22855
298.18809
298.1508
298.11657
298.08531
298.05695
298.03141
298.00865
297.98866
297.97148
297.95713
297.9456
297.93685
297.93107
297.92867
297.92982
297.93341
297.93765
297.94411
297.96071
297.99151
298.01375
296.71602
292.78339
295.79913
296.282
297.52273
298.49442
299.42992
300.26217
300.99765
301.62774
302.15248
302.57479
302.90082
303.13874
303.29795
303.38831
303.41962
303.40113
303.34137
303.24795
303.12758
302.98604
302.82827
302.65843
302.48003
302.29598
302.10866
301.92006
301.73177
301.54512
301.36114
301.18068
301.0044
300.83281
300.66632
300.50522
300.34971
300.19994
300.05599
299.9179
299.78565
299.65922
299.53854
299.42353
299.31408
299.21007
299.11138
299.01787
298.92939
298.84579
298.76692
298.69262
298.62274
298.55712
298.4956
298.43803
298.38427
298.33417
298.28759
298.24439
298.20445
298.16766
298.13389
298.10307
298.0751
298.04994
298.02756
298.00797
297.99117
297.97711
297.96579
297.95742
297.95237
297.95056
297.95076
297.9516
297.95537
297.96958
297.9966
298.01557
298.24552
295.44356
298.16892
298.9928
300.2087
301.2415
302.12361
302.86033
303.46078
303.92892
304.27527
304.5123
304.65391
304.7141
304.70626
304.64264
304.53414
304.39021
304.2189
304.02695
303.81996
303.60254
303.37842
303.15065
302.92168
302.69345
302.46753
302.24515
302.02725
301.81459
301.60773
301.40707
301.21294
301.02552
300.84495
300.67129
300.50456
300.34471
300.19169
300.0454
299.90574
299.77256
299.64572
299.52507
299.41044
299.30166
299.19855
299.10092
299.00861
298.92142
298.83918
298.76171
298.68882
298.62034
298.55609
298.49592
298.43966
298.38714
298.33823
298.29277
298.25063
298.21168
298.17581
298.1429
298.11288
298.08567
298.06125
298.03959
298.02067
298.00444
297.99093
297.98036
297.97303
297.96865
297.96602
297.96426
297.966
297.97771
298.00032
298.01552
300.22031
298.75507
301.05669
302.17011
303.35584
304.22195
304.9299
305.45829
305.82967
306.06258
306.17831
306.19707
306.13751
306.01601
305.84656
305.64084
305.40841
305.15703
304.89292
304.621
304.34518
304.0685
303.79336
303.52158
303.25459
302.99345
302.73896
302.49172
302.25214
302.0205
301.79698
301.58165
301.37455
301.17564
300.98484
300.80205
300.62712
300.45991
300.30024
300.14792
300.00277
299.86458
299.73315
299.60827
299.48972
299.37731
299.27081
299.17002
299.07473
298.98474
298.89985
298.81986
298.74456
298.67379
298.60734
298.54504
298.48672
298.43222
298.38137
298.33402
298.29003
298.24928
298.21162
298.17696
298.14519
298.11625
298.09007
298.06663
298.04587
298.02775
298.01236
297.9999
297.99055
297.98394
297.97899
297.97529
297.97555
297.985
298.00287
298.01147
302.66858
302.70287
304.71031
305.68532
306.58105
307.19364
307.60178
307.82681
307.90521
307.86668
307.73809
307.54159
307.29526
307.01342
306.70734
306.38569
306.05516
305.72082
305.38654
305.05518
304.72892
304.40933
304.09757
303.79446
303.50056
303.21623
302.94168
302.67703
302.42227
302.17735
301.94215
301.71653
301.50031
301.29329
301.09524
300.90594
300.72515
300.55262
300.38812
300.23139
300.0822
299.94028
299.80539
299.6773
299.55576
299.44054
299.3314
299.22812
299.13047
299.03823
298.95119
298.86914
298.79187
298.71919
298.6509
298.58682
298.52676
298.47057
298.41806
298.3691
298.32352
298.2812
298.24201
298.20583
298.17256
298.14212
298.11443
298.08945
298.0671
298.04736
298.03032
298.01617
298.00499
297.99638
297.98953
297.98437
297.98324
297.98984
298.00294
298.00977
305.7332
307.12873
308.45746
309.16056
309.64006
309.85143
309.87707
309.7588
309.53733
309.24299
308.89922
308.52344
308.12852
307.72385
307.31624
306.91059
306.51039
306.1181
305.73541
305.36348
305.00305
304.65457
304.31826
303.99419
303.68231
303.38249
303.09453
302.81819
302.55321
302.29929
302.05615
301.82346
301.60093
301.38824
301.18507
300.99112
300.80609
300.62968
300.4616
300.30156
300.14927
300.00447
299.86688
299.73624
299.61229
299.49478
299.38346
299.2781
299.17845
299.08429
298.9954
298.91157
298.83257
298.75821
298.68829
298.62262
298.56101
298.5033
298.44931
298.39889
298.35189
298.30817
298.2676
298.23007
298.19546
298.1637
298.13469
298.10837
298.08466
298.06355
298.04511
298.02946
298.01663
298.00627
297.99789
297.99171
297.98956
297.99373
298.00247
298.00595
309.68253
311.47022
312.01271
312.20112
312.14851
311.91642
311.56723
311.1433
310.67478
310.18235
309.68006
309.17735
308.68052
308.19369
307.71952
307.25965
306.81502
306.3861
305.97304
305.57578
305.19408
304.82764
304.47606
304.13894
303.81582
303.50627
303.20983
302.92605
302.6545
302.39475
302.14638
301.90899
301.68219
301.4656
301.25886
301.06161
300.87352
300.69425
300.52349
300.36092
300.20624
300.05916
299.9194
299.78669
299.66075
299.54132
299.42815
299.321
299.21963
299.12379
299.03327
298.94785
298.86731
298.79144
298.72005
298.65294
298.58994
298.53085
298.47552
298.42379
298.3755
298.33051
298.2887
298.24994
298.21414
298.18119
298.15101
298.12353
298.09867
298.07642
298.05682
298.0399
298.02564
298.01381
298.00419
297.9971
297.99374
297.99527
298.00034
298.00286
314.63962
315.01374
314.74611
314.37921
313.85823
313.26667
312.64016
312.00425
311.37312
310.75538
310.15581
309.57697
309.02005
308.48539
307.97282
307.48187
307.01188
306.56211
306.13178
305.72008
305.32625
304.94951
304.58914
304.24444
303.91475
303.59944
303.29791
303.00961
302.73401
302.47059
302.21888
301.97842
301.74878
301.52954
301.32032
301.12074
300.93042
300.74904
300.57625
300.41173
300.25518
300.10628
299.96477
299.83034
299.70273
299.58169
299.46694
299.35824
299.25535
299.15803
299.06606
298.97922
298.89728
298.82005
298.74732
298.6789
298.61461
298.55426
298.4977
298.44475
298.39527
298.34912
298.30616
298.26627
298.22936
298.19531
298.16405
298.13549
298.10959
298.08632
298.0657
298.04772
298.03236
298.0195
298.00909
298.00133
297.99682
297.99603
297.99812
298.0003
316.63711
316.8057
316.23411
315.47349
314.69581
313.91693
313.15726
312.42438
311.72177
311.05042
310.41004
309.79968
309.21807
308.66382
308.1355
307.63172
307.15116
306.69256
306.25476
305.83666
305.43727
305.05563
304.6909
304.34226
304.00896
303.69032
303.38569
303.09445
302.81606
302.54997
302.29568
302.05273
301.82067
301.59907
301.38753
301.18567
300.99312
300.80954
300.63458
300.46793
300.30928
300.15831
300.01475
299.87832
299.74873
299.62574
299.50907
299.39849
299.29375
299.19462
299.10087
299.01227
298.92862
298.84971
298.77534
298.70531
298.63945
298.57757
298.51951
298.4651
298.41421
298.36668
298.32238
298.28119
298.24301
298.20773
298.17527
298.14554
298.11852
298.09416
298.07248
298.05349
298.03716
298.02346
298.01239
298.00405
297.99866
297.99641
297.99621
297.99883
310.26197
308.95417
305.2865
302.38277
301.09669
300.80761
300.74021
300.73751
300.62647
300.56978
300.46535
300.39611
300.31006
300.22388
300.13794
300.05152
299.96444
299.87665
299.78818
299.69907
299.60943
299.51936
299.42898
299.33843
299.24786
299.15739
299.06718
298.97737
298.88808
298.79947
298.71165
298.62478
298.53897
298.45437
298.37109
298.28928
298.20906
298.13055
298.05391
297.97924
297.9067
297.83642
297.76853
297.70317
297.6405
297.58063
297.52373
297.46993
297.41936
297.37218
297.32851
297.28849
297.25224
297.21988
297.19154
297.16731
297.14728
297.13155
297.12019
297.11326
297.11087
297.11305
297.11981
297.13108
297.14684
297.1668
297.19117
297.21893
297.25185
297.28575
297.32911
297.36621
297.42511
297.45598
297.54493
297.56054
297.69893
297.70052
297.88467
297.90685
309.46042
306.56044
302.38075
300.31262
299.73883
299.74018
299.84118
299.85277
299.84771
299.8221
299.79908
299.76183
299.7193
299.67197
299.62072
299.56565
299.50723
299.44574
299.3815
299.31482
299.246
299.17531
299.103
299.02932
298.95452
298.8788
298.8024
298.72552
298.64836
298.57113
298.49401
298.41719
298.34085
298.26517
298.19033
298.1165
298.04386
297.97257
297.9028
297.83472
297.76849
297.70428
297.64225
297.58256
297.52538
297.47087
297.41919
297.37048
297.32492
297.28263
297.24377
297.20847
297.17686
297.14906
297.12518
297.10534
297.0896
297.07805
297.07076
297.06778
297.0692
297.07504
297.08531
297.09991
297.11879
297.14171
297.16876
297.19909
297.23418
297.27042
297.3153
297.35455
297.41415
297.44773
297.5365
297.55522
297.69402
297.69615
297.88472
297.90126
308.05984
304.49
301.38509
299.67946
299.34867
299.38935
299.4245
299.39906
299.37124
299.33906
299.30776
299.2732
299.237
299.19784
299.15648
299.1127
299.06675
299.01858
298.96828
298.91596
298.86173
298.80571
298.74803
298.68882
298.62824
298.56645
298.5036
298.43986
298.37542
298.31043
298.2451
298.17959
298.1141
298.04882
297.98392
297.91961
297.85607
297.7935
297.73207
297.67199
297.61344
297.5566
297.50167
297.44884
297.39827
297.35016
297.30468
297.26201
297.22229
297.18571
297.1524
297.12251
297.09618
297.07353
297.05467
297.0397
297.0287
297.02175
297.0189
297.02019
297.02572
297.0355
297.04949
297.06763
297.08982
297.11582
297.14571
297.17869
297.21609
297.25468
297.30126
297.34253
297.40322
297.43924
297.52842
297.54978
297.68937
297.6921
297.88431
297.89618
306.875
303.04514
300.21813
298.92862
298.87916
298.89564
298.91367
298.87809
298.86033
298.83163
298.80812
298.77936
298.75044
298.71952
298.68747
298.65379
298.61864
298.58188
298.54353
298.50358
298.46205
298.41897
298.37439
298.32837
298.28099
298.23233
298.18249
298.1316
298.07977
298.02716
297.9739
297.92016
297.86609
297.81189
297.75772
297.70377
297.65024
297.59732
297.5452
297.49408
297.44418
297.39568
297.3488
297.30373
297.26067
297.21982
297.18137
297.1455
297.1124
297.08222
297.05513
297.03129
297.01083
296.99387
296.98053
296.9709
296.96507
296.9631
296.96504
296.97094
296.98085
296.99481
297.01276
297.03461
297.06027
297.0895
297.12234
297.15806
297.19788
297.23884
297.28725
297.33048
297.39249
297.43079
297.52051
297.5443
297.68487
297.68828
297.88364
297.8914
306.18069
301.83799
299.25941
298.30455
298.38413
298.35846
298.38563
298.34902
298.34294
298.3188
298.30388
298.28229
298.26212
298.24009
298.21744
298.19355
298.16859
298.1424
298.11496
298.08623
298.05619
298.02483
297.99215
297.95817
297.92293
297.88645
297.84881
297.81007
297.77033
297.72968
297.68823
297.64612
297.60348
297.56047
297.51724
297.47397
297.43083
297.38801
297.34571
297.30413
297.26347
297.22394
297.18575
297.1491
297.11421
297.08127
297.05049
297.02206
296.99616
296.97298
296.95268
296.93542
296.92133
296.91054
296.90316
296.8993
296.89901
296.90238
296.90942
296.9202
296.93477
296.95312
296.97522
297.00096
297.03024
297.06282
297.0987
297.13725
297.17956
297.22292
297.27324
297.31845
297.3819
297.42238
297.51284
297.53888
297.68056
297.68466
297.88276
297.88692
305.6173
300.6548
298.46208
297.70601
297.85754
297.80166
297.84894
297.8128
297.8217
297.80418
297.8003
297.78738
297.77695
297.76438
297.75142
297.73735
297.7223
297.70617
297.68894
297.67059
297.65109
297.63043
297.60859
297.58559
297.56143
297.53614
297.50974
297.48228
297.45383
297.42445
297.39422
297.36325
297.33166
297.29955
297.26709
297.2344
297.20167
297.16906
297.13676
297.10495
297.07383
297.04362
297.01451
296.98671
296.96043
296.93587
296.91324
296.89274
296.87454
296.85884
296.84579
296.83556
296.82828
296.82408
296.82305
296.82531
296.83092
296.83992
296.85236
296.86827
296.88771
296.91067
296.93709
296.96687
296.99988
297.03591
297.07494
297.11638
297.16123
297.20703
297.25933
297.30658
297.37149
297.41411
297.50544
297.53359
297.67636
297.68124
297.88175
297.88264
305.04316
299.61073
297.81761
297.1607
297.35978
297.27768
297.34476
297.30695
297.32836
297.31534
297.32052
297.31473
297.31226
297.30738
297.30239
297.29648
297.28977
297.28219
297.27371
297.26432
297.25397
297.24265
297.23034
297.21703
297.20271
297.1874
297.17111
297.15386
297.13569
297.11666
297.09682
297.07625
297.05504
297.0333
297.01114
296.9887
296.96611
296.94353
296.92113
296.89909
296.87759
296.85682
296.83697
296.81826
296.80087
296.78501
296.77087
296.75864
296.74852
296.74067
296.73525
296.73242
296.73231
296.73504
296.74071
296.7494
296.76118
296.7761
296.79418
296.81545
296.83996
296.86769
296.89858
296.93251
296.96937
297.00893
297.05116
297.09554
297.14299
297.19124
297.24558
297.29493
297.36131
297.40603
297.49833
297.52851
297.67229
297.67807
297.88062
297.87862
304.56836
298.66658
297.27478
296.66197
296.90002