/*--------------------------------*- C++ -*----------------------------------*\
  =========                 |
  \\      /  F ield         | OpenFOAM: The Open Source CFD Toolbox
   \\    /   O peration     | Website:  https://openfoam.org
    \\  /    A nd           | Version:  12
     \\/     M anipulation  |
\*---------------------------------------------------------------------------*/
FoamFile
{
    format      ascii;
    class       volScalarField;
    location    "0.126";
    object      k;
}
// * * * * * * * * * * * * * * * * * * * * * * * * * * * * * * * * * * * * * //

dimensions      [0 2 -2 0 0 0 0];

internalField   nonuniform List<scalar> 
16000
(
0.04918704
0.021601021
0.022477403
0.016551309
0.014038526
0.012707146
0.011917039
0.011444225
0.011123864
0.010908179
0.010749057
0.010630614
0.010538199
0.010465079
0.01040622
0.010358465
0.010319443
0.010287496
0.010261441
0.010240093
0.010222379
0.010207989
0.010196437
0.010187146
0.010179879
0.010174292
0.010170197
0.010167428
0.010165841
0.010165305
0.010165697
0.010166913
0.010168872
0.010171505
0.010174751
0.010178553
0.010182854
0.010187598
0.010192727
0.010198186
0.010203912
0.010209835
0.010215889
0.010222005
0.010228109
0.010234127
0.010239998
0.010245673
0.010251105
0.01025625
0.010261061
0.010265488
0.010269477
0.010272978
0.010275948
0.01027835
0.010280149
0.010281308
0.010281778
0.010281492
0.010280344
0.0102782
0.010274926
0.010270376
0.010264398
0.010256827
0.010247435
0.010235858
0.010221425
0.010202916
0.010178866
0.010149128
0.010118369
0.010095319
0.010077901
0.010066105
0.010059562
0.010066867
0.010052101
0.01007226
0.04565453
0.020440203
0.021034334
0.016003227
0.013692624
0.012504108
0.011753929
0.011327195
0.011022727
0.01082436
0.010675561
0.010565905
0.010479916
0.01041229
0.010357944
0.010314064
0.010278379
0.010249312
0.010225801
0.010206826
0.010191215
0.010178704
0.010168929
0.010161272
0.010155543
0.010151396
0.01014865
0.010147144
0.010146741
0.010147319
0.010148758
0.010150955
0.010153826
0.0101573
0.010161317
0.010165821
0.010170755
0.010176063
0.010181688
0.010187578
0.010193672
0.010199903
0.010206206
0.010212517
0.010218766
0.010224879
0.010230797
0.01023647
0.010241858
0.010246919
0.010251612
0.010255894
0.010259714
0.010263027
0.010265789
0.010267964
0.010269521
0.010270425
0.010270634
0.010270087
0.010268692
0.010266319
0.010262834
0.010258086
0.010251914
0.010244146
0.010234555
0.010222787
0.010208244
0.010189835
0.010166154
0.010137248
0.010108068
0.010086184
0.010069753
0.010058284
0.010053184
0.010056296
0.0100531
0.010074571
0.042411266
0.019624177
0.019699295
0.015437866
0.013338668
0.012276389
0.011584988
0.011200308
0.01091935
0.010739235
0.010601652
0.010501231
0.010422154
0.01036031
0.010310778
0.010271006
0.010238884
0.010212909
0.0101921
0.010175636
0.010162278
0.010151772
0.010143881
0.010137956
0.010133851
0.010131224
0.0101299
0.010129723
0.010130565
0.010132308
0.010134838
0.010138051
0.010141863
0.010146201
0.010151005
0.010156216
0.01016178
0.01016764
0.01017374
0.010180026
0.010186443
0.010192927
0.010199414
0.010205843
0.01021215
0.010218265
0.010224129
0.010229695
0.010234926
0.010239787
0.010244244
0.010248257
0.010251783
0.01025478
0.010257207
0.01025903
0.01026022
0.010260746
0.01026057
0.010259636
0.010257861
0.010255126
0.0102513
0.010246226
0.010239737
0.010231651
0.010221735
0.010209635
0.010194802
0.01017631
0.010152854
0.010124577
0.01009724
0.010076731
0.010061397
0.010050829
0.01004628
0.010047735
0.010052065
0.010073901
0.03849379
0.0190709
0.0185493
0.014931834
0.013018284
0.012070576
0.011430286
0.011084476
0.010824414
0.010660859
0.01053399
0.010442109
0.010369628
0.010313252
0.01026832
0.010232481
0.010203788
0.01018081
0.010162609
0.010148584
0.010137436
0.010128886
0.010122842
0.010118618
0.010116105
0.010114971
0.010115043
0.010116172
0.01011823
0.010121108
0.010124693
0.010128882
0.01013359
0.01013874
0.010144271
0.010150124
0.010156242
0.010162572
0.010169056
0.010175642
0.010182279
0.010188905
0.01019546
0.010201888
0.010208131
0.010214122
0.010219807
0.010225141
0.010230091
0.010234629
0.010238726
0.010242352
0.010245469
0.010248038
0.010250021
0.010251389
0.010252112
0.010252165
0.010251511
0.010250101
0.01024786
0.010244681
0.010240433
0.010234959
0.010228084
0.010219614
0.010209309
0.010196814
0.010181623
0.010163003
0.010139826
0.010112077
0.010086567
0.010067423
0.010053227
0.010043587
0.010039181
0.010039886
0.010048266
0.010066341
0.035739313
0.01875971
0.017567377
0.014462779
0.012720014
0.011875929
0.011285187
0.010975225
0.010735756
0.010587715
0.010471349
0.010387616
0.010321594
0.010270528
0.010230101
0.010198116
0.010172795
0.010152791
0.010137163
0.010125552
0.010116614
0.010110024
0.010105817
0.010103307
0.010102377
0.010102735
0.010104202
0.010106632
0.010109898
0.010113893
0.010118509
0.010123643
0.010129204
0.010135116
0.010141315
0.010147739
0.010154333
0.010161042
0.010167812
0.010174592
0.010181332
0.010187978
0.010194475
0.01020077
0.010206812
0.010212543
0.010217911
0.010222877
0.010227411
0.010231494
0.010235102
0.010238213
0.010240796
0.010242819
0.010244245
0.010245047
0.010245199
0.010244676
0.010243448
0.010241469
0.010238671
0.010234955
0.010230197
0.010224241
0.010216903
0.010207974
0.010197206
0.01018425
0.010168634
0.010149816
0.010126946
0.010099804
0.010076127
0.010058369
0.010045355
0.010036629
0.010032303
0.010032947
0.010043435
0.010055876
0.033857844
0.018691437
0.016837761
0.01403293
0.012445488
0.011694832
0.011151038
0.010873953
0.010654288
0.01052054
0.01041436
0.010338313
0.010278539
0.010232587
0.01019653
0.010168296
0.010146266
0.0101292
0.010116109
0.010106878
0.010100143
0.010095544
0.010093142
0.010092392
0.010093001
0.010094847
0.010097699
0.010101415
0.010105867
0.010110948
0.010116552
0.010122575
0.010128925
0.010135522
0.0101423
0.010149196
0.010156154
0.010163122
0.010170048
0.010176884
0.010183584
0.010190101
0.010196387
0.010202395
0.010208081
0.010213398
0.010218299
0.01022275
0.010226727
0.010230217
0.010233204
0.010235673
0.010237602
0.010238963
0.010239723
0.010239857
0.010239341
0.010238152
0.010236263
0.010233631
0.010230195
0.010225864
0.01022052
0.010214009
0.01020614
0.010196691
0.0101854
0.010171934
0.010155866
0.010136806
0.010114263
0.010087866
0.010066015
0.010049659
0.010037844
0.010029997
0.010025816
0.010026445
0.010037006
0.010047273
0.030953284
0.018789067
0.016320727
0.013638877
0.012192497
0.011526608
0.011027614
0.010780509
0.010579917
0.010459274
0.010362934
0.010294172
0.010240453
0.010199465
0.010167678
0.010143132
0.010124348
0.010110215
0.010099658
0.010092797
0.010088256
0.010085809
0.010085103
0.01008631
0.010088293
0.01009162
0.010095847
0.010100826
0.010106429
0.010112549
0.010119079
0.010125914
0.010132963
0.01014014
0.010147378
0.010154615
0.010161796
0.010168871
0.010175794
0.010182519
0.010189008
0.010195223
0.010201124
0.010206671
0.010211832
0.010216569
0.010220843
0.010224625
0.010227899
0.010230657
0.010232891
0.010234595
0.010235753
0.010236342
0.010236334
0.010235705
0.010234432
0.010232494
0.010229865
0.010226506
0.01022236
0.010217344
0.010211346
0.010204214
0.010195754
0.01018573
0.010173869
0.01015986
0.010143336
0.010124009
0.010101778
0.010076397
0.010056354
0.010041405
0.010030775
0.01002378
0.010019821
0.010020478
0.010030535
0.010037853
0.028603943
0.018977395
0.015901231
0.013278127
0.011959584
0.011371026
0.010914351
0.01069475
0.010512302
0.0104038
0.010316998
0.010255228
0.010207425
0.010171311
0.010143743
0.010122866
0.010107317
0.010096136
0.010088143
0.010083631
0.010081231
0.010081528
0.010082075
0.010084729
0.010088623
0.010093413
0.010098986
0.010105187
0.010111883
0.010118964
0.010126325
0.010133861
0.010141478
0.01014909
0.01015663
0.010164037
0.01017126
0.010178252
0.010184975
0.010191392
0.010197471
0.010203185
0.010208506
0.010213404
0.010217856
0.010221837
0.010225319
0.010228278
0.010230704
0.010232596
0.010233954
0.010234776
0.010235055
0.010234773
0.010233906
0.01023243
0.010230322
0.010227564
0.010224129
0.010219982
0.010215067
0.010209308
0.010202599
0.010194791
0.010185688
0.010175049
0.010162588
0.010148019
0.010131057
0.010111461
0.010089456
0.010065487
0.010047227
0.010033676
0.0100242
0.010018036
0.010014373
0.010014916
0.010023755
0.010028005
0.026905586
0.019164086
0.015411587
0.012947468
0.011745115
0.011227284
0.010810588
0.010615927
0.010451497
0.010354355
0.010276783
0.01022178
0.010179776
0.010148477
0.010125098
0.010107891
0.010095585
0.01008737
0.010082016
0.010079687
0.010079
0.010081234
0.010084562
0.010088972
0.010094378
0.010100606
0.01010747
0.010114815
0.010122506
0.01013043
0.010138481
0.010146557
0.010154563
0.010162417
0.010170051
0.01017741
0.010184449
0.010191129
0.010197421
0.010203298
0.010208742
0.010213736
0.010218266
0.010222315
0.010225871
0.01022892
0.010231447
0.010233433
0.010234876
0.010235778
0.010236146
0.010235985
0.010235291
0.010234054
0.010232251
0.010229859
0.010226855
0.010223219
0.010218927
0.010213942
0.010208213
0.010201667
0.010194204
0.010185677
0.010175892
0.010164609
0.010151539
0.010136412
0.01011904
0.01009921
0.010077252
0.010055218
0.010038709
0.010026538
0.010018167
0.010012806
0.010009502
0.010009802
0.010017006
0.010018271
0.02517286
0.01933636
0.014737758
0.01264414
0.011549035
0.011095804
0.010717153
0.010545125
0.010398066
0.010311382
0.010242717
0.010194292
0.010157972
0.010131443
0.010112234
0.010098711
0.010089673
0.010084375
0.010081857
0.010079502
0.010084383
0.010087904
0.010092925
0.010099035
0.010105984
0.010113569
0.01012162
0.010129982
0.010138515
0.010147104
0.010155644
0.010164038
0.010172195
0.010180036
0.010187502
0.010194544
0.010201127
0.010207226
0.010212822
0.010217905
0.010222468
0.010226511
0.010230033
0.010233031
0.010235506
0.010237457
0.010238876
0.010239756
0.010240095
0.010239902
0.010239186
0.010237957
0.010236217
0.010233958
0.010231162
0.010227803
0.010223858
0.010219304
0.010214118
0.010208263
0.010201689
0.010194326
0.01018608
0.010176807
0.010166314
0.010154372
0.010140704
0.010125045
0.010107284
0.01008732
0.010065246
0.010045642
0.01003085
0.010020031
0.010012707
0.010008107
0.010005199
0.010005174
0.010010821
0.010011721
0.023651127
0.019479104
0.014196943
0.012365996
0.011371839
0.010976948
0.010634558
0.010483
0.010352182
0.010275275
0.010215216
0.010173242
0.010142523
0.010120746
0.010105708
0.010095893
0.010090177
0.01008752
0.010088345
0.010091334
0.010095036
0.010100834
0.010107713
0.010115446
0.010123815
0.010132621
0.010141692
0.010150871
0.010160018
0.010169019
0.010177771
0.010186186
0.010194184
0.010201695
0.010208671
0.010215077
0.010220892
0.010226106
0.01023072
0.010234737
0.010238169
0.010241031
0.010243335
0.010245095
0.010246321
0.010247024
0.010247207
0.010246868
0.010246009
0.010244638
0.010242769
0.010240413
0.010237575
0.010234251
0.010230423
0.010226066
0.010221153
0.010215659
0.010209559
0.010202818
0.010195386
0.010187193
0.010178151
0.01016812
0.010156912
0.010144308
0.010130067
0.010113924
0.010095779
0.01007582
0.010054239
0.010036795
0.010023681
0.010014176
0.01000784
0.010003956
0.010001484
0.010001177
0.010005418
0.010006155
0.022286653
0.019609171
0.013727474
0.01211324
0.011213442
0.010870361
0.010562597
0.010429273
0.010314175
0.010246508
0.010194777
0.010159183
0.010134012
0.010116996
0.010106151
0.010100068
0.010097763
0.010098513
0.010101486
0.010106419
0.010113073
0.010120759
0.01012935
0.010138563
0.010148173
0.010157977
0.010167807
0.010177509
0.010186948
0.010196012
0.010204611
0.01021267
0.010220124
0.010226923
0.010233035
0.010238446
0.010243153
0.010247166
0.010250503
0.010253189
0.010255251
0.010256718
0.010257619
0.010257979
0.010257819
0.010257158
0.010256007
0.010254368
0.010252245
0.010249646
0.010246582
0.010243067
0.010239105
0.010234695
0.01022982
0.010224454
0.010218566
0.010212128
0.010205114
0.010197486
0.010189197
0.010180177
0.010170342
0.01015956
0.010147646
0.010134396
0.010119608
0.010103051
0.010084549
0.010064547
0.010044184
0.010028731
0.010017215
0.010008973
0.01000357
0.010000353
0.0099983661
0.0099979298
0.010000899
0.010001207
0.021053418
0.019696858
0.013297298
0.011885853
0.011073411
0.010776045
0.010501395
0.010384533
0.010284391
0.010225602
0.010181977
0.010152749
0.010133117
0.010120894
0.010114284
0.010111978
0.010113031
0.010116742
0.010122565
0.010129985
0.010138583
0.010148097
0.010158205
0.010168647
0.0101792
0.010189663
0.010199872
0.010209684
0.010218976
0.010227652
0.010235637
0.010242881
0.010249343
0.010255
0.010259844
0.010263883
0.010267139
0.010269642
0.010271431
0.010272548
0.010273034
0.010272933
0.010272286
0.010271126
0.010269483
0.010267381
0.010264836
0.010261854
0.010258438
0.010254591
0.010250323
0.010245645
0.01024056
0.010235067
0.010229151
0.010222785
0.010215935
0.010208567
0.010200653
0.010192156
0.010183026
0.010173198
0.010162588
0.010151073
0.010138485
0.010124622
0.010109311
0.010092397
0.010073657
0.010053464
0.010035138
0.010021481
0.010011453
0.010004409
0.0099998868
0.0099972774
0.0099957796
0.0099954866
0.0099978068
0.0099978604
0.019943893
0.019703059
0.012907113
0.011681833
0.01095098
0.010694034
0.010451063
0.010349111
0.010263297
0.010213207
0.010177547
0.010154718
0.010140656
0.010133279
0.010130949
0.010132443
0.010136877
0.010143575
0.01015197
0.010161616
0.010172132
0.010183169
0.010194453
0.010205727
0.010216773
0.010227402
0.010237465
0.010246839
0.010255426
0.010263159
0.010269991
0.010275904
0.01028089
0.010284959
0.010288132
0.010290443
0.010291937
0.010292665
0.010292682
0.010292044
0.010290805
0.010289019
0.010286732
0.010283985
0.010280812
0.010277239
0.010273284
0.010268953
0.01026425
0.010259171
0.010253719
0.0102479
0.010241718
0.010235169
0.010228239
0.010220901
0.010213117
0.01020485
0.010196066
0.010186729
0.01017679
0.010166186
0.010154832
0.010142619
0.010129395
0.010114973
0.010099171
0.010081908
0.010063151
0.010043123
0.010027094
0.010015072
0.010006395
0.010000465
0.0099967768
0.009994702
0.0099936261
0.0099937219
0.0099961292
0.009996252
0.018944204
0.019490306
0.012554964
0.011500116
0.010845933
0.010624552
0.010411904
0.010323674
0.010251614
0.01021022
0.010182445
0.010166084
0.010157644
0.010155157
0.010157113
0.010162368
0.010170075
0.010179582
0.010190349
0.01020192
0.010213918
0.010226017
0.010237943
0.010249454
0.010260355
0.010270484
0.010279722
0.010287983
0.010295211
0.010301377
0.010306479
0.010310533
0.010313574
0.010315643
0.010316793
0.01031708
0.010316571
0.01031533
0.010313425
0.010310922
0.010307879
0.010304356
0.010300401
0.010296056
0.010291358
0.010286331
0.010280991
0.010275346
0.010269393
0.010263126
0.010256538
0.010249629
0.010242397
0.010234838
0.010226938
0.010218671
0.010209999
0.010200877
0.010191267
0.010181131
0.010170424
0.010159086
0.010147033
0.010134164
0.010120349
0.010105424
0.010089199
0.010071571
0.010052871
0.010034179
0.010020054
0.01000952
0.010002041
0.0099971224
0.0099942279
0.0099926273
0.009991842
0.00999237
0.0099951403
0.0099956688
0.018039502
0.018644813
0.012238123
0.01133999
0.010758522
0.010568007
0.010384465
0.010309183
0.010250409
0.010217814
0.0101979
0.010188071
0.010185269
0.010187643
0.010193791
0.010202633
0.010213352
0.01022531
0.010237983
0.010250925
0.01026377
0.010276208
0.010287996
0.010298927
0.010308851
0.010317655
0.01032527
0.010331666
0.010336841
0.010340819
0.010343641
0.010345367
0.010346067
0.010345813
0.010344682
0.01034275
0.010340093
0.010336786
0.010332901
0.010328505
0.010323658
0.010318416
0.010312827
0.010306931
0.010300761
0.010294339
0.010287678
0.010280783
0.010273647
0.010266259
0.010258606
0.010250675
0.010242461
0.010233956
0.010225145
0.010216005
0.010206497
0.010196575
0.010186194
0.010175312
0.010163886
0.010151862
0.010139161
0.010125688
0.010111325
0.010095938
0.01007938
0.010061509
0.010042654
0.010026436
0.010014022
0.010004825
0.0099983921
0.0099943601
0.0099922156
0.0099910751
0.0099904695
0.0099913973
0.0099948312
0.0099965184
0.017221673
0.017287938
0.011958668
0.01120119
0.010687825
0.010525329
0.0103698
0.010307053
0.010261129
0.01023746
0.010225363
0.010222047
0.010224789
0.010231848
0.010241903
0.010253927
0.010267125
0.010280877
0.010294677
0.010308106
0.010320836
0.010332605
0.010343225
0.010352562
0.010360532
0.010367099
0.010372263
0.010376059
0.010378546
0.010379799
0.010379904
0.010378956
0.010377051
0.010374284
0.010370745
0.010366518
0.010361684
0.010356318
0.010350488
0.010344255
0.010337676
0.0103308
0.010323668
0.010316314
0.010308766
0.010301042
0.010293153
0.010285097
0.010276866
0.010268444
0.010259809
0.010250942
0.010241827
0.010232451
0.010222799
0.010212851
0.01020257
0.010191911
0.010180819
0.01016925
0.01015716
0.010144503
0.010131207
0.010117183
0.010102324
0.010086503
0.010069636
0.010051859
0.010033846
0.010019767
0.01000895
0.010000961
0.0099954395
0.0099921537
0.0099906819
0.0099900349
0.0099895683
0.0099909409
0.009994987
0.0099974861
0.016486588
0.016424466
0.011722719
0.011084116
0.01063474
0.010497912
0.010369407
0.010318965
0.01028547
0.010270792
0.010266386
0.010269413
0.010277399
0.010288694
0.01030204
0.010316459
0.010331185
0.010345639
0.010359369
0.010372024
0.010383357
0.010393198
0.010401454
0.01040809
0.010413116
0.01041658
0.010418561
0.010419158
0.010418481
0.010416648
0.010413778
0.010409984
0.010405378
0.010400061
0.010394126
0.010387657
0.010380728
0.010373406
0.010365749
0.010357809
0.010349632
0.010341256
0.010332715
0.010324035
0.010315234
0.010306328
0.010297321
0.01028821
0.010278984
0.010269623
0.0102601
0.010250388
0.010240463
0.010230302
0.010219889
0.010209204
0.010198217
0.010186883
0.010175148
0.010162957
0.010150263
0.010137026
0.010123186
0.010108659
0.010093352
0.01007717
0.010060018
0.010042207
0.010026372
0.010014111
0.010004746
0.0099978585
0.0099931582
0.0099904924
0.0099895426
0.0099894189
0.0099891976
0.0099908878
0.0099951085
0.0099981675
0.015826365
0.015422257
0.011521235
0.010989286
0.010600219
0.010487454
0.010384928
0.010346827
0.01032535
0.010319592
0.01032256
0.010331447
0.010343967
0.010358553
0.010374022
0.010389469
0.010404216
0.010417779
0.010429828
0.010440139
0.010448597
0.010455165
0.010459873
0.010462796
0.010464043
0.010463743
0.010462037
0.010459073
0.010454995
0.010449944
0.010444049
0.010437431
0.010430197
0.010422445
0.010414258
0.010405708
0.010396857
0.010387757
0.010378456
0.01036899
0.010359391
0.010349688
0.010339901
0.010330047
0.010320139
0.010310184
0.010300183
0.01029013
0.010280014
0.010269811
0.010259495
0.010249032
0.010238388
0.010227535
0.010216447
0.010205102
0.010193476
0.010181533
0.010169219
0.010156474
0.010143242
0.010129479
0.010115142
0.010100155
0.010084429
0.010067934
0.010050801
0.010033595
0.010020007
0.010009367
0.010001295
0.00999541
0.0099914801
0.0099893872
0.0099887415
0.0099889548
0.0099890856
0.0099911472
0.0099953499
0.0099987344
0.015235332
0.0147422
0.011356629
0.010917382
0.010585311
0.010496157
0.010418553
0.010392998
0.010383003
0.01038571
0.010395218
0.010408817
0.010424412
0.010440559
0.010456223
0.010470666
0.010483386
0.010494082
0.010502613
0.010508939
0.010513107
0.010515226
0.010515445
0.01051394
0.010510893
0.010506489
0.010500906
0.010494311
0.010486859
0.01047869
0.010469926
0.010460675
0.010451032
0.010441076
0.010430875
0.010420483
0.010409947
0.010399302
0.010388577
0.010377796
0.010366977
0.010356134
0.010345279
0.010334417
0.010323554
0.01031269
0.010301822
0.010290944
0.010280041
0.010269092
0.010258071
0.010246943
0.010235671
0.010224215
0.010212541
0.01020062
0.010188429
0.010175937
0.010163105
0.010149872
0.010136171
0.010121942
0.010107146
0.010091745
0.010075665
0.010058846
0.010041673
0.010026481
0.010014624
0.010005423
0.0099984813
0.0099934918
0.0099902796
0.0099887318
0.0099883152
0.0099886982
0.0099892608
0.0099915136
0.0099956929
0.0099992279
0.014707837
0.013989669
0.011225553
0.010871038
0.010591869
0.010527367
0.010473336
0.010460196
0.010460527
0.010470303
0.010484476
0.010500555
0.010516724
0.010531801
0.010545028
0.010555954
0.010564353
0.010570173
0.010573496
0.010574473
0.010573306
0.01057022
0.010565453
0.010559234
0.010551785
0.010543306
0.010533978
0.010523961
0.010513394
0.010502398
0.010491074
0.010479508
0.010467771
0.01045592
0.010444
0.01043205
0.010420095
0.010408155
0.010396243
0.010384369
0.010372536
0.010360747
0.010349002
0.010337299
0.010325634
0.010314001
0.010302394
0.010290802
0.010279213
0.010267608
0.010255963
0.010244246
0.010232421
0.010220443
0.010208271
0.010195863
0.010183187
0.010170215
0.010156917
0.010143248
0.010129144
0.010114521
0.010099314
0.010083507
0.010067141
0.01005033
0.010033615
0.010020506
0.010010146
0.010002177
0.0099962109
0.009992
0.0099894222
0.0099883194
0.009988172
0.0099886621
0.0099894793
0.0099919252
0.0099961052
0.0099995982
0.014243545
0.013407348
0.011132685
0.010854959
0.010623796
0.010585147
0.01055239
0.010550268
0.01055838
0.010572288
0.010587821
0.010602918
0.010616232
0.010627016
0.01063492
0.010639857
0.010641915
0.010641294
0.010638268
0.010633131
0.010626183
0.010617708
0.010607971
0.010597212
0.010585639
0.010573436
0.010560757
0.010547734
0.010534474
0.010521066
0.010507584
0.010494086
0.010480615
0.010467207
0.010453885
0.010440668
0.010427564
0.010414578
0.01040171
0.010388956
0.010376308
0.010363758
0.010351296
0.01033891
0.010326591
0.010314326
0.010302103
0.01028991
0.010277733
0.010265556
0.01025336
0.010241118
0.010228799
0.010216363
0.010203764
0.010190952
0.01017788
0.010164509
0.010150805
0.01013674
0.010122268
0.010107321
0.010091807
0.010075653
0.010058908
0.010042049
0.010027167
0.010015544
0.010006476
0.0099995489
0.0099944166
0.00999086
0.0099887783
0.0099880215
0.0099881847
0.0099887785
0.0099898456
0.0099924285
0.0099964443
0.0099996802
0.013847858
0.012944961
0.011080507
0.010874245
0.01070576
0.010672543
0.010656781
0.01066202
0.010673403
0.010686816
0.01069918
0.0107091
0.010715882
0.010719315
0.010719485
0.01071665
0.01071115
0.010703359
0.010693651
0.010682377
0.010669854
0.010656357
0.010642125
0.010627359
0.010612227
0.010596867
0.010581392
0.010565892
0.010550438
0.010535085
0.010519875
0.010504838
0.010489996
0.01047536
0.010460938
0.010446728
0.010432726
0.010418925
0.010405311
0.010391871
0.010378589
0.010365446
0.010352424
0.010339505
0.010326671
0.010313904
0.010301186
0.010288503
0.010275837
0.010263174
0.010250497
0.010237788
0.010225021
0.010212168
0.010199187
0.010186031
0.010172642
0.010158961
0.010144937
0.010130529
0.010115706
0.010100438
0.010084684
0.010068403
0.010051648
0.010035043
0.010021955
0.010011556
0.010003531
0.0099974627
0.0099930347
0.0099900402
0.0099883689
0.0099878303
0.0099881377
0.0099888728
0.0099902334
0.0099930205
0.0099968798
0.0099998104
0.013529991
0.012572766
0.011073121
0.010928932
0.010807799
0.010788814
0.010782812
0.01078925
0.010797727
0.010805098
0.010809524
0.010810427
0.010807771
0.010801826
0.010793005
0.010781769
0.010768574
0.010753835
0.010737921
0.010721146
0.010703774
0.01068602
0.010668059
0.010650031
0.010632044
0.010614185
0.01059652
0.010579096
0.01056195
0.010545104
0.010528574
0.010512366
0.01049648
0.010480913
0.010465656
0.010450694
0.010436013
0.010421595
0.010407418
0.01039346
0.010379699
0.010366109
0.010352667
0.010339347
0.010326125
0.010312978
0.010299884
0.010286822
0.010273771
0.010260716
0.010247639
0.010234525
0.010221356
0.010208114
0.01019477
0.010181289
0.010167617
0.010153691
0.010139439
0.010124793
0.010109698
0.01009412
0.010078055
0.010061561
0.010044948
0.010029698
0.010017844
0.010008469
0.010001258
0.0099958589
0.0099919893
0.0099894545
0.0099881355
0.0099877486
0.0099880973
0.009988859
0.009990392
0.00999337
0.0099972519
0.0099999644
0.013306752
0.012302683
0.011113393
0.011025511
0.010940118
0.010925453
0.010920346
0.010920635
0.010919857
0.010916247
0.010909155
0.01089871
0.010885339
0.010869565
0.010851913
0.010832859
0.010812812
0.010792114
0.010771042
0.010749813
0.0107286
0.010707535
0.010686716
0.010666218
0.010646092
0.010626374
0.01060709
0.01058825
0.010569862
0.010551923
0.010534425
0.010517359
0.010500708
0.010484457
0.010468584
0.010453068
0.010437886
0.010423011
0.010408417
0.010394077
0.010379964
0.010366048
0.0103523
0.010338691
0.010325193
0.010311777
0.010298417
0.010285088
0.010271763
0.010258422
0.010245044
0.010231612
0.01021811
0.010204524
0.010190837
0.010177025
0.010163054
0.010148873
0.010134416
0.010119608
0.010104376
0.010088658
0.010072425
0.010055776
0.010039299
0.010025636
0.010014746
0.010006199
0.0099996245
0.0099947272
0.0099912693
0.0099890816
0.0099880147
0.0099877151
0.0099881207
0.009988911
0.0099904636
0.0099933361
0.0099970921
0.0099998148
0.013178198
0.012133505
0.011206517
0.011152904
0.011087489
0.01106899
0.011055026
0.011042494
0.0110278
0.011010449
0.010990569
0.010968627
0.010945153
0.010920639
0.010895501
0.010870077
0.010844628
0.010819356
0.010794409
0.010769895
0.010745889
0.010722442
0.010699586
0.010677338
0.010655704
0.01063468
0.010614259
0.010594426
0.010575163
0.010556451
0.010538268
0.01052059
0.010503391
0.010486645
0.010470326
0.010454405
0.010438852
0.01042364
0.010408738
0.010394115
0.010379741
0.010365586
0.010351617
0.010337804
0.010324116
0.010310521
0.010296989
0.010283491
0.010269998
0.010256483
0.01024292
0.010229287
0.010215562
0.010201728
0.010187767
0.010173659
0.010159381
0.010144898
0.010130166
0.010115135
0.01009975
0.010083965
0.010067758
0.010051234
0.010035083
0.010022571
0.010012491
0.010004617
0.0099985655
0.0099940695
0.0099909157
0.009988948
0.0099880253
0.0099877924
0.0099882105
0.009989087
0.0099907134
0.0099934588
0.0099969535
0.0099996111
0.013111435
0.012061105
0.011363612
0.011294599
0.011233413
0.01120069
0.011171009
0.01114213
0.011112351
0.01108168
0.011050379
0.011018814
0.010987309
0.010956128
0.010925468
0.010895469
0.010866224
0.010837791
0.010810203
0.010783473
0.010757597
0.010732565
0.010708356
0.010684947
0.010662309
0.010640414
0.010619229
0.010598724
0.010578865
0.010559622
0.01054096
0.01052285
0.010505258
0.010488153
0.010471503
0.010455278
0.010439445
0.010423973
0.01040883
0.010393985
0.010379407
0.010365063
0.010350922
0.010336953
0.010323124
0.010309403
0.010295759
0.010282162
0.010268581
0.010254985
0.010241345
0.010227633
0.010213823
0.010199887
0.010185799
0.010171534
0.010157058
0.010142337
0.01012733
0.010111998
0.010096312
0.010080256
0.010063872
0.01004743
0.010032201
0.01002038
0.010010914
0.010003544
0.0099979107
0.0099937497
0.0099908513
0.0099890573
0.0099882266
0.0099880674
0.0099884985
0.0099894166
0.0099909606
0.0099933218
0.0099963082
0.0099990541
0.013119074
0.012019893
0.011517934
0.011426806
0.011354148
0.011303007
0.011256241
0.011212346
0.011170019
0.011129072
0.011089448
0.011051169
0.011014251
0.010978698
0.010944492
0.010911603
0.010879989
0.010849604
0.010820396
0.010792311
0.010765296
0.010739297
0.010714263
0.010690141
0.010666885
0.010644446
0.010622781
0.010601846
0.010581601
0.010562005
0.010543021
0.010524612
0.010506742
0.010489377
0.010472483
0.010456027
0.010439975
0.010424296
0.010408958
0.010393928
0.010379176
0.01036467
0.010350379
0.010336273
0.01032232
0.010308492
0.010294756
0.010281085
0.010267447
0.010253813
0.010240154
0.010226442
0.010212648
0.010198742
0.010184693
0.010170465
0.010156017
0.010141301
0.010126265
0.010110859
0.010095042
0.010078795
0.010062182
0.010045604
0.010030862
0.010019344
0.010010153
0.010003015
0.0099975903
0.0099936219
0.0099908932
0.0099892222
0.0099884395
0.0099883744
0.0099888765
0.0099898899
0.0099914595
0.0099936524
0.0099963128
0.009998909
0.013210262
0.012044401
0.011633594
0.011522968
0.011434934
0.011367907
0.011308266
0.01125407
0.011203679
0.011156436
0.011111892
0.011069753
0.011029787
0.010991809
0.010955661
0.010921202
0.01088831
0.010856876
0.010826798
0.010797986
0.010770357
0.010743836
0.010718352
0.010693839
0.010670239
0.010647495
0.010625554
0.010604367
0.01058389
0.010564078
0.01054489
0.010526288
0.010508233
0.010490689
0.010473621
0.010456995
0.010440777
0.010424936
0.010409438
0.010394252
0.010379348
0.010364694
0.010350261
0.010336018
0.010321936
0.010307986
0.010294139
0.010280368
0.010266644
0.010252941
0.010239231
0.01022549
0.01021169
0.010197805
0.010183808
0.010169664
0.010155334
0.010140773
0.01012593
0.010110758
0.010095216
0.01007928
0.010062989
0.010046634
0.010031593
0.010019944
0.010010628
0.010003397
0.0099979039
0.0099938909
0.009991132
0.0099894324
0.009988635
0.009988555
0.0099890969
0.0099901525
0.0099916963
0.009993694
0.0099960773
0.0099986899
0.013334878
0.012100857
0.011694047
0.011571536
0.011473287
0.011397964
0.011332247
0.011273562
0.011219847
0.011170114
0.011123684
0.011080098
0.01103901
0.011000149
0.010963297
0.010928269
0.010894911
0.010863085
0.010832676
0.010803577
0.010775695
0.010748947
0.010723255
0.01069855
0.010674768
0.010651851
0.010629743
0.010608393
0.010587755
0.010567784
0.010548438
0.010529677
0.010511462
0.010493757
0.010476528
0.010459738
0.010443356
0.010427347
0.010411681
0.010396326
0.010381251
0.010366424
0.010351817
0.0103374
0.010323143
0.010309017
0.010294994
0.010281047
0.010267147
0.010253269
0.010239385
0.01022547
0.010211499
0.010197445
0.010183282
0.010168976
0.010154489
0.010139776
0.010124788
0.01010948
0.010093813
0.010077774
0.010061429
0.010045174
0.01003081
0.010019512
0.010010466
0.0100034
0.009998003
0.0099940405
0.0099913047
0.0099896057
0.009988781
0.0099885644
0.0099892736
0.0099903054
0.009991826
0.0099936863
0.0099958976
0.0099985218
66.093362
360.44727
121.11023
14.582694
0.40248726
0.021392577
0.02010345
0.01979967
0.019541839
0.018490449
0.017156218
0.015969413
0.015068585
0.014497024
0.014090941
0.013705926
0.013330933
0.012998483
0.012719448
0.012486045
0.012287671
0.012116625
0.011967731
0.011837174
0.011721907
0.01161945
0.011527818
0.01144542
0.011371003
0.01130358
0.011242332
0.011186545
0.011135599
0.01108897
0.011046244
0.011007089
0.010971219
0.010938381
0.010908341
0.010880891
0.010855848
0.010833032
0.010812266
0.010793382
0.010776217
0.01076061
0.010746395
0.010733419
0.010721544
0.010710654
0.010700634
0.010691375
0.010682763