/*--------------------------------*- C++ -*----------------------------------*\
  =========                 |
  \\      /  F ield         | OpenFOAM: The Open Source CFD Toolbox
   \\    /   O peration     | Website:  https://openfoam.org
    \\  /    A nd           | Version:  12
     \\/     M anipulation  |
\*---------------------------------------------------------------------------*/
FoamFile
{
    format      ascii;
    class       volScalarField;
    location    "0.126";
    object      Ma;
}
// * * * * * * * * * * * * * * * * * * * * * * * * * * * * * * * * * * * * * //

dimensions      [];

internalField   nonuniform List<scalar> 
16000
(
0.62403958
0.74110183
0.69648228
0.72087751
0.70595331
0.71281396
0.70715419
0.70864917
0.70601885
0.70556925
0.70395209
0.70281879
0.70140812
0.70003121
0.6985725
0.69706759
0.69550532
0.69388727
0.69221222
0.69047973
0.6886894
0.68684111
0.68493497
0.68297136
0.68095099
0.6788749
0.67674447
0.6745615
0.67232815
0.67004703
0.66772115
0.66535397
0.66294936
0.66051159
0.65804535
0.65555569
0.65304799
0.65052789
0.64800131
0.6454743
0.64295305
0.64044376
0.63795262
0.63548568
0.63304884
0.63064771
0.6282876
0.62597342
0.62370965
0.6215003
0.61934888
0.61725834
0.61523114
0.61326916
0.61137379
0.60954589
0.60778581
0.60609348
0.6044683
0.60290902
0.60141374
0.5999801
0.59860518
0.59728525
0.59601595
0.59479251
0.59361011
0.59246417
0.59135036
0.59026392
0.58919844
0.58814489
0.5870923
0.58603086
0.58495501
0.58386506
0.58267667
0.58177542
0.57989197
0.57994603
0.62849348
0.7462998
0.69999264
0.72550467
0.70976055
0.71708435
0.71098032
0.71259461
0.70978289
0.70926215
0.70755799
0.70630989
0.70480836
0.70331787
0.70175106
0.70013009
0.69844913
0.69670812
0.69490645
0.69304373
0.69111984
0.68913494
0.68708946
0.68498421
0.68282033
0.68059938
0.6783233
0.67599449
0.67361578
0.67119045
0.66872225
0.6662154
0.66367451
0.66110467
0.65851132
0.65590025
0.65327755
0.65064954
0.64802272
0.64540366
0.64279896
0.64021512
0.63765853
0.63513531
0.63265128
0.63021189
0.62782214
0.62548655
0.6232091
0.62099322
0.61884175
0.61675698
0.61474062
0.61279383
0.61091726
0.60911107
0.60737494
0.60570814
0.60410953
0.60257739
0.6011094
0.59970283
0.59835447
0.59706038
0.595816
0.59461631
0.59345617
0.59233071
0.59123537
0.59016543
0.58911475
0.58807449
0.58703362
0.58598204
0.58491222
0.58381357
0.58269396
0.58160307
0.58011997
0.57965418
0.63266998
0.75106978
0.70346131
0.72955445
0.71335602
0.72078137
0.7145186
0.71602212
0.71315501
0.71247802
0.7107056
0.70932
0.70771437
0.70609742
0.70440644
0.70265488
0.70083947
0.69895988
0.69701575
0.69500703
0.69293392
0.69079699
0.68859714
0.68633567
0.6840143
0.68163521
0.67920102
0.67671487
0.67418038
0.67160167
0.66898338
0.66633059
0.66364889
0.66094424
0.65822299
0.6554918
0.65275755
0.65002729
0.64730811
0.64460711
0.64193124
0.63928725
0.63668159
0.63412032
0.63160904
0.62915282
0.62675615
0.62442295
0.62215646
0.61995932
0.61783352
0.61578043
0.61380085
0.61189504
0.61006275
0.60830328
0.60661553
0.60499802
0.60344892
0.601966
0.60054643
0.59918706
0.59788437
0.59663416
0.59543168
0.59427172
0.59314891
0.59205813
0.59099463
0.58995368
0.58892941
0.5879134
0.58689486
0.58586289
0.58480807
0.5837255
0.58262956
0.58147395
0.58017672
0.57943719
0.63648818
0.75543034
0.70651624
0.73309767
0.71649435
0.72402683
0.71759997
0.71897352
0.71604313
0.71519071
0.71333612
0.71179719
0.71006967
0.7083103
0.70647781
0.70457899
0.70261252
0.70057806
0.69847562
0.69630549
0.6940683
0.69176507
0.68939725
0.68696673
0.68447593
0.68192777
0.6793257
0.67667377
0.67397656
0.67123922
0.66846743
0.66566735
0.66284564
0.6600093
0.65716567
0.65432233
0.65148697
0.64866734
0.64587108
0.64310568
0.64037831
0.63769576
0.63506432
0.63248974
0.62997713
0.62753092
0.62515484
0.62285189
0.62062437
0.61847387
0.61640129
0.61440694
0.61249054
0.61065128
0.60888793
0.60719887
0.60558212
0.60403543
0.6025563
0.60114192
0.599789
0.598494
0.5972531
0.5960619
0.59491548
0.5938085
0.59273542
0.59169088
0.59066999
0.58966802
0.58867941
0.58769632
0.58670825
0.58570328
0.58467168
0.58361376
0.58253228
0.58137038
0.58018671
0.57925084
0.63993432
0.75931014
0.7093015
0.73601918
0.71902412
0.72671612
0.72017231
0.72135745
0.71838123
0.71731954
0.71537205
0.71366211
0.71179422
0.70987683
0.70788588
0.70582377
0.70369021
0.70148505
0.69920856
0.69686144
0.69444479
0.69196021
0.68940982
0.68679632
0.684123
0.68139378
0.67861322
0.67578652
0.67291948
0.67001851
0.66709058
0.66414313
0.66118403
0.65822146
0.65526383
0.65231964
0.64939737
0.64650535
0.64365165
0.64084393
0.63808933
0.63539441
0.63276501
0.63020623
0.62772235
0.62531685
0.62299237
0.62075072
0.61859294
0.61651936
0.6145296
0.61262271
0.61079718
0.60905108
0.6073821
0.60578763
0.60426483
0.60281068
0.601422
0.60009543
0.59882727
0.59761364
0.59645044
0.59533315
0.59425674
0.5932158
0.59220469
0.59121792
0.59025043
0.58929752
0.58835399
0.58741269
0.58646339
0.58549358
0.58449433
0.58346703
0.58240349
0.58126507
0.5801467
0.5790826
0.64296097
0.7626284
0.71163524
0.73849008
0.72122215
0.72877142
0.72209828
0.72309647
0.7200768
0.71879245
0.71673984
0.71484795
0.71282373
0.71073533
0.70857065
0.70632972
0.70401271
0.70161984
0.69915185
0.69661004
0.69399625
0.69131296
0.68856329
0.68575108
0.68288086
0.67995789
0.67698815
0.67397832
0.67093575
0.66786837
0.66478466
0.66169351
0.65860413
0.65552593
0.65246835
0.64944076
0.64645225
0.64351154
0.6406268
0.63780556
0.63505457
0.63237974
0.62978605
0.62727754
0.62485729
0.6225274
0.62028909
0.61814267
0.61608768
0.61412294
0.61224664
0.61045642
0.6087495
0.60712276
0.6055728
0.60409606
0.60268886
0.60134747
0.60006811
0.59884695
0.59767994
0.59656293
0.59549168
0.59446156
0.59346756
0.59250426
0.59156603
0.59064728
0.58974285
0.58884808
0.58795814
0.58706662
0.58616363
0.58523669
0.58427779
0.58328618
0.58224756
0.5811482
0.58008068
0.57891858
0.6455389
0.76536789
0.71352418
0.74047229
0.7229576
0.73017358
0.72353407
0.72415683
0.72115144
0.71958842
0.71741641
0.71533157
0.71313123
0.71085348
0.70849383
0.70605184
0.70352823
0.70092402
0.6982408
0.69548088
0.69264723
0.68974361
0.68677456
0.68374543
0.68066239
0.67753243
0.67436333
0.67116357
0.66794232
0.66470928
0.66147462
0.65824877
0.65504232
0.65186582
0.64872963
0.64564369
0.64261743
0.63965954
0.6367779
0.63397939
0.63126987
0.62865409
0.62613567
0.62371709
0.62139977
0.61918407
0.61706939
0.61505431
0.6131366
0.61131344
0.60958145
0.60793687
0.60637559
0.60489334
0.60348571
0.60214828
0.60087661
0.59966639
0.59851334
0.59741327
0.59636192
0.59535499
0.59438815
0.59345682
0.59255606
0.59168056
0.59082476
0.58998309
0.58915034
0.58832185
0.58749323
0.58665871
0.58580896
0.58493221
0.58402093
0.58307014
0.58206378
0.58101411
0.579992
0.5787575
0.64770932
0.76755864
0.71500796
0.74199405
0.72428915
0.73114332
0.72448259
0.72497395
0.72156891
0.71972942
0.7174025
0.71509871
0.7126882
0.71018954
0.70760241
0.70492707
0.70216502
0.69931836
0.69638988
0.69338324
0.69030294
0.68715443
0.68394406
0.68067916
0.67736793
0.67401951
0.67064381
0.66725148
0.66385373
0.66046221
0.65708883
0.65374556
0.6504442
0.64719622
0.6440125
0.64090319
0.63787747
0.63494346
0.63210809
0.62937698
0.62675443
0.62424342
0.62184561
0.61956141
0.61739011
0.61532995
0.61337827
0.61153161
0.60978591
0.60813662
0.6065788
0.60510731
0.60371683
0.60240205
0.60115769
0.59997861
0.59885982
0.59779654
0.5967842
0.59581839
0.59489474
0.59400896
0.59315677
0.59233373
0.59153507
0.5907557
0.58999023
0.58923318
0.58847932
0.58772408
0.58696339
0.58619209
0.58540166
0.58458169
0.58372443
0.58281934
0.5818524
0.58086077
0.57988224
0.578595
0.64953806
0.76922759
0.71604451
0.74305305
0.72497312
0.73118272
0.72461427
0.72431584
0.72128429
0.71916235
0.71663175
0.71407331
0.71141099
0.7086525
0.70579931
0.7028529
0.69981581
0.69669155
0.6934845
0.69020015
0.68684501
0.68342671
0.67995396
0.67643655
0.67288525
0.66931173
0.66572846
0.66214847
0.6585852
0.65505229
0.65156328
0.64813141
0.64476936
0.64148899
0.63830113
0.63521537
0.63223995
0.62938158
0.6266454
0.62403498
0.62155231
0.61919789
0.61697083
0.61486899
0.61288912
0.61102706
0.60927789
0.60763609
0.60609572
0.60465058
0.60329431
0.60202052
0.60082291
0.59969534
0.59863188
0.59762688
0.596675
0.59577124
0.59491087
0.59408947
0.59330274
0.5925465
0.59181668
0.59110906
0.59041919
0.58974226
0.58907316
0.58840658
0.58773735
0.58706099
0.58637365
0.58567066
0.58494468
0.58418718
0.58338939
0.58253452
0.58161384
0.58068614
0.57974963
0.57842988
0.65102368
0.77034929
0.71656156
0.74345469
0.7249432
0.73068593
0.72414949
0.72347088
0.72023978
0.71776833
0.71498475
0.7121345
0.70917735
0.70611703
0.70295607
0.69969772
0.69634617
0.69290691
0.68938659
0.68579315
0.6821358
0.67842505
0.67467262
0.67089139
0.66709521
0.66329876
0.65951728
0.65576638
0.65206169
0.64841858
0.6448519
0.64137559
0.63800248
0.63474399
0.63160994
0.62860839
0.62574552
0.62302561
0.62045106
0.61802244
0.61573865
0.61359706
0.61159372
0.60972355
0.60798056
0.60635808
0.60484893
0.60344563
0.60214055
0.60092604
0.5997946
0.59873891
0.59775194
0.59682701
0.59595783
0.59513853
0.59436367
0.59362822
0.59292754
0.59225735
0.59161358
0.59099233
0.59038983
0.58980223
0.58922544
0.58865508
0.58808637
0.58751427
0.58693377
0.58634046
0.58573056
0.58509975
0.58444227
0.5837518
0.5830177
0.58221734
0.58135017
0.58049077
0.57959298
0.5782595
0.65210607
0.7708244
0.71648369
0.74235001
0.72414757
0.72935086
0.72290787
0.72163739
0.71827647
0.71543133
0.7123377
0.70915034
0.70584963
0.70243966
0.69892427
0.69530903
0.69160057
0.68780718
0.68393856
0.68000605
0.67602241
0.67200191
0.66796003
0.66391338
0.65987937
0.65587595
0.65192126
0.64803331
0.64422954
0.64052649
0.63693942
0.633482
0.63016602
0.62700118
0.62399493
0.62115241
0.61847648
0.61596779
0.61362493
0.61144463
0.60942202
0.60755088
0.60582388
0.60423292
0.60276927
0.60142392
0.60018768
0.59905142
0.59800616
0.59704323
0.59615432
0.59533159
0.59456765
0.59385565
0.59318923
0.59256259
0.59197045
0.591408
0.59087088
0.59035513
0.58985704
0.58937313
0.58890007
0.58843443
0.5879726
0.58751067
0.58704429
0.58656878
0.58607936
0.58557171
0.58504193
0.58448599
0.58389993
0.58327964
0.58261198
0.58187024
0.5810646
0.58027662
0.5794109
0.57808375
0.65269557
0.77048846
0.71569921
0.7405642
0.7227348
0.72710615
0.72073899
0.71886519
0.71527335
0.7120144
0.70854732
0.70496833
0.70126848
0.6974545
0.69353252
0.68951127
0.68540097
0.6812138
0.6769638
0.67266679
0.66834023
0.66400301
0.65967514
0.65537744
0.65113112
0.64695738
0.64287689
0.63890939
0.63507317
0.63138471
0.62785821
0.6245054
0.62133526
0.61835399
0.61556494
0.61296878
0.61056364
0.6083454
0.60630798
0.60444367
0.60274348
0.60119746
0.59979502
0.59852522
0.597377
0.59633941
0.59540175
0.59455374
0.59378559
0.59308808
0.59245262
0.59187125
0.59133664
0.59084211
0.5903816
0.58994965
0.58954136
0.58915237
0.58877878
0.58841709
0.5880641
0.58771684
0.58737249
0.58702815
0.58668073
0.58632685
0.58596267
0.58558393
0.58518621
0.58476524
0.58431686
0.58383728
0.58332443
0.58277585
0.5821758
0.58149664
0.58076095
0.58004542
0.57920118
0.57790898
0.65272909
0.76926646
0.71407092
0.73806444
0.72046318
0.72385091
0.7175192
0.71498843
0.7110832
0.70735972
0.70344736
0.69941083
0.69524689
0.69096647
0.68657961
0.68209972
0.67754217
0.67292468
0.66826704
0.66359089
0.65891941
0.65427691
0.64968839
0.64517901
0.64077347
0.63649551
0.63236724
0.62840859
0.62463684
0.6210662
0.61770754
0.61456824
0.61165221
0.60896002
0.6064891
0.60423415
0.60218747
0.6003394
0.59867881
0.59719342
0.59587031
0.59469615
0.59365761
0.59274153
0.59193517
0.59122635
0.59060354
0.59005597
0.58957365
0.58914739
0.58876879
0.58843024
0.58812487
0.58784652
0.5875897
0.58734953
0.58712175
0.5869026
0.58668877
0.58647736
0.58626574
0.58605156
0.58583255
0.58560638
0.58537057
0.58512225
0.58485814
0.58457453
0.5842674
0.58393254
0.58356548
0.58316271
0.58272374
0.58224677
0.58171393
0.58110104
0.58044309
0.57979935
0.57896912
0.57772861
0.65218699
0.76706165
0.71152733
0.73447875
0.7171881
0.71947255
0.71310023
0.70986163
0.70553296
0.70127405
0.6968318
0.69225775
0.68755387
0.68273701
0.67782346
0.67283335
0.66778919
0.66271598
0.65764075
0.65259212
0.64759977
0.64269381
0.63790406
0.6332593
0.62878646
0.6245099
0.62045074
0.61662628
0.61304967
0.60972971
0.60667081
0.60387322
0.60133334
0.59904417
0.59699582
0.59517609
0.59357099
0.59216535
0.59094322
0.58988841
0.58898474
0.58821644
0.58756831
0.58702593
0.58657578
0.58620529
0.58590289
0.58565804
0.58546116
0.58530363
0.58517774
0.58507663
0.58499423
0.58492518
0.58486481
0.58480902
0.58475432
0.58469767
0.58463648
0.58456851
0.58449176
0.58440452
0.58430512
0.58419185
0.58406277
0.58391563
0.58374771
0.58355589
0.58333663
0.58308579
0.58279872
0.58247228
0.58210687
0.58169993
0.5812326
0.58068918
0.58011542
0.57954072
0.57871933
0.57754871
0.65101175
0.76370499
0.70801362
0.72973012
0.71275291
0.71380332
0.70728314
0.7032692
0.69839027
0.69350156
0.68843
0.6832259
0.67789904
0.67247447
0.66697746
0.66143713
0.65588517
0.65035554
0.64488377
0.63950626
0.63425932
0.62917823
0.62429613
0.61964306
0.61524502
0.61112321
0.60729355
0.60376641
0.60054665
0.59763386
0.59502281
0.59270411
0.59066486
0.58888941
0.58736013
0.58605803
0.58496343
0.58405649
0.58331762
0.58272784
0.58226908
0.58192429
0.58167765
0.58151455
0.58142169
0.58138699
0.58139963
0.58144992
0.58152929
0.58163014
0.58174585
0.58187061
0.58199941
0.58212791
0.5822524
0.58236972
0.5824772
0.58257264
0.58265417
0.58272026
0.58276958
0.58280105
0.5828136
0.5828061
0.58277723
0.58272528
0.58264815
0.58254333
0.58240776
0.58223746
0.5820279
0.58177647
0.58148347
0.58114395
0.58073957
0.5802678
0.57978281
0.57927449
0.57846246
0.57737357
0.64914815
0.75895972
0.70356872
0.72362636
0.7069511
0.70661947
0.69980037
0.69491568
0.68933823
0.68370259
0.67789126
0.67196027
0.66593091
0.65983902
0.65372153
0.64761905
0.64157451
0.63563236
0.62983734
0.62423321
0.61886125
0.61375893
0.60895852
0.60448618
0.60036121
0.59659576
0.59319489
0.59015694
0.58747425
0.58513396
0.58311902
0.58140918
0.57998192
0.5788134
0.57787917
0.57715486
0.57661669
0.57624186
0.57600886
0.57589764
0.57588972
0.57596825
0.57611798
0.57632523
0.57657782
0.57686499
0.57717724
0.57750633
0.57784507
0.57818727
0.57852762
0.57886161
0.57918541
0.57949583
0.57979021
0.58006635
0.5803225
0.58055725
0.58076949
0.58095838
0.58112325
0.5812636
0.58137897
0.58146878
0.58153226
0.58156829
0.58157537
0.5815516
0.58149434
0.58139992
0.58126437
0.58108576
0.58086325
0.58058815
0.58024408
0.57984447
0.57944933
0.57900635
0.57821327
0.57719069
0.64653922
0.75244296
0.69809543
0.71590721
0.6994772
0.69757753
0.69026664
0.68438978
0.67795505
0.67144581
0.66478628
0.65804219
0.65125074
0.64446218
0.63772857
0.63110494
0.62464721
0.61841043
0.6124468
0.60680358
0.60152138
0.59663267
0.59216092
0.58812018
0.58451528
0.58134242
0.57859019
0.57624082
0.57427146
0.5726556
0.57136431
0.57036741
0.56963439
0.56913526
0.56884111
0.56872457
0.56876012
0.56892423
0.56919546
0.56955445
0.5699839
0.57046842
0.57099447
0.57155018
0.57212522
0.57271069
0.57329895
0.57388347
0.57445875
0.57502018
0.5755639
0.57608678
0.57658625
0.57706026
0.57750722
0.57792591
0.57831544
0.57867519
0.57900476
0.57930397
0.57957275
0.57981116
0.58001926
0.580197
0.58034413
0.58046009
0.58054397
0.58059442
0.58060918
0.58058506
0.5805191
0.58041013
0.58025532
0.58004195
0.57975674
0.57942836
0.57911819
0.5787358
0.57797011
0.57701299
0.64305368
0.74348741
0.6909732
0.70612313
0.68987647
0.68620361
0.67817803
0.67117634
0.66372778
0.65622165
0.64862081
0.64100592
0.63343659
0.62598287
0.61871561
0.61170538
0.6050192
0.59871771
0.59285259
0.58746456
0.58258222
0.57822158
0.57438643
0.57106942
0.56825349
0.56591374
0.56401926
0.56253502
0.56142355
0.56064643
0.56016548
0.55994368
0.55994591
0.56013935
0.5604938
0.56098179
0.56157861
0.56226222
0.56301314
0.56381427
0.56465071
0.56550957
0.56637979
0.56725192
0.56811795
0.56897118
0.56980599
0.57061779
0.57140284
0.57215812
0.57288129
0.57357053
0.57422452
0.57484232
0.57542334
0.57596726
0.57647402
0.57694371
0.5773766
0.57777307
0.57813363
0.5784588
0.57874911
0.57900496
0.57922659
0.57941398
0.57956677
0.57968406
0.57976398
0.57980402
0.57980245
0.57975869
0.57966771
0.57951387
0.57928834
0.57903061
0.57879497
0.57845978
0.57772645
0.57685979
0.63840581
0.73206577
0.68177534
0.69371288
0.6775704
0.67193793
0.66293539
0.6546583
0.64604448
0.63743516
0.62884045
0.6203646
0.61209625
0.6041282
0.596548
0.5894348
0.58285537
0.57686136
0.57148767
0.56675214
0.56265621
0.55918671
0.55631808
0.55401509
0.5522355
0.55093262
0.55005762
0.54956135
0.54939584
0.54951539
0.54987733
0.55044241
0.55117508
0.55204347
0.5530193
0.55407773
0.55519709
0.55635863
0.55754622
0.55874611
0.55994664
0.56113801
0.56231204
0.56346199
0.56458234
0.56566865
0.5667174
0.56772588
0.56869204
0.56961443
0.57049208
0.57132445
0.57211133
0.57285278
0.57354912
0.57420086
0.57480865
0.57537324
0.57589546
0.57637621
0.57681645
0.57721714
0.57757917
0.57790335
0.57819033
0.57844057
0.57865422
0.57883076
0.57896876
0.57906654
0.57912355
0.57913935
0.57910701
0.57901047
0.57884709
0.57866065
0.57848729
0.57818174
0.57748204
0.57673831
0.63223266
0.7192422
0.66994307
0.67809277
0.66184483
0.65406296
0.64377457
0.63405237
0.62415633
0.61441084
0.60488547
0.59571351
0.58700978
0.57887999
0.57141169
0.56467128
0.55870156
0.55352169
0.54912857
0.54549965
0.54259655
0.540369
0.53875874
0.5377031
0.53713795
0.53700017
0.53722935
0.53776904
0.53856748
0.53957796
0.54075884
0.54207344
0.54348978
0.54498018
0.54652089
0.54809168
0.54967545
0.55125782
0.55282682
0.55437257
0.55588697
0.55736349
0.55879691
0.56018318
0.56151917
0.56280263
0.56403198
0.56520624
0.56632491
0.56738793
0.56839557
0.56934837
0.57024712
0.57109277
0.57188641
0.57262924
0.57332254
0.57396761
0.57456578
0.57511839
0.57562677
0.57609222
0.57651596
0.57689909
0.57724264
0.57754746
0.5778141
0.57804239
0.57823147
0.57838061
0.57849011
0.578559
0.57857901
0.57853638
0.57843614
0.57832145
0.57820341
0.57791781
0.57725445
0.57664757
0.62420955
0.70243398
0.65464924
0.65838087
0.64166175
0.63152484
0.61966772
0.60839724
0.59724849
0.58654036
0.57639842
0.56697201
0.55837703
0.55070049
0.54399521
0.53828067
0.53354556
0.52975245
0.52684346
0.52474625
0.52337975
0.52265905
0.52249948
0.52281957
0.52354311
0.52460043
0.52592894
0.52747332
0.52918524
0.53102295
0.53295073
0.53493826
0.53695999
0.53899458
0.54102432
0.54303464
0.54501364
0.54695173
0.54884125
0.55067619
0.55245196
0.5541651
0.55581318
0.55739456
0.55890833
0.56035412
0.56173207
0.56304269
0.56428683
0.56546559
0.56658029
0.56763241
0.56862354
0.56955536
0.57042964
0.57124814
0.57201265
0.57272492
0.57338671
0.57399971
0.57456559
0.57508589
0.57556209
0.57599557
0.57638759
0.57673932
0.57705157
0.57732452
0.57755801
0.57775229
0.57790815
0.57802361
0.5780896
0.57809623
0.57805631
0.57801012
0.57794574
0.57768935
0.57707917
0.57657825
0.61369733
0.68068012
0.63450715
0.63316527
0.61555115
0.60293941
0.58944349
0.5767871
0.56475352
0.5536383
0.54358185
0.5347042
0.52707047
0.52069898
0.51556418
0.51160497
0.50873354
0.50684475
0.5058245
0.50555675
0.50592886
0.50683523
0.50817958
0.50987602
0.51184928
0.51403436
0.51637578
0.51882672
0.521348
0.52390711
0.52647729
0.52903668
0.53156759
0.53405581
0.53649009
0.53886163
0.54116368
0.54339118
0.5455405
0.54760914
0.54959561
0.55149919
0.5533198
0.55505792
0.55671445
0.55829064
0.55978801
0.56120834
0.56255354
0.56382568
0.56502692
0.56615947
0.5672256
0.56822757
0.56916766
0.5700481
0.57087109
0.57163875
0.57235318
0.57301637
0.57363021
0.57419652
0.57471694
0.57519307
0.57562637
0.57601817
0.57636942
0.57668065
0.5769524
0.57718585
0.57738198
0.57753789
0.57764451
0.57769622
0.57771113
0.57772424
0.5777082
0.57749673
0.57696786
0.57653262
0.59954504
0.65188046
0.60760305
0.60069258
0.58190369
0.56692834
0.55220719
0.53885736
0.52684242
0.51637781
0.50753542
0.50033215
0.49471793
0.49059371
0.48782494
0.48625662
0.48572599
0.48607253
0.48714506
0.48880603
0.49093364
0.49342236
0.49618229
0.49913796
0.50222673
0.50539715
0.50860736
0.51182355
0.51501871
0.51817141
0.52126487
0.52428612
0.52722528
0.53007503
0.5328301
0.53548693
0.53804328
0.54049806
0.54285102
0.54510265
0.547254
0.54930659
0.55126229
0.55312322
0.55489176
0.55657042
0.55816185
0.55966877
0.56109396
0.56244021
0.56371034
0.56490714
0.56603337
0.56709175
0.56808496
0.56901558
0.56988613
0.57069903
0.57145663
0.57216117
0.57281476
0.57341937
0.57397687
0.57448898
0.57495733
0.57538331
0.57576794
0.57611205
0.57641674
0.5766838
0.57691415
0.57710445
0.57724707
0.577341
0.57740664
0.57746964
0.57748945
0.57731658
0.57687679
0.57655403
0.57978896
0.61369196
0.57174391
0.55915844
0.53968704
0.52278191
0.50797733
0.49534828
0.48486147
0.47655958
0.47034537
0.46605968
0.46349211
0.46240949
0.46257486
0.46376256
0.46576727
0.46840868
0.47153266
0.47501024
0.47873532
0.48262184
0.48660076
0.49061732
0.4946285
0.49860081
0.50250852
0.50633209
0.51005695
0.51367251
0.51717129
0.52054832
0.52380061
0.5269267
0.52992637
0.53280034
0.53555007
0.5381776
0.54068541
0.5430763
0.54535332
0.54751968
0.54957875
0.55153393
0.5533887
0.55514652
0.55681087
0.5583852
0.5598729
0.56127734
0.5626018
0.56384949
0.56502355
0.56612704
0.5671629
0.56813401
0.56904311
0.56989284
0.57068576
0.57142428
0.57211069
0.57274714
0.57333563
0.57387807
0.57437616
0.57483136
0.57524477
0.57561743
0.57595084
0.57624684
0.57650593
0.5767248
0.57689843
0.57703073
0.57714274
0.57724963
0.57730028
0.57716495
0.57681603
0.57662089
0.55181747
0.56360974
0.52555234
0.50720432
0.48664162
0.47122842
0.45830184
0.44845974
0.44143779
0.43699388
0.43478283
0.43444251
0.43561659
0.43797993
0.44124907
0.44518584
0.44959547
0.45432209
0.45924298
0.46426292
0.46930894
0.47432575
0.479272
0.48411725
0.48883947
0.49342317
0.49785788
0.50213698
0.50625677
0.5102158
0.5140143
0.51765378
0.52113668
0.52446615
0.52764585
0.53067977
0.53357216
0.53632741
0.53895001
0.54144448
0.54381531
0.54606699
0.54820393
0.55023048
0.55215088
0.55396931
0.55568982
0.55731638
0.55885283
0.56030291
0.56167026
0.56295836
0.56417064
0.56531036
0.56638069
0.56738469
0.56832525
0.56920519
0.5700272
0.57079385
0.57150754
0.57217057
0.5727851
0.57335314
0.57387651
0.57435675
0.57479513
0.57519295
0.57555185
0.5758734
0.57615745
0.57640095
0.57660143
0.57676604
0.57691413
0.57705292
0.57713172
0.5770486
0.57680235
0.57668649
0.51152163
0.49905745
0.46196978
0.44414491
0.42678779
0.41463631
0.40636148
0.40174946
0.40014819
0.40097372
0.40365929
0.40771967
0.41275423
0.41844591
0.42455035
0.43088336
0.43730853
0.44372638
0.45006555
0.45627573
0.46232235
0.4681824
0.47384142
0.47929118
0.48452799
0.48955144
0.49436346
0.49896764
0.5033687
0.50757214
0.51158395
0.51541041
0.51905796
0.52253305
0.52584213
0.52899151
0.53198742
0.53483589
0.53754282
0.5401139
0.54255466
0.54487042
0.54706635
0.5491474
0.55111838
0.55298391
0.55474846
0.55641633
0.55799167
0.55947847
0.56088059
0.56220172
0.56344545
0.5646152
0.56571428
0.56674585
0.56771294
0.56861845
0.56946518
0.57025579
0.57099279
0.57167857
0.57231541
0.57290541
0.57345051
0.57395236
0.57441249
0.57483245
0.57521399
0.5755584
0.5758653
0.57613239
0.57635909
0.57655267
0.57672709
0.57688213
0.57697432
0.57693759
0.57681178
0.57680747
0.4500104
0.41756516
0.38796272
0.37317756
0.36238349
0.35760392
0.35704334
0.35978622
0.36484444
0.37146102
0.37905269
0.38719652
0.39559326
0.4040367
0.41238784
0.42055532
0.42848116
0.43613041
0.44348401
0.45053364
0.4572783
0.46372178
0.46987101
0.47573486
0.48132336
0.48664714
0.49171704
0.49654385
0.50113818
0.50551032
0.50967021
0.51362735
0.51739086
0.52096942
0.52437129
0.52760436
0.53067612
0.5335937
0.5363639
0.53899319
0.54148774
0.54385344
0.5460959
0.54822051
0.5502324
0.5521365
0.55393751
0.55563996
0.55724818
0.55876634
0.56019841
0.56154823
0.56281948
0.56401569
0.56514024
0.56619636
0.56718714
0.56811558
0.56898451
0.56979665
0.57055458
0.57126076
0.57191751
0.57252702
0.57309127
0.57361208
0.57409116
0.57453027
0.57493116
0.57529508
0.57562205
0.57591124
0.5761636
0.57638484
0.57658297
0.5767551
0.57687311
0.57689806
0.57684515
0.57684356
0.35462941
0.32125157
0.30369716
0.29923817
0.30061964
0.30686622
0.31600572
0.32677681
0.33830891
0.3500527
0.36167378
0.37297696
0.38385507
0.39425542
0.40415858
0.41356505
0.42248692
0.43094275
0.4389543
0.44654461
0.45373683
0.46055346
0.46701605
0.47314492
0.47895916
0.48447655
0.48971367
0.49468592
0.49940762
0.50389206
0.50815162
0.51219783
0.51604144
0.51969248
0.52316035
0.52645386
0.52958128
0.5325504
0.53536854
0.53804264
0.54057926
0.5429846
0.54526457
0.54742476
0.54947053
0.55140695
0.55323889
0.554971
0.5566077
0.55815325
0.55961173
0.56098702
0.56228286
0.56350284
0.56465038
0.56572877
0.56674112
0.56769047
0.56857969
0.56941152
0.57018859
0.57091337
0.57158822
0.57221534
0.57279678
0.57333442
0.57383006
0.57428549
0.57470235
0.57508185
0.57542452
0.57573081
0.57600244
0.57624348
0.57645784
0.57664213
0.57678019
0.57685475
0.57688499
0.57695814
0.21596144
0.21468807
0.22005882
0.23341656
0.25066625
0.26899001
0.28718774
0.30461159
0.32103357
0.33639015
0.35070663
0.36404334
0.37647392
0.38807353
0.39891379
0.40906061
0.41857362
0.42750622
0.43590606
0.44381561
0.45127269
0.45831106
0.46496094
0.47124939
0.47720076
0.48283702
0.48817806
0.49324191
0.49804501
0.50260238
0.50692778
0.51103388
0.51493234
0.51863397
0.52214878
0.52548611
0.52865465
0.53166254
0.53451741
0.53722644
0.53979639
0.54223365
0.54454426
0.54673393
0.54880813
0.55077201
0.55263052
0.55438836
0.55605003
0.55761981
0.55910181
0.56049997
0.56181805
0.56305965
0.56422824
0.56532712
0.56635942
0.56732818
0.56823631
0.56908658
0.56988162
0.57062393
0.57131589
0.57195971
0.57255748
0.57311116
0.57362258
0.57409349
0.57452539
0.57491953
0.575277
0.57559898
0.57588715
0.57614342
0.57636882
0.5765618
0.57671839
0.57683664
0.5769255
0.57700955
0.091684547
0.12149705
0.15880872
0.19235247
0.22238828
0.24882655
0.27228615
0.29323186
0.3120788
0.32915234
0.34471475
0.35897613
0.37210698
0.38424685
0.39551116
0.40599627
0.41578332
0.42494125
0.43352903
0.44159753
0.44919086
0.45634756
0.46310148
0.46948251
0.47551719
0.48122921
0.4866398
0.49176808
0.49663134
0.50124527
0.5056242
0.50978122
0.51372835
0.51747669
0.5210365
0.52441728
0.52762788
0.53067657
0.53357108
0.53631866
0.53892614
0.54139996
0.54374619
0.54597061
0.54807867
0.55007557
0.55196627
0.55375548
0.55544771
0.55704726
0.55855825
0.55998461
0.56133012
0.5625984
0.56379291
0.56491696
0.5659737
0.56696617
0.56789731
0.56876987
0.56958653
0.57034978
0.57106202
0.57172547
0.57234226
0.57291437
0.57344365
0.57393178
0.57438019
0.57479023
0.57516332
0.57550106
0.57580477
0.57607468
0.57631014
0.57651172
0.57668372
0.57683197
0.57695445
0.57703485
0.010779416
0.2967501
0.47042826
0.51795312
0.52760277
0.52812322
0.52781083
0.52893606
0.53042126
0.53190171
0.53337705
0.53481336
0.53622802
0.53762861
0.53902598
0.54042983
0.54184157
0.54326168
0.54468991
0.54612527
0.5475663
0.54901121
0.550458
0.55190456
0.5533487
0.55478824
0.55622101
0.55764485
0.55905768
0.56045746
0.5618422
0.56320995
0.56455882
0.56588692
0.56719242
0.56847349
0.56972831
0.57095507
0.57215198
0.57331723
0.574449
0.57554548
0.57660487
0.57762534
0.57860509
0.57954233
0.58043526
0.58128217
0.58208134
0.58283117
0.58353009
0.58417665
0.58476949
0.58530737
0.58578921
0.58621407
0.58658126
0.58689029
0.587141
0.58733327
0.58746683
0.58754179
0.58755845
0.58751704
0.58741656
0.58725765
0.58703597
0.5867604
0.5864123
0.58603591
0.58554559
0.58511231
0.58441979
0.58400998
0.58295357
0.58273958
0.58112827
0.58125617
0.57911684
0.57946124
0.064728674
0.38419663
0.52052476
0.54534292
0.54618213
0.54437774
0.54353215
0.54367667
0.54387856
0.54418174
0.54457166
0.54512715
0.54580225
0.54656743
0.54739457
0.54828053
0.54921871
0.5502046
0.5512328
0.55229817
0.55339596
0.55452173
0.55567128
0.55684062
0.55802598
0.55922375
0.56043048
0.56164288
0.56285777
0.56407212
0.56528298
0.5664875
0.56768294
0.56886661
0.57003592
0.5711883
0.57232129
0.57343242
0.57451932
0.57557963
0.57661103
0.57761125
0.57857805
0.57950923
0.58040263
0.58125615
0.58206774
0.58283544
0.58355735
0.58423169
0.58485678
0.58543108
0.58595317
0.58642178
0.58683583
0.58719441
0.5874969
0.5877429
0.58793234
0.58806521
0.58814134
0.58816101
0.58812465
0.58803253
0.58788388
0.58767913
0.58741477
0.58709823
0.58671407
0.58630052
0.58578334
0.58531255
0.58460448
0.58415529
0.58310227
0.58284074
0.58123766
0.58133339
0.5791652
0.57954619
0.14984242
0.46475653
0.54003476
0.55270176
0.55134282
0.55041863
0.55041205
0.55096731
0.55138117
0.55190263
0.55240476
0.55296815
0.55355214
0.55417785
0.55483679
0.5555335
0.55626415
0.557029
0.55782651
0.55865498
0.55951261
0.56039742
0.56130732
0.56224003
0.56319317
0.56416424
0.56515067
0.56614981
0.56715892
0.56817526
0.56919603
0.57021841
0.57123958
0.57225669
0.57326692
0.57426743
0.57525543
0.57622812
0.57718273
0.57811654
0.57902684
0.57991099
0.58076636
0.5815904
0.58238062
0.58313459
0.58384999
0.58452459
0.58515627
0.58574305
0.5862831
0.58677474
0.58721645
0.58760692
0.58794503
0.58822985
0.58846081
0.58863755
0.58876009
0.58882847
0.58884264
0.58880297
0.58871001
0.58856407
0.58836453
0.58811169
0.58780258
0.58744368
0.58702165
0.58657065
0.58602398
0.58551695
0.58478999
0.58430501
0.58324759
0.58294402
0.58134016
0.58140911
0.57921379
0.57962521
0.23190209
0.51156693
0.5536134
0.56105397
0.55840477
0.55863207
0.55869239
0.55928575
0.55955709
0.56000625
0.56037958
0.56083235
0.56128844
0.56177609
0.56228106
0.56281129
0.56336412
0.56394167
0.5645438
0.56517043
0.56582126
0.56649576
0.56719317
0.56791251
0.56865256
0.56941189
0.57018889
0.57098174
0.57178845
0.57260687
0.57343471
0.57426954
0.57510883
0.57594994
0.57679015
0.57762667
0.57845667
0.57927727
0.58008556
0.58087863
0.58165357
0.58240749
0.58313751
0.58384083
0.58451469
0.58515641
0.58576342
0.58633328
0.58686365
0.58735239
0.58779751
0.58819719