/*--------------------------------*- C++ -*----------------------------------*\
  =========                 |
  \\      /  F ield         | OpenFOAM: The Open Source CFD Toolbox
   \\    /   O peration     | Website:  https://openfoam.org
    \\  /    A nd           | Version:  12
     \\/     M anipulation  |
\*---------------------------------------------------------------------------*/
FoamFile
{
    format      ascii;
    class       volScalarField;
    location    "0.126";
    object      nut;
}
// * * * * * * * * * * * * * * * * * * * * * * * * * * * * * * * * * * * * * //

dimensions      [0 2 -1 0 0 0 0];

internalField   nonuniform List<scalar> 
16000
(
4.6664147e-07
9.885653e-06
1.8268171e-05
2.3746852e-05
1.831909e-05
2.5117812e-05
1.7753918e-05
2.4286088e-05
1.8950525e-05
2.6077691e-05
2.1957487e-05
2.5782682e-05
2.3507816e-05
2.4131731e-05
2.331517e-05
2.318148e-05
2.2938123e-05
2.2871453e-05
2.2882253e-05
2.2990721e-05
2.3189131e-05
2.3476916e-05
2.3851609e-05
2.4313199e-05
2.4863804e-05
2.5509294e-05
2.6257557e-05
2.7121224e-05
2.8115673e-05
2.9257446e-05
3.0564697e-05
3.2061563e-05
3.3779212e-05
3.5756062e-05
3.8039381e-05
4.0685559e-05
4.3761769e-05
4.7348122e-05
5.1543795e-05
5.6471689e-05
6.2276039e-05
6.9126757e-05
7.7238095e-05
8.6872505e-05
9.834235e-05
0.00011202236
0.00012837727
0.00014797354
0.00017150108
0.00019980096
0.0002339032
0.00027507255
0.00032485787
0.00038516147
0.00045832219
0.00054723062
0.00065547645
0.00078754154
0.00094904773
0.0010195256
0.0010194063
0.0010192692
0.0010190828
0.0010188226
0.0010184847
0.001018059
0.0010175298
0.0010168678
0.0010160202
0.0010148988
0.0010134067
0.0010115427
0.0010095974
0.0010080863
0.0010069066
0.0010060746
0.0010055666
0.0010057791
0.0010043645
0.0010049229
4.213294e-07
9.3890114e-06
1.9818408e-05
2.1512542e-05
1.6548383e-05
2.2572117e-05
1.578535e-05
2.1320634e-05
1.6770955e-05
2.3086639e-05
1.991227e-05
2.3287577e-05
2.1531336e-05
2.1899974e-05
2.12607e-05
2.1075659e-05
2.0872275e-05
2.0800685e-05
2.0812305e-05
2.0910944e-05
2.1093818e-05
2.1359996e-05
2.1707631e-05
2.2136787e-05
2.2649096e-05
2.3250054e-05
2.3946493e-05
2.47498e-05
2.5674527e-05
2.673681e-05
2.7953545e-05
2.9346786e-05
3.0945382e-05
3.2784916e-05
3.4909625e-05
3.7372558e-05
4.0237322e-05
4.3579234e-05
4.7490725e-05
5.2088218e-05
5.7510402e-05
6.3917333e-05
7.1510892e-05
8.0541462e-05
9.1309238e-05
0.00010417063
0.00011956923
0.00013804771
0.00016026859
0.00018704025
0.00021935307
0.00025842658
0.00030575648
0.00036318365
0.00043297376
0.00051792952
0.00062153479
0.00074813512
0.00090317244
0.0010187902
0.0010186806
0.0010185233
0.001018323
0.0010180491
0.0010176965
0.001017255
0.0010167088
0.0010160295
0.0010151685
0.0010140461
0.0010125715
0.0010107588
0.0010089151
0.0010074793
0.0010063619
0.0010055493
0.0010051245
0.0010051154
0.0010043601
0.0010050135
3.8105869e-07
9.0066132e-06
1.8773642e-05
1.9636155e-05
1.4838503e-05
1.9908245e-05
1.4074479e-05
1.856006e-05
1.5098443e-05
2.028401e-05
1.8176591e-05
2.0762051e-05
1.9527143e-05
1.9636229e-05
1.9144269e-05
1.8938241e-05
1.8767121e-05
1.8701077e-05
1.8715933e-05
1.8809448e-05
1.898016e-05
1.9227481e-05
1.9549894e-05
1.9947722e-05
2.042223e-05
2.097872e-05
2.1623299e-05
2.236628e-05
2.3221235e-05
2.4203893e-05
2.5330303e-05
2.6620872e-05
2.8102527e-05
2.98084e-05
3.1780038e-05
3.4067402e-05
3.6730939e-05
3.9842193e-05
4.348791e-05
4.7778006e-05
5.2846601e-05
5.8846136e-05
6.5967847e-05
7.4450794e-05
8.4585435e-05
9.671328e-05
0.00011126011
0.00012874854
0.00014981816
0.00017525065
0.00020600349
0.0002432587
0.0002884677
0.00034342046
0.00041032221
0.00049190263
0.0005915574
0.00071352515
0.00086310639
0.0010180978
0.0010179983
0.0010178153
0.0010175934
0.0010172988
0.0010169249
0.0010164607
0.0010158901
0.0010151845
0.0010142987
0.0010131644
0.0010117006
0.0010099287
0.0010082006
0.001006852
0.0010058031
0.0010050431
0.001004646
0.0010045531
0.0010043152
0.001004954
3.3763681e-07
8.7183531e-06
1.7840192e-05
1.8304409e-05
1.3360178e-05
1.7599445e-05
1.2558716e-05
1.6238708e-05
1.3606611e-05
1.789967e-05
1.6610954e-05
1.8521658e-05
1.7673556e-05
1.7592649e-05
1.7210403e-05
1.7003476e-05
1.6860545e-05
1.6804887e-05
1.6825551e-05
1.6917334e-05
1.7079339e-05
1.7311378e-05
1.761228e-05
1.7982752e-05
1.8423813e-05
1.8940712e-05
1.9539075e-05
2.0228374e-05
2.1021245e-05
2.1933092e-05
2.2979411e-05
2.417921e-05
2.5557861e-05
2.7146391e-05
2.8984071e-05
3.1118202e-05
3.3606496e-05
3.6517543e-05
3.9933565e-05
4.3958409e-05
4.8722681e-05
5.4373054e-05
6.1092201e-05
6.9109111e-05
7.8707215e-05
9.0216552e-05
0.0001040488
0.00012071097
0.00014082498
0.00016515298
0.00019462748
0.00023040313
0.00027389895
0.00032686867
0.00039147519
0.00047039721
0.00056696847
0.00068535495
0.00083076972
0.001009718
0.0010173614
0.001017149
0.0010169006
0.001016581
0.0010161819
0.0010156913
0.0010150925
0.001014357
0.0010134425
0.0010122949
0.001010848
0.0010091142
0.0010074991
0.0010062361
0.001005257
0.0010045502
0.0010041547
0.0010040101
0.001004051
0.0010045321
3.0645942e-07
8.5042284e-06
1.7033393e-05
1.8311772e-05
1.3367807e-05
1.5581626e-05
1.1223848e-05
1.4243637e-05
1.2320171e-05
1.5838787e-05
1.5213979e-05
1.6498013e-05
1.5938841e-05
1.5729491e-05
1.5428537e-05
1.5234806e-05
1.5115295e-05
1.5070717e-05
1.5096083e-05
1.5185591e-05
1.5338558e-05
1.5555368e-05
1.583523e-05
1.617935e-05
1.658864e-05
1.7068371e-05
1.7623831e-05
1.8263823e-05
1.9000063e-05
1.9847581e-05
2.0821513e-05
2.1939707e-05
2.3226246e-05
2.4710337e-05
2.6429294e-05
2.8428097e-05
3.0762013e-05
3.3497237e-05
3.6712595e-05
4.0506154e-05
4.5005561e-05
5.035317e-05
5.6724975e-05
6.4340506e-05
7.3477886e-05
8.4458248e-05
9.7681645e-05
0.00011364235
0.0001329477
0.00015634473
0.0001847456
0.00021928333
0.00026135086
0.00031267316
0.00037537993
0.00045210975
0.00054614751
0.00066160096
0.00080361535
0.00097861103
0.0010167679
0.001016523
0.0010162427
0.0010158933
0.0010154648
0.0010149434
0.001014312
0.0010135427
0.0010125963
0.0010114326
0.0010100061
0.0010083167
0.0010068136
0.0010056367
0.0010047291
0.001004074
0.0010036787
0.0010035327
0.0010037454
0.0010039169
2.8417123e-07
8.3748181e-06
1.6385316e-05
1.8079718e-05
1.3134138e-05
1.3812324e-05
1.0633385e-05
1.259176e-05
1.1458787e-05
1.4100182e-05
1.3987795e-05
1.4717384e-05
1.4351196e-05
1.4066217e-05
1.3816759e-05
1.3638462e-05
1.3534202e-05
1.3496649e-05
1.3523174e-05
1.3608258e-05
1.3751202e-05
1.3952879e-05
1.4212707e-05
1.4532303e-05
1.4912573e-05
1.5358768e-05
1.5875904e-05
1.6472261e-05
1.7158657e-05
1.7949721e-05
1.8860396e-05
1.9907593e-05
2.1114374e-05
2.2508438e-05
2.4125487e-05
2.6008583e-05
2.8210918e-05
3.0796784e-05
3.3842836e-05
3.7442154e-05
4.1719678e-05
4.6814956e-05
5.2899691e-05
6.0184844e-05
6.8945096e-05
7.9495667e-05
9.2227957e-05
0.00010762713
0.00012628961
0.00014895295
0.00017651479
0.00021009386
0.00025106555
0.00030113603
0.00036241432
0.00043751392
0.00052968868
0.00064300875
0.00078257697
0.0009547642
0.0010162128
0.0010159325
0.0010156158
0.0010152323
0.0010147704
0.0010142149
0.0010135473
0.0010127415
0.0010117629
0.0010105826
0.0010091791
0.0010075426
0.0010061501
0.0010050593
0.0010042235
0.0010036177
0.0010032275
0.0010030809
0.0010033285
0.0010034071
2.5449765e-07
8.3031702e-06
1.5878215e-05
1.7108684e-05
1.3034503e-05
1.2209735e-05
1.0672888e-05
1.1606718e-05
1.1015676e-05
1.2587985e-05
1.2884347e-05
1.3141816e-05
1.2876178e-05
1.2558117e-05
1.233784e-05
1.2175104e-05
1.208213e-05
1.2050419e-05
1.2077775e-05
1.2159246e-05
1.2293834e-05
1.248284e-05
1.2725607e-05
1.2947747e-05
1.329389e-05
1.3703254e-05
1.418013e-05
1.4732083e-05
1.5368848e-05
1.6104315e-05
1.69532e-05
1.79315e-05
1.9061336e-05
2.0368958e-05
2.1888572e-05
2.3661472e-05
2.5738898e-05
2.8183261e-05
3.1069797e-05
3.4747719e-05
3.8844585e-05
4.3735623e-05
4.9590674e-05
5.6613338e-05
6.5075903e-05
7.5290609e-05
8.7643085e-05
0.00010261272
0.00012078816
0.00014290268
0.00016984461
0.00020272505
0.00024290947
0.00029209408
0.00035237821
0.00042636355
0.00051728869
0.00062920418
0.00076719198
0.00093760284
0.0010156927
0.0010153742
0.0010150169
0.0010145954
0.0010140965
0.0010135037
0.0010127973
0.0010119535
0.001010944
0.0010097484
0.0010083683
0.0010067993
0.0010055157
0.00100451
0.0010037447
0.0010031863
0.0010028049
0.0010026595
0.0010029043
0.0010028327
2.3053703e-07
8.2637219e-06
1.5444001e-05
1.5566946e-05
1.1937991e-05
1.0643021e-05
9.2256174e-06
1.0358487e-05
9.680097e-06
1.1316755e-05
1.1770011e-05
1.1691647e-05
1.1465639e-05
1.1155543e-05
1.0959255e-05
1.0816606e-05
1.0737364e-05
1.0714385e-05
1.0680487e-05
1.0745565e-05
1.0863785e-05
1.1035546e-05
1.1258423e-05
1.1532891e-05
1.186304e-05
1.2251939e-05
1.2704149e-05
1.3227165e-05
1.3830181e-05
1.4526655e-05
1.5331495e-05
1.6260209e-05
1.7334462e-05
1.857958e-05
2.0028882e-05
2.1722532e-05
2.3710579e-05
2.6054256e-05
2.8828271e-05
3.2123588e-05
3.6051107e-05
4.075125e-05
4.6393822e-05
5.3624917e-05
6.1870231e-05
7.1844209e-05
8.3929946e-05
9.8604289e-05
0.00011645138
0.00013820576
0.00016475191
0.00019720034
0.00023691489
0.00028559127
0.00034533081
0.00041873775
0.0005090525
0.00062032588
0.00075764137
0.00092735976
0.0010152024
0.001014843
0.001014442
0.0010139789
0.00101344
0.0010128076
0.0010120612
0.0010111792
0.0010101413
0.0010089327
0.0010075719
0.0010060915
0.0010049148
0.0010039931
0.0010032959
0.0010027833
0.0010024136
0.0010022585
0.0010024484
0.0010021511
2.1270905e-07
8.2233022e-06
1.4989629e-05
1.3628905e-05
9.8186995e-06
9.4604411e-06
7.6063989e-06
8.8329021e-06
9.0052454e-06
1.0178421e-05
1.0636676e-05
1.0340573e-05
1.0133321e-05
9.8550106e-06
9.68313e-06
9.4961536e-06
9.4076967e-06
9.3802989e-06
9.4064491e-06
9.4832721e-06
9.6067307e-06
9.778257e-06
9.9969992e-06
1.0262879e-05
1.0580094e-05
1.0952602e-05
1.1385014e-05
1.1884861e-05
1.246096e-05
1.3126321e-05
1.3896135e-05
1.478565e-05
1.5816353e-05
1.7012925e-05
1.8408128e-05
2.0041436e-05
2.1962167e-05
2.4230895e-05
2.6921658e-05
3.0124557e-05
3.3950749e-05
3.8538535e-05
4.4060354e-05
5.0716275e-05
5.8762855e-05
6.8519366e-05
8.1079519e-05
9.5592116e-05
0.00011326896
0.00013485113
0.00016122513
0.00019350793
0.00023307018
0.00028161686
0.00034126319
0.00041463069
0.00050497927
0.00061638068
0.00075394246
0.00092406368
0.001014737
0.0010143343
0.0010138869
0.0010133796
0.0010127982
0.0010121249
0.0010113386
0.0010104199
0.0010093565
0.0010081384
0.0010067876
0.0010054239
0.0010043517
0.0010035119
0.0010028798
0.0010024113
0.0010020546
0.0010018775
0.0010019774
0.0010014785
1.9531531e-07
8.1821548e-06
1.3517408e-05
1.1871832e-05
7.9420149e-06
8.4057163e-06
6.7594111e-06
7.9676647e-06
8.3355366e-06
9.1010695e-06
9.5124505e-06
9.1068975e-06
8.9060764e-06
8.5812408e-06
8.4004396e-06
8.2835567e-06
8.2276738e-06
8.2242684e-06
8.2674402e-06
8.3538792e-06
8.4842992e-06
8.6561882e-06
8.8718315e-06
9.1312768e-06
9.4389083e-06
9.7990757e-06
1.0216543e-05
1.0698994e-05
1.1255011e-05
1.1897182e-05
1.2641032e-05
1.3501847e-05
1.4501163e-05
1.5663279e-05
1.7020719e-05
1.8612659e-05
2.0488117e-05
2.2707524e-05
2.5345155e-05
2.8491443e-05
3.2257539e-05
3.678124e-05
4.2238e-05
4.8827854e-05
5.6809494e-05
6.6504078e-05
7.8307794e-05
9.2686263e-05
0.00011123855
0.00013283825
0.00015926669
0.00019165426
0.00023138756
0.00028019102
0.00034020638
0.00041408803
0.00050513415
0.00061746003
0.00075622154
0.00092788321
0.0010142908
0.001013843
0.0010133477
0.0010127945
0.001012169
0.001011454
0.0010106296
0.0010096773
0.0010085909
0.0010073693
0.0010060198
0.001004799
0.0010038288
0.0010030687
0.001002498
0.0010020711
0.0010017274
0.0010015198
0.0010015351
0.0010010659
1.801839e-07
8.1363047e-06
1.0740803e-05
9.8581575e-06
6.5209911e-06
7.4808552e-06
6.1582446e-06
7.1547025e-06
7.7935553e-06
8.1219651e-06
8.4075071e-06
7.897442e-06
7.6503014e-06
7.4228756e-06
7.2879329e-06
7.20877e-06
7.1807247e-06
7.1978355e-06
7.2558603e-06
7.3533583e-06
7.4878422e-06
7.6616465e-06
7.8761952e-06
8.1319966e-06
8.4335323e-06
8.785583e-06
9.1931762e-06
9.6642016e-06
1.02072e-05
1.0834411e-05
1.1502492e-05
1.2335454e-05
1.330488e-05
1.4434671e-05
1.5757097e-05
1.7311067e-05
1.9145361e-05
2.1320315e-05
2.3910556e-05
2.7007111e-05
3.0722127e-05
3.5470689e-05
4.0918698e-05
4.7510291e-05
5.5506416e-05
6.5231313e-05
7.7092031e-05
9.1564759e-05
0.00010925062
0.0001308999
0.00015887423
0.0001916411
0.00023187449
0.00028132908
0.00034218641
0.00041715035
0.00050957721
0.00062365042
0.0007646012
0.00093898582
0.0010138585
0.001013364
0.0010128203
0.0010122206
0.0010115507
0.0010107943
0.0010099342
0.001008953
0.0010078452
0.0010066273
0.0010053134
0.0010042183
0.0010033475
0.0010026643
0.0010021514
0.001001764
0.0010014355
0.0010011992
0.0010011419
0.0010007122
1.6680582e-07
8.0894095e-06
8.4737337e-06
8.3731499e-06
5.7269102e-06
6.6215574e-06
5.650301e-06
6.4434242e-06
7.2403912e-06
7.2065771e-06
7.2090603e-06
6.774981e-06
6.572433e-06
6.4041501e-06
6.3082158e-06
6.2604742e-06
6.2562456e-06
6.2915792e-06
6.3627221e-06
6.4695118e-06
6.610666e-06
6.7878313e-06
7.0035466e-06
7.2587853e-06
7.5581109e-06
7.8727176e-06
8.2687893e-06
8.7275875e-06
9.2575154e-06
9.8703711e-06
1.058037e-05
1.1406014e-05
1.2368164e-05
1.3490789e-05
1.4806454e-05
1.6354466e-05
1.818419e-05
2.0356739e-05
2.294821e-05
2.6051522e-05
2.9781429e-05
3.4281374e-05
3.9727181e-05
4.6329802e-05
5.4354376e-05
6.4688293e-05
7.6718431e-05
9.1417774e-05
0.0001093977
0.000131431
0.00015846336
0.00019346802
0.00023453736
0.00028504658
0.00034723095
0.00042386175
0.00051837461
0.00063504769
0.00077921895
0.00095756259
0.001013435
0.0010128929
0.0010123013
0.0010116556
0.0010109422
0.0010101459
0.0010092525
0.0010082477
0.0010071216
0.0010059035
0.0010046634
0.0010036844
0.0010029081
0.0010022985
0.0010018396
0.0010014904
0.001001182
0.0010009255
0.0010007983
0.0010003845
1.5482687e-07
8.0320028e-06
6.7363091e-06
7.3440331e-06
5.098718e-06
5.8530984e-06
5.2129226e-06
5.8119326e-06
6.5821041e-06
6.1684141e-06
6.1267963e-06
5.7921499e-06
5.6306742e-06
5.5101896e-06
5.4476412e-06
5.4269781e-06
5.4438955e-06
5.4958686e-06
5.5800574e-06
5.6968829e-06
5.8456677e-06
6.0283605e-06
6.2215111e-06
6.4737069e-06
6.7695902e-06
7.1133442e-06
7.512031e-06
7.9732135e-06
8.5055106e-06
9.1209191e-06
9.833801e-06
1.0662432e-05
1.1628909e-05
1.2757558e-05
1.4081488e-05
1.564076e-05
1.7485851e-05
1.9679148e-05
2.2298908e-05
2.5440944e-05
2.9222807e-05
3.3791051e-05
3.9330353e-05
4.6056812e-05
5.4243628e-05
6.4230868e-05
7.6441368e-05
9.1386852e-05
0.00011066452
0.00013327335
0.00016103125
0.00019514621
0.00023937309
0.00029134909
0.00035535666
0.00043425401
0.00053157881
0.0006517317
0.00080019464
0.00098379016
0.0010130153
0.0010124256
0.0010117876
0.0010110974
0.0010103427
0.0010095091
0.0010085846
0.00100756
0.0010064232
0.0010051968
0.0010040732
0.0010031982
0.0010025102
0.0010019704
0.0010015617
0.0010012478
0.0010009638
0.0010007076
0.0010005481
0.0010001468
1.4413432e-07
7.9603859e-06
5.397937e-06
6.4094852e-06
4.5394426e-06
5.1689229e-06
4.8386457e-06
5.168601e-06
5.7557341e-06
5.2659261e-06
5.1764863e-06
4.9314427e-06
4.8086143e-06
4.7280138e-06
4.69505e-06
4.6987435e-06
4.7353755e-06
4.8034835e-06
4.9009933e-06
5.0099967e-06
5.1622801e-06
5.3483045e-06
5.5703403e-06
5.831356e-06
6.1356317e-06
6.4877342e-06
6.8946512e-06
7.3645736e-06
7.9063446e-06
8.5321215e-06
9.2563874e-06
1.0097642e-05
1.1028326e-05
1.2163844e-05
1.3496792e-05
1.5067958e-05
1.6929125e-05
1.9144009e-05
2.1793064e-05
2.4975498e-05
2.8812654e-05
3.3709414e-05
3.9394121e-05
4.630729e-05
5.4731266e-05
6.5015559e-05
7.7602782e-05
9.3026728e-05
0.00011194193
0.00013640257
0.00016511842
0.00020042879
0.0002438756
0.00030022329
0.00036655874
0.0004483334
0.00054921272
0.00067374726
0.00082760476
0.001013214
0.001012595
0.0010119587
0.0010112766
0.0010105443
0.0010097515
0.0010088845
0.0010079313
0.0010068872
0.0010057517
0.001004538
0.0010035419
0.0010027607
0.0010021534
0.0010016795
0.0010013167
0.0010010336
0.001000774
0.0010005391
0.0010003978
0.0010000248
1.3459473e-07
7.8338156e-06
4.3756777e-06
5.5773985e-06
4.0390189e-06
4.5593071e-06
4.5098308e-06
4.4700063e-06
4.9222223e-06
4.460443e-06
4.3522073e-06
4.1809099e-06
4.0948353e-06
4.0486955e-06
4.0426101e-06
4.0688245e-06
4.1243289e-06
4.191755e-06
4.2976682e-06
4.4336713e-06
4.6006267e-06
4.8000667e-06
5.0349503e-06
5.3084547e-06
5.6254279e-06
5.9907028e-06
6.4113347e-06
6.8751997e-06
7.4271859e-06
8.0638862e-06
8.7998247e-06
9.6535153e-06
1.06476e-05
1.1810535e-05
1.3176285e-05
1.4786942e-05
1.6696593e-05
1.8971297e-05
2.1694633e-05
2.4970744e-05
2.8926436e-05
3.372158e-05
3.9549669e-05
4.6649234e-05
5.5314411e-05
6.6460895e-05
7.953182e-05
9.556073e-05
0.00011523345
0.00013939697
0.00017068514
0.00020746841
0.00025274493
0.00030849746
0.00038079464
0.00046606121
0.00057124522
0.00070107472
0.00086144366
0.0010128201
0.0010121698
0.0010114896
0.0010107666
0.0010099952
0.0010091673
0.0010082711
0.0010072937
0.0010062289
0.0010050971
0.0010039605
0.0010030703
0.0010023726
0.0010018367
0.0010014251
0.0010011044
0.0010008473
0.0010006068
0.0010004
0.0010002826
0.00099995399
1.2612729e-07
7.5159103e-06
3.6656523e-06
4.8384793e-06
3.5930423e-06
4.0186805e-06
3.9967721e-06
3.8377092e-06
4.1194879e-06
3.747994e-06
3.6453927e-06
3.532852e-06
3.4812273e-06
3.4654879e-06
3.4839856e-06
3.5182852e-06
3.5858179e-06
3.6823865e-06
3.8072051e-06
3.9605306e-06
4.1438574e-06
4.3592405e-06
4.6100618e-06
4.8997881e-06
5.2217572e-06
5.6009579e-06
6.0359692e-06
6.534954e-06
7.1081758e-06
7.7678625e-06
8.5289113e-06
9.4105792e-06
1.0436427e-05
1.1635984e-05
1.3045539e-05
1.4708714e-05
1.668246e-05
1.9035916e-05
2.1856057e-05
2.525316e-05
2.9359041e-05
3.4341525e-05
4.0406567e-05
4.7803227e-05
5.6842003e-05
6.7904175e-05
8.2182922e-05
9.8942599e-05
0.00011952088
0.00014481512
0.00017590781
0.0002161941
0.0002636274
0.0003220519
0.00039403259
0.00048732787
0.00059755946
0.00073359274
0.00090157902
0.0010124203
0.0010117365
0.0010110167
0.0010102561
0.0010094493
0.0010085893
0.0010076665
0.0010066705
0.0010055925
0.0010044518
0.0010034541
0.0010026589
0.0010020347
0.0010015591
0.0010012061
0.0010009251
0.0010006917
0.0010004632
0.0010002888
0.0010002117
0.00099998973
1.1880696e-07
7.1051052e-06
3.2185609e-06
4.1830131e-06
3.1956782e-06
3.3900468e-06
3.5421876e-06
3.2583883e-06
3.3938917e-06
3.1289546e-06
3.046978e-06
2.9808258e-06
2.9604819e-06
2.9718777e-06
2.9978977e-06
3.0607618e-06
3.1514591e-06
3.2688149e-06
3.412955e-06
3.5848685e-06
3.7865951e-06
4.0204724e-06
4.2819931e-06
4.5885336e-06
4.9392973e-06
5.3400094e-06
5.7975531e-06
6.3203782e-06
6.9189513e-06
7.6062673e-06
8.3976901e-06
9.3132854e-06
1.0377672e-05
1.1621844e-05
1.3028116e-05
1.4740786e-05
1.6775069e-05
1.9203696e-05
2.2250631e-05
2.5793909e-05
3.0081151e-05
3.5288095e-05
4.1634274e-05
4.938197e-05
5.8857296e-05
7.0464232e-05
8.4698754e-05
0.00010217001
0.00012473157
0.00015132641
0.00018403048
0.00022426836
0.00027639214
0.00033786847
0.00041361405
0.00051192333
0.00062791467
0.00077103221
0.00094771048
0.0010120114
0.0010112949
0.0010105394
0.001009745
0.0010089064
0.0010080174
0.0010070698
0.0010060566
0.0010049846
0.0010038918
0.0010030114
0.0010023055
0.0010017477
0.0010013185
0.0010010187
0.001000776
0.0010005704
0.0010003468
0.0010002134
0.0010001843
0.0010000324
1.1289741e-07
6.1727308e-06
2.8361783e-06
3.5878199e-06
2.8508279e-06
2.8104613e-06
3.0899578e-06
2.7340355e-06
2.7712457e-06
2.6001603e-06
2.5456458e-06
2.517054e-06
2.5173884e-06
2.546268e-06
2.6064639e-06
2.693929e-06
2.8068019e-06
2.9449307e-06
3.1091939e-06
3.301023e-06
3.5176945e-06
3.7702563e-06
4.0588369e-06
4.3875187e-06
4.7611788e-06
5.1857318e-06
5.6683702e-06
6.2178654e-06
6.8450049e-06
7.5466491e-06
8.3669659e-06
9.3143714e-06
1.041448e-05
1.1699388e-05
1.3209245e-05
1.4994257e-05
1.7116516e-05
1.9653774e-05
2.2702537e-05
2.6382086e-05
3.0840586e-05
3.6521904e-05
4.3188477e-05
5.1335981e-05
6.1307214e-05
7.3528518e-05
8.8524559e-05
0.00010694156
0.00013076399
0.0001588133
0.00019331693
0.00023577444
0.00029083975
0.00035571146
0.00043564847
0.00053418688
0.00066190751
0.00081292309
0.00099929422
0.0010115951
0.001010846
0.0010100588
0.0010092341
0.0010083666
0.0010074516
0.0010064832
0.0010054543
0.0010043806
0.00100341
0.0010026297
0.0010020049
0.0010015096
0.0010011236
0.0010008654
0.0010006512
0.0010004811
0.0010002706
0.0010001634
0.0010001592
0.0010000544
1.0798741e-07
4.2979019e-06
2.4900647e-06
3.0360791e-06
2.4190244e-06
2.3247024e-06
2.6167217e-06
2.2677303e-06
2.2533528e-06
2.1549479e-06
2.1307862e-06
2.127437e-06
2.1555848e-06
2.2146366e-06
2.300569e-06
2.4110734e-06
2.5455056e-06
2.7043968e-06
2.8864078e-06
3.0976137e-06
3.3390518e-06
3.6135929e-06
3.9247274e-06
4.2766968e-06
4.6746134e-06
5.124636e-06
5.6342382e-06
6.203145e-06
6.8577003e-06
7.6053014e-06
8.4632453e-06
9.4530181e-06
1.0601701e-05
1.194331e-05
1.3520495e-05
1.5386424e-05
1.7607204e-05
2.0265108e-05
2.3462528e-05
2.7326559e-05
3.2014746e-05
3.7721414e-05
4.501957e-05
5.3607454e-05
6.412455e-05
7.7021267e-05
9.2852298e-05
0.00011230201
0.00013621447
0.00016711636
0.00020357765
0.00024845075
0.00030370124
0.00037524452
0.00045972773
0.00056386617
0.00069893665
0.0008585446
0.001011936
0.0010111731
0.0010103928
0.0010095776
0.0010087255
0.0010078322
0.0010068927
0.0010059057
0.0010048784
0.0010038402
0.0010029945
0.001002304
0.0010017504
0.0010013145
0.0010009754
0.0010007244
0.0010005463
0.0010003998
0.0010002144
0.0010001356
0.0010001433
0.001000071
1.0274792e-07
3.5443742e-06
2.129229e-06
2.529078e-06
2.0655533e-06
1.9189239e-06
2.1315773e-06
1.8592616e-06
1.8324094e-06
1.7890697e-06
1.7911042e-06
1.8185207e-06
1.8781493e-06
1.9637346e-06
2.0729247e-06
2.2048617e-06
2.3598063e-06
2.5369334e-06
2.7410439e-06
2.9732728e-06
3.2361693e-06
3.53282e-06
3.8669135e-06
4.2428527e-06
4.6659223e-06
5.1425e-06
5.6739844e-06
6.2797943e-06
6.9673237e-06
7.7510549e-06
8.6492046e-06
9.684516e-06
1.0885598e-05
1.2288423e-05
1.3938276e-05
1.5891865e-05
1.8219621e-05
2.1008852e-05
2.4368181e-05
2.8431902e-05
3.3366766e-05
3.9664159e-05
4.706914e-05
5.6127915e-05
6.722826e-05
8.0845816e-05
9.7566654e-05
0.00011811355
0.00014470647
0.00017602941
0.00021456245
0.00026199074
0.00032039056
0.00039601527
0.00048530854
0.00059537411
0.00073817136
0.00090687794
0.0010115287
0.0010107473
0.0010099401
0.0010090999
0.001008223
0.0010073069
0.0010063471
0.0010053407
0.0010043097
0.0010033851
0.0010026378
0.0010020286
0.0010015355
0.0010011456
0.0010008589
0.0010006328
0.0010004641
0.0010003332
0.001000187
0.0010001195
0.0010001353
0.0010000877
9.8898015e-08
2.8300038e-06
1.8172154e-06
2.021703e-06
1.7731386e-06
1.5718306e-06
1.6841775e-06
1.5133611e-06
1.5011086e-06
1.5012838e-06
1.5299571e-06
1.5902665e-06
1.6763242e-06
1.7846601e-06
1.914375e-06
2.0656995e-06
2.2385894e-06
2.4361893e-06
2.6600859e-06
2.9126175e-06
3.1965774e-06
3.5152302e-06
3.872399e-06
4.272606e-06
4.7212707e-06
5.2213655e-06
5.7862622e-06
6.4234604e-06
7.1450542e-06
7.9662186e-06
8.9062142e-06
9.9891098e-06
1.1245208e-05
1.2712563e-05
1.443904e-05
1.6484845e-05
1.8925255e-05
2.1852712e-05
2.5382678e-05
2.9657331e-05
3.5082382e-05
4.1467583e-05
4.9267935e-05
5.8816467e-05
7.0521528e-05
8.4886112e-05
0.00010252886
0.00012421299
0.00015223891
0.0001852905
0.00022595655
0.00027601339
0.0003376548
0.00041743121
0.00051167348
0.00062784164
0.00077853308
0.00095660423
0.0010111244
0.0010103236
0.0010094933
0.0010086318
0.0010077326
0.0010067943
0.0010058188
0.0010048125
0.0010038059
0.0010029957
0.001002333
0.0010017957
0.0010013589
0.0010010041
0.0010007534
0.0010005565
0.0010004045
0.0010002826
0.0010001608
0.0010001101
0.0010001354
0.0010000996
9.6634971e-08
2.206349e-06
1.5458841e-06
1.539516e-06
1.5035771e-06
1.2752375e-06
1.3202289e-06
1.2372944e-06
1.2524528e-06
1.2834234e-06
1.3453353e-06
1.4314986e-06
1.5388999e-06
1.6662162e-06
1.813713e-06
1.9824102e-06
2.1731677e-06
2.3889859e-06
2.631702e-06
2.9038756e-06
3.2084429e-06
3.5487853e-06
3.928827e-06
4.3531866e-06
4.8273879e-06
5.3581451e-06
5.953735e-06
6.6244444e-06
7.3746071e-06
8.2337049e-06
9.2162029e-06
1.0347581e-05
1.1659957e-05
1.3193656e-05
1.4999172e-05
1.7209603e-05
1.9784471e-05
2.2876132e-05
2.6607496e-05
3.1130207e-05
3.6631058e-05
4.333977e-05
5.1540148e-05
6.158153e-05
7.3894143e-05
8.9008152e-05
0.0001075757
0.00013153941
0.00015981482
0.00019459022
0.00023738034
0.00029005425
0.00035828011
0.00043877237
0.00053794464
0.00066020161
0.00081869346
0.0010061036
0.0010107328
0.0010099108
0.0010090592
0.0010081792
0.0010072632
0.0010063059
0.0010053096
0.0010043006
0.0010033964
0.0010026673
0.001002075
0.0010015955
0.0010012075
0.0010008947
0.0010006793
0.00100049
0.0010003611
0.001000245
0.0010001435
0.0010001088
0.0010001344
0.0010000965
9.6747703e-08
1.6749934e-06
1.3169294e-06
1.170599e-06
1.2324652e-06
1.0270468e-06
1.0530821e-06
1.0331712e-06
1.0766497e-06
1.1370239e-06
1.2229551e-06
1.3286605e-06
1.4530679e-06
1.5963234e-06
1.7594896e-06
1.9440727e-06
2.1516033e-06
2.3846683e-06
2.6454499e-06
2.9366177e-06
3.2611925e-06
3.6226327e-06
4.0249461e-06
4.4728504e-06
4.9719936e-06
5.529254e-06
6.1531394e-06
6.8542887e-06
7.6460951e-06
8.5454967e-06
9.5739066e-06
1.075845e-05
1.2133315e-05
1.37415e-05
1.5636845e-05
1.7886529e-05
2.0574155e-05
2.3803748e-05
2.7704036e-05
3.2434365e-05
3.819153e-05
4.521758e-05
5.3808481e-05
6.4330778e-05
7.7234567e-05
9.3845152e-05
0.00011345075
0.00013754068
0.00016715794
0.0002035893
0.00024842036
0.00030645784
0.00037491629
0.00045923089
0.00056313061
0.00069794973
0.00085712719
0.0010111994
0.0010103633
0.0010095198
0.0010086476
0.0010077483
0.0010068181
0.001005854
0.0010048578
0.0010038635
0.0010030595
0.0010023988
0.0010018637
0.0010014307
0.0010010832
0.0010008144
0.0010005956
0.0010004376
0.0010003169
0.0010002114
0.0010001309
0.0010001156
0.0010001416
0.0010000967
1.0003913e-07
1.241373e-06
1.1272865e-06
9.0085126e-07
1.0745802e-06
8.2241278e-07
8.6964796e-07
8.9466758e-07
9.6088934e-07
1.0443485e-06
1.1476738e-06
1.2684002e-06
1.4069025e-06
1.5641754e-06
1.7416928e-06
1.9411791e-06
2.1645932e-06
2.4139718e-06
2.6919618e-06
3.0012098e-06
3.3447994e-06
3.7262601e-06
4.1496861e-06
4.6199031e-06
5.1426982e-06
5.7251304e-06
6.3759505e-06
7.1061726e-06
7.9297058e-06
8.8642186e-06
9.9320718e-06
1.1161663e-05
1.2588815e-05
1.4258612e-05
1.6227514e-05
1.8565987e-05
2.1361637e-05
2.4723067e-05
2.878459e-05
3.3712036e-05
3.9981194e-05
4.736113e-05
5.6383564e-05
6.7432319e-05
8.0978894e-05
9.7603655e-05
0.00011802146
0.00014311295
0.0001739602
0.00021388379
0.00026092348
0.00031881005
0.00039007999
0.00047787232
0.00059179217
0.00072620341
0.00089200031
0.001010863
0.0010100191
0.0010091609
0.0010082725
0.0010073541
0.0010064047
0.0010054274
0.0010044387
0.0010035206
0.001002786
0.0010021838
0.0010016956
0.0010013003
0.0010009786
0.0010007371
0.0010005449
0.001000394
0.0010002778
0.0010001747
0.0010001064
0.0010001085
0.0010001469
0.0010001007
1.0661475e-07
9.580689e-07
9.6188664e-07
7.6207955e-07
7.6558846e-07
7.0133379e-07
7.4682282e-07
8.0697575e-07
8.9044159e-07
9.9002535e-07
1.1064355e-06
1.2395753e-06
1.3905068e-06
1.5605499e-06
1.751302e-06
1.9645455e-06
2.2022708e-06
2.4666945e-06
2.7602977e-06
3.0858714e-06
3.4465823e-06
3.8460617e-06
4.2885304e-06
4.7789761e-06
5.3234001e-06
5.9270228e-06
6.6019893e-06
7.3583326e-06
8.2178464e-06
9.1873832e-06
1.0295356e-05
1.1571549e-05
1.3053509e-05
1.4788418e-05
1.6835315e-05
1.926778e-05
2.2177207e-05
2.5676797e-05
2.9906434e-05
3.5038709e-05
4.1286324e-05
4.8911217e-05
5.823562e-05
6.965409e-05
8.3653922e-05
0.00010083404
0.00012301755
0.00014914192
0.00018124662
0.00022072246
0.00026928493
0.00032905535
0.00040265616
0.0004980233
0.00061061062
0.00074944332
0.00092076102
0.0010105581
0.0010097058
0.0010088375
0.001007941
0.0010070136
0.0010060535
0.0010050657
0.0010040828
0.0010032522
0.0010025709
0.001002015
0.0010015634
0.0010011982
0.0010009018
0.0010006778
0.0010005032
0.0010003576
0.0010002473
0.0010001472
0.0010000804
0.0010000778
0.0010001152
0.001000084
1.2115484e-07
9.6319786e-07
8.0243692e-07
5.648482e-07
6.0827063e-07
6.1125439e-07
6.749486e-07
7.5388063e-07
8.5084928e-07
9.6260086e-07
1.0901275e-06
1.2342539e-06
1.3962748e-06
1.5776039e-06
1.7798632e-06
2.0048588e-06
2.2546085e-06
2.5313692e-06
2.8376719e-06
3.1763672e-06
3.5506861e-06
3.9643273e-06
4.4215812e-06
4.9275076e-06
5.4881884e-06
6.1110737e-06
6.8054418e-06
7.5829877e-06
8.4585724e-06
9.4511156e-06
1.0584671e-05
1.1889773e-05
1.340496e-05
1.5178678e-05
1.7271519e-05
1.9758963e-05
2.27347e-05
2.6314662e-05
3.0641965e-05
3.5892976e-05
4.228487e-05
5.0443916e-05
6.0055232e-05
7.1820396e-05
8.6240183e-05
0.00010392967
0.00012564664
0.00015232498
0.00018511628
0.00022543992
0.00027505263
0.00033922845
0.00041498764
0.00050831714
0.00062337311
0.00076532018
0.00094057369
0.0010103072
0.001009441
0.001008559
0.0010076534
0.0010067217
0.001005762
0.00100478
0.0010038138
0.0010030459
0.0010024085
0.0010018889
0.0010014656
0.0010011232
0.0010008495
0.0010006348
0.001000472
0.0010003338
0.0010002268
0.0010001353
0.0010000764
0.0010000708
0.0010000983
0.0010000693
1.1108096e-07
6.2089372e-07
6.3601924e-07
4.6773461e-07
5.1032133e-07
5.5616745e-07
6.3496465e-07
7.2752929e-07
8.3517641e-07
9.5723691e-07
1.094788e-06
1.2488835e-06
1.4208438e-06
1.6121363e-06
1.8244158e-06
2.0595339e-06
2.3195632e-06
2.60679e-06
2.9238567e-06
3.2736627e-06
3.6595083e-06
4.085162e-06
4.5549859e-06
5.0741145e-06
5.6487117e-06
6.2863232e-06
6.9963451e-06
7.7906312e-06
8.6913736e-06
9.7067699e-06
1.0866242e-05
1.2201085e-05
1.3750744e-05
1.5564753e-05
1.770501e-05
2.024857e-05
2.329101e-05
2.6950554e-05
3.1373123e-05
3.673852e-05
4.3267998e-05
5.1233475e-05
6.0968844e-05
7.2885719e-05
8.7489757e-05
0.00010540367
0.00012739458
0.00015576349
0.00018920913
0.00023032451
0.00028089972
0.00034314679
0.00041980645
0.00051427892
0.00063078958
0.00077459813
0.00095224626
0.0010101431
0.001009262
0.0010083624
0.0010074391
0.0010064917
0.0010055217
0.0010045436
0.001003628
0.0010028976
0.0010022938
0.0010018015
0.0010014008
0.0010010764
0.0010008166
0.0010006119
0.0010004556