/*--------------------------------*- C++ -*----------------------------------*\
  =========                 |
  \\      /  F ield         | OpenFOAM: The Open Source CFD Toolbox
   \\    /   O peration     | Website:  https://openfoam.org
    \\  /    A nd           | Version:  12
     \\/     M anipulation  |
\*---------------------------------------------------------------------------*/
FoamFile
{
    format      ascii;
    class       surfaceScalarField;
    location    "0.126";
    object      phi;
}
// * * * * * * * * * * * * * * * * * * * * * * * * * * * * * * * * * * * * * //

dimensions      [1 0 -1 0 0 0 0];

internalField   nonuniform List<scalar> 
31760
(
-0.00063961184
-0.050798267
0.05143776
-0.0016015868
-0.06418546
0.065147145
-0.0025772167
-0.062837193
0.063810796
-0.0035964614
-0.068485711
0.069504875
-0.0046700189
-0.070161008
0.071234526
-0.0057714864
-0.074414551
0.075515929
-0.0069430386
-0.077339136
0.078510646
-0.0081530891
-0.081336512
0.082546496
-0.0094234117
-0.084953402
0.08622367
-0.010752204
-0.089062571
0.090391301
-0.012136462
-0.093188846
0.09457304
-0.013587868
-0.097591794
0.099043129
-0.015101115
-0.10215876
0.10367192
-0.016684459
-0.10695162
0.10853488
-0.018337501
-0.11195922
0.11361216
-0.020064996
-0.11719814
0.11892553
-0.021869621
-0.12267644
0.12448093
-0.023754582
-0.1284055
0.13029032
-0.025723126
-0.13439631
0.13636469
-0.027778651
-0.14066011
0.14271546
-0.029924595
-0.14720926
0.14935501
-0.032164714
-0.15405571
0.15629562
-0.034502602
-0.161213
0.16355066
-0.036942156
-0.16869482
0.17113413
-0.039486343
-0.17651566
0.17905958
-0.042139733
-0.18468959
0.18734269
-0.044906208
-0.19323282
0.19599898
-0.047789179
-0.20216193
0.20504456
-0.050792125
-0.21149379
0.21449637
-0.053919072
-0.22124646
0.22437301
-0.057173306
-0.23143884
0.23469263
-0.060558131
-0.2420907
0.24547505
-0.064076332
-0.25322352
0.2567412
-0.067730925
-0.26485839
0.2685124
-0.071523862
-0.27701937
0.28081167
-0.075456767
-0.28973073
0.29366293
-0.079530921
-0.30301818
0.30709157
-0.083746749
-0.31690944
0.32112442
-0.088104008
-0.33143249
0.33578882
-0.092601319
-0.34661881
0.35111511
-0.097236613
-0.36250019
0.36713439
-0.1020064
-0.37911046
0.38387903
-0.10690599
-0.39648571
0.40138398
-0.11192951
-0.41466389
0.41968596
-0.11706915
-0.43368544
0.43882349
-0.12231571
-0.45359209
0.4588369
-0.12765756
-0.47442887
0.4797688
-0.13308173
-0.49624227
0.50166434
-0.13857267
-0.5190825
0.52457113
-0.14411203
-0.54300149
0.54853831
-0.14967874
-0.56805375
0.5736177
-0.1552493
-0.59429747
0.59986499
-0.16079632
-0.62179309
0.6273368
-0.16628886
-0.65060437
0.65609329
-0.17169246
-0.68079802
0.68619765
-0.17696723
-0.71244489
0.71771534
-0.18206914
-0.74561848
0.75071568
-0.18694884
-0.78039609
0.78527064
-0.19155
-0.81685915
0.8214547
-0.1958105
-0.85509243
0.8593468
-0.19966028
-0.89518447
0.89902754
-0.20302143
-0.9372274
0.94058122
-0.2058065
-0.98131766
0.98409473
-0.20791803
-1.0275554
1.0296582
-0.20924719
-1.0760433
1.0773629
-0.20967329
-1.1268893
1.127305
-0.20906063
-1.1802048
1.1795811
-0.20726456
-1.2361054
1.2342976
-0.20411905
-1.294717
1.2915592
-0.19943756
-1.356168
1.3514738
-0.19301753
-1.4205876
1.4141546
-0.18463834
-1.4881018
1.4797095
-0.17404609
-1.5588393
1.5482338
-0.16097364
-1.6329273
1.6198416
-0.14510388
-1.7105196
1.694636
-0.12620132
-1.7917491
1.7728308
-0.10353192
-1.8767692
1.8540824
-0.077690305
-1.9660789
1.9402024
-0.046322016
-2.0583087
2.0269251
-2.1579674
2.1230992
-0.00063384899
-0.050164267
-0.001500403
-0.063318801
-0.0023938275
-0.061945088
-0.00335127
-0.067528113
-0.0043197281
-0.069192461
-0.0053653654
-0.073368832
-0.006426257
-0.076278204
-0.0075670956
-0.080195647
-0.0087338273
-0.083786674
-0.0099748787
-0.087821539
-0.011258955
-0.091904814
-0.01261046
-0.096240349
-0.014019439
-0.10074986
-0.015494954
-0.10547621
-0.01703721
-0.11041708
-0.018650356
-0.11558513
-0.020336591
-0.12099035
-0.02209969
-0.12664257
-0.023942878
-0.1325533
-0.025869742
-0.13873344
-0.027883947
-0.14519527
-0.029988752
-0.15195114
-0.032188265
-0.15901375
-0.034486179
-0.16639719
-0.036887292
-0.17411484
-0.039394419
-0.18218279
-0.042012253
-0.19061534
-0.044744528
-0.19943004
-0.047595524
-0.20864322
-0.050568809
-0.21827364
-0.053668457
-0.22833969
-0.056897792
-0.23886192
-0.060260107
-0.24986181
-0.063758379
-0.26136078
-0.067395016
-0.27338346
-0.071172326
-0.28595421
-0.075091458
-0.29909992
-0.079153892
-0.31284795
-0.083358953
-0.32722847
-0.087706206
-0.34227269
-0.092194024
-0.35801362
-0.096819278
-0.37448657
-0.10157758
-0.3917289
-0.10646382
-0.40977928
-0.1114709
-0.42868015
-0.11659022
-0.44847472
-0.12181154
-0.4692097
-0.1271222
-0.49093396
-0.1325079
-0.51369938
-0.13795205
-0.53756016
-0.14343526
-0.56257362
-0.1489355
-0.58880061
-0.15442752
-0.61630475
-0.15988304
-0.64515288
-0.16526998
-0.67541548
-0.17055206
-0.70716762
-0.17568884
-0.74048695
-0.18063484
-0.77545583
-0.18533878
-0.81216148
-0.18974386
-0.85069422
-0.19378605
-0.89114979
-0.19739396
-0.93362771
-0.20048737
-0.97823325
-0.20297794
-1.0250746
-0.20476595
-1.074266
-0.20574212
-1.1259248
-0.20578118
-1.1801784
-0.2047486
-1.2371515
-0.20249449
-1.2969854
-0.19885077
-1.3598266
-0.19363321
-1.4258205
-0.18663445
-1.4951164
-0.17762724
-1.5678628
-0.16635805
-1.6442132
-0.15256195
-1.7243329
-0.13593304
-1.808396
-0.11607169
-1.896652
-0.09294141
-1.9892398
-0.065235118
-2.0860333
-2.1891834
-0.00057237969
-0.049591919
-0.0013807787
-0.062510424
-0.0021897631
-0.061135208
-0.0030908344
-0.066627135
-0.003981178
-0.068302211
-0.0049576886
-0.072392418
-0.0059357782
-0.075300213
-0.0069972573
-0.07913427
-0.0080779677
-0.082706072
-0.0092314189
-0.086668201
-0.010424685
-0.090711669
-0.011681856
-0.094983305
-0.012993938
-0.099437914
-0.0143692
-0.10410109
-0.01580832
-0.10897812
-0.017314887
-0.11407873
-0.018892253
-0.11941317
-0.020543367
-0.12499165
-0.022272501
-0.13082438
-0.024082478
-0.13692369
-0.025977785
-0.14330021
-0.027961944
-0.14996725
-0.030038834
-0.15693714
-0.032213234
-0.1642231
-0.034488412
-0.17184
-0.036869573
-0.179802
-0.039360162
-0.18812515
-0.041965234
-0.1968254
-0.044688337
-0.20592059
-0.047534604
-0.21542789
-0.050507131
-0.22536773
-0.053610227
-0.23575944
-0.056847677
-0.24662504
-0.060222143
-0.25798706
-0.063737188
-0.26986923
-0.067394951
-0.28229734
-0.071197641
-0.2952982
-0.075145744
-0.30890092
-0.079240242
-0.32313513
-0.083480592
-0.33803362
-0.087864978
-0.35363063
-0.092391259
-0.36996181
-0.097056036
-0.38706579
-0.10185383
-0.40498331
-0.10677865
-0.42375733
-0.11182249
-0.44343306
-0.11697616
-0.46405842
-0.12222774
-0.48568499
-0.12756472
-0.50836526
-0.1329715
-0.53215651
-0.13842994
-0.55711859
-0.14392072
-0.58331357
-0.14942058
-0.61080896
-0.15490372
-0.63967419
-0.16034104
-0.66998303
-0.16569971
-0.70181426
-0.17094329
-0.7352492
-0.17602972
-0.77037577
-0.18091366
-0.80728452
-0.18554275
-0.84607278
-0.18985959
-0.88684133
-0.19379914
-0.92969734
-0.1972897
-0.97475274
-0.20025021
-1.0221251
-0.20259061
-1.0719376
-0.20420974
-1.1243187
-0.20499973
-1.1794026
-0.20483523
-1.2373313
-0.20357763
-1.2982593
-0.2010797
-1.3623417
-0.19716842
-1.4297497
-0.19166145
-1.500642
-0.18434649
-1.5751971
-0.17499832
-1.6535816
-0.16336842
-1.7359838
-0.14916916
-1.822617
-0.13211313
-1.9137335
-0.11194009
-2.0094432
-0.087900251
-2.1100943
-2.2166461
-0.00051659282
-0.049075373
-0.0012647625
-0.061762346
-0.0019979401
-0.060402256
-0.0028468031
-0.065778362
-0.0036718411
-0.067477251
-0.0045822509
-0.0714821
-0.0054840687
-0.074398488
-0.0064726962
-0.078145744
-0.0074738553
-0.08170502
-0.0085469886
-0.085595183
-0.0096567859
-0.089601996
-0.010827581
-0.093812643
-0.012051392
-0.098214248
-0.013335506
-0.10281713
-0.014681611
-0.10763218
-0.016093479
-0.11266704
-0.017574419
-0.11793242
-0.019127816
-0.12343846
-0.020757152
-0.12919527
-0.022466777
-0.13521432
-0.024259873
-0.14150738
-0.026141502
-0.14808591
-0.028115581
-0.15496338
-0.0301861
-0.16215293
-0.032358215
-0.16966826
-0.03463588
-0.17752474
-0.037024131
-0.18573735
-0.039527303
-0.19432272
-0.04215084
-0.20329759
-0.044898087
-0.21268123
-0.047774159
-0.2224923
-0.050783395
-0.2327509
-0.053929464
-0.24347973
-0.057216216
-0.25470113
-0.060647024
-0.26643932
-0.064224305
-0.27872105
-0.067950231
-0.29157336
-0.071826675
-0.30502565
-0.075853945
-0.31910915
-0.080032044
-0.33385692
-0.084360331
-0.34930388
-0.088836102
-0.36548772
-0.093456525
-0.38244721
-0.098217219
-0.40022462
-0.10311225
-0.41886449
-0.10813513
-0.43841258
-0.11327617
-0.45892
-0.11852649
-0.48043755
-0.12387333
-0.50302156
-0.12930312
-0.52673016
-0.13480025
-0.55162521
-0.14034619
-0.57777173
-0.14592077
-0.60523887
-0.15150121
-0.63409866
-0.15706052
-0.66442908
-0.16257042
-0.69631021
-0.16799756
-0.72982847
-0.17330518
-0.76507518
-0.17845222
-0.80214519
-0.18339234
-0.84114113
-0.18807391
-0.88216905
-0.19243904
-0.9253424
-0.19642342
-0.97077954
-0.19995455
-1.0186062
-0.20295179
-1.0689537
-0.20532721
-1.1219579
-0.20697574
-1.1777699
-0.20779219
-1.236532
-0.20764925
-1.2984206
-0.2064157
-1.3635948
-0.20393924
-1.4322468
-0.20004357
-1.5045592
-0.19455056
-1.5807128
-0.18724773
-1.6609083
-0.17791376
-1.7453429
-0.16629393
-1.8342629
-0.15212996
-1.9279274
-0.13511998
-2.0264859
-0.11477966
-2.1304606
-2.2402023
-0.00046128214
-0.048614125
-0.0011622614
-0.061061433
-0.001818859
-0.059745751
-0.0026114282
-0.064985871
-0.0033624854
-0.066726268
-0.0042151739
-0.070629498
-0.0050504654
-0.073563291
-0.0059737009
-0.077222612
-0.0069038863
-0.080774948
-0.0079041859
-0.084595006
-0.0089399648
-0.088566351
-0.010034265
-0.092718486
-0.011181248
-0.097067421
-0.012387098
-0.10161145
-0.013654215
-0.10636525
-0.014985703
-0.11133575
-0.016385332
-0.11653301
-0.017856881
-0.12196714
-0.019404053
-0.12764835
-0.021030887
-0.13358775
-0.022742103
-0.13979646
-0.024541057
-0.14628728
-0.026433269
-0.15307152
-0.028423328
-0.16016325
-0.030515763
-0.16757625
-0.032715851
-0.1753251
-0.035028804
-0.18342489
-0.037459556
-0.1918925
-0.040013034
-0.2007447
-0.042694434
-0.21000046
-0.045508627
-0.2196788
-0.048460077
-0.22980021
-0.051553133
-0.2403875
-0.054792138
-0.25146304
-0.05818024
-0.26305221
-0.061720512
-0.27518186
-0.065415443
-0.28787961
-0.069266923
-0.30117546
-0.073275692
-0.31510179
-0.077442129
-0.32969203
-0.081765179
-0.34498251
-0.086243658
-0.36101108
-0.090874277
-0.3778186
-0.095653348
-0.39544775
-0.10057641
-0.41394384
-0.10563648
-0.43335515
-0.11082635
-0.45373301
-0.11613689
-0.47513015
-0.12155741
-0.49760448
-0.12707637
-0.52121496
-0.1326793
-0.54602639
-0.13835076
-0.57210475
-0.14407273
-0.5995218
-0.14982487
-0.62835188
-0.15558483
-0.65867498
-0.16132683
-0.69057463
-0.16702166
-0.72414067
-0.17263798
-0.75946657
-0.17813916
-0.79665248
-0.18348522
-0.83580439
-0.18863035
-0.87703417
-0.19352397
-0.92046005
-0.19810897
-0.96620691
-0.20232195
-1.0144068
-0.2060918
-1.0651987
-0.20933785
-1.118728
-0.21197508
-1.1751504
-0.21389841
-1.2346278
-0.21500847
-1.2973312
-0.2151734
-1.3634519
-0.21426634
-1.4331772
-0.21213379
-1.5067165
-0.20860811
-1.5842646
-0.20350508
-1.6660392
-0.19662081
-1.7522566
-0.18773091
-1.8431839
-0.17660897
-1.9390846
-0.16294612
-2.0401854
-0.14640987
-2.1470281
-2.2596577
-0.00041155483
-0.048202615
-0.0010717256
-0.060401337
-0.0016660001
-0.059151531
-0.0024007687
-0.064251187
-0.0030759308
-0.066051197
-0.0038772854
-0.069828244
-0.0046458867
-0.072794797
-0.0055096833
-0.076358932
-0.0063764894
-0.079908268
-0.0073152526
-0.083656378
-0.0082909166
-0.087590835
-0.0093230724
-0.091686488
-0.010408146
-0.095982519
-0.0115508
-0.10046898
-0.012753875
-0.10516237
-0.014021228
-0.11006861
-0.015356371
-0.1151981
-0.01676318
-0.12056059
-0.018246157
-0.12616565
-0.019809296
-0.13202491
-0.021457694
-0.13814839
-0.02319616
-0.14454916
-0.025029837
-0.15123823
-0.026963822
-0.15822968
-0.029003724
-0.1655368
-0.031155339
-0.17317398
-0.033423394
-0.18115738
-0.035814172
-0.18950231
-0.038332954
-0.19822655
-0.040985094
-0.20734902
-0.043776155
-0.2168885
-0.046710684
-0.22686651
-0.049794044
-0.23730505
-0.053029502
-0.24822857
-0.056421533
-0.25966126
-0.059973443
-0.27163113
-0.063687408
-0.28416693
-0.067565396
-0.29729888
-0.071608939
-0.31105978
-0.075818101
-0.32548454
-0.080192776
-0.34060967
-0.084730974
-0.35647488
-0.089430981
-0.37312078
-0.094289575
-0.39059155
-0.099301721
-0.40893431
-0.10446237
-0.42819735
-0.10976581
-0.4484327
-0.11520323
-0.46969614
-0.12076673
-0.49204472
-0.12644494
-0.51554083
-0.1322273
-0.54024851
-0.13809984
-0.5662371
-0.14404756
-0.59357942
-0.15005342
-0.62235187
-0.15609809
-0.6526367
-0.16215985
-0.68451987
-0.16821503
-0.71809317
-0.17423561
-0.75345442
-0.18019119
-0.79070619
-0.18604678
-0.82995901
-0.19176424
-0.87132796
-0.1972996
-0.91493707
-0.20260402
-0.96091611
-0.20762234
-1.0094035
-0.21229276
-1.0605447
-0.21654601
-1.1144928
-0.22030495
-1.171411
-0.2234861
-1.231468
-0.22598872
-1.2948517
-0.22771358
-1.3617519
-0.22853787
-1.4323795
-0.228331
-1.5069516
-0.22694526
-1.5856803
-0.2242149
-1.6688017
-0.21995921
-1.7565464
-0.21398634
-1.8491933
-0.20608608
-1.9470261
-0.19598872
-2.0503244
-0.18341912
-2.1596356
-2.2748199
-0.00036909112
-0.047833573
-0.00099848777
-0.059772021
-0.0015380402
-0.058612059
-0.0022256634
-0.063563656
-0.0028417083
-0.06543525
-0.0035953156
-0.069074744
-0.0043079866
-0.072082242
-0.0051107077
-0.075556337
-0.0059357746
-0.079083336
-0.006828441
-0.082763857
-0.0077581492
-0.086661285
-0.0087407979
-0.090704009
-0.0097760433
-0.094947458
-0.010867917
-0.099377304
-0.012020488
-0.10401002
-0.01323724
-0.10885209
-0.01452304
-0.11391255
-0.015881983
-0.11920192
-0.017318872
-0.12472906
-0.018839102
-0.13050501
-0.020447276
-0.13654057
-0.022149594
-0.14284722
-0.023951266
-0.14943697
-0.025857975
-0.15632342
-0.027876064
-0.1635192
-0.030011157
-0.17103942
-0.032270124
-0.17889899
-0.034658504
-0.18711456
-0.037182005
-0.19570375
-0.039847205
-0.20468458
-0.042659085
-0.21407745
-0.045623201
-0.22390329
-0.048744203
-0.23418503
-0.052027177
-0.24494666
-0.055475153
-0.25621445
-0.059091774
-0.26801578
-0.06288013
-0.28037996
-0.066841884
-0.29333864
-0.070978144
-0.30692518
-0.075289544
-0.32117495
-0.079776031
-0.33612516
-0.084436349
-0.35181673
-0.08926894
-0.36829056
-0.09427065
-0.38559243
-0.099438574
-0.40376922
-0.10476818
-0.42287084
-0.11025403
-0.44295023
-0.11589063
-0.46406324
-0.12167004
-0.48626936
-0.12758486
-0.50963045
-0.13362506
-0.53421315
-0.13978031
-0.56008715
-0.14603892
-0.5873266
-0.15238678
-0.61601035
-0.15880875
-0.64622167
-0.16528701
-0.67804921
-0.17180233
-0.71158621
-0.17833229
-0.74693364
-0.18485162
-0.78419697
-0.19133237
-0.82348941
-0.19774193
-0.86493069
-0.20404452
-0.90864806
-0.2101989
-0.95477667
-0.21615915
-1.0034597
-0.22187335
-1.0548486
-0.22728246
-1.1091035
-0.23232112
-1.1663941
-0.23691718
-1.2268956
-0.24098661
-1.290808
-0.24443897
-1.3583274
-0.24717692
-1.4296715
-0.24908337
-1.5050772
-0.25002824
-1.5847699
-0.24987366
-1.6689932
-0.24845529
-1.7580043
-0.24560689
-1.8520845
-0.24115196
-1.9515289
-0.23484352
-2.0566804
-0.22645593
-2.1680687
-2.2854491
-0.00032593464
-0.047507695
-0.00092980551
-0.059168237
-0.0014201355
-0.058121814
-0.0020620187
-0.062921872
-0.002633804
-0.064863569
-0.0033593594
-0.068349304
-0.004039051
-0.071402674
-0.0048266714
-0.07476885
-0.0056124389
-0.078297714
-0.0064590557
-0.081917395
-0.0073465842
-0.085773926
-0.0082864343
-0.08976434
-0.00928115
-0.093952941
-0.01033415
-0.098324516
-0.011449889
-0.10289451
-0.012632939
-0.10766929
-0.013887267
-0.1126585
-0.015218844
-0.11787064
-0.016632502
-0.12331572
-0.018133907
-0.12900395
-0.019728896
-0.13494596
-0.021423458
-0.14115307
-0.023223891
-0.14763698
-0.025137417
-0.15441038
-0.027169492
-0.16148765
-0.029327574
-0.16888192
-0.031617776
-0.17660942
-0.034046896
-0.18468613
-0.036621407
-0.19312998
-0.039347327
-0.20195947
-0.042230348
-0.21119531
-0.045276162
-0.22085845
-0.048489851
-0.23097239
-0.051875423
-0.24156224
-0.055437071
-0.25265406
-0.059178261
-0.26427596
-0.063101137
-0.27645858
-0.067207936
-0.28923348
-0.071499976
-0.30263493
-0.075977824
-0.31669906
-0.080641327
-0.33146379
-0.085490494
-0.34696989
-0.090523267
-0.36326033
-0.095738117
-0.38038036
-0.10113259
-0.39837779
-0.1067034
-0.41730336
-0.11244699
-0.43721029
-0.1183591
-0.45815512
-0.12443457
-0.48019825
-0.13066762
-0.50340217
-0.13705189
-0.5278341
-0.14357927
-0.55356548
-0.15024136
-0.58067077
-0.15702806
-0.60923051
-0.16392825
-0.63932899
-0.17092915
-0.67105654
-0.17801554
-0.70450888
-0.18517073
-0.73978841
-0.19237561
-0.77700307
-0.19960814
-0.81626902
-0.20684326
-0.85770897
-0.21405244
-0.90145369
-0.22120285
-0.94764261
-0.22825786
-0.9964227
-0.23517477
-1.0479516
-0.24190647
-1.1023936
-0.2483987
-1.1599258
-0.25458974
-1.2207308
-0.26041365
-1.2850127
-0.26579824
-1.352974
-0.27065027
-1.4248532
-0.27488286
-1.500881
-0.27838124
-1.5813106
-0.28102623
-1.6663904
-0.28268161
-1.7563944
-0.28320779
-1.8516081
-0.28244961
-1.9523426
-0.28019271
-2.0589922
-0.27625469
-2.1720614
-2.2912722
-0.00028397347
-0.047223782
-0.00086871081
-0.05858359
-0.0013181165
-0.057672498
-0.0019365445
-0.062303549
-0.0024854816
-0.064314742
-0.0031896417
-0.067645265
-0.0038418963
-0.07075055
-0.0046052018
-0.074005685
-0.0053609421
-0.077542127
-0.0061753503
-0.081103151
-0.0070360319
-0.084913424
-0.0079496512
-0.088850913
-0.0089211111
-0.092981691
-0.0099538153
-0.097292038
-0.011052843
-0.10179573
-0.012223017
-0.10649939
-0.013470001
-0.1114118
-0.0147992
-0.11654175
-0.016216618
-0.12189864
-0.017729014
-0.12749192
-0.019342417
-0.13333296
-0.021064333
-0.13943159
-0.022901115
-0.14580068
-0.024860124
-0.15245189
-0.026948907
-0.15939944
-0.029174207
-0.16665723
-0.031543511
-0.17424078
-0.034063632
-0.18216674
-0.036740953
-0.19045345
-0.039582216
-0.19911907
-0.042593419
-0.20818506
-0.045779551
-0.21767335
-0.049145428
-0.22760764
-0.052695791
-0.23801311
-0.05643426
-0.24891693
-0.06036355
-0.26034814
-0.064486513
-0.27233722
-0.068804999
-0.28491674
-0.073320044
-0.29812179
-0.078032734
-0.31198846
-0.082943089
-0.32655572
-0.088050811
-0.34186467
-0.093355658
-0.35795821
-0.098857013
-0.37488199
-0.10455324
-0.39268483
-0.11044295
-0.41141722
-0.11652412
-0.43113302
-0.1227946
-0.45188892
-0.12925191
-0.47374563
-0.13589258
-0.49676664
-0.14271331
-0.52101899
-0.14970984
-0.54657511
-0.15687693
-0.57351041
-0.16420907
-0.60190575
-0.17169909
-0.63184707
-0.17933903
-0.66342549
-0.18711878
-0.69673891
-0.1950279
-0.73189007
-0.20305281
-0.76899006
-0.21117812
-0.80815686
-0.2193864
-0.84951525
-0.22765688
-0.89319933
-0.23596567
-0.93935166
-0.2442845
-0.9881236
-0.2525823
-1.0396755
-0.26082184
-1.0941781
-0.26896235
-1.1518117
-0.27695398
-1.2127682
-0.28474554
-1.277253
-0.29227355
-1.3454807
-0.29947494
-1.4176896
-0.30627175
-1.4941252
-0.31257658
-1.5750502
-0.31828451
-1.6607306
-0.32328495
-1.751446
-0.32746363
-1.847487
-0.33069008
-1.9491803
-0.33279865
-2.0569471
-0.33362469
-2.171301
-2.2919738
-0.000245932
-0.046977915
-0.00081970255
-0.058009914
-0.0012393371
-0.057252958
-0.0018823708
-0.061660624
-0.0024166379
-0.063780591
-0.0030959265
-0.066966103
-0.003725532
-0.070121083
-0.0044472336
-0.073284132
-0.0051897944
-0.076799728
-0.005988821
-0.080304298
-0.0068398978
-0.084062537
-0.0077457927
-0.087945221
-0.0087136697
-0.092014036
-0.0097474448
-0.096258501
-0.010852881
-0.10069055
-0.012035731
-0.10531682
-0.013302232
-0.11014561
-0.014659057
-0.11518526
-0.016112988
-0.12044508
-0.017670719
-0.12593458
-0.019340848
-0.13166326
-0.021129797
-0.13764311
-0.023046395
-0.14388459
-0.025097876
-0.15040096
-0.027292018
-0.1572059
-0.02963685
-0.16431306
-0.032139702
-0.17173864
-0.034807469
-0.17949975
-0.037647466
-0.18761431
-0.040665584
-0.19610188
-0.043867326
-0.20498432
-0.047258256
-0.21428352
-0.05084272
-0.22402438
-0.054624836
-0.2342323
-0.058607819
-0.24493538
-0.062794422
-0.2561631
-0.067186834
-0.26794652
-0.071786718
-0.28031873
-0.076595792
-0.29331476
-0.08161471
-0.30697176
-0.086844367
-0.32132849
-0.092285516
-0.33642618
-0.097938611
-0.35230803
-0.10380364
-0.36902014
-0.10988142
-0.38661053
-0.11617243
-0.40513003
-0.1226766
-0.42463303
-0.12939435
-0.44517575
-0.13632583
-0.46681916
-0.14347122
-0.48962674
-0.15082976
-0.51366648
-0.15840162
-0.53900984
-0.16618532
-0.56573394
-0.17417936
-0.59391963
-0.18238173
-0.62365341
-0.19078917
-0.65502762
-0.19939791
-0.68814072
-0.20820238
-0.72309723
-0.21719621
-0.76000909
-0.22637123
-0.79899609
-0.23571665
-0.84018563
-0.24522046
-0.88371304
-0.25486748
-0.92972406
-0.26464
-0.9783726
-0.27451623
-1.0298231
-0.28447096
-1.0842497
-0.29447435
-1.1418374
-0.30449321
-1.2027813
-0.31448658
-1.2672948
-0.3244115
-1.3355945
-0.33422071
-1.4079227
-0.34385001
-1.484542
-0.35323722
-1.5657131
-0.36230172
-1.6517205
-0.37095608
-1.742851
-0.37910272
-1.8394067
-0.38664698
-1.9417098
-0.39345766
-2.0502094
-0.39941412
-2.1654224
-2.2871958
-0.00021211021
-0.046765873
-0.00078654579
-0.057435575
-0.0011833962
-0.056856207
-0.0018437414
-0.06100039
-0.0023563441
-0.063268109
-0.0030268072
-0.066295772
-0.0036499304
-0.069498104
-0.0043669257
-0.072567291
-0.0051122637
-0.076054559
-0.0059117681
-0.079504975
-0.0067707353
-0.083203768
-0.0076892375
-0.087026932
-0.0086757777
-0.091027729
-0.0097351587
-0.09519937
-0.010874051
-0.099551936
-0.012099158
-0.10409201
-0.013417645
-0.10882744
-0.014836826
-0.11376643
-0.016365108
-0.11891717
-0.018010381
-0.12428972
-0.019780875
-0.12989322
-0.021685454
-0.13573902
-0.023732205
-0.14183837
-0.025929771
-0.14820398
-0.0282868
-0.1548495
-0.030810614
-0.16178994
-0.033508971
-0.16904105
-0.036389077
-0.17662047
-0.039457604
-0.18454668
-0.042719702
-0.19284077
-0.046181716
-0.20152338
-0.049847421
-0.21061899
-0.053721517
-0.22015156
-0.057806711
-0.2301485
-0.062105758
-0.24063786
-0.066621531
-0.25164899
-0.0713559
-0.26321396
-0.076310352
-0.27536626
-0.081486581
-0.28814069
-0.086886357
-0.30157435
-0.092511158
-0.31570628
-0.098362744
-0.33057742
-0.10444275
-0.34623111
-0.11075373
-0.36271255
-0.11729799
-0.38006998
-0.12407787
-0.39835422
-0.13109695
-0.41761839
-0.1383577
-0.43791989
-0.14586405
-0.45931816
-0.15361928
-0.48187738
-0.16162716
-0.50566502
-0.16989054
-0.53075351
-0.17841321
-0.55721902
-0.18719842
-0.58514291
-0.19624869
-0.61461247
-0.20556644
-0.64572014
-0.21515376
-0.67856473
-0.22501143
-0.71325209
-0.23513958
-0.74989482
-0.24553698
-0.78861409
-0.25620214
-0.82953758
-0.2671304
-0.8728038
-0.27831624
-0.91855936
-0.28975177
-0.96696053
-0.30142644
-1.0181745
-0.31332683
-1.0723781
-0.32543644
-1.1297597
-0.33773309
-1.1905199
-0.35019553
-1.2548713
-0.36279436
-1.3230385
-0.37549336
-1.3952708
-0.38826324
-1.4718237
-0.40105083
-1.5529819
-0.41380058
-1.6390321
-0.42644603
-1.7302729
-0.43892594
-1.8270026
-0.45115608
-1.9295638
-0.46305289
-2.0383964
-0.47454108
-2.1540265
-2.2765126
-0.00019084711
-0.046575099
-0.000784586
-0.056841938
-0.0011775884
-0.056463308
-0.0018302614
-0.060347835
-0.0023358017
-0.062762696
-0.003012112
-0.0656196
-0.0036503259
-0.06886004
-0.0043740406
-0.071843738
-0.0051411582
-0.075287618
-0.0059621371
-0.078684185
-0.0068507105
-0.082315402
-0.0078060364
-0.086071828
-0.0088376974
-0.089996312
-0.0099517439
-0.094085586
-0.011155887
-0.09834808
-0.012457994
-0.10279021
-0.013866489
-0.10741929
-0.015390172
-0.11224311
-0.017037638
-0.11727011
-0.018818783
-0.12250902
-0.02074236
-0.12797012
-0.022817965
-0.13366394
-0.025054349
-0.13960256
-0.027460527
-0.14579842
-0.030044926
-0.15226578
-0.032815509
-0.15902009
-0.035779188
-0.16607817
-0.038942988
-0.17345755
-0.042312262
-0.18117836
-0.045892902
-0.18926117
-0.049688618
-0.19772881
-0.053703462
-0.20660538
-0.057940662
-0.21591572
-0.06240272
-0.22568792
-0.06709204
-0.23595015
-0.072010794
-0.24673199
-0.07716062
-0.25806606
-0.082543928
-0.26998504
-0.088162615
-0.2825243
-0.094019367
-0.29572011
-0.10011704
-0.30961134
-0.10645896
-0.32423849
-0.11304927
-0.33964409
-0.11989217
-0.35587324
-0.12699248
-0.3729736
-0.1343561
-0.3909949
-0.14198881
-0.40999041
-0.14989721
-0.43001667
-0.15808797
-0.45113308
-0.16656854
-0.47340305
-0.17534638
-0.49689403
-0.18442992
-0.52167749
-0.19382681
-0.54783039
-0.20354536
-0.57543345
-0.21359331
-0.60457452
-0.22397947
-0.635345
-0.23471108
-0.6678453
-0.24579593
-0.70218072
-0.25724138
-0.73846434
-0.2690543
-0.77681781
-0.28124035
-0.81737005
-0.29380479
-0.86025999
-0.30675153
-0.9056356
-0.32008302
-0.95365461
-0.33380033
-1.0044856
-0.34790217
-1.0583078
-0.36238468
-1.1153121
-0.37724121
-1.1757021
-0.39246625
-1.2396891
-0.40804228
-1.3075098
-0.42396047
-1.379405
-0.44019788
-1.4556439
-0.4567343
-1.5365086
-0.47354009
-1.6222954
-0.49057029
-1.713319
-0.50778012
-1.8098788
-0.5251151
-1.912324
-0.5425342
-2.0210735
-0.56000428
-2.1366654
-2.2594373
-0.00017240817
-0.046402767
-0.0007948068
-0.056219641
-0.0011945057
-0.056063716
-0.0018583857
-0.059684075
-0.0023766387
-0.062244573
-0.0030675834
-0.064928796
-0.0037363167
-0.068191461
-0.0044837009
-0.07109652
-0.0052909769
-0.074480525
-0.006155939
-0.077819418
-0.0070982898
-0.081373266
-0.0081179376
-0.085052411
-0.0092252091
-0.088889294
-0.010427799
-0.09288327
-0.011734743
-0.097041436
-0.013155339
-0.10136994
-0.014699312
-0.10587567
-0.016376728
-0.11056608
-0.018197818
-0.11544944
-0.020172464
-0.12053483
-0.022311023
-0.12583206
-0.02462303
-0.13135248
-0.027117613
-0.13710857
-0.029803877
-0.1431128
-0.032689522
-0.14938085
-0.035781749
-0.15592864
-0.039087675
-0.16277309
-0.042612075
-0.16993407
-0.046360087
-0.17743136
-0.050335551
-0.1852868
-0.054541809
-0.19352375
-0.058981838
-0.20216666
-0.063656951
-0.21124203
-0.068570342
-0.22077609
-0.073723418
-0.23079878
-0.079118115
-0.24133915
-0.084757318
-0.25242888
-0.09064331
-0.26410126
-0.096780283
-0.27638974
-0.10317203
-0.289331
-0.10982321
-0.30296305
-0.11673939
-0.31732547
-0.12392729
-0.33245965
-0.13139383
-0.34841049
-0.1391471
-0.36522449
-0.14719604
-0.38295052
-0.15555
-0.40164145
-0.16421914
-0.42135303
-0.17321462
-0.44214364
-0.18254764
-0.46407666
-0.19223059
-0.48721837
-0.2022753
-0.51164078
-0.2126957
-0.5374188
-0.22350462
-0.56463422
-0.23471644
-0.59337339
-0.24634464
-0.62372861
-0.25840422
-0.65579879
-0.27090943
-0.68969001
-0.28387481
-0.72551509
-0.29731579
-0.76339481
-0.31124631
-0.80345959
-0.32568107
-0.84584762
-0.34063431
-0.89070732
-0.35611951
-0.93819725
-0.37214894
-0.98848714
-0.38873457
-1.0417566
-0.4058869
-1.098198
-0.4236156
-1.1580158
-0.44192501
-1.2214267
-0.46082227
-1.2886647
-0.48031084
-1.3599742
-0.50039512
-1.4356235
-0.52107364
-1.5159005
-0.54233644
-1.6011099
-0.56417748
-1.6915638
-0.5865664
-1.7875867
-0.60948228
-1.8895145
-0.6329058
-1.9977601
-0.65685451
-2.1128444
-2.235415
-0.00015844127
-0.046244404
-0.00082272492
-0.055555463
-0.0012362149
-0.055650336
-0.0019301588
-0.058990254
-0.0024786917
-0.061696175
-0.0031983586
-0.064209275
-0.0039179864
-0.067471994
-0.0047101206
-0.070304557
-0.0055804514
-0.073610383
-0.0065165012
-0.076883571
-0.0075419054
-0.080348085
-0.0086587613
-0.083935795
-0.0098784544
-0.087669865
-0.011210743
-0.091551267
-0.012666188
-0.095586305
-0.014255831
-0.099780635
-0.015990776
-0.1041411
-0.017882211
-0.10867505
-0.019941207
-0.11339089
-0.022178503
-0.11829802
-0.024604137
-0.12340695
-0.027227953
-0.12872923
-0.03005905
-0.1342781
-0.033104859
-0.14006768
-0.036372809
-0.14611365
-0.039868773
-0.15243349
-0.043597533
-0.15904522
-0.047563346
-0.16596923
-0.051769289
-0.17322648
-0.056217663
-0.18083959
-0.060910198
-0.18883247
-0.065848969
-0.19722927
-0.071035425
-0.20605708
-0.076471333
-0.21534182
-0.082159191
-0.2251127
-0.088101692
-0.2353986
-0.094302325
-0.24623037
-0.10076621
-0.2576397
-0.10749775
-0.26966073
-0.11450405
-0.28232747
-0.12179203
-0.29567811
-0.12937105
-0.30974977
-0.13724957
-0.32458476
-0.14543844
-0.34022561
-0.15394967
-0.35671765
-0.16279493
-0.37411007
-0.17198794
-0.39245373
-0.18154316
-0.41180362
-0.19147533
-0.43221786
-0.20180082
-0.4537582
-0.21253593
-0.47649099
-0.223699
-0.50048623
-0.23530752
-0.52581965
-0.24738072
-0.55257136
-0.2599388
-0.58082673
-0.27300204
-0.61067801
-0.28659139
-0.64222348
-0.30072947
-0.67556753
-0.31543862
-0.71082333
-0.33074159
-0.74811126
-0.34666244
-0.78756045
-0.36322576
-0.82930859
-0.38045609
-0.87350412
-0.3983779
-0.92030572
-0.41701728
-0.9698815
-0.43639897
-1.0224125
-0.45654764
-1.0780911
-0.47748767
-1.1371221
-0.49924166
-1.1997242
-0.52183578
-1.2661279
-0.54529178
-1.3365818
-0.56963151
-1.4113544
-0.594879
-1.4907311
-0.62105831
-1.5750168
-0.64817991
-1.6645384
-0.67624897
-1.7596256
-0.70526027
-1.8606207
-0.73523326
-1.9679124
-0.76621079
-2.0820154
-2.2038128
-0.00015048358
-0.046094
-0.00087548966
-0.054830562
-0.0013081038
-0.055217833
-0.0020458423
-0.05825264
-0.0026453402
-0.061096814
-0.0034117015
-0.063443062
-0.0042052551
-0.066678603
-0.0050669855
-0.069443002
-0.0060260383
-0.072651524
-0.007064504
-0.075845314
-0.0082080904
-0.079204729
-0.0094624593
-0.082681675
-0.010840489
-0.086292109
-0.012353974
-0.090038079
-0.014015266
-0.093925339
-0.015836667
-0.097959588
-0.017830444
-0.10214771
-0.020008418
-0.1064975
-0.022382037
-0.11101773
-0.024961961
-0.1157186
-0.027758148
-0.12061132
-0.030779175
-0.12570881
-0.034032567
-0.13102537
-0.037525022
-0.13657595
-0.041261165
-0.14237829
-0.045245272
-0.14845024
-0.049479493
-0.15481194
-0.05396596
-0.16148378
-0.058706072
-0.16848748
-0.063700532
-0.17584634
-0.068950605
-0.18358372
-0.074457155
-0.19172416
-0.080222356
-0.20029344
-0.08624842
-0.20931746
-0.092539215
-0.21882377
-0.099098696
-0.22884115
-0.10593311
-0.23939818
-0.11304867
-0.25052657
-0.12045438
-0.26225768
-0.12815873
-0.27462603
-0.13617343
-0.2876666
-0.14450908
-0.3014176
-0.15317943
-0.31591824
-0.16219892
-0.33121032
-0.17158235
-0.34733882
-0.18134633
-0.36435116
-0.19150844
-0.3822972
-0.20208721
-0.401231
-0.21310253
-0.42120929