/*--------------------------------*- C++ -*----------------------------------*\
  =========                 |
  \\      /  F ield         | OpenFOAM: The Open Source CFD Toolbox
   \\    /   O peration     | Website:  https://openfoam.org
    \\  /    A nd           | Version:  12
     \\/     M anipulation  |
\*---------------------------------------------------------------------------*/
FoamFile
{
    format      ascii;
    class       volScalarField;
    location    "0.126";
    object      T;
}
// * * * * * * * * * * * * * * * * * * * * * * * * * * * * * * * * * * * * * //

dimensions      [0 0 0 1 0 0 0];

internalField   nonuniform List<scalar> 
16000
(
294.94078
286.55118
289.816
288.02985
289.12752
288.62456
289.0432
288.93368
289.12886
289.16269
289.28281
289.36703
289.47166
289.57367
289.6816
289.79278
289.90805
290.02724
290.15045
290.27767
290.40892
290.54419
290.68343
290.82661
290.97364
291.12443
291.27884
291.43672
291.5979
291.76215
291.92923
292.09888
292.27079
292.44464
292.62007
292.7967
292.97415
293.15199
293.32981
293.50716
293.68362
293.85875
294.03212
294.20331
294.37194
294.53761
294.7
294.85877
295.01363
295.16435
295.31071
295.45253
295.58966
295.72201
295.84951
295.97211
296.08981
296.20262
296.3106
296.41384
296.51246
296.60663
296.69653
296.78239
296.86451
296.94321
297.01885
297.09176
297.16219
297.23037
297.29662
297.36143
297.4256
297.48997
297.55515
297.62118
297.69357
297.74771
297.86708
297.87669
294.64018
286.15118
289.53545
287.67996
288.84457
288.30451
288.75835
288.63939
288.84894
288.88817
289.01522
289.10826
289.22001
289.33077
289.44706
289.56717
289.69154
289.82014
289.95301
290.09014
290.23152
290.37711
290.52686
290.68067
290.83845
291.00004
291.16528
291.33396
291.50586
291.68071
291.85822
292.03805
292.21985
292.40325
292.58782
292.77316
292.9588
293.1443
293.32919
293.51301
293.69529
293.87559
294.05347
294.22852
294.40034
294.56859
294.73293
294.89308
295.0488
295.19987
295.34614
295.48747
295.62378
295.75502
295.88116
296.00223
296.11824
296.22928
296.33542
296.4368
296.53356
296.62589
296.71398
296.7981
296.87854
296.95564
297.02977
297.10129
297.17049
297.2376
297.30289
297.36684
297.4302
297.49382
297.55844
297.62482
297.69246
297.75795
297.85069
297.89386
294.35447
285.78218
289.28582
287.37294
288.57699
288.02693
288.49442
288.3832
288.5976
288.64857
288.7811
288.88464
289.00444
289.1249
289.2507
289.38079
289.51541
289.65455
289.79821
289.94637
290.09898
290.25598
290.41728
290.58273
290.7522
290.92549
291.10237
291.2826
291.46588
291.65188
291.84024
292.03058
292.22247
292.41547
292.60911
292.80291
292.99636
293.18896
293.38022
293.56964
293.75675
293.94107
294.12218
294.29967
294.47318
294.64239
294.80701
294.9668
295.12157
295.27118
295.41552
295.55453
295.68819
295.81651
295.93952
296.0573
296.16995
296.27756
296.38029
296.47828
296.57173
296.66084
296.74583
296.82698
296.90458
296.979
297.05061
297.11979
297.18685
297.25203
297.31559
297.37795
297.4398
297.50204
297.56551
297.63066
297.69648
297.7658
297.84674
297.90336
294.09181
285.44292
289.06353
287.10268
288.34258
287.78231
288.26379
288.16188
288.38168
288.44591
288.58493
288.70018
288.82936
288.9607
289.09729
289.23858
289.38465
289.53548
289.69106
289.85133
290.01621
290.1856
290.35936
290.5373
290.71924
290.90491
291.09404
291.28629
291.48131
291.6787
291.87803
292.07882
292.28058
292.4828
292.68494
292.88646
293.08682
293.28545
293.48185
293.67548
293.86587
294.05256
294.23514
294.41324
294.58653
294.75474
294.91764
295.07507
295.22691
295.37307
295.51355
295.64834
295.7775
295.90112
296.0193
296.13218
296.2399
296.34263
296.44055
296.53384
296.62274
296.70748
296.78828
296.86544
296.93926
297.01011
297.07837
297.14444
297.20864
297.27122
297.33243
297.39263
297.45244
297.5128
297.57458
297.63793
297.70252
297.77175
297.84488
297.91211
293.85288
285.13953
288.85617
286.87749
288.15326
287.57911
288.07088
287.98277
288.20657
288.28662
288.4329
288.56117
288.70107
288.84441
288.99301
289.14663
289.30528
289.46892
289.6375
289.81095
289.98914
290.17191
290.35908
290.55042
290.74563
290.94441
291.14639
291.35116
291.55826
291.76722
291.9775
292.18855
292.3998
292.61064
292.82049
293.02874
293.23479
293.43807
293.63803
293.83415
294.02597
294.21305
294.39502
294.57158
294.74244
294.90743
295.06639
295.21925
295.36597
295.50656
295.6411
295.76968
295.89243
296.00952
296.12113
296.22745
296.32868
296.42505
296.51678
296.60408
296.68721
296.76642
296.84196
296.91413
296.98324
297.04965
297.11374
297.17593
297.23654
297.29585
297.35408
297.41153
297.46877
297.5267
297.58618
297.64733
297.71047
297.77783
297.84626
297.91952
293.64147
284.8791
288.68451
286.68973
287.98827
287.42356
287.92632
287.85199
288.0795
288.17639
288.33077
288.47284
288.62459
288.78085
288.94253
289.10956
289.28191
289.45951
289.64229
289.83009
290.02275
290.22004
290.4217
290.6274
290.83676
291.04938
291.26478
291.48245
291.70182
291.92231
292.14328
292.36409
292.58407
292.80255
293.01887
293.23238
293.44245
293.6485
293.84998
294.0464
294.23732
294.42239
294.60129
294.7738
294.93974
295.09901
295.25159
295.39749
295.53678
295.6696
295.79608
295.91644
296.0309
296.13968
296.24304
296.34124
296.43453
296.52318
296.60744
296.68757
296.76383
296.8365
296.90583
296.97213
297.0357
297.09689
297.1561
297.21371
297.27009
297.32552
297.3802
297.43438
297.48855
297.54357
297.60021
297.6588
297.72004
297.78454
297.84911
297.92651
293.46045
284.66311
288.54507
286.53829
287.85849
287.31734
287.8186
287.77228
287.99903
288.11697
288.28045
288.43708
288.60209
288.77256
288.9488
289.13078
289.31843
289.51162
289.71019
289.91391
290.12254
290.33574
290.55314
290.7743
290.99873
291.2259
291.45519
291.68597
291.91756
292.14923
292.38026
292.6099
292.83739
293.062
293.28302
293.49977
293.71163
293.91802
294.11844
294.31245
294.49971
294.67993
294.85291
295.01854
295.17678
295.32765
295.47123
295.60768
295.73719
295.85998
295.97632
296.08651
296.19083
296.28962
296.38318
296.47182
296.55584
296.63555
296.71122
296.78314
296.85157
296.9168
296.9791
297.03876
297.09607
297.15138
297.20506
297.25751
297.30908
297.36008
297.41069
297.46111
297.51177
297.5634
297.61674
297.67241
297.73126
297.79226
297.85328
297.93319
293.3077
284.48959
288.43575
286.42181
287.75861
287.24387
287.74727
287.71074
287.96804
288.10683
288.28199
288.45504
288.63576
288.82266
289.01576
289.21495
289.4201
289.63098
289.84736
290.06889
290.2952
290.52584
290.76031
290.99801
291.23831
291.48052
291.72389
291.96763
292.21092
292.45293
292.6928
292.9297
293.16281
293.39136
293.61461
293.83189
294.04262
294.24629
294.44247
294.63083
294.81114
294.98327
295.14714
295.3028
295.45036
295.58997
295.72188
295.84637
295.96374
296.07435
296.17856
296.27675
296.36929
296.45657
296.53895
296.61679
296.69041
296.76015
296.82629
296.88913
296.94895
297.00603
297.06062
297.11301
297.16348
297.21236
297.26001
297.30679
297.35307
297.39916
297.44525
297.4915
297.53826
297.58611
297.63572
297.68812
297.74411
297.8011
297.85865
297.93987
293.17831
284.35665
288.3598
286.34063
287.70767
287.24102
287.73783
287.76144
287.98999
288.14998
288.34037
288.5324
288.73179
288.93787
289.1505
289.36948
289.5946
289.82552
290.06187
290.30317
290.54891
290.79846
291.05114
291.30621
291.56283
291.82015
292.07724
292.33317
292.58697
292.83768
293.08437
293.32612
293.5621
293.79152
294.01368
294.22798
294.43392
294.6311
294.81924
294.99818
295.16785
295.32828
295.4796
295.62202
295.75582
295.88133
295.99894
296.10904
296.2121
296.30854
296.39884
296.48343
296.56277
296.63728
296.70735
296.77338
296.83571
296.89467
296.95058
297.0037
297.05432
297.10269
297.14908
297.19374
297.23695
297.27899
297.32019
297.36092
297.40154
297.44235
297.48354
297.52528
297.56781
297.61152
297.65708
297.70589
297.75855
297.81116
297.86536
297.94665
293.07157
284.26648
288.32271
286.30964
287.7108
287.27926
287.77367
287.8251
288.06917
288.2553
288.46444
288.67803
288.89909
289.12723
289.36222
289.60373
289.8514
290.10475
290.36323
290.62618
290.89288
291.16252
291.43419
291.70692
291.9797
292.25145
292.52109
292.7875
293.04961
293.30636
293.55677
293.79989
294.03493
294.26114
294.47794
294.68485
294.88154
295.06781
295.24357
295.40887
295.56387
295.70881
295.84404
295.96995
296.08701
296.19571
296.29658
296.39015
296.47697
296.55758
296.63249
296.70222
296.76725
296.82803
296.88497
296.93848
296.9889
297.03656
297.08175
297.12474
297.16578
297.20513
297.243
297.27965
297.31531
297.35025
297.38476
297.41919
297.45386
297.4891
297.52511
297.56207
297.60012
297.63943
297.68068
297.72561
297.77443
297.82239
297.8735
297.95373
292.9911
284.22699
288.33035
286.39608
287.77198
287.38092
287.86786
287.96427
288.21741
288.43126
288.66318
288.90144
289.14749
289.40088
289.6613
289.92823
290.20112
290.47926
290.76189
291.04811
291.33693
291.62728
291.91801
292.20789
292.49568
292.78011
293.05991
293.33385
293.60076
293.85955
294.10924
294.34896
294.57801
294.79583
295.00199
295.19627
295.37857
295.54894
295.70759
295.85482
295.99103
296.11672
296.23245
296.33881
296.43643
296.52596
296.60805
296.68332
296.75241
296.81592
296.87439
296.92838
296.97838
297.02483
297.06818
297.10878
297.14698
297.18307
297.21734
297.25002
297.28135
297.31153
297.34078
297.3693
297.39731
297.42503
297.45274
297.48073
297.50932
297.53881
297.56945
297.60142
297.63479
297.66954
297.70636
297.74715
297.79155
297.83465
297.8832
297.96115
292.94324
284.25108
288.39106
286.53313
287.87965
287.55147
288.03199
288.17346
288.44343
288.68768
288.94677
289.21335
289.48805
289.77023
290.05938
290.35474
290.65549
290.96063
291.2691
291.57966
291.89103
292.20181
292.51055
292.81578
293.11601
293.40981
293.69577
293.9726
294.23913
294.49433
294.73733
294.96746
295.18424
295.38738
295.57677
295.7525
295.91481
296.06407
296.2008
296.32559
296.43913
296.54213
296.63536
296.7196
296.7956
296.86414
296.92594
296.9817
297.03209
297.07773
297.11919
297.15701
297.19167
297.22362
297.25323
297.28088
297.30685
297.33142
297.35482
297.37727
297.39895
297.42005
297.44074
297.4612
297.4816
297.50215
297.52307
297.54463
297.5671
297.59078
297.61595
297.64282
297.67136
297.70147
297.73386
297.77031
297.80972
297.84783
297.89456
297.96872
292.93286
284.34479
288.51503
286.72187
288.05159
287.79812
288.2748
288.46514
288.75763
289.03559
289.32667
289.62588
289.9334
290.24826
290.56964
290.89644
291.22747
291.56134
291.89657
292.23155
292.56461
292.89401
293.21802
293.5349
293.843
294.14077
294.42679
294.69982
294.95883
295.20299
295.43175
295.64474
295.84188
296.02328
296.18924
296.34025
296.47694
296.60005
296.71041
296.80891
296.89646
296.974
297.04244
297.10269
297.15561
297.20202
297.2427
297.27836
297.30967
297.33723
297.36161
297.38331
297.40277
297.42039
297.43653
297.45149
297.46553
297.47887
297.49171
297.50421
297.51653
297.52881
297.54119
297.5538
297.56681
297.58036
297.59465
297.60989
297.62633
297.64425
297.66395
297.68566
297.70931
297.73477
297.76284
297.79482
297.82875
297.8618
297.90722
297.97681
292.96193
284.51564
288.70737
286.99613
288.29828
288.12872
288.60678
288.8492
289.17188
289.48815
289.81674
290.15365
290.49863
290.85028
291.20733
291.56818
291.93113
292.2943
292.65575
293.01342
293.36524
293.70915
294.04316
294.36538
294.67411
294.96784
295.24531
295.50555
295.74787
295.97189
296.1775
296.36488
296.53443
296.68679
296.82274
296.94322
297.04923
297.14187
297.22225
297.2915
297.3507
297.40094
297.44323
297.47853
297.50773
297.53168
297.55112
297.56675
297.57921
297.58905
297.59678
297.60284
297.60763
297.61149
297.61472
297.61756
297.62022
297.62287
297.62566
297.62871
297.63213
297.63602
297.64048
297.64562
297.65155
297.65841
297.66634
297.67551
297.68612
297.69844
297.71276
297.72931
297.74803
297.76893
297.79284
297.82031
297.84848
297.8765
297.92079
297.98525
293.03529
284.77668
288.97155
287.35732
288.63164
288.55485
289.04167
289.34038
289.70183
290.06239
290.43471
290.81488
291.20207
291.59427
291.98958
292.38578
292.78056
293.17149
293.55609
293.93187
294.2964
294.64739
294.98275
295.30065
295.59955
295.87829
296.13605
296.3724
296.58727
296.78091
296.9539
297.10704
297.24134
297.35797
297.4582
297.54336
297.61481
297.6739
297.72195
297.76023
297.78992
297.81216
297.82797
297.83832
297.84407
297.84599
297.84481
297.84114
297.83554
297.8285
297.82044
297.81176
297.80276
297.79372
297.78487
297.7764
297.76845
297.76115
297.75459
297.74884
297.74396
297.74003
297.73709
297.73524
297.73454
297.73511
297.73705
297.74048
297.74556
297.75253
297.76166
297.77314
297.78696
297.80338
297.82329
297.8463
297.86868
297.89183
297.93458
297.99455
293.15729
285.14625
289.30406
287.81974
289.06541
289.09174
289.59765
289.95847
290.36836
290.78033
291.20282
291.63154
292.06479
292.49984
292.934
293.36432
293.7878
294.20142
294.60219
294.98729
295.35413
295.70046
296.0244
296.32454
296.59994
296.85012
297.07507
297.27521
297.4513
297.60441
297.73586
297.84712
297.93978
298.01549
298.07591
298.12267
298.15734
298.18142
298.1963
298.2033
298.20361
298.19831
298.18839
298.17472
298.15808
298.13916
298.11858
298.09687
298.07448
298.05181
298.02921
298.00697
297.98533
297.96449
297.94461
297.92581
297.9082
297.89182
297.87672
297.86293
297.85048
297.83938
297.82967
297.82139
297.81459
297.80934
297.80573
297.80382
297.80375
297.80571
297.80992
297.81649
297.82552
297.83757
297.85356
297.87216
297.88904
297.90777
297.94843
298.00455
293.33252
285.65364
289.71122
288.40114
289.6207
289.76251
290.30039
290.7304
291.19837
291.66878
292.14691
292.62782
293.10874
293.58601
294.056
294.51493
294.95912
295.38502
295.7894
296.16945
296.52287
296.84794
297.14357
297.40929
297.6452
297.85194
298.03057
298.18255
298.30956
298.41351
298.49641
298.56028
298.60715
298.63901
298.65771
298.66504
298.66262
298.65196
298.63442
298.61123
298.5835
298.5522
298.51818
298.48221
298.44493
298.40692
298.36866
298.33058
298.29302
298.25628
298.22061
298.18622
298.15327
298.12188
298.09214
298.06413
298.03787
298.01338
297.99065
297.96967
297.95041
297.93288
297.91707
297.90298
297.89066
297.88014
297.87146
297.86468
297.85988
297.85722
297.85683
297.85876
297.86319
297.87099
297.883
297.89714
297.90905
297.92434
297.96278
298.01314
293.57226
286.34563
290.23647
289.13253
290.32827
290.59831
291.18232
291.68835
292.22277
292.75722
293.2942
293.82783
294.35392
294.86767
295.36442
295.83965
296.28928
296.70973
297.09817
297.45252
297.77154
298.05478
298.30256
298.51585
298.69618
298.84548
298.96602
299.06021
299.13061
299.17973
299.21007
299.22399
299.22374
299.21139
299.18884
299.15781
299.11985
299.07634
299.0285
298.97739
298.92396
298.86902
298.81326
298.75728
298.7016
298.64663
298.59274
298.54022
298.48932
298.44024
298.39313
298.34811
298.30526
298.26464
298.22629
298.19021
298.15638
298.12478
298.09535
298.06804
298.04281
298.0196
297.99839
297.97916
297.96192
297.94667
297.93345
297.92227
297.9132
297.90635
297.90174
297.89937
297.89953
297.90323
297.91109
297.92055
297.92802
297.94107
297.9778
298.01982
293.90301
287.20842
290.90661
290.05103
291.22572
291.63379
292.27949
292.86817
293.47538
294.07669
294.67137
295.25221
295.81341
296.34908
296.85393
297.32341
297.75394
298.14303
298.48927
298.79236
299.05296
299.27257
299.45335
299.59795
299.70935
299.79072
299.84525
299.87612
299.88635
299.87881
299.85615
299.82079
299.77493
299.72052
299.65931
299.59282
299.52239
299.44919
299.3742
299.29829
299.2222
299.14653
299.07181
298.99847
298.92686
298.85727
298.78994
298.72504
298.66272
298.60307
298.54616
298.49204
298.44073
298.39222
298.34648
298.30348
298.26315
298.22542
298.19022
298.15745
298.12703
298.0989
298.073
298.04928
298.02772
298.00832
297.99107
297.97597
297.96309
297.95247
297.94406
297.93781
297.93412
297.93398
297.93756
297.94211
297.94547
297.957
297.99261
298.02696
294.3649
288.18125
291.76392
291.19209
292.35676
292.91058
293.63457
294.31156
294.9932
295.65699
296.29854
296.90937
297.48267
298.0125
298.49433
298.92514
299.30345
299.62919
299.90363
300.12904
300.30852
300.44571
300.54459
300.60927
300.64382
300.65218
300.63807
300.60493
300.55588
300.49374
300.42101
300.3399
300.25235
300.16002
300.06436
299.9666
299.86781
299.76886
299.67051
299.57338
299.47799
299.38476
299.29403
299.20607
299.12109
299.03925
298.96066
298.88541
298.81353
298.74504
298.67994
298.61821
298.5598
298.50466
298.45271
298.40388
298.35805
298.31515
298.27504
298.23763
298.20281
298.17047
298.14055
298.11297
298.08769
298.06467
298.04389
298.02535
298.00909
297.9951
297.98328
297.97362
297.96657
297.96294
297.96236
297.96204
297.96144
297.97136
298.00505
298.0339
295.0134
289.43725
292.85574
292.6074
293.78177
294.48663
295.29996
296.06299
296.80775
297.51354
298.17327
298.77869
299.3241
299.80583
300.22239
300.57427
300.86363
301.09397
301.26973
301.39595
301.47795
301.52111
301.53061
301.51136
301.46789
301.40432
301.32431
301.23111
301.12755
301.01608
300.89882
300.77757
300.65386
300.52899
300.40403
300.27989
300.15732
300.03692
299.9192
299.80454
299.69327
299.58562
299.48177
299.38185
299.28594
299.19409
299.10631
299.0226
298.9429
298.86719
298.79538
298.72739
298.66315
298.60253
298.54545
298.49177
298.44138
298.39415
298.34995
298.30865
298.27012
298.23425
298.20094
298.17008
298.14162
298.1155
298.09167
298.07013
298.0509
298.03391
298.01906
298.00641
297.99645
297.98973
297.98534
297.98064
297.97648
297.98421
298.01453
298.03978
295.90538
291.0361
294.26709
294.3762
295.57933
296.42907
297.32323
298.14828
298.92021
299.62222
300.24811
300.79321
301.2563
301.63878
301.94432
302.17825
302.34699
302.45755
302.51711
302.53268
302.5109
302.45788
302.37912
302.2795
302.16331
302.03423
301.89542
301.74958
301.59898
301.44552
301.29079
301.1361
300.98254
300.831
300.68218
300.53668
300.39493
300.2573
300.12405
299.99539
299.87144
299.7523
299.638
299.52856
299.42395
299.32412
299.229
299.13852
299.05257
298.97105
298.89384
298.82081
298.75183
298.68678
298.6255
298.56787
298.51373
298.46294
298.41536
298.37083
298.32923
298.2904
298.25425
298.22064
298.1895
298.16074
298.13431
298.11018
298.08834
298.06871
298.05118
298.03591
298.02339
298.01387
298.00609
297.99776
297.99075
297.99593
298.02137
298.04259
297.02429
293.10193
296.10323
296.58192
297.81587
298.78185
299.71195
300.53922
301.27022
301.89627
302.41745
302.83666
303.16001
303.39565
303.55292
303.64166
303.67159
303.65196
303.59122
303.49698
303.3759
303.23372
303.07538
302.90501
302.72609
302.54151
302.35365
302.16448
301.9756
301.7883
301.60362
301.4224
301.24529
301.0728
300.90533
300.74317
300.58651
300.4355
300.29022
300.1507
300.01693
299.88887
299.76647
299.64962
299.53823
299.43217
299.33132
299.23553
299.14466
299.05855
298.97705
298.9
298.82725
298.75862
298.69397
298.63313
298.57594
298.52225
298.47188
298.4247
298.38054
298.33927
298.30075
298.26485
298.23146
298.20048
298.17185
298.14551
298.12142
298.09946
298.0796
298.06202
298.04719
298.03506
298.0242
298.01285
298.00369
298.00657
298.02667
298.04103
298.54362
295.74712
298.45968
299.27813
300.4878
301.51458
302.39172
303.12407
303.72076
304.18568
304.52934
304.76415
304.90394
304.96266
304.95364
304.88909
304.77984
304.63532
304.46353
304.27118
304.06386
303.84612
303.62171
303.39364
303.16434
302.93577
302.70946
302.48664
302.26825
302.05503
301.84754
301.64619
301.45128
301.263
301.08148
300.90679
300.73892
300.57785
300.42351
300.27581
300.13462
299.99982
299.87126
299.74877
299.6322
299.52136
299.41609
299.31619
299.22149
299.1318
299.04694
298.96672
298.89096
298.81949
298.75213
298.6887
298.62904
298.57296
298.52032
298.47094
298.42467
298.38135
298.34085
298.30302
298.26775
298.23491
298.20443
298.17623
298.15022
298.12629
298.10441
298.08483
298.06788
298.05328
298.03962
298.02579
298.01499
298.01559
298.02992
298.03687
300.50805
299.04185
301.33348
302.44019
303.61977
304.48107
305.18492
305.70991
306.07855
306.30927
306.4233
306.44077
306.38024
306.25803
306.08807
305.88199
305.64933
305.39779
305.13357
304.86157
304.58568
304.30892
304.03367
303.76175
303.49457
303.2332
302.97843
302.73083
302.49082
302.25868
302.03458
301.81859
301.61074
301.41099
301.21926
301.03545
300.8594
300.69098
300.52999
300.37625
300.22958
300.08977
299.95661
299.82989
299.7094
299.59493
299.48627
299.38321
299.28554
299.19306
299.10555
299.02282
298.94468
298.87093
298.80138
298.73585
298.67416
298.61613
298.5616
298.51039
298.46234
298.4173
298.37512
298.33565
298.29877
298.26435
298.23231
298.20254
298.17491
298.14933
298.12579
298.10451
298.08565
298.06878
298.05271
298.03702
298.02497
298.02292
298.03037
298.0316
302.94464
302.97283
304.97085
305.94041
306.83137
307.4402
307.84544
308.06829
308.14509
308.10544
307.9761
307.77913
307.53254
307.25061
306.94453
306.62296
306.29256
305.95837
305.62423
305.29301
304.96684
304.64732
304.33558
304.03243
303.73843
303.45394
303.17916
302.9142
302.65905
302.41366
302.17791
301.95165
301.73469
301.52684
301.32787
301.13756
300.95565
300.78192
300.6161
300.45796
300.30723
300.16369
300.02707
299.89715
299.77367
299.6564
299.5451
299.43956
299.33953
299.24481
299.15517
299.0704
298.9903
298.91467
298.8433
298.77601
298.71262
298.65294
298.59679
298.54401
298.49443
298.44789
298.40424
298.36334
298.32505
298.28925
298.25584
298.22469
298.19569
298.16874
298.14384
298.12113
298.10061
298.08181
298.06381
298.04668
298.03335
298.02846
298.031
298.02362
305.99638
307.38163
308.70366
309.4024
309.87859
310.0877
310.11181
309.99259
309.77059
309.47603
309.13227
308.75664
308.36198
307.95764
307.55039
307.14511
306.74527
306.35331
305.97093
305.59926
305.23904
304.89071
304.55449
304.23044
303.91851
303.61856
303.33039
303.05377
302.78842
302.53405
302.29037
302.05705
301.83379
301.62028
301.4162
301.22124
301.0351
300.85748
300.68809
300.52663
300.37283
300.2264
300.08709
299.95461
299.82873
299.70918
299.59572
299.4881
299.38609
299.28947
299.198
299.11148
299.02968
298.9524
298.87943
298.81059
298.74569
298.68453
298.62694
298.57275
298.52179
298.4739
298.42893
298.38673
298.34716
298.31011
298.27545
298.24307
298.21285
298.1847
298.15861
298.13464
298.11269
298.09241
298.07325
298.0554
298.04064
298.03135
298.02607
298.01494
309.93009
311.7084
312.2465
312.43234
312.37816
312.14527
311.79577
311.37189
310.90365
310.41165
309.90987
309.40773
308.91149
308.42524
307.95164
307.49229
307.04815
306.61968
306.20701
305.81007
305.42863
305.06238
304.71093
304.37385
304.05071
303.74105
303.44441
303.16036
302.88845
302.62825
302.37934
302.14133
301.91381
301.6964
301.48875
301.2905
301.1013
300.92083
300.74876
300.58478
300.42859
300.2799
300.13843
300.00389
299.87603
299.75457
299.63928
299.52989
299.42618
299.3279
299.23484
299.14676
299.06345
298.9847
298.9103
298.84007
298.77381
298.71133
298.65244
298.59698
298.54478
298.49568
298.44952
298.40615
298.36544
298.32726
298.29149
298.258
298.2267
298.19749
298.17034
298.14521
298.122
298.10043
298.08027
298.06173
298.04586
298.03374
298.02407
298.01116
314.87227
315.24098
314.97104
314.60338
314.08222
313.49097
312.86499
312.22977
311.59941
310.98248
310.38371
309.80566
309.2495
308.71556
308.20366
307.71333
307.24389
306.79461
306.3647
305.95336
305.5598
305.18327
304.82303
304.47839
304.14867
303.83325
303.53154
303.24297
302.967
302.70313
302.45088
302.20979
301.97943
301.75938
301.54925
301.34866
301.15724
300.97466
300.80056
300.63464
300.47658
300.32608
300.18286
300.04662
299.91711
299.79405
299.67719
299.56628
299.46107
299.36134
299.26685
299.17738
299.09271
299.01264
298.93695
298.86545
298.79795
298.73426
298.67419
298.61758
298.56424
298.51403
298.46678
298.42234
298.38059
298.34138
298.30459
298.2701
298.23782
298.20766
298.17953
298.15338
298.12907
298.10651
298.08561
298.0665
298.04942
298.0345
298.02113
298.00777
316.86216
317.02829
316.45448
315.69433
314.9172
314.13918
313.38042
312.64852
311.94688
311.27649
310.63702
310.02753
309.44674
308.89325
308.36563
307.86249
307.3825
306.9244
306.48702
306.06928
305.67017
305.28874
304.92413
304.57553
304.2422
303.92345
303.61861
303.3271
303.04833
302.78179
302.52695
302.28337
302.05057
301.82815
301.6157
301.41282
301.21917
301.03438
300.85812
300.69007
300.52991
300.37734
300.23208
300.09384
299.96235
299.83735
299.71858
299.6058
299.49877
299.39724
299.301
299.20981
299.12347
299.04176
298.96448
298.89143
298.82242
298.75725
298.69576
298.63776
298.58308
298.53155
298.48303
298.43737
298.39441
298.35404
298.31612
298.28055
298.24722
298.21604
298.18692
298.15976
298.13446
298.11101
298.08946
298.06977
298.05168
298.03479
298.01924
298.00609
310.56408
309.2621
305.60623
302.72431
301.44743
301.15947
301.09166
301.08864
300.97783
300.92067
300.8158
300.74753
300.66167
300.57564
300.48986
300.40361
300.31671
300.2291
300.14081
300.0519
299.96246
299.87259
299.78241
299.69207
299.6017
299.51143
299.42141
299.33178
299.24266
299.1542
299.06652
298.97976
298.89404
298.80948
298.72623
298.64439
298.56409
298.48546
298.40863
298.33372
298.26085
298.19015
298.12175
298.05578
297.99236
297.93162
297.87368
297.81867
297.7667
297.71788
297.67234
297.63016
297.59144
297.55627
297.52472
297.49686
297.47272
297.45234
297.43571
297.42284
297.41373
297.40838
297.40674
297.40875
297.41446
297.42379
297.43701
297.45358
297.47467
297.49751
297.52717
297.55321
297.59416
297.61844
297.6785
297.69405
297.78668
297.79151
297.91175
297.93405
309.77764
306.87259
302.71859
300.66477
300.09448
300.0953
300.19577
300.207
300.20158
300.17587
300.15277
300.11522
300.07253
300.02514
299.97387
299.91883
299.86045
299.79901
299.73485
299.66827
299.59956
299.52899
299.4568
299.38326
299.30859
299.23302
299.15675
299.07999
299.00296
298.92583
298.8488
298.77204
298.69575
298.62009
298.54523
298.47134
298.39859
298.32714
298.25715
298.18878
298.12218
298.05752
297.99494
297.93459
297.87663
297.82119
297.76842
297.71845
297.67141
297.62743
297.58663
297.54909
297.51494
297.48425
297.45709
297.43353
297.4136
297.39731
297.38467
297.37567
297.3703
297.36854
297.37034
297.37564
297.38445
297.39673
297.41269
297.43189
297.45528
297.4805
297.51189
297.54029
297.58229
297.60902
297.66912
297.68752
297.77981
297.78653
297.90901
297.92877
308.37912
304.8151
301.73085
300.03346
299.70431
299.74452
299.77864
299.75307
299.72502
299.69274
299.66127
299.62671
299.59048
299.55131
299.50997
299.46623
299.42032
299.37221
299.32198
299.26975
299.21561
299.15968
299.1021
299.043
298.98253
298.92083
298.85808
298.79444
298.73007
298.66516
298.59987
298.53439
298.46891
298.40359
298.33864
298.27423
298.21054
298.14776
298.08607
298.02566
297.9667
297.90937
297.85385
297.8003
297.7489
297.69981
297.65319
297.60918
297.56794
297.52959
297.49426
297.46208
297.43312
297.4075
297.38528
297.36652
297.35125
297.33948
297.33121
297.32641
297.32509
297.3272
297.33267
297.34146
297.35356
297.36894
297.38777
297.40969
297.43552
297.46312
297.49641
297.5271
297.57036
297.59934
297.66007
297.68087
297.77316
297.78159
297.90613
297.92378
307.19927
303.38244
300.56414
299.28302
299.23371
299.24996
299.26726
299.23188
299.21386
299.18524
299.16166
299.13295
299.10403
299.07315
299.04117
299.00755
298.97248
298.9358
298.89753
298.85767
298.81623
298.77324
298.72875
298.68281
298.63551
298.58692
298.53716
298.48632
298.43454
298.38196
298.32871
298.27495
298.22085
298.16658
298.1123
298.05821
298.00448
297.95131
297.89888
297.84739
297.79703
297.74799
297.70046
297.65463
297.61067
297.56878
297.52913
297.49187
297.45716
297.42515
297.39597
297.36975
297.34659
297.32658
297.3098
297.29631
297.28613
297.27928
297.27573
297.27546
297.27847
297.2847
297.29408
297.30655
297.32211
297.34073
297.36257
297.38729
297.41564
297.44568
297.48097
297.51388
297.55857
297.58965
297.65137
297.6742
297.76665
297.7767
297.9032
297.91896
306.50868
302.18072
299.60998
298.66085
298.73815
298.71295
298.7393
298.70311
298.69666
298.67271
298.65769
298.63622
298.61606
298.59409
298.57152
298.54771
298.52283
298.49671
298.46935
298.4407
298.41073
298.37945
298.34684
298.31293
298.27774
298.24131
298.20371
298.16499
298.12526
298.08459
298.04312
298.00095
297.95823
297.9151
297.87172
297.82825
297.78487
297.74176
297.6991
297.65709
297.61592
297.57579
297.53689
297.49942
297.46357
297.42953
297.39748
297.36759
297.34002
297.31494
297.29247
297.27275
297.25589
297.24197
297.23108
297.22327
297.21857
297.21698
297.21847
297.22302
297.23062
297.2412
297.25469
297.27102
297.2902
297.31219
297.33713
297.36474
297.39568
297.42818
297.46555
297.50066
297.54691
297.57998
297.64273
297.66754
297.76042
297.7719
297.90028
297.91432
305.94499
301.00278
298.81596
298.06423
298.21192
298.15715
298.20332
298.16778
298.17614
298.15887
298.15483
298.14202
298.13157
298.11903
298.10613
298.09211
298.07711
298.06104
298.04386
298.02556
298.00611
297.9855
297.9637
297.94073
297.91659
297.89131
297.86491
297.83743
297.80894
297.77951
297.74921
297.71814
297.68641
297.65414
297.62147
297.58855
297.55552
297.52256
297.48985
297.45756
297.42588
297.395
297.36512
297.33644
297.30914
297.28341
297.25945
297.23741
297.21747
297.19979
297.1845
297.17174
297.16161
297.1542
297.14959
297.14783
297.14895
297.15294
297.15976
297.16939
297.1818
297.19694
297.21472
297.23507
297.25799
297.28345
297.31159
297.34216
297.37575
297.41075
297.45022
297.48753
297.5354
297.57042
297.63414
297.66096
297.75439
297.76724
297.89738
297.90985
305.37285
299.96322
298.1726
297.52043
297.71509
297.63457
297.70021
297.66312
297.68382
297.67107
297.67599
297.67032
297.66776
297.66287
297.6579
297.65199
297.64529
297.63773
297.62927
297.61988
297.60954
297.59822
297.58591
297.57259
297.55825
297.54291
297.52656
297.50925
297.49101
297.47187
297.45191
297.43119
297.4098
297.38785
297.36544
297.3427
297.31976
297.29679
297.27392
297.25134
297.22921
297.20772
297.18705
297.16739
297.14891
297.13181
297.11626
297.10244
297.0905
297.08059
297.07285
297.06741
297.06438
297.06383
297.06584
297.07045
297.07768
297.08751
297.09991
297.11484
297.13228
297.15215
297.17437
297.19887
297.22564
297.25467
297.28608
297.31966
297.35593
297.39344
297.43504
297.47452
297.52403
297.56104
297.62581
297.65454
297.74856
297.76277
297.89446
297.90556
304.89953
299.02227
297.62874
297.02262
297.25655
297.15097