/*--------------------------------*- C++ -*----------------------------------*\
  =========                 |
  \\      /  F ield         | OpenFOAM: The Open Source CFD Toolbox
   \\    /   O peration     | Website:  https://openfoam.org
    \\  /    A nd           | Version:  12
     \\/     M anipulation  |
\*---------------------------------------------------------------------------*/
FoamFile
{
    format      ascii;
    class       volScalarField;
    location    "0.053";
    object      k;
}
// * * * * * * * * * * * * * * * * * * * * * * * * * * * * * * * * * * * * * //

dimensions      [0 2 -2 0 0 0 0];

internalField   nonuniform List<scalar> 
16000
(
0.04876255
0.021630992
0.022536747
0.016617436
0.014088074
0.012750392
0.011956891
0.011482097
0.011160764
0.010944511
0.010784971
0.010666365
0.010573848
0.010500669
0.010441855
0.010394384
0.010355701
0.010324041
0.010298254
0.010277017
0.010259884
0.010245858
0.010234645
0.010225851
0.010218996
0.010213894
0.010210284
0.010208013
0.010206939
0.01020693
0.010207865
0.010209643
0.010212184
0.010215424
0.010219308
0.010223784
0.010228801
0.010234309
0.01024026
0.010246606
0.010253294
0.010260265
0.010267462
0.010274824
0.010282274
0.010289729
0.010297105
0.010304318
0.010311277
0.010317892
0.010324062
0.010329679
0.01033462
0.010338735
0.010341847
0.010343739
0.010344155
0.010342812
0.010339442
0.010333858
0.010326024
0.01031611
0.010304526
0.01029191
0.010279172
0.0102674
0.010257615
0.01025049
0.010246147
0.01024399
0.010242145
0.010236499
0.01022224
0.010203991
0.010175175
0.010135042
0.010090173
0.010016974
0.010007562
0.010068684
0.045882607
0.020480876
0.021096143
0.016070264
0.013746
0.012551715
0.011797475
0.011369031
0.011063171
0.010864199
0.01071496
0.010605121
0.010519039
0.01045136
0.010397032
0.010353416
0.010318084
0.010289314
0.010266162
0.010247211
0.010232217
0.01022013
0.010210676
0.010203558
0.010198258
0.010194624
0.010192394
0.010191418
0.010191563
0.010192704
0.010194722
0.010197516
0.010201004
0.01020512
0.010209808
0.010215014
0.010220689
0.010226783
0.010233245
0.010240032
0.010247092
0.010254368
0.010261804
0.010269342
0.010276914
0.010284438
0.01029183
0.010299008
0.010305885
0.010312368
0.010318359
0.010323753
0.010328424
0.010332233
0.010335012
0.010336566
0.010336661
0.010335042
0.010331454
0.010325723
0.010317827
0.010307958
0.010296549
0.010284231
0.010271854
0.010260407
0.010250784
0.010243526
0.010238692
0.010235801
0.010233335
0.010227407
0.010212775
0.010194012
0.010164657
0.010125196
0.010078639
0.01001733
0.010008895
0.010058161
0.042484542
0.019671024
0.019765802
0.015508103
0.013395146
0.012327081
0.011631813
0.011245355
0.010963096
0.010782365
0.010644342
0.010543735
0.010464577
0.010402702
0.010353182
0.010313662
0.010281913
0.010256222
0.010235889
0.010219378
0.010206657
0.010196644
0.010189064
0.010183718
0.010180065
0.010177977
0.010177202
0.010177591
0.010179015
0.010181359
0.010184506
0.010188355
0.010192824
0.010197842
0.010203353
0.010209301
0.010215637
0.01022231
0.01022927
0.010236471
0.010243866
0.010251398
0.010259014
0.010266658
0.010274267
0.010281763
0.010289067
0.010296097
0.010302769
0.010308993
0.010314674
0.010319705
0.010323968
0.010327325
0.01032962
0.010330674
0.01033028
0.01032821
0.010324231
0.010318182
0.010310051
0.01030005
0.010288637
0.010276448
0.010264296
0.010253079
0.010243568
0.010236185
0.010230939
0.010227432
0.010224415
0.010218352
0.010203515
0.010184207
0.010154349
0.010114768
0.010069312
0.010018606
0.010009396
0.010048597
0.03864175
0.01912153
0.018625234
0.015003994
0.013077493
0.012124234
0.011480092
0.011132563
0.010871194
0.010707036
0.010579741
0.01048768
0.010415137
0.010358759
0.010313841
0.010278245
0.010249961
0.010227227
0.010209645
0.010195504
0.010184997
0.010177022
0.010171283
0.010167673
0.010165643
0.010165072
0.010165726
0.010167455
0.010170132
0.010173648
0.010177889
0.010182755
0.010188159
0.010194029
0.010200305
0.010206931
0.010213856
0.010221029
0.010228399
0.010235919
0.010243546
0.010251225
0.010258906
0.010266535
0.010274057
0.010281398
0.010288484
0.010295236
0.010301575
0.010307415
0.010312663
0.010317218
0.010320965
0.010323771
0.010325492
0.010325963
0.010325004
0.010322413
0.010317979
0.01031155
0.010303119
0.010292902
0.010281365
0.01026915
0.010257034
0.010245842
0.010236253
0.010228616
0.01022294
0.010218924
0.01021549
0.01020927
0.010194349
0.010174554
0.01014424
0.01010455
0.010061202
0.010020778
0.010011064
0.010037779
0.035757493
0.018811527
0.01765231
0.014536517
0.012781477
0.011932142
0.011337662
0.011026059
0.010785335
0.010636717
0.010519953
0.010436058
0.010369997
0.010318963
0.010278565
0.010246811
0.010221957
0.010202131
0.010187284
0.010175501
0.010167193
0.010161255
0.010157382
0.010155489
0.010155101
0.010156033
0.010158115
0.010161179
0.0101651
0.010169772
0.010175084
0.010180933
0.010187232
0.010193905
0.010200888
0.010208124
0.010215559
0.010223144
0.010230827
0.010238563
0.010246308
0.010254014
0.010261632
0.010269114
0.01027641
0.010283456
0.010290182
0.010296514
0.01030238
0.010307698
0.010312381
0.010316332
0.010319441
0.010321583
0.010322622
0.010322411
0.010320789
0.010317579
0.010312592
0.010305686
0.010296853
0.010286306
0.010274512
0.010262114
0.010249868
0.010238549
0.010228776
0.010220871
0.010214873
0.010210547
0.010206887
0.01020063
0.010185706
0.01016526
0.010134344
0.010094686
0.010054125
0.010023606
0.010014558
0.010029939
0.033727159
0.018743214
0.016923429
0.01410794
0.012508888
0.011753294
0.011205906
0.010927295
0.010706444
0.010572159
0.010465618
0.010389436
0.010329651
0.010283772
0.010247768
0.010219748
0.010198273
0.01018129
0.01016915
0.010159714
0.010153588
0.010149669
0.010147756
0.010147501
0.010148818
0.010151192
0.010154693
0.010159078
0.010164221
0.010170017
0.010176356
0.010183136
0.010190265
0.010197663
0.010205265
0.010213011
0.010220847
0.010228723
0.01023659
0.010244404
0.010252124
0.010259707
0.01026711
0.010274289
0.010281203
0.010287796
0.010294005
0.010299765
0.010305008
0.010309662
0.010313644
0.010316864
0.010319217
0.010320587
0.010320845
0.010319859
0.010317488
0.010313573
0.010307949
0.010300479
0.010291153
0.010280174
0.010268008
0.010255296
0.010242785
0.010231222
0.010221206
0.010213072
0.010206902
0.010202479
0.010198726
0.01019236
0.01017732
0.010155965
0.010124349
0.010085075
0.010047666
0.01002673
0.010019065
0.010019835
0.031241576
0.018841385
0.016409567
0.01371484
0.012257578
0.011587053
0.011084629
0.010836149
0.01063445
0.010513322
0.010416668
0.010347804
0.010294106
0.010253232
0.010221536
0.010197174
0.01017906
0.010164894
0.010155441
0.010148396
0.010144447
0.010142509
0.010142935
0.01014402
0.010146883
0.010150877
0.010155782
0.010161467
0.010167799
0.01017467
0.010181975
0.010189608
0.010197475
0.010205493
0.010213596
0.010221721
0.010229815
0.01023783
0.01024572
0.010253445
0.010260967
0.010268253
0.010275264
0.010281965
0.010288322
0.010294291
0.010299817
0.010304844
0.010309312
0.010313156
0.010316301
0.010318661
0.010320142
0.010320632
0.010320014
0.010318166
0.010314962
0.010310265
0.010303922
0.010295808
0.010285903
0.010274405
0.010261771
0.010248646
0.010235777
0.01022391
0.010213655
0.010205382
0.010199201
0.010194843
0.010191032
0.010184362
0.010168886
0.010146315
0.01011401
0.010075703
0.010042038
0.010029954
0.010024508
0.010010748
0.028722971
0.019032336
0.015992766
0.013354778
0.012026094
0.011433238
0.010973387
0.010752504
0.01056904
0.010460105
0.01037304
0.010311207
0.010263459
0.010227501
0.010200074
0.010179338
0.010164585
0.01015327
0.010146423
0.010141937
0.010140099
0.010140019
0.010142074
0.010145478
0.010149972
0.010155448
0.010161736
0.010168678
0.01017614
0.010184011
0.010192185
0.010200558
0.010209033
0.010217525
0.010225968
0.010234299
0.010242468
0.01025043
0.010258146
0.010265581
0.010272704
0.01027949
0.010285912
0.010291941
0.010297554
0.010302717
0.010307389
0.01031152
0.01031506
0.010317951
0.010320125
0.010321507
0.010322004
0.010321517
0.010319933
0.010317143
0.010313034
0.010307486
0.01030036
0.010291534
0.010280987
0.010268903
0.010255738
0.010242143
0.010228873
0.010216692
0.010206241
0.010197921
0.010191833
0.010187568
0.010183546
0.010176153
0.010159831
0.010135883
0.0101032
0.010066764
0.010038216
0.010032403
0.010030385
0.010005295
0.026920408
0.019224622
0.01550964
0.013024605
0.011812844
0.011291091
0.010871447
0.010675539
0.010510259
0.010412749
0.010334972
0.01027995
0.010238039
0.010206937
0.010183766
0.010166648
0.010155206
0.010146882
0.010142244
0.010140665
0.010139195
0.01014347
0.010147191
0.010152243
0.010158354
0.010165304
0.010172917
0.01018104
0.010189534
0.010198285
0.010207187
0.010216137
0.01022504
0.010233811
0.010242383
0.0102507
0.010258715
0.010266392
0.010273698
0.010280608
0.010287103
0.010293167
0.010298783
0.010303935
0.010308609
0.010312785
0.010316432
0.010319509
0.010321974
0.010323779
0.010324862
0.010325155
0.010324572
0.010323018
0.010320393
0.010316593
0.010311519
0.010305064
0.010297104
0.01028752
0.010276287
0.010263582
0.010249858
0.010235774
0.010222103
0.010209629
0.010199025
0.0101907
0.010184683
0.010180351
0.010175765
0.010167101
0.010149654
0.010124533
0.010092227
0.010058904
0.010036262
0.01003332
0.010036277
0.010002195
0.025267338
0.019400752
0.014831867
0.012721569
0.011617742
0.011160946
0.010779577
0.010606555
0.010458692
0.010371712
0.010302905
0.010254509
0.010218327
0.010192036
0.010173112
0.01015965
0.010151205
0.010146335
0.010142227
0.010145413
0.010148361
0.010152262
0.010158002
0.01016481
0.010172483
0.010180824
0.010189661
0.010198836
0.010208209
0.010217661
0.010227089
0.010236393
0.010245481
0.010254273
0.010262709
0.010270738
0.010278325
0.010285441
0.010292068
0.010298194
0.01030381
0.010308913
0.010313502
0.01031757
0.010321114
0.010324127
0.010326588
0.010328466
0.010329727
0.010330328
0.010330217
0.010329328
0.010327584
0.010324895
0.010321166
0.010316304
0.010310219
0.010302819
0.01029399
0.010283623
0.010271687
0.010258356
0.010244076
0.010229514
0.010215459
0.01020271
0.010191948
0.010183549
0.010177413
0.010172667
0.010167047
0.010156602
0.010138092
0.010112493
0.010081713
0.010052489
0.010035327
0.010034222
0.01004176
0.010002062
0.023734698
0.019546932
0.014289241
0.012443465
0.011441336
0.011043273
0.010698445
0.010546062
0.010414538
0.01033741
0.010277275
0.010235385
0.010204852
0.010183352
0.010168671
0.010159009
0.010152229
0.010152327
0.01015362
0.010156185
0.010161087
0.010167587
0.01017515
0.010183613
0.010192746
0.010202344
0.010212236
0.010222263
0.010232284
0.010242183
0.010251856
0.010261215
0.010270175
0.010278666
0.010286639
0.010294056
0.010300894
0.010307143
0.010312798
0.010317861
0.01032234
0.010326247
0.010329591
0.01033238
0.01033462
0.010336313
0.010337449
0.010338007
0.010337957
0.010337261
0.010335874
0.010333735
0.01033077
0.010326896
0.010322023
0.010316064
0.010308939
0.01030057
0.010290857
0.0102797
0.010267068
0.010253124
0.01023831
0.010223293
0.01020886
0.010195807
0.010184788
0.010176112
0.010169511
0.010163884
0.010156793
0.01014434
0.010125244
0.010100212
0.010072098
0.010047487
0.010035179
0.010035313
0.01004762
0.010005356
0.022372502
0.019679583
0.013816589
0.012190693
0.011283633
0.010937813
0.010627854
0.010493782
0.010378156
0.01031034
0.010258604
0.010223151
0.010198218
0.010181522
0.010171066
0.010165524
0.010163993
0.010164794
0.010168409
0.010174171
0.01018136
0.010189742
0.01019907
0.01020905
0.010219458
0.010230089
0.010240774
0.010251358
0.010261702
0.010271696
0.010281246
0.010290275
0.010298718
0.010306521
0.010313651
0.01032009
0.010325834
0.01033089
0.010335271
0.010338999
0.010342095
0.010344585
0.010346491
0.010347831
0.010348621
0.010348869
0.010348574
0.01034772
0.010346283
0.010344228
0.010341512
0.010338079
0.01033386
0.010328773
0.010322734
0.010315662
0.010307487
0.010298141
0.010287543
0.010275604
0.010262294
0.010247765
0.010232438
0.01021697
0.010202125
0.010188663
0.010177186
0.010167913
0.010160421
0.010153433
0.010144578
0.010130406
0.010111488
0.010088102
0.010063452
0.010043504
0.010034871
0.010036683
0.010055226
0.010008326
0.021140117
0.01977147
0.013385502
0.011963281
0.011144247
0.010844515
0.010567929
0.010450478
0.010349904
0.010291043
0.010247485
0.010218457
0.010199119
0.010187269
0.010181095
0.010179253
0.010180801
0.010185205
0.010191636
0.010199684
0.010209014
0.010219266
0.010230144
0.010241389
0.010252774
0.010264097
0.010275193
0.010285916
0.010296142
0.010305774
0.010314735
0.010322971
0.010330442
0.010337119
0.010342994
0.010348071
0.010352369
0.010355915
0.010358742
0.010360887
0.010362387
0.010363278
0.010363593
0.010363357
0.010362592
0.010361311
0.010359516
0.010357197
0.010354331
0.010350885
0.010346819
0.010342077
0.010336593
0.01033029
0.010323086
0.010314904
0.010305681
0.010295364
0.010283889
0.010271183
0.010257217
0.010242122
0.010226288
0.010210336
0.010194986
0.010180935
0.010168721
0.010158489
0.010149709
0.010140999
0.010130239
0.010115258
0.010097327
0.010076412
0.010055539
0.010039685
0.010033542
0.01003793
0.010060968
0.010009877
0.020030833
0.01978251
0.012993979
0.011759193
0.01102244
0.010763456
0.010518804
0.010416384
0.010330268
0.010280184
0.010244665
0.010222099
0.010208389
0.010201438
0.010199596
0.010201639
0.010206668
0.010213975
0.010223046
0.010233407
0.010244658
0.010256471
0.010268562
0.010280672
0.010292582
0.010304101
0.010315077
0.010325388
0.010334933
0.010343641
0.010351466
0.010358386
0.010364391
0.010369489
0.010373697
0.010377046
0.010379579
0.010381339
0.010382379
0.010382748
0.010382492
0.010381658
0.010380282
0.010378395
0.01037602
0.010373172
0.010369853
0.010366055
0.010361756
0.010356923
0.010351512
0.010345473
0.01033874
0.010331237
0.010322886
0.010313613
0.01030336
0.010292084
0.010279743
0.010266281
0.010251669
0.010236011
0.010219645
0.010203135
0.010187141
0.010172286
0.010159045
0.010147519
0.010137168
0.010126639
0.010114034
0.010099561
0.010083264
0.010065262
0.010048027
0.010035302
0.010030929
0.010038196
0.010060695
0.010010141
0.019031376
0.019580579
0.012640596
0.011577402
0.010917981
0.010694875
0.0104808
0.010392229
0.010319985
0.01027868
0.010251122
0.010235092
0.010227065
0.010225061
0.010227557
0.010233401
0.010241742
0.01025193
0.010263409
0.010275727
0.010288507
0.010301416
0.010314182
0.010326559
0.010338351
0.010349395
0.010359568
0.010368783
0.010376984
0.010384138
0.010390241
0.010395308
0.010399369
0.010402465
0.010404644
0.01040596
0.010406474
0.010406247
0.010405339
0.01040381
0.010401712
0.010399092
0.010395989
0.010392434
0.010388447
0.010384042
0.010379218
0.010373966
0.010368263
0.010362074
0.010355355
0.010348054
0.010340107
0.01033144
0.010321976
0.010311643
0.010300386
0.010288169
0.010274968
0.010260747
0.010245481
0.010229239
0.01021229
0.010195124
0.010178339
0.010162496
0.010148008
0.010134952
0.010122863
0.010110705
0.010097303
0.010084002
0.010069733
0.010054724
0.010040815
0.010030639
0.010027101
0.010034618
0.010053842
0.010011027
0.018126719
0.018750547
0.012322556
0.011417225
0.01083115
0.0106392
0.010454482
0.010378979
0.010320143
0.010287724
0.010268107
0.010258678
0.010256353
0.01025927
0.010266014
0.010275499
0.010286901
0.01029958
0.010313009
0.010326737
0.010340397
0.010353678
0.010366332
0.010378155
0.01038899
0.010398724
0.010407288
0.010414648
0.010420801
0.010425769
0.010429591
0.010432325
0.010434037
0.010434797
0.010434679
0.010433754
0.010432095
0.010429772
0.010426849
0.010423386
0.010419434
0.010415039
0.010410236
0.01040505
0.010399499
0.01039359
0.010387319
0.010380672
0.010373624
0.010366139
0.010358169
0.010349661
0.010340551
0.010330769
0.010320237
0.010308885
0.010296656
0.010283518
0.010269458
0.010254462
0.010238512
0.010221645
0.010204054
0.010186144
0.010168457
0.010151516
0.010135691
0.010121051
0.010107246
0.01009364
0.010081108
0.010069202
0.010057068
0.010044865
0.010033877
0.010025842
0.010022865
0.010029735
0.010047063
0.010011979
0.017308744
0.017393302
0.012041889
0.011278405
0.010761033
0.010597381
0.010440923
0.010378075
0.010332212
0.01030881
0.010297093
0.010294251
0.010297537
0.010305199
0.010315906
0.010328623
0.010342552
0.010357068
0.010371662
0.010385911
0.010399484
0.01041212
0.010423628
0.01043387
0.010442763
0.010450267
0.010456383
0.010461142
0.010464602
0.010466837
0.01046793
0.010467973
0.010467061
0.010465284
0.01046273
0.01045948
0.010455609
0.010451186
0.010446272
0.010440922
0.010435181
0.010429086
0.010422665
0.010415937
0.010408911
0.010401588
0.010393958
0.010386002
0.010377691
0.010368987
0.01035984
0.010350195
0.010339987
0.010329148
0.010317601
0.010305276
0.010292114
0.01027808
0.010263163
0.010247365
0.010230685
0.010213147
0.010194872
0.010176176
0.010157539
0.010139461
0.010122308
0.010106204
0.010091082
0.010077308
0.010065951
0.010055566
0.010045472
0.010035746
0.010027176
0.010020868
0.01001866
0.010025715
0.010040093
0.010012124
0.016573384
0.016524942
0.01180492
0.011161365
0.010708552
0.010570834
0.010441645
0.010391225
0.010357914
0.010343597
0.010339656
0.010343232
0.01035183
0.010363789
0.010377841
0.010393003
0.010408503
0.010423756
0.010438311
0.010451811
0.010464008
0.01047473
0.010483882
0.010491428
0.010497376
0.010501774
0.010504698
0.010506245
0.010506525
0.010505655
0.010503748
0.01050092
0.010497276
0.010492917
0.01048793
0.010482396
0.010476384
0.010469955
0.010463159
0.010456042
0.010448636
0.010440968
0.010433057
0.010424911
0.010416531
0.010407909
0.010399031
0.010389872
0.010380398
0.010370567
0.010360328
0.010349624
0.01033839
0.010326558
0.010314054
0.010300808
0.010286757
0.010271858
0.010256097
0.010239481
0.010222031
0.01020378
0.01018481
0.010165343
0.010145776
0.010126582
0.010108143
0.010090748
0.010074767
0.010062309
0.010052128
0.010043226
0.010034988
0.010027398
0.010020862
0.010016107
0.010014429
0.010020833
0.010033358
0.010013148
0.015912864
0.015521652
0.011602645
0.011066648
0.010674674
0.010561286
0.010458315
0.010420363
0.010399192
0.010393893
0.010397413
0.010406923
0.010420121
0.010435428
0.010451653
0.010467885
0.010483439
0.010497829
0.010510721
0.010521891
0.010531219
0.01053867
0.01054427
0.010548094
0.01055025
0.010550867
0.010550084
0.010548047
0.0105449
0.010540781
0.010535818
0.010530129
0.010523819
0.010516981
0.010509695
0.01050203
0.010494041
0.010485775
0.010477271
0.010468557
0.010459655
0.010450578
0.010441333
0.010431917
0.010422324
0.010412537
0.010402535
0.010392288
0.010381758
0.0103709
0.010359662
0.010347983
0.010335799
0.010323043
0.010309642
0.010295528
0.010280636
0.010264918
0.010248346
0.010230924
0.010212688
0.010193695
0.010174026
0.010153838
0.010133428
0.010113222
0.01009363
0.010075152
0.010060184
0.010048713
0.010039656
0.010032103
0.010025519
0.010019798
0.01001506
0.010011771
0.010010766
0.010016333
0.010026632
0.010014824
0.015321532
0.014838099
0.011437404
0.010994953
0.010660445
0.010570964
0.010493149
0.010467874
0.010458307
0.010461572
0.010471716
0.010486011
0.010502343
0.010519261
0.010535718
0.010550974
0.010564521
0.010576055
0.010585434
0.010592616
0.010597646
0.010600634
0.010601728
0.010601102
0.010598941
0.010595426
0.010590736
0.010585036
0.010578479
0.010571204
0.010563332
0.010554967
0.0105462
0.010537107
0.010527753
0.010518187
0.010508449
0.010498569
0.010488569
0.010478461
0.010468255
0.01045795
0.010447541
0.010437016
0.010426359
0.010415546
0.01040455
0.010393335
0.010381861
0.01037008
0.010357937
0.010345371
0.010332316
0.010318705
0.010304468
0.01028954
0.010273859
0.010257372
0.010240045
0.010221869
0.010202873
0.01018313
0.010162747
0.010141868
0.010120707
0.010099649
0.010079353
0.010060867
0.01004703
0.010036496
0.010028423
0.010022048
0.010016911
0.010012845
0.010009822
0.010008032
0.010008221
0.010013378
0.010019604
0.010016221
0.014793758
0.014084388
0.011305896
0.010948954
0.010667695
0.010603247
0.010549234
0.010536509
0.010537387
0.010547815
0.010562701
0.010579535
0.010596487
0.010612366
0.010626407
0.010638156
0.010647382
0.010654033
0.01065819
0.010660004
0.010659676
0.010657433
0.01065351
0.01064814
0.010641543
0.010633918
0.010625445
0.010616283
0.01060657
0.010596424
0.010585945
0.010575215
0.010564301
0.010553256
0.010542123
0.010530932
0.010519705
0.010508454
0.010497186
0.010485898
0.010474586
0.010463237
0.010451836
0.010440362
0.010428791
0.010417091
0.01040523
0.010393169
0.010380863
0.010368262
0.01035531
0.010341944
0.010328098
0.010313703
0.010298693
0.010283005
0.010266583
0.01024938
0.010231358
0.010212501
0.01019282
0.010172367
0.010151258
0.010129668
0.010107808
0.010085973
0.01006497
0.010048197
0.010035252
0.010025543
0.010018321
0.010012977
0.010009119
0.010006508
0.010004967
0.010004479
0.010005619
0.010010666
0.010015024
0.010013834
0.014329239
0.013499949
0.011212792
0.010933413
0.010700307
0.010662235
0.01062972
0.010628144
0.01063691
0.01065155
0.010667853
0.010683743
0.010697862
0.010709456
0.010718169
0.010723916
0.010726781
0.010726965
0.010724743
0.01072041
0.010714266
0.010706596
0.010697667
0.010687717
0.010676956
0.010665566
0.010653701
0.010641489
0.010629037
0.010616432
0.010603745
0.010591028
0.010578323
0.01056566
0.010553058
0.010540528
0.010528076
0.010515697
0.010503384
0.010491123
0.010478896
0.010466681
0.010454453
0.010442183
0.01042984
0.010417387
0.010404787
0.010391996
0.010378968
0.01036565
0.010351985
0.010337908
0.010323352
0.01030825
0.010292533
0.010276144
0.010259029
0.010241151
0.010222481
0.010203004
0.010182722
0.010161655
0.010139873
0.010117539
0.010094957
0.010072713
0.010052503
0.01003685
0.010024776
0.010015793
0.010009324
0.010004885
0.010002127
0.010000727
0.010000345
0.010000782
0.010002457
0.010006947
0.010010946
0.010012365
0.013933441
0.013036241
0.011160596
0.010953488
0.010784011
0.010751014
0.010735699
0.010741597
0.010753716
0.010767909
0.010781069
0.010791789
0.010799366
0.010803589
0.010804541
0.01080248
0.010797749
0.010790722
0.010781776
0.010771264
0.010759502
0.010746769
0.010733303
0.010719304
0.010704941
0.010690351
0.010675645
0.010660911
0.010646219
0.010631619
0.01061715
0.01060284
0.010588703
0.010574749
0.010560977
0.010547381
0.01053395
0.010520669
0.010507517
0.010494471
0.010481503
0.010468584
0.010455679
0.010442755
0.010429772
0.010416692
0.010403471
0.010390064
0.010376421
0.010362487
0.010348205
0.010333509
0.01031833
0.0103026
0.010286252
0.010269227
0.010251479
0.010232971
0.010213683
0.010193611
0.010172763
0.010151156
0.010128829
0.010105888
0.010082642
0.010060031
0.010041568
0.010026845
0.010015564
0.010007241
0.010001445
0.0099977925
0.0099959449
0.0099954885
0.0099959615
0.0099971033
0.0099993655
0.010003867
0.010008213
0.010010403
0.013615628
0.012663072
0.011153429
0.011009076
0.010887352
0.01086888
0.010863469
0.010870641
0.010879891
0.01088805
0.010893258
0.010894932
0.010893034
0.010887833
0.010879745
0.010869234
0.010856758
0.010842735
0.010827536
0.010811476
0.010794822
0.010777788
0.01076055
0.010743247
0.010725987
0.010708856
0.010691916
0.010675214
0.010658783
0.010642641
0.0106268
0.010611262
0.010596023
0.010581073
0.010566396
0.010551974
0.010537782
0.010523796
0.010509986
0.01049632
0.010482764
0.010469282
0.010455834
0.010442382
0.010428881
0.010415289
0.010401558
0.010387642
0.010373487
0.010359039
0.010344238
0.010329017
0.010313309
0.010297042
0.01028015
0.010262574
0.010244269
0.010225201
0.010205347
0.010184702
0.010163277
0.010141103
0.010118244
0.010094845
0.010071338
0.01004931
0.010032033
0.010018185
0.010007601
0.0099998632
0.0099946362
0.0099916083
0.0099904475
0.0099907017
0.009991873
0.0099936993
0.0099965747
0.010001083
0.010005321
0.010006532
0.013392562
0.012392546
0.011194171
0.0111069
0.011021327
0.011007268
0.011002838
0.01100388
0.01100386
0.011001
0.010994639
0.010984907
0.010972233
0.010957144
0.010940167
0.010921782
0.010902402
0.010882371
0.010861967
0.01084141
0.010820872
0.010800485
0.01078035
0.010760537
0.010741098
0.010722069
0.010703468
0.010685308
0.01066759
0.010650308
0.010633451
0.010617001
0.010600941
0.010585245
0.010569887
0.010554838
0.010540067
0.010525539
0.010511221
0.010497073
0.010483058
0.010469134
0.010455259
0.010441388
0.010427476
0.010413476
0.010399338
0.010385013
0.010370448
0.010355585
0.010340365
0.010324722
0.010308586
0.010291886
0.010274555
0.010256533
0.010237774
0.010218244
0.01019792
0.01017679
0.010154852
0.01013213
0.010108698
0.010084775
0.010061092
0.010040475
0.010023988
0.010010869
0.010000852
0.0099935837
0.0099887817
0.009986179
0.0099854551
0.0099861704
0.0099878516
0.0099902119
0.0099933811
0.0099974549
0.010001399
0.010003833
0.013265014
0.012223395
0.011288536
0.011235765
0.011170451
0.011152622
0.01113934
0.01112752
0.011113521
0.011096847
0.011077625
0.011056324
0.011033479
0.011009586
0.010985066
0.010960258
0.010935428
0.010910778
0.010886458
0.010862576
0.010839207
0.010816404
0.010794196
0.010772598
0.010751616
0.010731243
0.01071147
0.010692277
0.010673644
0.010655548
0.01063796
0.010620851
0.010604191
0.010587946
0.010572082
0.010556563
0.010541353
0.010526413
0.010511704
0.010497184
0.010482812
0.010468543
0.010454334
0.010440136
0.010425903
0.010411584
0.01039713
0.010382489
0.010367606
0.010352424
0.010336884
0.010320922
0.010304468
0.010287452
0.010269804
0.010251461
0.010232371
0.010212501
0.010191829
0.010170347
0.010148058
0.010124982
0.010101193
0.010076941
0.010053149
0.010033441
0.010017531
0.010004914
0.0099952917
0.0099883438
0.00998382
0.0099814719
0.0099809704
0.0099818828
0.00998379
0.0099864705
0.0099899913
0.0099943073
0.0099987047
0.010001868
0.013199114
0.01215123
0.011447324
0.011379065
0.01131813
0.011286044
0.011256984
0.011228732
0.011199561
0.011169482
0.01113876
0.011107766
0.011076828
0.011046214
0.011016123
0.010986697
0.010958031
0.010930184
0.010903189
0.010877059
0.01085179
0.01082737
0.010803779
0.010780991
0.010758975
0.0107377
0.010717131
0.010697234
0.010677971
0.010659307
0.010641203
0.010623622
0.010606527
0.010589878
0.010573636
0.010557763
0.010542217
0.010526958
0.010511944
0.010497132
0.010482478
0.010467938
0.010453464
0.010439009
0.010424525
0.010409961
0.010395266
0.010380386
0.010365267
0.010349854
0.010334087
0.010317905
0.010301242
0.010284028
0.010266192
0.010247665
0.010228389
0.010208319
0.010187431
0.010165719
0.010143188
0.010119868
0.01009584
0.010071385
0.010047541
0.010028346
0.010012739
0.010000377
0.0099909522
0.0099841665
0.0099797871
0.0099775755
0.0099772076
0.0099782455
0.0099803263
0.0099832307
0.009986893
0.0099911571
0.0099956295
0.0099996359
0.013208233
0.012110034
0.011603083
0.011512806
0.011440403
0.01138981
0.011343571
0.011300207
0.011258402
0.011217973
0.011178865
0.011141102
0.011104705
0.011069678
0.011036005
0.011003657
0.010972594
0.010942767
0.010914127
0.010886618
0.010860187
0.010834778
0.010810338
0.010786814
0.010764156
0.010742314
0.01072124
0.010700888
0.010681212
0.010662169
0.010643714
0.010625807
0.010608404
0.010591464
0.010574946
0.010558809
0.010543009
0.010527506
0.010512257
0.010497218
0.010482345
0.010467594
0.010452916
0.010438265
0.010423591
0.010408845
0.010393974
0.010378925
0.010363645
0.010348079
0.01033217
0.01031586
0.010299089
0.010281788
0.010263888
0.010245315
0.010226003
0.010205894
0.010184956
0.010163176
0.010140564
0.010117146
0.010092986
0.01006834
0.010044491
0.010025341
0.010009732
0.0099973532
0.0099879083
0.0099811048
0.0099767125
0.0099744901
0.0099741304
0.0099752611
0.0099775253
0.0099807153
0.0099846643
0.0099891246
0.0099937771
0.0099982124
0.013301036
0.012134506
0.011720135
0.011610113
0.01152232
0.011455735
0.011396538
0.011342801
0.011292874
0.011246099
0.01120203
0.011160373
0.011120898
0.011083422
0.011047784
0.011013847
0.010981487
0.010950595
0.010921069
0.010892818
0.010865759
0.010839813
0.010814909
0.01079098
0.010767963
0.0107458
0.010724436
0.010703817
0.010683894
0.010664619
0.010645946
0.01062783
0.010610226
0.010593093
0.010576388
0.010560067
0.01054409
0.010528414
0.010512995
0.010497792
0.010482759
0.010467853
0.010453026
0.010438233
0.010423425
0.010408551
0.010393562
0.010378404
0.010363025
0.010347371
0.010331389
0.010315022
0.010298213
0.010280903
0.010263022
0.010244499
0.01022526
0.010205239
0.010184389
0.010162694
0.010140163
0.01011683
0.010092779
0.010068271
0.010044278
0.010024619
0.01000866
0.0099959722
0.0099862973
0.0099793012
0.0099747136
0.0099723282
0.009971791
0.0099729523
0.0099754603
0.0099789015
0.0099830573
0.0099877218
0.0099926496
0.0099976508
0.013426822
0.012190947
0.011781851
0.011659219
0.011561269
0.011486313
0.011421002
0.011362742
0.011309465
0.011260179
0.011214207
0.01117109
0.011130483
0.011092114
0.011055765
0.011021252
0.010988419
0.010957131
0.010927268
0.010898725
0.010871408
0.010845231
0.010820115
0.010795989
0.010772786
0.010750446
0.01072891
0.010708125
0.010688038
0.010668601
0.010649767
0.01063149
0.010613726
0.010596433
0.010579568
0.010563088
0.010546952
0.010531117
0.010515541
0.010500183
0.010484998
0.010469942
0.01045497
0.010440036
0.010425092
0.010410091
0.010394982
0.010379713
0.010364233
0.010348489
0.010332427
0.010315992
0.010299131
0.010281783
0.010263886
0.010245369
0.010226159
0.010206182
0.010185381
0.010163725
0.010141213
0.010117874
0.010093788
0.01006921
0.010045107
0.010025297
0.010009087
0.0099961449
0.0099862576
0.0099790759
0.0099742536
0.009971583
0.0099708196
0.0099710248
0.0099741928
0.0099778527
0.0099821187
0.0099869939
0.0099921174
0.0099973973
68.70456
372.28901
125.91526
15.201573
0.42037376
0.021569906
0.020052071
0.01970647
0.019433867
0.018377126
0.017066917
0.015905255
0.015015641
0.014445622
0.014040457
0.013659586
0.013289375
0.012959927
0.012682504
0.012450339
0.01225314
0.012083136
0.011935157
0.01180546
0.011691022
0.011589335
0.011498398
0.011416631
0.011342796
0.011275908
0.011215151
0.011159814
0.011109283
0.011063041
0.011020684
0.01098189
0.010946387
0.010913937
0.01088432
0.010857342
0.010832832
0.01081062
0.010790534
0.010772412
0.010756097
0.010741428
0.010728245
0.010716396
0.010705749
0.01069619
0.010687613
0.010679919
0.010673014
0.010666797
0.01066115
0.010655941
0.010651037
0.010646314
0.01064168
0.010637137