/*--------------------------------*- C++ -*----------------------------------*\
  =========                 |
  \\      /  F ield         | OpenFOAM: The Open Source CFD Toolbox
   \\    /   O peration     | Website:  https://openfoam.org
    \\  /    A nd           | Version:  12
     \\/     M anipulation  |
\*---------------------------------------------------------------------------*/
FoamFile
{
    format      ascii;
    class       volScalarField;
    location    "0.053";
    object      Ma;
}
// * * * * * * * * * * * * * * * * * * * * * * * * * * * * * * * * * * * * * //

dimensions      [];

internalField   nonuniform List<scalar> 
16000
(
0.62347311
0.74013636
0.69557263
0.71997869
0.70511437
0.71194416
0.70630873
0.70779463
0.70517441
0.70472571
0.70311369
0.70198339
0.70057637
0.69920282
0.69774744
0.69624581
0.69468679
0.69307199
0.69140024
0.68967113
0.68788433
0.68603978
0.68413765
0.6821784
0.68016281
0.67809198
0.67596741
0.67379094
0.67156483
0.66929177
0.66697486
0.66461764
0.66222408
0.65979857
0.6573459
0.65487123
0.65238009
0.64987831
0.64737195
0.64486731
0.6423708
0.63988894
0.6374282
0.63499505
0.63259575
0.63023641
0.62792284
0.62566053
0.62345461
0.62130979
0.61923036
0.61722012
0.61528239
0.61341999
0.61163528
0.60993009
0.60830577
0.60676315
0.60530242
0.60392277
0.60262228
0.60139776
0.60024414
0.59915376
0.59811624
0.59711828
0.59614376
0.59517408
0.59418873
0.59316624
0.59208563
0.59092972
0.58969199
0.58838025
0.58701127
0.58565996
0.58454142
0.5828043
0.58310601
0.5807252
0.62786073
0.74530838
0.69912234
0.72456917
0.70888028
0.71617854
0.7100957
0.71170404
0.70890088
0.70838249
0.70668333
0.70543884
0.70394121
0.70245448
0.70089134
0.69927402
0.6975967
0.69585933
0.69406137
0.69220247
0.69028256
0.68830185
0.68626088
0.68416048
0.68200191
0.67978677
0.67751712
0.67519541
0.67282456
0.67040797
0.66794945
0.66545332
0.66292432
0.6603676
0.65778875
0.65519367
0.6525886
0.64998003
0.64737462
0.64477918
0.64220052
0.63964546
0.63712067
0.63463264
0.63218759
0.62979143
0.62744964
0.62516732
0.62294905
0.62079896
0.61872063
0.61671714
0.61479104
0.61294438
0.61117869
0.60949503
0.60789396
0.60637556
0.6049393
0.60358374
0.60230632
0.60110326
0.59996898
0.59889548
0.59787223
0.59688606
0.59592132
0.59496014
0.59398291
0.59296887
0.59189763
0.59075308
0.58952925
0.58823101
0.58688555
0.58559803
0.5843874
0.58294777
0.58294654
0.58063776
0.63197633
0.75005349
0.70259381
0.72858982
0.71244339
0.71984618
0.71360406
0.71510326
0.71224453
0.7115708
0.70980366
0.70842225
0.70682095
0.70520822
0.7035214
0.70177396
0.69996267
0.69808722
0.69614732
0.69414294
0.69207436
0.6899422
0.68774743
0.68549143
0.683176
0.6808034
0.67837633
0.67589803
0.67337219
0.67080305
0.66819532
0.66555421
0.66288538
0.66019492
0.65748929
0.65477529
0.65205992
0.6493504
0.64665402
0.64397807
0.64132974
0.63871605
0.63614375
0.63361924
0.63114852
0.62873708
0.62638992
0.62411147
0.62190559
0.61977557
0.6177241
0.61575333
0.61386486
0.61205976
0.61033863
0.6087016
0.60714831
0.60567795
0.60428914
0.60297969
0.60174625
0.60058426
0.59948747
0.5984474
0.59745325
0.596492
0.59554852
0.59460589
0.59364552
0.59264765
0.59159284
0.59046642
0.58926313
0.58798883
0.58668126
0.58543895
0.58423039
0.58296609
0.58284156
0.58046737
0.63574952
0.75439748
0.70560614
0.73212062
0.71556286
0.72307524
0.71666747
0.71803783
0.71511523
0.7142665
0.71241719
0.71088279
0.70915989
0.7074051
0.70557716
0.70368288
0.70172099
0.69969116
0.69759345
0.6954282
0.69319611
0.69089825
0.68853614
0.68611177
0.68362761
0.68108668
0.67849252
0.67584927
0.6731616
0.67043475
0.6676745
0.66488712
0.66207937
0.65925835
0.65643154
0.65360663
0.65079145
0.64799392
0.64522185
0.64248291
0.63978453
0.63713372
0.6345371
0.63200072
0.62953006
0.62712999
0.62480468
0.62255767
0.62039181
0.61830934
0.61631184
0.61440035
0.61257534
0.61083681
0.60918431
0.60761692
0.60613337
0.60473191
0.6034103
0.60216554
0.60099353
0.59988893
0.5988449
0.59785246
0.59690069
0.59597679
0.59506631
0.59415329
0.59322022
0.59224821
0.59121882
0.59011849
0.58894259
0.58769957
0.58643512
0.58523477
0.58405969
0.58291428
0.58271415
0.58023383
0.63916307
0.75826987
0.7083799
0.73503089
0.71808041
0.72575585
0.71923009
0.72041281
0.71744492
0.71638675
0.71444472
0.71273969
0.71087678
0.70896433
0.70697833
0.7049212
0.70279268
0.70059263
0.69832143
0.69597977
0.69356885
0.69109032
0.68854637
0.68593978
0.68327392
0.6805528
0.67778107
0.674964
0.6721075
0.66921808
0.6663028
0.66336921
0.66042527
0.65747928
0.65453977
0.65161535
0.64871465
0.64584615
0.64301807
0.64023828
0.63751414
0.63485243
0.63225928
0.6297401
0.62729953
0.62494143
0.62266889
0.62048421
0.61838901
0.61638418
0.61447002
0.61264628
0.61091218
0.60926652
0.60770772
0.60623384
0.60484258
0.60353131
0.60229691
0.60113561
0.60004252
0.59901163
0.59803543
0.59710459
0.59620809
0.59533343
0.59446692
0.59359362
0.59269705
0.59175924
0.59076277
0.58969525
0.588553
0.58734833
0.58613309
0.58497946
0.58384875
0.58280493
0.58255236
0.57993666
0.64216753
0.76158662
0.71070732
0.73750042
0.72027441
0.72781
0.72115519
0.72215013
0.71914269
0.71785892
0.71581189
0.71392519
0.71190625
0.70982314
0.70766382
0.70542833
0.70311689
0.70072974
0.69826768
0.69573204
0.69312474
0.69044831
0.68770595
0.68490157
0.68203977
0.6791259
0.67616604
0.67316694
0.67013606
0.66708141
0.66401157
0.66093554
0.65786263
0.65480235
0.65176427
0.64875787
0.64579236
0.64287662
0.64001897
0.63722713
0.63450806
0.63186787
0.62931183
0.62684425
0.62446856
0.62218723
0.62000189
0.61791334
0.61592164
0.61402618
0.61222577
0.61051874
0.60890299
0.60737609
0.6059353
0.60457764
0.60329989
0.60209854
0.60096969
0.59990882
0.59891039
0.59796774
0.59707286
0.59621613
0.59538653
0.59457199
0.59375957
0.59293533
0.59208376
0.59118778
0.59023107
0.58920235
0.58809931
0.58693926
0.58577925
0.5846766
0.5835925
0.58264762
0.58232939
0.57959039
0.64473176
0.76432996
0.71259493
0.73948493
0.72201097
0.72921705
0.72258686
0.72321212
0.72021771
0.71865998
0.71649373
0.71441447
0.71221987
0.70994795
0.70759428
0.70515841
0.70264111
0.70004341
0.69736696
0.69461411
0.69178789
0.68889212
0.6859314
0.68291117
0.67983766
0.67671795
0.6735599
0.6703721
0.66716379
0.66394478
0.66072532
0.65751595
0.65432736
0.65117021
0.64805494
0.64499164
0.64198985
0.63905841
0.63620533
0.63343768
0.63076151
0.62818177
0.62570233
0.62332596
0.62105438
0.6188883
0.61682754
0.6148711
0.61301727
0.61126376
0.60960781
0.60804626
0.60657568
0.60519241
0.60389265
0.60267244
0.60152774
0.60045427
0.59944745
0.59850215
0.59761226
0.59677063
0.59596889
0.59519723
0.59444478
0.59369991
0.59295046
0.5921834
0.59138409
0.59053641
0.5896252
0.58864032
0.5875816
0.58647254
0.58537324
0.58432367
0.58328806
0.58244461
0.58203452
0.57921067
0.64689453
0.76652819
0.71408178
0.74101208
0.72334992
0.73018484
0.72355276
0.72403491
0.72064871
0.71881082
0.71649035
0.71419289
0.71178893
0.70929693
0.70671665
0.70404834
0.70129353
0.69845435
0.69553364
0.6925351
0.68946331
0.68632376
0.68312287
0.67986804
0.67656757
0.67323065
0.6698673
0.66648825
0.66310479
0.65972868
0.65637192
0.65304655
0.6497645
0.64653731
0.64337599
0.64029078
0.637291
0.6343849
0.63157954
0.62888071
0.62629289
0.62381926
0.6214617
0.61922091
0.61709644
0.61508689
0.61318996
0.61140262
0.60972129
0.60814191
0.60666013
0.60527137
0.60397092
0.60275404
0.60161597
0.60055196
0.59955727
0.59862703
0.59775614
0.596939
0.59616911
0.595439
0.59474008
0.59406252
0.59339568
0.59272842
0.5920493
0.59134608
0.59060497
0.58981087
0.58894992
0.58801328
0.587004
0.58595269
0.58491858
0.58392186
0.5829376
0.58219134
0.58166603
0.57880372
0.64872103
0.76820867
0.71512872
0.74208075
0.72405198
0.73025384
0.72370135
0.72339332
0.72037461
0.71825995
0.71573659
0.7131854
0.71053053
0.70777962
0.70493423
0.7019958
0.69896695
0.69585118
0.69265297
0.68937783
0.68603234
0.68262418
0.67916214
0.67565608
0.67211684
0.66855617
0.66498662
0.66142131
0.65787376
0.6543577
0.65088675
0.64747425
0.64413296
0.64087485
0.63771084
0.63465064
0.6317026
0.62887354
0.62616876
0.62359198
0.62114534
0.61882956
0.61664395
0.61458663
0.61265462
0.61084407
0.60915042
0.60756855
0.60609296
0.60471791
0.60343757
0.6022461
0.60113771
0.60010677
0.59914778
0.59825541
0.59742442
0.59664958
0.59592544
0.59524611
0.59460491
0.59399424
0.59340544
0.59282882
0.59225403
0.59167044
0.59106723
0.59043289
0.58975446
0.58901805
0.58821117
0.5873267
0.58637224
0.58538557
0.5844207
0.58347713
0.58254745
0.58188629
0.58122427
0.57838001
0.65021187
0.76934792
0.71566347
0.74251247
0.72404538
0.72977016
0.72324805
0.72258157
0.71935332
0.71688906
0.71411347
0.71127125
0.70832236
0.70527047
0.7021182
0.69886877
0.69552645
0.69209676
0.68858639
0.68500332
0.68135684
0.67765749
0.67391709
0.67014856
0.66636583
0.66258363
0.65881732
0.65508254
0.65139502
0.64777023
0.64422306
0.64076757
0.63741666
0.63418185
0.63107307
0.62809845
0.62526432
0.62257506
0.6200332
0.61763948
0.61539295
0.61329117
0.6113304
0.60950579
0.60781162
0.6062415
0.6047886
0.60344579
0.60220584
0.60106156
0.60000589
0.59903199
0.59813331
0.59730359
0.59653688
0.59582751
0.59517003
0.59455901
0.59398891
0.59345376
0.59294687
0.59246071
0.59198673
0.5915155
0.59103702
0.59054113
0.59001757
0.58945546
0.58884279
0.58816704
0.58741723
0.58658853
0.58569416
0.58477796
0.58388458
0.58299366
0.5821229
0.58153095
0.58072853
0.57795482
0.65130774
0.76984935
0.71560958
0.74145732
0.72327591
0.72846443
0.72203617
0.72076871
0.71741821
0.71458103
0.71149599
0.70831735
0.70502568
0.70162501
0.69811925
0.69451394
0.69081581
0.68703312
0.68317567
0.67925479
0.67528334
0.6712756
0.66724714
0.6632146
0.65919548
0.65520777
0.65126971
0.64739935
0.6436142
0.63993089
0.63636475
0.63292954
0.62963713
0.6264973
0.62351761
0.62070331
0.61805736
0.61558054
0.61327157
0.61112733
0.60914312
0.60731288
0.60562951
0.6040851
0.60267119
0.60137903
0.60019974
0.59912451
0.59814473
0.59725212
0.59643879
0.59569728
0.59502061
0.59440225
0.59383613
0.59331653
0.59283798
0.59239516
0.59198261
0.59159451
0.59122436
0.59086484
0.5905077
0.59014385
0.58976369
0.58935749
0.58891546
0.58842737
0.5878823
0.58726921
0.58657877
0.58580898
0.58497903
0.58413636
0.5833125
0.58247267
0.58167056
0.58113685
0.5802257
0.57748467
0.65191679
0.76954448
0.71485492
0.73967528
0.72188208
0.72625035
0.71989756
0.71802994
0.71444734
0.71119708
0.70773937
0.70417
0.70048015
0.69667652
0.69276526
0.68875512
0.68465636
0.68048118
0.67624366
0.67195966
0.66764668
0.66332366
0.65901065
0.65472852
0.65049855
0.64634197
0.64227954
0.63833103
0.63451483
0.63084745
0.62734319
0.62401385
0.62086852
0.61791345
0.61515213
0.61258532
0.61021128
0.60802601
0.60602357
0.6041964
0.60253567
0.6010316
0.5996738
0.59845153
0.59735396
0.59637039
0.59549039
0.59470397
0.59400167
0.5933746
0.59281449
0.59231374
0.59186532
0.59146281
0.5911003
0.59077229
0.5904736
0.59019917
0.58994388
0.5897022
0.58946799
0.58923435
0.58899342
0.58873653
0.58845452
0.58813806
0.5877778
0.5873642
0.58688755
0.58633835
0.58570898
0.58500059
0.58423772
0.58346766
0.58270686
0.58191934
0.58120412
0.58073158
0.57969385
0.57698922
0.65197297
0.76835614
0.71325951
0.73721499
0.71964404
0.72302846
0.71671141
0.71418748
0.7102927
0.706579
0.70267705
0.69865124
0.69449845
0.69022956
0.68585468
0.68138719
0.67684252
0.67223839
0.66759464
0.66293293
0.65827648
0.65364963
0.64907743
0.64458505
0.64019727
0.63593786
0.63182897
0.62789061
0.6241401
0.62059174
0.61725645
0.61414172
0.61125155
0.60858659
0.60614441
0.60391981
0.60190522
0.60009113
0.59846652
0.59701929
0.59573665
0.59460548
0.59361259
0.59274504
0.59199028
0.59133635
0.59077197
0.5902866
0.58987054
0.58951485
0.58921141
0.58895287
0.5887326
0.58854458
0.58838336
0.58824393
0.58812158
0.58801173
0.58790971
0.58781052
0.58770848
0.58759723
0.58746941
0.58731687
0.58713087
0.5869025
0.58662285
0.58628316
0.58587496
0.58539027
0.58482316
0.58417795
0.58348301
0.58278098
0.5820742
0.58134386
0.58073731
0.58032791
0.57913004
0.57647947
0.65145609
0.76618876
0.71075039
0.73366308
0.71640434
0.71868689
0.71232947
0.7090992
0.70478171
0.70053372
0.69610299
0.69154086
0.68684938
0.68204535
0.67714511
0.67216877
0.6671389
0.66208049
0.65702059
0.65198784
0.64701194
0.64212304
0.63735098
0.63272455
0.62827075
0.62401395
0.61997533
0.61617224
0.61261791
0.60932119
0.60628659
0.60351446
0.60100131
0.59874025
0.5967215
0.594933
0.59336091
0.59199017
0.590805
0.58978934
0.5889272
0.58820293
0.58760152
0.58710872
0.58671118
0.58639652
0.58615339
0.58597142
0.58584125
0.58575449
0.58570362
0.58568196
0.58568356
0.58570314
0.58573592
0.58577756
0.585824
0.58587128
0.58591534
0.58595175
0.58597547
0.58598073
0.58596079
0.58590805
0.58581428
0.58567095
0.58546966
0.58520249
0.5848622
0.58444213
0.58393806
0.58335736
0.58272995
0.58208984
0.58142988
0.58076331
0.58027515
0.5799171
0.57854118
0.57603448
0.65030966
0.76287393
0.70727104
0.72895371
0.71200702
0.71305768
0.70655259
0.7025484
0.69768162
0.69280506
0.68774627
0.68255539
0.67724225
0.67183189
0.66634958
0.66082445
0.65528819
0.64977477
0.64431973
0.63895947
0.63373032
0.62866756
0.62380434
0.61917075
0.61479278
0.61069169
0.60688346
0.60337852
0.6001818
0.59729299
0.59470696
0.59241443
0.59040262
0.58865603
0.58715712
0.58588708
0.58482636
0.58395526
0.58325433
0.58270476
0.5822886
0.58198897
0.58179018
0.5816778
0.58163864
0.58166082
0.58173364
0.58184758
0.58199421
0.58216611
0.58235675
0.58256044
0.58277219
0.58298761
0.5832028
0.58341421
0.58361851
0.58381246
0.58399268
0.58415543
0.58429634
0.58441032
0.58449131
0.58453231
0.58452564
0.58446324
0.58433725
0.58414058
0.58386711
0.58351134
0.58307083
0.58255568
0.5819949
0.5814123
0.5807977
0.5801965
0.57981546
0.57954045
0.57796892
0.57565474
0.64847707
0.75817404
0.7028559
0.72289077
0.7062456
0.70591649
0.69911288
0.69423955
0.68867537
0.68305319
0.67725595
0.67133951
0.66532525
0.65924896
0.65314756
0.64706167
0.64103421
0.63510959
0.62933257
0.6237469
0.61839385
0.61331086
0.60853026
0.6040782
0.59997404
0.59622997
0.59285112
0.58983592
0.5871768
0.58486102
0.58287165
0.58118856
0.57978939
0.5786504
0.57774731
0.57705588
0.57655249
0.57621449
0.57602049
0.57595059
0.57598645
0.57611135
0.57631018
0.57656937
0.57687688
0.57722204
0.5775955
0.5779891
0.57839574
0.57880934
0.57922463
0.57963709
0.58004285
0.58043854
0.58082118
0.5811881
0.58153678
0.5818647
0.5821692
0.58244726
0.58269524
0.58290876
0.58308247
0.58321007
0.58328445
0.58329808
0.58324369
0.58311499
0.58290672
0.5826145
0.58223783
0.58178883
0.58129359
0.58076681
0.58020101
0.57966676
0.57938545
0.57913853
0.57747168
0.57535504
0.64590072
0.75170711
0.69742365
0.71521531
0.69881466
0.69692015
0.68962511
0.68376121
0.67734092
0.67084646
0.66420234
0.65747417
0.65069919
0.64392758
0.63721141
0.63060566
0.62416621
0.61794811
0.61200349
0.60637962
0.60111709
0.59624838
0.59179697
0.58777698
0.58419327
0.58104213
0.57831226
0.57598596
0.57404054
0.5724496
0.57118435
0.57021474
0.56951041
0.56904153
0.56877932
0.56869657
0.56876789
0.56896989
0.56928128
0.56968282
0.57015733
0.57068955
0.57126603
0.57187501
0.57250627
0.57315096
0.57380153
0.57445151
0.57509544
0.5757287
0.57634745
0.57694845
0.57752895
0.57808666
0.57861955
0.57912582
0.57960372
0.58005149
0.58046718
0.58084845
0.58119244
0.58149547
0.58175296
0.58195934
0.58210812
0.58219238
0.58220547
0.58214173
0.58199659
0.58176678
0.58145389
0.58107103
0.5806396
0.58016612
0.57964874
0.57918473
0.57898554
0.57873588
0.57709346
0.57515084
0.64245012
0.74280318
0.69034365
0.70547793
0.68925943
0.6855943
0.67758497
0.67059772
0.66316484
0.65567484
0.64809078
0.64049316
0.63294163
0.62550614
0.61825749
0.61126619
0.60459922
0.59831715
0.59247165
0.58710343
0.58224109
0.57790067
0.57408602
0.57078986
0.56799522
0.56567731
0.56380534
0.5623444
0.56125715
0.56050533
0.56005089
0.55985698
0.5598886
0.56011308
0.56050038
0.56102317
0.56165686
0.56237956
0.5631719
0.56401691
0.56489979
0.56580777
0.56672985
0.56765667
0.56858029
0.56949404
0.57039236
0.57127065
0.57212516
0.57295283
0.5737512
0.5745183
0.57525253
0.57595259
0.57661736
0.57724585
0.57783709
0.57839
0.57890329
0.57937531
0.5798039
0.58018613
0.58051819
0.58079523
0.58101151
0.58116076
0.58123693
0.58123483
0.5811504
0.5809816
0.58073204
0.58041451
0.58004369
0.57961904
0.57914912
0.57876034
0.57861519
0.57836418
0.57679039
0.57502137
0.63784009
0.73141388
0.68119056
0.69311586
0.67700044
0.67137835
0.66239278
0.65413168
0.64553493
0.63694316
0.62836658
0.61990929
0.61165988
0.60371104
0.59615026
0.5890566
0.58249678
0.57652242
0.57116845
0.56645268
0.56237664
0.5589272
0.55607892
0.55379664
0.55203827
0.55075724
0.54990485
0.54943209
0.54929114
0.54943645
0.54982548
0.55041915
0.55118202
0.55208239
0.5530921
0.55418646
0.55534392
0.55654584
0.55777623
0.55902143
0.56026987
0.56151184
0.56273924
0.56394536
0.56512473
0.56627292
0.56738643
0.56846249
0.56949901
0.57049441
0.57144755
0.57235764
0.57322411
0.57404657
0.57482475
0.57555838
0.57624717
0.57689068
0.57748821
0.57803875
0.5785408
0.57899212
0.57938967
0.57972939
0.58000631
0.58021491
0.58034971
0.58040581
0.58037954
0.58027014
0.58008283
0.57982859
0.57951394
0.57913475
0.57871408
0.57840043
0.57828685
0.57801069
0.57653175
0.57499603
0.63170511
0.7186425
0.66940267
0.67754542
0.66132365
0.65355495
0.64328461
0.63358
0.62370243
0.61397581
0.6044697
0.59531721
0.58663311
0.57852295
0.57107426
0.56435336
0.55840306
0.55324251
0.54886867
0.54525907
0.5423754
0.54016752
0.53857729
0.53754215
0.53699812
0.53688222
0.53713419
0.53769771
0.53852118
0.539558
0.5407667
0.54211073
0.54355824
0.54508169
0.54665745
0.54826543
0.54988862
0.55151277
0.55312602
0.55471857
0.5562824
0.55781106
0.55929937
0.56074331
0.56213979
0.56348653
0.56478191
0.5660249
0.56721488
0.56835161
0.56943513
0.57046566
0.57144356
0.57236924
0.57324314
0.57406565
0.57483704
0.57555743
0.57622666
0.57684427
0.57740935
0.57792034
0.57837488
0.57876974
0.5791008
0.57936336
0.57955244
0.57966336
0.57969271
0.57964082
0.57951365
0.57931885
0.5790551
0.57871739
0.57835248
0.57810289
0.57801326
0.57765418
0.57631242
0.57507205
0.62372017
0.70188405
0.65415545
0.65788571
0.64119194
0.63107081
0.61923295
0.60798147
0.59685228
0.58616387
0.57604173
0.56663503
0.55805961
0.55040239
0.54371619
0.53802049
0.53330403
0.52952946
0.52663898
0.5245604
0.52321273
0.52251124
0.52237137
0.5227118
0.52345648
0.52453585
0.52588748
0.52745618
0.52919374
0.53105857
0.53301506
0.53503301
0.53708701
0.53915584
0.5412219
0.54327074
0.54529058
0.5472719
0.54920716
0.55109043
0.55291716
0.55468398
0.55638848
0.55802904
0.55960474
0.5611152
0.56256048
0.56394099
0.56525743
0.56651068
0.56770177
0.56883179
0.56990187
0.57091311
0.57186654
0.57276308
0.57360351
0.57438838
0.57511803
0.57579246
0.57641127
0.57697349
0.57747744
0.57792068
0.57829999
0.5786115
0.57885078
0.57901327
0.57909584
0.57909933
0.57902912
0.57888877
0.57867137
0.57837524
0.57806033
0.57786116
0.57777811
0.57736825
0.5761618
0.57521122
0.61324796
0.68018456
0.63406299
0.63272515
0.61513572
0.6025419
0.58906616
0.57642963
0.56441598
0.55332049
0.5432835
0.53442491
0.52680985
0.52045662
0.51533976
0.51139822
0.50854431
0.50667302
0.50567039
0.50542052
0.50581091
0.50673612
0.5081
0.5098168
0.51181138
0.51401887
0.51638393
0.51885985
0.52140757
0.52399471
0.52659462
0.52918555
0.53174993
0.53427367
0.53674562
0.53915709
0.54150141
0.54377363
0.54597018
0.54808867
0.55012763
0.55208639
0.55396491
0.55576367
0.55748355
0.55912576
0.56069174
0.56218311
0.56360163
0.5649491
0.56622735
0.56743819
0.56858337
0.56966454
0.57068322
0.57164078
0.5725384
0.573377
0.57415733
0.57487978
0.57554437
0.57615064
0.57669753
0.57718337
0.57760583
0.57796185
0.57824754
0.57845861
0.57859211
0.5786488
0.57863234
0.57854197
0.5783682
0.5781151
0.57784858
0.57768241
0.57758138
0.57715276
0.57609259
0.57542652
0.59913708
0.65144271
0.60721173
0.60031031
0.58154507
0.56658931
0.55188835
0.53855822
0.52656254
0.51611664
0.50729241
0.50010673
0.4945096
0.49040207
0.4876497
0.48609766
0.48558331
0.48594631
0.48703563
0.48871387
0.49085938
0.49336676
0.49614624
0.49912248
0.50223296
0.50542635
0.50866088
0.51190286
0.51512539
0.51830716
0.52143147
0.52448547
0.52745938
0.53034597
0.53314009
0.53583825
0.53843832
0.54093927
0.54334094
0.54564388
0.54784919
0.54995841
0.55197344
0.55389641
0.55572965
0.55747563
0.55913688
0.56071599
0.56221551
0.56363798
0.56498587
0.56626153
0.56746722
0.56860502
0.56967686
0.57068445
0.5716293
0.57251267
0.57333558
0.5740988
0.57480267
0.57544719
0.57603183
0.57655563
0.57701704
0.57741376
0.5777425
0.57799938
0.57818165
0.57828939
0.57832359
0.57827991
0.57814911
0.57794143
0.5777215
0.57757597
0.57744543
0.57701037
0.57611152
0.57568023
0.57942456
0.61331549
0.57140721
0.55883543
0.53938418
0.52250139
0.5077158
0.49510505
0.48463578
0.47635068
0.4701526
0.46588245
0.46333001
0.46226226
0.46244241
0.46364499
0.46566485
0.46832184
0.47146198
0.47495644
0.47869926
0.48260448
0.48660318
0.49064072
0.49467415
0.49867011
0.50260295
0.50645323
0.51020648
0.51385219
0.51738299
0.520794
0.52408232
0.52724658
0.53028665
0.53320334
0.53599819
0.5386733
0.54123123
0.54367482
0.54600717
0.54823154
0.55035127
0.55236978
0.5542905
0.55611684
0.55785216
0.55949974
0.56106278
0.56254436
0.56394741
0.56527473
0.56652894
0.56771248
0.56882759
0.56987628
0.5708603
0.5717812
0.57264026
0.5734385
0.57417659
0.57485488
0.57547335
0.57603159
0.57652874
0.57696313
0.57733208
0.57763232
0.57786129
0.57801796
0.57810036
0.57810166
0.57801497
0.57785573
0.5776808
0.57754569
0.57737768
0.57693806
0.57620591
0.5759825
0.55149869
0.56329791
0.52526763
0.50694037
0.48639923
0.47100336
0.45809374
0.44826759
0.44126071
0.43683106
0.43463366
0.43430659
0.43549372
0.43787013
0.44115255
0.445103
0.44952688
0.45426843
0.45920509
0.46424175
0.46930554
0.47434126
0.47930767
0.4841744
0.48891952
0.49352763
0.49798833
0.50229508
0.50644428
0.51043455
0.51426622
0.51794086
0.52146103
0.52482994
0.52805133
0.53112928
0.5340681
0.53687225
0.53954627
0.54209473
0.54452217
0.54683308
0.54903189
0.55112294
0.55311044
0.55499847
0.55679099
0.55849179
0.56010453
0.56163265
0.56307948
0.56444811
0.56574145
0.56696222
0.56811289
0.56919572
0.57021268
0.57116555
0.57205584
0.57288478
0.57365334
0.57436219
0.57501171
0.57560198
0.57613261
0.57660245
0.5770094
0.5773508
0.57762426
0.57782746
0.57795583
0.57800116
0.57795925
0.57784837
0.57771537
0.57758991
0.57739491
0.57696286
0.5763676
0.57626925
0.51125179
0.4988056
0.46174689
0.44393849
0.42659799
0.41446196
0.40620115
0.401602
0.40001272
0.40084961
0.4035462
0.40761754
0.41266322
0.41836639
0.42448287
0.43082864
0.43726739
0.44369977
0.4500545
0.45628139
0.46234593
0.46822519
0.47390479
0.47937658
0.48463693
0.48968552
0.49452434
0.49915705
0.50358847
0.50782415
0.51187018
0.51573291
0.51941886
0.52293455
0.52628649
0.5294811
0.53252462
0.53542318
0.53818271
0.54080895
0.54330744
0.54568356
0.54794244
0.55008906
0.55212815
0.55406427
0.55590177
0.5576448
0.55929732
0.56086306
0.56234559
0.56374823
0.56507412
0.56632616
0.56750704
0.56861918
0.56966478
0.5706458
0.57156396
0.57242071
0.57321728
0.57395463
0.5746335
0.5752543
0.57581701
0.57632082
0.57676409
0.57714461
0.57745993
0.57770665
0.57787852
0.57796704
0.57797011
0.57790444
0.57780501
0.57768424
0.57747695
0.57707891
0.57658671
0.57654836
0.44980091
0.41737669
0.38779356
0.37302309
0.36224231
0.35747407
0.35692356
0.35967558
0.36474243
0.37136746
0.3789677
0.38712046
0.39552671
0.4039804
0.41234263
0.42052219
0.42846115
0.43612467
0.44349373
0.45056011
0.45732285
0.46378582
0.469956
0.47584234
0.48145492
0.48680445
0.49190182
0.49675791
0.50138339
0.50578863
0.50998362
0.51397797
0.51778084
0.52140098
0.52484675
0.52812606
0.53124648
0.5342152
0.53703904
0.53972452
0.54227784
0.5447049
0.54701132
0.54920245
0.5512834
0.55325901
0.55513387
0.55691238
0.55859867
0.56019669
0.56171015
0.56314256
0.56449718
0.56577708
0.5669851
0.56812382
0.56919559
0.57020255
0.57114661
0.57202946
0.57285254
0.57361711
0.57432417
0.57497443
0.57556807
0.57610454
0.57658244
0.57699964
0.57735349
0.57764005
0.5778525
0.57798199
0.57803046
0.57800751
0.57793618
0.57781892
0.57760899
0.57725033
0.57683696
0.57675142
0.35448039
0.32112119
0.30357977
0.29913026
0.30051949
0.30677253
0.31591765
0.3266941
0.33823168
0.34998138
0.36160901
0.37291954
0.38380593
0.39421558
0.40412912
0.41354713
0.42248176
0.43095161
0.4389785
0.44658552
0.45379587
0.46063212
0.46711586
0.47326748
0.47910611
0.48464962
0.48991464
0.49491664
0.49967001
0.50418811
0.50848338
0.51256744
0.51645108
0.52014442
0.52365692
0.52699743
0.53017429
0.53319533
0.53606792
0.53879903
0.54139523
0.54386275
0.54620749
0.54843502
0.55055065
0.55255939
0.55446598
0.55627495
0.55799056
0.55961685
0.56115766
0.56261658
0.563997
0.56530207
0.56653475
0.56769774
0.56879351
0.56982434
0.57079231
0.5716993
0.57254698
0.57333687
0.57407021
0.5747479
0.5753703
0.57593698
0.57644657
0.57689684
0.57728479
0.577606
0.57785408
0.57802274
0.57811033
0.57812305
0.57807161
0.57795675
0.57775083
0.57743172
0.57707404
0.5769221
0.21587781
0.21461057
0.21998583
0.23334641
0.25059755
0.26892257
0.28712182
0.30454785
0.32097286
0.33633347
0.35065505
0.36399797
0.37643592
0.38804409
0.39889414
0.40905202
0.41857738
0.42752366
0.43593856
0.44386458
0.4513396
0.45839742
0.46506831
0.4713794
0.4773551
0.48301744
0.48838635
0.49347996
0.49831476
0.50290584
0.50726704
0.51141109
0.51534972
0.5190938
0.52265342
0.52603796
0.52925616
0.53231622
0.53522581
0.53799214
0.54062199
0.54312176
0.54549749
0.54775489
0.54989935
0.55193599
0.55386963
0.55570486
0.55744601
0.5590972
0.5606623
0.56214499
0.5635487
0.56487668
0.56613192
0.56731723
0.56843515
0.56948806
0.57047816
0.57140748
0.57227788
0.57309108
0.57384851
0.57455129
0.57519991
0.57579405
0.57633224
0.57681185
0.5772295
0.57758123
0.5778618
0.57806409
0.57818152
0.57822262
0.57818549
0.57807228
0.57787434
0.57758499
0.57725914
0.57704615
0.091653056
0.12146193
0.15876692
0.19230554
0.22233742
0.24877332
0.27223198
0.29317813
0.31202684
0.32910343
0.34467017
0.35893712
0.37207478
0.38422272
0.39549635
0.40599207
0.41579104
0.42496221
0.43356462
0.44164915
0.44925998
0.45643567
0.46321015
0.46961335
0.47567188
0.48140948
0.48684746
0.492005
0.49689946
0.50154661
0.50596084
0.51015533
0.51414216
0.5179325
0.52153668
0.52496425
0.52822415
0.53132467
0.53427359
0.53707822
0.53974541
0.54228162
0.54469293
0.5469851
0.54916355
0.55123343
0.55319959
0.55506665
0.55683897
0.55852067
0.56011568
0.56162768
0.56306016
0.56441638
0.5656994
0.56691203
0.56805689
0.56913639
0.57015279
0.57110821
0.57200461
0.57284379
0.57362735
0.57435648
0.57503186
0.57565327
0.57621909
0.57672619
0.57717095
0.57755021
0.57785903
0.57808689
0.57822152
0.57826861
0.57827324
0.57814508
0.57795714
0.57768034
0.57736614
0.57711689
0.010004307
0.29433914
0.47018098
0.51895107
0.52903669
0.52961675
0.52928149
0.53040783
0.53190562
0.53340102
0.53488356
0.53633104
0.53775162
0.53915593
0.54055512
0.54195931
0.54337004
0.54478812
0.54621351
0.54764541
0.54908253
0.55052321
0.55196557
0.55340756
0.55484706
0.55628189
0.55770986
0.5591288
0.56053656
0.56193102
0.56331011
0.5646718
0.56601407
0.56733494
0.56863245
0.56990466
0.57114963
0.5723654
0.57355004
0.57470159
0.57581808
0.57689752
0.57793794
0.57893732
0.57989366
0.58080497
0.58166926
0.58248457
0.583249
0.58396073
0.5846181
0.58521965
0.5857642
0.58625096
0.58667953
0.58705003
0.58736314
0.58762018
0.58782328
0.58797533
0.58808014
0.58814322
0.58817206
0.58817578
0.58816478
0.58815015
0.58814188
0.58814586
0.58815929
0.58816259
0.5881261
0.58798017
0.58771163
0.58715349
0.58642107
0.58526102
0.58392902
0.58239006
0.58026608
0.58024161
0.062574066
0.38165464
0.52121677
0.54693176
0.54799126
0.54615112
0.5452639
0.54538912
0.54557851
0.54587121
0.54624903
0.54678994
0.54744903
0.54819948
0.5490121
0.54988365
0.55080748
0.55177942
0.55279419
0.55384672
0.55493233
0.55604658
0.55718529
0.55834443
0.55952016
0.56070881
0.56190683
0.56311082
0.56431748
0.56552365
0.56672625
0.56792229
0.5691089
0.57028325
0.5714426
0.57258425
0.57370559
0.57480403
0.57587702
0.57692206
0.57793668
0.57891845
0.57986495
0.58077383
0.58164275
0.58246942
0.58325162
0.58398718
0.58467405
0.5853103
0.58589421
0.58642431
0.5868995
0.58731905
0.58768271
0.58799075
0.58824405
0.58844411
0.58859329
0.58869468
0.58875231
0.58877191
0.58876108
0.58872887
0.58868538
0.58864101
0.58860457
0.58858017
0.58856287
0.5885312
0.58845384
0.58826376
0.58794138
0.58734257
0.58654815
0.58535957
0.58399158
0.58244158
0.58034548
0.58035089
0.14387394
0.46212476
0.54142427
0.55446611
0.55324036
0.55226514
0.55221038
0.55274088
0.55313011
0.55362864
0.55410486
0.55464504
0.55520571
0.55581031
0.55644894
0.5571265
0.5578389
0.55858665
0.55936812
0.56018158
0.56102517
0.56189687
0.5627945
0.5637157
0.564658
0.56561879
0.56659538
0.56758499
0.56858477
0.56959182
0.57060322
0.571616
0.57262721
0.57363387
0.574633
0.57562165
0.57659687
0.57755573
0.57849533
0.5794128
0.58030531
0.58117004
0.58200426
0.58280524
0.58357036
0.58429704
0.58498278
0.5856252
0.58622205
0.58677127
0.58727105
0.58771989
0.58811666
0.58846071
0.58875187
0.58899049
0.58917761
0.58931485
0.58940475
0.58945056
0.58945645
0.58942832
0.58937381
0.58930187
0.58922219
0.58914442
0.58907618
0.58901978
0.58896838
0.58889858
0.58877857
0.58854197
0.58816791
0.5875251
0.58667787
0.58545302
0.58405818
0.58249416
0.58042517
0.58045986
0.22624473
0.51079444
0.5548899
0.56275759
0.56014807
0.56028434
0.56031978
0.56090197
0.56115877
0.56159706
0.56195503
0.562395
0.56283642
0.5633115
0.56380372
0.56432158
0.56486212
0.56542786
0.56601855
0.56663412
0.56727429
0.56793852
0.56862602
0.56933578
0.57006652
0.57081676
0.57158479
0.57236873
0.57316647
0.57397577
0.57479421
0.57561928
0.57644831
0.57727854
0.57810715
0.57893122
0.57974781
0.5805539
0.58134649
0.58212254
0.58287902
0.58361293
0.58432128
0.58500113
0.58564961
0.58626393
0.58684137
0.58737938
0.58787553
0.58832765
0.58873385
0.58909258
0.58940273
0.58966369