/*--------------------------------*- C++ -*----------------------------------*\
  =========                 |
  \\      /  F ield         | OpenFOAM: The Open Source CFD Toolbox
   \\    /   O peration     | Website:  https://openfoam.org
    \\  /    A nd           | Version:  12
     \\/     M anipulation  |
\*---------------------------------------------------------------------------*/
FoamFile
{
    format      ascii;
    class       volScalarField;
    location    "0.045";
    object      alphat;
}
// * * * * * * * * * * * * * * * * * * * * * * * * * * * * * * * * * * * * * //

dimensions      [1 -1 -1 0 0 0 0];

internalField   nonuniform List<scalar> 
16000
(
5.1611241e-07
1.1128837e-05
2.228376e-05
2.6839266e-05
2.0571448e-05
2.86767e-05
1.9860488e-05
2.761107e-05
2.1046619e-05
2.9581851e-05
2.4418462e-05
2.9183199e-05
2.6372031e-05
2.725865e-05
2.6293684e-05
2.6197794e-05
2.5939846e-05
2.5895688e-05
2.5936681e-05
2.6090935e-05
2.6349652e-05
2.6712449e-05
2.7177124e-05
2.7744519e-05
2.8417628e-05
2.9203913e-05
3.0113208e-05
3.1160891e-05
3.2365772e-05
3.3748314e-05
3.5331053e-05
3.7143709e-05
3.92246e-05
4.1621041e-05
4.4391431e-05
4.7605825e-05
5.1348205e-05
5.5719293e-05
6.0844161e-05
6.687864e-05
7.4007571e-05
8.2450563e-05
9.2485544e-05
0.00010445569
0.00011877393
0.00013594024
0.00015657937
0.00018146104
0.00021153379
0.00024796773
0.00029221157
0.0003460632
0.00041175074
0.00049204552
0.00059039277
0.00071107677
0.00085943288
0.0010421182
0.0011916716
0.0011915602
0.0011914078
0.0011914494
0.0011916749
0.0011921593
0.0011929043
0.0011938384
0.0011947892
0.0011954717
0.0011954703
0.0011941895
0.001190788
0.0011844864
0.0011771155
0.0011717702
0.0011688421
0.0011681237
0.0011686152
0.0011690889
0.00117171
0.0011767503
4.6376797e-07
1.0547946e-05
2.1873992e-05
2.4382125e-05
1.8543097e-05
2.5672864e-05
1.7638546e-05
2.4142921e-05
1.8645801e-05
2.6102289e-05
2.2156693e-05
2.631131e-05
2.4155362e-05
2.4714938e-05
2.3973175e-05
2.3810039e-05
2.3602996e-05
2.3553132e-05
2.359701e-05
2.3741333e-05
2.398381e-05
2.4323478e-05
2.475879e-05
2.5290697e-05
2.5921733e-05
2.665892e-05
2.7510959e-05
2.8491832e-05
2.9619418e-05
3.0913748e-05
3.2395983e-05
3.4093508e-05
3.6042038e-05
3.8285696e-05
4.087948e-05
4.3889682e-05
4.7396281e-05
5.1494602e-05
5.6302009e-05
6.19668e-05
6.8667391e-05
7.6611913e-05
8.6063673e-05
9.7351353e-05
0.00011087318
0.00012710675
0.00014665011
0.00017024167
0.00019879194
0.00023342284
0.00027552081
0.00032680512
0.00038939915
0.00046593234
0.0005596518
0.0006745588
0.00081557094
0.00098873215
0.001190856
0.0011908497
0.0011906893
0.0011907441
0.0011909733
0.0011914366
0.0011921193
0.0011929367
0.0011937101
0.0011941577
0.001193878
0.0011923092
0.0011886906
0.0011824052
0.0011755248
0.0011707762
0.001168335
0.0011681671
0.0011688063
0.0011693559
0.0011718151
0.0011756429
4.1301033e-07
1.0097217e-05
2.0660848e-05
2.2270304e-05
1.6591605e-05
2.2598434e-05
1.5704969e-05
2.0967278e-05
1.6760909e-05
2.2881478e-05
2.0209477e-05
2.3426085e-05
2.190661e-05
2.214485e-05
2.1584173e-05
2.1390621e-05
2.1222285e-05
2.1177834e-05
2.1225416e-05
2.1363616e-05
2.1591973e-05
2.1909916e-05
2.2316207e-05
2.2812031e-05
2.339959e-05
2.4085601e-05
2.4877962e-05
2.5789395e-05
2.6836608e-05
2.8039117e-05
2.9417089e-05
3.0995985e-05
3.2809263e-05
3.4898161e-05
3.7314489e-05
4.0120847e-05
4.339338e-05
4.7222834e-05
5.1719696e-05
5.7024215e-05
6.3308844e-05
7.0772051e-05
7.9663592e-05
9.0297266e-05
0.00010305785
0.00011840261
0.00013690457
0.00015927246
0.00018638093
0.00021930747
0.00025938047
0.00030824637
0.00036793203
0.00044093684
0.00053032684
0.00063984755
0.0007740488
0.00093843696
0.0011396184
0.0011902735
0.0011901016
0.0011901565
0.0011903787
0.0011908096
0.0011914168
0.0011921005
0.0011926765
0.0011928675
0.0011922875
0.0011904065
0.001186546
0.0011802892
0.0011740167
0.0011698973
0.0011680768
0.0011683174
0.0011690593
0.0011697018
0.0011719298
0.0011746881
3.7295775e-07
9.7576334e-06
1.9585646e-05
2.0566813e-05
1.4900421e-05
1.9935852e-05
1.3994424e-05
1.8304387e-05
1.5087235e-05
2.0144211e-05
1.846516e-05
2.0868535e-05
1.983119e-05
1.9828339e-05
1.9403634e-05
1.9203983e-05
1.9068941e-05
1.9035589e-05
1.9089691e-05
1.9225661e-05
1.9443876e-05
1.974424e-05
2.0125858e-05
2.0590214e-05
2.1139334e-05
2.1779761e-05
2.2518887e-05
2.336839e-05
2.4343881e-05
2.546444e-05
2.6749565e-05
2.8223071e-05
2.9916565e-05
3.1868771e-05
3.4128755e-05
3.6755876e-05
3.9822877e-05
4.3416784e-05
4.7642461e-05
5.2632518e-05
5.8554495e-05
6.5599099e-05
7.4004659e-05
8.4071074e-05
9.617213e-05
0.00011074786
0.00012834922
0.00014965883
0.00017551929
0.00020696911
0.00024528423
0.00029204565
0.00034919315
0.00041911015
0.00050470352
0.00060949913
0.00073774132
0.00089450753
0.0010858245
0.0011899126
0.001189717
0.0011897425
0.001189927
0.0011902922
0.0011907907
0.0011913122
0.0011916717
0.0011916037
0.0011907441
0.0011886008
0.0011845776
0.0011784363
0.0011728193
0.0011693061
0.0011680429
0.001168465
0.0011693576
0.0011700339
0.0011720991
0.0011737127
3.3126556e-07
9.5009e-06
1.8668488e-05
2.0591844e-05
1.4762226e-05
1.7615354e-05
1.2491433e-05
1.6020174e-05
1.3649154e-05
1.7784e-05
1.6917223e-05
1.8566501e-05
1.7890364e-05
1.7720387e-05
1.7395302e-05
1.7207084e-05
1.7099157e-05
1.7077981e-05
1.7137394e-05
1.7270659e-05
1.7478433e-05
1.7761276e-05
1.8118723e-05
1.8552612e-05
1.9064969e-05
1.9662258e-05
2.0351507e-05
2.114357e-05
2.2052967e-05
2.3098287e-05
2.4298562e-05
2.5676213e-05
2.726128e-05
2.9090272e-05
3.1209831e-05
3.3676423e-05
3.6559656e-05
3.9943392e-05
4.3928075e-05
4.8638897e-05
5.4238947e-05
6.0912593e-05
6.8888621e-05
7.8453289e-05
8.9970712e-05
0.0001038658
0.00012066926
0.00014103933
0.00016578823
0.00019591813
0.00023265449
0.00027751548
0.00033235681
0.00039945109
0.00048155535
0.00058199296
0.00070473676
0.00085449758
0.0010368176
0.0011897328
0.0011895089
0.0011894792
0.0011896
0.0011898724
0.0011902364
0.0011905746
0.0011907058
0.0011903816
0.0011892676
0.0011869136
0.0011827978
0.0011768422
0.0011718921
0.0011689521
0.0011681205
0.0011686492
0.0011696749
0.0011706721
0.0011723328
0.0011728018
3.0561002e-07
9.3424353e-06
1.7929226e-05
2.0404428e-05
1.4533894e-05
1.5585462e-05
1.16884e-05
1.4135595e-05
1.2440112e-05
1.5782739e-05
1.5561187e-05
1.6545887e-05
1.6113199e-05
1.5842376e-05
1.5581042e-05
1.540868e-05
1.531861e-05
1.5305384e-05
1.5366166e-05
1.5494288e-05
1.5690393e-05
1.5955607e-05
1.628979e-05
1.6695027e-05
1.7173431e-05
1.7731496e-05
1.8375632e-05
1.9116362e-05
1.9967037e-05
2.0945718e-05
2.207115e-05
2.336461e-05
2.4854868e-05
2.6576558e-05
2.8574291e-05
3.0902079e-05
3.3626818e-05
3.6829737e-05
4.0608229e-05
4.508096e-05
5.0406798e-05
5.6765407e-05
6.4378675e-05
7.3520056e-05
8.4545817e-05
9.7868805e-05
0.00011400235
0.00013358378
0.00015739815
0.00018641639
0.0002218185
0.00026506612
0.0003179388
0.00038260917
0.0004617014
0.00055836169
0.00067633333
0.00082003464
0.00099464278
0.001189722
0.0011894679
0.0011893585
0.00118939
0.0011895431
0.0011897491
0.0011898868
0.0011897828
0.0011892107
0.0011878714
0.0011853591
0.0011812139
0.0011755354
0.001171235
0.0011687875
0.0011683268
0.0011689099
0.0011700214
0.0011713459
0.0011725476
0.0011720193
2.7968843e-07
9.2540526e-06
1.7353096e-05
1.9366813e-05
1.4405666e-05
1.3759617e-05
1.1779363e-05
1.2958893e-05
1.2229386e-05
1.4099188e-05
1.4349662e-05
1.4766834e-05
1.4467348e-05
1.4148491e-05
1.3923446e-05
1.3767529e-05
1.3690066e-05
1.3682937e-05
1.3744122e-05
1.3867503e-05
1.4053334e-05
1.4303232e-05
1.4617106e-05
1.4910184e-05
1.5348184e-05
1.5862542e-05
1.6458906e-05
1.7146771e-05
1.7938269e-05
1.8850539e-05
1.9901982e-05
2.111274e-05
2.2510386e-05
2.4127737e-05
2.6007477e-05
2.8201317e-05
3.0773549e-05
3.3802755e-05
3.738408e-05
4.1943584e-05
4.7042285e-05
5.3140766e-05
6.0456769e-05
6.9252272e-05
7.9876717e-05
9.2734034e-05
0.00010832325
0.00012726422
0.00015031782
0.00017842902
0.00021273738
0.00025465461
0.00030589209
0.00036853327
0.0004450854
0.00053854089
0.00065244863
0.00079099179
0.0009590752
0.0011623853
0.0011895734
0.0011893631
0.0011892821
0.0011892938
0.0011893233
0.0011892495
0.0011889095
0.0011881008
0.0011865607
0.0011839257
0.0011797968
0.0011745088
0.0011708057
0.0011687944
0.001168593
0.0011692075
0.0011703612
0.0011718073
0.0011726787
0.0011712517
2.4996733e-07
9.2076002e-06
1.6869323e-05
1.7640015e-05
1.3392107e-05
1.1983188e-05
1.0337524e-05
1.1605501e-05
1.0848581e-05
1.2654805e-05
1.3139975e-05
1.3143288e-05
1.2900529e-05
1.2582519e-05
1.2385065e-05
1.2250141e-05
1.2187063e-05
1.2188632e-05
1.2179408e-05
1.2283088e-05
1.2449046e-05
1.2677892e-05
1.2967665e-05
1.3319214e-05
1.3737611e-05
1.422712e-05
1.479366e-05
1.5446621e-05
1.6197466e-05
1.7062776e-05
1.8061095e-05
1.9211931e-05
2.0542235e-05
2.208363e-05
2.3877609e-05
2.5974349e-05
2.8436462e-05
3.1340755e-05
3.4781203e-05
3.887255e-05
4.3755039e-05
4.9606311e-05
5.6641978e-05
6.5662109e-05
7.5979507e-05
8.8482409e-05
0.0001036592
0.00012211579
0.00014459241
0.00017201415
0.00020548616
0.00024637805
0.00029634291
0.00035738756
0.00043192038
0.00052280533
0.00063343198
0.00076779925
0.000930614
0.0011273812
0.0011898011
0.0011894731
0.0011892598
0.0011891122
0.0011889521
0.0011886617
0.0011880901
0.0011870578
0.0011853353
0.0011826
0.0011785361
0.0011737376
0.0011705614
0.0011689252
0.0011688539
0.001169538
0.0011707022
0.0011720669
0.0011728074
0.0011699857
2.3008355e-07
9.1654734e-06
1.6383711e-05
1.5410159e-05
1.1027844e-05
1.0648871e-05
8.5205806e-06
9.8767039e-06
9.986175e-06
1.1403724e-05
1.1907891e-05
1.163781e-05
1.1421366e-05
1.1133813e-05
1.0963182e-05
1.0776795e-05
1.0702023e-05
1.0697235e-05
1.0754493e-05
1.0870689e-05
1.1041114e-05
1.126904e-05
1.1552844e-05
1.1893318e-05
1.229573e-05
1.2765179e-05
1.3307621e-05
1.3932447e-05
1.465066e-05
1.5478274e-05
1.6434094e-05
1.7537256e-05
1.8814435e-05
2.0296389e-05
2.2023821e-05
2.4045904e-05
2.6424127e-05
2.9234149e-05
3.2568645e-05
3.6540608e-05
4.128958e-05
4.6989245e-05
5.3856276e-05
6.2142746e-05
7.2171175e-05
8.4342408e-05
0.00010001256
0.00011814207
0.00014022721
0.00016717911
0.00020007522
0.00024025134
0.0002893126
0.00034920255
0.00042224924
0.00051121385
0.00061936039
0.00075054839
0.00090934604
0.001101152
0.0011901243
0.0011896652
0.001189304
0.0011889841
0.0011886267
0.0011881196
0.0011873251
0.0011860844
0.0011841972
0.0011813878
0.0011774463
0.0011731873
0.0011704641
0.001169116
0.0011691285
0.0011699035
0.00117105
0.0011722351
0.001172617
0.001169253
2.1179294e-07
9.1226657e-06
1.5105323e-05
1.3378359e-05
8.9395076e-06
9.4445463e-06
7.5193615e-06
8.9178462e-06
9.264698e-06
1.0207054e-05
1.0677271e-05
1.026398e-05
1.0057235e-05
9.71465e-06
9.5332145e-06
9.4246665e-06
9.3857169e-06
9.4070697e-06
9.4818644e-06
9.6100261e-06
9.7864967e-06
1.0013531e-05
1.0292919e-05
1.0625078e-05
1.1015501e-05
1.1469723e-05
1.1993842e-05
1.2597404e-05
1.3291114e-05
1.4090467e-05
1.5014598e-05
1.6082631e-05
1.732123e-05
1.8760622e-05
2.0441102e-05
2.2411318e-05
2.4732155e-05
2.7478748e-05
3.0743551e-05
3.4639228e-05
3.93043e-05
4.4910396e-05
5.1675686e-05
5.9849254e-05
6.9751988e-05
8.1781072e-05
9.6424512e-05
0.00011425236
0.00013722431
0.00016392732
0.00019651026
0.00023628321
0.00028481444
0.0003439978
0.00041609997
0.00050380509
0.00061028435
0.00073929944
0.00089533287
0.0010837378
0.0011905152
0.0011899145
0.001189394
0.0011888936
0.0011883358
0.0011876161
0.0011866109
0.0011851815
0.0011831562
0.0011803128
0.0011765429
0.0011728189
0.0011704791
0.001169348
0.0011694241
0.001170267
0.0011713741
0.0011723048
0.0011722146
0.0011690566
1.9533811e-07
9.0781366e-06
1.2015873e-05
1.1185365e-05
7.3181361e-06
8.4013957e-06
6.8535696e-06
8.0127155e-06
8.6817802e-06
9.1229387e-06
9.4622771e-06
8.9186237e-06
8.660529e-06
8.4257744e-06
8.295175e-06
8.2282299e-06
8.2198803e-06
8.2638406e-06
8.3552258e-06
8.4926148e-06
8.6745432e-06
8.903027e-06
9.1803593e-06
9.5075505e-06
9.8901788e-06
1.0334243e-05
1.0846124e-05
1.1435588e-05
1.2113269e-05
1.2894239e-05
1.3727914e-05
1.4761769e-05
1.596349e-05
1.7362738e-05
1.8999387e-05
2.0921585e-05
2.3189677e-05
2.5878308e-05
2.9079811e-05
3.2906796e-05
3.749788e-05
4.336143e-05
5.0092407e-05
5.8233942e-05
6.8105273e-05
8.0101124e-05
9.4713943e-05
0.00011251464
0.00013421572
0.0001606944
0.00019477395
0.00023445471
0.00028282775
0.00034175074
0.00041344756
0.00050055097
0.00060617056
0.00073400786
0.00088850541
0.0010750219
0.0011909447
0.0011901954
0.0011895086
0.0011888241
0.0011880669
0.0011871421
0.0011859423
0.0011843497
0.0011822232
0.0011793909
0.0011758256
0.0011726
0.0011705818
0.0011696194
0.0011697501
0.0011705924
0.0011716525
0.0011722992
0.0011718498
0.0011690396
1.8099199e-07
9.036114e-06
9.4819265e-06
9.4197245e-06
6.3856398e-06
7.4457897e-06
6.2962961e-06
7.2220522e-06
8.094789e-06
8.1133525e-06
8.1392448e-06
7.6729506e-06
7.4643851e-06
7.2948017e-06
7.2072056e-06
7.1747762e-06
7.192467e-06
7.2560516e-06
7.3616663e-06
7.5093969e-06
7.6979039e-06
7.9295853e-06
8.2076513e-06
8.5336111e-06
8.9131346e-06
9.3129022e-06
9.8106516e-06
1.0385091e-05
1.1046674e-05
1.1809943e-05
1.2692429e-05
1.3716894e-05
1.4909118e-05
1.6298764e-05
1.7925947e-05
1.9839112e-05
2.209905e-05
2.4780962e-05
2.7978393e-05
3.1805434e-05
3.6402683e-05
4.1945393e-05
4.8647696e-05
5.6765344e-05
6.661798e-05
7.9283363e-05
9.399521e-05
0.00011191993
0.00013376506
0.00016041099
0.0001929127
0.00023473098
0.00028331435
0.00034241915
0.0004142443
0.00050139636
0.00060695373
0.00073459194
0.00088875311
0.0010748438
0.0011913846
0.0011904832
0.0011896274
0.0011887595
0.0011878082
0.0011866894
0.0011853139
0.0011835884
0.0011813999
0.0011786189
0.0011752832
0.0011725081
0.0011707615
0.0011699402
0.0011700926
0.0011708748
0.0011718563
0.0011722661
0.0011717499
0.0011690299
1.6820587e-07
8.9872528e-06
7.5348461e-06
8.2726811e-06
5.6892763e-06
6.5844771e-06
5.8213955e-06
6.527267e-06
7.3923272e-06
6.9676403e-06
6.9431902e-06
6.5845827e-06
6.4211339e-06
6.3041986e-06
6.2533107e-06
6.250599e-06
6.2914443e-06
6.3732579e-06
6.4930355e-06
6.6515425e-06
6.8483326e-06
7.085899e-06
7.3372228e-06
7.6591236e-06
8.0341414e-06
8.4675544e-06
8.9680553e-06
9.5450156e-06
1.0209126e-05
1.0975147e-05
1.1860758e-05
1.2888424e-05
1.408532e-05
1.5481452e-05
1.711746e-05
1.9042502e-05
2.1318424e-05
2.4021543e-05
2.7247397e-05
3.1112694e-05
3.5760159e-05
4.1367023e-05
4.8155534e-05
5.6384107e-05
6.6377079e-05
7.8534699e-05
9.3349651e-05
0.00011140993
0.00013460372
0.00016162604
0.00019456059
0.00023468189
0.0002862205
0.00034594542
0.00041842692
0.00050627044
0.00061255355
0.00074095716
0.00089595727
0.0010830429
0.0011918091
0.0011907554
0.0011897324
0.0011886865
0.0011875515
0.001186254
0.0011847237
0.0011828935
0.0011806816
0.0011779925
0.0011749036
0.0011725289
0.0011710222
0.0011703074
0.0011704517
0.001171144
0.0011720176
0.0011722388
0.0011717268
0.00116918
1.5685764e-07
8.9261252e-06
6.0389508e-06
7.228829e-06
5.0753758e-06
5.8235694e-06
5.4192473e-06
5.822268e-06
6.4982361e-06
5.9729923e-06
5.8925636e-06
5.6326988e-06
5.5116449e-06
5.4386851e-06
5.4203753e-06
5.444498e-06
5.507072e-06
5.6066716e-06
5.7411897e-06
5.8900693e-06
6.0903743e-06
6.3313596e-06
6.6159588e-06
6.947942e-06
7.3326476e-06
7.7757887e-06
8.2859671e-06
8.8732753e-06
9.5486516e-06
1.0327029e-05
1.1226204e-05
1.2268865e-05
1.3421983e-05
1.4825549e-05
1.6471122e-05
1.8408505e-05
2.0700797e-05
2.3425442e-05
2.6679949e-05
3.0584149e-05
3.5283967e-05
4.1270526e-05
4.8205107e-05
5.6616479e-05
6.6834594e-05
7.9263488e-05
9.4409137e-05
0.00011287182
0.00013537387
0.0001642884
0.00019790182
0.00023881019
0.00028853951
0.00035226298
0.00042592758
0.00051510265
0.00062289767
0.00075302925
0.00091003796
0.0010995234
0.0011921962
0.0011909938
0.0011898102
0.0011885971
0.001187294
0.0011858382
0.0011841758
0.0011822649
0.001180059
0.001177498
0.001174674
0.001172651
0.0011713566
0.0011707131
0.0011708417
0.001171422
0.0011721495
0.001172214
0.0011718471
0.0011695372
1.4680704e-07
8.8163741e-06
4.8957876e-06
6.3023825e-06
4.5273913e-06
5.1481167e-06
5.0714376e-06
5.056229e-06
5.5894262e-06
5.0854086e-06
4.9813655e-06
4.8033385e-06
4.722716e-06
4.6878713e-06
4.6993212e-06
4.7484514e-06
4.832059e-06
4.9302151e-06
5.0739216e-06
5.2537113e-06
5.4708375e-06
5.727338e-06
6.0269369e-06
6.3736346e-06
6.7734228e-06
7.2323131e-06
7.7589791e-06
8.3390514e-06
9.0267081e-06
9.8181884e-06
1.0731292e-05
1.1788667e-05
1.301798e-05
1.4453941e-05
1.6137915e-05
1.8121023e-05
2.0468779e-05
2.326093e-05
2.6598001e-05
3.0604709e-05
3.5432028e-05
4.1269199e-05
4.8343369e-05
5.6931925e-05
6.7373288e-05
8.0751058e-05
9.6343952e-05
0.00011534501
0.00013849383
0.00016668279
0.00020287115
0.00024485628
0.00029584535
0.00035767427
0.00043667882
0.00052783244
0.00063793625
0.00077077635
0.00093098899
0.0011243098
0.0011925291
0.0011911855
0.0011898526
0.001188488
0.0011870374
0.0011854483
0.0011836798
0.0011817091
0.0011795232
0.0011771095
0.0011745806
0.0011728559
0.0011717457
0.0011711848
0.0011712479
0.0011717363
0.0011722666
0.0011722802
0.0011720661
0.0011701016
1.3796252e-07
8.5033186e-06
4.0885203e-06
5.4811406e-06
4.0417317e-06
4.5521568e-06
4.5191955e-06
4.3644827e-06
4.7076976e-06
4.2999942e-06
4.2001513e-06
4.0875935e-06
4.0451171e-06
4.0441202e-06
4.0830413e-06
4.1407539e-06
4.2376834e-06
4.3692148e-06
4.534667e-06
4.7345615e-06
4.9708661e-06
5.2462108e-06
5.564801e-06
5.9309603e-06
6.3368295e-06
6.8125582e-06
7.3566522e-06
7.9791253e-06
8.6925426e-06
9.5118629e-06
1.045528e-05
1.1546269e-05
1.2813504e-05
1.4292852e-05
1.6028279e-05
1.8072462e-05
2.0493962e-05
2.3375652e-05
2.6821309e-05
3.0961872e-05
3.5952676e-05
4.1990201e-05
4.9313379e-05
5.8207742e-05
6.9025135e-05
8.2191349e-05
9.9094323e-05
0.0001187688
0.0001427217
0.00017187825
0.00020731869
0.00025274145
0.00030533977
0.00036906975
0.00044616272
0.00054441162
0.00065764851
0.00079422069
0.00095889765
0.0011575826
0.0011927964
0.0011913221
0.0011898554
0.0011883582
0.0011867838
0.0011850895
0.0011832455
0.0011812393
0.0011790758
0.0011767924
0.0011746064
0.0011731246
0.0011721664
0.0011717087
0.0011717173
0.0011721024
0.0011724035
0.0011724589
0.0011724384
0.0011708113
1.3039832e-07
8.0660727e-06
3.6022355e-06
4.7553757e-06
3.611065e-06
3.8576697e-06
4.0327139e-06
3.7305861e-06
3.9066603e-06
3.6171532e-06
3.5390046e-06
3.4783521e-06
3.470811e-06
3.5003131e-06
3.5471729e-06
3.6375249e-06
3.7611197e-06
3.9168015e-06
4.104917e-06
4.326815e-06
4.5850812e-06
4.8826545e-06
5.2142078e-06
5.6007602e-06
6.0414889e-06
6.5434161e-06
7.1149696e-06
7.7664768e-06
8.5107113e-06
9.3635112e-06
1.034357e-05
1.1475259e-05
1.2788417e-05
1.4320518e-05
1.6048863e-05
1.8149606e-05
2.063946e-05
2.3604993e-05
2.731707e-05
3.1620057e-05
3.6809551e-05
4.308904e-05
5.0710378e-05
5.9970233e-05
7.1232657e-05
8.4941817e-05
0.00010163314
0.00012195076
0.00014797898
0.00017828855
0.00021511018
0.00025979572
0.00031693084
0.00038300224
0.00046288155
0.00056479933
0.00068203904
0.00082343688
0.00099394584
0.001194643
0.0011929907
0.001191399
0.0011898158
0.0011882067
0.0011865327
0.0011847614
0.0011828743
0.0011808658
0.0011787436
0.0011765808
0.001174735
0.0011734535
0.0011726348
0.0011722686
0.0011722768
0.001172509
0.0011725986
0.0011726863
0.0011728978
0.0011718542
1.2443217e-07
7.1648041e-06
3.1886856e-06
4.0981404e-06
3.2399914e-06
3.2175468e-06
3.5474536e-06
3.1559687e-06
3.2175241e-06
3.0336695e-06
2.9855364e-06
2.9671496e-06
2.9826216e-06
3.0317083e-06
3.1179655e-06
3.2368917e-06
3.386504e-06
3.5667972e-06
3.7789662e-06
4.0248479e-06
4.3012288e-06
4.6215233e-06
4.98597e-06
5.3995737e-06
5.8683006e-06
6.3993729e-06
7.0015611e-06
7.6855469e-06
8.4644504e-06
9.3341315e-06
1.034873e-05
1.1518143e-05
1.2873286e-05
1.4452789e-05
1.6304807e-05
1.848932e-05
2.1080135e-05
2.4169191e-05
2.7869894e-05
3.2321387e-05
3.7695105e-05
4.4518638e-05
5.2482007e-05
6.2161884e-05
7.3935716e-05
8.8265609e-05
0.00010570957
0.00012694066
0.00015416985
0.0001858121
0.00022423931
0.00027085125
0.00033050392
0.00039936636
0.00048261106
0.00058313934
0.00071112222
0.00085853384
0.0010363839
0.001194849
0.0011931087
0.0011914147
0.001189733
0.001188033
0.0011862833
0.0011844606
0.0011825568
0.0011805786
0.0011785406
0.0011765188
0.0011749644
0.0011738712
0.0011731824
0.0011729034
0.0011728938
0.0011729695
0.0011728935
0.001173063
0.0011735697
0.0011730517
1.1971483e-07
4.9881386e-06
2.8188118e-06
3.4890559e-06
2.7703243e-06
2.6820851e-06
3.034553e-06
2.6440399e-06
2.643699e-06
2.5423229e-06
2.5280816e-06
2.538081e-06
2.5853303e-06
2.6694158e-06
2.7858475e-06
2.9320786e-06
3.1074923e-06
3.3128404e-06
3.5465659e-06
3.8160861e-06
4.1227069e-06
4.4699449e-06
4.8620624e-06
5.3042293e-06
5.8026694e-06
6.3648735e-06
6.9999226e-06
7.7072301e-06
8.519156e-06
9.4444631e-06
1.050405e-05
1.1723812e-05
1.3136308e-05
1.4782299e-05
1.6712705e-05
1.8990713e-05
2.1694464e-05
2.4920626e-05
2.8788703e-05
3.3445884e-05
3.9073022e-05
4.589088e-05
5.4572495e-05
6.4719246e-05
7.7062781e-05
9.2085635e-05
0.0001103708
0.00013262276
0.00015969077
0.00019432354
0.00023457274
0.00028339018
0.00034254045
0.00041802068
0.00050522568
0.00061058126
0.00074488916
0.00089961665
0.0010864827
0.0011949695
0.0011931517
0.001191373
0.0011896115
0.0011878418
0.0011860398
0.0011841885
0.0011822846
0.0011803456
0.0011784143
0.0011766048
0.0011752987
0.0011743855
0.0011738512
0.0011735902
0.0011735736
0.0011735203
0.0011733279
0.0011735508
0.0011742861
0.00117423
1.1465758e-07
4.1402949e-06
2.4285159e-06
2.9284848e-06
2.3888072e-06
2.2361073e-06
2.5012644e-06
2.194357e-06
2.1771566e-06
2.1387566e-06
2.1541234e-06
2.1995914e-06
2.2836894e-06
2.3991953e-06
2.5434748e-06
2.7156159e-06
2.9160136e-06
3.1436882e-06
3.4045248e-06
3.6999129e-06
4.032957e-06
4.4074089e-06
4.8277469e-06
5.2993135e-06
5.8285181e-06
6.4230918e-06
7.0844908e-06
7.836601e-06
8.6881878e-06
9.6567267e-06
1.076416e-05
1.2037808e-05
1.351194e-05
1.5229491e-05
1.7244296e-05
1.9623455e-05
2.2449814e-05
2.5825408e-05
2.9876275e-05
3.4756944e-05
4.0657545e-05
4.8156941e-05
5.6918563e-05
6.7570214e-05
8.0531315e-05
9.6307284e-05
0.00011550931
0.00013887599
0.00016884833
0.00020366596
0.00024593704
0.00029722094
0.00035938535
0.00043876195
0.00053053877
0.00064153761
0.00078324165
0.00094671136
0.0011444581
0.0011950117
0.0011931292
0.0011912838
0.0011894619
0.0011876435
0.0011858106
0.0011839501
0.0011820592
0.0011801569
0.0011783169
0.0011768261
0.0011757279
0.0011749715
0.0011745728
0.0011742869
0.0011742987
0.0011741513
0.0011738854
0.0011741133
0.0011749681
0.0011752151
1.1124056e-07
3.335953e-06
2.0928132e-06
2.3636648e-06
2.0763221e-06
1.8550533e-06
2.0039038e-06
1.8124839e-06
1.8105479e-06
1.8225451e-06
1.8687268e-06
1.953077e-06
2.0687931e-06
2.2118182e-06
2.381148e-06
2.5771044e-06
2.7996269e-06
3.052575e-06
3.3378674e-06
3.658337e-06
4.0173645e-06
4.4188991e-06
4.8675634e-06
5.368824e-06
5.9292322e-06
6.5522043e-06
7.2541632e-06
8.0440424e-06
8.9364174e-06
9.9495498e-06
1.110658e-05
1.243634e-05
1.3975014e-05
1.5767867e-05
1.7871593e-05
2.0357159e-05
2.3312798e-05
2.6846072e-05
3.109039e-05
3.6208585e-05
4.2679798e-05
5.0250674e-05
5.9446381e-05
7.0631053e-05
8.4244226e-05
0.00010081848
0.00012099714
0.00014555888
0.00017702453
0.00021363286
0.00025810384
0.00031209261
0.00037759653
0.00046127274
0.00055822405
0.00067569132
0.0008258909
0.000999624
0.0011970069
0.0011949899
0.0011930541
0.0011911596
0.0011892952
0.0011874454
0.0011855964
0.0011837391
0.001181875
0.00118004
0.0011783975
0.0011771413
0.0011762147
0.0011756086
0.0011751777
0.0011750675
0.0011749889
0.0011747885
0.0011744954
0.0011747045
0.0011755366
0.0011759049
1.0976457e-07
2.6282699e-06
1.8025489e-06
1.8226307e-06
1.7885375e-06
1.5290952e-06
1.5971505e-06
1.5077636e-06
1.5371766e-06
1.5853066e-06
1.6711599e-06
1.7867534e-06
1.9285365e-06
2.0949247e-06
2.2862495e-06
2.5037462e-06
2.7484217e-06
3.023953e-06
3.3325402e-06
3.6772718e-06
4.0616885e-06
4.4898661e-06
4.9665329e-06
5.4972534e-06
6.0886824e-06
6.7489104e-06
7.4879101e-06
8.3180704e-06
9.2441327e-06
1.0302305e-05
1.1509568e-05
1.2896378e-05
1.4500993e-05
1.6371263e-05
1.8566818e-05
2.1248324e-05
2.4360039e-05
2.8083018e-05
3.2558878e-05
3.7960841e-05
4.4500203e-05
5.2433964e-05
6.2075926e-05
7.3807298e-05
8.8090973e-05
0.00010548887
0.0001266809
0.00015382204
0.00018547041
0.00022396656
0.00027077347
0.00032766143
0.00040053405
0.00048509287
0.00058777328
0.00071249264
0.00087223648
0.0010577669
0.001196964
0.0011949165
0.0011929375
0.0011910069
0.0011891121
0.0011872405
0.0011853815
0.0011835321
0.0011817069
0.0011799691
0.0011785947
0.0011775177
0.0011767032
0.0011762114
0.0011758088
0.0011757022
0.0011755825
0.0011753417
0.0011750557
0.0011752593
0.0011760433
0.0011764404
1.1132793e-07
2.0230378e-06
1.5605881e-06
1.4085011e-06
1.4944125e-06
1.2557365e-06
1.2991512e-06
1.2841458e-06
1.3470673e-06
1.4305861e-06
1.5457367e-06
1.6854003e-06
1.8482596e-06
2.0344612e-06
2.2452783e-06
2.4825243e-06
2.7480238e-06
3.0449279e-06
3.3758518e-06
3.7440077e-06
4.1530263e-06
4.607062e-06
5.1109281e-06
5.6702902e-06
6.2919336e-06
6.9841243e-06
7.75709e-06
8.623618e-06
9.5997939e-06
1.0705932e-05
1.1967659e-05
1.341735e-05
1.5095667e-05
1.7053552e-05
1.9354489e-05
2.2077283e-05
2.5319443e-05
2.9201532e-05
3.3871666e-05
3.9511715e-05
4.6344253e-05
5.4640192e-05
6.4726873e-05
7.7005155e-05
9.196095e-05
0.0001110974
0.0001334744
0.00016073272
0.00019393399
0.00023436668
0.00028359302
0.00034673769
0.00042019942
0.00050960562
0.00061846801
0.00075839696
0.00092126482
0.0011199762
0.0011968746
0.0011948004
0.0011927872
0.0011908267
0.0011889065
0.0011870162
0.0011851474
0.0011833036
0.001181535
0.0011800634
0.0011788633
0.0011779193
0.0011772188
0.0011766537
0.0011763907
0.001176211
0.0011760526
0.001175784
0.0011755305
0.0011757163
0.0011764169
0.0011767506
1.171352e-07
1.5265494e-06
1.3640303e-06
1.1063231e-06
1.3331829e-06
1.0290089e-06
1.0966954e-06
1.1357527e-06
1.2262784e-06
1.3381924e-06
1.4749126e-06
1.6332779e-06
1.8137046e-06
2.01737e-06
2.2460469e-06
2.5018121e-06
2.7870245e-06
3.1041205e-06
3.456298e-06
3.8467236e-06
4.2790924e-06
4.757631e-06
5.2872421e-06
5.8737059e-06
6.5239586e-06
7.2464666e-06
8.0517312e-06
8.9529736e-06
9.9668801e-06
1.1114621e-05
1.242293e-05
1.3925671e-05
1.5665418e-05
1.7695539e-05
2.0082574e-05
2.2909159e-05
2.6277466e-05
3.0313376e-05
3.5171503e-05
4.104128e-05
4.8483339e-05
5.7193121e-05
6.7784778e-05
8.0680371e-05
9.6392754e-05
0.00011554618
0.00013890056
0.00016738031
0.0002021062
0.00024673456
0.0002987517
0.00036216716
0.00043951188
0.0005339049
0.00065552968
0.00079750464
0.00097122958
0.0011841066
0.0011967552
0.0011946572
0.0011926159
0.0011906299
0.0011886881
0.0011867834
0.0011849163
0.0011831163
0.0011815524
0.0011802483
0.0011791742
0.0011783051
0.001177619
0.0011771094
0.0011768036
0.0011765853
0.0011763763
0.0011760946
0.0011758633
0.0011760077
0.0011765552
0.0011767676
1.2783763e-07
1.201052e-06
1.1948505e-06
9.6104549e-07
9.7375645e-07
8.9903891e-07
9.6352408e-07
1.0459666e-06
1.1578557e-06
1.2898789e-06
1.4429232e-06
1.6167705e-06
1.8126864e-06
2.0322505e-06
2.2773849e-06
2.5502316e-06
2.8531803e-06
3.1888889e-06
3.5603291e-06
3.9708406e-06
4.4242096e-06
4.9247769e-06
5.4775882e-06
6.0886102e-06
6.7650283e-06
7.5129287e-06
8.3471324e-06
9.2795624e-06
1.0336843e-05
1.1526352e-05
1.2882421e-05
1.444056e-05
1.6245381e-05
1.8352735e-05
2.0832219e-05
2.3770166e-05
2.7273262e-05
3.1472902e-05
3.6530431e-05
4.2643531e-05
5.0053979e-05
5.9057139e-05
7.0013341e-05
8.335991e-05
9.9632596e-05
0.00011948402
0.00014498973
0.00017479032
0.00021116074
0.00025556311
0.00030979053
0.00037605444
0.00045708805
0.00056156739
0.000683999
0.00083419752
0.001018758
0.0011988438
0.0011966337
0.0011945113
0.001192449
0.0011904456
0.0011884916
0.0011865827
0.001184737
0.0011830725
0.0011816755
0.0011804914
0.0011794857
0.0011786547
0.0011779662
0.0011774456
0.0011770664
0.0011767844
0.0011765172
0.0011762286
0.0011760211
0.0011761098
0.0011764657
0.001176518
1.4993139e-07
1.2512377e-06
1.0276384e-06
7.3208829e-07
7.9444878e-07
8.0276885e-07
8.8961651e-07
9.955613e-07
1.124349e-06
1.2716081e-06
1.4385395e-06
1.6260972e-06
1.8358359e-06
2.0694489e-06
2.3288825e-06
2.6163018e-06
2.9341249e-06
3.285053e-06
3.6721132e-06
4.0987115e-06
4.5687056e-06
5.0865099e-06
5.6572451e-06
6.2869543e-06
6.9829089e-06
7.7540275e-06
8.6114282e-06
9.5691325e-06
1.0644954e-05
1.1861545e-05
1.3247654e-05
1.4839683e-05
1.6683435e-05
1.8836283e-05
2.1369713e-05
2.4372389e-05
2.7953857e-05
3.2248966e-05
3.7423241e-05
4.3679393e-05
5.126542e-05
6.0918001e-05
7.2228363e-05
8.60094e-05
0.00010281851
0.00012333591
0.00014839433
0.00017901353
0.00021644426
0.00026222254
0.00031824888
0.00039044925
0.00047521054
0.00057926044
0.00070719484
0.00086477199
0.0010592273
0.0011987821
0.0011965514
0.0011944013
0.0011923151
0.0011902936
0.0011883321
0.0011864314
0.0011846273
0.001183137
0.0011818499
0.0011807434
0.0011797857
0.0011789564
0.0011782544
0.0011776706
0.0011772046
0.0011768262
0.0011764878
0.001176189
0.001175987
0.0011759862
0.0011761474
0.0011760858
1.4288404e-07
8.3510857e-07
8.4129146e-07
6.2363075e-07
6.8320791e-07
7.4599996e-07
8.5188195e-07
9.7511759e-07
1.1173793e-06
1.2776368e-06
1.4571839e-06
1.6572652e-06
1.8794628e-06
2.1255351e-06
2.3974666e-06
2.697478e-06
3.0280538e-06
3.3919278e-06
3.7922669e-06
4.2325331e-06
4.7166657e-06
5.2491608e-06
5.8352219e-06
6.4809781e-06
7.1937956e-06
7.9827039e-06
8.8589605e-06
9.8367765e-06
1.0943246e-05
1.2187368e-05
1.360469e-05
1.5232547e-05
1.711786e-05
1.9319366e-05
2.1910199e-05
2.4981057e-05
2.8643972e-05
3.3036891e-05
3.8329241e-05
4.4728693e-05
5.2489431e-05
6.1922235e-05
7.3406883e-05
8.7409674e-05
0.00010450116
0.00012538136
0.00015090961
0.00018374047
0.00022225623
0.00026942791
0.00032725955
0.0003982442
0.00048550033
0.00059294176
0.00072549538
0.00088937823
0.0010924309
0.0011988151
0.0011965644
0.0011943815
0.0011922546
0.0011901872
0.0011881853
0.0011862828
0.0011846417
0.0011832446
0.0011820365
0.0011809762
0.001180033
0.0011791873
0.0011784438
0.0011777926
0.0011772369
0.0011767672
0.0011763583