/*--------------------------------*- C++ -*----------------------------------*\
  =========                 |
  \\      /  F ield         | OpenFOAM: The Open Source CFD Toolbox
   \\    /   O peration     | Website:  https://openfoam.org
    \\  /    A nd           | Version:  12
     \\/     M anipulation  |
\*---------------------------------------------------------------------------*/
FoamFile
{
    format      ascii;
    class       volScalarField;
    location    "0.045";
    object      k;
}
// * * * * * * * * * * * * * * * * * * * * * * * * * * * * * * * * * * * * * //

dimensions      [0 2 -2 0 0 0 0];

internalField   nonuniform List<scalar> 
16000
(
0.051163881
0.022184217
0.023334836
0.017190655
0.014521149
0.013104642
0.012284779
0.011783717
0.011449421
0.011222001
0.01105506
0.010930559
0.010833596
0.010756731
0.010694922
0.010644966
0.010604133
0.010570553
0.010543165
0.010520523
0.010502163
0.010487068
0.010474897
0.010465204
0.010457626
0.010451835
0.010447649
0.01044488
0.010443385
0.010443026
0.010443672
0.010445214
0.01044756
0.01045063
0.010454353
0.010458656
0.010463466
0.010468708
0.010474304
0.010480177
0.010486241
0.010492398
0.010498548
0.010504578
0.010510346
0.010515683
0.010520397
0.010524261
0.010527015
0.010528359
0.01052798
0.010525593
0.010520972
0.010513983
0.010504632
0.010493092
0.010479741
0.010465186
0.010450287
0.010436129
0.010423967
0.010415148
0.010410916
0.010412106
0.010418771
0.010429749
0.010442313
0.010451915
0.010451801
0.010432175
0.010379303
0.010280975
0.010166564
0.010081644
0.010030328
0.010010039
0.010005139
0.010002809
0.01005336
0.010143155
0.047298484
0.02098584
0.021805912
0.016609363
0.014161972
0.01290653
0.012117914
0.01166902
0.011347869
0.011138993
0.010982666
0.010867397
0.01077715
0.010706036
0.010648878
0.010602922
0.010565597
0.010535023
0.010510341
0.010490051
0.010473867
0.010460747
0.010450385
0.010442347
0.010436351
0.010432019
0.010429193
0.010427692
0.010427378
0.010428123
0.010429799
0.010432295
0.010435519
0.010439387
0.010443827
0.010448766
0.010454128
0.010459836
0.010465808
0.010471964
0.010478213
0.010484453
0.010490578
0.010496469
0.010501986
0.010506956
0.010511184
0.010514453
0.010516509
0.010517074
0.010515867
0.010512643
0.010507218
0.01049951
0.010489573
0.010477627
0.010464079
0.010449552
0.010434907
0.010421205
0.010409637
0.010401425
0.010397629
0.010398848
0.010404887
0.01041437
0.010424451
0.010430589
0.010426221
0.010402092
0.010345808
0.010247691
0.010140626
0.010064325
0.010021081
0.010008001
0.010005783
0.010006431
0.0100554
0.010127251
0.043379233
0.020142618
0.020397125
0.016015266
0.013792836
0.012673683
0.011944404
0.011539208
0.011243585
0.011053911
0.01090937
0.010803806
0.010720784
0.010655734
0.010603561
0.010561828
0.01052823
0.010500879
0.010479083
0.010461307
0.010447435
0.010436413
0.01042799
0.010421691
0.010417367
0.01041457
0.010413184
0.010413017
0.010413943
0.01041584
0.010418585
0.010422066
0.01042619
0.01043087
0.010436032
0.010441599
0.010447495
0.010453639
0.010459944
0.010466325
0.01047269
0.01047893
0.010484933
0.010490575
0.010495715
0.010500177
0.010503769
0.010506276
0.010507458
0.010507058
0.010504833
0.010500577
0.010494158
0.010485551
0.010474868
0.010462376
0.010448521
0.010433949
0.01041952
0.010406268
0.010395314
0.010387742
0.01038441
0.01038566
0.010391016
0.010398878
0.010406285
0.010408737
0.010399885
0.010370981
0.010310971
0.010213317
0.010115348
0.01004835
0.010014422
0.010006472
0.010007255
0.010011338
0.010057458
0.010113067
0.040143684
0.019578712
0.019193624
0.01548344
0.013458747
0.012460241
0.011785466
0.011421456
0.011147616
0.01097545
0.010842121
0.010745528
0.0106694
0.010610086
0.010562691
0.010524981
0.010494949
0.01047072
0.010451726
0.01043639
0.010424771
0.010415787
0.010409286
0.010404671
0.010401981
0.010400673
0.010400707
0.010401841
0.010403971
0.010406979
0.010410747
0.010415162
0.010420127
0.010425553
0.010431362
0.010437475
0.010443812
0.010450289
0.010456817
0.010463305
0.010469657
0.010475763
0.010481505
0.010486756
0.010491373
0.010495185
0.010498001
0.010499617
0.010499809
0.010498347
0.010495024
0.010489679
0.010482228
0.010472702
0.010461263
0.010448221
0.010434047
0.0104194
0.010405127
0.01039222
0.010381716
0.010374549
0.010371374
0.010372291
0.010376586
0.01038249
0.01038702
0.010385836
0.010372928
0.010340161
0.010277815
0.010182057
0.010093957
0.010035948
0.010010013
0.010004904
0.010009368
0.010017391
0.010059997
0.010098465
0.036639782
0.019251284
0.01818856
0.014990497
0.013147637
0.012258788
0.01163611
0.011309896
0.011057769
0.010901967
0.010779651
0.010691612
0.010622231
0.010568488
0.010525793
0.010492022
0.010465468
0.010444331
0.010428117
0.010415203
0.010405825
0.010398862
0.010394306
0.010391366
0.010390292
0.010390469
0.010391907
0.01039433
0.010397645
0.010401738
0.010406494
0.010411798
0.010417549
0.010423656
0.010430036
0.010436606
0.010443283
0.010449982
0.01045661
0.010463072
0.010469269
0.010475091
0.010480417
0.010485117
0.010489051
0.010492052
0.010493938
0.010494515
0.01049358
0.010490935
0.010486411
0.010479889
0.010471339
0.01046084
0.010448602
0.010434969
0.010420437
0.010405668
0.010391484
0.010378826
0.010368632
0.010361683
0.010358432
0.010358751
0.010361722
0.010365458
0.010367025
0.010362337
0.010345847
0.010310103
0.010246574
0.010153854
0.010075758
0.010026237
0.010006707
0.010003619
0.010011845
0.010026487
0.010063144
0.0100845
0.034661981
0.019172334
0.017427858
0.014538851
0.012861135
0.012070928
0.01149783
0.011206269
0.010975007
0.010834272
0.010722639
0.010642667
0.010579815
0.010531434
0.010493318
0.010463389
0.010440194
0.0104221
0.01040863
0.010398114
0.010390961
0.010386009
0.010383392
0.010382181
0.010382655
0.01038442
0.01038712
0.010390809
0.010395276
0.010400411
0.010406098
0.010412222
0.01041868
0.010425373
0.010432216
0.010439122
0.010446007
0.010452782
0.010459354
0.010465625
0.010471496
0.010476856
0.010481585
0.010485553
0.010488625
0.010490644
0.010491436
0.010490824
0.01048863
0.01048469
0.010478871
0.010471102
0.010461399
0.01044989
0.010436825
0.010422576
0.010407656
0.010392718
0.010378555
0.010366039
0.010355999
0.010349063
0.010345485
0.010344939
0.010346342
0.010347751
0.010346338
0.010338353
0.010318804
0.010280947
0.010217207
0.01012902
0.010060663
0.010018845
0.010004412
0.010002871
0.01001456
0.010035319
0.010065545
0.010070579
0.032242603
0.019268115
0.016891538
0.014124673
0.012596944
0.011896219
0.011370418
0.011110418
0.010899281
0.010772366
0.010671057
0.010598723
0.010542193
0.010499
0.010465365
0.010439234
0.010419314
0.010404233
0.010393486
0.010385386
0.010380442
0.010377594
0.010376783
0.010377616
0.010379368
0.010382544
0.010386676
0.010391594
0.010397168
0.010403284
0.010409826
0.010416678
0.010423732
0.010430888
0.010438055
0.010445145
0.010452071
0.010458744
0.010465072
0.010470958
0.010476302
0.010480997
0.010484927
0.010487965
0.010489982
0.010490835
0.010490365
0.010488413
0.01048483
0.010479486
0.010472287
0.010463206
0.010452305
0.010439754
0.010425835
0.010410946
0.010395603
0.010380447
0.010366228
0.01035374
0.010343696
0.010336568
0.010332431
0.010330788
0.010330445
0.010329448
0.010325125
0.010314089
0.010291921
0.010252548
0.010189342
0.010107439
0.010048179
0.010013277
0.010002263
0.01000238
0.0100169
0.010041589
0.010065711
0.010055414
0.029458452
0.019464823
0.016464746
0.013745471
0.012353673
0.01173447
0.01125339
0.011022304
0.010830346
0.010716182
0.010624865
0.010559843
0.010509477
0.010471358
0.010442141
0.010419819
0.010403153
0.010391058
0.010382977
0.010377394
0.010374557
0.010374269
0.01037463
0.010377186
0.010380861
0.010385483
0.010390923
0.010397017
0.010403626
0.010410631
0.010417917
0.010425367
0.01043287
0.010440323
0.010447633
0.010454711
0.01046147
0.010467824
0.010473684
0.010478957
0.010483545
0.010487347
0.010490255
0.010492149
0.010492911
0.010492412
0.010490512
0.010487076
0.010481982
0.010475137
0.010466485
0.010456041
0.010443907
0.01043029
0.010415499
0.010399948
0.010384151
0.010368725
0.010354368
0.010341788
0.010331579
0.010324063
0.010319155
0.010316224
0.01031401
0.0103106
0.010303501
0.01028968
0.010265235
0.010224751
0.010162874
0.010088787
0.010037758
0.010008688
0.0099997661
0.010002216
0.01001889
0.010044242
0.010064807
0.010035592
0.027709291
0.01966589
0.01598973
0.01339794
0.012129633
0.011584958
0.011146028
0.010941258
0.010768168
0.010665929
0.010584274
0.010526314
0.01048198
0.010448859
0.010424009
0.010405536
0.010392189
0.010383031
0.010377348
0.010374628
0.010372838
0.010375287
0.010378215
0.010382334
0.010387513
0.010393539
0.010400223
0.010407403
0.010414934
0.010422694
0.010430566
0.010438434
0.010446187
0.01045372
0.010460941
0.010467763
0.010474103
0.010479881
0.010485011
0.010489409
0.010492986
0.01049565
0.0104973
0.01049783
0.010497134
0.0104951
0.010491613
0.01048656
0.010479849
0.010471422
0.010461262
0.01044942
0.010436033
0.010421337
0.010405663
0.010389433
0.01037315
0.0103574
0.010342819
0.010330026
0.010319494
0.010311408
0.010305546
0.01030118
0.010297024
0.01029125
0.010281562
0.010265244
0.010238854
0.010197721
0.010138093
0.010072625
0.010028848
0.010004423
0.0099972343
0.010002409
0.010020345
0.010044315
0.01005955
0.010022413
0.025960909
0.019847597
0.015297935
0.013079104
0.011924544
0.011448215
0.011049112
0.010868141
0.0107133
0.010622051
0.01054971
0.010498606
0.010460181
0.010432002
0.010411476
0.010396867
0.010386953
0.010380756
0.010376321
0.010377638
0.010379468
0.01038253
0.010387252
0.010393075
0.010399759
0.010407096
0.010414909
0.010423031
0.010431315
0.010439634
0.010447872
0.010455915
0.010463656
0.010470992
0.010477836
0.010484107
0.010489729
0.01049463
0.010498738
0.010501977
0.010504271
0.010505538
0.010505692
0.010504641
0.010502294
0.010498559
0.010493343
0.010486562
0.010478153
0.010468088
0.010456385
0.010443128
0.010428484
0.01041271
0.010396151
0.010379229
0.010362431
0.010346302
0.010331413
0.010318287
0.010307284
0.010298466
0.0102915
0.010285592
0.010279469
0.010271418
0.010259361
0.01024089
0.010213004
0.010171856
0.010115321
0.010058464
0.01002102
0.010000475
0.0099949426
0.010002562
0.010020873
0.010042156
0.010051331
0.010014502
0.024383289
0.019999502
0.014719436
0.012786764
0.011738923
0.011323771
0.010963183
0.010803711
0.010665994
0.010584978
0.010521626
0.010477236
0.010444623
0.010421357
0.01040513
0.010394361
0.010387899
0.010384954
0.010385038
0.010386693
0.010390557
0.010395987
0.010402515
0.010409927
0.010417987
0.010426485
0.010435242
0.010444091
0.010452882
0.010461487
0.010469793
0.010477694
0.010485089
0.010491885
0.010498004
0.010503377
0.01050794
0.010511635
0.010514404
0.010516186
0.010516919
0.010516536
0.010514968
0.010512137
0.010507969
0.010502392
0.010495338
0.010486748
0.010476587
0.010464856
0.010451603
0.01043694
0.010421052
0.010404214
0.010386777
0.010369156
0.010351817
0.010335258
0.010319977
0.010306407
0.0102948
0.010285112
0.010276926
0.010269409
0.010261329
0.010251115
0.010236941
0.010216728
0.010187927
0.010147474
0.010094664
0.010045937
0.010014074
0.0099969855
0.0099929732
0.010002146
0.010020313
0.010038566
0.01004354
0.01000768
0.022979434
0.020137273
0.014218382
0.012520744
0.011572754
0.011211955
0.010888128
0.010747823
0.010626584
0.010555223
0.010500553
0.010462786
0.010435915
0.010417562
0.010405642
0.010398687
0.010395646
0.010395673
0.010398176
0.010402809
0.010408909
0.010416204
0.010424421
0.010433267
0.010442507
0.010451928
0.010461351
0.010470614
0.010479569
0.010488093
0.010496079
0.010503436
0.010510077
0.010515927
0.010520921
0.010525009
0.010528145
0.010530288
0.010531398
0.010531432
0.010530343
0.010528082
0.010524593
0.010519816
0.010513694
0.010506174
0.010497211
0.010486769
0.010474839
0.010461447
0.010446665
0.010430624
0.010413527
0.010395653
0.010377356
0.010359038
0.010341135
0.010324097
0.010308349
0.010294234
0.010281908
0.01027124
0.010261753
0.010252602
0.010242616
0.010230386
0.010214365
0.010192855
0.010163773
0.010124743
0.010076067
0.01003485
0.010008007
0.0099939981
0.009991105
0.01000093
0.01001846
0.010034352
0.010038335
0.010001264
0.021708732
0.020235632
0.013767267
0.012281072
0.011425659
0.011113113
0.01082404
0.010700988
0.010595436
0.010533326
0.010487086
0.010455911
0.010434758
0.010421335
0.010413755
0.010410642
0.010411018
0.010414181
0.010419469
0.010426388
0.010434575
0.010443665
0.010453352
0.010463366
0.010473471
0.010483456
0.010493149
0.010502393
0.010511054
0.010519022
0.010526207
0.010532538
0.010537952
0.010542398
0.010545837
0.010548237
0.010549577
0.010549835
0.010548989
0.010547014
0.010543881
0.010539554
0.010533993
0.010527153
0.010518993
0.010509476
0.010498577
0.010486283
0.010472606
0.010457591
0.010441329
0.010423966
0.010405712
0.010386846
0.010367715
0.010348707
0.010330226
0.010312668
0.010296388
0.010281643
0.010268507
0.010256781
0.010245954
0.010235191
0.010223401
0.010209345
0.010191762
0.010169372
0.010140608
0.010103656
0.010059454
0.010025099
0.010002825
0.0099913267
0.009989283
0.0099990216
0.01001563
0.010029842
0.010032936
0.0099962929
0.020565152
0.020251569
0.013356359
0.012065991
0.011296788
0.011026706
0.010771027
0.01066358
0.01057302
0.010519951
0.010481973
0.010457407
0.010441988
0.010433533
0.010430325
0.010431089
0.010434891
0.010441021
0.010448911
0.010458082
0.010468123
0.010478692
0.010489494
0.01050026
0.010510764
0.010520805
0.010530221
0.010538878
0.010546667
0.010553502
0.010559323
0.010564087
0.010567765
0.010570338
0.010571792
0.010572124
0.010571332
0.010569414
0.010566368
0.010562183
0.010556843
0.010550326
0.010542603
0.010533643
0.010523416
0.010511902
0.01049909
0.010484987
0.010469622
0.010453056
0.01043539
0.01041678
0.010397436
0.010377634
0.010357708
0.010338025
0.010318956
0.010300847
0.010283983
0.010268545
0.010254538
0.010241718
0.010229561
0.010217269
0.010203841
0.010188203
0.010169356
0.010146426
0.010118426
0.010084132
0.010044731
0.010016498
0.0099982708
0.009988672
0.0099875833
0.0099965515
0.010011801
0.01002478
0.010027253
0.0099930018
0.019534766
0.020065039
0.012985559
0.011874172
0.011185906
0.010953201
0.010729389
0.01063627
0.010560069
0.010516015
0.010486192
0.010468289
0.01045864
0.010455185
0.010456341
0.010460914
0.010468019
0.01047698
0.010487226
0.010498288
0.010509773
0.010521341
0.010532706
0.010543614
0.01055386
0.010563269
0.010571711
0.010579086
0.010585325
0.010590383
0.010594238
0.010596886
0.010598334
0.010598597
0.010597691
0.010595634
0.010592446
0.010588141
0.010582729
0.01057621
0.010568578
0.010559819
0.010549914
0.010538839
0.010526578
0.010513119
0.010498464
0.010482635
0.010465675
0.010447655
0.010428685
0.010408921
0.01038857
0.010367899
0.010347223
0.010326887
0.01030723
0.010288548
0.010271066
0.010254899
0.010239998
0.010226094
0.010212673
0.01019899
0.010184148
0.010167232
0.010147457
0.010124269
0.010097219
0.010065857
0.010031716
0.010008713
0.0099939451
0.0099861911
0.0099859096
0.0099936707
0.010006991
0.010019386
0.010021526
0.0099912918
0.018602299
0.019252904
0.012651589
0.011704852
0.011093268
0.010892921
0.010699667
0.010620032
0.010557663
0.01052271
0.010500996
0.010489804
0.010485926
0.010487429
0.010492843
0.010501042
0.010511175
0.010522578
0.010534706
0.010547096
0.010559365
0.010571194
0.010582323
0.010592538
0.010601673
0.010609606
0.010616255
0.010621575
0.010625549
0.010628185
0.010629503
0.010629541
0.010628342
0.010625949
0.010622404
0.010617743
0.010611998
0.010605194
0.010597345
0.010588459
0.010578533
0.010567558
0.010555519
0.0105424
0.010528189
0.010512884
0.010496498
0.010479059
0.010460623
0.010441269
0.010421109
0.010400296
0.010379031
0.010357565
0.010336193
0.010315234
0.010294996
0.010275734
0.01025762
0.010240716
0.010224936
0.010210003
0.010195429
0.010180534
0.010164538
0.010146685
0.010126381
0.010103251
0.010077141
0.010048382
0.010020177
0.010001509
0.0099897394
0.0099839122
0.0099840913
0.0099903643
0.010001287
0.01001372
0.010016111
0.0099909106
0.017758863
0.017868435
0.012356296
0.01155769
0.011017816
0.010846815
0.010682915
0.010616302
0.010567277
0.010541536
0.010527867
0.010523352
0.010525136
0.010531403
0.010540772
0.010552175
0.010564786
0.010577961
0.010591173
0.010603988
0.010616062
0.010627123
0.010636969
0.010645455
0.010652485
0.010658009
0.010662015
0.010664524
0.010665577
0.010665233
0.010663556
0.010660618
0.010656488
0.010651231
0.010644902
0.010637547
0.010629203
0.010619896
0.010609642
0.010598445
0.010586304
0.010573209
0.010559147
0.010544105
0.010528075
0.010511063
0.010493084
0.010474178
0.010454404
0.010433846
0.010412619
0.01039087
0.010368789
0.010346608
0.0103246
0.010303056
0.010282254
0.010262417
0.010243677
0.010226058
0.010209448
0.010193572
0.010177981
0.010162073
0.010145188
0.010126737
0.010106318
0.010083684
0.010058742
0.010032387
0.010009933
0.0099949507
0.0099857878
0.0099816291
0.0099821224
0.0099868622
0.0099953475
0.010007108
0.010010495
0.0099924764
0.017000171
0.016957586
0.01210651
0.011433041
0.010960486
0.010816292
0.010680658
0.010626797
0.010590647
0.010574163
0.010568391
0.010570362
0.010577489
0.010588053
0.010600743
0.010614546
0.010628665
0.010642499
0.010655579
0.010667539
0.010678117
0.010687131
0.010694477
0.010700106
0.010704019
0.010706249
0.010706861
0.010705938
0.010703576
0.010699872
0.010694924
0.010688821
0.010681649
0.010673478
0.010664366
0.010654361
0.010643493
0.010631784
0.010619243
0.010605871
0.010591661
0.010576599
0.010560674
0.010543872
0.010526189
0.010507631
0.010488221
0.010468002
0.010447036
0.010425412
0.010403242
0.010380669
0.01035787
0.010335057
0.010312478
0.010290396
0.01026906
0.010248669
0.010229331
0.010211041
0.010193673
0.010176963
0.010160509
0.010143796
0.010126287
0.010107538
0.01008732
0.01006559
0.010042376
0.010018619
0.01000102
0.0099893733
0.0099826088
0.0099799086
0.0099805819
0.0099838149
0.0099901247
0.010001314
0.010006037
0.0099944173
0.016318474
0.01592856
0.011892999
0.011331404
0.010922256
0.010803087
0.010694562
0.010653462
0.010629724
0.010622408
0.010624189
0.010632142
0.01064388
0.010657776
0.0106726
0.010687414
0.010701512
0.010714392
0.010725706
0.010735218
0.010742798
0.010748399
0.010752038
0.01075378
0.01075372
0.010751974
0.01074867
0.010743939
0.010737908
0.010730699
0.010722418
0.010713162
0.010703011
0.010692033
0.010680277
0.010667779
0.010654561
0.010640633
0.010625996
0.010610641
0.010594556
0.010577723
0.010560126
0.010541753
0.0105226
0.010502675
0.010482003
0.010460629
0.010438619
0.010416061
0.010393068
0.010369777
0.010346354
0.010322992
0.010299913
0.01027735
0.010255529
0.010234625
0.010214735
0.010195842
0.010177812
0.010160401
0.010143259
0.010125971
0.010108108
0.010089327
0.010069481
0.010048698
0.010027449
0.01000727
0.0099937583
0.0099852102
0.0099807845
0.0099793202
0.009980154
0.0099822388
0.0099865903
0.0099963612
0.010001839
0.0099965571
0.015707895
0.015213989
0.011717866
0.011253398
0.010904237
0.010809425
0.01072684
0.010698683
0.01068678
0.010688151
0.010696628
0.010709392
0.010724258
0.010739732
0.010754735
0.0107685
0.010780503
0.010790426
0.010798111
0.010803509
0.010806653
0.010807641
0.010806613
0.010803732
0.010799169
0.010793094
0.010785671
0.010777051
0.01076737
0.010756747
0.010745283
0.010733062
0.010720149
0.010706595
0.010692435
0.010677689
0.010662365
0.010646459
0.010629961
0.010612853
0.010595115
0.010576725
0.010557665
0.01053792
0.010517487
0.010496376
0.010474611
0.010452238
0.010429324
0.010405957
0.01038225
0.010358338
0.010334377
0.010310546
0.010287042
0.010264069
0.010241826
0.010220475
0.010200104
0.010180699
0.010162133
0.010144185
0.010126563
0.010108937
0.010090974
0.010072398
0.010053064
0.010033131
0.010013539
0.0099984589
0.0099884161
0.0099826011
0.0099801241
0.0099794939
0.0099810623
0.0099823959
0.0099851015
0.0099926636
0.0099981289
0.0099981735
0.015162543
0.01443867
0.011577705
0.011201619
0.010908458
0.010838695
0.010780587
0.010765229
0.010763962
0.010772597
0.010785864
0.010801173
0.010816634
0.010831019
0.010843534
0.010853705
0.010861286
0.01086621
0.01086855
0.010868444
0.010866084
0.010861687
0.010855478
0.010847678
0.010838493
0.01082811
0.010816695
0.010804391
0.010791317
0.010777573
0.010763238
0.010748372
0.010733019
0.010717206
0.010700948
0.010684248
0.010667098
0.010649483
0.01063138
0.010612762
0.010593603
0.010573878
0.010553563
0.010532646
0.010511121
0.010488998
0.010466302
0.010443078
0.010419391
0.010395331
0.010371009
0.010346561
0.010322139
0.01029791
0.010274053
0.010250747
0.010228166
0.010206453
0.010185695
0.01016589
0.01014693
0.010128621
0.010110719
0.010092957
0.010075076
0.01005686
0.010038231
0.010019593
0.010003234
0.0099919803
0.0099849276
0.0099813298
0.0099801081
0.0099813418
0.009982683
0.0099836598
0.0099853098
0.0099908094
0.0099953857
0.0099980126
0.014681919
0.013831145
0.011477165
0.011180768
0.010939097
0.010895044
0.010858992
0.01085501
0.010861786
0.010874702
0.010889406
0.010903752
0.01091633
0.010926357
0.010933455
0.010937519
0.010938623
0.010936957
0.010932784
0.010926392
0.010918068
0.01090809
0.010896712
0.01088416
0.01087063
0.010856292
0.010841283
0.010825715
0.010809677
0.010793236
0.010776442
0.010759327
0.010741908
0.010724189
0.010706166
0.010687824
0.01066914
0.010650088
0.010630635
0.010610749
0.010590397
0.01056955
0.010548184
0.010526284
0.010503845
0.010480876
0.0104574
0.010433461
0.010409125
0.010384478
0.010359634
0.010334727
0.010309908
0.010285342
0.010261196
0.01023763
0.010214794
0.010192813
0.010171768
0.01015167
0.010132436
0.010113901
0.010095852
0.010078067
0.01006034
0.010042555
0.010024828
0.01000797
0.0099959851
0.0099877781
0.0099829496
0.0099811941
0.0099812422
0.0099831507
0.0099846802
0.0099854306
0.0099865416
0.0099907817
0.0099948552
0.0099983113
0.014271402
0.013349179
0.011418839
0.011196023
0.011018051
0.01098161
0.010963202
0.010966884
0.010977118
0.010989618
0.011001159
0.01101028
0.011016238
0.011018798
0.011018025
0.011014164
0.011007548
0.010998542
0.010987511
0.0109748
0.010960716
0.010945525
0.010929454
0.010912691
0.01089539
0.010877674
0.010859636
0.010841349
0.010822861
0.010804206
0.010785401
0.010766451
0.010747349
0.01072808
0.010708619
0.010688937
0.010668999
0.01064877
0.01062821
0.010607281
0.010585948
0.010564179
0.010541949
0.010519243
0.010496054
0.010472391
0.010448277
0.010423754
0.010398884
0.010373755
0.010348478
0.010323186
0.010298031
0.010273177
0.010248786
0.01022501
0.010201981
0.010179808
0.010158558
0.010138245
0.010118808
0.010100113
0.010081977
0.010064211
0.010046652
0.010029289
0.010012781
0.010000309
0.0099913777
0.0099856311
0.0099825521
0.009981673
0.0099832019
0.0099852449
0.0099869959
0.009987741
0.0099887256
0.0099920183
0.0099957331
0.0099990216
0.013940364
0.012959512
0.011406973
0.011248015
0.011119678
0.01109767
0.011089553
0.011094634
0.01110204
0.011108478
0.011112004
0.011111988
0.011108366
0.011101388
0.011091455
0.011079022
0.011064536
0.011048407
0.011030996
0.011012609
0.010993499
0.010973871
0.010953887
0.010933673
0.010913322
0.010892903
0.010872463
0.010852031
0.010831619
0.010811227
0.010790846
0.010770456
0.01075003
0.010729537
0.010708938
0.010688193
0.010667257
0.010646088
0.010624641
0.010602875
0.010580753
0.010558243
0.010535318
0.010511964
0.010488175
0.010463959
0.010439339
0.010414354
0.010389066
0.010363559
0.010337941
0.010312343
0.010286916
0.010261818
0.010237212
0.010213245
0.010190047
0.010167715
0.010146309
0.010125841
0.010106264
0.01008747
0.01006931
0.010051651
0.010034462
0.010018126
0.010005065
0.0099955623
0.0099890699
0.009985094
0.0099832773
0.0099833671
0.0099851401
0.0099874575
0.0099893284
0.0099902497
0.0099912357
0.0099938225
0.0099970309
0.0099997831
0.013705287
0.012674811
0.011444582
0.011342974
0.011251941
0.011234741
0.011227825
0.011226815
0.011224917
0.011220256
0.011212109
0.011200572
0.011186054
0.011169068
0.011150128
0.011129704
0.0111082
0.01108595
0.01106322
0.011040221
0.011017112
0.010994013
0.010971009
0.010948159
0.010925497
0.010903042
0.010880797
0.010858755
0.010836898
0.010815201
0.010793631
0.01077215
0.010750719
0.01072929
0.010707816
0.01068625
0.01066454
0.010642638
0.010620498
0.010598077
0.010575337
0.010552244
0.010528776
0.010504916
0.010480661
0.010456018
0.010431012
0.010405681
0.010380085
0.010354305
0.010328446
0.010302632
0.010277007
0.010251725
0.01022694
0.010202797
0.010179425
0.010156927
0.010135372
0.010114787
0.010095151
0.010076384
0.010058357
0.010040974
0.010024469
0.010010539
0.010000442
0.009993283
0.0099885731
0.0099858781
0.0099848992
0.0099854172
0.0099870436
0.0099892275
0.0099911071
0.0099923333
0.0099935618
0.0099957094
0.0099982826
0.010000236
0.013571595
0.012493703
0.011532432
0.011469899
0.011399931
0.011379143
0.011363458
0.011349537
0.011333568
0.011314976
0.011293845
0.01127062
0.011245815
0.011219914
0.011193326
0.01116638
0.011139329
0.011112365
0.011085626
0.011059208
0.011033173
0.01100756
0.010982384
0.010957645
0.010933332
0.010909424
0.010885889
0.010862694
0.010839798
0.010817155
0.01079472
0.01077244
0.010750266
0.010728142
0.010706015
0.01068383
0.010661535
0.010639077
0.01061641
0.010593489
0.010570275
0.010546738
0.010522855
0.010498611
0.010474004
0.010449044
0.010423756
0.010398179
0.010372373
0.010346416
0.01032041
0.010294474
0.010268744
0.010243363
0.010218475
0.010194213
0.010170696
0.010148024
0.010126275
0.010105509
0.010085755
0.010066998
0.010049182
0.010032289
0.0100168
0.010005961
0.0099980504
0.0099926437
0.0099892047
0.0099873708
0.0099868604
0.0099874185
0.0099887675
0.0099904771
0.0099921202
0.0099936026
0.0099951344
0.0099970729
0.0099991353
0.010000373
0.013498375
0.012414777
0.011685328
0.011611819
0.011546836
0.011511832
0.01148034
0.011449885
0.011418624
0.011386506
0.011353763
0.011320738
0.011287744
0.011255032
0.01122279
0.011191147
0.011160185
0.011129951
0.011100465
0.011071726
0.011043719
0.011016417
0.010989784
0.010963777
0.010938353
0.01091346
0.010889048
0.010865061
0.010841445
0.010818144
0.010795099
0.010772252
0.010749545
0.010726919
0.010704317
0.01068168
0.010658955
0.010636088
0.010613031
0.010589739
0.010566175
0.010542308
0.010518115
0.010493586
0.010468718
0.010443525
0.010418032
0.010392281
0.010366334
0.010340269
0.010314185
0.0102882
0.010262447
0.010237061
0.010212177
0.010187915
0.010164372
0.010141618
0.0101197
0.010098652
0.01007851
0.010059327
0.010041223
0.010024688
0.010012104
0.010003156
0.009996974
0.009992864
0.0099903109
0.0099889708
0.0099885837
0.0099889359
0.0099898776
0.0099912055
0.009992671
0.0099941333
0.0099957076
0.0099975556
0.0099994378
0.010000486
0.013501591
0.012368253
0.0118422
0.011744458
0.011668521
0.011614954
0.011566198
0.011520522
0.011476522
0.011433957
0.011392737
0.011352866
0.011314341
0.011277152
0.011241268
0.011206646
0.011173233
0.011140968
0.011109787
0.011079621
0.011050402
0.011022061
0.010994529
0.010967738
0.010941621
0.010916111
0.010891142
0.010866649
0.010842569
0.010818837
0.01079539
0.010772166
0.010749102
0.010726137
0.010703212
0.010680267
0.010657247
0.0106341
0.010610775
0.010587229
0.010563423
0.010539328
0.010514921
0.010490191
0.010465137
0.010439773
0.010414128
0.010388245
0.010362187
0.010336038
0.010309898
0.010283888
0.010258137
0.010232782
0.010207955
0.010183777
0.010160343
0.010137714
0.010115904
0.01009489
0.010074635
0.010055159
0.010036721
0.010020505
0.010009525
0.0100018
0.0099967405
0.0099934948
0.0099914765
0.0099903542
0.0099899403
0.0099900769
0.0099906756
0.0099916162
0.0099927935
0.0099941671
0.0099957573
0.0099974958
0.0099990422
0.0099999174
0.013591047
0.012385427
0.011958474
0.011841271
0.011749901
0.011680313
0.011618515
0.011562387
0.011510189
0.011461214
0.011414977
0.011371159
0.011329511
0.01128983
0.011251942
0.011215695
0.011180951
0.011147586
0.011115486
0.011084546
0.011054668
0.01102576
0.010997735
0.010970511
0.010944008
0.010918151
0.010892867
0.010868085
0.010843737
0.010819755
0.010796073
0.010772626
0.010749352
0.010726187
0.01070307
0.010679944
0.010656752
0.010633439
0.010609958
0.010586264
0.010562317
0.010538087
0.010513551
0.010488695
0.010463518
0.010438033
0.010412268
0.010386269
0.010360101
0.010333851
0.010307623
0.010281536
0.010255719
0.010230299
0.010205404
0.01018116
0.010157691
0.010135102
0.010113458
0.010092753
0.010072921
0.010053912
0.010035916
0.010020078
0.010009315
0.010001887
0.0099971892
0.0099942714
0.0099924752
0.0099914048
0.0099908398
0.009990694
0.0099909757
0.009991627
0.0099926317
0.0099939595
0.009995526
0.0099971253
0.0099984635
0.0099994778
0.013718891
0.012443193
0.01201773
0.011890383
0.011788454
0.011710527
0.011642561
0.011581876
0.011526295
0.011474778
0.011426611
0.011381307
0.011338501
0.011297905
0.011259283
0.011222437
0.011187198
0.011153416
0.011120958
0.011089706
0.011059551
0.011030393
0.011002139
0.010974701
0.010947998
0.010921952
0.010896486
0.010871529
0.010847012
0.010822865
0.010799023
0.010775422
0.010751996
0.010728685
0.010705428
0.010682165
0.010658842
0.010635406
0.010611806
0.010587998
0.010563943
0.010539608
0.010514968
0.010490008
0.010464723
0.010439125
0.010413237
0.010387107
0.010360798
0.010334398
0.010308011
0.01028175
0.010255725
0.01023004
0.010204791
0.010180085
0.010156053
0.010132844
0.010110568
0.010089244
0.010068801
0.010049268
0.010031334
0.010018198
0.010008649
0.010001865
0.0099975444
0.0099947781
0.0099931671
0.0099922089
0.009991521
0.0099911041
0.0099911945
0.0099916383
0.0099924992
0.009993756
0.0099952689
0.0099967921
0.0099980705
0.0099992398
60.557284
337.59828
114.62636
13.983861
0.38361867
0.021144311
0.020241815
0.020012239
0.019784188
0.018732741
0.01738809
0.016163921
0.01524099
0.014663329
0.014250937
0.013867563
0.01350041
0.013171168
0.012889082
0.012651034
0.012449096
0.012275575
0.012124755
0.011992584
0.01187598
0.011772434
0.011679912
0.011596792
0.011521807
0.011453953
0.011392396
0.011336411
0.01128537
0.011238755
0.011196159
0.011157258
0.011121778
0.011089477
0.011060133
0.011033546
0.011009542
0.010987946
0.010968581
0.01095128
0.010935882
0.010922218
0.010910114
0.010899396
0.010889904
0.010881482
0.010873977