/*--------------------------------*- C++ -*----------------------------------*\
  =========                 |
  \\      /  F ield         | OpenFOAM: The Open Source CFD Toolbox
   \\    /   O peration     | Website:  https://openfoam.org
    \\  /    A nd           | Version:  12
     \\/     M anipulation  |
\*---------------------------------------------------------------------------*/
FoamFile
{
    format      ascii;
    class       volScalarField;
    location    "0.045";
    object      rho;
}
// * * * * * * * * * * * * * * * * * * * * * * * * * * * * * * * * * * * * * //

dimensions      [1 -3 0 0 0 0 0];

internalField   nonuniform List<scalar> 
16000
(
1.0630886
1.095301
1.083317
1.0915314
1.0877412
1.0911414
1.0901688
1.0919763
1.0921117
1.0933086
1.0939453
1.0949452
1.0958065
1.0967861
1.0977636
1.0987918
1.0998509
1.1009485
1.1020826
1.1032541
1.1044628
1.1057089
1.1069919
1.1083114
1.1096667
1.1110569
1.1124808
1.113937
1.1154237
1.116939
1.1184805
1.1200457
1.1216317
1.1232353
1.1248532
1.1264817
1.128117
1.129755
1.1313917
1.1330227
1.1346439
1.1362508
1.1378393
1.1394052
1.1409445
1.1424534
1.1439284
1.145366
1.1467632
1.1481171
1.1494252
1.1506851
1.1518944
1.1530511
1.1541529
1.1551976
1.1561827
1.1571053
1.157962
1.1587491
1.1594621
1.1600967
1.1606487
1.1611143
1.161491
1.161778
1.1619782
1.1621007
1.1621642
1.1621983
1.1622422
1.1623392
1.1625422
1.1629441
1.163661
1.1646565
1.1656486
1.1665951
1.1666449
1.1663101
1.0599945
1.0927275
1.0802024
1.0888979
1.0848898
1.0885509
1.0874819
1.0894556
1.089587
1.0908833
1.0915723
1.0926463
1.0935813
1.0946345
1.095692
1.0968004
1.0979439
1.099128
1.1003515
1.1016148
1.1029179
1.1042603
1.1056415
1.1070609
1.1085173
1.1100094
1.1115357
1.1130944
1.1146831
1.1162994
1.1179405
1.1196033
1.1212844
1.1229801
1.1246864
1.1263992
1.1281143
1.129827
1.1315329
1.1332273
1.1349056
1.1365634
1.1381962
1.1397998
1.1413702
1.1429037
1.1443968
1.1458465
1.14725
1.1486047
1.1499084
1.1511592
1.1523554
1.1534952
1.154577
1.1555993
1.1565602
1.1574572
1.1582878
1.1590485
1.1597355
1.1603446
1.1608716
1.1613132
1.1616669
1.1619328
1.1621154
1.1622259
1.1622852
1.1623242
1.1623815
1.1624989
1.1627336
1.1631868
1.1639445
1.164909
1.1658862
1.1667201
1.1667051
1.1663255
1.0571887
1.0903778
1.077507
1.0864829
1.0823348
1.0861966
1.0850988
1.0871928
1.087365
1.0887448
1.089507
1.0906574
1.0916775
1.092813
1.0939601
1.095159
1.0963969
1.0976778
1.0990009
1.1003661
1.101773
1.103221
1.1047092
1.1062366
1.1078015
1.1094024
1.1110371
1.1127034
1.1143983
1.116119
1.1178619
1.1196234
1.1213995
1.1231859
1.1249781
1.1267714
1.1285608
1.1303416
1.1321088
1.1338573
1.1355825
1.1372796
1.1389442
1.1405721
1.1421595
1.143703
1.1451993
1.1466457
1.1480398
1.1493796
1.1506634
1.1518898
1.1530574
1.1541653
1.1552124
1.1561977
1.1571198
1.1579771
1.1587675
1.1594882
1.1601359
1.1607068
1.1611971
1.1616037
1.1619246
1.1621609
1.1623185
1.1624111
1.1624615
1.1625017
1.1625693
1.1627064
1.1629769
1.1634811
1.1642669
1.1651991
1.1661362
1.1668543
1.1667722
1.166375
1.0546949
1.0882588
1.074964
1.0843191
1.0800367
1.0841264
1.0830062
1.0852369
1.0854595
1.0869345
1.0877837
1.0890216
1.0901409
1.0913713
1.0926212
1.0939233
1.095268
1.0966577
1.0980918
1.0995697
1.101091
1.1026545
1.1042592
1.1059033
1.1075851
1.1093023
1.1110522
1.112832
1.1146381
1.116467
1.1183144
1.1201759
1.1220469
1.1239224
1.1257972
1.1276661
1.1295235
1.1313642
1.1331829
1.1349744
1.1367337
1.1384563
1.1401377
1.141774
1.1433617
1.1448977
1.1463793
1.1478044
1.149171
1.1504778
1.1517237
1.1529079
1.1540298
1.1550889
1.1560849
1.1570172
1.1578852
1.1586879
1.1594238
1.1600908
1.1606862
1.161207
1.1616498
1.162012
1.1622924
1.1624928
1.1626206
1.1626909
1.162728
1.1627636
1.1628339
1.1629837
1.1632851
1.1638261
1.1646136
1.1655106
1.1663952
1.1669977
1.1668537
1.1664521
1.0525432
1.0864922
1.072817
1.082458
1.0780436
1.0823988
1.0812701
1.0836426
1.0839373
1.085514
1.0864685
1.0878036
1.0890356
1.090372
1.0917354
1.0931512
1.0946125
1.0961207
1.0976753
1.0992755
1.1009203
1.1026085
1.1043383
1.1061077
1.1079141
1.1097547
1.1116261
1.1135245
1.1154457
1.1173852
1.1193379
1.1212987
1.123262
1.125222
1.127173
1.1291091
1.1310243
1.1329129
1.1347695
1.1365887
1.1383657
1.140096
1.1417755
1.1434009
1.144969
1.1464774
1.1479241
1.1493077
1.1506271
1.1518816
1.1530709
1.1541949
1.1552537
1.1562475
1.1571765
1.1580408
1.1588404
1.1595748
1.1602431
1.1608439
1.1613752
1.1618345
1.1622194
1.162528
1.1627597
1.1629175
1.16301
1.1630538
1.1630736
1.1631003
1.1631686
1.1633285
1.1636572
1.1642213
1.1649912
1.1658471
1.1666696
1.1671541
1.1669545
1.1665597
1.0507792
1.0850946
1.071084
1.0810217
1.0765274
1.0810862
1.0799491
1.0824798
1.0828672
1.084549
1.0856222
1.0870589
1.0884115
1.0898611
1.0913456
1.0928838
1.094471
1.0961079
1.0977935
1.0995269
1.1013064
1.1031301
1.1049957
1.1069002
1.1088404
1.1108123
1.1128117
1.1148338
1.1168732
1.1189246
1.1209818
1.1230387
1.125089
1.127126
1.1291432
1.1311344
1.1330931
1.1350136
1.1368901
1.1387177
1.1404917
1.1422082
1.1438637
1.1454553
1.146981
1.1484391
1.1498285
1.1511487
1.1523996
1.1535813
1.1546945
1.1557398
1.1567181
1.1576302
1.1584768
1.1592588
1.1599765
1.1606301
1.161219
1.1617425
1.1621991
1.1625872
1.1629051
1.1631518
1.1633278
1.1634371
1.1634896
1.1635025
1.1635009
1.1635145
1.1635774
1.1637459
1.1640936
1.1646631
1.1654041
1.1662115
1.166954
1.1673268
1.1670784
1.1666999
1.049413
1.0840883
1.0697711
1.0800382
1.0754475
1.0802211
1.0791291
1.0817849
1.082277
1.0840518
1.0852508
1.0867928
1.0882754
1.0898501
1.0914687
1.093144
1.0948725
1.0966536
1.0984861
1.100368
1.1022971
1.1042705
1.1062848
1.1083362
1.11042
1.1125315
1.1146649
1.1168143
1.1189733
1.1211352
1.1232928
1.125439
1.1275665
1.129668
1.1317366
1.1337654
1.1357482
1.1376789
1.1395524
1.1413641
1.1431098
1.1447866
1.1463918
1.1479237
1.1493812
1.1507639
1.1520717
1.1533053
1.1544656
1.1555538
1.1565714
1.1575199
1.1584008
1.1592157
1.1599658
1.1606524
1.1612763
1.1618379
1.1623374
1.1627742
1.1631475
1.1634563
1.1636998
1.1638778
1.1639922
1.164048
1.164056
1.1640341
1.1640068
1.1640031
1.1640595
1.1642345
1.1645897
1.1651469
1.165854
1.166607
1.167258
1.1675172
1.1672282
1.1668726
1.0483877
1.0834199
1.0688227
1.0794616
1.0747842
1.0797732
1.0787157
1.0815574
1.0820902
1.0839731
1.0853293
1.0870005
1.0886379
1.090362
1.0921376
1.0939726
1.095864
1.0978105
1.0998098
1.1018592
1.1039554
1.1060944
1.1082714
1.1104814
1.1127185
1.1149762
1.1172475
1.1195251
1.1218011
1.1240677
1.1263165
1.1285394
1.1307284
1.1328758
1.1349741
1.1370168
1.1389975
1.1409108
1.1427523
1.1445182
1.1462055
1.1478124
1.1493376
1.1507807
1.152142
1.1534225
1.1546234
1.1557467
1.1567943
1.1577686
1.1586719
1.1595065
1.1602746
1.1609782
1.1616192
1.1621991
1.162719
1.1631798
1.1635816
1.1639244
1.1642078
1.1644314
1.164595
1.1646996
1.164748
1.1647464
1.1647063
1.1646459
1.164589
1.1645642
1.1646135
1.16479
1.165139
1.1656697
1.166335
1.1670287
1.1675888
1.1677363
1.1674057
1.1670805
1.0476898
1.0830673
1.0682157
1.0793097
1.0744597
1.0796181
1.0786402
1.0815526
1.082352
1.0843789
1.0859221
1.0877472
1.0895639
1.0914634
1.0934209
1.0954403
1.0975186
1.0996534
1.1018412
1.1040782
1.1063595
1.1086797
1.1110326
1.1134113
1.1158082
1.1182153
1.1206239
1.123025
1.1254095
1.1277679
1.1300913
1.1323706
1.1345973
1.1367635
1.1388621
1.1408866
1.1428317
1.144693
1.1464672
1.148152
1.1497461
1.1512491
1.1526615
1.1539847
1.1552206
1.1563715
1.1574404
1.1584303
1.1593443
1.1601859
1.1609579
1.1616636
1.1623055
1.1628862
1.1634077
1.1638719
1.1642801
1.1646332
1.1649316
1.1651753
1.1653645
1.165499
1.1655795
1.1656077
1.1655875
1.1655259
1.1654349
1.1653329
1.1652433
1.1651949
1.1652354
1.165404
1.1657344
1.1662279
1.1668397
1.1674739
1.167943
1.1679877
1.1676107
1.1673303
1.0473484
1.0830621
1.0679875
1.0794918
1.0745104
1.0800295
1.0790857
1.0821686
1.0831703
1.0853419
1.0871027
1.08911
1.0911334
1.0932372
1.0954041
1.097635
1.0999259
1.102273
1.1046715
1.1071157
1.1095991
1.1121142
1.1146529
1.1172063
1.1197647
1.1223181
1.1248561
1.1273679
1.1298432
1.1322713
1.1346426
1.1369476
1.139178
1.1413261
1.1433856
1.1453513
1.1472192
1.1489867
1.1506524
1.1522159
1.1536781
1.1550407
1.1563062
1.1574779
1.1585593
1.1595546
1.1604679
1.1613034
1.1620655
1.162758
1.1633849
1.1639495
1.1644549
1.1649039
1.1652985
1.1656409
1.1659321
1.1661733
1.1663648
1.1665069
1.1665997
1.1666437
1.1666399
1.1665909
1.1665011
1.1663784
1.166235
1.1660894
1.1659653
1.165893
1.1659169
1.166067
1.1663688
1.1668159
1.1673657
1.1679406
1.1683159
1.1682675
1.1678424
1.1676319
1.0474208
1.0834661
1.0681727
1.0799105
1.075022
1.0806864
1.0800844
1.083333
1.0845996
1.0869444
1.0889573
1.0911808
1.0934411
1.0957807
1.0981869
1.1006577
1.1031879
1.1057718
1.1084026
1.1110722
1.1137718
1.1164915
1.1192206
1.1219477
1.1246609
1.127348
1.1299967
1.1325949
1.1351309
1.1375938
1.1399735
1.142261
1.1444486
1.1465302
1.1485011
1.150358
1.1520995
1.1537253
1.1552366
1.1566356
1.1579257
1.159111
1.1601962
1.1611864
1.1620869
1.1629032
1.1636408
1.1643048
1.1649003
1.1654317
1.1659032
1.1663184
1.1666806
1.1669925
1.1672563
1.1674736
1.1676459
1.1677737
1.1678576
1.1678977
1.1678945
1.1678486
1.1677615
1.1676361
1.1674775
1.167294
1.1670984
1.1669085
1.1667497
1.166652
1.1666486
1.1667714
1.1670366
1.1674284
1.1679125
1.1684252
1.1687097
1.1685755
1.1681017
1.1679964
1.0479973
1.0843609
1.0688799
1.0808859
1.0761815
1.0821216
1.0817423
1.0851643
1.0867414
1.0892858
1.0915837
1.0940606
1.0965915
1.0992011
1.1018791
1.1046205
1.107418
1.110263
1.113146
1.1160558
1.1189804
1.121907
1.1248217
1.1277105
1.1305591
1.1333531
1.1360789
1.1387231
1.1412739
1.1437204
1.1460533
1.1482653
1.1503506
1.1523056
1.1541285
1.1558192
1.1573794
1.158812
1.1601214
1.1613127
1.1623921
1.1633658
1.1642407
1.1650237
1.1657215
1.1663407
1.1668875
1.1673679
1.1677871
1.16815
1.1684606
1.1687226
1.1689391
1.1691125
1.1692448
1.1693375
1.1693915
1.1694075
1.1693856
1.169326
1.1692293
1.1690962
1.1689286
1.1687295
1.1685046
1.1682623
1.1680159
1.1677832
1.1675877
1.1674573
1.167423
1.1675123
1.1677321
1.168063
1.1684825
1.1689318
1.1691263
1.1689031
1.1684136
1.1684327
1.0490771
1.085757
1.0701156
1.082521
1.0779866
1.0841559
1.0841165
1.0877275
1.089675
1.0924608
1.0950835
1.0978593
1.1007011
1.1036207
1.1066073
1.1096523
1.112745
1.1158732
1.1190231
1.1221801
1.1253282
1.128451
1.1315316
1.1345531
1.137499
1.1403536
1.1431021
1.1457316
1.1482309
1.1505909
1.1528048
1.1548683
1.1567794
1.1585383
1.1601473
1.1616103
1.1629328
1.1641217
1.1651843
1.1661289
1.1669639
1.1676979
1.1683392
1.168896
1.169376
1.1697865
1.1701342
1.1704249
1.1706641
1.1708563
1.1710056
1.171115
1.1711874
1.1712249
1.1712288
1.1712004
1.1711402
1.1710484
1.1709251
1.1707705
1.1705848
1.1703693
1.1701256
1.1698572
1.1695698
1.1692722
1.1689774
1.1687028
1.1684702
1.168305
1.1682358
1.1682849
1.1684527
1.1687211
1.1690814
1.1694687
1.1695688
1.1692393
1.1688121
1.168949
1.0507079
1.0876984
1.0719288
1.0847723
1.0805039
1.0869261
1.0873081
1.0911323
1.0935116
1.0965932
1.0995877
1.1027155
1.1059159
1.1091901
1.112524
1.1159042
1.1193153
1.1227401
1.1261601
1.1295561
1.1329081
1.1361958
1.1393994
1.1424996
1.1454787
1.1483208
1.151012
1.1535414
1.1559009
1.1580853
1.1600925
1.1619232
1.1635804
1.1650697
1.166398
1.167574
1.1686073
1.1695081
1.1702868
1.1709541
1.1715202
1.1719953
1.1723886
1.1727089
1.1729645
1.1731625
1.1733095
1.1734112
1.1734726
1.1734977
1.1734899
1.173452
1.1733861
1.1732937
1.1731757
1.1730327
1.1728649
1.172672
1.172454
1.1722108
1.1719428
1.171651
1.1713374
1.1710055
1.1706609
1.1703124
1.1699726
1.169658
1.1693884
1.1691876
1.1690812
1.1690864
1.1691991
1.1694074
1.169713
1.1700314
1.1700321
1.169587
1.1693116
1.1695554
1.0529505
1.0902466
1.0744272
1.0877537
1.0838421
1.0905234
1.0914319
1.0955102
1.0983906
1.1018411
1.1052664
1.1088079
1.1124197
1.1160928
1.119808
1.1235458
1.1272847
1.1310018
1.1346734
1.1382751
1.1417825
1.1451723
1.1484224
1.1515131
1.1544276
1.1571523
1.1596775
1.1619973
1.1641095
1.1660155
1.1677198
1.1692296
1.1705543
1.1717049
1.1726935
1.1735329
1.1742363
1.1748166
1.1752865
1.175658
1.1759426
1.1761507
1.176292
1.1763753
1.1764083
1.1763979
1.17635
1.1762696
1.1761609
1.1760273
1.1758715
1.1756954
1.1755004
1.1752873
1.1750566
1.1748081
1.1745415
1.1742564
1.1739521
1.1736287
1.1732863
1.172926
1.1725498
1.172161
1.1717654
1.1713715
1.1709911
1.1706394
1.1703347
1.1700993
1.1699559
1.1699161
1.1699741
1.1701279
1.1703821
1.1706222
1.1705158
1.1700102
1.1699329
1.1702663
1.0558641
1.0934377
1.0777368
1.0915412
1.0881172
1.0950825
1.0966476
1.1010528
1.1045158
1.1084234
1.1123458
1.1163622
1.1204324
1.1245379
1.1286526
1.1327497
1.1368005
1.1407754
1.1446444
1.1483783
1.1519498
1.1553341
1.1585103
1.1614618
1.164177
1.1666489
1.1688759
1.1708603
1.1726089
1.1741313
1.17544
1.1765493
1.1774744
1.1782316
1.1788371
1.1793069
1.1796563
1.1798998
1.1800511
1.1801226
1.1801257
1.1800707
1.1799666
1.1798214
1.179642
1.1794344
1.1792035
1.1789535
1.1786873
1.1784077
1.1781162
1.1778141
1.177502
1.17718
1.1768477
1.1765047
1.1761499
1.1757826
1.175402
1.1750079
1.1746002
1.17418
1.1737491
1.173311
1.1728713
1.172438
1.1720221
1.1716375
1.1713013
1.1710343
1.1708555
1.1707722
1.1707803
1.1708884
1.1710981
1.1712629
1.1710663
1.1705817
1.1707066
1.1711065
1.0595132
1.0972791
1.0819923
1.096273
1.0935261
1.10084
1.1032103
1.1080368
1.1121621
1.1166135
1.1210926
1.1256324
1.1301918
1.1347413
1.1392456
1.1436681
1.1479715
1.1521187
1.1560751
1.1598095
1.1632953
1.1665123
1.1694464
1.1720901
1.1744423
1.1765076
1.1782955
1.1798194
1.181096
1.1821436
1.1829822
1.1836318
1.1841126
1.1844442
1.1846452
1.1847329
1.1847235
1.1846315
1.1844703
1.1842515
1.1839857
1.183682
1.1833482
1.1829911
1.1826164
1.1822287
1.1818318
1.1814285
1.1810211
1.1806109
1.1801988
1.179785
1.1793696
1.1789518
1.1785307
1.178105
1.1776737
1.1772353
1.176789
1.1763342
1.1758708
1.1753996
1.1749225
1.1744428
1.173966
1.1734997
1.173054
1.1726416
1.1722785
1.1719837
1.1717724
1.1716491
1.171615
1.1716875
1.1718578
1.1719535
1.1716947
1.1712868
1.1716075
1.1721022
1.064077
1.1018914
1.087401
1.1022727
1.1003982
1.1081246
1.1114414
1.1167839
1.1216383
1.1267107
1.1317949
1.1368878
1.141939
1.1469043
1.1517355
1.1563851
1.1608082
1.1649646
1.1688208
1.1723514
1.1755399
1.1783782
1.180867
1.1830141
1.1848334
1.1863436
1.1875668
1.1885273
1.1892504
1.1897616
1.1900859
1.190247
1.1902674
1.1901677
1.1899668
1.1896816
1.1893275
1.1889178
1.1884642
1.187977
1.187465
1.1869355
1.186395
1.1858485
1.1853002
1.1847534
1.1842106
1.1836734
1.1831428
1.1826194
1.182103
1.1815932
1.181089
1.1805892
1.1800923
1.1795966
1.1791004
1.1786023
1.178101
1.1775956
1.177086
1.1765727
1.1760575
1.1755436
1.1750365
1.1745432
1.1740732
1.1736382
1.173253
1.1729341
1.1726932
1.1725342
1.1724654
1.17251
1.172645
1.1726833
1.1723971
1.1720891
1.1726053
1.1732023
1.0698447
1.1078054
1.0943743
1.1098852
1.1090814
1.1172592
1.121667
1.1276418
1.1332932
1.1390559
1.1447722
1.1504048
1.1558863
1.1611552
1.166152
1.1708243
1.1751291
1.1790347
1.1825214
1.1855819
1.1882196
1.1904475
1.1922861
1.1937616
1.1949038
1.1957447
1.1963168
1.1966523
1.1967819
1.1967347
1.1965374
1.1962143
1.1957876
1.1952765
1.1946984
1.1940684
1.1933993
1.1927025
1.1919875
1.1912623
1.1905336
1.189807
1.189087
1.188377
1.1876797
1.1869969
1.1863298
1.1856789
1.1850443
1.1844254
1.1838215
1.1832311
1.1826529
1.1820848
1.181525
1.1809714
1.1804219
1.1798748
1.1793286
1.1787822
1.1782352
1.177688
1.177142
1.1766007
1.176069
1.1755539
1.1750641
1.1746106
1.1742069
1.1738667
1.1735987
1.1734078
1.1733093
1.1733282
1.1734264
1.1734164
1.1731369
1.1729569
1.173634
1.1742558
1.0770148
1.1156662
1.1031096
1.1193283
1.1199356
1.128651
1.1343147
1.1410702
1.1475744
1.1540467
1.1603407
1.1663859
1.1720997
1.1774128
1.182269
1.1866286
1.1904693
1.1937852
1.1965851
1.1988901
1.2007305
1.2021432
1.2031685
1.2038488
1.2042259
1.2043402
1.2042298
1.2039298
1.2034721
1.202885
1.2021939
1.2014208
1.2005851
1.1997032
1.1987893
1.1978555
1.1969119
1.1959669
1.1950276
1.1940996
1.1931876
1.1922949
1.1914245
1.190578
1.1897568
1.1889613
1.1881916
1.1874471
1.186727
1.18603
1.1853544
1.1846985
1.18406
1.1834366
1.182826
1.1822257
1.1816334
1.1810472
1.1804653
1.1798864
1.1793097
1.1787353
1.1781648
1.1776013
1.1770495
1.176516
1.1760092
1.1755393
1.1751185
1.1747578
1.1744639
1.1742437
1.1741175
1.1741083
1.1741662
1.1741148
1.1738622
1.1738134
1.174586
1.1751629
1.0856981
1.1252605
1.1141914
1.1311345
1.1335897
1.1429772
1.1500189
1.157655
1.1649615
1.1720017
1.178627
1.1847503
1.1902961
1.1952148
1.1994814
1.203094
1.2060707
1.2084452
1.2102625
1.2115744
1.2124363
1.2129039
1.2130313
1.2128694
1.212465
1.2118603
1.2110928
1.2101955
1.2091971
1.2081223
1.2069922
1.2058247
1.204635
1.2034355
1.2022368
1.2010476
1.1998748
1.198724
1.1975998
1.1965055
1.1954436
1.1944159
1.1934235
1.1924668
1.1915458
1.1906597
1.1898077
1.1889884
1.1882
1.1874408
1.1867083
1.1860003
1.1853141
1.184647
1.1839962
1.1833592
1.1827334
1.1821166
1.1815068
1.1809022
1.180302
1.1797059
1.1791154
1.1785332
1.1779638
1.1774134
1.1768899
1.1764031
1.1759637
1.1755807
1.17526
1.1750105
1.1748549
1.1748113
1.1748239
1.1747388
1.1745218
1.1745767
1.1753697
1.1758794
1.0966101
1.137501
1.1285054
1.1462334
1.1509775
1.1611195
1.1694732
1.1778721
1.1856695
1.1928422
1.1992689
1.2048901
1.2096787
1.2136413
1.2168114
1.2192425
1.2210015
1.2221619
1.2227997
1.2229887
1.2227987
1.2222936
1.2215307
1.2205603
1.2194265
1.2181667
1.2168132
1.2153931
1.213929
1.2124398
1.2109413
1.2094463
1.2079652
1.2065065
1.2050771
1.203682
1.2023256
1.2010107
1.1997396
1.1985136
1.1973336
1.1961997
1.1951116
1.1940686
1.1930695
1.1921128
1.1911967
1.1903192
1.1894779
1.1886704
1.1878939
1.1871455
1.1864224
1.1857214
1.1850396
1.1843742
1.1837225
1.1830819
1.1824501
1.1818253
1.181206
1.180592
1.1799841
1.1793849
1.1787984
1.1782305
1.1776886
1.1771819
1.1767196
1.1763095
1.1759577
1.1756755
1.1754847
1.1753962
1.1753549
1.1752415
1.1750638
1.1751848
1.1759433
1.1764037
1.1112741
1.1534689
1.1473094
1.1656827
1.1730575
1.183846
1.1930426
1.2016498
1.2092288
1.2157584
1.2212042
1.2255902
1.2289752
1.231444
1.2330963
1.2340376
1.2343723
1.234199
1.2336075
1.2326779
1.2314797
1.2300727
1.2285074
1.2268264
1.2250647
1.2232514
1.2214105
1.2195613
1.2177195
1.2158977
1.2141059
1.2123522
1.2106425
1.2089815
1.2073727
1.2058185
1.2043205
1.2028795
1.2014958
1.2001692
1.198899
1.1976841
1.1965233
1.1954147
1.1943564
1.1933461
1.1923815
1.1914599
1.1905786
1.1897345
1.1889246
1.1881457
1.1873944
1.1866676
1.1859622
1.1852749
1.184603
1.1839437
1.1832944
1.1826528
1.1820173
1.1813871
1.1807629
1.1801466
1.1795419
1.1789541
1.1783903
1.1778589
1.177368
1.1769241
1.1765347
1.1762138
1.1759796
1.1758345
1.1757331
1.1755926
1.1754518
1.1756093
1.1762857
1.1766699
1.1312095
1.1744564
1.1720291
1.1905073
1.2002268
1.2111378
1.2201734
1.2279225
1.2342233
1.2391423
1.2427741
1.2452545
1.2467339
1.247365
1.2472931
1.24665
1.2455517
1.2440981
1.242373
1.2404462
1.2383752
1.2362065
1.233978
1.2317198
1.2294562
1.2272062
1.2249848
1.222804
1.2206725
1.2185974
1.2165837
1.2146349
1.2127537
1.2109415
1.209199
1.2075264
1.2059233
1.2043888
1.2029218
1.2015208
1.200184
1.1989094
1.1976949
1.1965379
1.1954359
1.1943862
1.1933857
1.1924316
1.1915206
1.1906495
1.1898147
1.1890129
1.1882406
1.1874943
1.1867706
1.1860664
1.1853786
1.184704
1.1840399
1.1833836
1.1827332
1.1820875
1.1814466
1.180812
1.1801868
1.1795758
1.1789855
1.1784238
1.1778975
1.1774123
1.1769775
1.1766108
1.1763264
1.1761153
1.1759504
1.1757852
1.1756711
1.1758323
1.1763719
1.1766387
1.1589475
1.2012612
1.2037803
1.2216047
1.2317113
1.2414353
1.2489259
1.2545761
1.258512
1.2609692
1.2621801
1.2623728
1.2617523
1.2604967
1.2587561
1.2566539
1.2542901
1.2517449
1.2490815
1.2463499
1.243589
1.2408289
1.2380929
1.2353988
1.2327598
1.2301862
1.2276851
1.2252617
1.2229196
1.220661
1.218487
1.2163979
1.2143935
1.2124727
1.2106345
1.2088772
1.2071989
1.2055975
1.2040709
1.2026166
1.2012321
1.1999148
1.1986617
1.1974701
1.1963367
1.1952585
1.1942323
1.1932547
1.1923222
1.1914313
1.1905784
1.1897596
1.1889714
1.1882102
1.1874725
1.1867548
1.1860538
1.1853663
1.184689
1.1840191
1.1833542
1.1826927
1.1820342
1.1813795
1.1807313
1.1800937
1.1794727
1.1788751
1.1783073
1.1777744
1.1772859
1.1768619
1.1765207
1.1762465
1.1760174
1.1758207
1.1757139
1.1758486
1.1762304
1.1763692
1.1971139
1.2356766
1.2413925
1.2565046
1.2655134
1.272339
1.2766759
1.2790654
1.2798634
1.2794296
1.2780591
1.2759956
1.2734326
1.2705215
1.2673793
1.264095
1.2607361
1.2573534
1.2539847
1.2506581
1.2473941
1.2442077
1.2411091
1.2381058
1.2352023
1.2324016
1.2297048
1.2271123
1.2246236
1.2222373
1.2199518
1.2177651
1.2156748
1.2136783
1.2117731
1.2099564
1.2082252
1.2065767
1.2050079
1.2035159
1.2020974
1.2007494
1.1994687
1.198252
1.1970959
1.195997
1.1949519
1.193957
1.1930086
1.1921029
1.1912361
1.1904043
1.1896037
1.1888305
1.188081
1.1873517
1.1866391
1.1859395
1.1852495
1.1845661
1.1838863
1.1832082
1.1825308
1.1818545
1.1811813
1.1805148
1.17986
1.1792233
1.1786112
1.1780305
1.17749
1.1770048
1.1765935
1.176253
1.1759641
1.1757324
1.1756012
1.1756545
1.1758755
1.1759378
1.2439285
1.2761171
1.2832059
1.2929
1.2977607
1.3000929
1.3002811
1.2989658
1.2965746
1.2934479
1.2898346
1.2859178
1.2818297
1.2776655
1.2734928
1.2693597
1.2652995
1.2613352
1.2574824
1.253751
1.250147
1.2466736
1.2433318
1.2401213
1.2370405
1.2340873
1.2312589
1.2285523
1.225964
1.2234905
1.2211285
1.2188741
1.2167238
1.214674
1.212721
1.2108615
1.2090918
1.2074086
1.2058084
1.2042877
1.2028433
1.2014716
1.2001693
1.1989326
1.1977583
1.1966426
1.1955819
1.1945725
1.1936106
1.1926922
1.1918133
1.1909698
1.1901578
1.1893734
1.1886127
1.1878719
1.1871473
1.1864352
1.1857318
1.1850336
1.1843378
1.1836419
1.1829447
1.1822459
1.1815468
1.18085
1.18016
1.1794822
1.1788236
1.1781929
1.1776015
1.1770622
1.1765859
1.1761773
1.1758275
1.1755453
1.1753616
1.1753203
1.1753929
1.1754107
1.2972029
1.3176936
1.3222334
1.3246117
1.3238695
1.3212974
1.3175025
1.312968
1.3080109
1.3028456
1.2976143
1.2924104
1.2872947
1.282306
1.277468
1.2727948
1.2682935
1.2639667
1.259814
1.255833
1.2520201
1.2483706
1.2448797
1.2415419
1.238352
1.2353047
1.2323945
1.2296164
1.2269654
1.2244366
1.2220253
1.219727
1.2175373
1.215452
1.2134668
1.211578
1.2097816
1.2080738
1.2064511
1.2049097
1.2034461
1.2020567
1.2007378
1.1994859
1.1982972
1.1971683
1.1960952
1.1950742
1.1941013
1.1931724
1.1922834
1.1914302
1.1906086
1.1898145
1.189044
1.188293
1.1875577
1.186834
1.186118
1.1854062
1.1846955
1.1839838
1.1832695
1.1825514
1.1818298
1.1811067
1.1803855
1.1796708
1.1789695
1.1782914
1.1776493
1.1770568
1.1765241
1.176055
1.1756506
1.1753189
1.1750792
1.1749467
1.174898
1.1748529
1.3493408
1.3527148
1.3515854
1.3472333
1.3415291
1.335088
1.3283707
1.3216156
1.3149676
1.3085049
1.3022699
1.2962826
1.29055
1.2850712
1.2798407
1.2748505
1.2700913
1.2655532
1.2612262
1.2571004
1.2531664
1.2494151
1.2458379
1.2424267
1.2391739
1.2360722
1.2331149
1.2302956
1.2276083
1.2250475
1.2226076
1.2202837
1.2180709
1.2159646
1.2139604
1.212054
1.2102415
1.2085188
1.2068823
1.2053281
1.2038525
1.2024519
1.2011226
1.1998609
1.1986633
1.1975259
1.196445
1.1954167
1.1944371
1.1935019
1.192607
1.1917482
1.1909211
1.1901217
1.1893457
1.1885891
1.1878478
1.1871176
1.1863946
1.1856751
1.184956
1.1842349
1.1835092
1.182777
1.1820391
1.1812986
1.1805567
1.1798159
1.1790826
1.1783672
1.1776834
1.1770454
1.1764646
1.175947
1.1754965
1.1751215
1.1748301
1.1746158
1.1744629
1.1743857
1.3829822
1.3755615
1.3682264
1.3601223
1.3517023
1.3433695
1.3352909
1.3275405
1.3201468
1.3131132
1.3064316
1.3000875
1.294064
1.2883436
1.2829087
1.2777426
1.2728295
1.2681548
1.2637049
1.2594671
1.25543
1.2515829
1.247916
1.2444201
1.2410868
1.2379085
1.2348779
1.2319882
1.2292332
1.2266071
1.2241042
1.2217193
1.2194476
1.2172843
1.215225
1.2132653
1.2114012
1.2096288
1.2079443
1.2063438
1.2048236
1.2033802
1.2020097
1.2007087
1.1994732
1.1982997
1.1971844
1.1961232
1.1951122
1.1941472
1.1932238
1.1923377
1.1914845
1.19066
1.1898596
1.1890791
1.1883141
1.1875605
1.1868144
1.1860717
1.1853285
1.1845814
1.1838291
1.1830724
1.1823117
1.1815459
1.1807766
1.1800075
1.1792435
1.1784936
1.1777714
1.1770917
1.1764692
1.1759129
1.1754259
1.1750141
1.1746835
1.1744174
1.174206
1.1741118
1.1692571
1.1718944
1.1851311
1.19607
1.2012336
1.2024625
1.2025435
1.2022415
1.20225
1.2019804
1.2016726
1.2011739
1.2006294
1.1999614
1.1992745
1.1985544
1.1977991
1.1970139
1.196204
1.1953739
1.1945274
1.1936683
1.1927997
1.1919248
1.1910461
1.190166
1.1892869
1.1884106
1.187539
1.1866738
1.1858167
1.184969
1.1841322
1.1833076
1.1824965
1.1817001
1.1809194
1.1801557
1.17941
1.1786834
1.1779769
1.1772914
1.176628
1.1759877
1.1753712
1.1747796
1.1742136
1.1736739
1.1731611
1.1726756
1.1722178
1.1717877
1.1713856
1.171011
1.1706638
1.1703434
1.1700492
1.1697807
1.1695375
1.169319
1.1691247
1.1689545
1.1688082
1.1686853
1.1685847
1.168501
1.1684289
1.1683478
1.1682455
1.1680674
1.1678098
1.1673691
1.1667945
1.1659244
1.165152
1.1641385
1.1639337
1.1634602
1.1648783
1.1656911
1.1647822
1.1741227
1.1888864
1.1965217
1.1985932
1.1984806
1.197966
1.1976978
1.1973538
1.1970194
1.1966136
1.1961915
1.1957212
1.1952313
1.1947035
1.1941442
1.1935559
1.1929419
1.1923043
1.1916455
1.1909677
1.1902731
1.1895638
1.1888421
1.1881102
1.18737
1.1866237
1.1858733
1.1851207
1.184368
1.1836168
1.1828691
1.1821266
1.181391
1.1806638
1.1799467
1.1792413
1.1785489
1.177871
1.177209
1.1765641
1.1759378
1.1753312
1.1747456
1.1741821
1.1736418
1.1731256
1.1726344
1.1721688
1.1717296
1.171317
1.1709314
1.1705728
1.1702411
1.1699359
1.1696568
1.1694032
1.1691746
1.1689705
1.1687904
1.1686337
1.1685001
1.1683894
1.1683004
1.1682313
1.1681763
1.1681279
1.1680656
1.1679738
1.1677987
1.1675401
1.1670876
1.1665103
1.1656625
1.1649029
1.1639785
1.1638388
1.1634616
1.1649962
1.1657156
1.1642692
1.1765234
1.1870352
1.1930401
1.1938867
1.1933933
1.1928648
1.1925769
1.192256
1.191953
1.1916008
1.1912512
1.1908695
1.1904745
1.190054
1.1896161
1.1891571
1.1886789
1.1881816
1.1876659
1.1871328
1.1865834
1.1860187
1.1854401
1.1848489
1.1842465
1.1836346
1.1830146
1.1823882
1.1817571
1.181123
1.1804876
1.1798527
1.17922
1.1785912
1.1779681
1.1773523
1.1767455
1.1761494
1.1755656
1.1749956
1.1744409
1.1739031
1.1733836
1.1728838
1.1724048
1.1719479
1.1715141
1.1711042
1.1707189
1.1703589
1.1700244
1.1697156
1.1694324
1.1691745
1.1689415
1.1687328
1.1685481
1.1683868
1.1682482
1.1681319
1.1680374
1.167964
1.1679103
1.1678737
1.1678475
1.1678229
1.167779
1.1676977
1.1675313
1.1672672
1.1668149
1.166231
1.165406
1.1646664
1.1638303
1.1637536
1.1634735
1.1651001
1.1657563
1.1611066
1.174448
1.1844678
1.1888225
1.1885777
1.1882079
1.187768
1.187564
1.1872411
1.186986
1.1866717
1.1863865
1.1860694
1.1857567
1.1854242
1.1850835
1.1847281
1.1843604
1.1839791
1.1835841
1.1831753
1.1827529
1.1823171
1.1818683
1.181407
1.1809342
1.1804506
1.1799573
1.1794554
1.1789462
1.1784311
1.1779115
1.177389
1.1768651
1.1763415
1.1758198
1.1753018
1.1747891
1.1742835
1.1737867
1.1733004
1.1728262
1.1723659
1.171921
1.171493
1.1710833
1.1706933
1.1703241
1.1699767
1.169652
1.1693506
1.169073
1.1688194
1.1685897
1.1683837
1.1682011
1.1680414
1.1679041
1.1677888
1.1676948
1.1676215
1.1675682
1.167534
1.167517
1.1675137
1.1675167
1.1675157
1.1674898
1.1674186
1.1672587
1.1669903
1.1665389
1.1659527
1.1651526
1.1644395
1.1636925
1.1636846
1.163501
1.1651968
1.1658277
1.1549721
1.1704775
1.1797883
1.1831302
1.1825921
1.1825259
1.1821719
1.1821121
1.1818729
1.1817424
1.1815256
1.1813548
1.1811413
1.1809402
1.1807173
1.1804894
1.1802471
1.1799944
1.1797293
1.1794516
1.1791614
1.1788585
1.1785429
1.178215
1.177875
1.1775232
1.1771604
1.1767872
1.1764044
1.1760129
1.1756137
1.1752082
1.1747974
1.1743829
1.173966
1.1735482
1.1731312
1.1727165
1.172306
1.1719012
1.1715039
1.1711159
1.1707389
1.1703745
1.1700244
1.1696901
1.1693729
1.1690741
1.1687949
1.1685362
1.1682988
1.1680831
1.1678893
1.1677176
1.1675677
1.1674393
1.1673321
1.1672456
1.1671792
1.1671324
1.1671043
1.1670942
1.1671008
1.1671215
1.1671521
1.1671843
1.1672067
1.1671981
1.1671368
1.1669809
1.1667109
1.1662615
1.1656771
1.1649047
1.1642235
1.1635604
1.1636144
1.1635468
1.1652911
1.1659103
1.1489913
1.1668008
1.1748526
1.1776218
1.1769436
1.1771188
1.1768121
1.1768884
1.1767168
1.1766981
1.1765645
1.1764957
1.1763729
1.1762701
1.1761428
1.1760136
1.1758696
1.1757166
1.1755524
1.1753771
1.1751909
1.1749934
1.1747846
1.1745646
1.1743335
1.1740915
1.1738389
1.173576
1.1733035
1.173022
1.1727323
1.1724351
1.1721317
1.171823
1.1715103
1.1711949
1.1708784
1.170562
1.1702476
1.1699366
1.1696309
1.169332
1.1690417
1.1687616
1.1684934
1.1682386
1.1679986
1.1677747
1.1675682
1.1673799
1.1672107
1.167061
1.1669312
1.1668212
1.166731
1.1666602
1.1666086
1.1665756
1.1665607
1.1665634
1.1665826
1.1666173
1.1666658
1.1667251
1.1667899
1.1668513
1.1668967
1.1669049
1.166853
1.1667005
1.1664306
1.1659845
1.1654049
1.1646633
1.1640186
1.1634299
1.1635282
1.163607
1.1653817
1.1659579
1.143729
1.163342
1.1700402
1.1725379
1.171774
1.1721394
1.1718444
1.1720263
1.1718953
1.1719622
1.1718907
1.1719068
1.171859
1.1718316
1.1717759
1.1717242
1.1716596
1.1715891
1.1715098
1.1714217
1.1713247
1.1712182
1.1711023
1.1709767
1.1708414
1.1706964
1.1705419
1.170378
1.1702051
1.1700237
1.1698343
1.1696376
1.1694343
1.1692253
1.1690117
1.1687946
1.1685753
1.1683551
1.1681353
1.1679177
1.1677035
1.1674946
1.1672924
1.1670986
1.1669146
1.1667421
1.1665823
1.1664365
1.1663059
1.1661915
1.1660939
1.1660136
1.1659509
1.1659058
1.1658783
1.165868
1.1658745
1.1658975
1.1659364
1.1659904
1.1660585
1.1661393
1.1662308
1.1663291
1.1664283
1.1665186
1.1665865
1.1666108
1.166568
1.1664169
1.1661502
1.1657085
1.165137
1.1644297
1.163826
1.1633051
1.1634431
1.1636787
1.1654684
1.1659779
1.1388995
1.160366
1.1655873
1.1679718
1.1671099
1.1676247
1.1673051
1.1675696
1.1674495