/*--------------------------------*- C++ -*----------------------------------*\
  =========                 |
  \\      /  F ield         | OpenFOAM: The Open Source CFD Toolbox
   \\    /   O peration     | Website:  https://openfoam.org
    \\  /    A nd           | Version:  12
     \\/     M anipulation  |
\*---------------------------------------------------------------------------*/
FoamFile
{
    format      ascii;
    class       volScalarField;
    location    "0.054";
    object      alphat;
}
// * * * * * * * * * * * * * * * * * * * * * * * * * * * * * * * * * * * * * //

dimensions      [1 -1 -1 0 0 0 0];

internalField   nonuniform List<scalar> 
16000
(
4.988694e-07
1.0894875e-05
2.1800579e-05
2.6043659e-05
2.0019986e-05
2.7637571e-05
1.9439087e-05
2.6741512e-05
2.0764881e-05
2.8736741e-05
2.4108488e-05
2.841824e-05
2.5884192e-05
2.6618797e-05
2.5728922e-05
2.5608461e-05
2.5361396e-05
2.5312245e-05
2.5349163e-05
2.5495342e-05
2.5743155e-05
2.6091784e-05
2.6538962e-05
2.7085308e-05
2.7733441e-05
2.8490479e-05
2.9365723e-05
3.0373848e-05
3.1532736e-05
3.2861724e-05
3.4382113e-05
3.6122104e-05
3.8118059e-05
4.041484e-05
4.3067731e-05
4.6142885e-05
4.9719372e-05
5.3891808e-05
5.8777572e-05
6.4522493e-05
7.1298663e-05
7.9309883e-05
8.8813776e-05
0.00010012739
0.00011363066
0.00012978253
0.00014915543
0.00017245268
0.00020053859
0.00023447675
0.00027558185
0.00032548491
0.00038620821
0.00046026812
0.00055079267
0.00066167222
0.00079775579
0.00096511992
0.0011713501
0.0011862608
0.0011864432
0.0011865889
0.0011866173
0.0011865867
0.0011865312
0.0011864824
0.0011864592
0.0011864658
0.0011864872
0.0011864628
0.001186213
0.001185365
0.0011835457
0.0011811998
0.0011782266
0.0011751007
0.0011725222
0.0011698393
0.0011689186
0.0011748275
4.5008643e-07
1.0329383e-05
2.1500457e-05
2.3496635e-05
1.8048933e-05
2.4755342e-05
1.7251134e-05
2.3396764e-05
1.8351847e-05
2.5363609e-05
2.1829069e-05
2.5609743e-05
2.3667673e-05
2.4113163e-05
2.342447e-05
2.3246565e-05
2.3045164e-05
2.2990866e-05
2.3029202e-05
2.3164594e-05
2.3395175e-05
2.3719723e-05
2.4136562e-05
2.4646459e-05
2.5251487e-05
2.5958338e-05
2.6775166e-05
2.7715256e-05
2.8795572e-05
3.0034999e-05
3.1453437e-05
3.3076759e-05
3.4938732e-05
3.7081036e-05
3.9555554e-05
4.2424672e-05
4.5763436e-05
4.9661042e-05
5.4227216e-05
5.9600422e-05
6.5946451e-05
7.3457923e-05
8.2378425e-05
9.3011347e-05
0.00010572293
0.00012095137
0.00013924505
0.00016127999
0.0001878889
0.00022009767
0.00025917544
0.00030670081
0.00036463324
0.00043541511
0.00052208629
0.00062842973
0.00075915353
0.00092013244
0.0011186959
0.0011861111
0.0011862657
0.001186384
0.0011863881
0.001186333
0.0011862538
0.0011861826
0.0011861397
0.0011861301
0.0011861371
0.0011860991
0.0011858363
0.0011849547
0.0011830092
0.0011805487
0.0011775264
0.0011745217
0.0011721489
0.0011700038
0.0011693466
0.0011740411
3.9985715e-07
9.8882973e-06
2.0307668e-05
2.1523033e-05
1.6155559e-05
2.1787597e-05
1.5354633e-05
2.0327123e-05
1.6494383e-05
2.2247681e-05
1.9898868e-05
2.2801491e-05
2.1439723e-05
2.1594533e-05
2.1069714e-05
2.0867076e-05
2.0701067e-05
2.0652143e-05
2.0693542e-05
2.0822573e-05
2.1038946e-05
2.134185e-05
2.1729868e-05
2.2204068e-05
2.2766112e-05
2.3422446e-05
2.4180406e-05
2.5052072e-05
2.6053285e-05
2.7202456e-05
2.8518522e-05
3.002549e-05
3.1754947e-05
3.374579e-05
3.6046828e-05
3.8716912e-05
4.1827444e-05
4.5463265e-05
4.9727543e-05
5.4751196e-05
6.0694621e-05
6.7741525e-05
7.6123014e-05
8.6129064e-05
9.8114133e-05
0.00011249841
0.00012980844
0.00015069504
0.00017596138
0.00020659813
0.00024383019
0.00028918366
0.00034455252
0.00041229847
0.00049536021
0.00059739269
0.00072293575
0.00087762939
0.0010684736
0.0011861065
0.0011862234
0.0011862967
0.0011862622
0.0011861722
0.0011860627
0.0011859669
0.0011859057
0.0011858827
0.0011858766
0.0011858166
0.001185513
0.0011845536
0.0011824588
0.0011798617
0.0011768122
0.0011739435
0.0011719088
0.0011703313
0.0011697712
0.0011736269
3.6074674e-07
9.555081e-06
1.9254717e-05
1.9970866e-05
1.4513215e-05
1.9230119e-05
1.3676777e-05
1.7757018e-05
1.484081e-05
1.9601327e-05
1.8161338e-05
2.0314113e-05
1.9384738e-05
1.9327129e-05
1.8925079e-05
1.8720749e-05
1.8585999e-05
1.8548194e-05
1.8595786e-05
1.8722489e-05
1.8928724e-05
1.9214193e-05
1.9577777e-05
2.0020962e-05
2.0545156e-05
2.1156716e-05
2.1862434e-05
2.267344e-05
2.3604518e-05
2.4673699e-05
2.5899287e-05
2.730371e-05
2.891679e-05
3.0775032e-05
3.2924651e-05
3.5421454e-05
3.83337e-05
4.1742819e-05
4.5746765e-05
5.0469441e-05
5.6067085e-05
6.2716602e-05
7.0639012e-05
8.0112283e-05
9.1482146e-05
0.00010515463
0.00012163858
0.00014156465
0.00016571232
0.00019504493
0.00023075168
0.00027431696
0.00032758196
0.00039284342
0.00047295827
0.0005714782
0.00069280892
0.00084241008
0.0010270381
0.0011862979
0.001186368
0.0011863808
0.0011862941
0.001186157
0.0011860072
0.0011858787
0.0011857924
0.001185749
0.0011857192
0.0011856201
0.0011852496
0.0011841814
0.0011819121
0.0011791899
0.0011761502
0.0011734683
0.0011718629
0.0011709539
0.0011702387
0.0011730806
3.2134526e-07
9.3058405e-06
1.8348807e-05
1.9951559e-05
1.4476398e-05
1.6999188e-05
1.2205824e-05
1.555207e-05
1.3421637e-05
1.732048e-05
1.6619789e-05
1.8076754e-05
1.7470786e-05
1.7268895e-05
1.6957543e-05
1.6767101e-05
1.6658136e-05
1.6632173e-05
1.6684689e-05
1.6808489e-05
1.7004254e-05
1.727239e-05
1.7612154e-05
1.8025514e-05
1.8513828e-05
1.9083421e-05
1.9740706e-05
2.0496062e-05
2.1363231e-05
2.2359816e-05
2.3503704e-05
2.4816008e-05
2.6325087e-05
2.8065377e-05
3.0080861e-05
3.2424695e-05
3.5162325e-05
3.837241e-05
4.214898e-05
4.660925e-05
5.1905924e-05
5.8210738e-05
6.5736728e-05
7.4750481e-05
8.559086e-05
9.8652512e-05
0.00011442923
0.00013353449
0.00015672716
0.00018494761
0.00021935341
0.00026139212
0.00031285709
0.00037598545
0.000453558
0.00054902884
0.00066667745
0.00081179558
0.00099091631
0.0011866589
0.0011866752
0.0011866139
0.0011864631
0.0011862692
0.0011860711
0.0011859028
0.0011857837
0.0011857095
0.001185641
0.0011854796
0.0011850083
0.0011837975
0.0011813655
0.0011785471
0.0011755691
0.0011731407
0.0011720017
0.0011715781
0.0011707429
0.0011727289
2.9625897e-07
9.1530777e-06
1.7625081e-05
1.9692049e-05
1.4210497e-05
1.505197e-05
1.152887e-05
1.3734146e-05
1.2428225e-05
1.5402483e-05
1.5274164e-05
1.6117087e-05
1.5727125e-05
1.5439656e-05
1.5185565e-05
1.5011489e-05
1.4919127e-05
1.4900461e-05
1.495391e-05
1.5072409e-05
1.52566e-05
1.5507487e-05
1.5824628e-05
1.6210182e-05
1.6665764e-05
1.7197517e-05
1.7811574e-05
1.8517729e-05
1.9328713e-05
2.0261666e-05
2.1334254e-05
2.2566525e-05
2.3985684e-05
2.5624454e-05
2.7524989e-05
2.9738256e-05
3.2327327e-05
3.5368664e-05
3.8953775e-05
4.3194107e-05
4.8239142e-05
5.4257176e-05
6.1456002e-05
7.0091846e-05
8.0498839e-05
9.306367e-05
0.00010826846
0.00012671362
0.00014914153
0.00017647582
0.00020984873
0.00025067882
0.00030072073
0.00036216262
0.00043772227
0.00053077142
0.00064548259
0.00078700578
0.00096168927
0.0011772822
0.0011871331
0.0011869864
0.0011867609
0.0011865009
0.0011862456
0.001186028
0.0011858644
0.0011857438
0.0011856157
0.001185365
0.0011847594
0.0011833765
0.0011808196
0.0011779645
0.0011751238
0.0011729828
0.0011723387
0.0011722383
0.001171242
0.0011725384
2.7056125e-07
9.0673222e-06
1.7058526e-05
1.863218e-05
1.4085001e-05
1.329755e-05
1.1569464e-05
1.264077e-05
1.1992483e-05
1.3749977e-05
1.4070794e-05
1.4390669e-05
1.41142e-05
1.3788293e-05
1.3566435e-05
1.3408793e-05
1.3328465e-05
1.3315682e-05
1.3369569e-05
1.3483618e-05
1.3658034e-05
1.3894294e-05
1.419231e-05
1.4468487e-05
1.4885612e-05
1.5375702e-05
1.5944215e-05
1.6600142e-05
1.7354997e-05
1.8225087e-05
1.922781e-05
2.038218e-05
2.1714333e-05
2.3255347e-05
2.5045674e-05
2.7134265e-05
2.9581956e-05
3.2463033e-05
3.5867335e-05
4.020208e-05
4.5043038e-05
5.0829845e-05
5.7767867e-05
6.6104374e-05
7.6170017e-05
8.8346921e-05
0.00010310888
0.0001210471
0.0001428911
0.00016955372
0.00020214768
0.00024207001
0.00029104517
0.00035122229
0.00042526823
0.00051648646
0.00062895925
0.00076771512
0.00093894079
0.0011501853
0.0011877213
0.0011874797
0.0011871697
0.0011868341
0.0011865114
0.0011862326
0.0011860094
0.0011858231
0.0011856116
0.0011852454
0.0011844803
0.0011829189
0.0011802987
0.0011774842
0.0011748551
0.0011730522
0.0011727624
0.0011729526
0.0011720581
0.001172429
2.4211169e-07
9.0207488e-06
1.6578324e-05
1.6955081e-05
1.2937415e-05
1.158796e-05
1.0035605e-05
1.1289627e-05
1.0566033e-05
1.2358849e-05
1.2862232e-05
1.2808458e-05
1.2577328e-05
1.2258304e-05
1.2062474e-05
1.1926109e-05
1.1860307e-05
1.1856523e-05
1.1841922e-05
1.1937254e-05
1.209279e-05
1.2308868e-05
1.258425e-05
1.2918695e-05
1.3317376e-05
1.3784281e-05
1.4324931e-05
1.4948238e-05
1.5665103e-05
1.6491349e-05
1.7444593e-05
1.8543296e-05
1.9813087e-05
2.128401e-05
2.2995527e-05
2.4995319e-05
2.7342882e-05
3.0111167e-05
3.33894e-05
3.7286522e-05
4.1935711e-05
4.7505865e-05
5.4202008e-05
6.2788545e-05
7.26067e-05
8.4506817e-05
9.895816e-05
0.00011654652
0.00013799238
0.00016420427
0.00019628174
0.00023560836
0.000283888
0.00034324178
0.00041629907
0.00050631074
0.00061728697
0.00075415623
0.00092296501
0.0011310839
0.0011884158
0.0011880708
0.0011876669
0.0011872458
0.0011868443
0.0011864902
0.0011861898
0.0011859166
0.0011855987
0.0011850962
0.0011841611
0.0011824388
0.0011798304
0.0011771359
0.0011747732
0.0011733537
0.0011732498
0.0011735849
0.0011730847
0.0011720545
2.2296991e-07
8.9759535e-06
1.6084705e-05
1.4840121e-05
1.0647225e-05
1.0298493e-05
8.275649e-06
9.6266964e-06
9.8069559e-06
1.1125595e-05
1.163657e-05
1.1339206e-05
1.1129361e-05
1.0843676e-05
1.0674079e-05
1.0487859e-05
1.0410967e-05
1.0401495e-05
1.045236e-05
1.056043e-05
1.0720673e-05
1.0937041e-05
1.1206933e-05
1.1531417e-05
1.1915465e-05
1.2363877e-05
1.2882269e-05
1.347959e-05
1.4166322e-05
1.4957791e-05
1.5871946e-05
1.692696e-05
1.8148288e-05
1.956526e-05
2.1216739e-05
2.3149654e-05
2.5422704e-05
2.8108117e-05
3.1294378e-05
3.5089426e-05
3.9626705e-05
4.507256e-05
5.1634855e-05
5.955593e-05
6.9146859e-05
8.0795734e-05
9.5809299e-05
0.00011320475
0.00013443833
0.00016042049
0.00019224441
0.0002312884
0.00027924549
0.00033822008
0.00041081765
0.00050025243
0.00061048036
0.00074635082
0.00091379224
0.001120017
0.0011891886
0.0011887321
0.0011882253
0.0011877087
0.0011872162
0.0011867719
0.0011863766
0.0011859967
0.0011855536
0.0011849034
0.0011838052
0.0011819589
0.0011794416
0.0011769341
0.0011748682
0.0011738505
0.0011738048
0.0011741275
0.0011740786
0.0011721889
2.0516749e-07
8.9327606e-06
1.4559631e-05
1.291801e-05
8.6192385e-06
9.1524215e-06
7.3448388e-06
8.6913825e-06
9.0893516e-06
9.958841e-06
1.0422656e-05
1.0001095e-05
9.7983865e-06
9.4600412e-06
9.2796448e-06
9.1697143e-06
9.1277525e-06
9.144429e-06
9.2125515e-06
9.3329456e-06
9.4998545e-06
9.7155705e-06
9.9818963e-06
1.0299046e-05
1.0672294e-05
1.1106905e-05
1.1608651e-05
1.2186661e-05
1.285116e-05
1.3617015e-05
1.4502577e-05
1.552608e-05
1.671307e-05
1.8092478e-05
1.9702944e-05
2.1591105e-05
2.3815373e-05
2.6447866e-05
2.9577391e-05
3.3312296e-05
3.7786006e-05
4.3164208e-05
4.9658099e-05
5.7509609e-05
6.7031705e-05
7.8613692e-05
9.2736896e-05
0.00010996904
0.00013222869
0.00015820403
0.00019004045
0.00022911895
0.00027713211
0.00033617918
0.00040885584
0.00049835624
0.00060860071
0.00074438174
0.00091153444
0.0011171363
0.0011900086
0.0011894336
0.0011888158
0.0011881941
0.0011875994
0.0011870513
0.0011865457
0.0011860436
0.001185463
0.0011846648
0.0011834269
0.0011815057
0.0011791456
0.0011768736
0.0011751161
0.0011743967
0.0011744001
0.0011746938
0.0011750927
0.0011725217
1.8925631e-07
8.8877547e-06
1.1578357e-05
1.0756478e-05
7.0753853e-06
8.1525079e-06
6.6985572e-06
7.8131887e-06
8.5128233e-06
8.9022755e-06
9.2308311e-06
8.6909979e-06
8.4366272e-06
8.2040887e-06
8.0732936e-06
8.0041849e-06
7.9913307e-06
8.0312739e-06
8.1162248e-06
8.2457332e-06
8.4184227e-06
8.6361869e-06
8.9011593e-06
9.2142295e-06
9.580756e-06
1.0006481e-05
1.0497477e-05
1.1063121e-05
1.1713602e-05
1.2463421e-05
1.3263255e-05
1.4256221e-05
1.5410592e-05
1.6754875e-05
1.8327468e-05
2.0174752e-05
2.2354917e-05
2.4940024e-05
2.8019326e-05
3.1701875e-05
3.6122227e-05
4.1772083e-05
4.8263796e-05
5.6125472e-05
6.5672115e-05
7.7295618e-05
9.1488407e-05
0.00010882805
0.00013004338
0.00015604379
0.00018966447
0.00022909735
0.00027754901
0.0003371254
0.00041042697
0.00050064553
0.00061168569
0.00074830788
0.00091628438
0.0011225885
0.0011908439
0.0011901445
0.0011894093
0.001188675
0.0011879692
0.0011873071
0.0011866807
0.0011860474
0.0011853255
0.0011843881
0.0011830449
0.0011811028
0.0011789418
0.0011769232
0.0011754305
0.001174927
0.0011750567
0.001175315
0.0011759819
0.0011731296
1.7536805e-07
8.8454049e-06
9.141486e-06
9.1231168e-06
6.2112011e-06
7.2261611e-06
6.1567729e-06
7.0496089e-06
7.927926e-06
7.9172832e-06
7.9365056e-06
7.4769496e-06
7.2705914e-06
7.1019652e-06
7.013278e-06
6.9782977e-06
6.9921915e-06
7.0503526e-06
7.1495594e-06
7.2896704e-06
7.4692951e-06
7.6907444e-06
7.9570961e-06
8.2697196e-06
8.6340788e-06
9.0175189e-06
9.4959195e-06
1.0048307e-05
1.0684732e-05
1.1419217e-05
1.2268671e-05
1.3255071e-05
1.4403283e-05
1.5741933e-05
1.7309828e-05
1.9153871e-05
2.1333001e-05
2.3920251e-05
2.7006641e-05
3.0703466e-05
3.514831e-05
4.051329e-05
4.7009647e-05
5.4891242e-05
6.4477275e-05
7.6826785e-05
9.1220491e-05
0.00010882195
0.00013036797
0.00015678821
0.00018921815
0.00023121285
0.00028048926
0.00034105723
0.00041553715
0.00050713807
0.00061977148
0.00075819451
0.00092815582
0.0011365671
0.0011916633
0.0011908361
0.0011899798
0.0011891282
0.001188306
0.001187525
0.0011867736
0.001186008
0.0011851495
0.0011840874
0.0011826745
0.0011807683
0.0011788187
0.0011770399
0.0011757991
0.001175472
0.0011757301
0.0011759334
0.0011768844
0.0011740226
1.6299296e-07
8.7957401e-06
7.2741528e-06
8.0151719e-06
5.538823e-06
6.399629e-06
5.694083e-06
6.3747039e-06
7.2303932e-06
6.7979857e-06
6.7684847e-06
6.4158786e-06
6.2536118e-06
6.1366249e-06
6.0839959e-06
6.078255e-06
6.1148999e-06
6.191482e-06
6.3049275e-06
6.4560106e-06
6.6442381e-06
6.872009e-06
7.1127756e-06
7.4221835e-06
7.7830152e-06
8.20034e-06
8.682568e-06
9.2387405e-06
9.8791702e-06
1.0618139e-05
1.147276e-05
1.2464795e-05
1.3620582e-05
1.4969206e-05
1.6550167e-05
1.8411309e-05
2.0612933e-05
2.3229618e-05
2.6354958e-05
3.010365e-05
3.461652e-05
4.0069214e-05
4.6683109e-05
5.4717629e-05
6.4500665e-05
7.6440313e-05
9.1043827e-05
0.00010892483
0.00013199087
0.00015905079
0.00019226897
0.00023307591
0.00028592973
0.00034795621
0.00042417482
0.00051783431
0.00063287973
0.00077409818
0.0009472649
0.0011592888
0.0011924389
0.0011914835
0.0011905056
0.0011895356
0.0011885959
0.0011876958
0.0011868221
0.001185931
0.0011849483
0.0011837788
0.0011823201
0.0011805123
0.0011787668
0.0011772098
0.0011761927
0.0011760574
0.0011763846
0.0011765123
0.0011775593
0.0011750495
1.5202097e-07
8.7352703e-06
5.8376947e-06
7.0099783e-06
4.9436495e-06
5.6664031e-06
5.3022546e-06
5.6881452e-06
6.3477651e-06
5.8265346e-06
5.7434991e-06
5.4878025e-06
5.3670983e-06
5.2932848e-06
5.2727343e-06
5.2935237e-06
5.3517601e-06
5.4460477e-06
5.5743073e-06
5.716309e-06
5.9084532e-06
6.1401267e-06
6.4141504e-06
6.7341564e-06
7.1053034e-06
7.533102e-06
8.0258921e-06
8.5934536e-06
9.2463733e-06
9.9991491e-06
1.0869065e-05
1.1878184e-05
1.2994487e-05
1.4354079e-05
1.5948943e-05
1.7827813e-05
2.0052566e-05
2.2699366e-05
2.5864397e-05
2.9666309e-05
3.425028e-05
4.0098664e-05
4.689044e-05
5.5150766e-05
6.5217364e-05
7.7507989e-05
9.2551004e-05
0.00011098276
0.00013358168
0.00016279229
0.00019706132
0.00023915299
0.00029085951
0.00035777927
0.00043630303
0.00053270843
0.00065100752
0.00079605544
0.00097371456
0.0011909709
0.0011931472
0.0011920664
0.00119097
0.0011898842
0.0011888295
0.001187814
0.0011868249
0.0011858204
0.0011847328
0.0011834776
0.0011819784
0.0011803368
0.0011787806
0.0011774284
0.001176614
0.0011766478
0.001176987
0.0011770487
0.0011779045
0.0011761121
1.423086e-07
8.6185701e-06
4.741479e-06
6.1171405e-06
4.4128467e-06
5.0150393e-06
4.9622562e-06
4.9402245e-06
5.4547741e-06
4.9599034e-06
4.8549174e-06
4.679262e-06
4.5982671e-06
4.5619205e-06
4.5707132e-06
4.6162376e-06
4.6953585e-06
4.788469e-06
4.9260778e-06
5.0988433e-06
5.3079631e-06
5.5553926e-06
5.8447372e-06
6.1798602e-06
6.5665777e-06
7.0107069e-06
7.5206788e-06
8.082429e-06
8.7488214e-06
9.5161351e-06
1.0401723e-05
1.1427696e-05
1.26211e-05
1.4015925e-05
1.5652761e-05
1.7581909e-05
1.9867985e-05
2.258992e-05
2.5847558e-05
2.9765296e-05
3.4494585e-05
4.0226288e-05
4.7191333e-05
5.5674183e-05
6.6025301e-05
7.9336048e-05
9.4939689e-05
0.00011406467
0.00013752106
0.00016630491
0.00020353228
0.00024721754
0.00030086657
0.00036673074
0.00045184509
0.00055169203
0.00067410667
0.00082405713
0.0010075598
0.0011949552
0.001193769
0.0011925688
0.0011913602
0.0011901649
0.001189001
0.0011878761
0.0011867797
0.0011856746
0.0011845014
0.0011831922
0.0011816943
0.0011802361
0.0011788594
0.0011777049
0.0011770837
0.0011772207
0.0011775319
0.0011777343
0.0011789252
0.0011771924
1.3376816e-07
8.2957015e-06
3.9795671e-06
5.3255608e-06
3.9418012e-06
4.4393853e-06
4.4203689e-06
4.2639493e-06
4.591993e-06
4.1934032e-06
4.0933499e-06
3.9816851e-06
3.93816e-06
3.9351035e-06
3.9710015e-06
4.0250869e-06
4.1175066e-06
4.243721e-06
4.403046e-06
4.5959646e-06
4.8243746e-06
5.0908152e-06
5.3993721e-06
5.7542341e-06
6.1476611e-06
6.609162e-06
7.137216e-06
7.7415879e-06
8.4345466e-06
9.2307118e-06
1.0147892e-05
1.1209099e-05
1.2442487e-05
1.388334e-05
1.5575012e-05
1.7569616e-05
1.9935152e-05
2.2754153e-05
2.6130394e-05
3.0195385e-05
3.510623e-05
4.1062786e-05
4.831009e-05
5.7144076e-05
6.7933136e-05
8.1128781e-05
9.8149561e-05
0.00011810748
0.00014258476
0.00017262893
0.00020949476
0.00025716661
0.0003131199
0.00038179119
0.00046601679
0.00057465003
0.00070205405
0.000858011
0.0010487575
0.0011955873
0.0011942897
0.0011929786
0.001191666
0.0011903699
0.0011891055
0.0011878794
0.0011866835
0.0011854878
0.0011842425
0.0011829025
0.0011814966
0.0011802033
0.0011790049
0.001178052
0.0011776179
0.0011777812
0.0011780513
0.0011784128
0.0011798736
0.0011782647
1.2648137e-07
7.8731919e-06
3.5081724e-06
4.6247132e-06
3.5240705e-06
3.7653425e-06
3.9425529e-06
3.6441476e-06
3.8102605e-06
3.5273488e-06
3.4489813e-06
3.3880651e-06
3.3788653e-06
3.4058458e-06
3.4496185e-06
3.5360041e-06
3.6549083e-06
3.8051811e-06
3.987137e-06
4.2020688e-06
4.452483e-06
4.7412258e-06
5.0630249e-06
5.4385024e-06
5.8667992e-06
6.3547712e-06
6.9106551e-06
7.5445578e-06
8.2689959e-06
9.0995081e-06
1.0054464e-05
1.1157849e-05
1.2439085e-05
1.3935199e-05
1.5624845e-05
1.7680709e-05
2.0120712e-05
2.303155e-05
2.6680917e-05
3.0921736e-05
3.604939e-05
4.2272542e-05
4.98515e-05
5.9096651e-05
7.0393151e-05
8.4216994e-05
0.00010115082
0.00012190762
0.00014867629
0.00018016504
0.00021880157
0.00026621094
0.00032744972
0.00039935437
0.00048751566
0.00060135125
0.00073461339
0.00089769498
0.0010971207
0.0011961023
0.0011947001
0.0011932869
0.0011918789
0.001190491
0.0011891361
0.0011878191
0.0011865332
0.0011852552
0.0011839485
0.0011825975
0.0011813666
0.0011802322
0.001179214
0.0011784625
0.0011781855
0.0011783405
0.0011785528
0.0011789969
0.0011803518
0.0011792596
1.2075084e-07
6.8838636e-06
3.1072846e-06
3.9891833e-06
3.1643144e-06
3.1429399e-06
3.4661127e-06
3.0825608e-06
3.1384002e-06
2.9583017e-06
2.9095684e-06
2.8900687e-06
2.9035116e-06
2.9498274e-06
3.0325657e-06
3.1473099e-06
3.2920894e-06
3.4668741e-06
3.6728087e-06
3.9116658e-06
4.1802408e-06
4.4917211e-06
4.8462971e-06
5.2488591e-06
5.7052437e-06
6.2225259e-06
6.8093082e-06
7.4760806e-06
8.2357444e-06
9.0844013e-06
1.0075105e-05
1.1217804e-05
1.2543102e-05
1.4089326e-05
1.5904385e-05
1.8048142e-05
2.0594558e-05
2.3636151e-05
2.7287624e-05
3.1690561e-05
3.7020577e-05
4.3806921e-05
5.1760505e-05
6.1470013e-05
7.3338348e-05
8.7865253e-05
0.00010566364
0.00012748542
0.00015566678
0.00018876458
0.00022937431
0.00027919547
0.00034361493
0.00041914384
0.00051174365
0.00062521062
0.00077139447
0.00094270296
0.0011522449
0.0011964957
0.0011949953
0.0011934888
0.001191993
0.0011905205
0.001189083
0.0011876854
0.0011863222
0.0011849747
0.0011836234
0.0011823767
0.0011812893
0.0011803111
0.001179471
0.001178908
0.0011787551
0.0011788943
0.0011790206
0.0011794889
0.0011808123
0.0011800632
1.1618019e-07
4.8143426e-06
2.7465751e-06
3.3999343e-06
2.7069562e-06
2.6217342e-06
2.9632456e-06
2.5822639e-06
2.5789585e-06
2.4791188e-06
2.463795e-06
2.4721782e-06
2.5169815e-06
2.5979228e-06
2.7105843e-06
2.8524442e-06
3.0228662e-06
3.2225602e-06
3.4499507e-06
3.7123349e-06
4.0109626e-06
4.3492693e-06
4.7314269e-06
5.1625039e-06
5.6486104e-06
6.1971086e-06
6.8169346e-06
7.5075965e-06
8.3008639e-06
9.2054686e-06
1.0242087e-05
1.1436389e-05
1.282071e-05
1.4435632e-05
1.6331994e-05
1.8573096e-05
2.1237537e-05
2.4422999e-05
2.8250871e-05
3.2871572e-05
3.8471221e-05
4.5278914e-05
5.3976009e-05
6.419287e-05
7.6685779e-05
9.1979941e-05
0.00011071982
0.00013369728
0.00016188429
0.00019823488
0.00024098662
0.00029343343
0.00035777204
0.00044078159
0.00053825702
0.00065772453
0.00081181172
0.00099238817
0.0011983758
0.0011967669
0.0011951755
0.0011935844
0.0011920074
0.0011904558
0.0011889402
0.0011874671
0.0011860369
0.0011846462
0.0011833093
0.0011822096
0.0011812578
0.0011804262
0.0011797524
0.0011793552
0.0011792992
0.0011794086
0.0011794422
0.0011798909
0.0011812472
0.0011808028
1.1132686e-07
3.9995323e-06
2.3678691e-06
2.8570978e-06
2.3347284e-06
2.1867681e-06
2.4417836e-06
2.1428695e-06
2.1240921e-06
2.0857127e-06
2.099574e-06
2.1429126e-06
2.2241527e-06
2.3362177e-06
2.4764928e-06
2.6440538e-06
2.8392589e-06
3.0611022e-06
3.3153792e-06
3.6034275e-06
3.9282841e-06
4.2936273e-06
4.7038554e-06
5.1642221e-06
5.6810388e-06
6.2619263e-06
6.9083832e-06
7.6439049e-06
8.4772124e-06
9.4256164e-06
1.0510883e-05
1.1760166e-05
1.320759e-05
1.4896022e-05
1.6879357e-05
1.9224994e-05
2.2016494e-05
2.5357259e-05
2.9375691e-05
3.4230211e-05
4.0117104e-05
4.7620778e-05
5.6427325e-05
6.7182516e-05
8.0337825e-05
9.6445087e-05
0.00011618173
0.00014037981
0.00017163622
0.00020833611
0.0002533511
0.00030857763
0.0003763333
0.00046377416
0.00056647762
0.00069242453
0.00085504192
0.0010458021
0.0011985991
0.0011969187
0.0011952456
0.0011935784
0.0011919275
0.001190303
0.0011887138
0.0011871673
0.001185671
0.0011842498
0.0011830711
0.0011820911
0.001181265
0.0011805668
0.001180037
0.0011797693
0.0011797735
0.0011798461
0.0011798219
0.0011802788
0.0011816105
0.0011815913
1.0806522e-07
3.2229511e-06
2.0417144e-06
2.3085868e-06
2.0294611e-06
1.8145963e-06
1.9565222e-06
1.7699996e-06
1.7668241e-06
1.7778039e-06
1.8220297e-06
1.903766e-06
2.016293e-06
2.1556069e-06
2.3206884e-06
2.5118273e-06
2.728928e-06
2.9757864e-06
3.2542699e-06
3.567153e-06
3.9177547e-06
4.3099581e-06
4.7483155e-06
5.2382175e-06
5.7861315e-06
6.3954695e-06
7.0824214e-06
7.8558606e-06
8.7302379e-06
9.7236804e-06
1.0859187e-05
1.2165467e-05
1.3678622e-05
1.5443927e-05
1.7518246e-05
1.9972986e-05
2.2897264e-05
2.6400253e-05
3.0618035e-05
3.5717758e-05
4.218194e-05
4.9774258e-05
5.903236e-05
7.0343482e-05
8.418083e-05
0.00010112529
0.00012188869
0.00014734581
0.00018017937
0.00021877308
0.00026611739
0.00032420967
0.00039550187
0.00048748796
0.00059565042
0.00072841195
0.00089999127
0.0011016405
0.0011987061
0.0011969599
0.0011952156
0.0011934807
0.0011917636
0.001190074
0.00118842
0.0011868097
0.0011852704
0.0011839506
0.0011828847
0.0011820177
0.0011813033
0.0011807222
0.0011803099
0.001180131
0.0011801589
0.0011802012
0.0011801779
0.0011806445
0.001181809
0.0011824034
1.0670304e-07
2.5416927e-06
1.7597438e-06
1.78206e-06
1.7480454e-06
1.4961032e-06
1.56012e-06
1.4727572e-06
1.5006901e-06
1.5471143e-06
1.630504e-06
1.7431211e-06
1.8814303e-06
2.0438461e-06
2.2306657e-06
2.4430833e-06
2.6820644e-06
2.9512285e-06
3.2527265e-06
3.5895926e-06
3.9653116e-06
4.3839007e-06
4.8500268e-06
5.3691888e-06
5.9479703e-06
6.5943827e-06
7.3183088e-06
8.132036e-06
9.0404178e-06
1.0079193e-05
1.1265374e-05
1.2629319e-05
1.420924e-05
1.6053036e-05
1.8220567e-05
2.0871452e-05
2.3953723e-05
2.7648883e-05
3.2101347e-05
3.7488806e-05
4.4029506e-05
5.1991051e-05
6.1703066e-05
7.3570009e-05
8.8088367e-05
0.00010586795
0.00012765626
0.00015571931
0.00018872496
0.00022920515
0.00027887147
0.00033982801
0.00041858895
0.00051115967
0.0006248528
0.00076457268
0.00094527853
0.0011582334
0.0011987156
0.0011969093
0.0011951027
0.0011933076
0.0011915305
0.0011897817
0.0011880734
0.001186427
0.00118491
0.0011837135
0.0011827497
0.0011819798
0.0011813621
0.0011808816
0.0011805653
0.0011804469
0.0011804751
0.0011804988
0.001180538
0.0011810948
0.0011821829
0.0011825348
1.0831425e-07
1.9583045e-06
1.524716e-06
1.3786071e-06
1.4609389e-06
1.2289577e-06
1.2698864e-06
1.2549028e-06
1.3159373e-06
1.3972071e-06
1.5095436e-06
1.6459432e-06
1.8050661e-06
1.9870315e-06
2.1930714e-06
2.4249556e-06
2.6844651e-06
2.9747007e-06
3.2982301e-06
3.6582159e-06
4.0582379e-06
4.5023985e-06
4.9954564e-06
5.5430197e-06
6.1518115e-06
6.8300283e-06
7.5878183e-06
8.4378775e-06
9.396188e-06
1.0482951e-05
1.1723681e-05
1.3150656e-05
1.480449e-05
1.6736169e-05
1.9009394e-05
2.1703466e-05
2.4916827e-05
2.8771661e-05
3.3418745e-05
3.9044197e-05
4.5877193e-05
5.4198721e-05
6.4351181e-05
7.6757391e-05
9.1934847e-05
0.00011143417
0.00013437745
0.00016249415
0.00019696947
0.00023926203
0.00029116508
0.00035821868
0.00043705848
0.0005339218
0.00065302149
0.00080736139
0.00098924091
0.0012005521
0.0011986586
0.0011967954
0.0011949332
0.0011930837
0.0011912522
0.0011894479
0.0011876861
0.0011860141
0.0011846419
0.0011835331
0.0011826552
0.0011819643
0.0011814262
0.0011810296
0.0011807909
0.0011807155
0.0011807372
0.0011807432
0.0011808064
0.0011813263
0.0011822805
0.0011825328
1.1407489e-07
1.4794981e-06
1.3339492e-06
1.0840533e-06
1.3038766e-06
1.0071131e-06
1.0728067e-06
1.1106415e-06
1.1989251e-06
1.308216e-06
1.4418527e-06
1.5966968e-06
1.7731261e-06
1.9722814e-06
2.195894e-06
2.4459981e-06
2.7249088e-06
3.0350192e-06
3.3794803e-06
3.7614129e-06
4.1844649e-06
4.6528149e-06
5.1713153e-06
5.7456938e-06
6.3828282e-06
7.09112e-06
7.8809944e-06
8.7655818e-06
9.7614634e-06
1.088969e-05
1.217687e-05
1.3656751e-05
1.5371823e-05
1.7375448e-05
1.9734293e-05
2.253136e-05
2.5869553e-05
2.9876085e-05
3.4707819e-05
4.055784e-05
4.7989136e-05
5.6712705e-05
6.7352758e-05
8.0350636e-05
9.6246833e-05
0.00011570479
0.00013953961
0.00016875318
0.00020457405
0.00025084451
0.00030519412
0.00037192354
0.00045391439
0.00055474526
0.00068549537
0.00083961102
0.0010297918
0.0012005057
0.0011985689
0.0011966537
0.0011947421
0.0011928424
0.0011909605
0.001189109
0.0011873204
0.001185719
0.0011844373
0.0011834047
0.0011825914
0.0011819593
0.0011814803
0.0011811453
0.0011809593
0.0011809034
0.0011809017
0.0011808764
0.0011809422
0.0011814297
0.0011823182
0.0011826017
1.2463709e-07
1.1701185e-06
1.1697501e-06
9.4123642e-07
9.5361467e-07
8.8052888e-07
9.4316816e-07
1.0236762e-06
1.1330485e-06
1.262181e-06
1.4119022e-06
1.581978e-06
1.7736334e-06
1.9884112e-06
2.2281936e-06
2.4950821e-06
2.7914247e-06
3.1198365e-06
3.4832453e-06
3.8849457e-06
4.3286784e-06
4.8187368e-06
5.3601174e-06
5.9587336e-06
6.6217115e-06
7.3551179e-06
8.1736229e-06
9.0890822e-06
1.0127825e-05
1.1297369e-05
1.2631769e-05
1.4166373e-05
1.5945641e-05
1.802532e-05
2.047499e-05
2.3381131e-05
2.6850853e-05
3.1016434e-05
3.6040824e-05
4.2124454e-05
4.9513553e-05
5.8510399e-05
6.9485699e-05
8.2891937e-05
9.9286547e-05
0.00011935298
0.0001452123
0.00017556738
0.00021277823
0.00025842483
0.00031445797
0.00038329624
0.00046794268
0.00057757769
0.00070693405
0.00086657998
0.0010639901
0.0012004512
0.0011984762
0.0011965177
0.0011945637
0.0011926212
0.0011906962
0.0011888057
0.0011870051
0.0011855161
0.001184298
0.0011833224
0.0011825537
0.00118196
0.0011815173
0.0011812165
0.0011810522
0.0011809936
0.0011809741
0.001180955
0.0011810547
0.0011815145
0.0011822772
0.0011825067
1.4640607e-07
1.2133773e-06
1.0069376e-06
7.1807297e-07
7.786608e-07
7.866508e-07
8.7144884e-07
9.7511044e-07
1.1011598e-06
1.2452983e-06
1.4086758e-06
1.5922205e-06
1.7974505e-06
2.026023e-06
2.2798466e-06
2.561047e-06
2.8720013e-06
3.2153686e-06
3.5941325e-06
4.0116545e-06
4.4717468e-06
4.9787768e-06
5.5378161e-06
6.1548547e-06
6.8371045e-06
7.5934134e-06
8.4348134e-06
9.3752192e-06
1.0432311e-05
1.1628584e-05
1.2992594e-05
1.4560536e-05
1.6377987e-05
1.8502105e-05
2.1004189e-05
2.3972805e-05
2.7517561e-05
3.1773669e-05
3.6907523e-05
4.3123524e-05
5.0672577e-05
6.0291585e-05
7.1587492e-05
8.5379476e-05
0.00010223979
0.00012286985
0.0001481326
0.00017909063
0.00021705426
0.00026364015
0.00032085458
0.00039479885
0.00048197288
0.00058935615
0.00072185159
0.00088564858
0.0010885936
0.0012004203
0.0011984108
0.0011964128
0.0011944199
0.0011924401
0.0011904819
0.0011885712
0.0011868095
0.0011853909
0.0011842209
0.0011832824
0.0011825408
0.0011819682
0.0011815433
0.0011812549
0.0011810912
0.001181021
0.0011809943
0.0011809964
0.0011811214
0.0011815138
0.0011821179
0.0011823063
1.3960456e-07
8.103729e-07
8.2542231e-07
6.1207664e-07
6.700404e-07
7.314314e-07
8.3506781e-07
9.557569e-07
1.0950694e-06
1.2519824e-06
1.4277521e-06
1.6235933e-06
1.8410537e-06
2.0818559e-06
2.3479464e-06
2.6415057e-06
2.964976e-06
3.3210477e-06
3.7128418e-06
4.1437736e-06
4.6177344e-06
5.1391699e-06
5.7132308e-06
6.3459882e-06
7.044742e-06
7.8184429e-06
8.6782504e-06
9.6382526e-06
1.0725225e-05
1.1948225e-05
1.3342454e-05
1.4944961e-05
1.6802337e-05
1.8972947e-05
2.1529519e-05
2.4562328e-05
2.8183011e-05
3.252923e-05
3.7770363e-05
4.4114458e-05
5.1816732e-05
6.1189909e-05
7.2616909e-05
8.6568709e-05
0.00010362267
0.00012448874
0.00015004069
0.00018294704
0.00022163449
0.00026910493
0.00032741067
0.00039910245
0.00048736691
0.0005962013
0.00073064403
0.0008970812
0.0011036403
0.0012004498
0.0011984101
0.001196376
0.0011943439
0.0011923251
0.0011903342
0.0011884128
0.0011867233
0.0011853406
0.0011842003
0.0011832797
0.0011825486
0.0011819831
0.0011815644
0.0011812779
0.0011811038