/*--------------------------------*- C++ -*----------------------------------*\
  =========                 |
  \\      /  F ield         | OpenFOAM: The Open Source CFD Toolbox
   \\    /   O peration     | Website:  https://openfoam.org
    \\  /    A nd           | Version:  12
     \\/     M anipulation  |
\*---------------------------------------------------------------------------*/
FoamFile
{
    format      ascii;
    class       volScalarField;
    location    "0.054";
    object      k;
}
// * * * * * * * * * * * * * * * * * * * * * * * * * * * * * * * * * * * * * //

dimensions      [0 2 -2 0 0 0 0];

internalField   nonuniform List<scalar> 
16000
(
0.049621614
0.021745401
0.022680358
0.01669713
0.014153361
0.01280634
0.012008867
0.011530499
0.011207436
0.010989554
0.010828975
0.010709478
0.010616297
0.010542562
0.010483297
0.010435409
0.010396311
0.010364287
0.010338208
0.010316692
0.010299305
0.01028506
0.010273643
0.01026463
0.010257584
0.010252276
0.010248486
0.010246037
0.010244786
0.0102446
0.010245351
0.010246934
0.010249265
0.010252273
0.010255896
0.010260075
0.010264754
0.010269875
0.010275382
0.010281223
0.010287336
0.010293656
0.010300119
0.010306657
0.010313187
0.010319618
0.010325858
0.010331814
0.010337383
0.010342456
0.010346917
0.010350641
0.010353501
0.010355365
0.0103561
0.010355564
0.010353599
0.010350055
0.010344834
0.010337958
0.010329622
0.010320232
0.010310361
0.010300648
0.010291716
0.010284076
0.010278049
0.010273771
0.01027114
0.010269322
0.010265426
0.010253237
0.010226391
0.010191255
0.010145904
0.010098518
0.010062056
0.010010552
0.010013753
0.010091082
0.046063279
0.0205856
0.021226531
0.016148553
0.013808912
0.012607256
0.011848262
0.011416958
0.011109114
0.01090869
0.010758456
0.010647796
0.010561083
0.010492875
0.010438122
0.010394136
0.010358419
0.010329274
0.010305841
0.010286619
0.01027137
0.010259064
0.010249419
0.010242073
0.01023659
0.010232738
0.010230321
0.010229159
0.010229118
0.010230072
0.010231897
0.010234488
0.010237757
0.010241632
0.01024605
0.010250953
0.010256282
0.01026198
0.010267989
0.010274257
0.010280724
0.010287326
0.010293999
0.01030068
0.010307291
0.010313746
0.010319957
0.010325834
0.010331282
0.010336195
0.010340463
0.010343969
0.010346592
0.010348208
0.010348697
0.010347929
0.010345761
0.010342049
0.010336693
0.010329708
0.010321281
0.010311806
0.010301858
0.010292076
0.01028309
0.010275418
0.010269401
0.010265178
0.010262616
0.010260833
0.010256881
0.010244182
0.010215272
0.010178195
0.010132158
0.010087493
0.010053482
0.010013594
0.010017985
0.010079005
0.042146237
0.019764825
0.019878242
0.015581643
0.013455429
0.012380777
0.011681275
0.011292222
0.011008194
0.010826154
0.010687212
0.010585855
0.010506107
0.01044373
0.010393802
0.010353954
0.010321865
0.010295784
0.010275179
0.01025841
0.010245433
0.010235195
0.01022744
0.010221852
0.010218021
0.01021571
0.010214738
0.010214931
0.010216158
0.010218302
0.010221242
0.010224874
0.010229109
0.010233872
0.010239098
0.010244728
0.010250702
0.010256963
0.010263451
0.010270112
0.01027689
0.010283719
0.010290538
0.010297285
0.010303889
0.010310269
0.010316342
0.010322022
0.01032722
0.010331839
0.010335774
0.010338915
0.010341149
0.010342364
0.010342448
0.010341286
0.010338748
0.010334699
0.010329043
0.010321795
0.010313146
0.01030349
0.010293407
0.010283546
0.010274544
0.010266933
0.010261061
0.010257048
0.010254667
0.010252859
0.010248466
0.010234594
0.010203274
0.010164012
0.010117854
0.01007593
0.010046792
0.010018255
0.010021626
0.01006959
0.039008182
0.019212748
0.018716039
0.015073823
0.013135214
0.012176247
0.011528231
0.011178419
0.01091542
0.010750091
0.010621942
0.010529195
0.010456101
0.010399248
0.010353933
0.010318039
0.010289469
0.010266332
0.01024848
0.010234095
0.010223334
0.010215118
0.010209223
0.010205355
0.010203143
0.010202348
0.010202794
0.010204315
0.010206782
0.010210082
0.010214101
0.010218731
0.010223882
0.010229477
0.01023545
0.010241737
0.01024828
0.010255018
0.010261893
0.010268849
0.01027583
0.010282776
0.010289624
0.010296316
0.01030279
0.010308968
0.010314774
0.01032013
0.010324952
0.010329153
0.010332634
0.010335294
0.01033703
0.010337738
0.010337319
0.010335673
0.01033268
0.010328214
0.010322184
0.010314607
0.010305672
0.010295779
0.010285511
0.010275528
0.010266481
0.010258913
0.010253173
0.010249333
0.010247029
0.010244967
0.010239746
0.010224252
0.010190233
0.010149181
0.010103724
0.010065248
0.010042098
0.010024242
0.010025479
0.010058791
0.035719754
0.018899867
0.017738602
0.014602776
0.01283686
0.011982521
0.011384513
0.011070889
0.010828672
0.010679005
0.01056145
0.010476925
0.010410349
0.01035887
0.010318081
0.010286045
0.010260971
0.010240725
0.010225607
0.010213591
0.010205036
0.010198836
0.010194818
0.010192657
0.010192062
0.010192784
0.010194644
0.010197486
0.010201181
0.010205618
0.010210687
0.010216279
0.010222303
0.010228676
0.010235331
0.010242202
0.010249229
0.010256352
0.010263511
0.010270651
0.010277718
0.010284654
0.010291402
0.010297905
0.010304109
0.010309945
0.010315342
0.01032023
0.010324536
0.010328178
0.010331068
0.010333114
0.010334222
0.0103343
0.010333261
0.010331018
0.010327463
0.010322483
0.010315992
0.010308007
0.010298724
0.010288545
0.010278059
0.010267933
0.010258827
0.010251288
0.010245643
0.010241885
0.01023947
0.010236822
0.010230268
0.010212663
0.010176246
0.010134043
0.010090236
0.010055975
0.01003909
0.01002976
0.010029778
0.010049135
0.03376333
0.018831269
0.017006723
0.014170892
0.012562055
0.011802117
0.011251518
0.010971115
0.010748897
0.010613668
0.010506395
0.010429632
0.010369367
0.01032307
0.010286681
0.010258376
0.01023675
0.010219337
0.010206919
0.010197258
0.010190892
0.010186699
0.010184612
0.010184114
0.010185132
0.01018736
0.010190624
0.01019477
0.010199668
0.010205207
0.010211279
0.010217776
0.010224602
0.010231672
0.010238916
0.010246266
0.010253661
0.010261042
0.010268351
0.010275533
0.010282537
0.010289311
0.010295802
0.010301958
0.010307733
0.010313068
0.010317901
0.010322169
0.010325807
0.010328747
0.010330908
0.010332208
0.010332562
0.010331892
0.010330123
0.010327178
0.010322967
0.010317388
0.01031036
0.010301908
0.010292228
0.010281725
0.010270989
0.010260691
0.010251485
0.010243908
0.010238241
0.010234371
0.010231556
0.010227924
0.010219546
0.010199434
0.010161325
0.010119013
0.010078003
0.010048595
0.010037538
0.010035557
0.010034231
0.010040172
0.03135994
0.018930448
0.016486524
0.013774764
0.012308676
0.011634388
0.011129059
0.010878976
0.010676032
0.010554051
0.010456719
0.010387318
0.010333169
0.010291904
0.010259831
0.010235162
0.010216961
0.010202373
0.01019263
0.010185366
0.010181174
0.010179005
0.010179067
0.010180052
0.010182683
0.010186412
0.010191066
0.010196491
0.010202554
0.010209144
0.010216153
0.010223473
0.010231005
0.010238661
0.01024637
0.010254062
0.010261677
0.010269158
0.010276451
0.010283503
0.010290268
0.0102967
0.010302754
0.010308386
0.010313556
0.010318218
0.010322319
0.010325806
0.010328625
0.010330715
0.010332008
0.010332431
0.010331909
0.010330375
0.010327767
0.010324021
0.010319064
0.010312804
0.010305172
0.010296195
0.010286072
0.010275205
0.01026418
0.010253656
0.010244274
0.010236538
0.010230664
0.010226416
0.010222856
0.010217856
0.010207307
0.010184675
0.010145911
0.01010471
0.010067505
0.010043453
0.010036215
0.010041596
0.010040988
0.010031159
0.028708148
0.019123602
0.016066323
0.013411909
0.012075284
0.01147916
0.01101666
0.010794367
0.010609768
0.010500062
0.01041237
0.010350036
0.010301866
0.010265541
0.010237753
0.010216667
0.010201867
0.010190164
0.010183023
0.010178324
0.010176201
0.010176166
0.010177732
0.010180864
0.010185101
0.010190316
0.01019633
0.010202988
0.010210154
0.010217714
0.01022556
0.010233584
0.010241687
0.010249779
0.010257786
0.010265643
0.010273289
0.010280673
0.010287745
0.010294461
0.01030078
0.010306665
0.010312081
0.010316992
0.010321368
0.010325176
0.010328374
0.010330917
0.010332762
0.01033386
0.010334151
0.010333573
0.010332062
0.010329558
0.010326012
0.010321375
0.010315587
0.010308574
0.010300275
0.01029072
0.010280104
0.010268825
0.010257452
0.010246622
0.010236944
0.010228877
0.01022256
0.010217628
0.010212979
0.010206315
0.010193487
0.010168689
0.010130481
0.010091577
0.010058802
0.010040197
0.010035474
0.010045917
0.010049811
0.010019238
0.027017274
0.019314919
0.015578418
0.013079172
0.011860251
0.01133567
0.010913625
0.010716505
0.010550164
0.010451953
0.010373595
0.010318105
0.010275795
0.010244347
0.010220836
0.010203324
0.010191819
0.010183183
0.010178288
0.01017644
0.010174971
0.010178674
0.010182186
0.010186974
0.010192809
0.010199472
0.010206786
0.010214597
0.010222763
0.010231169
0.010239706
0.010248267
0.010256755
0.010265081
0.010273172
0.010280965
0.010288409
0.010295457
0.010302069
0.010308209
0.010313848
0.010318959
0.010323518
0.0103275
0.010330887
0.010333657
0.01033578
0.010337223
0.010337949
0.010337921
0.010337089
0.010335399
0.010332795
0.010329228
0.010324658
0.01031905
0.010312358
0.010304523
0.010295497
0.010285309
0.010274148
0.010262394
0.010250593
0.010239349
0.010229228
0.010220629
0.010213611
0.0102077
0.010201678
0.010193199
0.010178252
0.010151914
0.010115484
0.010079824
0.010051668
0.010037949
0.01003523
0.010048664
0.010057652
0.01001125
0.025312747
0.019491214
0.014895894
0.012773778
0.011663529
0.011204301
0.010820758
0.010646621
0.010497814
0.01041019
0.010340842
0.010292007
0.010255446
0.010228824
0.010209587
0.010195705
0.010187046
0.010182028
0.0101779
0.010180548
0.010183199
0.010186891
0.010192344
0.010198864
0.010206238
0.010214267
0.010222776
0.010231606
0.010240615
0.010249682
0.010258702
0.010267572
0.010276197
0.010284494
0.010292396
0.010299849
0.010306808
0.01031324
0.010319117
0.010324416
0.01032912
0.010333216
0.010336692
0.010339537
0.010341743
0.010343298
0.010344188
0.010344385
0.010343863
0.010342593
0.010340533
0.010337637
0.010333858
0.010329152
0.010323488
0.010316841
0.01030918
0.010300464
0.010290652
0.010279775
0.010268007
0.010255706
0.010243384
0.010231606
0.010220884
0.010211555
0.010203602
0.010196469
0.01018889
0.010178608
0.010161931
0.010134826
0.010101148
0.010069298
0.010045514
0.010035163
0.010035236
0.010050355
0.010063149
0.010005085
0.023784149
0.019637272
0.0143494
0.012493578
0.011485655
0.011085494
0.010738686
0.010585292
0.010452916
0.010375192
0.010314555
0.01027225
0.010241354
0.010219533
0.01020456
0.010194509
0.010186901
0.010187398
0.010188372
0.010190724
0.010195354
0.010201558
0.010208827
0.01021698
0.010225787
0.010235042
0.010244571
0.010254216
0.010263832
0.010273301
0.010282518
0.010291391
0.010299835
0.010307774
0.010315155
0.010321936
0.010328088
0.010333591
0.010338433
0.010342609
0.010346117
0.010348957
0.010351133
0.010352643
0.010353492
0.010353677
0.010353193
0.010352024
0.010350149
0.010347543
0.010344175
0.010340003
0.010334986
0.010329085
0.010322275
0.010314538
0.010305858
0.010296205
0.010285554
0.010273933
0.010261496
0.010248571
0.010235634
0.010223205
0.010211743
0.010201521
0.010192459
0.010183953
0.01017475
0.0101628
0.010144917
0.010117846
0.010087477
0.010059525
0.010039354
0.010031533
0.010035423
0.01005085
0.010064837
0.010001905
0.022421185
0.019769753
0.013873476
0.012238881
0.011326616
0.010978962
0.010667217
0.010532251
0.010415831
0.010347463
0.010295257
0.01025941
0.01023413
0.01021712
0.010206373
0.010200591
0.010198897
0.010199276
0.010202629
0.010208097
0.010214994
0.010223073
0.010232081
0.010241723
0.010251773
0.010262026
0.010272309
0.010282466
0.010292359
0.010301872
0.010310912
0.010319399
0.010327266
0.010334455
0.01034093
0.010346667
0.010351658
0.010355902
0.010359406
0.010362182
0.010364243
0.010365607
0.010366286
0.010366292
0.010365637
0.010364328
0.010362365
0.010359739
0.010356434
0.01035243
0.0103477
0.010342209
0.010335916
0.010328787
0.010320799
0.01031194
0.010302202
0.010291572
0.010280035
0.010267618
0.010254456
0.010240841
0.010227208
0.010214033
0.010201727
0.010190508
0.01018025
0.010170328
0.010159547
0.01014612
0.010127531
0.010101296
0.010074356
0.010050051
0.010033026
0.010027537
0.010034328
0.010049905
0.010065819
0.010002018
0.021187474
0.01986031
0.013439418
0.0120097
0.011186015
0.010884682
0.010606485
0.010488214
0.010386923
0.010327546
0.010283547
0.010254145
0.010234473
0.010222318
0.010215854
0.010213721
0.010214971
0.010219127
0.010225268
0.01023302
0.010242036
0.010251959
0.010262489
0.010273364
0.010284354
0.010295257
0.010305906
0.010316155
0.010325876
0.01033497
0.010343361
0.010350992
0.010357821
0.010363817
0.010368967
0.010373273
0.010376748
0.010379413
0.010381294
0.01038242
0.010382819
0.010382521
0.01038155
0.010379924
0.010377662
0.010374774
0.010371265
0.01036713
0.010362357
0.010356924
0.010350809
0.010343981
0.010336401
0.010328036
0.010318861
0.010308867
0.010298052
0.010286416
0.010273958
0.010260706
0.010246778
0.010232428
0.010218043
0.010204059
0.010190846
0.010178586
0.010167127
0.010155851
0.010143639
0.010128937
0.010109921
0.010085409
0.010061729
0.010040758
0.010026653
0.01002346
0.010032096
0.010047505
0.010063101
0.010003002
0.02007758
0.019870219
0.013045238
0.011804038
0.011063103
0.010802721
0.010556621
0.010453452
0.01036668
0.010316112
0.010280179
0.010257255
0.010243222
0.010235971
0.010233841
0.010235603
0.010240349
0.010247357
0.010256125
0.010266167
0.01027708
0.010288535
0.010300244
0.010311945
0.010323418
0.010334471
0.010344949
0.010354729
0.010363709
0.010371818
0.010379007
0.010385253
0.010390546
0.01039489
0.010398301
0.010400805
0.010402441
0.010403248
0.01040327
0.010402551
0.01040113
0.010399043
0.010396322
0.010392991
0.010389067
0.010384564
0.010379487
0.010373831
0.010367584
0.010360726
0.010353234
0.010345078
0.010336224
0.010326636
0.010316289
0.010305169
0.010293279
0.010280629
0.010267231
0.010253122
0.010238406
0.0102233
0.010208143
0.010193326
0.010179181
0.010165875
0.01015326
0.010140753
0.010127332
0.010111606
0.010092147
0.010070326
0.01004965
0.010031757
0.010020392
0.01001923
0.010029082
0.010044045
0.010054668
0.010003698
0.019077288
0.019658585
0.012689415
0.011620835
0.010957658
0.010733321
0.010517948
0.010428686
0.010355844
0.010314085
0.010286136
0.010269763
0.010261421
0.01025912
0.010261325
0.010266879
0.010274922
0.010284803
0.010295957
0.010307931
0.010320343
0.010332859
0.010345202
0.010357126
0.010368433
0.010378956
0.010388573
0.010397196
0.010404766
0.010411253
0.010416649
0.010420969
0.010424244
0.010426511
0.010427816
0.010428212
0.010427754
0.010426499
0.010424503
0.010421817
0.010418487
0.010414554
0.010410048
0.010404994
0.01039941
0.010393304
0.010386678
0.010379528
0.010371838
0.010363589
0.010354755
0.010345308
0.010335214
0.010324438
0.010312951
0.010300737
0.010287796
0.010274144
0.010259809
0.010244838
0.010229328
0.010213469
0.01019755
0.010181912
0.010166849
0.010152514
0.010138791
0.010125169
0.010110753
0.010094396
0.010075064
0.010056132
0.010038278
0.010023294
0.010014514
0.010015019
0.010025493
0.010041661
0.010053127
0.010004619
0.018171793
0.018809892
0.012369177
0.011459392
0.010869959
0.01067691
0.010491033
0.010414891
0.010355508
0.010322662
0.010302675
0.010292915
0.010290282
0.010292902
0.01029935
0.010308534
0.010319623
0.010331973
0.01034505
0.010358403
0.010371658
0.010384504
0.010396689
0.010408007
0.010418299
0.010427453
0.010435396
0.010442096
0.01044755
0.010451777
0.010454817
0.010456729
0.010457578
0.010457432
0.010456364
0.010454442
0.010451737
0.010448313
0.010444231
0.010439543
0.010434296
0.010428527
0.010422265
0.01041553
0.010408334
0.010400682
0.010392569
0.010383985
0.010374914
0.010365333
0.010355215
0.010344531
0.01033325
0.010321338
0.010308762
0.010295503
0.010281556
0.010266939
0.010251689
0.010235866
0.010219571
0.010202971
0.010186316
0.010169894
0.010153959
0.010138636
0.010123848
0.010109182
0.010093888
0.010077179
0.010059304
0.010042946
0.010027829
0.010015671
0.010009311
0.010011014
0.010021015
0.010037224
0.01005007
0.010005907
0.017353131
0.017446003
0.012086691
0.011319451
0.010799074
0.010634441
0.010476952
0.010413514
0.010367149
0.010343346
0.010331275
0.010328112
0.010331093
0.010338454
0.010348855
0.010361256
0.01037485
0.01038901
0.010403219
0.010417053
0.010430177
0.010442327
0.01045331
0.010462988
0.010471276
0.010478132
0.010483558
0.010487586
0.010490273
0.010491692
0.010491928
0.010491074
0.010489222
0.010486463
0.010482883
0.010478561
0.01047357
0.010467976
0.010461834
0.010455194
0.010448095
0.010440569
0.010432637
0.010424311
0.010415596
0.010406489
0.01039698
0.010387052
0.010376684
0.010365852
0.010354527
0.010342678
0.010330277
0.01031729
0.010303688
0.010289446
0.010274553
0.010259025
0.0102429
0.010226251
0.010209184
0.010191856
0.010174484
0.010157316
0.010140564
0.010124329
0.010108546
0.010092896
0.01007682
0.010060005
0.010044832
0.010030924
0.010018483
0.010009052
0.010004839
0.010007252
0.010016238
0.010031533
0.010042411
0.010007239
0.016617202
0.016576184
0.011848208
0.011201428
0.010745935
0.010607337
0.010477235
0.010426267
0.010392495
0.0103778
0.010373521
0.010376782
0.010385072
0.010396721
0.010410452
0.010425274
0.010440409
0.010455269
0.010469396
0.010482433
0.010494126
0.010504304
0.010512869
0.010519784
0.010525058
0.010528738
0.010530901
0.010531643
0.010531076
0.010529316
0.010526479
0.010522678
0.010518021
0.010512606
0.010506521
0.010499844
0.010492642
0.010484973
0.010476884
0.010468414
0.010459593
0.01045044
0.010440968
0.010431179
0.010421069
0.010410627
0.010399835
0.010388671
0.010377109
0.010365121
0.010352677
0.010339746
0.0103263
0.01031231
0.010297747
0.010282588
0.010266818
0.010250443
0.010233499
0.010216062
0.010198243
0.010180195
0.010162109
0.010144202
0.010126662
0.01010959
0.010092939
0.010076449
0.010059814
0.010044623
0.010031666
0.010020148
0.010010291
0.010003422
0.010001097
0.010003988
0.0100118
0.01002528
0.010033903
0.010007324
0.015956156
0.015570469
0.011644605
0.011105863
0.010711514
0.010597327
0.010493554
0.010455095
0.010433498
0.010427842
0.010431033
0.010440229
0.01045311
0.01046809
0.010483967
0.010499825
0.010514973
0.010528921
0.010541332
0.010551979
0.010560741
0.010567582
0.010572526
0.010575651
0.010577062
0.01057689
0.010575274
0.010572362
0.010568296
0.010563217
0.010557254
0.010550522
0.010543129
0.010535166
0.010526714
0.010517838
0.010508594
0.010499025
0.010489166
0.010479042
0.01046867
0.010458057
0.010447204
0.010436105
0.010424744
0.010413102
0.010401155
0.010388875
0.010376231
0.010363192
0.010349725
0.010335801
0.010321392
0.010306472
0.010291017
0.010275005
0.010258421
0.010241265
0.010223563
0.010205386
0.010186844
0.010168087
0.010149286
0.010130627
0.010112284
0.010094383
0.010076963
0.010059989
0.010043661
0.010030762
0.010019912
0.010010646
0.010003195
0.0099986219
0.0099979073
0.010001058
0.010007489
0.010018637
0.01002661
0.010007849
0.015364376
0.014886116
0.01147827
0.01103346
0.010696875
0.010606653
0.010528136
0.010502392
0.010492431
0.010495351
0.010505168
0.010519138
0.010535133
0.010551692
0.010567763
0.010582597
0.010595683
0.010606716
0.010615549
0.010622141
0.010626537
0.010628844
0.010629213
0.010627818
0.010624843
0.010620472
0.010614882
0.01060824
0.0106007
0.0105924
0.010583461
0.01057399
0.010564077
0.010553797
0.010543214
0.010532376
0.010521323
0.010510081
0.010498669
0.010487097
0.01047537
0.010463482
0.010451423
0.010439175
0.010426716
0.010414018
0.010401049
0.010387778
0.010374169
0.010360187
0.010345801
0.010330978
0.010315691
0.010299917
0.010283635
0.010266828
0.010249484
0.010231601
0.010213198
0.010194333
0.010175109
0.010155667
0.010136168
0.010116772
0.010097629
0.010078874
0.010060652
0.01004336
0.010029523
0.010018494
0.010009606
0.010002397
0.0099970645
0.0099943737
0.0099948619
0.009998192
0.010003821
0.010013248
0.010019322
0.010009758
0.014836231
0.014130412
0.01134585
0.010986886
0.010703885
0.010638705
0.010584079
0.01057092
0.010571423
0.010581508
0.010596054
0.010612537
0.010629113
0.010644585
0.010658183
0.010669448
0.010678148
0.010684227
0.010687769
0.010688923
0.01068789
0.010684899
0.010680184
0.01067398
0.010666505
0.010657961
0.010648529
0.010638366
0.010627611
0.010616383
0.010604782
0.010592889
0.010580772
0.010568484
0.010556066
0.010543549
0.010530952
0.010518286
0.010505554
0.010492753
0.010479873
0.010466898
0.010453808
0.010440575
0.01042717
0.010413558
0.010399702
0.010385565
0.010371108
0.010356295
0.010341092
0.010325467
0.010309392
0.010292843
0.010275803
0.010258257
0.010240198
0.010221628
0.010202567
0.010183061
0.0101632
0.010143111
0.010122947
0.010102866
0.010083005
0.010063509
0.010044813
0.010029168
0.010017128
0.010007871
0.01000073
0.0099953284
0.0099917789
0.0099905418
0.0099918369
0.0099952737
0.010000566
0.010008688
0.010012466
0.010011942
0.014371462
0.01354538
0.011252079
0.010970917
0.010736492
0.010697605
0.010664544
0.010662555
0.010670946
0.010685222
0.01070115
0.010716641
0.010730326
0.010741448
0.010749648
0.010754838
0.010757103
0.010756644
0.010753735
0.010748674
0.01074176
0.010733279
0.010723499
0.010712657
0.010700964
0.010688602
0.010675726
0.010662463
0.010648921
0.010635186
0.010621327
0.0106074
0.010593445
0.01057949
0.010565555
0.01055165
0.01053778
0.010523938
0.010510116
0.010496297
0.010482459
0.010468579
0.010454625
0.010440564
0.01042636
0.010411972
0.010397358
0.010382478
0.01036729
0.010351756
0.010335841
0.010319513
0.010302742
0.010285505
0.010267781
0.010249559
0.010230835
0.010211617
0.010191929
0.010171816
0.010151355
0.010130656
0.010109858
0.010089127
0.010068665
0.010048816
0.010030608
0.010016956
0.010006545
0.0099988242
0.0099932074
0.0099893527
0.0099872773
0.0099871787
0.0099890421
0.0099924876
0.0099975392
0.010004943
0.010008842
0.010008582
0.013975577
0.013080571
0.011199457
0.010990725
0.010819998
0.01078644
0.010770613
0.010776092
0.010787808
0.010801591
0.010814314
0.010824565
0.010831633
0.010835306
0.010835666
0.010832973
0.01082757
0.010819831
0.010810133
0.010798832
0.010786244
0.010772647
0.010758279
0.010743342
0.010728003
0.010712398
0.01069664
0.010680816
0.010664993
0.010649224
0.010633546
0.010617986
0.010602559
0.010587273
0.010572128
0.010557116
0.010542227
0.010527442
0.01051274
0.010498097
0.010483481
0.010468861
0.010454199
0.010439455
0.010424589
0.010409554
0.010394307
0.010378802
0.010362996
0.010346851
0.010330329
0.010313397
0.010296028
0.010278195
0.010259876
0.010241059
0.010221739
0.010201927
0.010181651
0.010160958
0.010139922
0.01011864
0.010097239
0.010075872
0.010054793
0.010034732
0.010018867
0.010006663
0.009997651
0.0099912154
0.0099868686
0.009984307
0.0099834493
0.0099842594
0.0099865411
0.0099899486
0.0099945897
0.010000697
0.010004113
0.010005
0.013657915
0.012706719
0.011192136
0.011046289
0.010923542
0.010904472
0.010898549
0.010905259
0.010914045
0.010921718
0.010926408
0.010927527
0.010925036
0.010919205
0.01091045
0.010899236
0.010886022
0.010871228
0.010855223
0.010838326
0.0108208
0.010802861
0.010784684
0.010766406
0.010748137
0.01072996
0.010711937
0.010694114
0.010676523
0.010659183
0.010642104
0.010625287
0.010608727
0.010592415
0.010576333
0.010560462
0.010544779
0.010529256
0.010513863
0.010498566
0.010483331
0.010468118
0.010452886
0.010437592
0.010422188
0.010406628
0.010390864
0.010374849
0.010358537
0.010341887
0.010324862
0.01030743
0.010289561
0.01027123
0.010252415
0.010233098
0.010213274
0.010192949
0.01017215
0.010150925
0.010129345
0.0101075
0.010085518
0.010063612
0.010042296
0.010023468
0.010009122
0.0099982063
0.0099903037
0.0099848897
0.0099815447
0.0099799919
0.009980057
0.0099815065
0.0099839826
0.0099871914
0.0099913879
0.0099967689
0.010000971
0.010003839
0.013435328
0.012435689
0.011233
0.011144245
0.011057758
0.011043084
0.011038095
0.011038598
0.011038025
0.011034585
0.011027614
0.011017241
0.011003893
0.010988101
0.010970391
0.010951244
0.010931075
0.010910227
0.010888977
0.010867546
0.010846104
0.010824783
0.010803681
0.01078287
0.010762399
0.010742302
0.010722598
0.010703298
0.0106844
0.0106659
0.010647784
0.010630036
0.010612634
0.010595554
0.010578769
0.01056225
0.010545962
0.010529874
0.010513947
0.010498145
0.010482426
0.010466749
0.010451069
0.010435339
0.010419512
0.010403538
0.010387366
0.010370948
0.010354237
0.01033719
0.010319768
0.010301938
0.010283672
0.010264944
0.010245732
0.010226016
0.010205782
0.01018503
0.010163785
0.010142096
0.010120038
0.0100977
0.010075218
0.010052877
0.010031537
0.010014563
0.010001335
0.009991444
0.0099843941
0.0099797467
0.0099771299
0.009976271
0.0099769279
0.0099787809
0.0099814591
0.0099847558
0.0099888985
0.009993925
0.009998603
0.010002367
0.013308256
0.012266246
0.011327392
0.011273365
0.011207167
0.011188651
0.011174721
0.01116226
0.011147606
0.011130256
0.011110337
0.011088317
0.011064731
0.011040077
0.011014774
0.010989163
0.010963507
0.010938008
0.010912815
0.010888035
0.010863743
0.010839987
0.010816796
0.010794186
0.010772158
0.010750706
0.010729818
0.010709474
0.010689652
0.010670328
0.010651471
0.010633053
0.010615041
0.010597401
0.010580099
0.010563097
0.010546357
0.010529841
0.010513509
0.01049732
0.010481229
0.010465194
0.010449168
0.010433104
0.010416951
0.01040066
0.010384179
0.010367458
0.010350448
0.010333105
0.010315389
0.010297266
0.010278707
0.010259687
0.01024018
0.010220161
0.010199605
0.010178495
0.010156847
0.010134717
0.010112204
0.01008943
0.010066569
0.010044054
0.010023465
0.010007706
0.0099953809
0.0099862502
0.0099798291
0.0099757311
0.0099736132
0.0099731938
0.009974194
0.0099762871
0.0099791616
0.0099826908
0.0099869872
0.0099918894
0.0099967527
0.010000864
0.013243092
0.012194068
0.011486348
0.011416948
0.01135509
0.011322206
0.011292387
0.011263387
0.011233466
0.01120263
0.011171142
0.011139372
0.011107646
0.011076231
0.011045325
0.011015068
0.010985553
0.010956839
0.010928956
0.010901915
0.010875711
0.01085033
0.01082575
0.010801943
0.010778877
0.010756519
0.010734834
0.010713783
0.01069333
0.010673436
0.010654064
0.010635173
0.010616725
0.01059868
0.010580999
0.01056364
0.010546563
0.010529725
0.010513086
0.0104966
0.010480226
0.010463916
0.010447626
0.010431306
0.010414909
0.010398382
0.010381675
0.010364737
0.010347517
0.01032997
0.010312056
0.010293738
0.010274988
0.01025578
0.010236086
0.010215872
0.010195099
0.010173732
0.010151761
0.010129232
0.010106258
0.010083014
0.010059772
0.010037208
0.010017837
0.010002777
0.009991093
0.0099824653
0.0099764602
0.0099727289
0.0099709502
0.0099708248
0.009972031
0.0099742363
0.0099771565
0.009980671
0.0099848288
0.0099895273
0.0099945019
0.0099991362
0.01325324
0.012152867
0.011642689
0.011550895
0.011477489
0.011425984
0.011378884
0.011334687
0.011292062
0.01125082
0.0112109
0.011172325
0.011135112
0.01109926
0.011064754
0.011031561
0.010999638
0.010968936
0.010939401
0.010910977
0.010883607
0.010857236
0.010831806
0.010807265
0.010783559
0.010760638
0.010738451
0.010716951
0.01069609
0.010675824
0.010656109
0.010636899
0.010618152
0.010599825
0.010581876
0.010564262
0.01054694
0.010529867
0.010513001
0.010496298
0.010479714
0.010463203
0.01044672
0.010430216
0.010413645
0.010396955
0.010380095
0.010363015
0.010345664
0.010327996
0.010309968
0.010291545
0.010272698
0.0102534
0.010233625
0.01021334
0.010192503
0.010171072
0.010149022
0.010126379
0.010103229
0.010079731
0.010056176
0.0100334
0.010014549
0.0099998118
0.0099883962
0.00997997
0.0099741296
0.0099705615
0.0099689588
0.0099690067
0.0099703646
0.009972686
0.0099757366
0.0099793638
0.00998355
0.0099882228
0.0099931255
0.0099979807
0.013347149
0.012176753
0.011759942
0.011648325
0.011559411
0.011491833
0.011431706
0.011377082
0.011326293
0.011278673
0.011233769
0.011191281
0.011150976
0.011112664
0.011076185
0.011041397
0.011008174
0.010976403
0.010945982
0.010916816
0.01088882
0.010861914
0.010836024
0.010811083
0.010787024
0.010763788
0.010741319
0.010719561
0.010698464
0.010677977
0.010658055
0.010638649
0.010619716
0.01060121
0.010583089
0.010565308
0.010547825
0.010530597
0.01051358
0.010496731
0.010480005
0.01046336
0.010446748
0.010430125
0.010413441
0.010396649
0.010379698
0.010362537
0.010345117
0.01032739
0.010309312
0.010290848
0.010271966
0.010252641
0.010232853
0.010212573
0.010191769
0.010170397
0.010148427
0.010125866
0.010102788
0.010079347
0.010055834
0.010033038
0.0100139
0.0099990011
0.0099874247
0.0099788444
0.0099728715
0.0099692387
0.0099676051
0.0099676002
0.0099690726
0.0099715169
0.0099746355
0.0099783817
0.0099826533
0.0099873349
0.0099923281
0.0099975406
0.013473956
0.01223389
0.011821342
0.011697518
0.011598315
0.011522338
0.011456064
0.011396895
0.011342739
0.011292597
0.011245781
0.011201827
0.011160383
0.011121177
0.011083984
0.011048618
0.011014921
0.010982754
0.010951997
0.01092254
0.010894288
0.010867153
0.010841055
0.01081592
0.010791681
0.010768274
0.01074564
0.010723723
0.01070247
0.010681831
0.010661758
0.010642204
0.010623124
0.010604472
0.010586206
0.010568282
0.010550658
0.010533289
0.010516135
0.010499151
0.010482294
0.01046552
0.010448786
0.010432044
0.010415249
0.010398352
0.010381304
0.010364054
0.010346554
0.010328756
0.010310614
0.010292092
0.010273155
0.010253776
0.010233927
0.010213571
0.010192662
0.01017115
0.010149005
0.010126246
0.010102962
0.010079316
0.010055608
0.010032704
0.010013916
0.0099991139
0.0099875645
0.009978916
0.009972789
0.0099689473
0.0099671197
0.0099666206
0.0099679684
0.009970923
0.0099739769
0.0099777678
0.0099820665
0.009986793
0.0099918723
0.0099973202
68.131496
370.02051
126.00801
15.446498
0.42940383
0.021454106
0.01998003
0.019666348
0.019400326
0.01835178
0.017049892
0.015882544
0.014990246
0.014422978
0.014019409
0.013642214
0.013278035
0.012953168
0.012677809
0.012446591
0.012250286
0.012081305
0.01193431
0.01180545
0.011691722
0.011590672
0.011500324
0.011419101
0.01134577
0.011279351
0.011219031
0.011164102
0.011113954
0.011068076
0.011026071
0.010987621
0.010952458
0.010920344
0.010891064
0.01086442
0.010840242
0.010818357
0.010798586
0.010780763
0.010764722
0.010750298
0.010737322
0.010725632
0.010715088
0.010705565
0.010696951
0.010689146
0.010682061
0.010675609
0.010669697
0.010664229
0.010659106
0.010654231