/*--------------------------------*- C++ -*----------------------------------*\
  =========                 |
  \\      /  F ield         | OpenFOAM: The Open Source CFD Toolbox
   \\    /   O peration     | Website:  https://openfoam.org
    \\  /    A nd           | Version:  12
     \\/     M anipulation  |
\*---------------------------------------------------------------------------*/
FoamFile
{
    format      ascii;
    class       volScalarField;
    location    "0.054";
    object      omega;
}
// * * * * * * * * * * * * * * * * * * * * * * * * * * * * * * * * * * * * * //

dimensions      [0 0 -1 0 0 0 0];

internalField   nonuniform List<scalar> 
16000
(
1085.8549
2183.7245
1071.7237
646.6655
456.27982
317.21208
240.77088
181.69431
146.40026
118.48305
100.68214
86.149511
75.405924
66.418569
59.091483
52.916491
47.704709
43.259607
39.440373
36.134428
33.257425
30.738096
28.517825
26.549939
24.796767
23.229022
21.822441
20.558274
19.420634
18.395033
17.468366
16.63029
15.872565
15.188217
14.571292
14.016263
13.51793
13.071391
12.672541
12.317924
12.003665
11.725685
11.481008
11.266926
11.080363
10.918181
10.777934
10.657304
10.554067
10.466106
10.3915
10.328553
10.275704
10.231605
10.195057
10.16507
10.140998
10.122834
10.111332
10.106803
10.104263
10.100473
10.096669
10.092969
10.089679
10.08701
10.085086
10.083964
10.083638
10.0838
10.083211
10.079126
10.068705
10.054686
10.0364
10.017885
10.005234
9.9846944
9.9911265
10.030154
1127.2514
2175.2777
1065.232
647.05914
456.49707
320.22555
241.8771
183.56075
147.25233
119.5367
101.23952
86.728026
75.777759
66.741948
59.3267
53.100385
47.840586
43.359757
39.512462
36.184172
33.289747
30.757643
28.528248
26.554175
24.796712
23.226185
21.817633
20.551947
19.413316
18.38749
17.4611
16.623441
15.866126
15.182068
14.565343
14.010489
13.512415
13.066156
12.667419
12.312864
11.998905
11.721246
11.476756
11.262847
11.076619
10.914788
10.774863
10.654542
10.551625
10.463995
10.3897
10.327055
10.274485
10.230641
10.194319
10.164503
10.140456
10.121958
10.109555
10.103888
10.101337
10.097537
10.093702
10.089981
10.086674
10.083998
10.082081
10.080988
10.080701
10.080888
10.080274
10.075937
10.064554
10.049615
10.031029
10.013891
10.002626
9.9878251
9.9936584
10.026248
1167.0751
2176.8868
1053.366
643.48193
453.17706
320.5152
240.80858
183.77623
146.82437
119.7125
101.09933
86.752457
75.685294
66.653705
59.204015
52.965227
47.693768
43.207087
39.358046
36.030358
33.138472
30.610982
28.387685
26.420948
24.671275
23.108899
21.708393
20.45037
19.319042
18.300512
17.381343
16.550563
15.79971
15.121601
14.510355
13.960558
13.467251
13.025516
12.630878
12.279972
11.969588
11.695312
11.453834
11.242588
11.058927
10.899463
10.76166
10.643231
10.542011
10.455911
10.382963
10.321509
10.269976
10.22703
10.191476
10.162301
10.13874
10.120454
10.107747
10.101213
10.098509
10.094663
10.090776
10.087029
10.083723
10.081076
10.079226
10.078231
10.078038
10.07823
10.077422
10.072535
10.060029
10.044079
10.025494
10.009777
10.0008
9.9913831
9.9957767
10.022293
1205.1196
2185.5213
1043.4734
640.12509
449.43671
320.6058
239.43414
183.8314
146.24976
119.78477
100.90495
86.713199
75.550087
66.516853
59.039817
52.790398
47.510664
43.020658
39.172417
35.84773
32.960481
30.439563
28.224139
26.26646
24.526175
22.97347
21.582481
20.333529
19.210753
18.200659
17.289824
16.466989
15.723624
15.052431
14.447574
13.903668
13.41588
12.979393
12.589584
12.242926
11.936649
11.666284
11.428332
11.220149
11.039413
10.882647
10.747257
10.630967
10.531643
10.447251
10.375792
10.315646
10.265243
10.22327
10.188544
10.160057
10.137021
10.119009
10.106143
10.098905
10.095957
10.092045
10.088085
10.084293
10.080971
10.078345
10.076556
10.075648
10.075507
10.075604
10.074426
10.068784
10.055033
10.038284
10.02013
10.006099
9.9996299
9.9943777
9.9980376
10.018556
1241.2059
2203.8315
1035.621
636.4642
444.93606
319.94673
237.3705
183.39397
145.29251
119.57541
100.51988
86.495317
75.274357
66.246448
58.759552
52.510584
47.233648
42.74945
38.910153
35.595746
32.719461
30.210713
28.008093
26.063925
24.337069
22.797743
21.419714
20.183057
19.071748
18.072721
17.1727
16.360135
15.626466
14.964255
14.367727
13.831508
13.350874
12.92116
12.537679
12.196585
11.895576
11.630208
11.396835
11.192593
11.015553
10.862186
10.729828
10.616216
10.519238
10.436943
10.3673
10.308735
10.259689
10.218875
10.185133
10.157462
10.135068
10.117468
10.104646
10.096922
10.093633
10.089634
10.085587
10.08174
10.078395
10.075782
10.074039
10.073182
10.073015
10.07287
10.071094
10.064479
10.049627
10.032406
10.015148
10.003055
9.9989706
9.9973336
10.00079
10.014825
1275.1953
2229.5388
1031.9838
633.54075
440.95708
318.65175
234.8208
182.54276
144.05676
119.12263
99.989055
86.12112
74.877745
65.859862
58.377839
52.139115
46.87434
42.403801
38.580332
35.282451
32.422569
29.930844
27.745325
25.818439
24.108566
22.5859
21.223889
20.002428
18.905229
17.919651
17.0327
16.232522
15.510562
14.859224
14.272795
13.74591
13.273929
12.852349
12.476555
12.142263
11.847564
11.588136
11.360285
11.160769
10.988089
10.838722
10.709926
10.599453
10.505193
10.425319
10.357758
10.300996
10.253487
10.213977
10.181336
10.154579
10.132911
10.11581
10.103177
10.095214
10.09151
10.087402
10.083255
10.079339
10.075952
10.073324
10.071579
10.070692
10.070372
10.069808
10.067216
10.059458
10.043832
10.026623
10.010747
10.000995
9.9985651
10.000605
10.00404
10.011151
1307.0448
2260.2821
1032.3311
630.77969
437.02789
316.71109
232.16733
181.31388
142.63921
118.42966
99.321921
85.589627
74.356694
65.355175
57.891646
51.673183
46.429807
41.980886
38.179996
34.904984
32.067092
29.597405
27.433554
25.527421
23.838273
22.335761
20.993027
19.789869
18.709648
17.740097
16.868657
16.083149
15.375075
14.736643
14.162217
13.646437
13.184726
12.77272
12.406021
12.080004
11.79271
11.540164
11.318797
11.124837
10.957178
10.812402
10.687686
10.580807
10.489618
10.412472
10.347242
10.292488
10.246681
10.208606
10.177171
10.151414
10.130547
10.114021
10.101672
10.093653
10.089543
10.0853
10.081037
10.077029
10.073567
10.070872
10.069047
10.068015
10.067392
10.066236
10.062677
10.053784
10.037857
10.021195
10.007099
9.9997666
9.9983149
10.004065
10.007404
10.007545
1336.8634
2293.6204
1034.2041
627.70389
433.1755
314.11704
229.52573
179.84638
141.13199
117.51888
98.535904
84.909627
73.712549
64.734658
57.301259
51.1124
45.899094
41.479636
37.707175
34.461268
31.651015
29.208442
27.07117
25.187358
23.522809
22.044175
20.72422
19.542743
18.482665
17.531986
16.678754
15.910438
15.218652
14.595372
14.035042
13.532309
13.082651
12.681801
12.325627
12.0101
11.731354
11.486608
11.272656
11.085192
10.923179
10.783538
10.663391
10.560525
10.472722
10.398573
10.335888
10.283316
10.239351
10.202816
10.172671
10.14798
10.127973
10.112081
10.100077
10.09207
10.087669
10.083259
10.078855
10.074721
10.071133
10.068298
10.066291
10.064981
10.063902
10.062026
10.05746
10.047604
10.031923
10.016309
10.004185
9.9990605
9.9984928
10.007012
10.011773
10.003965
1364.7481
2327.3698
1032.9546
623.84921
428.4325
310.81385
226.00814
177.98261
139.29788
116.42069
97.627219
84.080556
72.938509
63.993807
56.60182
50.451186
45.276633
40.895044
37.153929
33.943293
31.166673
28.756631
26.651734
24.799078
23.16358
21.712979
20.419584
19.263341
18.226702
17.297792
16.46546
15.716827
15.043689
14.437739
13.893514
13.405669
12.969739
12.581549
12.237028
11.93213
11.663238
11.427289
11.221672
11.042171
10.88642
10.752402
10.637348
10.538879
10.454742
10.383815
10.323851
10.273599
10.231584
10.196669
10.167873
10.144296
10.125186
10.109971
10.098364
10.090427
10.085804
10.081196
10.076617
10.07231
10.068534
10.065473
10.063175
10.061456
10.059796
10.057137
10.051646
10.041121
10.026228
10.012047
10.00188
9.9983435
9.9991257
10.009611
10.016412
10.000682
1390.7968
2359.918
1024.224
618.89307
421.97172
307.05833
221.64423
175.64149
137.39471
115.14011
96.58576
83.097338
72.02662
63.124734
55.785364
49.676732
44.548595
40.213817
36.518725
33.351983
30.616683
28.245601
26.178744
24.361712
22.75998
21.341706
20.078811
18.951517
17.941805
17.037729
16.229052
15.5027
14.850675
14.264322
13.738282
13.267211
12.846702
12.47267
12.141207
11.848326
11.590331
11.36402
11.1673
10.995661
10.846871
10.718934
10.609825
10.516103
10.43593
10.368402
10.3113
10.263468
10.223478
10.190232
10.162816
10.140377
10.122183
10.107669
10.096492
10.088658
10.083862
10.079022
10.074227
10.069696
10.065665
10.062295
10.059602
10.057368
10.055047
10.051615
10.045384
10.034542
10.020863
10.008303
9.9998715
9.9974441
10.000151
10.01146
10.019415
9.9983224
1415.1289
2390.5439
1015.447
612.85387
413.85413
302.89764
217.00636
173.10183
135.39648
113.67639
95.398653
81.952974
70.965224
62.106916
54.82936
48.784215
43.716436
39.44005
35.799717
32.685476
29.999149
27.673758
25.651074
23.875414
22.312411
20.930909
19.702658
18.608211
17.629104
16.753122
15.970633
15.269209
14.640822
14.076372
13.570611
13.118195
12.714777
12.356343
12.039156
11.759325
11.513239
11.297491
11.110367
10.947316
10.805955
10.684258
10.580757
10.492132
10.416497
10.352496
10.298405
10.253058
10.215136
10.183578
10.157545
10.136243
10.118963
10.105153
10.094426
10.086709
10.081756
10.076653
10.071602
10.066798
10.062455
10.058706
10.055543
10.052726
10.049714
10.045574
10.03884
10.028043
10.015821
10.004896
9.9978961
9.9963763
10.00119
10.012171
10.020532
9.9972842
1437.8658
2420.2223
1002.084
605.29491
404.31005
298.32668
212.19603
170.30282
133.37217
112.03601
94.038571
80.617147
69.716556
60.934004
53.7375
47.770396
42.776512
38.570381
34.99527
31.942892
29.313871
27.041216
25.069001
23.340586
21.821675
20.48121
19.291953
18.234446
17.289794
16.445504
15.690453
15.016631
14.414464
13.874286
13.390944
12.959082
12.574433
12.233027
11.931343
11.665597
11.432308
11.228642
11.051601
10.897544
10.764051
10.648965
10.551293
10.467791
10.396372
10.336023
10.285278
10.242495
10.20666
10.176783
10.152108
10.131918
10.115527
10.102406
10.092136
10.084538
10.079416
10.074025
10.068683
10.063568
10.058868
10.054698
10.051027
10.047607
10.043922
10.039156
10.032141
10.021745
10.011053
10.001706
9.9958627
9.9953088
10.001318
10.012073
10.021436
9.9977761
1459.3144
2448.2387
984.79914
596.7618
394.2201
293.34013
207.31325
167.30383
131.29711
110.19699
92.440289
79.073358
68.285905
59.600119
52.503402
46.631595
41.725962
37.603171
34.104387
31.123447
28.560659
26.348447
24.432809
22.757879
21.28901
19.992175
18.846392
17.830111
16.923869
16.115421
15.393607
14.749994
14.176462
13.662754
13.20375
12.794065
12.429564
12.106289
11.82097
11.570029
11.349898
11.157663
10.991207
10.846529
10.721255
10.613495
10.521639
10.443375
10.376394
10.319585
10.2718
10.231846
10.198137
10.169924
10.146557
10.127429
10.111887
10.099416
10.089601
10.08213
10.076791
10.071099
10.065444
10.059991
10.05491
10.0503
10.046118
10.042119
10.03782
10.03251
10.025332
10.015731
10.006525
9.9986745
9.9940682
9.9942615
10.000949
10.01151
10.021138
9.998656
1479.7143
2470.9111
963.31986
587.68064
383.68345
287.99146
202.44611
164.11127
129.1002
108.06437
90.588142
77.310991
66.660624
58.097139
51.121054
45.363145
40.561787
36.536132
33.126018
30.226286
27.73937
25.596254
23.741074
22.125967
20.713922
19.470194
18.37297
17.402538
16.538844
15.769732
15.083856
14.472977
13.929893
13.444538
13.011522
12.625349
12.28212
11.977841
11.709481
11.47382
11.267376
11.087112
10.931279
10.796044
10.678925
10.577858
10.49183
10.418756
10.356609
10.303453
10.258503
10.220964
10.189595
10.163062
10.140945
10.12281
10.108062
10.096187
10.086813
10.079499
10.073856
10.06786
10.061885
10.056085
10.050614
10.045562
10.040887
10.036358
10.031534
10.025781
10.018428
10.010051
10.002244
9.9958412
9.9925008
9.9933016
10.000447
10.010733
10.018143
9.9993046
1499.3204
2483.6387
937.68549
577.93981
372.76481
282.31478
197.67027
160.64685
126.6606
105.6457
88.454853
75.312402
64.82835
56.415037
49.583164
43.960006
39.281045
35.366977
32.059494
29.248244
26.847113
24.782994
23.002209
21.454669
20.106139
18.921001
17.877501
16.956939
16.139632
15.413274
14.766314
14.190443
13.677832
13.222183
12.816405
12.454703
12.13355
11.848898
11.597859
11.377706
11.185078
11.017666
10.872372
10.746481
10.637616
10.543429
10.463019
10.394754
10.336824
10.287706
10.2456
10.210273
10.180865
10.156208
10.135325
10.118097
10.104083
10.092739
10.083763
10.076675
10.070608
10.064313
10.058022
10.051882
10.046028
10.04054
10.035391
10.030376
10.025111
10.019079
10.011794
10.00473
9.9982476
9.9932238
9.9910564
9.9925344
9.9997888
10.010244
10.017203
9.9999394
1518.3511
2476.312
908.25592
567.59194
361.51143
276.31565
192.98028
156.78291
123.90074
102.89617
86.010814
73.054993
62.773149
54.542784
47.882395
42.416684
37.881029
34.089754
30.900364
28.198032
25.896269
23.922023
22.224164
20.752153
19.47351
18.353095
17.368341
16.499544
15.731697
15.050763
14.444835
13.906206
13.427296
13.001881
12.623935
12.287055
11.988202
11.72335
11.48954
11.284769
11.105402
10.949478
10.814622
10.697847
10.597084
10.510295
10.435435
10.371796
10.317686
10.27208
10.233148
10.199953
10.172263
10.149196
10.129711
10.113331
10.099984
10.08911
10.08044
10.073521
10.067063
10.06047
10.053876
10.047412
10.041192
10.035285
10.029675
10.024201
10.018542
10.012347
10.00571
9.999815
9.9945957
9.9908475
9.9896922
9.9919059
9.9984841
10.008303
10.015876
10.000686
1536.9762
2428.6644
876.43923
556.66762
349.98226
269.90739
188.06564
152.49247
120.70658
99.768071
83.22243
70.514172
60.479218
52.470813
46.01217
40.723682
36.354225
32.716037
29.664849
27.086639
24.898214
23.025278
21.419506
20.030843
18.825658
17.774741
16.853444
16.042312
15.326053
14.692381
14.128723
13.627914
13.182708
12.787376
12.436922
12.124653
11.847795
11.602605
11.385781
11.196041
11.029725
10.884885
10.759908
10.651789
10.558426
10.478141
10.409231
10.35006
10.299506
10.257053
10.220885
10.190068
10.163928
10.142251
10.123971
10.108548
10.095799
10.085351
10.076896
10.070062
10.06324
10.056349
10.04946
10.042686
10.036124
10.029827
10.023784
10.017873
10.011861
10.005611
10.000165
9.9953683
9.9913424
9.9887689
9.9885355
9.9912014
9.9968837
10.005811
10.013607
10.001431
1555.0675
2392.6473
844.36019
545.11513
338.18126
262.54706
183.00121
147.67231
116.96382
96.203394
80.054708
67.665912
57.931231
50.190839
43.959993
38.892542
34.722031
31.26109
28.369397
25.932445
23.870623
22.110114
20.601532
19.30333
18.179829
17.202054
16.34666
15.59462
14.930726
14.344503
13.823272
13.360176
12.948426
12.582383
12.257239
11.968837
11.71316
11.487079
11.287718
11.11234
10.958643
10.824323
10.708539
10.608601
10.522226
10.447857
10.383999
10.329277
10.28244
10.242827
10.209155
10.180413
10.155949
10.135462
10.118276
10.103748
10.091553
10.081512
10.073201
10.066318
10.059166
10.051976
10.044791
10.037708
10.030813
10.024156
10.017734
10.011448
10.005181
9.9996362
9.9951647
9.9914232
9.9885166
9.9870311
9.9876187
9.9905094
9.9955536
10.003409
10.009978
10.001637
1572.1668
2351.516
811.36815
532.59786
326.00617
253.99928
177.59286
142.20703
112.56368
92.141089
76.474206
64.489409
55.110439
47.688303
41.751036
36.945532
33.00825
29.751167
27.039168
24.759528
22.832349
21.194211
19.793584
18.589943
17.550333
16.647279
15.858392
15.1656
14.553507
14.012197
13.53233
13.105767
12.726343
12.388966
12.089291
11.823368
11.587638
11.379057
11.195044
11.033297
10.891727
10.768273
10.660983
10.568574
10.488693
10.41984
10.360642
10.30989
10.266502
10.229498
10.198078
10.171249
10.148358
10.128898
10.112631
10.098845
10.087255
10.077616
10.069447
10.062324
10.054876
10.047388
10.039903
10.032503
10.025266
10.018251
10.011491
10.004987
9.9988448
9.994298
9.9907492
9.9879904
9.9861139
9.9855854
9.9868402
9.9898533
9.9943094
10.000975
10.006966
10.002079
1587.6057
2283.9192
776.71672
518.60955
312.69275
244.11524
171.52474
135.95717
107.40574
87.522294
72.454999
60.965221
52.033969
45.010818
39.421418
34.92119
31.250776
28.221112
25.701896
23.592831
21.814139
20.304014
19.014292
17.906914
16.951273
16.121983
15.397755
14.760912
14.199585
13.70283
13.262187
12.870277
12.521286
12.210544
11.934282
11.689184
11.472026
11.279855
11.110257
10.960969
10.830128
10.716109
10.617495
10.5319
10.457938
10.394129
10.339169
10.29193
10.251442
10.217148
10.187704
10.162538
10.141016
10.122651
10.107174
10.094013
10.082908
10.073638
10.065651
10.058134
10.050417
10.042637
10.034857
10.027144
10.019564
10.01218
10.005068
9.9984192
9.9933579
9.9896212
9.9869239
9.9850578
9.9840905
9.9843487
9.9860921
9.9892164
9.9934554
9.9993372
10.003892
10.002811
1600.3059
2215.6282
739.49076
502.57472
298.58825
232.70143
164.32399
128.7554
101.413
82.316716
67.990835
57.133922
48.763338
42.217087
37.030509
32.872327
29.495795
26.707996
24.398214
22.466979
20.840109
19.459862
18.281046
17.26833
16.393861
15.63496
14.971068
14.388694
13.874768
13.419281
13.015048
12.655255
12.334533
12.048491
11.793664
11.567324
11.366982
11.189655
11.033233
10.895519
10.77464
10.66963
10.578079
10.498698
10.430033
10.370773
10.31968
10.275712
10.238
10.205791
10.178141
10.15444
10.134134
10.116753
10.101962
10.089325
10.078589
10.069559
10.061679
10.05383
10.04585
10.037793
10.029731
10.021725
10.013838
10.006135
9.9988172
9.9928845
9.9886012
9.9856261
9.9836786
9.9825911
9.9823981
9.9832847
9.9853544
9.9884876
9.9926331
9.9981989
10.001757
10.00285
1607.4907
2132.7086
699.46236
482.78654
283.43732
219.43809
155.51287
120.46322
94.584579
76.571132
63.16515
53.103325
45.395256
39.393535
34.652469
30.860351
27.789006
25.258387
23.161408
21.408879
19.932135
18.678534
17.606831
16.684656
15.8865
15.192157
14.585305
14.052259
13.58193
13.164074
12.792775
12.462008
12.166925
11.90347
11.668262
11.458661
11.273283
11.10909
10.964292
10.837037
10.725502
10.627939
10.542907
10.469029
10.405035
10.349776
10.302139
10.260987
10.225842
10.19553
10.169444
10.147003
10.127741
10.11127
10.097076
10.084884
10.074441
10.065528
10.057656
10.049508
10.041276
10.032957
10.024622
10.016339
10.008197
10.000347
9.9932463
9.9881865
9.9846088
9.9822902
9.980987
9.9805547
9.9809928
9.9823687
9.9846557
9.9876795
9.9914769
9.9964684
10.000189
10.002157
1604.0304
2031.1035
656.11489
456.93316
267.05935
203.97388
144.84789
111.10403
87.070911
70.413107
58.163917
49.021312
42.049549
36.635963
32.365007
28.949579
26.184128
23.909541
22.021162
20.440784
19.106728
17.972122
17.000278
16.162301
15.435293
14.801087
14.24519
13.755736
13.322895
12.938707
12.596592
12.291428
12.018923
11.775549
11.558317
11.36466
11.192376
11.039636
10.904685
10.785958
10.681966
10.591182
10.511906
10.442947
10.383064
10.33122
10.286739
10.248241
10.21501
10.186385
10.161706
10.140366
10.122085
10.106262
10.092594
10.080786
10.07062
10.061748
10.053726
10.045323
10.036842
10.028271
10.019675
10.011121
10.002716
9.994783
9.9887175
9.9842975
9.9813295
9.9795588
9.978785
9.978883
9.979813
9.9815413
9.9839624
9.9869276
9.9905304
9.9949657
9.9984926
10.00112
1583.7755
1901.1387
609.6642
424.33774
249.45621
186.10002
132.5498
101.00326
79.222265
64.169096
53.20917
45.054193
38.850252
34.038142
30.24016
27.196558
24.725033
22.693838
21.001216
19.580071
18.376469
17.349522
16.467304
15.704549
15.041009
14.460398
13.949794
13.499221
13.099952
12.744979
12.42825
12.145239
11.892106
11.665711
11.463411
11.282939
11.122297
10.979693
10.853488
10.742174
10.644434
10.559436
10.485149
10.420493
10.364346
10.315684
10.273583
10.2372
10.205662
10.178399
10.154997
10.134694
10.117094
10.101841
10.08862
10.077195
10.06721
10.058388
10.050076
10.041456
10.032735
10.023918
10.015071
10.006285
9.9977849
9.990402
9.9850139
9.9811675
9.9786874
9.9773542
9.9769952
9.9774977
9.9787882
9.980761
9.9832578
9.9861658
9.9896292
9.9937482
9.9974549
10.000642
1537.9408
1742.7397
561.28515
385.79466
231.56627
166.09085
119.30503
90.786619
71.497604
58.165107
48.526904
41.363007
35.914856
31.685218
28.339474
25.648395
23.451984
21.636625
20.119855
18.839992
17.751091
16.817949
16.013174
15.315083
14.706212
14.172164
13.700364
13.282795
12.911699
12.58158
12.286397
12.022186
11.785504
11.573533
11.383892
11.214536
11.063664
10.929654
10.811016
10.706363
10.614391
10.53387
10.463611
10.402313
10.348992
10.30267
10.262524
10.227996
10.198008
10.172013
10.149466
10.129909
10.112916
10.098113
10.085299
10.074077
10.064229
10.055419
10.046879
10.038063
10.02913
10.020095
10.011026
10.002051
9.9935445
9.9869826
9.9820965
9.9787083
9.9766058
9.9756051
9.9755539
9.9763424
9.9778715
9.9800055
9.9825834
9.9855119
9.9888902
9.992744
9.9965463
9.9999755
1458.3372
1582.0128
511.96974
346.11784
207.49761
146.69964
106.05901
81.145856
64.35624
52.717134
44.334094
38.103877
33.354674
29.653552
26.711714
24.332651
22.379524
20.755123
19.389192
18.230202
17.238676
16.384561
15.644314
14.999264
14.434369
13.937375
13.498191
13.108463
12.761413
12.4514
12.173747
11.924777
11.701398
11.501058
11.321596
11.161141
11.018037
10.890774
10.777949
10.678239
10.590409
10.513371
10.446414
10.38791
10.336992
10.292736
10.254321
10.221001
10.192102
10.16697
10.145116
10.126107
10.109657
10.095261
10.082662
10.071602
10.061825
10.052987
10.044249
10.035244
10.026105
10.01687
10.007626
9.9985663
9.9903873
9.9843632
9.9798828
9.976838
9.9750178
9.97426
9.9744254
9.9754012
9.9770693
9.9792823
9.9819041
9.9848906
9.9883105
9.9920996
9.9959203
9.9992293
1346.7266
1496.8573
465.63441
298.50203
183.54751
128.48235
94.07887
72.606705
58.174814
48.120552
40.850174
35.42927
31.274299
28.014162
25.404266
23.278894
21.522649
20.053002
18.808706
17.747161
16.834345
16.044336
15.35667
14.754982
14.226006
13.7589
13.344696
12.976015
12.646872
12.35276
12.088719
11.851538
11.638383
11.446933
11.27521
11.121505
10.984298
10.862205
10.753936
10.658266
10.574014
10.500025
10.435167
10.378499
10.329065
10.286013
10.248562
10.21604
10.187977
10.163521
10.142234
10.123669
10.107454
10.093268
10.080824
10.069864
10.060127
10.051253
10.042363
10.033183
10.023833
10.014377
10.004946
9.9958453
9.9881861
9.9824666
9.9782767
9.9754698
9.97385
9.9732635
9.9735738
9.9746624
9.9764069
9.9786577
9.981286
9.984245
9.9875554
9.9911716
9.9949683
9.9985997
1214.5709
1258.2448
425.29323
256.03369
161.26387
113.28545
84.16315
65.709347
53.287729
44.576661
38.22985
33.454383
29.760268
26.835535
24.474067
22.535616
20.922054
19.563046
18.407041
17.415445
16.558926
15.814648
15.164528
14.593963
14.090962
13.645554
13.249639
12.896417
12.580279
12.296596
12.041572
11.812047
11.605417
11.419502
11.252451
11.102657
10.96869
10.849241
10.743094
10.649111
10.566264
10.493821
10.430208
10.374581
10.326016
10.283683
10.246816
10.214723
10.186786
10.162459
10.141253
10.122743
10.10656
10.092385
10.079941
10.068976
10.059232
10.050345
10.041429
10.032196
10.022762
10.013176
10.003581
9.9943524
9.9868892
9.9812917
9.9772239
9.974535
9.9730267
9.9725399
9.9729388
9.9740859
9.9758609
9.9781339
9.9807877
9.9837716
9.9870785
9.9906719
9.9944378
9.9982581
1095.6879
1117.8156
392.44014
225.18497
144.59092
102.10675
76.818722
60.684643
49.793262
42.089393
36.419321
32.112049
28.749139
26.063846
23.878698
22.072126
20.55848
19.275971
18.17906
17.233514
16.413095
15.697308
15.069851
14.517631
14.030424
13.597809
13.212473
12.867988
12.559079
12.281358
12.031209
11.805648
11.602208
11.418827
11.253756
11.105479
10.972641
10.854006
10.748412
10.654754
10.57197
10.499039
10.434993
10.378892
10.329857
10.287069
10.249773
10.217282
10.188976
10.164303
10.142773
10.12396
10.107493
10.093051
10.080355
10.069157
10.059211
10.050188
10.041352
10.032154
10.022752
10.013179
10.003574
9.9942944
9.9866515
9.9809373
9.976786
9.9740583
9.972527
9.9720196
9.9724285
9.9736451
9.9754329
9.9777201
9.9804178
9.9834437
9.9867637
9.9903358
9.9941185
9.9980749
1041.0687
1078
368.04491
208.0283
133.66924
94.52078
71.345817
56.69019
46.814927
39.820284
34.656473
30.715763
27.625783
25.148116
23.124093
21.444637
20.032666
18.832407
17.802661
16.912417
16.137893
15.460501
14.865413
14.340565
13.875968
13.463259
13.095359
12.766308
12.4711
12.205562
11.966232
11.750251
11.555257
11.379282
11.220664
11.077973
10.949938
10.835404
10.733292
10.642571
10.56225
10.491373
10.429019
10.374306
10.326404
10.284534
10.247978
10.216078
10.18824
10.163934
10.142687
10.124087
10.107773
10.093435
10.0808
10.069624
10.059662
10.050592
10.04169
10.032418
10.022936
10.013273
10.003567
9.9942071
9.9866757
9.9809625
9.9767868
9.9740002
9.9724007
9.9718691
9.9718584
9.9733789
9.9751551
9.9773922
9.9801303
9.9831762
9.9865032
9.9900974
9.9939182
9.9979779
31810.283
79165.685
37413.14
10948.14
1441.4166
608.91615
431.71588
348.38098
288.4762
234.58947
191.22119
158.2233
133.77751
115.59268
101.59207
90.190432
80.572111
72.359747
65.313806
59.23304
53.946817
49.32024
45.247995
41.644835
38.445782
35.586745
33.022651
30.713801
28.628584
26.742038
25.032825
23.481913
22.072717
20.790682
19.624402
18.56426
17.601581
16.728665
15.938478
15.224635
14.581567
14.003725
13.486052
13.024005
12.613115
12.249147
11.928261
11.646432
11.399991
11.185592
10.99998
10.840073
10.702944
10.586111
10.487111
10.403803
10.335833
10.282887
10.245077
10.225698
10.220013
10.218302
10.21578
10.211326
10.204515
10.194703
10.181779
10.166893
10.152386
10.14076
10.129751
10.107097
10.1038
10.09515
10.096922
10.10164
10.088253
10.083177
9.9946704
10.014711
19801.72
60235.533
25064.559
5203.3215
970.21145
526.24695
395.51703
319.42326
262.27456
211.24607
173.36621
144.71522
123.76418
108.01162
95.592893
85.229869
76.412264
68.862937
62.364797
56.731913
51.812886
47.490864
43.673507
40.28514
37.264247
34.558105
32.125576
29.929537
27.942103
26.140818
24.505981
23.019958
21.667484
20.435179
19.312841
18.291565
17.363254
16.520753
15.757466
15.067424
14.445423
13.886141
13.384835
12.9372
12.538944
12.18603
11.874791
11.601312
11.3621
11.153939
10.973679
10.818341
10.685099
10.57158
10.475407
10.394384
10.327845
10.276099
10.239415
10.221248
10.216037
10.214322
10.211552
10.206784
10.19963
10.189567
10.176689
10.162314
10.14877
10.138399
10.129283
10.108061
10.10671
10.098358
10.100457
10.101906
10.088482
10.07795
9.993054
10.015966
27862.829
36394.815
13883.446
2609.2378
835.85706
496.50214
385.50405
304.19224
248.98441
199.80586
165.69589
138.65116
119.22999
104.35224
92.520092
82.574281
74.127077
66.892717
60.658249
55.246275
50.514325
46.352669
42.673498
39.404451
36.48508
33.868458
31.514721
29.387698
27.461539
25.714698
24.128166
22.68499
21.370595
20.172193
19.080269
18.086223
17.18228
16.361597
15.617815
14.945213
14.338802
13.793381
13.304415
12.867743
12.479176
12.134813
11.831097
11.564181
11.3307
11.127527
10.95158
10.799957
10.66992
10.559189
10.465312
10.386282
10.320907
10.270057
10.234216
10.216949
10.212064
10.210299
10.207279
10.202207
10.194753
10.184525
10.171799
10.158009
10.145417
10.136143
10.12871
10.109051
10.109404
10.100779
10.103799
10.101883
10.088142
10.071436
9.9914802
10.017208
35674.566
24212.327
8466.374
1557.1304
751.04518
473.23923
373.11876
288.31284
237.86555
189.22678
158.7429
132.76046
114.93522
100.83603
89.592767
80.055387
71.965147
65.025577
59.038443
53.833828
49.277302
45.265807
41.715895
38.558502
35.736452
33.202237
30.922196
28.860275
26.992201
25.297118
23.756687
22.354572
21.076825
19.911195
18.848815
17.881311
17.00122
16.201975
15.47743
14.822092
14.231165
13.69955
13.222916
12.797228
12.418395
12.082642
11.786517
11.526237
11.298566
11.100456
10.928897
10.781063
10.654369
10.546397
10.454884
10.377871
10.313902
10.263968
10.228993
10.21263
10.208059
10.206218
10.20293
10.197556
10.189834
10.179506
10.16701
10.153855
10.142202
10.133905
10.127909
10.110134
10.111499
10.102548
10.106788
10.101022
10.087539
10.064171
9.9900007
10.018603
40415.379
20584.872
5926.547
1219.1838
715.95796
456.31875
363.48347
275.86694
229.78629
181.12813
153.82633
128.17983
111.7073
98.047532
87.24968
78.010431
70.19669
63.483413
57.688394
52.646031
48.228254
44.336751
40.891047
37.824455
35.081749
32.618016
30.397651
28.390457
26.571661
24.920814
23.420079
22.053583
20.807868
19.671096
18.634928
17.691108
16.832441
16.052571
15.34551
14.705957
14.12926
13.610395
13.145215
12.729773
12.360057
12.032407
11.743457
11.48947
11.267334
11.074066
10.906722
10.762556
10.639062
10.53378
10.444569
10.369527
10.307077
10.257994
10.223844
10.208266
10.20402
10.202074
10.198511
10.192849
10.184903
10.17455
10.162361
10.14988
10.139141
10.131739
10.126954
10.111232
10.112896
10.103901
10.10905
10.09958
10.086701
10.057893
9.9886412
10.020079
43266.315
19173.799
4517.3727
1145.7343
695.63902
437.59946
355.95788
266.0866
223.61186
174.67988
149.98103
124.30901
109.05224
95.648909
85.239765
76.239854
68.657988
62.132664
56.499039
51.59375
47.294058
43.505247
40.149164
37.161047
34.487397
32.084654
29.917265
27.958331
26.183131
24.571672
23.106468
21.772023
20.555287
19.444762
18.432571
17.510506
16.671625
15.909733
15.218972
14.594205
14.030897
13.524077
13.069767
12.664086
12.30309
11.983219
11.701179
11.453276
11.236511
11.047961
10.884752
10.744243
10.623807
10.521169
10.434233
10.361141
10.300337
10.252077
10.218728
10.203864
10.199949
10.197865
10.194026
10.1881
10.179979
10.169669
10.157854
10.146072
10.136215
10.129647
10.125908
10.112247
10.113889
10.104989
10.110176
10.097894
10.085594
10.052377
9.987432
10.021631
45513.345
17246.56
3605.7827
1094.712
680.49411
424.92432
350.16979
258.28703
218.89979
169.56934
146.92828
121.06287
106.86095
93.586931
83.515159
74.704954
67.316893
60.94775
55.449523
50.659915
46.460661
42.759724
39.48076
36.56054
33.946935
31.597628
29.478361
27.560808
25.824047
24.247655
22.814271
21.508678
20.318161
19.231508
18.241243
17.339149
16.518525
15.773298
15.097717
14.486783
13.936055
13.440599
12.996592
12.600195
12.247525
11.935113
11.65972
11.41769
11.206137
11.022194
10.863095
10.726037
10.608615
10.508584
10.423892
10.352728
10.293594
10.246215
10.213642
10.199464
10.195843
10.193591
10.189485
10.183324
10.175081
10.164883
10.153495
10.142426
10.133415
10.127619
10.124788
10.113122
10.114629
10.105875
10.110861
10.095906
10.084258
10.046668
9.9864151
10.023257
47157.644
14568.685
3028.3877
1064.1143
669.11219
414.76121
345.14818