/*--------------------------------*- C++ -*----------------------------------*\
  =========                 |
  \\      /  F ield         | OpenFOAM: The Open Source CFD Toolbox
   \\    /   O peration     | Website:  https://openfoam.org
    \\  /    A nd           | Version:  12
     \\/     M anipulation  |
\*---------------------------------------------------------------------------*/
FoamFile
{
    format      ascii;
    class       volScalarField;
    location    "0.054";
    object      p;
}
// * * * * * * * * * * * * * * * * * * * * * * * * * * * * * * * * * * * * * //

dimensions      [1 -1 -2 0 0 0 0];

internalField   nonuniform List<scalar> 
16000
(
90180.734
90306.74
90318.332
90452.929
90479.146
90606.514
90656.949
90773.664
90847.339
90958.337
91050.213
91161.026
91266.921
91381.949
91498.815
91621.09
91747.38
91878.287
92013.682
92153.648
92298.189
92447.304
92600.966
92759.128
92921.713
93088.616
93259.703
93434.807
93613.729
93796.232
93982.049
94170.875
94362.37
94556.161
94751.843
94948.981
95147.114
95345.756
95544.403
95742.535
95939.625
96135.141
96328.555
96519.348
96707.014
96891.068
97071.049
97246.526
97417.099
97582.405
97742.122
97895.969
98043.71
98185.151
98320.143
98448.577
98570.39
98685.558
98794.097
98896.063
98991.548
99080.678
99163.613
99240.544
99311.681
99377.245
99437.459
99492.55
99542.77
99588.454
99630.117
99668.439
99703.975
99737.638
99772.148
99804.477
99821.297
99908.84
99838.827
100000.65
89823.72
89966.599
89975.996
90122.425
90150.057
90288.354
90340.99
90468.98
90546.388
90667.478
90765.701
90885.431
90999.618
91123.491
91249.603
91381.351
91517.529
91658.617
91804.532
91955.321
92110.975
92271.467
92436.741
92606.714
92781.272
92960.267
93143.519
93330.809
93521.885
93716.453
93914.186
94114.716
94317.642
94522.526
94728.9
94936.268
95144.109
95351.885
95559.041
95765.018
95969.256
96171.198
96370.302
96566.045
96757.928
96945.481
97128.268
97305.891
97477.993
97644.261
97804.426
97958.265
98105.599
98246.294
98380.258
98507.438
98627.822
98741.433
98848.329
98948.601
99042.367
99129.772
99210.986
99286.199
99355.615
99419.441
99477.88
99531.141
99579.46
99623.174
99662.801
99698.959
99732.216
99763.96
99795.991
99822.798
99847.995
99914.813
99853.813
100016.93
89495.682
89654.083
89663.292
89823.112
89850.798
90002.897
90057.197
90197.556
90279.823
90411.458
90517.458
90646.794
90770.567
90904.323
91040.897
91183.332
91330.632
91483.153
91640.824
91803.655
91971.605
92144.613
92322.585
92505.393
92692.876
92884.838
93081.042
93281.212
93485.029
93692.137
93902.135
94114.586
94329.014
94544.91
94761.734
94978.924
95195.896
95412.055
95626.802
95839.539
96049.679
96256.653
96459.916
96658.953
96853.289
97042.485
97226.15
97403.94
97575.558
97740.758
97899.342
98051.161
98196.11
98334.127
98465.189
98589.309
98706.536
98816.946
98920.641
99017.75
99108.419
99192.809
99271.097
99343.474
99410.133
99471.264
99527.054
99577.69
99623.399
99664.512
99701.533
99735.015
99765.628
99794.917
99823.53
99846.752
99874.273
99926.598
99870.26
100038.73
89201.43
89370.658
89380.872
89556.105
89583.296
89751.667
89808.204
89962.909
90050.985
90194.706
90309.97
90450.269
90585.259
90730.364
90878.924
91033.524
91193.377
91358.716
91529.474
91705.621
91887.089
92073.776
92265.549
92462.232
92663.612
92869.432
93079.389
93293.134
93510.272
93730.364
93952.925
94177.43
94403.32
94630
94856.854
95083.243
95308.521
95532.04
95753.159
95971.25
96185.714
96395.981
96601.521
96801.85
96996.535
97185.193
97367.499
97543.184
97712.034
97873.889
98028.641
98176.231
98316.641
98449.895
98576.049
98695.192
98807.438
98912.922
99011.794
99104.221
99190.375
99270.435
99344.584
99413.009
99475.892
99533.41
99585.73
99633.024
99675.5
99713.475
99747.394
99777.746
99805.291
99831.507
99856.147
99876.097
99903.43
99944.572
99889.724
100066.85
88944.469
89128.648
89135.587
89329.603
89355.713
89542.596
89601.319
89772.243
89867.419
90024.659
90150.995
90303.481
90451.238
90608.966
90770.779
90938.764
91112.343
91291.661
91476.652
91667.257
91863.372
92064.852
92271.508
92483.104
92699.353
92919.917
93144.404
93372.372
93603.326
93836.724
94071.978
94308.461
94545.513
94782.448
95018.564
95253.151
95485.501
95714.921
95940.741
96162.323
96379.073
96590.447
96795.954
96995.168
97187.724
97373.325
97551.736
97722.788
97886.373
98042.436
98190.976
98332.036
98465.7
98592.084
98711.331
98823.609
98929.099
99027.995
99120.493
99206.795
99287.098
99361.593
99430.466
99493.901
99552.068
99605.13
99653.239
99696.552
99735.261
99769.645
99800.066
99826.937
99851.077
99873.774
99894.154
99910.761
99937.013
99967.733
99913.667
100101.66
88729.553
88931.377
88936.25
89151.347
89176.337
89383.706
89444.693
89633.553
89737.084
89908.658
90047.364
90212.594
90374.072
90545.274
90721.302
90903.748
91092.216
91286.767
91487.31
91693.731
91905.865
92123.494
92346.344
92574.085
92806.327
93042.623
93282.463
93525.285
93770.468
94017.347
94265.212
94513.32
94760.902
95007.177
95251.359
95492.672
95730.363
95963.712
96192.043
96414.736
96631.233
96841.046
97043.76
97239.039
97426.621
97606.322
97778.029
97941.698
98097.343
98245.037
98384.896
98517.08
98641.775
98759.198
98869.579
98973.161
99070.194
99160.923
99245.587
99324.416
99397.628
99465.421
99527.982
99585.487
99638.096
99685.96
99729.221
99768.02
99802.525
99832.961
99859.575
99882.707
99903.198
99922.059
99938.013
99951.291
99976.268
99995.847
99943.274
100143.73
88557.54
88780.278
88782.362
89022.134
89046.105
89277.712
89341.937
89550.329
89662.252
89847.496
89999.477
90178.037
90354.55
90540.713
90732.618
90931.352
91136.603
91348.324
91566.356
91790.499
92020.489
92256.004
92496.653
92741.982
92991.467
93244.518
93500.484
93758.651
94018.254
94278.483
94538.495
94797.422
95054.387
95308.518
95558.962
95804.897
96045.55
96280.208
96508.226
96729.039
96942.168
97147.225
97343.912
97532.02
97711.429
97882.101
98044.07
98197.439
98342.367
98479.062
98607.768
98728.761
98842.336
98948.803
99048.475
99141.667
99228.683
99309.815
99385.335
99455.493
99520.52
99580.618
99635.968
99686.738
99733.078
99775.13
99813.025
99846.89
99876.862
99903.081
99925.669
99944.903
99961.608
99976.421
99987.998
99998.584
100021.68
100029.35
99979.829
100193.52
88422.67
88669.968
88667.733
88937.249
88958.113
89216.659
89283.992
89511.492
89635.003
89836.288
90005.177
90199.857
90394.401
90598.421
90808.978
91026.735
91251.411
91482.856
91720.821
91964.994
92214.99
92470.349
92730.534
92994.928
93262.843
93533.517
93806.122
94079.773
94353.539
94626.454
94897.535
95165.795
95430.261
95689.992
95944.097
96191.747
96432.191
96664.771
96888.924
97104.195
97310.238
97506.811
97693.782
97871.115
98038.864
98197.168
98346.233
98486.324
98617.753
98740.868
98856.042
98963.663
99064.124
99157.819
99245.134
99326.438
99402.082
99472.389
99537.652
99598.134
99654.068
99705.654
99753.064
99796.457
99835.973
99871.745
99903.894
99932.53
99957.743
99979.572
99998.006
100013.29
100026.18
100036.8
100044.03
100052.47
100072.87
100068.89
100025.45
100251.44
88322.909
88598.566
88591.903
88898.417
88913.358
89200.661
89273.204
89522.68
89662.931
89882.763
90072.24
90285.969
90501.616
90726.606
90958.831
91198.601
91445.606
91699.567
91960.105
92226.76
92498.981
92776.13
93057.479
93342.212
93629.433
93918.173
94207.399
94496.035
94782.969
95067.081
95347.257
95622.411
95891.509
96153.582
96407.75
96653.236
96889.376
97115.631
97331.59
97536.973
97731.625
97915.512
98088.712
98251.402
98403.842
98546.368
98679.37
98803.28
98918.564
99025.701
99125.181
99217.489
99303.102
99382.48
99456.06
99524.252
99587.434
99645.944
99700.084
99750.119
99796.274
99838.74
99877.68
99913.239
99945.549
99974.734
100000.9
100024.14
100044.48
100061.84
100076.1
100087.52
100096.65
100103.06
100106.38
100113.65
100129.87
100114.36
100082.16
100317.85
88260.798
88569.582
88559.865
88903.374
88917.408
89236.886
89320.787
89595.577
89755.803
89996.184
90209.916
90445.922
90685.964
90935.349
91192.565
91457.612
91730.073
92009.503
92295.34
92586.925
92883.489
93184.161
93487.967
93793.841
94100.639
94407.149
94712.113
95014.25
95312.277
95604.935
95891.013
96169.376
96438.982
96698.908
96948.364
97186.707
97413.448
97628.252
97830.94
98021.481
98199.976
98366.651
98521.833
98665.939
98799.453
98922.911
99036.885
99141.966
99238.753
99327.841
99409.81
99485.222
99554.61
99618.478
99677.291
99731.477
99781.422
99827.464
99869.898
99908.978
99944.918
99977.891
100008.05
100035.52
100060.42
100082.88
100102.98
100120.78
100136.24
100149.15
100159.36
100167.1
100172.65
100175.09
100175.47
100182.54
100192.88
100166.12
100151.36
100392.52
88242.872
88591.039
88577.391
88961.353
88979.219
89335.221
89434.179
89736.18
89922.141
90185.981
90428.239
90690.496
90958.697
91236.31
91522.182
91816.029
92117.261
92425.204
92739.05
93057.865
93380.591
93706.052
94032.967
94359.969
94685.624
95008.459
95326.986
95639.734
95945.28
96242.279
96529.492
96805.817
97070.305
97322.186
97560.871
97785.964
97997.255
98194.715
98378.481
98548.836
98706.193
98851.069
98984.063
99105.837
99217.092
99318.55
99410.941
99494.987
99571.389
99640.824
99703.933
99761.321
99813.549
99861.134
99904.546
99944.208
99980.491
100013.72
100044.17
100072.07
100097.62
100120.97
100142.25
100161.59
100179.08
100194.84
100208.93
100221.37
100232.04
100240.65
100247.04
100251.42
100253.67
100252.7
100251.3
100258.49
100262.3
100226.04
100230.87
100474.41
88278.187
88673.195
88655.602
89087.592
89110.45
89506.194
89624.685
89955.779
90173.201
90463.796
90738.944
91031.943
91332.51
91642.604
91961.188
92287.663
92621.159
92960.681
93305.071
93653.024
94003.1
94353.745
94703.313
95050.098
95392.362
95728.375
96056.451
96374.985
96682.493
96977.648
97259.307
97526.538
97778.636
98015.128
98235.772
98440.546
98629.636
98803.404
98962.37
99107.179
99238.576
99357.374
99464.433
99560.635
99646.864
99723.991
99792.862
99854.283
99909.018
99957.784
100001.24
100040.01
100074.63
100105.62
100133.43
100158.44
100181
100201.41
100219.91
100236.7
100251.94
100265.77
100278.31
100289.66
100299.91
100309.15
100317.42
100324.7
100330.78
100335.35
100338.27
100339.68
100339.03
100335.44
100333.47
100340.86
100338
100293.98
100318.4
100563.41
88367.999
88818.742
88797.816
89284.567
89315.795
89755.058
89900.65
90263.383
90519.414
90841.541
91154.72
91483.92
91821.894
92169.402
92525.274
92888.496
93257.781
93631.677
94008.554
94386.631
94764.006
95138.689
95508.636
95871.795
96226.15
96569.775
96900.874
97217.84
97519.286
97804.083
98071.382
98320.62
98551.525
98764.097
98958.587
99135.468
99295.402
99439.201
99567.79
99682.176
99783.413
99872.576
99950.737
100018.94
100078.2
100129.48
100173.68
100211.63
100244.12
100271.85
100295.48
100315.58
100332.67
100347.22
100359.63
100370.26
100379.4
100387.29
100394.16
100400.16
100405.43
100410.08
100414.2
100417.88
100421.22
100424.26
100427.02
100429.44
100431.24
100432.11
100431.99
100430.86
100427.8
100422.52
100421.08
100428.81
100419.46
100369.79
100414.5
100660.21
88517.297
89034.209
89010.546
89559.476
89605.463
90092.2
90274.234
90671.972
90974.427
91334.435
91691.716
92063.599
92444.915
92835.359
93233.358
93637.309
94045.347
94455.422
94865.321
95272.705
95675.152
96070.207
96455.443
96828.52
97187.252
97529.673
97854.089
98159.127
98443.764
98707.339
98949.553
99170.449
99370.38
99549.972
99710.075
99851.721
99976.07
100084.37
100177.92
100258.03
100325.99
100383.06
100430.45
100469.29
100500.65
100525.49
100544.73
100559.18
100569.58
100576.59
100580.79
100582.73
100582.84
100581.54
100579.17
100576.03
100572.35
100568.34
100564.15
100559.93
100555.76
100551.74
100547.94
100544.44
100541.3
100538.57
100536.23
100534.16
100532.06
100529.67
100526.97
100523.71
100518.77
100512.75
100512.67
100520.29
100504.45
100452.68
100519.45
100761.75
88732.83
89328.876
89304.336
89923.943
89991.935
90530.214
90759.971
91197.9
91555.783
91962.174
92371.045
92793.13
93224.311
93663.232
94107.656
94555.237
95003.381
95449.325
95890.178
96322.977
96744.766
97152.677
97544.019
97916.364
98267.63
98596.138
98900.656
99180.418
99435.112
99664.861
99870.171
100051.88
100211.11
100349.16
100467.51
100567.72
100651.37
100720.08
100775.41
100818.85
100851.85
100875.74
100891.76
100901.05
100904.63
100903.44
100898.31
100889.99
100879.14
100866.34
100852.09
100836.83
100820.95
100804.76
100788.56
100772.55
100756.93
100741.84
100727.4
100713.69
100700.79
100688.77
100677.67
100667.57
100658.5
100650.5
100643.51
100637.37
100631.8
100626.6
100621.73
100616.69
100610.41
100604.56
100606.26
100612.55
100590.33
100543.87
100631.74
100862.42
89021.048
89711.641
89689.103
90388.965
90490.239
91085.889
91378.062
91864.734
92288.585
92751.682
93220.466
93700.317
94187.32
94679.037
95172.365
95664.042
96150.582
96628.375
97093.777
97543.226
97973.365
98381.167
98764.046
99119.94
99447.372
99745.462
100013.92
100253.01
100463.46
100646.42
100803.36
100935.98
101046.15
101135.8
101206.93
101261.47
101301.33
101328.29
101344.06
101350.2
101348.14
101339.19
101324.53
101305.21
101282.16
101256.21
101228.09
101198.41
101167.75
101136.55
101105.24
101074.16
101043.59
101013.78
100984.93
100957.19
100930.7
100905.54
100881.78
100859.47
100838.67
100819.4
100801.71
100785.65
100771.24
100758.49
100747.33
100737.56
100728.93
100721.31
100714.59
100708.05
100700.92
100695.94
100699.35
100703.63
100677.59
100641.06
100746.48
100960.31
89389.413
90192.953
90177.914
90973.081
91124.725
91787.806
92159.579
92705.89
93206.347
93736.564
94272.973
94816.838
95363.746
95909.979
96451.259
96983.133
97501.042
98000.488
98477.222
98927.416
99347.828
99735.912
100089.9
100408.81
100692.43
100941.24
101156.34
101339.29
101492.07
101616.88
101716.1
101792.2
101847.6
101884.7
101905.78
101912.97
101908.28
101893.52
101870.34
101840.24
101804.55
101764.43
101720.93
101674.94
101627.26
101578.55
101529.41
101480.32
101431.7
101383.92
101337.26
101291.98
101248.26
101206.27
101166.14
101127.95
101091.77
101057.65
101025.6
100995.66
100967.84
100942.14
100918.61
100897.26
100878.11
100861.14
100846.25
100833.24
100821.92
100812.2
100803.85
100796.03
100788.47
100784.73
100789.61
100791.87
100763.77
100737.36
100857.37
101049.24
89857.474
90800.122
90804.046
91714.429
91934.156
92675.009
93143.759
93760.936
94347.541
94954.451
95564.891
96176.697
96784.106
97381.634
97963.437
98523.738
99057.056
99558.483
100023.9
100450.15
100835.13
101177.78
101478.07
101736.85
101955.72
102136.9
102283.01
102396.96
102481.8
102540.62
102576.46
102592.22
102590.65
102574.28
102545.45
102506.26
102458.61
102404.16
102344.41
102280.65
102214.01
102145.46
102075.84
102005.87
101936.15
101867.19
101799.41
101733.17
101668.76
101606.41
101546.3
101488.59
101433.38
101380.76
101330.78
101283.48
101238.85
101196.91
101157.65
101121.05
101087.1
101055.81
101027.18
101001.21
100977.89
100957.19
100938.97
100923.07
100909.38
100897.82
100888
100879.05
100871.33
100868.97
100874.77
100874.62
100846.02
100831.51
100959.76
101126.43
90457.987
91577.591
91610.883
92655.102
92961.618
93788.162
94372.638
95074.228
95756.485
96448.526
97136.511
97814.755
98475.321
99110.691
99713.648
100277.79
100797.83
101269.82
101691.28
102061.16
102379.76
102648.52
102869.83
103046.77
103182.91
103282.09
103348.23
103385.25
103396.88
103386.69
103357.95
103313.66
103256.53
103188.96
103113.1
103030.81
102943.73
102853.27
102760.65
102666.89
102572.87
102479.33
102386.89
102296.05
102207.24
102120.79
102036.97
101956.01
101878.05
101803.23
101731.62
101663.29
101598.27
101536.57
101478.18
101423.08
101371.23
101322.61
101277.16
101234.86
101195.68
101159.58
101126.55
101096.58
101069.63
101045.65
101024.48
101006.02
100990.21
100976.98
100965.75
100955.76
100948.09
100947.01
100952.99
100950.25
100923.01
100920.12
101051.36
101193.26
91220.595
92553.368
92630.481
93827.956
94255.079
95179.249
95900.98
96703.563
97488.896
98268.255
99027.271
99756.707
100446.7
101088.78
101676.05
102203.58
102668.47
103069.82
103408.52
103686.95
103908.67
104078.03
104199.88
104279.29
104321.36
104331
104312.87
104271.26
104210.09
104132.87
104042.7
103942.34
103834.16
103720.22
103602.29
103481.87
103360.25
103238.5
103117.51
102998.03
102880.67
102765.92
102654.17
102545.75
102440.89
102339.77
102242.52
102149.23
102059.95
101974.71
101893.49
101816.29
101743.06
101673.76
101608.33
101546.69
101488.79
101434.54
101383.89
101336.78
101293.15
101252.97
101216.19
101182.79
101152.7
101125.83
101102.07
101081.34
101063.64
101048.78
101036.13
101025.21
101017.79
101017.75
101023.13
101017.8
100992.93
101001.69
101133.95
101252.23
92174.757
93773.895
93931.465
95299.507
95892.979
96930.799
97806.809
98720.838
99603.642
100453.32
101253.96
101994.61
102666.06
103262.07
103779.37
104217.44
104578.23
104865.58
105084.78
105242
105343.88
105397.16
105408.43
105383.89
105329.28
105249.8
105150.08
105034.18
104905.66
104767.58
104622.56
104472.82
104320.24
104166.4
104012.61
103859.96
103709.34
103561.47
103416.93
103276.18
103139.58
103007.4
102879.83
102757.02
102639.04
102525.94
102417.72
102314.37
102215.84
102122.08
102033.01
101948.54
101868.59
101793.04
101721.81
101654.79
101591.87
101532.96
101477.98
101426.85
101379.5
101335.87
101295.91
101259.55
101226.74
101197.35
101171.31
101148.57
101129.1
101112.63
101098.56
101086.89
101079.79
101080.26
101084.29
101076.81
101056.23
101077.29
101206.18
101301.81
93403.767
95339.579
95622.446
97181.764
97989.123
99149.362
100174.83
101185.12
102128.65
102996.79
103775.82
104458.01
105039.71
105521.3
105906.45
106201.34
106413.84
106552.76
106627.23
106646.23
106618.28
106551.21
106452.07
106327.1
106181.72
106020.59
105847.72
105666.46
105479.63
105289.6
105098.31
104907.36
104718.07
104531.49
104348.47
104169.68
103995.66
103826.79
103663.38
103505.62
103353.67
103207.6
103067.43
102933.15
102804.72
102682.07
102565.1
102453.72
102347.8
102247.21
102151.83
102061.52
101976.14
101895.56
101819.63
101748.22
101681.2
101618.48
101559.93
101505.46
101455
101408.46
101365.78
101326.88
101291.67
101260.06
101231.97
101207.4
101186.26
101168.22
101152.82
101140.51
101133.6
101133.88
101135.97
101127.57
101113.47
101144.36
101264.56
101339.27
95039.94
97391.754
97854.87
99603.879
100660.42
101928.58
103051.37
104091.67
105011.78
105805.44
106468.41
107002.83
107415.27
107715.59
107915.57
108027.89
108065.17
108039.44
107961.73
107841.89
107688.54
107509.08
107309.81
107096
106872.04
106641.55
106407.52
106172.36
105938.02
105706.07
105477.77
105254.1
105035.83
104823.53
104617.64
104418.48
104226.25
104041.08
103863.03
103692.1
103528.25
103371.4
103221.45
103078.27
102941.7
102811.6
102687.8
102570.12
102458.39
102352.43
102252.07
102157.12
102067.42
101982.8
101903.1
101828.16
101757.83
101691.98
101630.5
101573.27
101520.2
101471.19
101426.16
101385.02
101347.69
101314.07
101284.11
101257.79
101234.97
101215.32
101198.59
101185.61
101178.5
101177.85
101177.89
101169.72
101162.44
101199.38
101306.91
101362.66
97274.385
100092.49
100798.37
102688.31
103956.64
105272.25
106375.95
107318.87
108087.98
108689.02
109133.02
109435.76
109615.14
109689.56
109676.68
109592.68
109451.88
109266.61
109047.35
108802.78
108540.08
108265.08
107982.52
107696.16
107409.04
107123.55
106841.55
106564.51
106293.55
106029.52
105773.04
105524.57
105284.4
105052.72
104829.64
104615.17
104409.27
104211.85
104022.8
103841.95
103669.12
103504.13
103346.77
103196.81
103054.05
102918.24
102789.18
102666.64
102550.41
102440.26
102336
102237.41
102144.3
102056.47
101973.76
101895.97
101822.96
101754.58
101690.69
101631.15
101575.87
101524.74
101477.65
101434.52
101395.24
101359.74
101327.96
101299.85
101275.22
101253.8
101235.6
101221.68
101213.76
101211.49
101209.45
101202.2
101201.28
101240.75
101332.57
101371.06
100361.01
103557.17
104571.33
106527.75
107838.02
109007.23
109925.3
110617.01
111100.08
111401.16
111548.2
111568.71
111487.78
111327.38
111106.14
110839.46
110539.88
110217.43
109880.1
109534.14
109184.46
108834.84
108488.2
108146.75
107812.18
107485.72
107168.26
106860.46
106562.72
106275.3
105998.35
105731.88
105475.84
105230.13
104994.59
104769.01
104553.17
104346.84
104149.75
103961.62
103782.2
103611.19
103448.31
103293.3
103145.87
103005.76
102872.7
102746.45
102626.74
102513.35
102406.04
102304.58
102208.77
102118.4
102033.26
101953.18
101877.99
101807.52
101741.61
101680.13
101622.96
101569.97
101521.05
101476.08
101434.97
101397.61
101363.96
101333.9
101307.24
101283.8
101263.87
101248.57
101239.15
101234.65
101230.73
101225.1
101228.96
101267.67
101342.16
101366.99
104559.69
107970.74
109188.71
110882.9
112010.78
112843.29
113379.26
113673.46
113770.52
113713.57
113539.06
113277.26
112952.43
112583.6
112185.53
111769.5
111344.05
110915.6
110488.94
110067.6
109654.17
109250.49
108857.87
108477.2
108109.04
107753.71
107411.36
107081.99
106765.51
106461.74
106170.44
105891.35
105624.17
105368.56
105124.19
104890.71
104667.76
104455.01
104252.09
104058.66
103874.38
103698.9
103531.91
103373.08
103222.1
103078.67
102942.51
102813.34
102690.89
102574.9
102465.14
102361.35
102263.32
102170.83
102083.67
102001.66
101924.6
101852.32
101784.66
101721.47
101662.59
101607.9
101557.27
101510.56
101467.64
101428.41
101392.76
101360.57
101331.66
101306.01
101284.07
101266.88
101255.28
101248.22
101242.71
101238.52
101245.39
101279.57
101337.34
101353.68
109800.28
113174.83
114296.66
115426.98
116040.96
116327
116349.63
116182.32
115879.18
115482.67
115024.31
114527.37
114008.69
113480.4
112951.14
112427.01
111912.24
111409.75
110921.45
110448.6
109991.9
109551.73
109128.17
108721.14
108330.41
107955.67
107596.53
107252.57
106923.33
106608.36
106307.19
106019.32
105744.31
105481.68
105230.98
104991.76
104763.6
104546.06
104338.74
104141.24
103953.18
103774.18
103603.89
103441.96
103288.06
103141.88
103003.1
102871.43
102746.61
102628.36
102516.42
102410.55
102310.52
102216.11
102127.1
102043.29
101964.49
101890.52
101821.2
101756.36
101695.85
101639.51
101587.2
101538.75
101494.03
101452.89
101415.19
101380.78
101349.53
101321.57
101297.4
101277.91
101263.64
101253.81
101246.75
101243.47
101251.53
101280.35
101323.54
101337.16
116033.1
118551.6
119164.78
119448.13
119355.61
119028.33
118545.75
117968.5
117337.21
116679.39
116013.33
115351.04
114700.3
114066.07
113451.35
112857.87
112286.5
111737.5
111210.77
110705.93
110222.47
109759.75
109317.07
108893.74
108489.01
108102.16
107732.5
107379.33
107041.98
106719.82
106412.22
106118.59
105838.37
105571
105315.96
105072.76
104840.9
104619.93
104409.41
104208.9
104018
103836.32
103663.48
103499.13
103342.91
103194.5
103053.6
102919.89
102793.09
102672.94
102559.17
102451.53
102349.78
102253.7
102163.08
102077.7
101997.36
101921.88
101851.07
101784.74
101722.74
101664.89
101611.03
101560.99
101514.61
101471.7
101432.11
101395.65
101362.25
101332.07
101305.63
101283.67
101266.66
101254.28
101245.94
101242.93
101250.54
101274.23
101307.13
101321.18
122673.61
123116.87
122900.39
122352.73
121622.66
120800.19
119941.46
119078.24
118229.06
117404.15
116608.94
115845.98
115116.06
114419.01
113754.03
113120.02
112515.69
111939.71
111390.71
110867.38
110368.44
109892.69
109438.96
109006.19
108593.34
108199.48
107823.69
107465.14
107123.04
106796.64
106485.24
106188.18
105904.83
105634.6
105376.93
105131.28
104897.15
104674.04
104461.5
104259.08
104066.37
103882.95
103708.45
103542.5
103384.74
103234.84
103092.49
102957.38
102829.22
102707.74
102592.66
102483.75
102380.76
102283.47
102191.64
102105.08
102023.57
101946.91
101874.92
101807.41
101744.19
101685.1
101629.96
101578.58
101530.78
101486.36
101445.14
101406.95
101371.7
101339.53
101310.94
101286.65
101267.22
101252.72
101243.2
101240.15
101246.94
101266.1
101292.63
101308.59
126553.39
125928.59
125014.02
123962.68
122879.12
121807.39
120770.17
119776.78
118830.65
117932.04
117079.67
116271.48
115505.11
114778.15
114088.19
113432.96
112810.32
112218.31
111655.07
111118.93
110608.32
110121.84
109658.15
109216.04
108794.41
108392.21
108008.47
107642.32
107292.92
106959.5
106641.31
106337.69
106048
105771.61
105507.97
105256.53
105016.77
104788.21
104570.37
104362.81
104165.1
103976.84
103797.63
103627.12
103464.94
103310.77
103164.27
103025.14
102893.1
102767.87
102649.17
102536.76
102430.4
102329.84
102234.88
102145.3
102060.88
101981.44
101906.75
101836.64
101770.93
101709.42
101651.95
101598.3
101548.28
101501.67
101458.29
101417.98
101380.6
101346.2
101315.32
101288.91
101267.83
101251.93
101240.76
101236.81
101243.1
101260.14
101283.63
101301.21
104022.74
103995.53
104041.83
104088.73
104123.51
104132.61
104114.64
104084.49
104048.3
104002.81
103943.79
103871.76
103790.41
103704.52
103615.03
103522.01
103425.74
103326.68
103225.26
103121.83
103016.77
102910.39
102803.02
102694.94
102586.42
102477.7
102369.01
102260.57
102152.57
102045.2
101938.63
101833.03
101728.55
101625.34
101523.54
101423.3
101324.75
101228.01
101133.22
101040.49
100949.95
100861.73
100775.93
100692.69
100612.11
100534.31
100459.4
100387.49
100318.67
100253.05
100190.72
100131.75
100076.22
100024.19
99975.698
99930.782
99889.458
99851.729
99817.586
99787.01
99759.974
99736.455
99716.436
99699.93
99686.962
99677.641
99671.913
99670.173
99671.506
99677.901
99684.575
99700.878
99709.193
99739.811
99745.359
99790.143
99798.905
99828.104
99885.796
99830.201
103361.3
103355.71
103370.99
103388.54
103387.66
103380.67
103370.63
103354.11
103326.11
103292.26
103251.35
103205.22
103153.12
103096.21
103034.47
102968.62
102898.87
102825.59
102749.07
102669.65
102587.61
102503.25
102416.87
102328.73
102239.1
102148.26
102056.45
101963.92
101870.91
101777.65
101684.36
101591.27
101498.56
101406.45
101315.13
101224.79
101135.61
101047.76
100961.42
100876.75
100793.91
100713.06
100634.36
100557.94
100483.96
100412.55
100343.84
100277.96
100215.03
100155.14
100098.41
100044.91
99994.726
99947.912
99904.514
99864.56
99828.062
99795.015
99765.404
99739.2
99716.369
99696.875
99680.692
99667.816
99658.257
99652.104
99649.311
99650.238
99654.076
99662.647
99671.549
99689.439
99699.775
99731.287
99738.431
99784.549
99793.65
99826.78
99881.044
99831.107
102946.53
102932.09
102905.53
102877.63
102851.21
102826.71
102796.04
102765.89
102732.14
102697.77
102659.29
102619.36
102575.73
102529.93
102480.96
102429.4
102375.04
102318.05
102258.49
102196.45
102132.07
102065.47
101996.81
101926.24
101853.93
101780.05
101704.79
101628.34
101550.89
101472.65
101393.83
101314.61
101235.22
101155.85
101076.72
100998.02
100919.97
100842.75
100766.57
100691.62
100618.09
100546.16
100476.02
100407.83
100341.77
100278
100216.67
100157.92
100101.89
100048.7
99998.453
99951.254
99907.178
99866.289
99828.632
99794.234
99763.102
99735.23
99710.596
99689.167
99670.901
99655.756
99643.696
99634.704
99628.779
99625.988
99626.291
99630.021
99636.452
99647.308
99658.461
99678.089
99690.323
99723.01
99731.531
99779.066
99788.446
99825.32
99876.571
99831.694
102382.04
102360.01
102331.29
102300.04
102269.1
102241.47
102209.63
102180.59
102147.39
102116.15
102081.37
102047.38
102010.54
101973.35
101933.97
101893.3
101850.8
101806.63
101760.65
101712.86
101663.26
101611.85
101558.67
101503.75
101447.17
101389.01
101329.37
101268.37
101206.14
101142.83
101078.6
101013.62
100948.05
100882.1
100815.94
100749.78
100683.82
100618.26
100553.3
100489.15
100426.01
100364.08
100303.56
100244.65
100187.52
100132.37
100079.35
100028.63
99980.358
99934.667
99891.676
99851.49
99814.194
99779.853
99748.516
99720.208
99694.936
99672.689
99653.442
99637.158
99623.793
99613.298
99605.63
99600.763
99598.682
99599.438
99602.989
99609.646
99618.755
99631.962
99645.366
99666.848
99680.888
99714.955
99724.69
99773.707
99783.262
99823.758
99872.487
99832.57
101677.5
101661.49
101645.12
101626.03
101605.19
101588.65
101566.27
101548.3
101524.95
101504.96
101480.47
101457.93
101432.1
101406.86
101379.46
101351.29
101321.51
101290.43
101257.83
101223.71
101188.02
101150.75
101111.88
101071.42
101029.4
100985.85
100940.84
100894.42
100846.68
100797.73
100747.68
100696.67
100644.82
100592.3
100539.28
100485.93
100432.44
100378.99
100325.79
100273.04
100220.94
100169.69
100119.52
100070.6
100023.15
99977.344
99933.369
99891.394
99851.574
99814.055
99778.962
99746.403
99716.468
99689.224
99664.719
99642.979
99624.008
99607.792
99594.302
99583.501
99575.34
99569.766
99566.732
99566.202
99568.152
99572.614
99579.547
99589.237
99601.1
99616.718
99632.365
99655.779
99671.596
99707.164
99718.013
99768.53
99778.171
99822.175
99868.618
99833.701
100973.82
100967.7
100962.81
100957.08
100947.4
100942.91
100931.16
100925.31
100912.61
100904.54
100890.78
100879.94
100865.11
100851.54
100835.59
100819.18
100801.16
100782.03
100761.55
100739.74
100716.57
100692
100666.01
100638.61
100609.78
100579.54
100547.91
100514.93
100480.65
100445.13
100408.46
100370.72
100332.04
100292.53
100252.34
100211.61
100170.5
100129.2
100087.88
100046.74
100005.96
99965.762
99926.331
99887.869
99850.572
99814.631
99780.226
99747.531
99716.704
99687.892
99661.22
99636.799
99614.715
99595.036
99577.807
99563.051
99550.769
99540.943
99533.541
99528.522
99525.835
99525.425
99527.238
99531.233
99537.376
99545.684
99556.115
99568.928
99583.61
99601.675
99619.632
99644.944
99662.564
99699.667
99711.549
99763.578
99773.195
99820.635
99864.939
99835.099
100335.31
100335.71
100336.46
100339.49
100337.27
100341.68
100337.4
100340.74
100335.76
100337.01
100331.78
100330.92
100325.25
100321.1
100314.25
100307.47
100299.24
100290.23
100280.12
100268.94
100256.63
100243.15
100228.46
100212.56
100195.41
100177
100157.35
100136.47
100114.38
100091.12
100066.75
100041.34
100014.96
99987.717
99959.722
99931.101
99901.993
99872.55
99842.936
99813.322
99783.886
99754.814
99726.292
99698.507
99671.645
99645.887
99621.407
99598.373
99576.938
99557.241
99539.403
99523.528
99509.697
99497.973
99488.393
99480.975
99475.714
99472.587
99471.558
99472.581
99475.603
99480.565
99487.41
99496.088
99506.56
99518.827
99532.849
99548.858
99566.409
99586.941
99607.199
99634.419
99653.865
99692.497
99705.38
99758.91
99768.374
99819.202
99861.265
99836.799
99763.748
99769.149
99773.1
99781.362
99782.905
99793.142
99793.138