/*--------------------------------*- C++ -*----------------------------------*\
  =========                 |
  \\      /  F ield         | OpenFOAM: The Open Source CFD Toolbox
   \\    /   O peration     | Website:  https://openfoam.org
    \\  /    A nd           | Version:  12
     \\/     M anipulation  |
\*---------------------------------------------------------------------------*/
FoamFile
{
    format      ascii;
    class       volScalarField;
    location    "0.054";
    object      T;
}
// * * * * * * * * * * * * * * * * * * * * * * * * * * * * * * * * * * * * * //

dimensions      [0 0 0 1 0 0 0];

internalField   nonuniform List<scalar> 
16000
(
295.24583
286.86755
290.10823
288.34888
289.44654
288.94267
289.36167
289.25186
289.44695
289.48037
289.60033
289.68432
289.78873
289.89053
289.99823
290.10918
290.22418
290.3431
290.46598
290.59284
290.72366
290.85842
290.99708
291.13956
291.28578
291.4356
291.5889
291.74549
291.90516
292.06769
292.23281
292.40022
292.5696
292.74061
292.91285
293.08594
293.25944
293.43291
293.60589
293.77792
293.94852
294.11722
294.28353
294.44699
294.60715
294.76357
294.91585
295.06358
295.20642
295.34405
295.47619
295.60263
295.72319
295.83778
295.94637
296.04898
296.14572
296.23676
296.32234
296.40283
296.47866
296.55042
296.61883
296.68485
296.74967
296.81472
296.88174
296.9527
297.02965
297.11414
297.20629
297.30362
297.40038
297.48867
297.56101
297.60438
297.60217
297.61998
297.54563
297.65432
294.95808
286.4776
289.88547
288.0074
289.17199
288.63134
289.08505
288.96612
289.17533
289.21425
289.34108
289.4339
289.54541
289.65597
289.77201
289.89189
290.01601
290.14433
290.27688
290.41366
290.55462
290.69973
290.84891
291.00206
291.15905
291.31973
291.48389
291.65134
291.8218
291.995
292.17061
292.34829
292.52766
292.70832
292.88982
293.07173
293.25355
293.43482
293.61503
293.79369
293.9703
294.14436
294.31541
294.48297
294.64661
294.80591
294.96049
295.11
295.25412
295.39259
295.52518
295.65173
295.77213
295.88634
295.99436
296.09628
296.19225
296.28247
296.36722
296.44687
296.52189
296.59288
296.66059
296.72595
296.79015
296.85458
296.92088
296.99086
297.06632
297.14848
297.23712
297.32953
297.42012
297.50169
297.56633
297.5995
297.59882
297.59514
297.52978
297.6606
294.68371
286.11398
289.61959
287.70769
288.91198
288.36097
288.82842
288.7171
288.93117
288.98179
289.11406
289.21737
289.33691
289.45714
289.58269
289.71254
289.84689
289.98574
290.12908
290.27688
290.42908
290.58561
290.74634
290.91115
291.07985
291.25224
291.42808
291.6071
291.78898
291.97337
292.1599
292.34815
292.53767
292.728
292.91864
293.10909
293.29881
293.48728
293.67397
293.85835
294.03991
294.21815
294.39259
294.56279
294.72834
294.88885
295.04399
295.19345
295.337
295.47441
295.60556
295.73032
295.84868
295.96064
296.0663
296.16578
296.25929
296.34707
296.42946
296.50684
296.57971
296.6487
296.71457
296.77827
296.84094
296.90395
296.96882
297.03719
297.11057
297.1898
297.27427
297.36104
297.44476
297.51874
297.57438
297.598
297.59161
297.57432
297.51538
297.67133
294.43112
285.78098
289.40389
287.44379
288.68394
288.1225
288.60389
288.50184
288.72126
288.78513
288.92386
289.03886
289.16775
289.29885
289.43517
289.57619
289.72198
289.87252
290.02777
290.18768
290.35215
290.52106
290.69426
290.87156
291.05274
291.23754
291.42564
291.61671
291.81036
292.00618
292.2037
292.40244
292.60189
292.80149
293.00069
293.19893
293.39562
293.59021
293.78212
293.97081
294.15577
294.33651
294.51257
294.68355
294.84907
295.00881
295.16249
295.3099
295.45086
295.58524
295.71298
295.83406
295.94854
296.0565
296.15809
296.25352
296.34305
296.42696
296.50561
296.57944
296.64897
296.71484
296.77781
296.83884
296.89904
296.95972
297.02227
297.08816
297.15862
297.23412
297.31368
297.39421
297.47074
297.53687
297.5833
297.59838
297.58321
297.5559
297.50237
297.68553
294.20072
285.48277
289.2051
287.22513
288.50014
287.92432
288.41599
288.32769
288.55103
288.63078
288.77673
288.90474
289.04434
289.18742
289.33574
289.48909
289.64745
289.81078
289.97903
290.15211
290.32988
290.51217
290.69879
290.88947
291.08394
291.28184
291.4828
291.68639
291.89214
292.09954
292.30803
292.51706
292.72601
292.93427
293.14121
293.34621
293.54865
293.74793
293.94347
294.13472
294.32119
294.50242
294.67799
294.84756
295.01082
295.16753
295.3175
295.46061
295.59676
295.72594
295.84818
295.96356
296.07221
296.17431
296.27009
296.3598
296.44377
296.52233
296.59588
296.66487
296.72985
296.79146
296.8505
296.90789
296.96472
297.0222
297.08164
297.14429
297.21111
297.28223
297.3563
297.43013
297.49906
297.55694
297.59388
297.59908
297.57611
297.54302
297.49178
297.70156
293.99644
285.2264
289.03668
287.04031
288.34053
287.77295
288.27576
288.201
288.42783
288.52462
288.67865
288.82045
288.97189
289.12788
289.28927
289.45601
289.62806
289.80535
289.98777
290.17519
290.36742
290.56422
290.7653
290.97034
291.17894
291.39067
291.60505
291.82153
292.03954
292.25846
292.47765
292.69643
292.91411
293.13001
293.34344
293.55371
293.76019
293.96226
294.15935
294.35095
294.53658
294.71586
294.88845
295.05408
295.21254
295.3637
295.50748
295.64386
295.77288
295.89462
296.00921
296.11685
296.21775
296.31218
296.40044
296.48285
296.55978
296.63161
296.69877
296.76173
296.82106
296.8774
296.93154
296.9844
297.037
297.09049
297.14602
297.20471
297.26724
297.33341
297.40152
297.46828
297.52928
297.57849
297.60561
297.60093
297.57153
297.53278
297.4859
297.71756
293.82146
285.01394
288.90124
286.89178
288.21271
287.6702
288.17304
288.12465
288.35103
288.4686
288.63171
288.78805
288.95274
289.12291
289.29884
289.48052
289.66784
289.86069
290.05888
290.2622
290.47036
290.68304
290.89984
291.12032
291.34396
291.57021
291.79845
292.02802
292.25822
292.48831
292.71753
292.94511
293.17029
293.3923
293.6104
293.82391
294.03217
294.23458
294.43061
294.61981
294.8018
294.97627
295.14299
295.30182
295.45267
295.59554
295.73049
295.85762
295.97709
296.08911
296.19393
296.29183
296.38313
296.46816
296.5473
296.62093
296.68946
296.7533
296.81291
296.86876
296.92144
296.97159
297.01998
297.06749
297.1151
297.16386
297.21482
297.2689
297.32656
297.38731
297.44913
297.50857
297.5614
297.6016
297.61885
297.60488
297.56961
297.52663
297.48526
297.736
293.67391
284.84346
288.79516
286.7778
288.11566
287.59994
288.10201
288.06491
288.32265
288.46131
288.63605
288.80879
288.98915
289.17572
289.36847
289.56732
289.77211
289.98262
290.19859
290.41968
290.64549
290.87558
291.10941
291.34639
291.58586
291.82712
292.06939
292.31188
292.55374
292.79411
293.03213
293.26693
293.49768
293.72358
293.94387
294.15787
294.36497
294.56462
294.75638
294.93991
295.11495
295.28132
295.43895
295.58784
295.72807
295.85978
295.98317
296.09849
296.20604
296.30614
296.39915
296.48545
296.56543
296.63951
296.70811
296.77166
296.8306
296.88537
296.93642
296.98425
297.02944
297.07261
297.11452
297.15601
297.19798
297.24141
297.2872
297.33613
297.38846
297.44341
297.49868
297.55072
297.59532
297.62627
297.63347
297.61075
297.57026
297.52501
297.49153
297.75748
293.54898
284.71304
288.7217
286.6986
288.06623
287.59725
288.09488
288.12253
288.34715
288.50673
288.69666
288.88833
289.08733
289.29304
289.50529
289.72391
289.94864
290.17915
290.41505
290.65588
290.90108
291.15003
291.40203
291.65632
291.91207
292.16838
292.42432
292.67893
292.93123
293.18025
293.42501
293.6646
293.89815
294.12484
294.34398
294.55492
294.75715
294.95025
295.13392
295.30797
295.47231
295.62696
295.77201
295.90766
296.03416
296.15181
296.26098
296.36204
296.45544
296.54159
296.62096
296.69401
296.7612
296.823
296.87987
296.93227
296.98066
297.02548
297.06719
297.10628
297.14332
297.17891
297.21377
297.24869
297.28451
297.32211
297.36229
297.40565
297.45228
297.50116
297.54976
297.59446
297.63095
297.65269
297.65003
297.61922
297.5735
297.52788
297.50617
297.78118
293.44593
284.62487
288.68657
286.66853
288.07141
287.63986
288.13414
288.18096
288.42802
288.61374
288.8224
289.03561
289.25625
289.484
289.71859
289.95971
290.20696
290.45986
290.71786
290.98029
291.24642
291.5154
291.78634
292.05824
292.33008
292.60075
292.86916
293.13418
293.39471
293.64967
293.89806
294.13892
294.37142
294.59481
294.80848
295.01193
295.20481
295.3869
295.55809
295.71842
295.86801
296.0071
296.136
296.2551
296.36484
296.46569
296.55816
296.64276
296.72004
296.79052
296.85473
296.9132
296.96643
297.01493
297.05918
297.09965
297.13679
297.17104
297.20285
297.23271
297.26114
297.28872
297.31614
297.34412
297.37344
297.40487
297.43911
297.47663
297.51733
297.55997
297.60189
297.63942
297.66805
297.68088
297.66914
297.63145
297.58048
297.53364
297.5303
297.80671
293.36838
284.58678
288.69588
286.75837
288.13446
287.74232
288.22892
288.32571
288.57747
288.79094
289.02239
289.26025
289.50586
289.75886
290.01886
290.28536
290.5578
290.83547
291.11758
291.40323
291.69142
291.98107
292.271
292.55998
292.84674
293.13001
293.40849
293.68093
293.94615
294.20304
294.45059
294.68793
294.91431
295.12917
295.33207
295.52275
295.7011
295.86716
296.02111
296.16323
296.29392
296.41365
296.52295
296.62242
296.71266
296.7943
296.86798
296.93432
296.99394
297.04743
297.09537
297.13832
297.17681
297.21135
297.24241
297.27047
297.29596
297.31929
297.34091
297.36126
297.38084
297.4002
297.41996
297.4408
297.46342
297.4885
297.51664
297.54817
297.58282
297.61919
297.65451
297.68504
297.70602
297.71043
297.69083
297.64786
297.59411
297.54889
297.56182
297.83359
293.32273
284.61216
288.7577
286.89587
288.24394
287.91404
288.3941
288.53491
288.80448
289.04833
289.30694
289.5731
289.84736
290.12913
290.41783
290.71274
291.013
291.31763
291.62554
291.93549
292.24616
292.55616
292.86403
293.16827
293.46738
293.7599
294.04443
294.31964
294.58434
294.83749
295.07821
295.30579
295.51975
295.71976
295.90571
296.07767
296.23586
296.38063
296.51249
296.63202
296.73988
296.83677
296.92345
297.00067
297.06919
297.12976
297.1831
297.2299
297.27083
297.30652
297.33755
297.36449
297.38786
297.40816
297.42584
297.44135
297.45508
297.46743
297.4788
297.48961
297.50031
297.51141
297.52348
297.53714
297.55302
297.57172
297.59371
297.61923
297.64784
297.67801
297.70688
297.73055
297.744
297.74057
297.71448
297.66766
297.61195
297.57052
297.59907
297.8617
293.31409
284.70692
288.88265
287.08583
288.41657
288.16152
288.63768
288.82761
289.11946
289.397
289.6876
289.98639
290.29345
290.60787
290.92879
291.25511
291.58562
291.91894
292.25355
292.58785
292.92015
293.24869
293.57172
293.88751
294.19437
294.49073
294.77517
295.04643
295.30344
295.54539
295.77166
295.98192
296.17603
296.3541
296.51641
296.66344
296.7958
296.91422
297.01951
297.11254
297.19422
297.26547
297.32718
297.38026
297.42556
297.46388
297.49599
297.52262
297.54443
297.56204
297.57603
297.58693
297.59524
297.60141
297.60586
297.60898
297.61115
297.61271
297.61402
297.61546
297.61744
297.62043
297.62494
297.63154
297.64077
297.65315
297.66908
297.68865
297.71131
297.73541
297.75799
297.77491
297.78103
297.77046
297.73928
297.69004
297.6331
297.59594
297.64499
297.89081
293.34461
284.87855
289.07578
287.36079
288.66332
288.49281
288.97028
289.21224
289.53436
289.85019
290.17831
290.51478
290.8593
291.21051
291.56706
291.92741
292.2898
292.65237
293.01315
293.37006
293.72103
294.06398
294.3969
294.7179
295.02523
295.3174
295.59311
295.85138
296.09151
296.31308
296.516
296.7004
296.86669
297.01548
297.14754
297.26379
297.36523
297.45293
297.528
297.59155
297.64465
297.68838
297.72373
297.75166
297.77306
297.78875
297.79949
297.80597
297.80883
297.80865
297.80596
297.80124
297.79493
297.78743
297.77912
297.77032
297.76137
297.75255
297.7442
297.73663
297.73023
297.7254
297.72262
297.72236
297.72513
297.73136
297.74136
297.7551
297.77192
297.79008
297.80653
297.81696
297.81627
297.79954
297.76463
297.71452
297.65823
297.62666
297.70485
297.92288
293.41906
285.14016
289.34071
287.72256
288.99728
288.91951
289.40573
289.704
290.0649
290.42502
290.79688
291.17662
291.56335
291.95509
292.34989
292.74556
293.13974
293.53001
293.91386
294.28879
294.65236
295.00226
295.33639
295.65289
295.95022
296.22719
296.48298
296.71712
296.92955
297.1205
297.29053
297.44042
297.57118
297.68396
297.78002
297.86068
297.92728
297.98116
298.02363
298.05594
298.07927
298.09474
298.10338
298.10613
298.10385
298.09731
298.08723
298.07423
298.05888
298.0417
298.02313
298.0036
297.98346
297.96307
297.94273
297.92271
297.90329
297.88471
297.86725
297.85118
297.83685
297.8246
297.81486
297.80806
297.80462
297.8049
297.80912
297.81714
297.8282
297.84051
297.85099
297.85538
297.84883
297.82733
297.79
297.74034
297.6876
297.66633
297.75929
297.95504
293.54189
285.51016
289.6742
288.18557
289.43148
289.45696
289.96227
290.32267
290.73205
291.14361
291.56567
291.99396
292.42676
292.86135
293.29498
293.72472
294.14755
294.56043
294.96036
295.34449
295.71024
296.05531
296.37783
296.67636
296.94995
297.19811
297.42083
297.61848
297.79184
297.94196
298.07014
298.17785
298.26666
298.33822
298.39416
298.43611
298.46562
298.48419
298.4932
298.49395
298.48761
298.47527
298.45789
298.43635
298.41142
298.3838
298.35408
298.32282
298.29047
298.25747
298.22419
298.19095
298.15806
298.12578
298.09434
298.06397
298.03489
298.00729
297.98139
297.95743
297.9357
297.9165
297.90021
297.8872
297.87782
297.87236
297.87094
297.87333
297.87869
297.88523
297.88997
297.8889
297.87765
297.85294
297.81482
297.76733
297.72005
297.70919
297.81044
297.98971
293.71776
286.01784
290.08174
288.76759
289.98733
290.12837
290.6657
291.09531
291.56285
292.03288
292.51061
292.99112
293.4716
293.94839
294.41782
294.87613
295.31958
295.74464
296.14804
296.52696
296.87908
297.20268
297.49665
297.7605
297.99432
298.19874
298.37482
298.52399
298.64795
298.74857
298.82786
298.88784
298.93054
298.9579
298.9718
298.97398
298.96609
298.9496
298.92587
298.89612
298.86143
298.82278
298.78101
298.73687
298.69101
298.644
298.59633
298.54842
298.50064
298.45332
298.40673
298.36112
298.3167
298.27368
298.23222
298.19249
298.15464
298.11883
298.08523
298.05404
298.02549
297.99985
297.97744
297.95856
297.94352
297.93252
297.92558
297.92241
297.92216
297.92313
297.92253
297.9167
297.90182
297.87552
297.83872
297.79513
297.7535
297.75172
297.8588
298.01817
293.95797
286.71034
290.6074
289.49972
290.69559
290.965
291.54854
292.05424
292.5883
293.12244
293.65906
294.19232
294.71797
295.23121
295.72734
296.20186
296.65062
297.07008
297.45734
297.81034
298.1278
298.40929
298.6551
298.8662
299.0441
299.19074
299.30837
299.3994
299.46637
299.51181
299.53819
299.54787
299.54309
299.5259
299.4982
299.46169
299.41792
299.36825
299.31388
299.25588
299.19518
299.13256
299.06872
299.00426
298.93966
298.87537
298.81174
298.74908
298.68765
298.62766
298.56932
298.51277
298.45817
298.40563
298.35527
298.3072
298.26152
298.21835
298.17781
298.14006
298.10528
298.07372
298.04561
298.02122
298.00079
297.98444
297.97214
297.96354
297.95787
297.95368
297.94843
297.93868
297.92122
297.89497
297.86149
297.82277
297.78643
297.79233
297.90016
298.03857
294.2891
287.57547
291.27781
290.41927
291.59406
292.00167
292.64702
293.23546
293.8424
294.44346
295.03781
295.61829
296.17902
296.7141
297.21823
297.68683
298.11631
298.50415
298.84895
299.15039
299.40911
299.62662
299.80507
299.9471
300.0557
300.13402
300.18526
300.21259
300.21902
300.20742
300.18043
300.14047
300.08972
300.03012
299.96341
299.89111
299.81453
299.73482
299.65297
299.56983
299.48612
299.40243
299.31929
299.23711
299.15624
299.07697
298.99954
298.92413
298.8509
298.77998
298.71146
298.64544
298.58199
298.52117
298.46304
298.40765
298.35506
298.30536
298.25862
298.21497
298.17456
298.13756
298.10418
298.07463
298.04909
298.02763
298.01018
297.99641
297.98571
297.97689
297.96768
297.9549
297.93611
297.91153
297.8826
297.84875
297.81711
297.82838
297.93353
298.05136
294.7514
288.54938
292.13626
291.56189
292.72663
293.28017
294.00395
294.6808
295.36225
296.02584
296.66706
297.27748
297.8502
298.3793
298.86022
299.2899
299.66686
299.99104
300.26368
300.48706
300.66427
300.79896
300.89511
300.95681
300.98815
300.99307
300.97528
300.93821
300.88498
300.81841
300.74099
300.65492
300.56212
300.46426
300.36276
300.25884
300.15355
300.04776
299.94221
299.8375
299.73414
299.63254
299.53302
299.43585
299.34123
299.24932
299.16024
299.07406
298.99087
298.91068
298.83354
298.75946
298.68844
298.62051
298.55567
298.49393
298.43531
298.37986
298.32763
298.2787
298.23319
298.19123
298.15299
298.11864
298.0883
298.06202
298.03974
298.02122
298.00597
297.99296
297.98022
297.96525
297.94664
297.92517
297.90097
297.87152
297.84443
297.85967
297.95959
298.06045
295.40059
289.80739
293.22963
292.97936
294.15384
294.85858
295.67187
296.43485
297.17947
297.88504
298.54437
299.14922
299.69385
300.17459
300.58991
300.94031
301.22794
301.4563
301.62984
301.7536
301.8329
301.87313
301.87946
301.85683
301.80975
301.74234
301.65826
301.56076
301.45265
301.3364
301.2141
301.08754
300.95825
300.8275
300.69636
300.56573
300.43632
300.30874
300.18347
300.06088
299.94128
299.82489
299.71188
299.60236
299.49642
299.39409
299.29539
299.20031
299.10885
299.02096
298.93661
298.85576
298.77838
298.70441
298.63384
298.56663
298.50279
298.4423
298.38522
298.33158
298.28147
298.235
298.19229
298.15348
298.11867
298.08792
298.06119
298.03835
298.01899
298.00218
297.98634
297.96993
297.95259
297.93489
297.91532
297.89039
297.86875
297.88837
297.98101
298.06626
296.294
291.40898
294.64335
294.75109
295.95444
296.80424
297.69846
298.52348
299.29522
299.99687
300.62214
301.16638
301.62834
302.00943
302.3133
302.5453
302.71184
302.81996
302.87683
302.88948
302.86456
302.80818
302.72584
302.62245
302.50226
302.36896
302.22573
302.07524
301.91975
301.76117
301.60107
301.44075
301.28129
301.12354
300.96823
300.81589
300.66698
300.52183
300.3807
300.24375
300.11111
299.98285
299.85901
299.73957
299.6245
299.51376
299.40728
299.30497
299.20676
299.11256
299.02227
298.93581
298.8531
298.77406
298.69863
298.62674
298.55837
298.4935
298.43212
298.37428
298.32003
298.26944
298.22263
298.1797
298.14075
298.10585
298.07503
298.04822
298.02513
298.005
297.9867
297.96941
297.95349
297.9394
297.92466
297.90541
297.89069
297.91302
297.99873
298.06481
297.41563
293.47868
296.48287
296.96077
298.19501
299.16115
300.09127
300.91839
301.64895
302.27431
302.79447
303.21237
303.53411
303.76784
303.92293
304.00922
304.03647
304.01391
303.95003
303.85243
303.72779
303.58186
303.41956
303.24504
303.06178
302.87265
302.68005
302.48591
302.29184
302.09911
301.90876
301.7216
301.53828
301.35929
301.18501
301.0157
300.85156
300.6927
300.53919
300.39103
300.24821
300.11067
299.97832
299.85107
299.7288
299.61139
299.4987
299.3906
299.28696
299.18763
299.09249
299.00141
298.91428
298.83099
298.75144
298.67556
298.60328
298.53457
298.46941
298.4078
298.3498
298.29546
298.24486
298.19812
298.15532
298.11656
298.08192
298.05141
298.02483
298.00165
297.98122
297.96341
297.94894
297.93799
297.92772
297.91487
297.90844
297.93627
298.00911
298.0565
298.93786
296.1291
298.8439
299.66202
300.87187
301.89878
302.77568
303.50749
304.10327
304.56698
304.90905
305.14197
305.27957
305.33583
305.32408
305.25657
305.14416
304.99627
304.82091
304.62482
304.41357
304.19173
303.96304
303.73052
303.49658
303.26317
303.03183
302.80376
302.57991
302.36099
302.14755
301.93998
301.73858
301.54351
301.35489
301.17276
300.9971
300.82786
300.66496
300.50828
300.35768
300.21302
300.07413
299.94084
299.81296
299.69033
299.57275
299.46005
299.35206
299.2486
299.14951
299.05464
298.96384
298.87698
298.79395
298.71464
298.63898
298.5669
298.49838
298.4334
298.37199
298.31421
298.26011
298.2098
298.16338
298.12097
298.0827
298.04864
298.0187
297.99265
297.97033
297.95214
297.93886
297.93028
297.92378
297.91761
297.92011
297.95074
298.01126
298.04276
300.90639
299.43053
301.72333
302.83006
304.00963
304.8705
305.57356
306.09739
306.46446
306.69328
306.80506
306.82
306.75669
306.63147
306.45829
306.24881
306.01256
305.75727
305.48914
305.21308
304.93297
304.65183
304.37204
304.09541
303.82334
303.55689
303.29684
303.04376
302.79805
302.55997
302.32967
302.10722
301.89263
301.68583
301.48672
301.29519
301.11106
300.93417
300.76431
300.60127
300.44485
300.29482
300.15095
300.01303
299.88082
299.75412
299.6327
299.51635
299.40487
299.29806
299.19575
299.09774
299.00388
298.91402
298.82802
298.74576
298.66715
298.59211
298.52059
298.45257
298.38806
298.32709
298.26974
298.21608
298.16623
298.12033
298.07854
298.04099
298.00775
297.97889
297.95472
297.93598
297.92338
297.9163
297.91249
297.91158
297.92042
297.95318
298.00601
298.03053
303.34796
303.36938
305.36788
306.33679
307.227
307.83465
308.23828
308.45914
308.53359
308.49131
308.35907
308.15899
307.90909
307.62369
307.31398
306.98865
306.65434
306.31612
305.97781
305.64228
305.31168
304.98756
304.67108
304.36302
304.06393
303.77417
303.49393
303.22329
302.96224
302.7107
302.46855
302.23561
302.01169
301.79656
301.58997
301.39169
301.20144
301.01896
300.84398
300.67623
300.51544
300.36135
300.21368
300.07217
299.93659
299.80666
299.68217
299.56287
299.44854
299.33897
299.23395
299.1333
299.03683
298.94438
298.8558
298.77095
298.68973
298.61204
298.53782
298.46703
298.39967
298.33577
298.27537
298.21857
298.16546
298.11621
298.071
298.03002
297.99353
297.96185
297.93561
297.91567
297.90258
297.89573
297.89367
297.89701
297.91189
297.94669
297.99521
298.01916
306.40585
307.78692
309.10781
309.80506
310.27942
310.48632
310.50786
310.38579
310.16069
309.86285
309.51563
309.13643
308.73807
308.32992
307.91876
307.50947
307.1055
306.70931
306.32258
305.94645
305.58163
305.22856
304.88745
304.55836
304.2412
303.93584
303.64207
303.35962
303.08822
302.82755
302.57729
302.33713
302.10672
301.88573
301.67384
301.4707
301.27599
301.08939
300.91058
300.73926
300.57511
300.41783
300.26715
300.12277
299.98442
299.85185
299.72478
299.60298
299.48622
299.37426
299.2669
299.16392
299.06514
298.97039
298.87949
298.79231
298.70873
298.62863
298.55194
298.47861
298.40862
298.34199
298.27876
298.21902
298.16288
298.11047
298.06201
298.01775
297.97804
297.94345
297.91478
297.89295
297.87852
297.87125
297.87064
297.87792
297.89752
297.93348
297.97878
298.00668
310.34763
312.12216
312.65712
312.84022
312.78293
312.54677
312.19382
311.76635
311.29442
310.79866
310.29306
309.78702
309.28682
308.79656
308.31887
307.85536
307.40697
306.97415
306.55704
306.15554
305.76942
305.39835
305.04192
304.69972
304.37127
304.05611
303.75378
303.46381
303.18575
302.91914
302.66355
302.41857
302.18377
301.95876
301.74315
301.53656
301.33863
301.149
300.96732
300.79327
300.62652
300.46674
300.31365
300.16694
300.02632
299.89153
299.76231
299.63839
299.51953
299.4055
299.29609
299.19108
299.09026
298.99347
298.90053
298.81128
298.72559
298.64335
298.56445
298.48884
298.41648
298.34739
298.28161
298.21922
298.16034
298.10513
298.05377
298.00655
297.96387
297.92637
297.89501
297.87085
297.85472
297.84687
297.84734
297.85724
297.87958
297.91607
297.96042
297.99481
315.29921
315.66186
315.38638
315.01476
314.48942
313.89407
313.264
312.62472
311.9903
311.36932
310.7665
310.18438
309.62413
309.08607
308.56999
308.07542
307.60168
307.14801
306.71361
306.29767
305.89941
305.51803
305.15279
304.80299
304.46794
304.147
303.83956
303.54504
303.26289
302.99258
302.73361
302.48551
302.24782
302.0201
301.80195
301.59295
301.39273
301.2009
301.01711
300.84101
300.67227
300.51057
300.35558
300.20702
300.06458
299.928
299.797
299.67132
299.55072
299.43496
299.32381
299.21707
299.11452
299.01598
298.92128
298.83025
298.74275
298.65866
298.57786
298.50028
298.42587
298.35464
298.28661
298.22189
298.16062
298.10298
298.04922
297.99962
297.95453
297.91453
297.88049
297.85364
297.83522
297.82614
297.82713
297.83927
297.86338
297.90024
297.94472
297.9839
317.29017
317.45346
316.87222
316.10738
315.32547
314.54293
313.77979
313.0436
312.33775
311.66319
311.01959
310.40597
309.82104
309.26339
308.73158
308.22419
307.73988
307.27739
306.83554
306.41321
306.00939
305.62313
305.25354
304.89981
304.56118
304.23693
303.9264
303.62897
303.34405
303.0711
302.80959
302.55903
302.31895
302.08891
301.86848
301.65725
301.45482
301.26084
301.07492
300.89673
300.72592
300.56217
300.40516
300.2546
300.11019
299.97165
299.83871
299.71111
299.58861
299.47095
299.35793
299.24931
299.1449
299.04451
298.94795
298.85507
298.76572
298.67976
298.59708
298.51758
298.44121
298.36796
298.29784
298.23097
298.16753
298.10779
298.05208
298.00071
297.95396
297.91214
297.8759
297.84646
297.8256
297.81489
297.81207
297.8271
297.85133
297.88864
297.93452
297.9791
310.86242
309.1963
305.4729
302.52601
301.22315
300.92948
300.86245
300.85966
300.74921
300.69149
300.58513
300.51782
300.42961
300.34565
300.26029
300.1741
300.08727
299.99977
299.9116
299.82279
299.73342
299.64359
299.55342
299.46304
299.37258
299.28217
299.19197
299.10211
299.01274
298.924
298.83602
298.74896
298.66293
298.5781
298.49457
298.41249
298.33199
298.25319
298.17622
298.10119
298.02823
297.95746
297.88898
297.8229
297.75933
297.69838
297.64013
297.58468
297.53209
297.48244
297.43576
297.39208
297.35137
297.31358
297.2786
297.24628
297.21639
297.18864
297.16266
297.13803
297.11429
297.09091
297.06735
297.04319
297.0182
296.99261
296.96709
296.94334
296.92302
296.91087
296.90782
296.92718
296.9642
297.05053
297.1631
297.34763
297.54067
297.72209
297.88622
297.81781
309.72633
306.76439
302.53587
300.44854
299.86698
299.86759
299.96658
299.9795
299.9759
299.95136
299.92957
299.89278
299.85138
299.80464
299.7541
299.69982
299.64219
299.58145
299.51791
299.45189
299.38366
299.31349
299.24163
299.16834
299.09384
299.01835
298.94211
298.86532
298.78819
298.71092
298.63372
298.55676
298.48025
298.40437
298.32929
298.25518
298.18222
298.11056
298.04037
297.97179
297.90498
297.84008
297.77722
297.71653
297.65814
297.60216
297.5487
297.49787
297.44974
297.40439
297.36185
297.32216
297.28528
297.25115
297.21967
297.19066
297.16391
297.13912
297.11591
297.09389
297.0726
297.05157
297.03029
297.00843
296.98586
296.96295
296.94048
296.92026
296.90407
296.89653
296.89902
296.92372
296.96725
297.05947
297.17773
297.36546
297.55603
297.7291
297.88277
297.80914
308.26195
304.67159
301.52972
299.82139
299.48431
299.52424
299.56261
299.53957
299.51344
299.48242
299.45221
299.41885
299.38382
299.34577
299.30546
299.26265
299.21762
299.17031
299.12082
299.06923
299.01566
298.96023
298.90306
298.84428
298.78406
298.72254
298.65989
298.59629
298.5319
298.4669
298.4015
298.33586
298.27019
298.20467
298.13949
298.07483
298.01089
297.94784
297.88585
297.82511
297.76578
297.70802
297.65198
297.59783
297.54569
297.49571
297.44801
297.40269
297.35986
297.31958
297.28192
297.24689
297.21446
297.18458
297.15713
297.13195
297.10881
297.08741
297.0674
297.04837
297.02992
297.0116
296.99297
296.97377
296.95398
296.93407
296.91494
296.89847
296.88652
296.88365
296.89199
296.92161
296.97126
297.06932
297.19264
297.383
297.57027
297.73423
297.87884
297.80029
307.03255
303.20687
300.39286
299.09266
299.03553
299.05515
299.07519
299.04082
299.02412
298.9961
298.97342
298.94541
298.91732
298.88716
298.85585
298.82289
298.78847
298.75239
298.71469
298.67534
298.63437
298.59179
298.54766
298.50202
298.45494
298.40652
298.35686
298.30606
298.25427
298.20162
298.14825
298.09434
298.04005
297.98554
297.93101
297.87662
297.82256
297.76902
297.71618
297.66421
297.6133
297.56361
297.51533
297.4686
297.42359
297.38044
297.33929
297.30026
297.26345
297.22894
297.1968
297.16703
297.13963
297.11453
297.09161
297.07072
297.05161
297.03401
297.01755
297.00187
296.98659
296.97129
296.95562
296.93938
296.92266
296.90602
296.89046
296.87791
296.8703
296.87213
296.88519
296.92081
296.97636
297.08021
297.20805
297.40047
297.58351
297.738
297.87447
297.79144
306.31974
302.01883
299.4486
298.4887
298.5667
298.54281
298.5708
298.53476
298.52934
298.50538
298.49096
298.46979
298.45018
298.42863
298.40649
298.38312
298.35869
298.33301
298.30607
298.27781
298.24822
298.21726
298.18494
298.15127
298.11626
298.07997
298.04244
298.00375
297.96398
297.92323
297.88161
297.83926
297.79631
297.7529
297.70919
297.66535
297.62154
297.57794
297.53473
297.49207
297.45015
297.40914
297.36922
297.33055
297.2933
297.25761
297.22364
297.19149
297.1613
297.13313
297.10705
297.08309
297.06121
297.04135
297.02341
297.00721
296.99254
296.97909
296.96655
296.95455
296.94275
296.93079
296.91837
296.90538
296.89201
296.87889
296.86711
296.85863
296.85544
296.862
296.87998
296.92126
296.98253
297.09202
297.22384
297.41767
297.59557
297.74058
297.86978
297.78238
305.75141
300.85689
298.66729
297.91079
298.06254
298.00788
298.05596
298.02003
298.02958
298.01208
298.0087
297.99607
297.98615
297.97398
297.96146
297.94781
297.93322
297.91753
297.90073
297.88279
297.86367
297.84335
297.82181
297.79906
297.77508
297.74991
297.72356
297.69609
297.66754
297.63799
297.60752
297.57622
297.5442
297.51159
297.47852
297.44512
297.41155
297.37796
297.34452
297.31139
297.27874
297.24674
297.21556
297.18536
297.15629
297.12852
297.10219
297.07741
297.05429
297.03293
297.01338
296.99565
296.97972
296.96553
296.95295
296.94183
296.93193
296.92298
296.91467
296.90665
296.89862
296.89028
296.8814
296.87193
296.86215
296.85277
296.84495
296.84066
296.84195
296.85322
296.87636
296.92294
296.98979
297.10468
297.23998
297.43455
297.6064
297.7422
297.86472
297.77315
305.17532
299.83238
298.03968
297.38517
297.58553
297.50439
297.57248
297.53485
297.55711
297.54415
297.54996
297.54447
297.54256
297.53812
297.53359
297.52813
297.52188
297.51473
297.50668
297.49767
297.48768
297.47668
297.46464
297.45153
297.43737
297.42213
297.40584
297.38851
297.37019
297.3509
297.33073
297.30973
297.28799
297.26561
297.2427
297.21937
297.19576
297.172
297.14823
297.1246
297.10127
297.07839
297.05612
297.0346
297.014
296.99444
296.97606
296.95899
296.94332
296.92913
296.91647
296.90534
296.89573
296.88754
296.88066
296.87493
296.87013
296.86598
296.86217
296.85841
296.85443
296.84997
296.84487
296.83916
296.83319
296.82775
296.82404
296.82404
296.82984
296.84581
296.874
296.92583
296.99812
297.11814
297.2564
297.451
297.61597
297.74303
297.85819
297.76381
304.70767
298.90644
297.51794
296.90754
297.14653