/*--------------------------------*- C++ -*----------------------------------*\
  =========                 |
  \\      /  F ield         | OpenFOAM: The Open Source CFD Toolbox
   \\    /   O peration     | Website:  https://openfoam.org
    \\  /    A nd           | Version:  12
     \\/     M anipulation  |
\*---------------------------------------------------------------------------*/
FoamFile
{
    format      ascii;
    class       volScalarField;
    location    "0.049";
    object      Ma;
}
// * * * * * * * * * * * * * * * * * * * * * * * * * * * * * * * * * * * * * //

dimensions      [];

internalField   nonuniform List<scalar> 
16000
(
0.62315947
0.74044817
0.6956552
0.72022634
0.70525049
0.71214474
0.70646018
0.7079703
0.70532772
0.70488025
0.70325797
0.70212273
0.70070902
0.69932944
0.69786822
0.69636097
0.6947966
0.69317667
0.69149996
0.68976598
0.68797431
0.68612474
0.68421734
0.68225239
0.68023052
0.67815265
0.67602009
0.6738345
0.67159795
0.66931293
0.66698233
0.66460949
0.66219815
0.65975245
0.65727691
0.6547764
0.6522561
0.64972145
0.64717809
0.6446318
0.64208844
0.63955389
0.63703394
0.63453424
0.63206021
0.629617
0.62720938
0.62484169
0.62251782
0.62024117
0.61801465
0.61584066
0.61372117
0.61165773
0.60965159
0.60770376
0.60581515
0.60398672
0.60221972
0.60051576
0.59887719
0.59730771
0.59581258
0.59439863
0.59307434
0.59184957
0.59073449
0.58973687
0.58885724
0.58808269
0.58738173
0.58670323
0.58598482
0.58516861
0.58420631
0.58303644
0.58162605
0.58015205
0.57849155
0.57739969
0.62771134
0.74567822
0.69927767
0.72488359
0.7091046
0.71644997
0.71033166
0.71195452
0.70913603
0.70861529
0.70690769
0.70565751
0.70415345
0.70266045
0.70109129
0.69946806
0.69778502
0.69604208
0.69423866
0.69237432
0.69044892
0.68846254
0.68641555
0.68430869
0.68214299
0.6799199
0.67764128
0.67530939
0.67292696
0.67049714
0.66802358
0.66551033
0.6629619
0.66038321
0.65777954
0.6551565
0.65251999
0.64987609
0.64723105
0.64459117
0.64196273
0.6393519
0.63676468
0.6342068
0.63168366
0.62920023
0.626761
0.62436997
0.62203055
0.6197456
0.61751743
0.61534784
0.61323813
0.61118924
0.60920182
0.60727632
0.60541314
0.60361278
0.60187604
0.60020415
0.59859905
0.59706397
0.5956037
0.59422453
0.59293431
0.59174215
0.59065727
0.58968629
0.5888285
0.58806974
0.58737722
0.58669962
0.58597645
0.5851508
0.58416899
0.5829718
0.58156363
0.58004609
0.57843192
0.57740416
0.63196187
0.75046678
0.70283945
0.72895379
0.71272992
0.72017313
0.71389963
0.71541108
0.71253911
0.71186222
0.71008731
0.70869999
0.70709234
0.70547324
0.70378021
0.70202661
0.70020928
0.69832786
0.69638203
0.69437169
0.69229702
0.69015851
0.68795701
0.68569374
0.68337032
0.68098882
0.67855177
0.67606218
0.67352355
0.67093988
0.66831566
0.66565587
0.66296592
0.66025163
0.65751918
0.65477502
0.65202585
0.64927848
0.64653975
0.64381647
0.64111529
0.63844263
0.63580456
0.63320676
0.63065441
0.62815213
0.62570397
0.62331331
0.62098291
0.61871489
0.61651076
0.61437151
0.61229764
0.61028933
0.60834652
0.606469
0.60465658
0.6029092
0.60122714
0.59961121
0.59806287
0.59658487
0.59518152
0.59385856
0.5926232
0.5914837
0.59044812
0.58952152
0.58870132
0.58797147
0.58729773
0.58662899
0.58590638
0.58507341
0.58407379
0.58285874
0.58145088
0.57991988
0.57836611
0.57738997
0.63584072
0.75483712
0.70589413
0.73251246
0.71589488
0.72343932
0.71700537
0.71838466
0.71545126
0.71459837
0.71274199
0.71120142
0.7094722
0.7077109
0.70587656
0.70397586
0.70200759
0.69997139
0.69786728
0.69569552
0.69345672
0.69115184
0.68878226
0.6863498
0.68385677
0.681306
0.67870083
0.67604519
0.67334353
0.67060086
0.66782273
0.66501518
0.66218467
0.65933806
0.65648252
0.65362542
0.65077425
0.64793651
0.64511961
0.64233072
0.63957672
0.63686407
0.63419871
0.631586
0.62903065
0.62653668
0.62410739
0.62174531
0.61945229
0.61722945
0.61507732
0.61299589
0.61098471
0.60904308
0.60717011
0.60536486
0.60362648
0.60195429
0.60034803
0.59880797
0.5973351
0.59593168
0.59460149
0.59334978
0.59218315
0.59110903
0.59013436
0.58926272
0.58848986
0.58779818
0.58715281
0.58650277
0.58578954
0.58495707
0.5839497
0.58273015
0.58132732
0.57979794
0.57830585
0.57736861
0.63933396
0.7587226
0.70870415
0.73544819
0.71844308
0.72614151
0.71959359
0.72078307
0.71780507
0.71674294
0.71479428
0.71308292
0.71121363
0.70929457
0.70730195
0.70523812
0.70310287
0.70089602
0.6986179
0.69626915
0.69385085
0.69136455
0.68881232
0.68619676
0.68352108
0.6807891
0.67800526
0.67517462
0.67230288
0.66939631
0.66646171
0.66350639
0.66053805
0.65756471
0.65459457
0.65163595
0.6486971
0.64578612
0.6429108
0.64007852
0.63729613
0.63456983
0.63190515
0.6293068
0.6267787
0.62432393
0.62194471
0.61964247
0.61741782
0.61527071
0.61320044
0.61120585
0.60928543
0.60743747
0.60566022
0.60395195
0.60231112
0.60073645
0.59922712
0.59778288
0.59640428
0.59509313
0.59385279
0.59268806
0.59160498
0.59061018
0.58970945
0.58890483
0.58819025
0.58754652
0.58693811
0.5863144
0.58561802
0.58479395
0.58378974
0.5825776
0.58118674
0.57967348
0.57824912
0.57734248
0.64239596
0.76204244
0.7110531
0.73792236
0.72065657
0.7282038
0.72152931
0.72253076
0.7195091
0.71822543
0.71617213
0.71427904
0.71225362
0.71016373
0.70799751
0.70575497
0.70343635
0.70104185
0.69857225
0.69602881
0.69341335
0.6907283
0.68797673
0.68516239
0.6822897
0.67936385
0.67639068
0.67337676
0.67032929
0.66725607
0.66416542
0.66106607
0.65796708
0.65487766
0.65180707
0.64876445
0.64575869
0.64279824
0.63989101
0.63704426
0.63426441
0.63155707
0.62892688
0.62637754
0.62391176
0.62153129
0.61923697
0.61702875
0.61490581
0.61286666
0.61090923
0.60903109
0.60722958
0.60550195
0.60384555
0.60225789
0.60073676
0.59928032
0.59788723
0.59655681
0.59528923
0.59408594
0.59294998
0.59188582
0.59089898
0.58999536
0.58917959
0.58845222
0.58780541
0.58721838
0.58665488
0.58606535
0.58539446
0.58458828
0.58359889
0.58240545
0.58103445
0.57955095
0.57820019
0.57731405
0.6449998
0.76477974
0.71295174
0.73990556
0.72239162
0.72960841
0.7229747
0.72359594
0.72058925
0.71902566
0.71685318
0.71476729
0.7125659
0.71028683
0.70792578
0.70548232
0.70295722
0.70035147
0.69766671
0.69490521
0.69206992
0.68916454
0.68619356
0.68316224
0.68007668
0.67694374
0.67377109
0.67056709
0.66734076
0.66410168
0.66085983
0.65762549
0.65440907
0.65122093
0.64807123
0.6449697
0.64192553
0.63894717
0.63604221
0.63321727
0.63047791
0.62782856
0.62527252
0.62281196
0.62044795
0.61818053
0.61600878
0.61393092
0.61194446
0.6100463
0.60823293
0.60650059
0.60484544
0.60326373
0.60175197
0.60030696
0.59892592
0.59760653
0.59634703
0.59514643
0.59400463
0.59292287
0.59190399
0.5909522
0.59007264
0.58927048
0.58854925
0.58790802
0.58733739
0.58681531
0.58630503
0.58575804
0.58512116
0.5843424
0.5833784
0.58221324
0.5808709
0.57943175
0.57815838
0.57728548
0.64718577
0.76696362
0.7144392
0.74142436
0.72372515
0.73058357
0.72391524
0.72441176
0.7210033
0.71916581
0.71683872
0.71453421
0.71212293
0.70962324
0.70703497
0.70435839
0.70159502
0.69874697
0.69581706
0.69280891
0.68972702
0.68657677
0.68336446
0.68009733
0.67678352
0.67343204
0.67005268
0.66665597
0.66325298
0.6598552
0.65647438
0.6531223
0.6498106
0.64655054
0.64335281
0.6402273
0.637183
0.63422776
0.63136824
0.62860978
0.62595641
0.62341079
0.6209743
0.61864705
0.61642802
0.61431515
0.61230548
0.61039531
0.60858031
0.60685575
0.60521665
0.60365796
0.60217476
0.60076241
0.59941668
0.59813383
0.59691064
0.59574444
0.59463322
0.5935758
0.59257197
0.59162291
0.59073139
0.58990147
0.58913792
0.58844528
0.58782602
0.58727783
0.58678995
0.58633946
0.5858898
0.58539346
0.58479894
0.58405727
0.58312905
0.58200131
0.58069763
0.57931691
0.57812231
0.5772582
0.64902182
0.7686225
0.71547213
0.74247642
0.72439778
0.73060238
0.72403885
0.72375428
0.72071661
0.71859455
0.71606429
0.71350559
0.71084283
0.70808361
0.70522953
0.70228207
0.69924384
0.69611832
0.69290994
0.68962416
0.68626747
0.68284746
0.67937277
0.67585312
0.67229918
0.66872253
0.66513549
0.66155098
0.65798228
0.65444286
0.65094611
0.64750508
0.64413226
0.64083931
0.63763685
0.63453424
0.63153948
0.62865904
0.6258978
0.62325906
0.62074454
0.61835447
0.61608767
0.61394173
0.61191315
0.60999749
0.60818959
0.6064837
0.60487373
0.60335333
0.6019162
0.60055617
0.5992674
0.59804458
0.59688295
0.59577841
0.59472748
0.59372734
0.59277592
0.591872
0.59101544
0.5902075
0.58945098
0.58874986
0.58810863
0.58753119
0.58701904
0.58656867
0.58616818
0.58579408
0.58541028
0.58497099
0.584427
0.58373199
0.58285017
0.58176961
0.5805157
0.57920591
0.57808813
0.57723158
0.65051076
0.76973387
0.71598358
0.74286049
0.72435972
0.73014676
0.72357569
0.72288801
0.71966625
0.71719536
0.71441226
0.71156196
0.70860453
0.70554367
0.70238199
0.69912275
0.69577021
0.69232985
0.68880833
0.68521356
0.68155475
0.67784235
0.67408802
0.67030455
0.6665057
0.66270603
0.65892066
0.65516506
0.6514547
0.6478048
0.64423
0.64074409
0.63735968
0.63408799
0.63093864
0.62791944
0.62503635
0.62229342
0.61969277
0.61723476
0.61491801
0.61273964
0.61069546
0.60878014
0.60698748
0.60531057
0.60374204
0.60227425
0.60089944
0.59960996
0.59839839
0.59725773
0.59618155
0.5951641
0.59420036
0.59328611
0.59241786
0.59159284
0.5908091
0.59006559
0.58936239
0.58870094
0.58808419
0.58751605
0.58700074
0.5865416
0.58613926
0.58578924
0.58547882
0.58518436
0.58487056
0.58449355
0.58400678
0.58336706
0.5825415
0.58151822
0.58032605
0.57909726
0.57805041
0.57720234
0.65159343
0.77019653
0.71589951
0.74174259
0.72355753
0.72875501
0.72232433
0.7210574
0.71769617
0.71485168
0.71175864
0.70857146
0.7052707
0.70186045
0.69834461
0.69472874
0.69101955
0.68722527
0.68335567
0.67942201
0.67543707
0.67141502
0.66737131
0.66332244
0.65928573
0.655279
0.65132027
0.64742739
0.64361765
0.63990739
0.63631172
0.63284411
0.62951615
0.62633733
0.62331488
0.62045374
0.61775653
0.61522368
0.61285354
0.61064261
0.60858581
0.60667666
0.60490765
0.60327045
0.60175616
0.60035558
0.59905939
0.59785834
0.59674341
0.59570598
0.59473793
0.59383182
0.59298094
0.59217946
0.59142242
0.59070572
0.59002611
0.58938109
0.58876902
0.58818919
0.587642
0.58712924
0.58665397
0.58622011
0.5858316
0.58549124
0.58519897
0.58494958
0.58472995
0.58451666
0.58427561
0.58396503
0.5835412
0.58296411
0.58220333
0.58124696
0.58012869
0.5789885
0.57800333
0.57716638
0.65217846
0.76984675
0.71510483
0.73995792
0.72214121
0.72651218
0.72014691
0.71827402
0.71468454
0.71142678
0.7079607
0.70438236
0.70068289
0.69686906
0.69294703
0.68892555
0.68481487
0.68062717
0.67637648
0.6720786
0.66775094
0.66341234
0.65908273
0.65478283
0.65053376
0.64635657
0.64227181
0.63829904
0.63445641
0.63076018
0.62722441
0.62386061
0.62067758
0.61768131
0.61487494
0.61225894
0.60983123
0.60758748
0.60552139
0.60362505
0.60188927
0.60030391
0.59885818
0.59754099
0.59634114
0.59524753
0.5942494
0.5933364
0.59249877
0.59172742
0.59101401
0.59035107
0.58973206
0.58915138
0.58860442
0.58808751
0.58759781
0.58713334
0.58669292
0.58627631
0.58588437
0.58551923
0.58518413
0.58488294
0.58461935
0.58439571
0.58421142
0.58406088
0.58393092
0.58379877
0.58363174
0.58339036
0.5830339
0.58252559
0.58183668
0.58095567
0.57992272
0.5788766
0.57794212
0.57712108
0.65220455
0.768611
0.71346545
0.73744336
0.71985828
0.72324424
0.71691761
0.71438922
0.71048624
0.70676454
0.7028537
0.69881836
0.69465534
0.6903756
0.68598923
0.68150961
0.67695215
0.67233457
0.66767663
0.66299993
0.65832762
0.65368392
0.64909376
0.64458217
0.64017375
0.6358921
0.63175916
0.62779472
0.62401589
0.62043668
0.6170678
0.61391644
0.61098631
0.6082778
0.60578815
0.60351187
0.60144107
0.59956591
0.59787505
0.59635605
0.59499581
0.59378084
0.59269766
0.59173298
0.59087397
0.59010836
0.5894246
0.58881192
0.58826042
0.5877611
0.5873059
0.58688779
0.58650073
0.58613972
0.58580078
0.58548085
0.58517776
0.58489014
0.58461745
0.58436003
0.58411922
0.58389751
0.58369831
0.58352542
0.5833823
0.58327094
0.58319044
0.5831351
0.58309212
0.58303962
0.58294658
0.582776
0.58249026
0.58205542
0.58144377
0.58064553
0.57970803
0.57875849
0.5778641
0.57706622
0.65165432
0.76639296
0.71091175
0.73384945
0.71657321
0.71885827
0.71249052
0.70925482
0.70492905
0.70067259
0.69623251
0.69166033
0.68695808
0.68214258
0.67723017
0.67224097
0.6671975
0.66212474
0.65704967
0.65200087
0.64700796
0.64210095
0.63730957
0.63266246
0.62818645
0.62390573
0.61984126
0.6160102
0.61242552
0.60909584
0.60602541
0.60321432
0.60065879
0.59835165
0.59628285
0.59444001
0.59280899
0.59137444
0.59012027
0.58903011
0.58808765
0.58727698
0.58658279
0.58599057
0.58548674
0.58505871
0.58469492
0.5843849
0.58411922
0.58388952
0.58368851
0.58350996
0.58334869
0.58320056
0.58306241
0.582932
0.58280794
0.58268962
0.58257719
0.58247163
0.58237476
0.58228944
0.58221918
0.58216773
0.58213834
0.58213277
0.58215005
0.58218472
0.58222463
0.58224908
0.58222887
0.58212966
0.58191703
0.58155929
0.5810293
0.58032083
0.57948763
0.57863402
0.5777699
0.57700402
0.65046983
0.76302382
0.7073901
0.72909224
0.71212995
0.71318181
0.70666683
0.70265672
0.69778145
0.69289604
0.68782752
0.68262616
0.67730178
0.67187943
0.66638437
0.66084571
0.65529514
0.64976654
0.64429542
0.6389181
0.63367079
0.62858866
0.62370475
0.61904896
0.61464713
0.61052033
0.60668433
0.60314935
0.5999201
0.59699601
0.59437173
0.59203769
0.58998087
0.58818547
0.58663372
0.58530648
0.58418395
0.58324611
0.58247327
0.5818463
0.581347
0.58095823
0.58066409
0.58044991
0.58030236
0.5802094
0.58016026
0.58014539
0.58015641
0.58018607
0.5802282
0.58027769
0.58033047
0.58038342
0.58043437
0.58048199
0.58052577
0.58056588
0.58060319
0.58063932
0.5806766
0.58071817
0.58076763
0.58082867
0.58090441
0.58099651
0.58110416
0.58122239
0.58134
0.58143765
0.5814882
0.58146023
0.58132252
0.58104494
0.58060089
0.57998953
0.5792682
0.57850719
0.57766682
0.57693382
0.64859718
0.75826816
0.70294203
0.72298277
0.70632223
0.70599356
0.69918026
0.69430042
0.68872761
0.68309632
0.67728908
0.67136188
0.66533605
0.65924738
0.65313278
0.64703284
0.64099042
0.63504989
0.62925592
0.62365217
0.6182798
0.61317615
0.60837337
0.60389747
0.59976764
0.59599588
0.59258712
0.58953959
0.58684549
0.58449187
0.58246156
0.58073417
0.5792871
0.57809637
0.57713742
0.57638576
0.57581748
0.57540967
0.5751407
0.57499039
0.57494018
0.57497313
0.57507394
0.5752289
0.57542585
0.57565408
0.57590424
0.57616822
0.57643913
0.57671115
0.57697949
0.57724037
0.57749091
0.57772916
0.57795397
0.57816497
0.57836253
0.5785476
0.57872178
0.57888725
0.57904682
0.57920386
0.57936207
0.57952509
0.57969598
0.57987648
0.5800661
0.5802606
0.58044989
0.58061623
0.58073484
0.58077759
0.58071626
0.58052164
0.5801683
0.57966202
0.57905834
0.57838435
0.57756306
0.5768627
0.64598042
0.75174437
0.69746299
0.71526082
0.69884557
0.69695041
0.68964626
0.6837755
0.67734666
0.67084306
0.66418891
0.65744988
0.65066319
0.64387898
0.63714929
0.63052905
0.62407407
0.61783933
0.61187686
0.60623384
0.60095071
0.59605985
0.59158459
0.58753886
0.5839274
0.5807463
0.57798408
0.57562285
0.57363972
0.57200808
0.57069893
0.56968198
0.56892666
0.56840287
0.56808162
0.56793543
0.56793865
0.56806767
0.56830092
0.56861897
0.56900441
0.56944182
0.56991759
0.57041987
0.5709384
0.57146435
0.57199025
0.57250979
0.57301779
0.57351005
0.5739833
0.57443512
0.57486391
0.57526883
0.57564978
0.57600732
0.57634262
0.57665742
0.57695393
0.57723487
0.57750344
0.57776322
0.57801803
0.5782715
0.57852673
0.57878565
0.57904827
0.57931122
0.57956567
0.57979575
0.57997948
0.58009218
0.58010817
0.57999882
0.57974134
0.57934846
0.5788659
0.57827118
0.57746741
0.57680007
0.64248889
0.74278771
0.69033871
0.70547744
0.68924585
0.68557942
0.67756188
0.67056784
0.66312674
0.65562782
0.64803389
0.64042553
0.63286228
0.62541407
0.61815163
0.61114542
0.60446229
0.59816275
0.59229834
0.58690966
0.58202519
0.57766083
0.5738203
0.57049617
0.56767134
0.56532085
0.56341374
0.56191495
0.56078696
0.55999132
0.55948978
0.55924528
0.55922261
0.55938889
0.55971383
0.56016987
0.56073219
0.56137865
0.56208968
0.56284809
0.56363891
0.56444921
0.56526792
0.5660856
0.56689433
0.56768753
0.56845979
0.56920678
0.5699251
0.57061221
0.57126632
0.57188637
0.57247196
0.57302332
0.5735413
0.57402731
0.57448327
0.57491157
0.57531498
0.57569666
0.57606016
0.57640926
0.57674788
0.57707975
0.5774081
0.57773518
0.57806161
0.57838496
0.57869781
0.57898654
0.57923234
0.57941385
0.57950697
0.57948383
0.5793268
0.57905476
0.57869409
0.57817144
0.57738784
0.57675178
0.63783698
0.73137702
0.68114204
0.69307255
0.67694564
0.67132197
0.66232922
0.65406167
0.64545718
0.63685688
0.62827077
0.61980293
0.61154186
0.60358019
0.59600528
0.58889612
0.5823193
0.57632635
0.57095206
0.56621415
0.56211402
0.55863843
0.55576182
0.55344893
0.55165754
0.55034095
0.54945033
0.54893654
0.54875157
0.54884974
0.54918831
0.54972802
0.55043323
0.55127201
0.55221601
0.55324029
0.55432309
0.55544555
0.55659147
0.557747
0.55890044
0.56004195
0.56116335
0.56225795
0.56332032
0.56434619
0.56533226
0.56627611
0.56717608
0.56803117
0.56884101
0.56960575
0.57032609
0.5710032
0.57163876
0.5722349
0.5727942
0.57331956
0.57381425
0.57428177
0.57472596
0.5751508
0.57556035
0.5759585
0.57634872
0.57673371
0.57711471
0.57749029
0.57785467
0.57819685
0.57850148
0.5787498
0.57891808
0.57897979
0.57892508
0.57877752
0.57853764
0.57808604
0.57732837
0.57671931
0.63166269
0.71856032
0.66931665
0.67746414
0.66123232
0.65346195
0.64318556
0.6334751
0.62359047
0.61385585
0.6043406
0.59517776
0.58648196
0.57835864
0.57089519
0.56415783
0.55818924
0.55300849
0.54861241
0.54497846
0.54206825
0.53983155
0.53821013
0.53714137
0.5365612
0.53640651
0.53661695
0.53713608
0.53791216
0.53889844
0.54005327
0.54133995
0.5427264
0.54418491
0.54569163
0.54722624
0.54877155
0.55031309
0.5518388
0.55333872
0.55480472
0.55623022
0.55761003
0.55894016
0.56021761
0.56144029
0.56260687
0.56371667
0.5647696
0.56576604
0.56670683
0.5675932
0.56842674
0.56920945
0.56994369
0.5706322
0.57127803
0.57188452
0.57245529
0.57299416
0.57350518
0.57399252
0.57446043
0.57491302
0.5753541
0.57578686
0.57621321
0.57663275
0.57704152
0.57743153
0.5777909
0.57810254
0.578342
0.57848457
0.57852925
0.57850281
0.57838119
0.57800693
0.5772838
0.57669957
0.62364251
0.70176788
0.6540359
0.65777144
0.64106963
0.6309471
0.61910451
0.60784806
0.59671261
0.58601675
0.57588573
0.5664686
0.55788103
0.55020983
0.54350766
0.53779391
0.53305725
0.52926023
0.52634503
0.52423939
0.52286229
0.52212894
0.52195476
0.52225835
0.5229636
0.52400087
0.52530763
0.52682858
0.5285154
0.53032633
0.53222561
0.53418287
0.53617252
0.53817314
0.54016694
0.54213926
0.5440781
0.54597378
0.54781856
0.54960637
0.55133257
0.55299369
0.55458731
0.55611189
0.55756663
0.55895136
0.56026645
0.56151273
0.56269144
0.56380412
0.56485259
0.56583897
0.5667656
0.56763512
0.56845042
0.5692147
0.56993137
0.57060408
0.5712367
0.57183331
0.57239811
0.57293546
0.5734498
0.57394553
0.57442683
0.57489741
0.57535985
0.57581478
0.57626025
0.57669143
0.57709968
0.57746898
0.5777739
0.57799167
0.57812842
0.57821187
0.57820044
0.57790965
0.5772373
0.57668753
0.61313845
0.6800384
0.63391607
0.63258399
0.6149892
0.60239478
0.58891572
0.5762751
0.56425581
0.55315304
0.5431069
0.53423714
0.52660875
0.52023991
0.51510509
0.51114319
0.50826649
0.50636998
0.50533968
0.50505971
0.50541755
0.50630773
0.5076341
0.50931085
0.51126278
0.51342495
0.51574193
0.51816689
0.52066066
0.5231907
0.52573022
0.52825731
0.5307542
0.53320662
0.53560324
0.53793517
0.54019554
0.54237924
0.54448254
0.5465029
0.54843877
0.55028944
0.55205487
0.5537356
0.55533267
0.55684751
0.55828191
0.55963792
0.56091781
0.56212405
0.56325927
0.56432624
0.56532789
0.56626733
0.56714785
0.56797296
0.56874632
0.56947178
0.57015339
0.57079537
0.57140206
0.57197798
0.57252775
0.57305603
0.57356741
0.57406606
0.57455522
0.5750366
0.57551025
0.57597435
0.57642309
0.57684156
0.5772045
0.57749159
0.57771219
0.57788947
0.57796905
0.57776123
0.57716272
0.5766825
0.59900041
0.65127441
0.60704508
0.60015037
0.58138271
0.56642711
0.55172399
0.53839017
0.52638875
0.51593489
0.50710028
0.4999017
0.49428907
0.49016342
0.48739034
0.48581501
0.48527484
0.48560954
0.4866681
0.48831315
0.49042305
0.49289237
0.49563135
0.49856456
0.50162943
0.50477455
0.50795805
0.51114613
0.51431176
0.51743349
0.52049447
0.52348168
0.52638517
0.52919755
0.53191346
0.53452924
0.5370426
0.53945232
0.54175813
0.54396044
0.54606029
0.54805918
0.54995901
0.55176202
0.55347068
0.5550877
0.55661594
0.55805839
0.55941814
0.56069833
0.56190218
0.56303296
0.564094
0.56508875
0.56602078
0.56689378
0.56771155
0.56847805
0.56919743
0.56987398
0.57051213
0.57111652
0.57169188
0.5722431
0.57277508
0.5732924
0.57379894
0.57429752
0.57479004
0.57527711
0.57575513
0.57621103
0.57662232
0.57697249
0.57727047
0.57752913
0.57768126
0.57754257
0.57704427
0.57667335
0.57926841
0.61313452
0.57123085
0.55866644
0.5392163
0.52233255
0.50754506
0.49492997
0.4844536
0.47615857
0.46994763
0.46566175
0.46309074
0.46200169
0.46215793
0.46333406
0.46532501
0.46795071
0.47105721
0.4745157
0.47822019
0.48208471
0.4860403
0.49003224
0.49401751
0.49796264
0.50184188
0.50563568
0.50932943
0.51291248
0.51637731
0.51971887
0.52293411
0.5260215
0.52898072
0.53181241
0.53451796
0.53709935
0.53955897
0.5418996
0.54412426
0.54623618
0.54823875
0.55013546
0.55192989
0.55362567
0.55522648
0.55673599
0.55815784
0.55949568
0.56075311
0.56193376
0.56304123
0.56407918
0.56505134
0.56596148
0.56681346
0.56761128
0.56835908
0.56906118
0.56972206
0.57034636
0.57093889
0.57150466
0.57204874
0.57257608
0.57309112
0.57359777
0.57409948
0.57459847
0.57509269
0.57557182
0.57601895
0.57642356
0.57679244
0.57712415
0.5773403
0.57727598
0.57689915
0.57664486
0.55133154
0.56311473
0.52509325
0.50677186
0.48623094
0.47083533
0.45792227
0.44808941
0.44107245
0.43662947
0.43441565
0.43406922
0.43523428
0.43758605
0.44084143
0.44476251
0.44915479
0.45386253
0.45876318
0.46376162
0.46878492
0.47377785
0.47869908
0.48351815
0.48821305
0.49276824
0.49717324
0.50142135
0.50550886
0.50943423
0.51319765
0.51680055
0.5202453
0.52353498
0.52667315
0.52966375
0.53251094
0.53521907
0.53779256
0.5402359
0.54255358
0.54475008
0.54682986
0.54879734
0.55065687
0.55241276
0.5540692
0.55563035
0.55710024
0.55848282
0.55978196
0.56100149
0.56214519
0.56321683
0.56422018
0.56515904
0.56603725
0.56685877
0.56762771
0.56834831
0.56902501
0.56966242
0.57026536
0.57083883
0.571388
0.57191805
0.57243397
0.57294063
0.5734426
0.57394305
0.57444112
0.57492962
0.57539804
0.5758421
0.57626746
0.57666402
0.57695472
0.57700071
0.57677869
0.57662118
0.51108277
0.49863438
0.4615813
0.44377793
0.42643818
0.41429899
0.40603101
0.40142092
0.39981717
0.40063644
0.40331257
0.40736089
0.41238123
0.41805688
0.42414378
0.43045794
0.43686308
0.44325983
0.44957688
0.45576396
0.4617865
0.46762149
0.47325444
0.47867709
0.48388572
0.48887985
0.49366138
0.49823383
0.50260185
0.50677089
0.51074686
0.51453598
0.5181446
0.5215791
0.52484585
0.5279511
0.530901
0.53370154
0.53635858
0.53887777
0.54126465
0.54352454
0.54566265
0.54768401
0.5495935
0.55139586
0.55309566
0.55469732
0.55620513
0.55762321
0.55895559
0.56020621
0.56137891
0.56247752
0.5635058
0.56446749
0.56536636
0.56620629
0.56699128
0.56772546
0.56841317
0.56905891
0.56966744
0.57024376
0.57079307
0.57132077
0.57183234
0.57233335
0.57282913
0.57332356
0.57381705
0.57430557
0.57478384
0.57525159
0.57571345
0.57615806
0.57652341
0.57670397
0.57667609
0.57667636
0.44963455
0.4172231
0.38764646
0.3728774
0.36209255
0.35731581
0.3567525
0.35948817
0.3645357
0.3711389
0.37871515
0.38684198
0.39522048
0.40364467
0.41197567
0.42012222
0.42802638
0.4356532
0.44298362
0.4500093
0.45672918
0.46314703
0.46926971
0.47510605
0.48066602
0.48596016
0.49099926
0.49579405
0.50035505
0.50469249
0.50881621
0.51273567
0.51645988
0.51999744
0.52335656
0.52654504
0.52957031
0.53243947
0.53515925
0.53773613
0.54017625
0.54248553
0.54466962
0.54673394
0.54868371
0.55052393
0.55225937
0.55389464
0.55543413
0.55688207
0.55824257
0.55951958
0.56071698
0.56183856
0.56288805
0.56386911
0.56478541
0.56564072
0.56643887
0.56718388
0.5678799
0.56853135
0.56914289
0.5697195
0.57026653
0.57078962
0.57129469
0.57178784
0.57227486
0.57276039
0.57324663
0.57373311
0.5742186
0.57470406
0.57519055
0.57566545
0.57608445
0.57638542
0.57657165
0.57680878
0.3543478
0.32099491
0.30345492
0.29899956
0.30037703
0.30661401
0.31573996
0.32649489
0.33800912
0.34973391
0.36133521
0.37261803
0.38347532
0.39385443
0.40373594
0.41312031
0.42201962
0.43045236
0.43844025
0.44600626
0.45317347
0.45996432
0.46640029
0.47250163
0.47828735
0.48377516
0.48898157
0.49392188
0.49861035
0.50306018
0.50728368
0.51129228
0.51509664
0.51870672
0.52213185
0.52538074
0.52846162
0.53138221
0.5341498
0.53677131
0.53925327
0.54160191
0.54382314
0.54592262
0.54790574
0.54977762
0.55154316
0.55320704
0.55477371
0.55624744
0.55763234
0.55893237
0.56015139
0.56129315
0.56236131
0.56335946
0.56429117
0.56516008
0.5659699
0.56672447
0.5674278
0.56808415
0.56869809
0.56927461
0.56981918
0.57033777
0.57083671
0.57132245
0.57180118
0.57227842
0.57275865
0.57324503
0.57373911
0.57424038
0.57474514
0.57524383
0.57571815
0.57614489
0.57651632
0.57686696
0.21579381
0.2145187
0.2198824
0.23322493
0.25045483
0.26875678
0.28693188
0.30433292
0.32073215
0.33606614
0.35036016
0.3636745
0.37608273
0.38765992
0.39847762
0.40860166
0.41809157
0.42700069
0.43537657
0.44326161
0.45069355
0.45770609
0.46432933
0.47059029
0.47651323
0.48212004
0.48743052
0.49246263
0.49723273
0.50175574
0.50604535
0.51011412
0.51397364
0.51763462
0.521107
0.52440003
0.52752233
0.53048199
0.53328659
0.53594327
0.53845878
0.5408395
0.54309148
0.54522048
0.54723197
0.54913114
0.55092295
0.55261209
0.55420303
0.55570005
0.55710724
0.55842855
0.5596678
0.56082869
0.56191483
0.56292972
0.56387685
0.56475972
0.56558193
0.56634713
0.56705918
0.56772213
0.5683404
0.5689189
0.56946318
0.56997943
0.57047433
0.57095464
0.57142701
0.5718981
0.5723747
0.57286293
0.57336561
0.57387964
0.57439797
0.57491816
0.57544811
0.57599088
0.57650797
0.5769075
0.091613259
0.12139621
0.15867332
0.19218388
0.22218864
0.24859786
0.27203006
0.29294968
0.31177153
0.32882073
0.34435936
0.35859732
0.37170496
0.38382171
0.39506287
0.40552468
0.4152882
0.42442226
0.43298576
0.44102946
0.44859742
0.45572808
0.46245522
0.46880865
0.47481483
0.48049739
0.48587746
0.49097408
0.49580448
0.50038425
0.50472764
0.50884766
0.51275625
0.51646441
0.51998232
0.52331941
0.52648446
0.52948569
0.53233076
0.53502692
0.53758095
0.5399993
0.54228805
0.54445299
0.54649961
0.54843311
0.55025844
0.5519803
0.55360314
0.55513119
0.55656852
0.55791903
0.55918647
0.56037446
0.56148653
0.56252607
0.56349643
0.56440098
0.56524312
0.56602632
0.5667542
0.56743061
0.56805976
0.56864647
0.56919633
0.56971576
0.57021173
0.5706914
0.57116203
0.57163141
0.57210825
0.57260069
0.57311199
0.57363714
0.57416772
0.57470727
0.57527991
0.57590081
0.57650747
0.57693129
0.01042567
0.2973431
0.4689387
0.51525122
0.52442441
0.52475422
0.5244142
0.52552947
0.52704194
0.52852717
0.52999717
0.53143944
0.53285507
0.53425829
0.5356587
0.5370654
0.53848066
0.53990458
0.54133654
0.54277546
0.54421989
0.54566808
0.54711806
0.54856777
0.55001511
0.55145802
0.55289445
0.55432243
0.55574005
0.55714547
0.5585369
0.55991263
0.56127098
0.56261033
0.56392909
0.56522568
0.56649856
0.5677462
0.56896709
0.57015972
0.57132259
0.57245423
0.57355315
0.5746179
0.57564702
0.57663909
0.57759268
0.57850641
0.57937889
0.58020874
0.58099459
0.58173501
0.5824285
0.58307338
0.58366776
0.58420941
0.58469565
0.5851233
0.58548839
0.5857856
0.58600806
0.5861477
0.58619523
0.58614016
0.58597219
0.58568307
0.58527094
0.58474292
0.58412303
0.58345207
0.58279241
0.58222829
0.5818148
0.5816385
0.58158267
0.58163072
0.58161645
0.58115496
0.58079801
0.57800078
0.065654773
0.38364553
0.51815206
0.54238921
0.54295679
0.54099896
0.54016948
0.54033953
0.54055183
0.54085539
0.54125609
0.54181809
0.5425008
0.54327165
0.54410317
0.54499301
0.54593575
0.54692601
0.54795825
0.54902741
0.55012885
0.55125817
0.55241124
0.55358416
0.55477324
0.55597501
0.55718616
0.55840356
0.55962419
0.5608452
0.56206385
0.5632775
0.56448361
0.56567973
0.5668635
0.56803259
0.56918479
0.57031791
0.57142982
0.57251847
0.57358181
0.57461789
0.57562477
0.57660057
0.57754346
0.57845165
0.5793234
0.58015703
0.58095087
0.58170331
0.58241272
0.58307746
0.58369582
0.58426592
0.58478571
0.58525276
0.58566428
0.586017
0.58630691
0.5865287
0.58667564
0.58674002
0.58671311
0.58658541
0.58634807
0.58599494
0.58552661
0.58495294
0.58430048
0.58361126
0.58294941
0.582393
0.58199936
0.58182796
0.58177462
0.58178655
0.5817141
0.58122344
0.58072437
0.57794758
0.14907051
0.46272489
0.53748399
0.54983237
0.54823079
0.54724813
0.54728159
0.54781854
0.54823318
0.54874358
0.54924366
0.54979999
0.55038145
0.55100469
0.55166091
0.55235545
0.55308535
0.55384978
0.55464725
0.55547615
0.55633467
0.55722085
0.55813259
0.55906766
0.56002373
0.56099838
0.56198912
0.5629934
0.56400863
0.56503221
0.56606149
0.56709383
0.56812658
0.56915711
0.57018279
0.57120101
0.5722092
0.57320479
0.57418527
0.57514817
0.57609105
0.57701154
0.5779073
0.57877606
0.5796156
0.58042378
0.58119851
0.58193777
0.58263962
0.58330213
0.58392342
0.5845016
0.5850347
0.58552064
0.58595716
0.58634168
0.58667126
0.58694255
0.58715155
0.58729297
0.58736028
0.58734614
0.58724244
0.58704069
0.58673349
0.58631667
0.5857931
0.58517511
0.58449126
0.58378467
0.58312006
0.58257059
0.58219204
0.58202329
0.58196352
0.58193818
0.58180686
0.5812807
0.58065586
0.57789704
0.2282553
0.5086174
0.55123797
0.55823593
0.55548805
0.55564135
0.55573318
0.55628429
0.55655546
0.55697911
0.55734589
0.55778357
0.55823209
0.55871139
0.55920833
0.55973222
0.56028072
0.5608547
0.5614542
0.56207916
0.56272924
0.56340385
0.56410222
0.56482335
0.56556605
0.56632893
0.56711044
0.56790882
0.5687222
0.56954854
0.57038567
0.57123133
0.57208313
0.57293861
0.57379524
0.57465042
0.57550152
0.57634587
0.57718081
0.57800364
0.57881169
0.57960232
0.58037291
0.58112088
0.58184372
0.58253897
0.58320425
0.58383725
0.58443572
0.5849975
0.58552042
0.58600233
0.58644105
0.58683427
0.58717953