/*--------------------------------*- C++ -*----------------------------------*\
  =========                 |
  \\      /  F ield         | OpenFOAM: The Open Source CFD Toolbox
   \\    /   O peration     | Website:  https://openfoam.org
    \\  /    A nd           | Version:  12
     \\/     M anipulation  |
\*---------------------------------------------------------------------------*/
FoamFile
{
    format      ascii;
    class       volScalarField;
    location    "0.049";
    object      nut;
}
// * * * * * * * * * * * * * * * * * * * * * * * * * * * * * * * * * * * * * //

dimensions      [0 2 -1 0 0 0 0];

internalField   nonuniform List<scalar> 
16000
(
4.630242e-07
9.9117098e-06
1.9524005e-05
2.3638915e-05
1.8336366e-05
2.5211934e-05
1.7754344e-05
2.4332912e-05
1.890277e-05
2.6079643e-05
2.1889092e-05
2.5783215e-05
2.3471984e-05
2.412626e-05
2.3301297e-05
2.3175823e-05
2.293419e-05
2.2871613e-05
2.2885758e-05
2.2997913e-05
2.3200644e-05
2.3492997e-05
2.3872426e-05
2.4339295e-05
2.4895541e-05
2.5547268e-05
2.6302383e-05
2.7173648e-05
2.8176641e-05
2.9328175e-05
3.0646662e-05
3.2156501e-05
3.3889161e-05
3.5883413e-05
3.8186966e-05
4.0856733e-05
4.3960513e-05
4.7579098e-05
5.1812413e-05
5.6784247e-05
6.2639795e-05
6.9549771e-05
7.7729179e-05
8.7441089e-05
9.8997712e-05
0.0001127718
0.00012922367
0.00014891206
0.00017251474
0.00020085447
0.00023493384
0.00027597669
0.00032547228
0.00038524247
0.00045752586
0.00054509443
0.00065140483
0.00078082072
0.00093895456
0.0010207882
0.0010208115
0.0010207743
0.0010206671
0.0010204271
0.0010199975
0.0010192388
0.0010179065
0.001015708
0.0010125881
0.0010092059
0.0010070893
0.0010062734
0.0010061366
0.0010070034
0.0010082726
0.0010095106
0.0010100973
0.0010096387
0.0010070204
0.0010024279
4.2576167e-07
9.4083688e-06
1.981858e-05
2.1532957e-05
1.656242e-05
2.2613931e-05
1.5782784e-05
2.1328494e-05
1.6740275e-05
2.3068947e-05
1.9859957e-05
2.3274831e-05
2.1497903e-05
2.188484e-05
2.1241415e-05
2.1061137e-05
2.0859573e-05
2.0791054e-05
2.0805518e-05
2.0907153e-05
2.109347e-05
2.1363357e-05
2.1714733e-05
2.214804e-05
2.266471e-05
2.327044e-05
2.3972073e-05
2.4781085e-05
2.5712161e-05
2.6781629e-05
2.8006569e-05
2.9409215e-05
3.1018614e-05
3.2870575e-05
3.5009624e-05
3.7489134e-05
4.0373097e-05
4.373721e-05
4.7674253e-05
5.2300999e-05
5.7756466e-05
6.4200739e-05
7.1835408e-05
8.0910155e-05
9.1723559e-05
0.00010462838
0.0001200617
0.00013855583
0.00016075787
0.00018745413
0.00021960409
0.00025838408
0.00030523005
0.00036190511
0.00043058317
0.00051396902
0.00061545306
0.00073932313
0.00089109061
0.0010198474
0.0010198959
0.0010198488
0.0010197452
0.0010195159
0.0010191036
0.0010183753
0.0010171076
0.0010150434
0.0010121323
0.0010089407
0.0010069441
0.0010061909
0.0010061042
0.0010069423
0.0010081114
0.0010091923
0.0010095804
0.0010089899
0.0010063975
0.0010022198
3.7831302e-07
9.0184112e-06
1.8770262e-05
1.9668183e-05
1.48422e-05
1.9931062e-05
1.4065657e-05
1.8558564e-05
1.5065632e-05
2.0260213e-05
1.8125974e-05
2.0741675e-05
1.9493164e-05
1.9614054e-05
1.9119865e-05
1.8916776e-05
1.8747082e-05
1.8683253e-05
1.8700252e-05
1.8796029e-05
1.8969104e-05
1.9219082e-05
1.9544111e-05
1.9944795e-05
2.0422263e-05
2.0981961e-05
2.1629961e-05
2.2376636e-05
2.3235618e-05
2.4222747e-05
2.5354183e-05
2.6650425e-05
2.8138502e-05
2.9851644e-05
3.1831519e-05
3.4128203e-05
3.6802254e-05
3.9925275e-05
4.3583955e-05
4.7888027e-05
5.2971275e-05
5.8985394e-05
6.6120317e-05
7.4613103e-05
8.4751103e-05
9.6870533e-05
0.00011138875
0.00012881567
0.00014977268
0.00017501643
0.0002054709
0.00024227405
0.00028681979
0.00034082663
0.00040642019
0.00048625518
0.00058367554
0.00070292771
0.00084947148
0.0010190073
0.0010190804
0.0010190199
0.0010189117
0.0010186841
0.0010182743
0.0010175474
0.0010162922
0.0010142938
0.0010115494
0.0010085857
0.0010067604
0.0010060628
0.0010060641
0.0010068449
0.0010079166
0.0010088516
0.0010091141
0.001008366
0.001005814
0.0010020123
3.3991887e-07
8.7262842e-06
1.7833595e-05
1.8328696e-05
1.3356253e-05
1.7608058e-05
1.2545249e-05
1.6227652e-05
1.3573511e-05
1.78687e-05
1.6562541e-05
1.8493544e-05
1.7638358e-05
1.7564593e-05
1.7181732e-05
1.6976772e-05
1.6835074e-05
1.6781061e-05
1.6803296e-05
1.6896854e-05
1.7060411e-05
1.7294304e-05
1.7597023e-05
1.7969359e-05
1.8412321e-05
1.893124e-05
1.9531674e-05
2.0223126e-05
2.1018251e-05
2.1932502e-05
2.2981427e-05
2.418407e-05
2.5565825e-05
2.7157721e-05
2.8999023e-05
3.113699e-05
3.3629242e-05
3.654419e-05
3.9963716e-05
4.3991111e-05
4.8756185e-05
5.440433e-05
6.111627e-05
6.911816e-05
7.8689404e-05
9.0153838e-05
0.00010391378
0.00012046257
0.00014040297
0.00016447143
0.00019356737
0.00022880407
0.00027154972
0.00032349858
0.00038675245
0.00046394388
0.00055840061
0.00067436405
0.00081729509
0.00099430878
0.0010183581
0.0010182841
0.0010181676
0.0010179373
0.0010175236
0.0010167891
0.0010155337
0.001013585
0.0010109923
0.0010082375
0.0010065559
0.0010058718
0.0010059793
0.0010066808
0.0010076486
0.0010084397
0.0010085789
0.0010077427
0.0010052966
0.0010018364
3.057489e-07
8.5084472e-06
1.7017132e-05
1.8336174e-05
1.3357373e-05
1.5580517e-05
1.1207829e-05
1.4225587e-05
1.2287758e-05
1.5804366e-05
1.5168507e-05
1.6465689e-05
1.5903147e-05
1.5697836e-05
1.5396938e-05
1.5204527e-05
1.5085942e-05
1.5042567e-05
1.5068945e-05
1.5159809e-05
1.5313723e-05
1.5531719e-05
1.5812795e-05
1.615799e-05
1.6568346e-05
1.7049101e-05
1.7605538e-05
1.8246442e-05
1.8983513e-05
1.9831786e-05
2.0806403e-05
2.1925195e-05
2.3212207e-05
2.469657e-05
2.641549e-05
2.8413781e-05
3.0746464e-05
3.3479368e-05
3.6690766e-05
4.0477902e-05
4.4967279e-05
5.029959e-05
5.6648435e-05
6.4229962e-05
7.3317652e-05
8.4225913e-05
9.7345049e-05
0.00011315546
0.00013224544
0.00015533712
0.00018331164
0.00021726535
0.00025854956
0.00030884522
0.00037024404
0.00044537211
0.00053755861
0.00065106055
0.00079136953
0.00096563993
0.0010177273
0.0010176383
0.0010175071
0.0010172651
0.0010168361
0.0010160797
0.0010148069
0.0010128864
0.0010104261
0.0010078732
0.0010063182
0.0010056581
0.0010058373
0.0010064662
0.0010073273
0.0010079866
0.0010080194
0.0010071021
0.0010048256
0.00100168
2.8082092e-07
8.3761245e-06
1.636487e-05
1.8096708e-05
1.3130936e-05
1.380351e-05
1.0623009e-05
1.257001e-05
1.144356e-05
1.4065692e-05
1.3944746e-05
1.4682625e-05
1.4314882e-05
1.4032208e-05
1.3783143e-05
1.3605871e-05
1.350229e-05
1.3465727e-05
1.3492893e-05
1.3578944e-05
1.3722431e-05
1.3924739e-05
1.4185317e-05
1.4505368e-05
1.4886091e-05
1.5332513e-05
1.5849781e-05
1.6446095e-05
1.7132241e-05
1.7922815e-05
1.8832729e-05
1.9878838e-05
2.1084118e-05
2.2476134e-05
2.409041e-05
2.5969752e-05
2.8167001e-05
3.0745953e-05
3.3782565e-05
3.7368928e-05
4.1628618e-05
4.6699296e-05
5.2750031e-05
5.9988136e-05
6.8683371e-05
7.9144127e-05
9.1752219e-05
0.00010697953
0.00012540466
0.00014774242
0.00017486319
0.00020785561
0.00024806475
0.00029717092
0.000357272
0.00043100654
0.00052172604
0.00063372653
0.00077256285
0.00094547735
0.0010171793
0.001017073
0.0010169201
0.0010166568
0.001016201
0.0010154118
0.0010141125
0.0010122082
0.0010098625
0.0010075046
0.0010060645
0.0010054502
0.0010056464
0.0010062073
0.0010069609
0.0010075053
0.00100745
0.001006498
0.0010043978
0.0010015469
2.5666944e-07
8.3020287e-06
1.5856011e-05
1.7111435e-05
1.3028475e-05
1.2193899e-05
1.0660255e-05
1.1590635e-05
1.098155e-05
1.2551618e-05
1.2842878e-05
1.3105791e-05
1.2839672e-05
1.2523149e-05
1.2303483e-05
1.2141678e-05
1.2049122e-05
1.2018268e-05
1.2046045e-05
1.2128068e-05
1.2262909e-05
1.2452062e-05
1.2695183e-05
1.2917381e-05
1.3263586e-05
1.3672625e-05
1.4148993e-05
1.4700188e-05
1.5335899e-05
1.6069959e-05
1.6917022e-05
1.7893003e-05
1.9019902e-05
2.0323799e-05
2.1838673e-05
2.3605507e-05
2.5675121e-05
2.8109353e-05
3.0982655e-05
3.4642547e-05
3.8716203e-05
4.3576353e-05
4.9390123e-05
5.6357421e-05
6.4745622e-05
7.4860362e-05
8.7078324e-05
0.00010186685
0.00011979884
0.00014158816
0.00016810104
0.00020042668
0.00023991322
0.00028825137
0.00034755918
0.00042050488
0.00051048193
0.00062184743
0.00076024879
0.0009330629
0.0010167063
0.0010165786
0.0010163968
0.0010161017
0.001015608
0.0010147779
0.001013449
0.0010115538
0.001009304
0.0010071407
0.0010058098
0.0010052427
0.0010054266
0.0010059166
0.0010065664
0.0010070109
0.0010068856
0.0010059387
0.0010040277
0.0010014488
2.3026616e-07
8.260581e-06
1.5420249e-05
1.5550091e-05
1.1900387e-05
1.062669e-05
9.1844061e-06
1.0333451e-05
9.6234785e-06
1.1283451e-05
1.1731372e-05
1.1656183e-05
1.143036e-05
1.1121274e-05
1.0925535e-05
1.0783688e-05
1.0704547e-05
1.0682229e-05
1.0648835e-05
1.0714182e-05
1.0832498e-05
1.1003983e-05
1.1226947e-05
1.1501103e-05
1.1830705e-05
1.2218892e-05
1.2670122e-05
1.3191865e-05
1.3793251e-05
1.4487669e-05
1.5289941e-05
1.6215474e-05
1.7285787e-05
1.8526013e-05
1.996921e-05
2.1655198e-05
2.3633565e-05
2.5964927e-05
2.8723166e-05
3.1998137e-05
3.589925e-05
4.056494e-05
4.6162364e-05
5.3331796e-05
6.1498312e-05
7.136846e-05
8.3317425e-05
9.781179e-05
0.00011542283
0.00013687
0.0001630222
0.00019497766
0.00023409765
0.00028209466
0.0003411214
0.00041389402
0.0005038702
0.00061549388
0.00075453739
0.00092856243
0.0010162975
0.0010161433
0.0010159252
0.001015589
0.001015048
0.0010141724
0.0010128165
0.001010931
0.0010087563
0.0010067932
0.0010055628
0.0010050322
0.0010051908
0.0010056036
0.001006155
0.0010065107
0.0010063328
0.0010054291
0.0010037288
0.0010013908
2.1179562e-07
8.2186965e-06
1.4963589e-05
1.3604351e-05
9.7792728e-06
9.4482699e-06
7.5743245e-06
8.8066118e-06
8.9763836e-06
1.014501e-05
1.0601234e-05
1.0306862e-05
1.0099829e-05
9.822182e-06
9.6506766e-06
9.4646931e-06
9.3762706e-06
9.3493887e-06
9.375762e-06
9.4526969e-06
9.5762946e-06
9.7472383e-06
9.9655356e-06
1.023085e-05
1.0547288e-05
1.0918767e-05
1.1349876e-05
1.1848092e-05
1.2422168e-05
1.3085033e-05
1.3851778e-05
1.4737534e-05
1.576363e-05
1.6954536e-05
1.8342739e-05
1.9967348e-05
2.1877204e-05
2.4132249e-05
2.680569e-05
2.998653e-05
3.3784476e-05
3.833593e-05
4.3810845e-05
5.0406065e-05
5.8374014e-05
6.8028754e-05
8.0452112e-05
9.4794494e-05
0.00011225398
0.00013356184
0.00015959668
0.00019147443
0.0002305796
0.00027865821
0.00033791233
0.00041112482
0.00050184224
0.00061462496
0.00075540677
0.00093199902
0.0010159416
0.0010157543
0.0010154936
0.0010151082
0.0010145127
0.0010135887
0.0010122119
0.0010103459
0.0010082275
0.0010064717
0.0010053327
0.0010048279
0.0010049451
0.0010052792
0.0010057362
0.0010060098
0.0010057931
0.0010049663
0.0010034921
0.001001361
1.9499798e-07
8.1758177e-06
1.347294e-05
1.1855105e-05
7.9098449e-06
8.3847767e-06
6.7405827e-06
7.9441239e-06
8.3063127e-06
9.0695645e-06
9.4787885e-06
9.0747989e-06
8.8742979e-06
8.550483e-06
8.370172e-06
8.2540525e-06
8.1981977e-06
8.1949518e-06
8.2383594e-06
8.3249562e-06
8.4547574e-06
8.6263605e-06
8.8414366e-06
9.1001254e-06
9.4067818e-06
9.7657212e-06
1.0181667e-05
1.066225e-05
1.1215987e-05
1.1855377e-05
1.2595837e-05
1.3452528e-05
1.4446814e-05
1.5602783e-05
1.6952673e-05
1.8535292e-05
2.039918e-05
2.2604146e-05
2.5223662e-05
2.8347112e-05
3.2084296e-05
3.6571275e-05
4.1981287e-05
4.8511585e-05
5.6417421e-05
6.601583e-05
7.7698231e-05
9.1925011e-05
0.00011028142
0.00013165306
0.00015781508
0.00018990959
0.00022935543
0.00027794464
0.00033794378
0.00041222466
0.00050444793
0.00061932659
0.00076299704
0.00094356359
0.0010156255
0.0010153992
0.001015091
0.0010146507
0.0010139952
0.0010130198
0.0010116275
0.0010098008
0.0010077531
0.0010061812
0.0010051228
0.001004633
0.0010047009
0.0010049536
0.0010053207
0.0010055153
0.0010052681
0.0010045351
0.0010032835
0.0010013364
1.7978326e-07
8.1287034e-06
1.069885e-05
9.8206305e-06
6.4969421e-06
7.4580083e-06
6.1398363e-06
7.1328031e-06
7.7640875e-06
8.0915218e-06
8.3760937e-06
7.8678009e-06
7.6214509e-06
7.3948249e-06
7.2602576e-06
7.1815382e-06
7.1537398e-06
7.1700856e-06
7.2289682e-06
7.3261989e-06
7.4604328e-06
7.633704e-06
7.8475709e-06
8.1024971e-06
8.4029316e-06
8.7536205e-06
9.1595512e-06
9.6285571e-06
1.0169113e-05
1.0793366e-05
1.1458112e-05
1.2286766e-05
1.3250958e-05
1.4374377e-05
1.5689013e-05
1.7233418e-05
1.9055917e-05
2.1216258e-05
2.3788323e-05
2.6862191e-05
3.0548817e-05
3.526019e-05
4.0663236e-05
4.7198577e-05
5.5124614e-05
6.4762816e-05
7.6517526e-05
9.0862867e-05
0.00010839956
0.00012988124
0.00015766961
0.0001902793
0.0002304273
0.0002799653
0.00034124197
0.00041723812
0.00051175986
0.00062971208
0.00077747737
0.00096348075
0.001015337
0.0010150671
0.0010147079
0.0010142097
0.0010134921
0.0010124632
0.0010110566
0.001009288
0.0010073449
0.0010059242
0.0010049344
0.0010044484
0.0010044617
0.0010046351
0.0010049189
0.0010050378
0.001004764
0.0010041213
0.0010030752
0.0010012888
1.6644052e-07
8.0808034e-06
8.4392564e-06
8.3534444e-06
5.710899e-06
6.6037425e-06
5.6318599e-06
6.4202534e-06
7.2128059e-06
7.1786472e-06
7.1812773e-06
6.7486336e-06
6.5467838e-06
6.3791459e-06
6.2835104e-06
6.2353238e-06
6.232104e-06
6.267559e-06
6.3383827e-06
6.4449115e-06
6.5856211e-06
6.7622095e-06
6.9771568e-06
7.2314359e-06
7.5295757e-06
7.8429211e-06
8.237271e-06
8.6939824e-06
9.2213939e-06
9.8312152e-06
1.0537552e-05
1.1358768e-05
1.2315557e-05
1.3431683e-05
1.4739446e-05
1.6277813e-05
1.8095726e-05
2.0253765e-05
2.2827364e-05
2.5908627e-05
2.9611317e-05
3.4077703e-05
3.9482257e-05
4.6034473e-05
5.3998043e-05
6.4255468e-05
7.6200241e-05
9.0803759e-05
0.00010868245
0.00013062045
0.00015758596
0.00019258606
0.00023380706
0.00028474517
0.00034784937
0.00042623435
0.00052388103
0.00064592761
0.0007990544
0.00099203394
0.0010150665
0.001014749
0.0010143377
0.0010137822
0.0010130055
0.0010119265
0.0010105043
0.0010087977
0.0010070043
0.0010056997
0.0010047649
0.0010042837
0.0010042313
0.0010043305
0.0010045358
0.0010045851
0.0010042883
0.0010037223
0.0010028623
0.0010012138
1.5447991e-07
8.022346e-06
6.7097394e-06
7.3257279e-06
5.0842408e-06
5.8352884e-06
5.1950548e-06
5.790523e-06
6.5563592e-06
6.1439568e-06
6.102559e-06
5.7690631e-06
5.6082054e-06
5.4882388e-06
5.4260555e-06
5.4057062e-06
5.4225105e-06
5.4743929e-06
5.5584152e-06
5.6748939e-06
5.8232004e-06
6.0052499e-06
6.197755e-06
6.4489687e-06
6.7436363e-06
7.0859117e-06
7.4828072e-06
7.9418323e-06
8.4715428e-06
9.0838485e-06
9.793005e-06
1.0617155e-05
1.1578231e-05
1.270037e-05
1.4016434e-05
1.556618e-05
1.7399709e-05
1.9578953e-05
2.218162e-05
2.5302886e-05
2.9059582e-05
3.3597487e-05
3.9100525e-05
4.5784232e-05
5.3921683e-05
6.3853767e-05
7.6005908e-05
9.0895607e-05
0.00011012643
0.00013272731
0.00016054706
0.00019485417
0.00023950577
0.00029230952
0.00035781025
0.00043928248
0.00054091202
0.000668107
0.00082789954
0.0010151422
0.0010148065
0.0010144392
0.0010139769
0.0010133681
0.0010125415
0.0010114256
0.0010099921
0.0010083285
0.0010067243
0.0010055076
0.0010046148
0.0010041365
0.001004015
0.0010040433
0.0010041702
0.001004156
0.0010038429
0.0010033405
0.0010026493
0.0010011485
1.4380705e-07
7.9498789e-06
5.3773627e-06
6.3926654e-06
4.5257409e-06
5.1522438e-06
4.8211841e-06
5.1486011e-06
5.7328824e-06
5.2446545e-06
5.1556344e-06
4.9115109e-06
4.7892283e-06
4.7090462e-06
4.6763261e-06
4.6801257e-06
4.7167879e-06
4.7847676e-06
4.8820174e-06
4.9907755e-06
5.1425733e-06
5.3279461e-06
5.5491451e-06
5.8091203e-06
6.1121225e-06
6.4626899e-06
6.8677624e-06
7.3354765e-06
7.8746158e-06
8.4972547e-06
9.2177775e-06
1.0054559e-05
1.0980178e-05
1.2109349e-05
1.3434692e-05
1.4996742e-05
1.6846978e-05
1.9048771e-05
2.1682182e-05
2.4846015e-05
2.8661236e-05
3.3531025e-05
3.9186331e-05
4.6066978e-05
5.4456767e-05
6.4708335e-05
7.7270238e-05
9.26869e-05
0.00011163108
0.00013618519
0.00016511493
0.00020083742
0.00024502435
0.00030266864
0.00037114897
0.00045642323
0.00056291231
0.00069632034
0.00086406643
0.0010149151
0.0010145502
0.0010141344
0.0010136242
0.0010129684
0.0010121034
0.0010109693
0.0010095445
0.0010079193
0.0010064936
0.0010053509
0.0010044915
0.001003993
0.0010038141
0.0010037735
0.0010038179
0.0010037444
0.0010034243
0.0010029824
0.0010024613
0.0010011456
1.3428664e-07
7.8206493e-06
4.3602423e-06
5.5620169e-06
4.0262773e-06
4.5437897e-06
4.4929008e-06
4.4522429e-06
4.9025011e-06
4.4422679e-06
4.3345379e-06
4.1639613e-06
4.078347e-06
4.0325371e-06
4.026635e-06
4.0529113e-06
4.1083543e-06
4.175738e-06
4.281402e-06
4.4170099e-06
4.5834172e-06
4.7821465e-06
5.0161375e-06
5.2885499e-06
5.6042003e-06
5.9678947e-06
6.386644e-06
6.8484232e-06
7.3977966e-06
8.0314017e-06
8.763676e-06
9.6130251e-06
1.0601964e-05
1.1758799e-05
1.3117327e-05
1.4719454e-05
1.6619052e-05
1.8881974e-05
2.1591607e-05
2.4851977e-05
2.8789939e-05
3.3565704e-05
3.937365e-05
4.6454104e-05
5.5104505e-05
6.6244363e-05
7.9330642e-05
9.5411127e-05
0.00011519783
0.00013957947
0.0001712608
0.00020871034
0.00025508867
0.00031262677
0.00038783907
0.0004776266
0.00058984129
0.00073049837
0.00090740694
0.0010146916
0.0010142922
0.0010138329
0.0010132795
0.0010125829
0.0010116874
0.0010105473
0.0010091541
0.0010075926
0.0010063043
0.0010052291
0.0010043972
0.0010038648
0.0010036261
0.0010035194
0.0010034782
0.0010033506
0.0010030383
0.001002658
0.001002289
0.0010012259
1.2583696e-07
7.4994185e-06
3.6558348e-06
4.8246083e-06
3.5812157e-06
4.0043783e-06
3.9813105e-06
3.8221674e-06
4.1028773e-06
3.7326856e-06
3.6306065e-06
3.5186302e-06
3.4673811e-06
3.4518914e-06
3.4705038e-06
3.5049138e-06
3.5723967e-06
3.6687764e-06
3.793269e-06
3.9461309e-06
4.1288477e-06
4.3434646e-06
4.5933434e-06
4.881934e-06
5.2026524e-06
5.5802749e-06
6.013421e-06
6.51021e-06
7.0808508e-06
7.7375097e-06
8.4950127e-06
9.3725274e-06
1.0393516e-05
1.1587396e-05
1.2990343e-05
1.4645879e-05
1.6610862e-05
1.8954397e-05
2.1763523e-05
2.5148755e-05
2.9242483e-05
3.4213612e-05
4.0270039e-05
4.766414e-05
5.6711881e-05
6.7803387e-05
8.2145405e-05
9.9026697e-05
0.00011981879
0.00014547322
0.00017715555
0.00021840813
0.00026734778
0.00032812275
0.00040373558
0.00050273817
0.00062148623
0.00077033779
0.00095746386
0.0010144636
0.0010140303
0.0010135325
0.0010129414
0.0010122101
0.0010112881
0.0010101415
0.0010087855
0.0010073333
0.0010061534
0.0010051424
0.0010043364
0.0010037739
0.0010034707
0.0010032822
0.0010031597
0.0010029867
0.001002701
0.0010023892
0.0010020963
0.0010013417
1.1853331e-07
7.0900533e-06
3.2099674e-06
4.1705179e-06
3.1847119e-06
3.377485e-06
3.5281977e-06
3.2450611e-06
3.3801895e-06
3.1162475e-06
3.0347562e-06
2.9690425e-06
2.9489888e-06
2.9605552e-06
2.9867602e-06
3.0496111e-06
3.1401614e-06
3.257243e-06
3.4009823e-06
3.5723665e-06
3.7734255e-06
4.0064888e-06
4.2671189e-06
4.5725242e-06
4.9219471e-06
5.3210861e-06
5.7767935e-06
6.2974823e-06
6.8935751e-06
7.5780156e-06
8.366117e-06
9.2778813e-06
1.0337866e-05
1.1577003e-05
1.2977933e-05
1.4684299e-05
1.6711676e-05
1.9132974e-05
2.2171861e-05
2.57083e-05
2.9990515e-05
3.51962e-05
4.1548057e-05
4.9313421e-05
5.8826314e-05
7.0502989e-05
8.4858337e-05
0.00010253047
0.00012542288
0.00015253796
0.00018605577
0.0002275518
0.00028165108
0.00034607746
0.00042626932
0.00053142255
0.00065738974
0.00081521003
0.0010133578
0.0010142286
0.0010137614
0.0010132304
0.0010126076
0.0010118493
0.0010109087
0.0010097567
0.0010084258
0.0010071329
0.001006038
0.0010050868
0.0010043079
0.0010037207
0.0010033223
0.0010030722
0.0010028767
0.00100267
0.0010024254
0.0010021921
0.0010019735
0.0010014037
1.1263601e-07
6.1469279e-06
2.8285262e-06
3.5766277e-06
2.8406671e-06
2.7997002e-06
3.0776515e-06
2.7228491e-06
2.7601235e-06
2.589762e-06
2.5356622e-06
2.5073982e-06
2.5080017e-06
2.5370454e-06
2.597252e-06
2.6845944e-06
2.7972253e-06
2.9349981e-06
3.0987907e-06
3.2900334e-06
3.5060587e-06
3.7577989e-06
4.0454107e-06
4.3729607e-06
4.7453075e-06
5.1683439e-06
5.6492372e-06
6.1967305e-06
6.821581e-06
7.520768e-06
8.3381612e-06
9.2822678e-06
1.0378687e-05
1.1659522e-05
1.3164974e-05
1.4945371e-05
1.7063053e-05
1.9596203e-05
2.2642055e-05
2.6321074e-05
3.0783302e-05
3.647493e-05
4.3164274e-05
5.1353301e-05
6.1395372e-05
7.3732756e-05
8.8914071e-05
0.00010762144
0.00013190296
0.00016064547
0.00019620115
0.00024024347
0.00029774541
0.00036616854
0.00045134511
0.00055756468
0.00069679685
0.00086409784
0.0010144552
0.0010139821
0.0010134825
0.0010129233
0.0010122756
0.0010115005
0.0010105574
0.0010094225
0.0010081382
0.001006978
0.0010059572
0.0010050565
0.0010042935
0.0010036836
0.0010032269
0.0010029029
0.0010026433
0.0010024162
0.0010022095
0.0010020422
0.0010018759
0.0010014017
1.0772672e-07
4.2853211e-06
2.4828304e-06
3.0260809e-06
2.4101644e-06
2.3156053e-06
2.6063203e-06
2.2585307e-06
2.2444423e-06
2.1465513e-06
2.1227086e-06
2.1196444e-06
2.1479682e-06
2.2070423e-06
2.2928642e-06
2.4031431e-06
2.5372466e-06
2.6957114e-06
2.8772371e-06
3.0878372e-06
3.3285626e-06
3.6022777e-06
3.912464e-06
4.2633509e-06
4.6600364e-06
5.1086633e-06
5.6166879e-06
6.1839271e-06
6.8365247e-06
7.5819453e-06
8.437482e-06
9.4246345e-06
1.0570524e-05
1.190925e-05
1.348362e-05
1.5347077e-05
1.7566183e-05
2.0223937e-05
2.3423867e-05
2.7294813e-05
3.199697e-05
3.7728659e-05
4.5068908e-05
5.3725278e-05
6.4350263e-05
7.7413884e-05
9.3499743e-05
0.00011333476
0.00013782551
0.00016961203
0.00020736391
0.0002541414
0.00031218581
0.00038791907
0.00047834512
0.00059102163
0.0007386422
0.00091558682
0.0010142097
0.0010137186
0.0010131913
0.0010126086
0.0010119426
0.0010111603
0.0010102278
0.0010091282
0.0010079112
0.0010068609
0.0010059087
0.0010050511
0.0010042974
0.0010036621
0.0010031536
0.001002764
0.0010024675
0.001002232
0.0010020411
0.0010019081
0.0010017745
0.0010013492
1.0249866e-07
3.5344018e-06
2.1229017e-06
2.5203228e-06
2.0578821e-06
1.9113068e-06
2.1231763e-06
1.8518465e-06
1.8253399e-06
1.7823482e-06
1.7846357e-06
1.8122293e-06
1.8718781e-06
1.9573549e-06
2.0663275e-06
2.1979523e-06
2.3525003e-06
2.5291831e-06
2.7327528e-06
2.9643596e-06
3.2265514e-06
3.5224111e-06
3.8556223e-06
4.2305807e-06
4.6525631e-06
5.1279388e-06
5.6581864e-06
6.2625766e-06
6.948567e-06
7.7306521e-06
8.6270776e-06
9.6606455e-06
1.0860068e-05
1.2261491e-05
1.3910477e-05
1.5864179e-05
1.819371e-05
2.098743e-05
2.4355532e-05
2.8434657e-05
3.3395015e-05
3.9733206e-05
4.7201942e-05
5.6358184e-05
6.7605575e-05
8.1442778e-05
9.8489231e-05
0.00011951605
0.00014683224
0.00017919289
0.00021923629
0.00026885358
0.00033040928
0.00041069033
0.00050645886
0.00062564329
0.00078157157
0.00096794838
0.0010139471
0.0010134372
0.001012887
0.0010122849
0.0010116058
0.001010821
0.0010099027
0.0010088449
0.0010077321
0.0010067742
0.0010058863
0.001005067
0.0010043174
0.0010036535
0.0010030974
0.0010026646
0.0010023514
0.0010021089
0.0010019024
0.0010017669
0.0010016417
0.0010012408
9.8654937e-08
2.8218792e-06
1.8116978e-06
2.0145107e-06
1.7664171e-06
1.5655149e-06
1.6776214e-06
1.5074798e-06
1.4955159e-06
1.4958936e-06
1.5247448e-06
1.5850654e-06
1.6710074e-06
1.7791264e-06
1.9085401e-06
2.0594907e-06
2.2319614e-06
2.429073e-06
2.6524218e-06
2.9043488e-06
3.1876487e-06
3.5055864e-06
3.8619853e-06
4.2613676e-06
4.7091531e-06
5.2083737e-06
5.7723133e-06
6.4085216e-06
7.1291155e-06
7.9493093e-06
8.8884277e-06
9.9706485e-06
1.1226447e-05
1.2694148e-05
1.4422028e-05
1.6470914e-05
1.891701e-05
2.1854139e-05
2.5399779e-05
2.9699048e-05
3.516205e-05
4.1604779e-05
4.9490974e-05
5.9166329e-05
7.1057282e-05
8.5692645e-05
0.00010372791
0.00012597884
0.00015484365
0.00018907618
0.00023143182
0.00028389646
0.00034895091
0.00043368053
0.00053467773
0.0006601654
0.0008239796
0.0010142024
0.0010136696
0.0010131402
0.0010125714
0.0010119538
0.001011266
0.0010104839
0.0010095871
0.0010085828
0.0010075871
0.0010067064
0.0010058792
0.0010050967
0.001004354
0.0010036682
0.0010030753
0.0010026112
0.0010022762
0.0010020161
0.0010017716
0.0010016058
0.0010014603
0.0010010857
9.6394213e-08
2.1999504e-06
1.5410731e-06
1.5338714e-06
1.4978315e-06
1.2701035e-06
1.3151698e-06
1.2326544e-06
1.2479907e-06
1.2790821e-06
1.3409942e-06
1.4270315e-06
1.5342114e-06
1.6612321e-06
1.8083724e-06
1.9766609e-06
2.1669788e-06
2.382308e-06
2.624499e-06
2.8961164e-06
3.2001019e-06
3.5398431e-06
3.9192712e-06
4.3430134e-06
4.8166035e-06
5.346769e-06
5.9418048e-06
6.6120256e-06
7.3619228e-06
8.2208504e-06
9.2034629e-06
1.0335401e-05
1.1649027e-05
1.3185036e-05
1.4994471e-05
1.7210929e-05
1.9795726e-05
2.2902634e-05
2.6657016e-05
3.1214024e-05
3.676544e-05
4.3548052e-05
5.1855629e-05
6.2051527e-05
7.4585665e-05
9.0015879e-05
0.0001090332
0.00013365285
0.00016283827
0.00019889805
0.00024349554
0.00029870198
0.00037057013
0.00045597523
0.00056186283
0.00069317791
0.00086410263
0.0010139218
0.0010133808
0.001012833
0.0010122507
0.0010116232
0.0010109334
0.0010101636
0.0010093004
0.0010083563
0.0010074574
0.001006644
0.0010058724
0.0010051275
0.0010044022
0.0010037134
0.0010031022
0.0010026076
0.0010022268
0.0010019076
0.0010016151
0.0010014018
0.0010012328
0.001000886
9.6502328e-08
1.6699766e-06
1.3127078e-06
1.1661693e-06
1.227742e-06
1.0229507e-06
1.0491437e-06
1.0294714e-06
1.0730048e-06
1.1333731e-06
1.2191696e-06
1.3246488e-06
1.4487632e-06
1.5916743e-06
1.7544544e-06
1.9386167e-06
2.1457065e-06
2.3783049e-06
2.6386066e-06
2.9292907e-06
3.2533887e-06
3.614372e-06
4.0162634e-06
4.4637981e-06
4.9626451e-06
5.5197081e-06
6.1435285e-06
6.8447905e-06
7.6369528e-06
8.5370503e-06
9.5666408e-06
1.0753064e-05
1.2130828e-05
1.3743399e-05
1.5645298e-05
1.7904687e-05
2.0606572e-05
2.3856972e-05
2.7787432e-05
3.2561259e-05
3.8380787e-05
4.5495786e-05
5.4212945e-05
6.4913633e-05
7.8068443e-05
9.5040376e-05
0.00011514191
0.00013992343
0.0001705031
0.00020827051
0.00025494998
0.00031561656
0.00038757949
0.00047663436
0.00058686298
0.00073029709
0.00090019405
0.001013637
0.0010130854
0.0010125246
0.0010119347
0.0010113048
0.0010106208
0.0010098684
0.0010090385
0.0010081478
0.0010073285
0.0010065731
0.0010058518
0.001005147
0.0010044524
0.0010037825
0.001003169
0.0010026369
0.0010021803
0.0010017716
0.0010014129
0.0010011536
0.0010009862
0.0010006705
9.9779576e-08
1.2374847e-06
1.1235199e-06
8.9733715e-07
1.0704498e-06
8.1922083e-07
8.6652031e-07
8.9162964e-07
9.5778962e-07
1.0411163e-06
1.1442128e-06
1.2646489e-06
1.4028159e-06
1.5597187e-06
1.7368389e-06
1.935908e-06
2.158893e-06
2.4078445e-06
2.6854147e-06
2.9942666e-06
3.3375011e-06
3.7186676e-06
4.1418836e-06
4.6120019e-06
5.1348413e-06
5.7174993e-06
6.3687747e-06
7.0997444e-06
7.9244051e-06
8.8605499e-06
9.9307222e-06
1.1163584e-05
1.2595346e-05
1.4271647e-05
1.6249742e-05
1.8601227e-05
2.1415296e-05
2.4802774e-05
2.8901068e-05
3.3880288e-05
4.0223261e-05
4.7705585e-05
5.6870696e-05
6.8117511e-05
8.1938043e-05
9.894054e-05
0.00011987777
0.00014568187
0.00017750436
0.00021880368
0.00026766514
0.00032800904
0.00040256305
0.00049468887
0.00061444713
0.00075602699
0.00093057283
0.0010133588
0.0010127968
0.0010122255
0.0010116318
0.0010110048
0.0010103311
0.0010095973
0.0010087959
0.0010079479
0.0010071922
0.0010064855
0.001005809
0.0010051457
0.0010044902
0.0010038512
0.0010032453
0.0010026789
0.0010021412
0.0010016326
0.0010012049
0.0010009273
0.00100076
0.0010004968
1.0633008e-07
9.5473286e-07
9.5849966e-07
7.5923306e-07
7.6265435e-07
6.9872829e-07
7.4427246e-07
8.0436513e-07
8.8766863e-07
9.8702511e-07
1.1031497e-06
1.2359627e-06
1.3865364e-06
1.5561986e-06
1.7465542e-06
1.9593938e-06
2.1967186e-06
2.4607576e-06
2.7540078e-06
3.0792792e-06
3.4397609e-06
3.839111e-06
4.2815811e-06
4.7721947e-06
5.3169945e-06
5.9212955e-06
6.5972336e-06
7.3549525e-06
8.2162456e-06
9.1883059e-06
1.0299683e-05
1.1580475e-05
1.3068677e-05
1.4812109e-05
1.6870707e-05
1.9319308e-05
2.2251042e-05
2.578151e-05
3.005388e-05
3.5245218e-05
4.1574289e-05
4.93112e-05
5.8789141e-05
7.0417319e-05
8.4702579e-05
0.00010226993
0.00012499419
0.00015183069
0.00018489241
0.00022564867
0.00027591337
0.00033792631
0.00041444423
0.00051368698
0.00063095804
0.00077541427
0.00095309016
0.0010131085
0.0010125341
0.0010119511
0.0010113515
0.0010107256
0.0010100613
0.0010093459
0.001008572
0.0010077603
0.0010070517
0.0010063845
0.001005746
0.0010051201
0.0010045011
0.0010038919
0.001003299
0.0010027196
0.0010021409
0.0010015718
0.0010010804
0.0010008244
0.0010005874
0.0010003246
1.2081716e-07
9.5967499e-07
7.9948654e-07
5.625879e-07
6.0601009e-07
6.0911406e-07
6.7275276e-07
7.5152163e-07
8.4825417e-07
9.5972157e-07
1.0869294e-06
1.2307091e-06
1.3923619e-06
1.5733089e-06
1.7751805e-06
1.9997928e-06
2.2491766e-06
2.5256044e-06
2.8316267e-06
3.1701174e-06
3.5443359e-06
3.958014e-06
4.4154804e-06
4.9218398e-06
5.4832258e-06
6.10715e-06
6.8029652e-06
7.5824627e-06
8.4606311e-06
9.4565673e-06
1.0594574e-05
1.190554e-05
1.3428501e-05
1.5212601e-05
1.7319406e-05
1.9825735e-05
2.2827112e-05
2.6441962e-05
3.0816765e-05
3.61324e-05
4.2612048e-05
5.0892587e-05
6.0665462e-05
7.2647798e-05
8.7358381e-05
0.00010543579
0.00012766835
0.00015502922
0.00018871957
0.00023021941
0.00028135629
0.00034755672
0.00042578005
0.00052212001
0.00064071039
0.00078654347
0.00096556716
0.0010129128
0.0010123253
0.0010117284
0.0010111178
0.0010104857
0.0010098226
0.001009118
0.0010083673
0.0010076011
0.001006924
0.0010062875
0.0010056774
0.0010050792
0.0010044859
0.0010038972
0.0010033164
0.0010027428
0.0010021715
0.0010016115
0.0010011102
0.0010007356
0.0010004947
0.0010002817
1.1073118e-07
6.1840711e-07
6.3361719e-07
4.6585752e-07
5.085042e-07
5.5432378e-07
6.329624e-07
7.2529428e-07
8.3266047e-07
9.5440684e-07
1.0916179e-06
1.2453534e-06
1.4169397e-06
1.6078516e-06
1.819753e-06
2.054507e-06
2.3142006e-06
2.6011393e-06
2.9179859e-06
3.2676673e-06
3.653516e-06
4.0793387e-06
4.5495418e-06
5.0693113e-06
5.6448709e-06
6.2838366e-06
6.9956899e-06
7.7923932e-06
8.6961758e-06
9.7156174e-06
1.0880333e-05
1.2222002e-05
1.3780606e-05
1.5606426e-05
1.7762384e-05
2.032693e-05
2.3397526e-05
2.7094924e-05
3.1568407e-05
3.7002216e-05
4.3623407e-05
5.1711436e-05
6.1609907e-05
7.3742881e-05
8.8631914e-05
0.00010691992
0.00012939945
0.00015842562
0.00019269543
0.00023486198
0.00028675881
0.0003506344
0.00042924385
0.00052595187
0.00064484746
0.0007908621
0.00096986309
0.0010127917
0.0010121963
0.0010115892
0.0010109679
0.0010103266
0.0010096588
0.0010089568
0.00100822
0.0010074887
0.0010068353
0.0010062206
0.0010056297
0.0010050495
0.0010044724