/*--------------------------------*- C++ -*----------------------------------*\
  =========                 |
  \\      /  F ield         | OpenFOAM: The Open Source CFD Toolbox
   \\    /   O peration     | Website:  https://openfoam.org
    \\  /    A nd           | Version:  12
     \\/     M anipulation  |
\*---------------------------------------------------------------------------*/
FoamFile
{
    format      ascii;
    class       volScalarField;
    location    "0.049";
    object      omega;
}
// * * * * * * * * * * * * * * * * * * * * * * * * * * * * * * * * * * * * * //

dimensions      [0 0 -1 0 0 0 0];

internalField   nonuniform List<scalar> 
16000
(
1087.5238
2183.5473
1070.3918
644.92502
455.21234
316.39839
240.22749
181.26023
146.05914
118.17359
100.41792
85.907418
75.194343
66.228125
58.921368
52.762927
47.565887
43.133623
39.325718
36.030001
33.16219
30.651154
28.438408
26.477358
24.730378
23.168252
21.766749
20.507164
19.373672
18.351845
17.428621
16.593678
15.838795
15.157019
14.542416
13.98948
13.493028
13.048162
12.650779
12.297427
11.984231
11.707105
11.463077
11.249457
11.063181
10.901103
10.760773
10.63988
10.536235
10.447787
10.372703
10.309362
10.256226
10.211952
10.175411
10.145774
10.122479
10.105303
10.094631
10.091166
10.092551
10.093274
10.093118
10.092164
10.089836
10.085096
10.07603
10.06034
10.037614
10.013081
9.9985517
9.9936073
9.9937731
10.003503
10.017931
10.030637
10.03835
10.039507
10.026291
10.004986
1129.0035
2174.6507
1063.3694
644.69248
455.04907
319.1362
241.11455
182.95227
146.77733
119.12821
100.8909
86.419073
75.507113
66.501381
59.112471
52.908187
47.667519
43.203386
39.370677
36.055453
33.172633
30.650915
28.430884
26.465261
24.715415
23.151768
21.749417
20.489314
19.355714
18.334442
17.412185
16.578277
15.824359
15.143371
14.529418
13.977062
13.481233
13.036979
12.640012
12.287
11.974364
11.697801
11.454184
11.24094
11.055191
10.893647
10.753815
10.633396
10.530216
10.442215
10.367535
10.304579
10.251813
10.207882
10.171617
10.142157
10.118921
10.101586
10.090262
10.085578
10.086538
10.087305
10.087194
10.086334
10.084158
10.079672
10.071118
10.05645
10.035286
10.012206
9.9987534
9.9942254
9.9945526
10.004148
10.017702
10.029311
10.036185
10.035964
10.023084
10.004481
1168.899
2176.1441
1050.2632
640.78212
451.42482
319.20217
239.86385
183.03315
146.23584
119.21898
100.67843
86.385736
75.36411
66.36991
58.951896
52.739794
47.491248
43.024564
39.192924
35.880763
33.002544
30.487235
28.274887
26.317983
24.577148
23.022724
21.629369
20.377773
19.252221
18.238899
17.324435
16.497912
15.750905
15.076267
14.468152
13.921173
13.430397
12.990924
12.598292
12.249144
11.940281
11.667287
11.426857
11.216438
11.033408
10.874378
10.736813
10.618429
10.51708
10.430729
10.357494
10.295818
10.244189
10.201272
10.165882
10.137127
10.11443
10.097465
10.086195
10.080935
10.081365
10.082087
10.081968
10.081132
10.078991
10.074531
10.066082
10.051909
10.031988
10.0106
9.9984833
9.9946428
9.995108
10.004688
10.017337
10.027873
10.033737
10.032549
10.02017
10.004096
1207.0106
2184.4542
1039.9864
637.10795
447.44592
319.11282
238.34177
182.97491
145.567
119.21897
100.4229
86.296949
75.185925
66.196152
58.755429
52.536686
47.283107
42.815889
38.987421
35.680345
32.808514
30.301285
28.09815
26.151464
24.421039
22.877183
21.494135
20.252307
19.135923
18.131571
17.225909
16.407737
15.668578
15.001173
14.399727
13.858888
13.373853
12.939827
12.552204
12.20747
11.902869
11.633933
11.397169
11.189947
11.00997
10.853766
10.718743
10.602629
10.503308
10.418785
10.347144
10.286871
10.236478
10.194662
10.160234
10.132271
10.110179
10.093633
10.082544
10.07706
10.076928
10.077561
10.077409
10.076559
10.074403
10.069893
10.061446
10.047645
10.028852
10.009002
9.9981009
9.994838
9.995504
10.00477
10.016514
10.0261
10.031105
10.029189
10.017705
10.003826
1243.1638
2202.7569
1031.3005
633.2108
442.75625
318.29904
236.15808
182.44141
144.53283
118.94772
99.986397
86.036489
74.873678
65.894249
58.447698
52.232813
46.984817
42.525766
38.70823
35.413165
32.553802
30.060015
27.870809
25.938602
24.222457
22.692722
21.323286
20.094326
18.989909
17.997061
17.102587
16.29501
15.565827
14.907652
14.314751
13.781789
13.304075
12.876972
12.495812
12.156768
11.857555
11.593733
11.361663
11.158494
10.982325
10.829633
10.697763
10.584456
10.487614
10.405321
10.335617
10.277038
10.22812
10.187609
10.15433
10.127334
10.106004
10.090017
10.079261
10.073776
10.073233
10.073714
10.073485
10.072555
10.070293
10.065622
10.057042
10.043451
10.025651
10.007315
9.9975983
9.9948491
9.9957375
10.004532
10.015418
10.024144
10.02838
10.025934
10.015544
10.00362
1277.219
2228.5368
1027.1248
630.08289
438.63973
316.87716
233.51663
181.51105
143.23801
118.44338
99.412857
85.626238
74.446321
65.48105
58.042789
51.841018
46.607525
42.164117
38.364086
35.086935
32.245257
29.769549
27.598365
25.684244
23.98578
22.473308
21.120418
19.907114
18.817211
17.838158
16.957051
16.162113
15.444856
14.797739
14.215099
13.691612
13.222675
12.803817
12.430446
12.098299
11.805488
11.547702
11.321252
11.122908
10.951202
10.80262
10.674429
10.564392
10.470409
10.390686
10.323208
10.266567
10.219324
10.180279
10.148296
10.122408
10.101967
10.086641
10.076318
10.070975
10.070204
10.070482
10.070125
10.069044
10.066589
10.061674
10.052894
10.039427
10.022499
10.00566
9.9970144
9.9946556
9.995785
10.004004
10.01408
10.022009
10.025562
10.022815
10.013644
10.003457
1309.1322
2259.404
1027.1059
627.13406
434.60243
314.83382
230.80452
180.21872
141.78556
117.70828
98.710446
85.064412
73.899469
64.953979
57.537068
51.357964
46.147828
41.727679
37.951687
34.69849
31.879874
29.427075
27.278301
25.385584
23.708405
22.216572
20.883378
19.688741
18.616132
17.653377
16.788008
16.007933
15.304724
14.670652
14.100131
13.587852
13.129274
12.720071
12.355872
12.032072
11.746741
11.495918
11.27604
11.083346
10.916761
10.772881
10.648893
10.542586
10.45183
10.375002
10.310026
10.255559
10.210182
10.172754
10.142194
10.11754
10.098107
10.083537
10.073722
10.068622
10.067773
10.067803
10.067263
10.065958
10.063229
10.05801
10.049007
10.035619
10.019436
10.004104
9.9963842
9.9943531
9.9956483
10.003275
10.012579
10.019754
10.022725
10.019921
10.012097
10.003394
1339.0117
2292.8559
1028.6261
623.88719
430.65455
312.15547
228.10426
178.70451
140.22974
116.76239
97.895289
84.359071
73.233764
64.314758
56.930336
50.782835
45.604425
41.215046
37.46875
34.24551
31.455394
29.030418
26.908811
25.03893
23.386786
21.919211
20.60912
19.436441
18.384213
17.440534
16.593543
15.8308
15.143996
14.525172
13.968831
13.469669
13.023208
12.625219
12.271602
11.958356
11.681636
11.438685
11.226308
11.040204
10.879372
10.740745
10.621459
10.519317
10.432115
10.358475
10.296243
10.244157
10.200815
10.165133
10.136099
10.112774
10.094448
10.080718
10.071469
10.06669
10.065849
10.065596
10.064818
10.063222
10.060152
10.054596
10.045395
10.032096
10.016512
10.002732
9.9957928
9.9940438
9.9953598
10.002398
10.010934
10.017382
10.019878
10.017306
10.010988
10.00355
1366.9553
2326.695
1026.9201
619.87932
425.78887
308.79046
224.51195
176.8003
138.34861
115.63638
96.962529
83.508973
72.441858
63.558441
56.217361
50.109702
44.971488
40.62097
36.907067
33.719801
30.963964
28.572082
26.483296
24.644959
23.022195
21.582931
20.299639
19.152396
18.123778
17.202014
16.376045
15.633083
14.965006
14.363578
13.823398
13.339173
12.906485
12.521199
12.179282
11.876716
11.609909
11.375824
11.17187
10.993836
10.83938
10.706508
10.592463
10.494886
10.411538
10.341332
10.282048
10.232514
10.191351
10.15752
10.130087
10.108157
10.09101
10.078194
10.069565
10.06523
10.064333
10.063774
10.062707
10.060763
10.057299
10.051385
10.042032
10.028899
10.013778
10.001607
9.9953125
9.9937826
9.9950001
10.001427
10.009158
10.014899
10.017027
10.014966
10.01029
10.003973
1393.0635
2359.3112
1018.0837
614.80798
419.23004
304.99845
220.10256
174.42776
136.42602
114.33194
95.90135
82.508573
71.515361
62.676785
55.389897
49.325515
44.234977
39.932035
36.26488
33.122117
30.408005
28.055559
26.00513
24.202688
22.613917
21.207171
19.95454
18.836382
17.834805
16.93797
16.135735
15.415118
14.768204
14.186414
13.664454
13.197036
12.779802
12.40871
12.079892
11.789392
11.533544
11.309171
11.114205
10.944144
10.796777
10.670132
10.562206
10.469562
10.390388
10.323812
10.267643
10.22079
10.181914
10.150012
10.124228
10.103728
10.087801
10.07596
10.068
10.06407
10.06313
10.062244
10.060846
10.058512
10.054612
10.048316
10.038848
10.026033
10.011495
10.00076
9.9949626
9.9935857
9.9946378
10.000416
10.0073
10.012351
10.014215
10.012855
10.009824
10.004499
1417.4481
2390.053
1009.0609
608.68782
411.03174
300.79756
215.4511
171.86567
134.40828
112.8495
94.698112
81.350408
70.442262
61.649026
54.425281
48.42529
43.396065
39.1522
35.540192
32.450532
29.785657
27.47913
25.473087
23.712184
22.162277
20.792416
19.574521
18.489284
17.518375
16.649685
15.873681
15.178025
14.554775
13.994912
13.493253
13.044513
12.644396
12.288934
11.974434
11.697037
11.453165
11.239437
11.054169
10.89282
10.753026
10.632783
10.530648
10.443309
10.368908
10.306112
10.253226
10.209146
10.172628
10.142701
10.118586
10.09952
10.084819
10.073992
10.066731
10.063076
10.062149
10.060918
10.05916
10.056411
10.052054
10.045357
10.035779
10.023424
10.009737
10.000205
9.9947675
9.9934656
9.9943184
9.9994153
10.00544
10.009848
10.011561
10.010933
10.009254
10.004946
1440.2355
2419.9377
995.52948
601.02497
401.44942
296.19571
210.63104
169.05226
132.36921
111.19403
93.325247
80.003978
69.184756
60.468626
53.326994
47.405761
42.45091
38.278045
34.73148
31.70386
29.096509
26.842871
24.887389
23.173802
21.668036
20.339249
19.160375
18.112096
17.175656
16.338669
15.590113
14.922068
14.325044
13.78946
13.310231
12.882062
12.500739
12.162341
11.863389
11.600137
11.369139
11.167591
10.992521
10.840304
10.708538
10.595086
10.498984
10.416994
10.347052
10.288177
10.238934
10.197722
10.163602
10.135665
10.113214
10.095562
10.082058
10.072235
10.065717
10.062279
10.061298
10.059722
10.057587
10.054424
10.049631
10.042554
10.032854
10.020987
10.008504
9.9999364
9.9947552
9.9934107
9.9940922
9.9984824
10.003666
10.007512
10.009188
10.009201
10.008428
10.005301
1461.7376
2448.0583
978.12268
592.48172
391.37108
291.19866
205.74424
166.04089
130.28271
109.34385
91.717641
78.452669
67.747911
59.129568
52.088497
46.263259
41.396895
37.307519
33.837521
30.881461
28.340384
26.147207
24.248298
22.588172
21.132411
19.847227
18.711789
17.704698
16.806635
16.005463
15.290124
14.652273
14.083878
13.574761
13.119876
12.713901
12.352755
12.032529
11.749997
11.501621
11.283868
11.093855
10.929498
10.786811
10.663439
10.557515
10.467449
10.390941
10.325699
10.270644
10.22466
10.186596
10.154923
10.128973
10.108152
10.091876
10.079517
10.070637
10.064889
10.061775
10.060502
10.058597
10.05609
10.052538
10.047376
10.040024
10.030239
10.018712
10.007739
9.9999358
9.9949697
9.9934503
9.9940058
9.9976757
10.002055
10.005412
10.007135
10.007725
10.007639
10.005641
1482.1876
2470.7256
956.57822
583.38843
380.8524
285.844
200.8778
162.8418
128.07701
107.20387
89.859397
76.685656
66.118973
57.623661
50.703679
44.992592
40.230759
36.238637
32.857303
29.982412
27.517132
25.392954
23.554412
21.953989
20.554928
19.322733
18.235752
17.274418
16.418826
15.656927
14.977479
14.372331
13.834364
13.353593
12.924702
12.54226
12.20242
11.901241
11.635735
11.402723
11.198759
11.020836
10.867242
10.734162
10.619132
10.520109
10.436102
10.365039
10.30491
10.253799
10.210956
10.175623
10.146617
10.122672
10.103431
10.088475
10.077209
10.069177
10.064123
10.061472
10.059724
10.057508
10.05465
10.050754
10.045311
10.037831
10.028124
10.016906
10.007351
10.00018
9.9954517
9.9936576
9.9941087
9.9970392
10.000648
10.003562
10.005386
10.006531
10.007043
10.006019
1501.8455
2483.3323
930.94277
573.65604
369.9614
280.16924
196.10473
159.37403
125.63186
104.7814
87.723264
74.685298
64.285596
55.940907
49.165377
43.589133
38.94967
35.069042
31.790196
29.003642
26.623931
24.578525
22.814141
21.281064
19.945303
18.771506
17.738081
16.826473
16.017148
15.297908
14.657307
14.087119
13.5796
13.128527
12.726882
12.368938
12.05122
11.769729
11.521624
11.304217
11.114185
10.949252
10.806348
10.682784
10.576205
10.484279
10.406127
10.340133
10.284502
10.237729
10.19804
10.165236
10.138508
10.116756
10.099071
10.085355
10.075139
10.067878
10.063366
10.061065
10.058946
10.056432
10.053261
10.049066
10.043402
10.035894
10.026454
10.015751
10.007284
10.000678
9.9962095
9.9941889
9.9944628
9.9965932
9.9994519
10.001955
10.003917
10.005618
10.006673
10.006474
1520.9316
2475.7025
901.58993
563.32843
358.74352
274.17772
191.41921
155.5112
122.86998
102.0318
85.279775
72.429122
62.231973
54.070397
47.466327
42.047386
37.551007
33.792956
30.631875
27.953873
25.673155
23.717258
22.035443
20.577567
19.311391
18.202045
17.227132
16.367106
15.607083
14.933141
14.333483
13.80048
13.326632
12.905787
12.53199
12.198906
11.903545
11.641932
11.41115
11.209236
11.032593
10.879291
10.746986
10.632718
10.53444
10.450134
10.377771
10.316663
10.265132
10.222168
10.185963
10.155608
10.130909
10.111044
10.095054
10.082503
10.073283
10.06676
10.062667
10.060562
10.058133
10.055351
10.051909
10.04746
10.041606
10.034067
10.024944
10.015122
10.007518
10.001417
9.9971724
9.9950127
9.9949047
9.9963332
9.9984638
10.0006
10.002726
10.004997
10.006543
10.006853
1539.6163
2427.7736
869.96484
552.43758
347.25529
267.78252
186.5119
151.2259
119.678
98.907633
82.495611
69.892802
59.942541
52.002774
45.600165
40.358117
36.027473
32.421973
29.398537
26.844104
24.676171
22.82107
21.230863
19.855899
18.662811
17.622619
16.710871
15.908267
15.199644
14.572817
14.015328
13.520082
13.079912
12.689154
12.342875
12.034451
11.761155
11.519294
11.305608
11.118849
10.955397
10.813332
10.691073
10.585641
10.49496
10.417373
10.351195
10.294808
10.247105
10.207583
10.174446
10.14678
10.123938
10.105747
10.091224
10.079898
10.071586
10.065805
10.062076
10.059921
10.057257
10.054238
10.050572
10.045929
10.039944
10.03238
10.023483
10.014943
10.008035
10.002397
9.9983256
9.996025
9.9954656
9.996229
9.9977097
9.9995447
10.00182
10.004513
10.006468
10.007031
1557.7702
2391.9633
838.08066
540.92725
335.49913
260.44253
181.45691
146.4157
115.94256
95.351468
79.336277
67.052739
57.402346
49.730054
43.554735
38.532945
34.400421
30.971346
28.106586
25.692641
23.650585
21.907248
20.413662
19.128624
18.016749
17.049298
16.203116
15.459332
14.802865
14.223329
13.708159
13.250566
12.843829
12.482373
12.161448
11.876952
11.62492
11.402269
11.206163
11.033901
10.883214
10.751831
10.638934
10.541863
10.458362
10.386897
10.325993
10.274292
10.230563
10.194153
10.163801
10.138509
10.117644
10.100923
10.087729
10.077503
10.069977
10.064913
10.061625
10.059128
10.056285
10.053064
10.049226
10.044468
10.038475
10.03106
10.022554
10.015091
10.00881
10.003597
9.9996552
9.9971639
9.9961431
9.996241
9.997257
9.9988755
10.001258
10.004213
10.006362
10.00695
1574.9369
2350.5396
805.29558
528.46059
323.37332
251.92381
176.06162
140.96639
111.55602
91.303097
75.768999
63.888671
54.59316
47.238131
41.355177
36.594075
32.693537
29.467162
26.781019
24.523406
22.615142
20.993379
19.607043
18.415962
17.387459
16.49429
15.714253
15.029425
14.424543
13.889772
13.415857
12.994738
12.62031
12.287539
11.992133
11.730189
11.498198
11.293159
11.112529
10.954039
10.815632
10.695274
10.591041
10.501675
10.424851
10.359096
10.303055
10.255541
10.21549
10.181938
10.1541
10.130999
10.11199
10.096576
10.084537
10.075223
10.068424
10.063904
10.060958
10.058191
10.055185
10.051802
10.047843
10.043046
10.037149
10.030025
10.022066
10.015497
10.009797
10.004962
10.001101
9.9983797
9.996892
9.9965601
9.9971789
9.9986412
10.00101
10.003991
10.006128
10.006591
1590.4501
2283.0656
770.8625
514.53304
310.12043
242.07915
170.01289
134.74007
106.41927
86.704695
71.768607
60.38182
51.532287
44.574335
39.037367
34.57973
30.944381
27.943958
25.449333
23.361137
21.600338
20.105704
18.829513
17.734048
16.788972
15.969116
15.253373
14.624215
14.069875
13.579501
13.144707
12.758185
12.414179
12.108072
11.836138
11.595102
11.381785
11.193276
11.027194
10.881309
10.753787
10.643025
10.547631
10.465248
10.394516
10.33398
10.282361
10.238553
10.201605
10.170972
10.145336
10.124138
10.106753
10.092695
10.081688
10.07318
10.06695
10.062804
10.060068
10.057095
10.053945
10.050433
10.046392
10.041593
10.035825
10.029044
10.021919
10.016098
10.010933
10.006428
10.002618
9.9996682
9.9977914
9.9971021
9.9974497
9.9987546
10.000917
10.003649
10.005665
10.005866
1603.2302
2214.66
733.88178
498.57602
296.08078
230.71622
162.8419
127.57149
100.4568
81.526949
67.329554
56.572749
48.280779
41.796814
36.66006
32.542162
29.198655
26.438423
24.15176
22.240137
20.630081
19.264401
18.098332
17.096877
16.232433
15.482525
14.826772
14.251796
13.744642
13.295387
12.896906
12.54245
12.226705
11.945327
11.694892
11.472706
11.276314
11.102773
10.950002
10.815837
10.69843
10.596831
10.508663
10.432657
10.367384
10.311558
10.263968
10.223594
10.189586
10.161214
10.137553
10.11801
10.102042
10.089185
10.079093
10.071319
10.06559
10.061683
10.058956
10.055843
10.05257
10.048961
10.044871
10.040114
10.034533
10.028191
10.022
10.016802
10.012129
10.007924
10.004172
10.001042
9.9988585
9.9978828
9.9980282
9.9989819
10.000647
10.002882
10.0048
10.004719
1610.4998
2131.6751
694.12259
478.89369
281.00142
217.51715
154.07554
119.32453
93.668829
75.816977
62.534908
52.568244
44.93427
38.990977
34.296551
30.542093
27.501564
24.996656
22.921272
21.18707
19.726056
18.486106
17.426382
16.514827
15.726178
15.040415
14.441361
13.915449
13.451685
13.039919
12.674283
12.348807
12.058694
11.79993
11.569174
11.363821
11.182501
11.02222
10.881212
10.757647
10.64973
10.555735
10.474241
10.403894
10.343445
10.291767
10.247771
10.210352
10.179043
10.152703
10.130743
10.112598
10.097812
10.086007
10.076677
10.069537
10.064288
10.060602
10.057658
10.054463
10.0511
10.047437
10.043352
10.03871
10.033412
10.027562
10.022147
10.017493
10.013266
10.009358
10.005726
10.002536
10.000152
9.9988946
9.9986669
9.999007
9.9998284
10.001614
10.003503
10.003445
1607.1248
2029.8401
651.07045
453.18835
264.70467
202.13568
143.47366
110.024
86.205521
69.701716
57.568636
48.514396
41.611116
36.251497
32.023693
28.64319
25.906342
23.655598
21.787305
20.224003
18.904634
17.782804
16.822205
15.994237
15.276233
14.650202
14.101786
13.619224
13.192773
12.81454
12.478003
12.178088
11.910546
11.671886
11.459154
11.269816
11.101697
10.952991
10.821967
10.707078
10.606853
10.519785
10.444198
10.378915
10.32272
10.274593
10.233874
10.199222
10.169939
10.145389
10.124932
10.107978
10.094253
10.083174
10.074445
10.067768
10.062894
10.059358
10.056264
10.053006
10.049601
10.04594
10.04192
10.037434
10.032414
10.026999
10.022223
10.018038
10.014214
10.010621
10.007217
10.004135
10.001675
10.00007
9.999173
9.9986023
9.9985583
10.000018
10.002084
10.00264
1586.9452
1899.4101
604.93659
420.78734
247.19316
184.36779
131.25731
99.993845
78.414097
63.503806
52.649981
44.575521
38.434043
33.671297
29.912945
26.901571
24.456551
22.4474
20.773419
19.368163
18.178267
17.163282
16.291629
15.538316
14.88331
14.310495
13.807072
13.363157
12.9701
12.620954
12.309721
12.031916
11.783739
11.562081
11.364331
11.188247
11.031861
10.893398
10.771243
10.663903
10.570076
10.488934
10.418476
10.357635
10.305306
10.260483
10.222264
10.18983
10.162335
10.13923
10.120114
10.104252
10.091257
10.080781
10.072516
10.066222
10.061532
10.058074
10.05485
10.051542
10.048124
10.044505
10.040583
10.036259
10.031477
10.026408
10.022141
10.018345
10.01488
10.011617
10.008521
10.005671
10.003224
10.001255
9.9996371
9.9982614
9.9975916
9.9985686
10.000734
10.00166
1541.1622
1740.0316
556.88155
382.47979
229.41287
164.49036
118.10903
89.853964
70.74812
57.545069
48.002403
40.911275
35.519818
31.335136
28.025595
25.364075
23.192106
21.39719
19.897707
18.632637
17.556543
16.634623
15.839799
15.150639
14.549876
14.02327
13.558375
13.147249
12.782203
12.457787
12.168018
11.908966
11.677223
11.470001
11.284944
11.120033
10.97349
10.843711
10.729224
10.628654
10.540714
10.464183
10.397884
10.340534
10.291162
10.248806
10.21266
10.182178
10.156316
10.134548
10.116348
10.101276
10.088915
10.078903
10.071037
10.06493
10.060349
10.056897
10.053551
10.050176
10.046726
10.043131
10.039297
10.03513
10.030576
10.025799
10.021906
10.018423
10.015256
10.012289
10.009483
10.006864
10.004482
10.00232
10.000282
9.9984372
9.9974579
9.9975716
9.9994687
10.000783
1461.5556
1577.6491
507.87534
343.0774
205.50905
145.23874
104.96554
80.287463
63.661
52.138203
43.841365
37.677042
32.979304
29.319057
26.4102
24.058146
22.127448
20.521913
19.172038
18.026851
17.047336
16.203793
15.472967
14.836413
14.27927
13.789421
13.356886
12.973394
12.632229
12.327802
12.055479
11.811615
11.593149
11.397557
11.222699
11.066728
10.928007
10.805043
10.69645
10.600919
10.517226
10.444292
10.381405
10.326963
10.280107
10.239929
10.205621
10.176455
10.151776
10.130952
10.113513
10.099038
10.08725
10.077658
10.070009
10.064046
10.059511
10.056021
10.052564
10.049098
10.045573
10.041942
10.03813
10.034058
10.029694
10.02528
10.021639
10.018397
10.01545
10.012693
10.010076
10.007602
10.005294
10.003143
10.001107
9.9992526
9.9979701
9.9978725
9.9989767
10.000188
1349.8629
1490.4857
461.80788
295.74874
181.74029
127.16113
93.079522
71.813252
57.526003
47.576615
40.384793
35.023966
30.915905
27.693085
25.11339
23.012843
21.277291
19.825123
18.595822
17.547227
16.645732
15.865734
15.187026
14.593452
14.071913
13.611693
13.203928
12.841314
12.517921
12.229283
11.970488
11.738354
11.530075
11.343354
11.176235
11.027028
10.89423
10.776474
10.672482
10.581042
10.500985
10.431165
10.370463
10.317946
10.272673
10.233799
10.200558
10.172293
10.148541
10.128479
10.111681
10.097717
10.086225
10.07689
10.069428
10.063584
10.059098
10.055589
10.052071
10.048536
10.044937
10.041243
10.037402
10.033358
10.029111
10.024977
10.021528
10.018461
10.015662
10.013033
10.010522
10.00812
10.005845
10.003715
10.001742
10.000013
9.9988051
9.998499
9.9991178
9.9999553
1217.5448
1248.4542
421.68455
253.54013
159.63181
112.08137
83.239369
64.967759
52.676482
44.060708
37.785527
33.065012
29.414022
26.523802
24.190454
22.275273
20.68123
19.338794
18.197017
17.217769
16.37208
15.63741
14.995913
14.433179
13.937374
13.498651
13.109004
12.761704
12.4512
12.172903
11.923055
11.698523
11.496731
11.315521
11.153063
11.007768
10.878221
10.763129
10.66129
10.571573
10.492961
10.424722
10.365306
10.313877
10.269523
10.231425
10.198831
10.171064
10.147518
10.127663
10.111024
10.097188
10.085798
10.076539
10.069138
10.063342
10.058894
10.055414
10.051946
10.04844
10.044862
10.041179
10.037343
10.033307
10.029097
10.025132
10.021807
10.018849
10.016143
10.013593
10.011144
10.008775
10.0065
10.00436
10.002413
10.000734
9.9994496
9.9987741
9.9988945
9.9996422
1098.4867
1111.053
389.0688
222.86958
143.08446
100.98031
75.946954
59.980281
49.208989
41.59277
35.988946
31.732715
28.410129
25.757335
23.598852
21.814493
20.319594
19.053088
17.969979
17.036454
16.226611
15.520226
14.901222
14.356688
13.876539
13.450497
13.071333
12.732692
12.429351
12.156964
11.911947
11.691346
11.492717
11.31402
11.153527
11.009736
10.881311
10.767028
10.665739
10.576349
10.497806
10.429099
10.36927
10.317389
10.272588
10.234061
10.201065
10.172927
10.149042
10.12887
10.111935
10.09782
10.086164
10.076652
10.069013
10.063001
10.058371
10.05479
10.051479
10.048106
10.044699
10.041211
10.037595
10.033795
10.029789
10.025803
10.022524
10.019612
10.016956
10.01445
10.012027
10.009656
10.007355
10.005189
10.003236
10.001541
10.000123
9.9990742
9.9986542
9.9992398
1043.7984
1069.8238
364.85288
205.81605
132.23082
93.434678
70.506593
56.013459
46.253347
39.341722
34.240127
30.347376
27.295349
24.848376
22.849639
21.191339
19.797304
18.612421
17.595987
16.717372
15.9531
15.284833
14.697953
14.180573
13.722848
13.316534
12.954643
12.631287
12.341513
12.081188
11.846885
11.635771
11.445505
11.274139
11.120031
10.981764
10.858084
10.747848
10.649987
10.563483
10.487354
10.420652
10.362465
10.311923
10.268206
10.230546
10.198237
10.170636
10.147159
10.127287
10.110558
10.096568
10.084965
10.07545
10.067764
10.06168
10.056975
10.053334
10.050004
10.046625
10.043201
10.039681
10.036043
10.032273
10.028396
10.02474
10.021722
10.01908
10.016678
10.014406
10.012182
10.009971
10.007799
10.005756
10.003928
10.002305
10.000793
9.9994214
9.9986397
9.9985756
30868.124
78607.659
36456.096
10384.117
1367.6106
624.38544
444.80536
359.88238
298.6866
243.26248
197.90921
163.46267
138.09593
119.43421
105.13072
93.373488
83.359719
74.809699
67.501867
61.205485
55.730223
50.935918
46.715519
42.981548
39.666763
36.704737
34.048542
31.656831
29.496554
27.541661
25.770104
24.16233
22.701198
21.371494
20.161166
19.060168
18.059522
17.151314
16.328338
15.583978
14.912448
14.308108
13.765821
13.280911
12.848776
12.465116
12.126055
11.827454
11.565484
11.336685
11.137691
10.965268
10.81632
10.688255
10.578532
10.484931
10.406291
10.343575
10.299771
10.277607
10.269967
10.267203
10.265718
10.265774
10.267307
10.266372
10.263465
10.258303
10.248347
10.226262
10.179849
10.112854
10.049522
10.007124
9.9841876
9.9763421
9.9737053
9.979318
10.038814
10.106219
19936.384
58856.726
24184.516
4946.7985
986.0844
541.29902
407.85638
330.20734
271.71886
219.1303
179.21118
149.45695
127.78907
111.70509
98.994684
88.241165
79.034569
71.184946
64.453306
58.619496
53.521599
49.041188
45.084058
41.572046
38.441402
35.63735
33.117041
30.841774
28.782356
26.91539
25.220568
23.679776
22.27719
20.998778
19.833742
18.772811
17.807613
16.9308
16.135612
15.415845
14.766094
14.180968
13.655635
13.185655
12.766605
12.394398
12.065333
11.775373
11.520867
11.298501
11.105019
10.937302
10.792382
10.667801
10.56112
10.470131
10.393517
10.332689
10.2908
10.270312
10.263722
10.261615
10.260688
10.261173
10.263043
10.262714
10.260089
10.254711
10.243884
10.219514
10.169582
10.10172
10.041152
10.002476
9.9821478
9.9762254
9.9751673
9.9827419
10.045454
10.102678
28024.378
35086.161
13335.61
2513.3231
849.0792
511.24722
397.86736
314.88839
258.01412
207.20892
171.1281
143.25185
123.1195
107.97159
95.818093
85.463306
76.645741
69.135578
62.678605
57.071548
52.166799
47.852716
44.039008
40.650851
37.625619
34.914513
32.476
30.272342
28.276481
26.466002
24.821335
23.325061
21.962039
20.718837
19.585385
18.552751
17.612898
16.758805
15.983952
15.282379
14.648909
14.078282
13.565869
13.107368
12.698466
12.335224
12.014051
11.73097
11.482467
11.265325
11.076363
10.912556
10.771049
10.649496
10.545383
10.456688
10.381936
10.322721
10.282428
10.263289
10.257567
10.256057
10.255622
10.256433
10.258485
10.258721
10.256283
10.250611
10.238933
10.21229
10.159221
10.091199
10.03366
9.9985599
9.9806656
9.9762698
9.9763787
9.9870081
10.051587
10.098889
35261.093
23945.156
8295.962
1555.8369
770.33321
487.95778
385.29926
298.81858
246.5356
196.23752
163.81126
137.23173
118.65907
104.3736
92.769135
82.817121
74.377913
67.183171
60.983034
55.59023
50.86769
46.709966
43.030973
39.759273
36.835603
34.21053
31.84895
29.713238
27.777999
26.021568
24.425091
22.971775
21.6471
20.438184
19.335645
18.330811
17.415969
16.584391
15.829765
15.146362
14.529211
13.973163
13.473791
13.026911
12.628318
12.274211
11.961106
11.685078
11.442755
11.231008
11.046736
10.887006
10.749144
10.630665
10.529266
10.442986
10.370286
10.312756
10.274111
10.256323
10.251443
10.25049
10.250486
10.251546
10.253571
10.254311
10.251986
10.245979
10.233469
10.204543
10.1487
10.08114
10.026846
9.9952103
9.9795176
9.9764104
9.9779008
9.9927489
10.057068
10.094908
39675.106
20262.337
5851.103
1253.14
735.95432
469.75805
375.37387
286.25426
238.08575
187.79872
158.5998
132.55526
115.26921
101.50902
90.298146
80.652623
72.511179
65.558574
59.557634
54.333447
49.755986
45.723981
42.15429
38.977929
36.137634
33.586646
31.287841
29.209679
27.326278
25.616417
24.061783
22.64605
21.355181
20.17672
19.101861
18.122069
17.229908
16.418878
15.682822
15.016201
14.414209
13.871774
13.384646
12.948732
12.559914
12.214518
11.90914
11.639901
11.403561
11.197066
11.017388
10.86169
10.727399
10.611997
10.513312
10.429454
10.358894
10.303021
10.265972
10.24945
10.245351
10.244904
10.245264
10.246494
10.248405
10.249457
10.247196
10.240837
10.227521
10.196333
10.138156
10.071656
10.020731
9.9923869
9.9786737
9.9768825
9.9805573
10.000467
10.061768
10.090603
42430.842
18868.518
4531.5882
1182.0075
715.22153
451.32683
367.74858
276.25099
231.51083
181.03572
154.49314
128.5775
112.44458
99.025099
88.150414
78.764482
70.874102
64.122519
58.289817
53.209479
48.756513
44.832921
41.357964
38.264656
35.497501
33.011146
30.768519
28.741542
26.904393
25.236359
23.719511
22.337893
21.07788
19.927372
18.878068
17.921496
17.050483
16.258705
15.540132
14.88939
14.301807
13.772367
13.296987
12.871636
12.492276
12.155346
11.85751
11.594925
11.36448
11.163186
10.988093
10.836492
10.705691
10.593377
10.497434
10.416025
10.347692
10.293461
10.257971
10.242646
10.239272
10.239281
10.239939
10.241267
10.243008
10.244108
10.241896
10.2352
10.221107
10.187702
10.127676
10.062774
10.015266
9.9900043
9.9780858
9.9773074
9.9847483
10.008675
10.065625
10.08449
44644.711
17017.309
3659.8483
1131.6813
699.5796
438.40125
361.65292
268.12508
226.33764
175.60782
151.20043
125.21055
110.08027
96.862437
86.279592
77.111724
69.43238
62.848621
57.158535
52.201091
47.855139
44.025258
40.632648
37.611916
34.908982
32.479801
30.288681
28.306052
26.51009
24.879665
23.396989
22.046382
20.814559
19.689724
18.664022
17.728978
16.877677
16.103927
15.4018
14.766068
14.192165
13.675115
13.210991
12.7958
12.425577
12.096864
11.806375
11.550301
11.325657
11.12952
10.959057
10.811395
10.684095
10.574883
10.481692
10.402744
10.336641
10.284084
10.250103
10.2359
10.233196
10.233606
10.234498
10.235861
10.237386
10.238241
10.236088
10.229086
10.214262
10.178714
10.117354
10.054519
10.010403
9.9879981
9.9776847
9.97787
9.9889806
10.015888
10.068263
10.077515
46295.032
14431.064
3105.3743
1100.4267
687.56079