/*--------------------------------*- C++ -*----------------------------------*\
  =========                 |
  \\      /  F ield         | OpenFOAM: The Open Source CFD Toolbox
   \\    /   O peration     | Website:  https://openfoam.org
    \\  /    A nd           | Version:  12
     \\/     M anipulation  |
\*---------------------------------------------------------------------------*/
FoamFile
{
    format      ascii;
    class       surfaceScalarField;
    location    "0.049";
    object      phi;
}
// * * * * * * * * * * * * * * * * * * * * * * * * * * * * * * * * * * * * * //

dimensions      [1 0 -1 0 0 0 0];

internalField   nonuniform List<scalar> 
31760
(
-0.00063030002
-0.050807978
0.051436261
-0.0015896063
-0.064233627
0.065191748
-0.0025728032
-0.062869303
0.063853954
-0.0035881445
-0.068537171
0.069551225
-0.0046566365
-0.070207936
0.071275019
-0.0057544848
-0.074468135
0.07556473
-0.0069207017
-0.077392329
0.078557215
-0.0081266807
-0.081394147
0.082598906
-0.0093917145
-0.085012144
0.086275881
-0.010715637
-0.089124229
0.090446899
-0.0120945
-0.093252545
0.094630123
-0.013540383
-0.09765805
0.099102653
-0.01504777
-0.10222742
0.10373351
-0.016624973
-0.10702283
0.10859873
-0.018271526
-0.11203305
0.11367828
-0.019992177
-0.11727469
0.118994
-0.021789567
-0.1227558
0.12455185
-0.023666879
-0.1284878
0.13036376
-0.025627334
-0.13448167
0.13644076
-0.027674303
-0.14074865
0.14279425
-0.029811195
-0.1473011
0.14943662
-0.032041739
-0.15415096
0.15638013
-0.034369497
-0.16131177
0.16363815
-0.036798333
-0.16879717
0.17122464
-0.039331177
-0.17662164
0.17915313
-0.041972558
-0.18479922
0.18743928
-0.044726313
-0.19334608
0.19609855
-0.047595806
-0.20227874
0.20514699
-0.050584469
-0.21161403
0.21460152
-0.053696276
-0.22136992
0.22448064
-0.056934466
-0.23156524
0.23480244
-0.060302294
-0.24221968
0.24558664
-0.063802492
-0.2533546
0.25685408
-0.067438024
-0.26499096
0.26862595
-0.071210791
-0.2771527
0.28092514
-0.075122361
-0.28986388
0.29377538
-0.07917397
-0.30315003
0.30720186
-0.083365996
-0.3170386
0.32123119
-0.087698158
-0.33155729
0.33589042
-0.092169047
-0.34673724
0.35120953
-0.096776571
-0.36260982
0.36721924
-0.10151722
-0.37920837
0.38395146
-0.10638629
-0.39656845
0.40144057
-0.11137792
-0.41472736
0.41972266
-0.1164843
-0.43372481
0.43883552
-0.12169621
-0.45360168
0.45881864
-0.12700206
-0.47440206
0.47971366
-0.13238884
-0.49617135
0.50156463
-0.13784101
-0.51895856
0.52441795
-0.14334019
-0.54281428
0.54832136
-0.14886525
-0.56779161
0.57332519
-0.15439255
-0.59394722
0.59948356
-0.15989447
-0.62134006
0.62685143
-0.1653397
-0.65003248
0.65548738
-0.17069316
-0.68009
0.68545316
-0.17591414
-0.71158271
0.71681314
-0.18095744
-0.74458399
0.74963616
-0.18577218
-0.77917205
0.78399463
-0.19030018
-0.81543078
0.819965
-0.19447721
-0.8534497
0.85763047
-0.19823094
-0.8933253
0.89707915
-0.20148133
-0.93516212
0.93840741
-0.2041391
-0.97907482
0.98172019
-0.20610553
-1.0251889
1.0271331
-0.20727136
-1.0736409
1.0747718
-0.20751647
-1.1245807
1.1247751
-0.20670702
-1.1781683
1.1772898
-0.20470185
-1.2345669
1.2324729
-0.20134109
-1.2939363
1.2904677
-0.19644799
-1.3564057
1.3513891
-0.18983335
-1.4220512
1.4153057
-0.18129341
-1.4908794
1.4822103
-0.1705934
-1.5628456
1.5520209
-0.15748571
-1.6378832
1.6246505
-0.14167313
-1.7159155
1.700005
-0.12284561
-1.796763
1.777908
-0.10056722
-1.8803527
1.8580843
-0.074660958
-1.9671513
1.9411961
-0.044226791
-2.0575505
2.0270897
-2.1549168
2.1193825
-0.00062780117
-0.050181529
-0.0014938088
-0.063368332
-0.0023799916
-0.061985564
-0.0033366125
-0.067581102
-0.0043027644
-0.069242468
-0.005346703
-0.073424777
-0.0064050343
-0.076334649
-0.0075434196
-0.080256345
-0.0087071154
-0.083849096
-0.0099450367
-0.087886931
-0.011225561
-0.091972667
-0.012573288
-0.096310961
-0.013978138
-0.10082322
-0.015449227
-0.10555239
-0.016986729
-0.11049619
-0.018594792
-0.11566725
-0.020275606
-0.12107561
-0.022032932
-0.12673108
-0.023869987
-0.1326452
-0.025790341
-0.13882886
-0.027797643
-0.14529434
-0.029895132
-0.15205397
-0.032086895
-0.15912046
-0.034376598
-0.16650788
-0.036769011
-0.17422958
-0.039266916
-0.1823016
-0.041874975
-0.19073822
-0.044596885
-0.19955693
-0.047436889
-0.20877402
-0.050398516
-0.21840816
-0.053485799
-0.22847767
-0.05670202
-0.239003
-0.060050428
-0.25000553
-0.063533952
-0.26150654
-0.067154957
-0.27353052
-0.070915702
-0.28610165
-0.074817292
-0.29924659
-0.078861165
-0.31299247
-0.083046603
-0.32736912
-0.087373132
-0.34240745
-0.091839084
-0.35814001
-0.096441291
-0.37460165
-0.10117532
-0.39182918
-0.10603602
-0.40986061
-0.11101625
-0.42873766
-0.11610734
-0.44850272
-0.12129897
-0.46920155
-0.1265784
-0.49088198
-0.13193122
-0.51359471
-0.13734072
-0.53739267
-0.14278731
-0.56233183
-0.14824869
-0.58847165
-0.15369926
-0.61587442
-0.15911021
-0.64460574
-0.16444874
-0.67473521
-0.16967757
-0.70633745
-0.17475497
-0.73949041
-0.1796338
-0.77427783
-0.18426079
-0.81078987
-0.18857691
-0.84912205
-0.19251581
-0.88937849
-0.19600388
-0.9316714
-0.19895908
-0.97612433
-0.20129193
-1.0228708
-0.20290247
-1.072058
-0.20368245
-1.1238445
-0.2035091
-1.1784043
-0.20225231
-1.2359068
-0.19976928
-1.2965224
-0.19590288
-1.3603918
-0.190484
-1.4276002
-0.18332323
-1.4981748
-0.17421257
-1.5720933
-0.16292028
-1.6493144
-0.14918066
-1.7297584
-0.13268601
-1.8132925
-0.11310043
-1.8999583
-0.090147012
-1.9901817
-0.063091503
-2.0847042
-2.1866673
-0.000567317
-0.049615214
-0.0013753014
-0.062560679
-0.0021813408
-0.061180034
-0.0030815293
-0.066681167
-0.0039697823
-0.068354576
-0.0049447392
-0.07245006
-0.0059206733
-0.075359004
-0.0069801498
-0.07919707
-0.0080584122
-0.082771076
-0.0092094029
-0.086736136
-0.010399894
-0.090782371
-0.011654142
-0.095056876
-0.012963055
-0.099514446
-0.01433493
-0.10418063
-0.015770427
-0.10906077
-0.017273129
-0.1141646
-0.018846378
-0.11950237
-0.020493113
-0.12508431
-0.022217594
-0.13092063
-0.024022634
-0.13702367
-0.025912705
-0.14340406
-0.027891313
-0.15007508
-0.02996232
-0.15704909
-0.032130486
-0.16433926
-0.03439906
-0.17196045
-0.03677322
-0.17992677
-0.039256388
-0.18825426
-0.041853593
-0.19695879
-0.044568351
-0.20605816
-0.047405766
-0.21556947
-0.050368899
-0.22551306
-0.053462023
-0.23590817
-0.056688887
-0.2467767
-0.060052113
-0.25814106
-0.063555227
-0.27002482
-0.067200328
-0.28245358
-0.070989582
-0.29545393
-0.074923436
-0.30905472
-0.079002827
-0.32328529
-0.083227165
-0.33817804
-0.087594582
-0.35376683
-0.092102878
-0.3700868
-0.096748584
-0.38717605
-0.10152614
-0.40507465
-0.10642945
-0.42382487
-0.11145041
-0.44347109
-0.11657967
-0.46406033
-0.12180515
-0.48564315
-0.12711414
-0.50827092
-0.13249078
-0.53199973
-0.13791665
-0.55688815
-0.143372
-0.582997
-0.1488331
-0.61039261
-0.15427346
-0.63914344
-0.15966311
-0.66932264
-0.1649681
-0.70100891
-0.17015055
-0.7342843
-0.17516662
-0.76923857
-0.1799689
-0.80596568
-0.18450272
-0.84456861
-0.18870834
-0.88515686
-0.19251854
-0.92785053
-0.1958598
-0.97277991
-0.19865005
-1.0200876
-0.2007992
-1.0699293
-0.20220749
-1.1224732
-0.20277017
-1.1778982
-0.2023672
-1.2363875
-0.20086819
-1.2981199
-0.19813821
-1.3632387
-0.19402156
-1.4318493
-0.18835477
-1.5039852
-0.18094494
-1.579652
-0.1715853
-1.6588196
-0.16002591
-1.741422
-0.14598806
-1.8273803
-0.12918392
-1.9168184
-0.10930622
-2.0101733
-0.08573558
-2.108448
-2.2145523
-0.00051245864
-0.049103516
-0.0012604108
-0.061812862
-0.0019927764
-0.060447593
-0.002840601
-0.065833362
-0.0036637645
-0.0675315
-0.0045729829
-0.071540814
-0.0054731104
-0.074458863
-0.0064602542
-0.078209814
-0.0074595915
-0.081771638
-0.0085309042
-0.08566466
-0.0096386555
-0.08967443
-0.010807296
-0.093887995
-0.01202878
-0.098292677
-0.013310404
-0.10289867
-0.014653844
-0.10771694
-0.016062864
-0.11275513
-0.017540765
-0.11802395
-0.019090925
-0.12353356
-0.020716816
-0.12929407
-0.022422784
-0.13531694
-0.024211999
-0.14161398
-0.026089517
-0.1481966
-0.02805924
-0.15507828
-0.030125147
-0.16227213
-0.03229238
-0.16979186
-0.034564874
-0.17765276
-0.036947648
-0.1858698
-0.039445015
-0.19445955
-0.042062395
-0.20343871
-0.044803109
-0.21282645
-0.047672243
-0.22264136
-0.050674109
-0.23290345
-0.053812344
-0.24363529
-0.057090767
-0.2548591
-0.060512718
-0.26659893
-0.064080579
-0.27888133
-0.067796485
-0.29173313
-0.071662266
-0.30518348
-0.075678185
-0.31926327
-0.079844191
-0.33400521
-0.08415958
-0.3494438
-0.088621569
-0.36561627
-0.093227234
-0.38256081
-0.097972079
-0.40031908
-0.10285003
-0.41893491
-0.10785442
-0.43845327
-0.11297538
-0.45892439
-0.11820376
-0.48039811
-0.12352652
-0.5029297
-0.12892971
-0.52657617
-0.13439733
-0.55139822
-0.1399103
-0.57745975
-0.1454478
-0.60482892
-0.15098624
-0.63357705
-0.1564976
-0.66378181
-0.16195235
-0.69552358
-0.16731554
-0.72888992
-0.17254853
-0.76397446
-0.17760811
-0.80087592
-0.18244561
-0.83970298
-0.18700703
-0.88057077
-0.19123234
-0.92360583
-0.1950555
-0.96894495
-0.19840309
-1.0167386
-0.20119469
-1.06715
-0.20334414
-1.1203532
-0.20475025
-1.1765417
-0.20531428
-1.2358952
-0.20491862
-1.2986096
-0.20344593
-1.3648262
-0.20076254
-1.4346668
-0.19671125
-1.5081844
-0.19113407
-1.5853831
-0.18383351
-1.6662662
-0.17458914
-1.750777
-0.16314936
-1.8388979
-0.14924881
-1.9308183
-0.13258542
-2.0269978
-0.11263758
-2.1286569
-2.2384584
-0.00045827041
-0.048645756
-0.0011593872
-0.061111698
-0.0018146759
-0.059792419
-0.0026068204
-0.065040988
-0.0033562184
-0.066781915
-0.0042082432
-0.070688509
-0.0050423607
-0.073624462
-0.005964621
-0.077287164
-0.0068936533
-0.080842207
-0.0078927217
-0.084665123
-0.0089271075
-0.088639531
-0.010019917
-0.092794606
-0.011165278
-0.097146676
-0.01236937
-0.10169386
-0.013634589
-0.10645093
-0.01496404
-0.1114248
-0.016361485
-0.11662554
-0.017830706
-0.12206327
-0.019375402
-0.1277482
-0.020999609
-0.13369145
-0.022708043
-0.13990413
-0.024504055
-0.14639903
-0.026393156
-0.15318747
-0.028379929
-0.16028348
-0.030468889
-0.16770084
-0.032665303
-0.17545409
-0.034974365
-0.18355827
-0.037400997
-0.19203021
-0.039950105
-0.20088663
-0.042626865
-0.21014643
-0.045436125
-0.21982853
-0.048382327
-0.22995333
-0.051469794
-0.24054352
-0.054702842
-0.25162132
-0.058084591
-0.26321198
-0.06161808
-0.27534211
-0.065305762
-0.28803912
-0.069149485
-0.30133276
-0.07314994
-0.31525508
-0.077307443
-0.32983915
-0.081620865
-0.34512088
-0.086088928
-0.36113765
-0.090708226
-0.37792977
-0.095474926
-0.39553931
-0.10038439
-0.4140109
-0.10542941
-0.43339206
-0.11060251
-0.45373329
-0.11589427
-0.47508638
-0.12129358
-0.49750829
-0.12678845
-0.52105693
-0.13236388
-0.54579607
-0.13800376
-0.57179074
-0.14368927
-0.5991119
-0.14939913
-0.62783342
-0.15510981
-0.65803534
-0.1607941
-0.68980186
-0.1664211
-0.7232244
-0.17195748
-0.75839918
-0.17736438
-0.79543065
-0.18259948
-0.83443123
-0.18761463
-0.87552216
-0.19235714
-0.918835
-0.19676827
-0.96451304
-0.20078382
-1.0127128
-0.20433312
-1.0636043
-0.2073377
-1.1173698
-0.20971721
-1.1742041
-0.21137432
-1.2343031
-0.21222111
-1.2978515
-0.2121411
-1.365017
-0.2110264
-1.4359107
-0.20874361
-1.51061
-0.20514617
-1.589134
-0.20006166
-1.6714982
-0.1932882
-1.7576781
-0.18459834
-1.8477047
-0.17376326
-1.9418031
-0.16048178
-2.0405009
-0.14432623
-2.1451863
-2.2582239
-0.00040912972
-0.048236938
-0.0010693927
-0.060451238
-0.001662667
-0.059198976
-0.0023975025
-0.064305781
-0.0030720328
-0.066106964
-0.0038729705
-0.069887103
-0.0046404097
-0.072856538
-0.0055036563
-0.076423325
-0.0063697173
-0.079975517
-0.0073077099
-0.083726426
-0.0082824626
-0.087664013
-0.009313605
-0.091762617
-0.010397567
-0.096061787
-0.011539009
-0.1005514
-0.012740777
-0.10524805
-0.014006733
-0.11015763
-0.015340385
-0.11529056
-0.016745612
-0.12065659
-0.018226913
-0.12626531
-0.019788281
-0.13212834
-0.021434808
-0.13825571
-0.023171302
-0.14466047
-0.025002898
-0.15135362
-0.026934689
-0.15834924
-0.028972274
-0.16566058
-0.031121444
-0.173302
-0.03338691
-0.18128962
-0.035774945
-0.18963871
-0.038290816
-0.19836697
-0.040939859
-0.20749326
-0.04372762
-0.21703627
-0.046658625
-0.22701741
-0.049738215
-0.23745856
-0.052969633
-0.24838404
-0.056357325
-0.25981786
-0.059904566
-0.27178783
-0.063613495
-0.28432247
-0.067486033
-0.29745174
-0.071523658
-0.31120812
-0.075726364
-0.32562615
-0.080093958
-0.34074192
-0.084624338
-0.3565947
-0.08931565
-0.37322453
-0.094164498
-0.39067503
-0.09916563
-0.40899265
-0.10431373
-0.42822497
-0.10960277
-0.44842321
-0.11502354
-0.46964233
-0.12056767
-0.49193845
-0.12622324
-0.51537304
-0.13197902
-0.54000925
-0.13782028
-0.56591563
-0.14373107
-0.59316444
-0.14969325
-0.62183187
-0.15568617
-0.65200055
-0.16168655
-0.68375748
-0.16766889
-0.71719648
-0.1736031
-0.75241853
-0.17945649
-0.7895309
-0.18519171
-0.82865094
-0.19076831
-0.86990336
-0.19614025
-0.9134257
-0.20125717
-0.95936613
-0.20606322
-1.0078872
-0.21049733
-1.0591646
-0.21449292
-1.1133863
-0.21797839
-1.1707519
-0.22087936
-1.2314592
-0.22310821
-1.2957049
-0.22458273
-1.3636492
-0.22520025
-1.4354216
-0.22485131
-1.5111051
-0.22340733
-1.5907376
-0.22071408
-1.6743543
-0.21659129
-1.7619584
-0.21084046
-1.8536195
-0.20325069
-1.9496006
-0.19355232
-2.0504988
-0.18139955
-2.1578402
-2.2736563
-0.00036720707
-0.047869873
-0.00099675154
-0.059821374
-0.0015354719
-0.058659949
-0.0022231051
-0.063617661
-0.002839135
-0.065490447
-0.0035923416
-0.069133272
-0.0043048765
-0.072143364
-0.0051073239
-0.075620133
-0.0059319127
-0.079150123
-0.0068240105
-0.082833425
-0.0077531052
-0.086733939
-0.0087350968
-0.090779551
-0.0097696515
-0.095026062
-0.01086079
-0.099458989
-0.012012579
-0.10409487
-0.013228499
-0.1089402
-0.014513414
-0.114004
-0.015871416
-0.1192968
-0.017307308
-0.12482747
-0.018826484
-0.13060705
-0.020433545
-0.13664634
-0.022134691
-0.14295681
-0.023935129
-0.14955046
-0.02584054
-0.15644086
-0.027857261
-0.16364063
-0.029990911
-0.17116485
-0.032248352
-0.17902836
-0.034635111
-0.1872478
-0.037156885
-0.19584069
-0.039820239
-0.20482499
-0.042630133
-0.21422102
-0.045592109
-0.22404961
-0.048710791
-0.23433352
-0.051991244
-0.24509664
-0.055436468
-0.25636505
-0.059050071
-0.26816593
-0.062835103
-0.28052836
-0.066793176
-0.29348371
-0.070925335
-0.30706502
-0.075232133
-0.32130732
-0.079713417
-0.33624739
-0.084367799
-0.3519257
-0.089193558
-0.36838264
-0.094187336
-0.38566342
-0.099345971
-0.4038143
-0.10466462
-0.42288451
-0.11013746
-0.44292626
-0.11575855
-0.46399462
-0.12151939
-0.48614827
-0.12741193
-0.50944827
-0.13342538
-0.5339605
-0.1395485
-0.55975404
-0.14576855
-0.58690273
-0.15207016
-0.61548548
-0.15843674
-0.64558626
-0.16484879
-0.67729516
-0.17128511
-0.71070783
-0.17772112
-0.74592884
-0.18412924
-0.78306873
-0.19047911
-0.82224786
-0.19673584
-0.86359586
-0.20286162
-0.90725363
-0.20881379
-0.95337473
-0.21454591
-1.002126
-0.22000713
-1.0536882
-0.2251417
-1.1082541
-0.2298908
-1.1660264
-0.23419281
-1.2272053
-0.23797858
-1.2919941
-0.24117653
-1.3605546
-0.24371055
-1.4330192
-0.24548436
-1.5094881
-0.24638542
-1.5900133
-0.24628706
-1.6746425
-0.24502328
-1.7634181
-0.24242003
-1.8564384
-0.23830228
-1.9539934
-0.23241818
-2.0567749
-0.22451349
-2.1663848
-2.2845231
-0.00032468925
-0.04754518
-0.00092887757
-0.059216762
-0.0014187565
-0.058169644
-0.0020608045
-0.062975028
-0.0026324319
-0.064918183
-0.0033581012
-0.068406839
-0.0040381076
-0.07146256
-0.0048247738
-0.074832613
-0.0056102981
-0.078363621
-0.0064567259
-0.081985922
-0.0073440736
-0.085845429
-0.0082837121
-0.089838646
-0.0092781915
-0.094030208
-0.010330917
-0.09840477
-0.01144634
-0.10297783
-0.012629039
-0.10775574
-0.013882977
-0.11274815
-0.015214134
-0.11796357
-0.016627342
-0.12341201
-0.018128273
-0.12910367
-0.019722763
-0.13504919
-0.021416807
-0.14125988
-0.023216699
-0.14774743
-0.025129661
-0.15452449
-0.027161145
-0.16160545
-0.029318605
-0.16900336
-0.031608145
-0.17673445
-0.034036555
-0.18481463
-0.036610294
-0.19326177
-0.039335367
-0.20209428
-0.042217447
-0.2113328
-0.045262209
-0.22099816
-0.04847471
-0.23111373
-0.051858931
-0.24170446
-0.055419035
-0.25279626
-0.059158446
-0.26441701
-0.063079264
-0.27659714
-0.067183665
-0.2893679
-0.071472894
-0.30276328
-0.075947426
-0.31681904
-0.080606987
-0.33157271
-0.085451435
-0.3470646
-0.090478524
-0.3633372
-0.095686484
-0.38043521
-0.10107257
-0.39840587
-0.10663313
-0.41729929
-0.11236419
-0.43716802
-0.11826094
-0.45806791
-0.12431759
-0.48005867
-0.13052765
-0.50320208
-0.13688386
-0.52756478
-0.14337712
-0.5532178
-0.14999783
-0.58023549
-0.15673451
-0.60869878
-0.16357447
-0.63869298
-0.1705031
-0.67031022
-0.17750312
-0.70364902
-0.18455561
-0.73881576
-0.19163906
-0.77592383
-0.19872902
-0.81509683
-0.20579815
-0.85646765
-0.21281593
-0.90018083
-0.21974822
-0.94639408
-0.22655813
-0.99527761
-0.23320441
-1.0470168
-0.23964405
-1.1018068
-0.24583044
-1.1598537
-0.25171404
-1.2213605
-0.25724561
-1.2865296
-0.26237329
-1.3555249
-0.26702585
-1.4284978
-0.2711369
-1.5055421
-0.27460696
-1.5867382
-0.27732613
-1.6721418
-0.279156
-1.7618255
-0.27994891
-1.8559159
-0.27955257
-1.9547401
-0.2777481
-2.0590748
-0.27438675
-2.1705394
-2.2905473
-0.00028328947
-0.047261765
-0.00086857925
-0.058630966
-0.001318082
-0.057719614
-0.0019375726
-0.062354868
-0.0024872003
-0.064367833
-0.0031882459
-0.067704945
-0.0038403756
-0.070809546
-0.0046047812
-0.074067089
-0.0053607022
-0.077606599
-0.0061753109
-0.081170103
-0.0070361376
-0.084983294
-0.0079498355
-0.088923527
-0.0089213416
-0.093057161
-0.0099540647
-0.097370377
-0.011053092
-0.10187699
-0.012223257
-0.10658361
-0.013470228
-0.11149905
-0.014799415
-0.11663207
-0.016216826
-0.12199209
-0.017729226
-0.12758855
-0.019342641
-0.13343282
-0.021064581
-0.13953473
-0.022901399
-0.14590712
-0.024860453
-0.15256165
-0.026949285
-0.15951249
-0.029174634
-0.16677353
-0.031543977
-0.17436022
-0.034064117
-0.18228918
-0.036741423
-0.19057868
-0.039582622
-0.19924678
-0.042593692
-0.20831487
-0.045779599
-0.21780476
-0.049145132
-0.22774002
-0.052695002
-0.23814566
-0.05643279
-0.24904871
-0.060361167
-0.26047796
-0.064482928
-0.27246368
-0.068799853
-0.28503816
-0.073312892
-0.29823618
-0.078023021
-0.31209347
-0.082930119
-0.32664863
-0.088033714
-0.34194232
-0.093333345
-0.35801699
-0.098828121
-0.37491777
-0.10451607
-0.39269295
-0.1103954
-0.41139246
-0.11646358
-0.43106955
-0.12271788
-0.45178032
-0.12915512
-0.47358488
-0.13577099
-0.4965462
-0.14256124
-0.52073087
-0.14952047
-0.54621112
-0.15664216
-0.57306252
-0.1639193
-0.60136655
-0.17134298
-0.63121053
-0.17890335
-0.66268774
-0.18658812
-0.69589924
-0.19438453
-0.7309521
-0.20227654
-0.76796325
-0.21024633
-0.80705838
-0.21827416
-0.84837268
-0.22633736
-0.8920541
-0.23441089
-0.93826329
-0.24246652
-0.98717411
-0.25047524
-1.0389733
-0.25840476
-1.0938595
-0.26622332
-1.1520387
-0.2738949
-1.2137182
-0.28138684
-1.2790971
-0.28865748
-1.3483481
-0.29566598
-1.4216209
-0.30235355
-1.4990257
-0.308646
-1.5806554
-0.31444511
-1.6665873
-0.31963713
-1.7569113
-0.32410057
-1.8517806
-0.32770947
-1.9515627
-0.33029866
-2.057093
-0.33180507
-2.1699902
-2.2914045
-0.00024527458
-0.047016256
-0.00081946488
-0.058056196
-0.0012390634
-0.057299394
-0.0018826034
-0.061710594
-0.0024169994
-0.063832621
-0.0030973015
-0.067023743
-0.0037268293
-0.070179006
-0.0044492417
-0.073343579
-0.0051919313
-0.076862705
-0.005991083
-0.080369634
-0.0068423359
-0.084130617
-0.0077484188
-0.088015899
-0.0087165144
-0.092087391
-0.009750535
-0.096334542
-0.010856241
-0.10076932
-0.012039389
-0.10539833
-0.013306215
-0.11022991
-0.014663396
-0.11527238
-0.016117714
-0.12053505
-0.017675865
-0.12602744
-0.019346449
-0.13175902
-0.021135888
-0.1377418
-0.023053008
-0.1439862
-0.025105041
-0.15050548
-0.027299757
-0.15731327
-0.029645179
-0.1644232
-0.032148627
-0.17185144
-0.034816982
-0.179615
-0.037657543
-0.18773177
-0.040676183
-0.19622122
-0.04387838
-0.20510511
-0.047269672
-0.21440521
-0.050854372
-0.2241463
-0.054636561
-0.23435362
-0.058619408
-0.24505508
-0.062805612
-0.25627995
-0.067197294
-0.26805906
-0.071796036
-0.28042523
-0.076603449
-0.29341319
-0.08162006
-0.30705975
-0.0868466
-0.32140328
-0.092283617
-0.33648462
-0.097931315
-0.35234653
-0.10378937
-0.36903466
-0.10985822
-0.38659652
-0.11613787
-0.40508246
-0.12262773
-0.42454635
-0.12932753
-0.44504392
-0.13623666
-0.46663565
-0.1433544
-0.48938464
-0.1506789
-0.51335863
-0.15820913
-0.53862908
-0.1659422
-0.56527351
-0.17387498
-0.59337371
-0.18200366
-0.62301781
-0.19032293
-0.6543007
-0.19882676
-0.68732435
-0.20750719
-0.72219797
-0.21635532
-0.75903964
-0.22536049
-0.79797718
-0.23450966
-0.83914855
-0.24378902
-0.88270296
-0.25318246
-0.92880391
-0.26267275
-0.97762688
-0.27224089
-1.0293609
-0.28186769
-1.0842052
-0.29153373
-1.1423667
-0.3012213
-1.2040512
-0.31090966
-1.2694616
-0.32057881
-1.3387699
-0.33020364
-1.4121305
-0.3397373
-1.4896731
-0.34912851
-1.5714923
-0.35830031
-1.6576881
-0.36716018
-1.7483697
-0.37560563
-1.8437232
-0.38354982
-1.9441345
-0.39087655
-2.0504915
-0.3976314
-2.1643624
-2.2867297
-0.00021168392
-0.046804259
-0.00078657746
-0.057480671
-0.0011834379
-0.056901848
-0.0018435186
-0.061049625
-0.0023557346
-0.063319512
-0.0030295699
-0.066348887
-0.0036530163
-0.069554482
-0.0043695981
-0.0726258
-0.0051153034
-0.076115717
-0.0059151861
-0.079568353
-0.0067745975
-0.083269692
-0.0076935654
-0.08709529
-0.0086806051
-0.091098572
-0.0097405202
-0.095272697
-0.010879981
-0.099627765
-0.012105695
-0.10417034
-0.01342483
-0.10890831
-0.014844705
-0.11384982
-0.016373727
-0.11900312
-0.018019788
-0.12437821
-0.019791118
-0.12998425
-0.021696581
-0.13583259
-0.023744257
-0.14193444
-0.025942788
-0.1483025
-0.028300809
-0.1549504
-0.030825636
-0.16189309
-0.03352501
-0.1691463
-0.036406122
-0.1767276
-0.039475623
-0.1846554
-0.042738639
-0.1929507
-0.046201487
-0.20163406
-0.049867908
-0.21072982
-0.053742565
-0.22026183
-0.057828118
-0.23025732
-0.062127266
-0.24074416
-0.066642819
-0.2517515
-0.071376564
-0.26331117
-0.076329888
-0.27545638
-0.081504363
-0.28822166
-0.086901604
-0.30164377
-0.092522901
-0.31576138
-0.098369776
-0.33061509
-0.10444357
-0.34624781
-0.1107465
-0.36270432
-0.11728043
-0.38003245
-0.12404719
-0.39828258
-0.13104976
-0.41750742
-0.13828986
-0.43776395
-0.1457706
-0.4591113
-0.15349425
-0.48161341
-0.16146344
-0.50533767
-0.16967968
-0.53035674
-0.17814526
-0.55674743
-0.18686172
-0.58459233
-0.19582964
-0.61398067
-0.2050493
-0.64500775
-0.21452044
-0.67777623
-0.22424136
-0.712397
-0.23420962
-0.74898912
-0.24442151
-0.78768205
-0.25487332
-0.82861413
-0.26555876
-0.87193771
-0.27647174
-0.91781657
-0.28760547
-0.96642745
-0.29895302
-1.0179601
-0.31050824
-1.0726135
-0.32226646
-1.1305937
-0.33422252
-1.1921081
-0.34637675
-1.2573549
-0.35872359
-1.3265128
-0.37124863
-1.3997442
-0.3839381
-1.477176
-0.39674654
-1.5589313
-0.40961872
-1.645118
-0.42248152
-1.7358682
-0.43527158
-1.8313835
-0.44791929
-1.9320891
-0.46038
-2.0388788
-0.4727874
-2.153249
-2.2760968
-0.00019083499
-0.046613052
-0.00078522038
-0.056885615
-0.0011786597
-0.056507679
-0.001831922
-0.06039546
-0.0023377789
-0.062812713
-0.0030141155
-0.065671501
-0.0036528765
-0.068914594
-0.0043773412
-0.071900093
-0.005145097
-0.075346621
-0.0059666912
-0.078745299
-0.0068559294
-0.08237887
-0.0078119456
-0.086137555
-0.0088443363
-0.090064316
-0.0099591589
-0.09415585
-0.011164126
-0.0984206
-0.01246711
-0.10286497
-0.013876536
-0.10749628
-0.015401208
-0.11232233
-0.01704972
-0.11735153
-0.018831968
-0.12259262
-0.020756701
-0.12805587
-0.022833513
-0.1337518
-0.025071147
-0.13969248
-0.027478608
-0.14589031
-0.030064313
-0.15235954
-0.03283621
-0.15911556
-0.03580119
-0.16617516
-0.03896626
-0.17355579
-0.042336746
-0.18127755
-0.04591851
-0.18936088
-0.049715228
-0.19782853
-0.053730912
-0.20670448
-0.057968743
-0.21601342
-0.062431169
-0.2257833
-0.067120526
-0.23604209
-0.072038909
-0.24681916
-0.077187857
-0.25814691
-0.082569661
-0.27005775
-0.088186073
-0.28258677
-0.094039596
-0.29576993
-0.10013286
-0.30964578
-0.10646894
-0.32425444
-0.11305162
-0.33963811
-0.11988471
-0.35584151
-0.12697257
-0.37291194
-0.13432052
-0.39089877
-0.14193366
-0.40985495
-0.1498178
-0.42983675
-0.15797871
-0.45090336
-0.16642274
-0.47311811
-0.17515613
-0.49654858
-0.18418588
-0.5212667
-0.19351803
-0.54735029
-0.20315908
-0.57488159
-0.21311472
-0.60395069
-0.22339154
-0.63465217
-0.23399435
-0.6670906
-0.24492839
-0.70137664
-0.25619843
-0.73763013
-0.2678089
-0.77598121
-0.27976339
-0.81656954
-0.29206579
-0.85954762
-0.30471994
-0.90507992
-0.31773011
-0.9533432
-0.33110205
-1.0045263
-0.34484291
-1.0588277
-0.35896205
-1.116452
-0.3734711
-1.1776057
-0.38838711
-1.2424829
-0.40371684
-1.3112733
-0.41947292
-1.3841331
-0.43564652
-1.4612085
-0.45222201
-1.5426257
-0.46916577
-1.628509
-0.48642441
-1.7190175
-0.50395422
-1.8143681
-0.52172601
-1.9150072
-0.53976868
-2.0218116
-0.55827725
-2.1361927
-2.2590313
-0.00017246209
-0.04644017
-0.00079547379
-0.056261898
-0.0011955353
-0.056106851
-0.0018601166
-0.059729984
-0.0023789222
-0.062292933
-0.0030706001
-0.064978738
-0.0037399484
-0.068244082
-0.0044879278
-0.071150832
-0.005295928
-0.074537234
-0.0061616337
-0.077878083
-0.0071048038
-0.08143406
-0.008125325
-0.085115251
-0.0092335289
-0.088954176
-0.010437115
-0.092950158
-0.011745116
-0.097110309
-0.013166835
-0.10144076
-0.014711993
-0.10594842
-0.016390658
-0.11064071
-0.018213057
-0.11552591
-0.020189069
-0.12061309
-0.022329043
-0.12591207
-0.024642508
-0.13143415
-0.027138579
-0.13719184
-0.029826348
-0.14319755
-0.032713497
-0.14946693
-0.035807209
-0.15601587
-0.039114576
-0.16286125
-0.042640346
-0.17002287
-0.046389626
-0.17752043
-0.050366221
-0.1853757
-0.054573432
-0.19361191
-0.059014189
-0.20225341
-0.063689749
-0.21132655
-0.068603241
-0.22085739
-0.073755992
-0.23087571
-0.079149843
-0.24141035
-0.084787563
-0.25249275
-0.090671292
-0.26415596
-0.096805049
-0.27643315
-0.10319241
-0.28936072
-0.10983779
-0.30297637
-0.11674643
-0.31731937
-0.12392468
-0.33243079
-0.13137902
-0.34835522
-0.13911699
-0.36513887
-0.14714693
-0.38283032
-0.15547744
-0.40148224
-0.16411782
-0.42115021
-0.17307825
-0.44189256
-0.18236876
-0.46377275
-0.19200041
-0.48685739
-0.20198356
-0.51121916
-0.21233039
-0.53693409
-0.22305184
-0.56408575
-0.23416015
-0.59276302
-0.24566649
-0.62306168
-0.25758337
-0.65508509
-0.26992247
-0.68894499
-0.28269579
-0.7247612
-0.29591641
-0.76266315
-0.30959644
-0.80279197
-0.32374965
-0.84529903
-0.33839081
-0.89034832
-0.3535361
-0.93811582
-0.36920353
-0.98878919
-0.38541471
-1.0425641
-0.40219444
-1.0996432
-0.41957154
-1.1602305
-0.43757345
-1.224523
-0.45623172
-1.2927075
-0.47557111
-1.3649467
-0.49560929
-1.4413919
-0.51634697
-1.522183
-0.53776545
-1.6074618
-0.55984664
-1.6973941
-0.5825639
-1.7922322
-0.60593432
-1.8924144
-0.6300473
-1.998799
-0.65516059
-2.1126852
-2.2350014
-0.00015865602
-0.046281053
-0.00082367694
-0.055596147
-0.0012375728
-0.055692161
-0.001932167
-0.059034467
-0.0024813533
-0.061742757
-0.0032017033
-0.064257281
-0.0039220874
-0.067522504
-0.0047150257
-0.070356581
-0.0055862557
-0.073664581
-0.0065232324
-0.076939555
-0.0075496418
-0.080405964
-0.0086675676
-0.08399549
-0.0098883971
-0.087731348
-0.011221894
-0.091614486
-0.012678614
-0.09565122
-0.014269602
-0.099847189
-0.016005956
-0.10420924
-0.017898861
-0.10874473
-0.019959383
-0.11346204
-0.02219825
-0.11837056
-0.024625489
-0.12348082
-0.027250932
-0.12880433
-0.030083657
-0.13435432
-0.03313108
-0.14014488
-0.036400604
-0.14619166
-0.039898078
-0.1525121
-0.043628255
-0.15912418
-0.04759536
-0.1660482
-0.051802435
-0.17330507
-0.05625174
-0.1809173
-0.060944957
-0.18890871
-0.065884106
-0.19730331
-0.071070571
-0.20612806
-0.076506041
-0.21540872
-0.082192918
-0.22517433
-0.088133781
-0.23545355
-0.094331981
-0.24627702
-0.10079247
-0.2576762
-0.10751944
-0.26968498
-0.11451976
-0.28233709
-0.12180003
-0.29567044
-0.12936928
-0.3097219
-0.13723554
-0.3245335
-0.14540916
-0.34014749
-0.15390156
-0.35660902
-0.16272373
-0.37396707
-0.17188859
-0.39227241
-0.18140968
-0.41157996
-0.19130066
-0.43194794
-0.20157669
-0.45343838
-0.21225265
-0.47611815
-0.22334529
-0.50005811
-0.2348703
-0.5253354
-0.24684493
-0.55203212
-0.25928715
-0.58023647
-0.27221489
-0.61004442
-0.28564656
-0.64155901
-0.29960227
-0.67489051
-0.31410194
-0.71015927
-0.32916618
-0.74749443
-0.34481757
-0.78703568
-0.3610803
-0.8289333
-0.3779802
-0.87335024
-0.39554538
-0.92046086
-0.41380871
-0.97044875
-0.43280559
-1.023508
-0.45257579
-1.0798383
-0.47316324
-1.1396412
-0.49461368
-1.2031138
-0.51697762
-1.2704394
-0.54029825
-1.3417885
-0.56461079
-1.4173184
-0.58993981
-1.4971769
-0.61629582
-1.5815177
-0.6436715
-1.6705315
-0.67207499
-1.7644812
-0.70155299
-1.8638042
-0.73228279
-1.9692934
-0.7645548
-2.0821707
-2.2033922
-0.00015083949
-0.046129721
-0.00087665653
-0.05486958
-0.0013095951
-0.05525841
-0.0020481491
-0.05829498
-0.0026483564
-0.061141541
-0.0034155695
-0.063488943
-0.004210023
-0.066726835
-0.0050726792
-0.06949259
-0.0060327757
-0.072703032
-0.0070723298
-0.075898417
-0.008217089
-0.079259478
-0.0094727081
-0.082737989
-0.010852064
-0.086349941
-0.012366951
-0.090097361
-0.014029717
-0.093986012
-0.015852659
-0.098021579
-0.017848036
-0.10221095
-0.020027661
-0.10656192
-0.022402966
-0.11108325
-0.024984598
-0.11578512
-0.027782495
-0.12067875
-0.030805216
-0.12577704
-0.034060259
-0.13109426
-0.037554301
-0.13664534
-0.041291937
-0.142448
-0.045277415
-0.14852002
-0.049512853
-0.1548815
-0.054000347
-0.16155276
-0.058741256
-0.16855543
-0.063736237
-0.17591274
-0.0689865
-0.18364793
-0.074492845
-0.19178541
-0.080257369
-0.20035084
-0.08628219
-0.20936995
-0.092571061
-0.21887012
-0.099127802
-0.22887993
-0.1059585
-0.23942777
-0.11306915
-0.25054513
-0.12046854
-0.26226312
-0.12816485
-0.27461604
-0.13616946
-0.28763861
-0.14449258
-0.30136883
-0.15314747
-0.31584567
-0.16214802
-0.33111076
-0.17150841
-0.34720891
-0.18124448
-0.36418745
-0.19137295
-0.38209626
-0.20191137
-0.40098945
-0.2128785
-0.42092404
-0.22429333