/*--------------------------------*- C++ -*----------------------------------*\
  =========                 |
  \\      /  F ield         | OpenFOAM: The Open Source CFD Toolbox
   \\    /   O peration     | Website:  https://openfoam.org
    \\  /    A nd           | Version:  12
     \\/     M anipulation  |
\*---------------------------------------------------------------------------*/
FoamFile
{
    format      ascii;
    class       volScalarField;
    location    "0.049";
    object      T;
}
// * * * * * * * * * * * * * * * * * * * * * * * * * * * * * * * * * * * * * //

dimensions      [0 0 0 1 0 0 0];

internalField   nonuniform List<scalar> 
16000
(
294.94819
286.4997
289.74952
287.96347
289.06304
288.55494
288.9728
288.85927
289.05449
289.08664
289.20588
289.28905
289.39283
289.49401
289.60114
289.71156
289.82607
289.94452
290.06699
290.1935
290.32404
290.45863
290.59723
290.73981
290.88631
291.03663
291.19068
291.3483
291.50934
291.6736
291.84085
292.01084
292.18329
292.35788
292.53429
292.71216
292.89112
293.07079
293.25078
293.43068
293.6101
293.78865
293.96594
294.14161
294.31532
294.48673
294.65556
294.82153
294.98442
295.144
295.30012
295.4526
295.60134
295.74621
295.88712
296.02395
296.15657
296.28479
296.40834
296.52687
296.63989
296.74672
296.84645
296.93797
297.01993
297.09086
297.14925
297.19389
297.22436
297.24172
297.24978
297.25672
297.2726
297.30367
297.35765
297.4591
297.63393
297.84783
298.05603
298.18003
294.62069
286.08269
289.47475
287.59523
288.76034
288.21661
288.66887
288.54647
288.75561
288.79342
288.91947
289.0115
289.12235
289.23227
289.34773
289.46705
289.59064
289.71846
289.85055
289.98691
290.12752
290.27237
290.4214
290.57454
290.73169
290.89272
291.05749
291.22581
291.39746
291.5722
291.74975
291.9298
292.11201
292.29602
292.48146
292.66791
292.85495
293.04216
293.22911
293.41537
293.60051
293.78413
293.96582
294.14524
294.32203
294.4959
294.66655
294.83377
294.99734
295.15709
295.3129
295.46464
295.61225
295.75564
295.89478
296.02958
296.15994
296.28572
296.40669
296.52252
296.63277
296.73681
296.83379
296.92266
297.00218
297.07098
297.12775
297.17158
297.2024
297.22165
297.23348
297.24566
297.26655
297.30266
297.36537
297.4793
297.66051
297.87519
298.07601
298.17907
294.30961
285.69704
289.18745
287.27205
288.47587
287.92278
288.38861
288.27406
288.48793
288.53755
288.66903
288.77157
288.89044
289.01004
289.13499
289.26426
289.39805
289.53637
289.6792
289.82654
289.97834
290.13453
290.29504
290.45975
290.62852
290.80116
290.97749
291.15725
291.34018
291.52597
291.71428
291.90473
292.09692
292.29044
292.48484
292.67965
292.87441
293.06865
293.26189
293.45368
293.64357
293.83115
294.01603
294.19784
294.37628
294.55105
294.72193
294.88872
295.05127
295.20945
295.36318
295.51242
295.65714
295.79731
295.93294
296.06398
296.1904
296.31207
296.42882
296.54034
296.64622
296.7459
296.83858
296.92327
296.99884
297.06406
297.11783
297.15957
297.18962
297.20989
297.22478
297.24127
297.2663
297.30816
297.38108
297.5069
297.6924
297.90529
298.09567
298.17949
294.0251
285.34463
288.95658
286.98759
288.22653
287.66416
288.1438
288.03877
288.25787
288.32083
288.45876
288.57301
288.70123
288.83168
288.96739
289.10782
289.25302
289.403
289.55772
289.71712
289.88114
290.04967
290.22258
290.39971
290.58088
290.76583
290.95432
291.14602
291.34061
291.53769
291.73686
291.93767
292.13964
292.34229
292.5451
292.74756
292.94914
293.14934
293.34765
293.54359
293.73672
293.92663
294.11295
294.29534
294.47352
294.64728
294.81641
294.9808
295.14035
295.29501
295.44477
295.58963
295.72965
295.86486
295.9953
296.12099
296.24193
296.35805
296.4692
296.57512
296.67545
296.76965
296.85699
296.93658
297.00736
297.06825
297.11841
297.15755
297.18642
297.20728
297.22437
297.24374
297.27255
297.32084
297.4034
297.53807
297.72519
297.9351
298.11351
298.18017
293.76692
285.02948
288.73696
286.74816
288.02345
287.44882
287.93852
287.8476
288.07054
288.14937
288.29452
288.42178
288.56069
288.70313
288.85082
289.00356
289.16131
289.32407
289.49176
289.6643
289.84158
290.02345
290.20973
290.4002
290.59459
290.79259
290.99386
291.19801
291.4046
291.61317
291.82322
292.03421
292.24559
292.45679
292.66724
292.87636
293.08359
293.28838
293.49021
293.68862
293.88316
294.07345
294.25916
294.44002
294.6158
294.78635
294.95156
295.11138
295.26581
295.41486
295.55862
295.69717
295.83062
295.95908
296.08264
296.20138
296.31532
296.42445
296.52864
296.62769
296.72126
296.80885
296.88981
296.96329
297.02836
297.08411
297.12991
297.16581
297.19291
297.21371
297.23216
297.25394
297.2872
297.34175
297.43206
297.57222
297.75928
297.96503
298.12889
298.18058
293.53859
284.75862
288.5535
286.55246
287.8432
287.28273
287.78284
287.70649
287.93298
288.0286
288.18183
288.32289
288.47364
288.62898
288.78973
288.95586
289.12729
289.30399
289.48584
289.67271
289.86444
290.06079
290.26151
290.4663
290.67479
290.88658
291.10122
291.31821
291.53702
291.75706
291.97775
292.19844
292.4185
292.63729
292.85417
293.06852
293.27974
293.48728
293.69063
293.88934
294.08301
294.27132
294.454
294.63086
294.80177
294.96667
295.12555
295.27846
295.4255
295.56679
295.70248
295.83276
295.95779
296.07776
296.19282
296.30308
296.40863
296.50945
296.60549
296.69654
296.78231
296.86235
296.93604
297.00261
297.06124
297.11119
297.15208
297.18424
297.20906
297.22926
297.24884
297.27338
297.31049
297.36994
297.46536
297.60808
297.79402
297.99408
298.14116
298.18031
293.34268
284.5335
288.40411
286.39335
287.71015
287.16741
287.66338
287.61827
287.84329
287.96009
288.12241
288.27803
288.44204
288.61156
288.78686
288.96793
289.15465
289.3469
289.54452
289.74729
289.95495
290.16718
290.38362
290.60384
290.82737
291.05367
291.28216
291.51223
291.74321
291.97442
292.20512
292.43461
292.66217
292.88707
293.10864
293.32623
293.53925
293.74716
293.94949
294.14585
294.33591
294.51944
294.69629
294.86638
295.02969
295.18628
295.33628
295.47984
295.61716
295.74849
295.87407
295.99416
296.10901
296.21886
296.3239
296.42431
296.52018
296.61155
296.69837
296.78046
296.85756
296.92924
296.99493
297.05394
297.10555
297.1492
297.18474
297.21275
297.23487
297.25396
297.27418
297.30077
297.34046
297.40341
297.50179
297.6452
297.82896
298.02127
298.15083
298.17904
293.17701
284.35208
288.28598
286.27031
287.60087
287.08572
287.58821
287.55181
287.80469
287.94215
288.11615
288.28818
288.46788
288.65382
288.84595
289.0442
289.2484
289.45833
289.67373
289.89428
290.11961
290.34927
290.58275
290.81949
291.05886
291.30019
291.54274
291.78576
292.02843
292.26996
292.5095
292.74626
292.97945
293.2083
293.43214
293.65031
293.86226
294.06751
294.26569
294.4565
294.63973
294.8153
294.98318
295.14344
295.29623
295.44173
295.5802
295.71194
295.83727
295.95652
296.07004
296.17816
296.28121
296.37947
296.47318
296.56254
296.64767
296.72863
296.80536
296.87773
296.94547
297.00819
297.06535
297.11633
297.16053
297.19755
297.22744
297.25104
297.27012
297.28754
297.30723
297.33435
297.37577
297.44074
297.54058
297.6834
297.86344
298.04581
298.1578
298.17651
293.03647
284.2123
288.20258
286.18379
287.54532
287.08029
287.57274
287.58559
287.81975
287.97858
288.16778
288.35876
288.55711
288.7622
288.97385
289.19187
289.41602
289.64597
289.88133
290.12164
290.36638
290.61493
290.86662
291.12071
291.37641
291.63284
291.88913
292.14433
292.39753
292.64778
292.89417
293.13583
293.37193
293.60173
293.82455
294.03983
294.2471
294.44599
294.63628
294.81782
294.99058
295.15464
295.31017
295.4574
295.59664
295.72824
295.85262
295.97018
296.08136
296.18661
296.28633
296.38094
296.47081
296.55626
296.63757
296.71494
296.7885
296.85831
296.92434
296.98644
297.04436
297.09772
297.14601
297.1887
297.22527
297.25548
297.27959
297.29858
297.31433
297.3297
297.34842
297.37528
297.41681
297.4821
297.58171
297.72249
297.89678
298.06721
298.16202
298.17264
292.91993
284.11605
288.15889
286.14859
287.54185
287.07561
287.59855
287.65695
287.89296
288.07796
288.28591
288.49844
288.71844
288.94558
289.17957
289.42011
289.66679
289.91915
290.17663
290.43858
290.70427
290.97291
291.24358
291.51536
291.78721
292.0581
292.32695
292.59269
292.85424
293.11059
293.36077
293.60388
293.83914
294.06584
294.28343
294.49147
294.68966
294.87783
295.05594
295.22406
295.38239
295.53121
295.6709
295.80189
295.92466
296.03973
296.14763
296.24891
296.34409
296.43369
296.51821
296.59808
296.67371
296.74545
296.81358
296.8783
296.93975
296.99798
297.05293
297.10446
297.15231
297.19613
297.23543
297.26974
297.29866
297.32207
297.34036
297.35465
297.36686
297.37974
297.39684
297.42269
297.46345
297.52766
297.62524
297.76208
297.92841
298.08517
298.16377
298.16764
292.83085
284.0712
288.16024
286.22167
287.59689
287.21184
287.68945
287.78287
288.03606
288.24869
288.47943
288.71661
288.96158
289.21395
289.47335
289.73928
290.01115
290.28829
290.56991
290.85512
291.14294
291.43229
291.72204
292.01098
292.29788
292.58149
292.86056
293.13388
293.40032
293.65881
293.90839
294.14823
294.37766
294.59613
294.80328
294.9989
295.18293
295.35546
295.51671
295.66704
295.80689
295.93678
296.05729
296.16905
296.27272
296.36895
296.45838
296.54167
296.6194
296.69216
296.76045
296.82476
296.88549
296.94298
296.99751
297.04927
297.09837
297.14484
297.18861
297.22952
297.26731
297.30162
297.33201
297.35806
297.37945
297.39618
297.40876
297.41834
297.42684
297.43687
297.45178
297.47585
297.51489
297.57687
297.67087
297.80165
297.95792
298.0995
298.16373
298.16197
292.7756
284.08992
288.21569
286.35724
287.69863
287.36885
287.84871
287.98929
288.25746
288.50049
288.75837
289.02383
289.29743
289.57855
289.86665
290.16097
290.46068
290.7648
291.07224
291.3818
291.69216
292.00195
292.30974
292.61407
292.91347
293.20652
293.49184
293.76817
294.03436
294.2894
294.53246
294.7629
294.98027
295.1843
295.37494
295.55228
295.71661
295.86835
296.00802
296.13627
296.25381
296.36139
296.45979
296.54982
296.63226
296.70787
296.7774
296.84153
296.9009
296.95609
297.00764
297.05601
297.10159
297.14469
297.18557
297.22438
297.26122
297.29606
297.32882
297.35931
297.38726
297.41231
297.43406
297.45212
297.46626
297.47657
297.48361
297.48855
297.49323
297.50012
297.51237
297.53399
297.57042
297.62896
297.71782
297.84073
297.98495
298.1102
298.16263
298.15619
292.75888
284.1787
288.33475
286.54259
287.86647
287.61337
288.08746
288.27639
288.56749
288.84418
289.13401
289.43205
289.73842
290.05217
290.37246
290.6982
291.02816
291.36099
291.69518
292.02915
292.36122
292.68967
293.01277
293.32882
293.63618
293.93331
294.21883
294.49151
294.75035
294.99457
295.22362
295.43718
295.63518
295.81777
295.9853
296.13827
296.27735
296.40332
296.51703
296.6194
296.71138
296.79393
296.86799
296.93448
296.99428
297.04822
297.09705
297.14148
297.18216
297.21964
297.25443
297.28696
297.31757
297.34654
297.37408
297.40031
297.42525
297.44888
297.47105
297.49155
297.5101
297.52633
297.53986
297.55035
297.55765
297.56188
297.56365
297.56408
297.5649
297.56843
297.57761
297.59618
297.62913
297.68307
297.76536
297.87873
298.00923
298.11801
298.16087
298.15051
292.78206
284.34502
288.52266
286.81267
288.11024
287.93961
288.41561
288.65664
288.97782
289.29275
289.62004
289.95572
290.2995
290.65
291.0059
291.36564
291.72749
292.08961
292.45001
292.80668
293.15755
293.50056
293.83375
294.15525
294.46337
294.75662
295.03378
295.29389
295.53629
295.76063
295.96683
296.15509
296.32586
296.47979
296.6177
296.74054
296.84938
296.94532
297.02951
297.1031
297.16722
297.22297
297.27137
297.31342
297.35
297.38196
297.41004
297.43491
297.45717
297.47733
297.49585
297.51308
297.52931
297.54478
297.55963
297.57391
297.58763
297.60069
297.61291
297.62406
297.63381
297.64182
297.64771
297.65119
297.65213
297.65072
297.64754
297.64366
297.64066
297.64069
297.64645
297.6614
297.69004
297.7383
297.8127
297.91491
298.03037
298.12323
298.15883
298.14484
292.85022
284.60176
288.78276
287.17025
288.43988
288.36218
288.84685
289.14406
289.50397
289.86312
290.23406
290.61293
290.99884
291.38983
291.78393
292.17898
292.57264
292.9625
293.34607
293.72088
294.08452
294.43471
294.76938
295.08671
295.3852
295.66368
295.92138
296.15789
296.37316
296.56748
296.74143
296.89584
297.03177
297.15041
297.25304
297.34105
297.4158
297.4787
297.53107
297.57422
297.60936
297.63764
297.66012
297.67776
297.69143
297.70191
297.70988
297.71595
297.72064
297.72438
297.72755
297.73042
297.73323
297.73613
297.7392
297.74245
297.74581
297.74915
297.75225
297.75483
297.75656
297.75707
297.75601
297.7531
297.74827
297.74171
297.73397
297.72603
297.71932
297.71575
297.71779
297.72856
297.75204
297.79355
297.85877
297.94835
298.04773
298.12563
298.15621
298.13869
292.96756
284.967
289.11121
287.62905
288.87024
288.8954
289.39919
289.75841
290.16667
290.57713
290.99816
291.42548
291.85737
292.29113
292.72403
293.15315
293.5755
293.98806
294.38784
294.77206
295.13813
295.4838
295.80725
296.10705
296.38229
296.63252
296.85775
297.05842
297.2353
297.3895
297.52234
297.63534
297.73011
297.80832
297.87166
297.92178
297.96028
297.98871
298.00847
298.02091
298.02724
298.02857
298.02589
298.02009
298.01195
298.00216
297.9913
297.97987
297.9683
297.95692
297.94602
297.93579
297.92639
297.91789
297.91032
297.90361
297.89766
297.89228
297.8872
297.88213
297.8767
297.87053
297.86328
297.8547
297.84473
297.83355
297.82168
297.80998
297.79969
297.79248
297.79051
297.7965
297.81398
297.84769
297.9025
297.97805
298.06054
298.12444
298.15112
298.13167
293.13851
285.46982
289.51481
288.2068
289.42202
289.56246
290.09818
290.52645
290.99268
291.46146
291.93801
292.41742
292.89689
293.37279
293.84148
294.2992
294.74227
295.16716
295.57066
295.94997
296.30279
296.62745
296.92286
297.18855
297.42467
297.63184
297.81116
297.9641
298.09237
298.19789
298.28268
298.3488
298.39831
298.43319
298.45536
298.46661
298.46859
298.46285
298.45077
298.43362
298.4125
298.38843
298.36227
298.33477
298.30661
298.27832
298.25038
298.22316
298.19699
298.17209
298.14865
298.12679
298.10657
298.08801
298.07105
298.0556
298.04147
298.02845
298.01623
298.00448
297.99282
297.98086
297.96825
297.95476
297.94031
297.92507
297.90951
297.89435
297.88063
297.86975
297.86348
297.86412
297.87477
297.89969
297.9429
298.00316
298.06817
298.1189
298.14203
298.12345
293.37416
286.15755
290.03665
288.93436
290.12591
290.3943
290.97607
291.48021
292.01274
292.54543
293.0807
293.61272
294.13728
294.64961
295.14504
295.6191
296.06769
296.48727
296.87501
297.22885
297.54755
297.83071
298.07863
298.2923
298.47326
298.62347
298.74518
298.84084
298.913
298.96422
298.997
299.01372
299.01666
299.0079
298.98938
298.96285
298.92988
298.89188
298.8501
298.80563
298.75944
298.71235
298.66507
298.6182
298.57225
298.52763
298.48467
298.44364
298.40473
298.36808
298.33378
298.30185
298.2723
298.24508
298.22006
298.19711
298.17599
298.15645
298.13815
298.12074
298.10381
298.08697
298.06987
298.05223
298.03399
298.01527
297.99644
297.9781
297.96108
297.94647
297.93563
297.9304
297.93352
297.9488
297.97938
298.02324
298.07041
298.10854
298.12885
298.11399
293.7009
287.018
290.70373
289.84872
291.01932
291.42544
292.06877
292.65536
293.26052
293.85992
294.45276
295.03191
295.59153
296.12579
296.62939
297.09781
297.52749
297.91594
298.26178
298.5647
298.82538
299.04533
299.2267
299.37217
299.48471
299.5675
299.62374
299.65661
299.66916
299.66427
299.6446
299.61261
299.57051
299.52027
299.46367
299.40227
299.33742
299.27033
299.20201
299.13336
299.06512
298.99793
298.93232
298.86873
298.8075
298.7489
298.69314
298.64036
298.59066
298.54407
298.5006
298.46021
298.42282
298.38833
298.35658
298.32736
298.30043
298.27547
298.25215
298.23008
298.20885
298.18805
298.1673
298.14631
298.12496
298.1033
298.08161
298.06035
298.04013
298.02172
298.00606
297.99457
297.98969
297.99478
298.012
298.03883
298.06818
298.09444
298.1133
298.10318
294.1586
287.98584
291.55692
290.98508
292.14578
292.69731
293.41875
294.09345
294.77287
295.43461
296.07424
296.68335
297.25513
297.78366
298.26444
298.69444
299.07221
299.39768
299.67213
299.89782
300.07786
300.2159
300.3159
300.38198
300.41821
300.42854
300.41669
300.38611
300.33994
300.28101
300.21184
300.13466
300.05143
299.96384
299.87337
299.78128
299.68866
299.59642
299.50535
299.41609
299.32918
299.24506
299.16408
299.0865
299.01254
298.94234
298.87597
298.81349
298.75489
298.70013
298.64913
298.60181
298.55802
298.5176
298.48036
298.44606
298.41442
298.38511
298.35777
298.33201
298.30741
298.28352
298.25996
298.23639
298.21259
298.18854
298.16437
298.14041
298.11709
298.09485
298.07425
298.05635
298.04333
298.03807
298.04185
298.05198
298.06442
298.07956
298.0973
298.09155
294.80261
289.23676
292.64421
292.395
293.56545
294.26765
295.07824
295.83878
296.58121
297.2849
297.94275
298.54656
299.09065
299.57136
299.9872
300.33868
300.62795
300.8585
301.03478
301.16182
301.24493
301.28948
301.30065
301.28335
301.24212
301.18107
301.10386
301.01377
300.91363
300.80592
300.69276
300.57599
300.45716
300.33759
300.21839
300.10049
299.98467
299.87157
299.76172
299.65554
299.55336
299.45544
299.36196
299.27307
299.18882
299.10926
299.03436
298.96408
298.89834
298.83703
298.78002
298.72717
298.67828
298.63317
298.5916
298.5533
298.51797
298.48529
298.45486
298.42631
298.39918
298.37304
298.34744
298.322
298.2964
298.27047
298.24424
298.21788
298.19162
298.16566
298.14024
298.11613
298.09524
298.07998
298.07101
298.06585
298.06242
298.06686
298.08235
298.08029
295.68991
290.82942
294.0501
294.15748
295.35666
296.20343
297.09469
297.91716
298.68678
299.38681
300.01105
300.55485
301.01701
301.39892
301.70424
301.9383
302.1075
302.21884
302.27949
302.29644
302.27633
302.22525
302.14871
302.05158
301.93815
301.8121
301.67662
301.53441
301.38775
301.23856
301.08845
300.93877
300.79062
300.64491
300.5024
300.36369
300.22926
300.0995
299.97471
299.85511
299.74085
299.63204
299.52874
299.43094
299.33862
299.25172
299.17014
299.09376
299.02244
298.95603
298.89435
298.8372
298.78438
298.73565
298.69076
298.64943
298.61133
298.57613
298.54346
298.5129
298.48401
298.45634
298.4294
298.40274
298.37594
298.3487
298.32087
298.29249
298.26363
298.2343
298.20454
298.17488
298.14686
298.12234
298.10157
298.08275
298.06608
298.05907
298.0708
298.071
296.80441
292.8878
295.87963
296.35573
297.58572
298.54854
299.47576
300.30058
301.02952
301.65395
302.17394
302.59237
302.91537
303.15103
303.30869
303.39817
303.42917
303.4109
303.35182
303.25951
303.14063
303.00091
302.84528
302.67788
302.5022
302.32114
302.13708
301.95201
301.76754
301.58499
301.40543
301.2297
301.0585
300.89236
300.73171
300.57686
300.42806
300.28548
300.14921
300.01932
299.89582
299.77868
299.66786
299.56327
299.46478
299.37228
299.2856
299.20457
299.12901
299.05871
298.99349
298.9331
298.87732
298.82589
298.77855
298.735
298.69491
298.65794
298.62372
298.59182
298.56182
298.53322
298.50553
298.47822
298.45079
298.42281
298.39398
298.36415
298.33325
298.30118
298.26789
298.23372
298.19971
298.16694
298.13528
298.10384
298.07562
298.06108
298.06546
298.06574
298.31739
295.52402
298.22814
299.04328
300.24925
301.27283
302.14741
302.87774
303.47292
303.93684
304.27998
304.5147
304.65482
304.71424
304.70626
304.64306
304.53546
304.39285
304.22324
304.03331
303.82864
303.61381
303.39255
303.16788
302.94225
302.7176
302.49551
302.2772
302.06365
301.85562
301.65368
301.45827
301.26973
301.08827
300.91406
300.74718
300.58768
300.43555
300.29075
300.15322
300.02285
299.89953
299.78313
299.67347
299.5704
299.47372
299.38323
299.29874
299.22001
299.14684
299.07898
299.0162
298.95826
298.90487
298.85578
298.81066
298.76921
298.73107
298.69586
298.66316
298.63254
298.6035
298.57552
298.54805
298.52051
298.49237
298.4632
298.43265
298.40048
298.36652
298.33069
298.29322
298.25464
298.21523
298.17461
298.13318
298.09604
298.0735
298.0688
298.06165
300.27468
298.80819
301.09297
302.19578
303.3719
304.23069
304.93264
305.45636
305.8243
306.05483
306.16913
306.18727
306.12778
306.00692
305.83861
305.63444
305.40393
305.15477
304.89316
304.62398
304.35114
304.07765
303.80591
303.53774
303.27457
303.01747
302.76726
302.52454
302.28974
302.06316
301.84499
301.63535
301.43428
301.24178
301.05779
300.88225
300.71504
300.55603
300.40507
300.26201
300.12667
299.99887
299.87839
299.76505
299.65862
299.55888
299.4656
299.37856
299.29751
299.22221
299.15243
299.0879
299.02839
298.97361
298.92327
298.87709
298.83474
298.79586
298.76008
298.72698
298.69612
298.66699
298.63909
298.61182
298.58461
298.55685
298.52798
298.49748
298.46491
298.42998
298.39259
298.35295
298.31132
298.2675
298.22089
298.17252
298.12833
298.09775
298.07972
298.04527
302.70315
302.72749
304.71963
305.68608
306.57452
307.18172
307.58605
307.80861
307.88565
307.84669
307.71842
307.52284
307.27793
306.99792
306.69399
306.37478
306.04692
305.71548
305.38428
305.05619
304.73337
304.41741
304.10945
303.81032
303.52059
303.24065
302.97073
302.71092
302.46128
302.22176
301.99227
301.77268
301.56286
301.36262
301.17177
300.99012
300.81745
300.65356
300.49821
300.35119
300.21226
300.08119
299.95775
299.8417
299.73279
299.63078
299.53541
299.44645
299.36365
299.28675
299.21552
299.14968
299.08899
299.03317
298.98194
298.935
298.89204
298.8527
298.81661
298.78336
298.7525
298.72354
298.69595
298.66918
298.6426
298.6156
298.58751
298.55769
298.52551
298.49051
298.45247
298.4115
298.36778
298.32109
298.27089
298.21765
298.16534
298.12075
298.08487
298.04054
305.74563
307.12403
308.44215
309.13875
309.6137
309.82241
309.84677
309.72831
309.50748
309.21441
308.8724
308.49876
308.10628
307.70429
307.29957
306.89696
306.49996
306.11101
305.7318
305.36349
305.00682
304.66224
304.32999
304.01016
303.7027
303.4075
303.12438
302.85313
302.5935
302.34523
302.10804
301.88166
301.66579
301.46017
301.2645
301.07851
300.90193
300.73449
300.57591
300.42594
300.28431
300.15076
300.02503
299.90686
299.79599
299.69216
299.59512
299.50461
299.42037
299.34216
299.26972
299.2028
299.14114
299.08446
299.03249
298.98494
298.9415
298.90183
298.86556
298.83228
298.80155
298.77289
298.74578
298.71964
298.69387
298.6678
298.64072
298.6119
298.58063
298.54626
298.50836
298.46669
298.42111
298.37137
298.31728
298.25967
298.20156
298.1472
298.09656
298.03932
309.66789
311.43938
311.97568
312.16097
312.10706
311.87506
311.52691
311.10469
310.63836
310.14846
309.64895
309.14921
308.6555
308.1719
307.70106
307.24462
306.80351
306.37821
305.96887
305.57543
305.19767
304.8353
304.48794
304.1552
303.83665
303.53186
303.2404
302.96184
302.69578
302.44182
302.19955
301.96862
301.74865
301.53931
301.34026
301.15117
300.97174
300.80166
300.64063
300.48839
300.34463
300.2091
300.0815
299.96159
299.84908
299.74372
299.64524
299.55338
299.4679
299.38854
299.31505
299.24717
299.18464
299.12719
299.07457
299.02647
298.9826
298.94263
298.90621
298.87294
298.84238
298.81407
298.78749
298.76205
298.73712
298.712
298.68595
298.65818
298.62793
298.59447
298.55714
298.51536
298.46869
298.4169
298.36006
298.29881
298.23459
298.16929
298.10393
298.03731
314.5971
314.96304
314.69333
314.32673
313.80715
313.21781
312.59398
311.96107
311.33312
310.71869
310.12251
309.54713
308.99372
308.46262
307.95365
307.46634
307.00006
306.55406
306.12758
305.71983
305.33003
304.95746
304.60139
304.26114
303.93608
303.6256
303.32912
303.0461
302.77605
302.51847
302.27292
302.03897
301.81623
301.6043
301.40283
301.21147
301.0299
300.85778
300.69483
300.54073
300.39521
300.25798
300.12877
300.0073
299.8933
299.78652
299.68668
299.59354
299.50684
299.42633
299.35176
299.28287
299.21942
299.16113
299.10775
299.05899
299.01457
298.97416
298.93742
298.90399
298.87343
298.8453
298.81909
298.79421
298.77002
298.74578
298.7207
298.69395
298.66469
298.63209
298.5953
298.5535
298.50612
298.45302
298.39441
298.33043
298.2608
298.18577
298.10846
298.03576
316.58117
316.74621
316.17313
315.41517
314.64032
313.86476
313.10856
312.37926
311.68028
311.01258
310.37586
309.76917
309.19124
308.64069
308.11608
307.61606
307.13929
306.68454
306.25064
305.83654
305.44124
305.06381
304.70341
304.35925
304.03061
303.71681
303.41723
303.13129
302.85845
302.5982
302.35007
302.11361
301.88842
301.6741
301.47027
301.2766
301.09273
300.91836
300.75317
300.59687
300.44916
300.30978
300.17843
300.05485
299.93878
299.82995
299.7281
299.63298
299.54435
299.46194
299.38553
299.31487
299.2497
299.18977
299.13484
299.08462
299.03886
298.99723
298.95943
298.92509
298.89383
298.8652
298.83872
298.81383
298.78987
298.76609
298.74167
298.71574
298.6874
298.65567
298.61954
298.57801
298.53041
298.47665
298.41698
298.35111
298.27769
298.19623
298.11147
298.03534
311.33839
310.14078
306.44478
303.58121
302.31938
302.03632
301.96745
301.96317
301.84873
301.79116
301.69273
301.61581
301.52743
301.43961
301.35246
301.26498
301.17688
301.08813
300.99878
300.90888
300.81852
300.72779
300.63682
300.54572
300.45462
300.36364
300.2729
300.18251
300.0926
300.00326
299.91461
299.82673
299.73974
299.65372
299.56878
299.48499
299.40246
299.32128
299.24154
299.16332
299.08673
299.01184
298.93876
298.86758
298.79837
298.73125
298.6663
298.60362
298.54332
298.4855
298.43028
298.37782
298.32827
298.28182
298.23871
298.19923
298.16375
298.13269
298.10662
298.08621
298.07235
298.06597
298.06814
298.07996
298.10236
298.13579
298.17963
298.23167
298.28765
298.34098
298.38328
298.40112
298.3816
298.3006
298.16187
297.97374
297.79641
297.72161
297.68463
298.02611
310.65834
307.72204
303.56021
301.50863
300.94304
300.94975
301.04978
301.05746
301.04864
301.02038
300.99327
300.95466
300.91051
300.86156
300.80881
300.7524
300.6927
300.63005
300.56478
300.49716
300.4275
300.35603
300.28302
300.20869
300.13325
300.05693
299.9799
299.90236
299.82449
299.74644
299.66839
299.59049
299.51289
299.43573
299.35916
299.28331
299.20831
299.13431
299.06142
298.98978
298.9195
298.85071
298.78354
298.71809
298.6545
298.59286
298.53332
298.47597
298.42095
298.3684
298.31844
298.27125
298.227
298.18591
298.14823
298.11426
298.08438
298.05902
298.03873
298.02419
298.01623
298.01574
298.02369
298.04102
298.06847
298.10619
298.15319
298.2069
298.26283
298.31441
298.35312
298.36556
298.33847
298.25058
298.10884
297.927
297.76458
297.6973
297.68325
298.03288
309.29742
305.66935
302.54852
300.85534
300.52971
300.56766
300.59557
300.56812
300.53726
300.50356
300.47068
300.4348
300.39705
300.35657
300.31409
300.26929
300.22233
300.17324
300.1221
300.06899
300.01403
299.95732
299.89898
299.83914
299.77794
299.71552
299.65201
299.58758
299.52236
299.45651
299.39018
299.32353
299.25672
299.1899
299.12322
299.05684
298.99092
298.92561
298.86106
298.79742
298.73485
298.6735
298.6135
298.55501
298.49816
298.4431
298.38998
298.33894
298.29012
298.24368
298.19979
298.15862
298.12038
298.08529
298.05363
298.02571
298.00191
297.98267
297.96853
297.96015
297.95831
297.96385
297.97762
298.00044
298.03282
298.07462
298.12451
298.17964
298.23537
298.28512
298.32025
298.3273
298.29312
298.19942
298.05667
297.88227
297.73489
297.67386
297.68164
298.04007
308.10732
304.21342
301.34796
300.07646
300.02051
300.03613
300.04907
300.01353
299.99264
299.96348
299.93835
299.90891
299.87886
299.84706
299.81423
299.77979
299.74385
299.70636
299.66731
299.62668
299.58449
299.54077
299.49556
299.44891
299.40088
299.35156
299.30102
299.24937
299.19672
299.14317
299.08885
299.0339
298.97846
298.92265
298.86665
298.8106
298.75465
298.69898
298.64373
298.58908
298.5352
298.48224
298.43037
298.37977
298.33058
298.28298
298.23714
298.19321
298.15137
298.1118
298.07467
298.0402
298.0086
297.98011
297.95502
297.93366
297.9164
297.9037
297.89606
297.89415
297.89867
297.91041
297.93012
297.95844
297.99569
298.04143
298.09405
298.15042
298.2058
298.25361
298.28502
298.28664
298.24581
298.14734
298.00517
297.83916
297.7069
297.65252
297.67989
298.0477
307.39073
302.97646
300.36849
299.42922
299.49309
299.47003
299.49059
299.45494
299.44495
299.42092
299.40415
299.38207
299.36065
299.33774
299.31431
299.28963
299.26386
299.2369
299.20872
299.17926
299.14851
299.11645
299.08307
299.0484
299.01243
298.97522
298.9368
298.89722
298.85657
298.81491
298.77233
298.72894
298.68485
298.64019
298.59507
298.54966
298.50409
298.45851
298.4131
298.36801
298.32342
298.27951
298.23643
298.19439
298.15355
298.11409
298.07619
298.04004
298.00583
297.97375
297.944
297.9168
297.89238
297.87101
297.85297
297.83861
297.8283
297.82248
297.82166
297.82644
297.83752
297.85557
297.88125
297.91505
297.95706
298.00659
298.06174
298.11919
298.1741
298.21984
298.24746
298.2437
298.19683
298.09479
297.95466
297.79788
297.68048
297.63424
297.67882
298.05559
306.81655
301.77221
299.55059
298.80705
298.93778
298.88724
298.92593
298.89145
298.89535
298.87824
298.87189
298.85843
298.8464
298.83275
298.8188
298.80373
298.7877
298.77064
298.75252
298.73329
298.71294
298.69144
298.66878
298.64496
298.61996
298.59381
298.56653
298.53813
298.50866
298.47818
298.44674
298.41442
298.38131
298.3475
298.31311
298.27826
298.24308
298.20772
298.17232
298.13705
298.10207
298.06756
298.0337
298.00066
297.96864
297.93782
297.90838
297.88054
297.85447
297.83039
297.80852
297.78909
297.77233
297.75852
297.74795
297.74097
297.73795
297.73932
297.74556
297.75726
297.77503
297.79948
297.83115
297.87037
297.91703
297.97018
298.02769
298.08608
298.1404
298.18398
298.20772
298.19873
298.14656
298.04215
297.90535
297.75848
297.65558
297.61967
297.67934
298.0636
306.23487
300.69361
298.87644
298.23658
298.41159
298.33673
298.39335
298.35775
298.37316
298.36079
298.36291
298.35662
298.35217
298.34602
298.33977
298.33264
298.32477
298.31609
298.30654
298.2961
298.28474
298.27243
298.25915
298.24487
298.22959
298.2133
298.196
298.1777
298.15842
298.1382
298.11706
298.09507
298.0723
298.0488
298.02469
298.00006
297.97502
297.94971
297.92425
297.89881
297.87353
297.84858
297.82413
297.80037
297.77747
297.75562
297.73502
297.71586
297.69834
297.68268
297.6691
297.65783
297.64912
297.64324
297.6405
297.64122
297.64578
297.65458
297.6681
297.68685
297.71141
297.74231
297.77995
297.82451
297.87568
297.93229
297.992
298.05119
298.10483
298.14612
298.16597
298.15204
298.09537
297.98977
297.85741
297.72105
297.634
297.61196
297.68198
298.07162
305.73858
299.73139
298.30548
297.71072
297.92167
297.8231
297.89714