/*--------------------------------*- C++ -*----------------------------------*\
  =========                 |
  \\      /  F ield         | OpenFOAM: The Open Source CFD Toolbox
   \\    /   O peration     | Website:  https://openfoam.org
    \\  /    A nd           | Version:  12
     \\/     M anipulation  |
\*---------------------------------------------------------------------------*/
FoamFile
{
    format      ascii;
    class       volScalarField;
    location    "0.123";
    object      alphat;
}
// * * * * * * * * * * * * * * * * * * * * * * * * * * * * * * * * * * * * * //

dimensions      [1 -1 -1 0 0 0 0];

internalField   nonuniform List<scalar> 
16000
(
4.8935178e-07
1.0784313e-05
2.1587447e-05
2.5660787e-05
1.9825614e-05
2.730801e-05
1.9268155e-05
2.6419756e-05
2.0602984e-05
2.8394247e-05
2.3915965e-05
2.8109279e-05
2.5651874e-05
2.6356281e-05
2.54892e-05
2.5367491e-05
2.5126538e-05
2.5079521e-05
2.5118141e-05
2.5264715e-05
2.5511591e-05
2.5858268e-05
2.6302417e-05
2.684444e-05
2.74871e-05
2.8237286e-05
2.9104202e-05
3.0102367e-05
3.124943e-05
3.2564441e-05
3.4068359e-05
3.5788944e-05
3.7761978e-05
4.0031565e-05
4.2651985e-05
4.5688071e-05
4.9217149e-05
5.3331549e-05
5.8145617e-05
6.3801093e-05
7.046459e-05
7.8332658e-05
8.7653127e-05
9.872977e-05
0.00011192459
0.00012767235
0.00014651246
0.00016910292
0.00019624566
0.00022891879
0.00026832037
0.00031592121
0.00037352145
0.00044332992
0.00052805932
0.00063105874
0.00075648388
0.00090952224
0.001096687
0.0011794922
0.0011802406
0.0011809103
0.0011814731
0.001181904
0.0011822033
0.0011823637
0.0011823733
0.0011822104
0.0011818394
0.0011812073
0.0011802259
0.0011786966
0.00117657
0.0011748924
0.0011735169
0.0011725095
0.0011718981
0.0011720411
0.0011704973
0.0011700429
4.4609941e-07
1.0217485e-05
2.131861e-05
2.3266941e-05
1.7873722e-05
2.445533e-05
1.7093259e-05
2.3117031e-05
1.8198317e-05
2.5066459e-05
2.1645101e-05
2.5328326e-05
2.3445155e-05
2.3867538e-05
2.3195458e-05
2.301736e-05
2.2820018e-05
2.2767241e-05
2.2806298e-05
2.2941396e-05
2.3170317e-05
2.34922e-05
2.3905365e-05
2.4410276e-05
2.5009163e-05
2.5708478e-05
2.6516241e-05
2.7445556e-05
2.851313e-05
2.9737524e-05
3.1138259e-05
3.274073e-05
3.4578077e-05
3.6691166e-05
3.913081e-05
4.1957997e-05
4.5245939e-05
4.9081438e-05
5.3571075e-05
5.8849086e-05
6.5075588e-05
7.2435722e-05
8.1162999e-05
9.1547158e-05
0.00010393597
0.00011874285
0.00013648254
0.00015778511
0.00018342026
0.00021432754
0.00025165841
0.00029683043
0.00035158135
0.00041804765
0.00049885559
0.00059724984
0.00071725949
0.00086390755
0.0010434874
0.0011789541
0.0011796988
0.001180329
0.0011808599
0.0011812597
0.0011815284
0.0011816593
0.0011816409
0.0011814521
0.0011810559
0.0011803913
0.0011793694
0.0011778513
0.0011758292
0.0011742254
0.0011729211
0.0011719391
0.0011713858
0.001171356
0.0011703634
0.001170148
3.9636549e-07
9.7757682e-06
2.0142791e-05
2.1266909e-05
1.5990136e-05
2.1521739e-05
1.5207058e-05
2.0083905e-05
1.6349695e-05
2.1984854e-05
1.9721815e-05
2.2543399e-05
2.1226159e-05
2.1365111e-05
2.0852732e-05
2.0651011e-05
2.0487995e-05
2.0440298e-05
2.0481902e-05
2.0610292e-05
2.0824637e-05
2.112449e-05
2.1508505e-05
2.1977402e-05
2.2532993e-05
2.3181497e-05
2.3930099e-05
2.4790695e-05
2.5778864e-05
2.6912683e-05
2.8210696e-05
2.9696423e-05
3.1400814e-05
3.3361943e-05
3.5627543e-05
3.8255072e-05
4.1314104e-05
4.48871e-05
4.9074119e-05
5.400193e-05
5.9825336e-05
6.6720697e-05
7.4909268e-05
8.4667724e-05
9.6332509e-05
0.00011029977
0.00012706354
0.00014723054
0.00017154366
0.00020091126
0.00023644631
0.00027952263
0.00033182637
0.00039543485
0.00047290407
0.00056739384
0.0006828309
0.00082411391
0.00099737024
0.0011785892
0.0011793188
0.001179892
0.0011803717
0.0011807225
0.0011809435
0.0011810279
0.0011809649
0.0011807335
0.0011802973
0.001179591
0.0011785126
0.0011769633
0.0011750628
0.0011735472
0.0011723202
0.0011714019
0.0011709025
0.0011708159
0.0011702671
0.0011702138
3.6079742e-07
9.4429455e-06
1.9095735e-05
1.9730814e-05
1.4360406e-05
1.8989767e-05
1.3540175e-05
1.7540526e-05
1.470522e-05
1.9366306e-05
1.7990981e-05
2.0077831e-05
1.918104e-05
1.911379e-05
1.8720787e-05
1.8518004e-05
1.8385334e-05
1.8348382e-05
1.839566e-05
1.8521377e-05
1.8725239e-05
1.9007298e-05
1.9366571e-05
1.9804179e-05
2.0321655e-05
2.0925143e-05
2.1621283e-05
2.242101e-05
2.3338848e-05
2.4392485e-05
2.5599823e-05
2.6982795e-05
2.8570581e-05
3.0398865e-05
3.2512789e-05
3.4966777e-05
3.7827275e-05
4.1173363e-05
4.5099928e-05
4.9726814e-05
5.5204773e-05
6.1703531e-05
6.9434528e-05
7.8662869e-05
8.9716852e-05
0.00010297935
0.00011892806
0.00013815158
0.00016137221
0.00018947549
0.0002235453
0.00026492357
0.00031525885
0.00037658662
0.00045141414
0.00054284268
0.00065472798
0.00079188513
0.00096033954
0.0011676184
0.0011791304
0.0011796302
0.0011800414
0.0011803272
0.0011804851
0.0011805084
0.0011803866
0.0011800988
0.0011796097
0.0011788546
0.0011777218
0.0011761276
0.0011743453
0.001172916
0.001171765
0.0011709069
0.0011704245
0.0011702983
0.0011701074
0.0011701437
3.2368529e-07
9.1945314e-06
1.818416e-05
1.9704996e-05
1.4318613e-05
1.6782389e-05
1.2079749e-05
1.5360284e-05
1.3294517e-05
1.7110885e-05
1.6455821e-05
1.7862004e-05
1.7278407e-05
1.7071796e-05
1.6766777e-05
1.6578031e-05
1.6470359e-05
1.6444829e-05
1.6496532e-05
1.6619034e-05
1.6812142e-05
1.7076593e-05
1.741181e-05
1.7819436e-05
1.8300873e-05
1.8862284e-05
1.9509914e-05
2.0253945e-05
2.110786e-05
2.2088917e-05
2.3214596e-05
2.4505519e-05
2.5989401e-05
2.7699873e-05
2.9679856e-05
3.1981146e-05
3.4667414e-05
3.7815012e-05
4.1514971e-05
4.5880572e-05
5.1059193e-05
5.7215627e-05
6.4553683e-05
7.3327661e-05
8.3859757e-05
9.6522588e-05
0.00011178045
0.0001302072
0.00015250826
0.00017955162
0.0002123975
0.00025236271
0.00030106569
0.00036050897
0.00043316209
0.00052208106
0.00063106673
0.00076486914
0.00092943735
0.001132201
0.0011791153
0.0011795268
0.0011798529
0.0011800583
0.0011801387
0.001180087
0.0011798929
0.0011795358
0.0011789808
0.0011781675
0.0011769825
0.0011753427
0.0011736758
0.0011723329
0.0011712582
0.0011704569
0.0011699816
0.0011698439
0.0011698567
0.0011697485
2.8810738e-07
9.0411066e-06
1.7460823e-05
1.943185e-05
1.4058822e-05
1.485696e-05
1.1410238e-05
1.3562965e-05
1.2313773e-05
1.521433e-05
1.511529e-05
1.5921473e-05
1.5546152e-05
1.5257539e-05
1.5007935e-05
1.4835534e-05
1.4743924e-05
1.4725396e-05
1.4777656e-05
1.4894657e-05
1.5076029e-05
1.5323099e-05
1.5635514e-05
1.6015355e-05
1.646399e-05
1.6987565e-05
1.759201e-05
1.8286919e-05
1.9084768e-05
2.0002356e-05
2.105694e-05
2.2268083e-05
2.3662357e-05
2.527169e-05
2.7137198e-05
2.9308514e-05
3.1846981e-05
3.4826808e-05
3.8336581e-05
4.2483954e-05
4.7413267e-05
5.3286144e-05
6.0301535e-05
6.8704008e-05
7.881187e-05
9.0990994e-05
0.00010569578
0.00012348965
0.0001450655
0.00017128038
0.00020317776
0.00024205801
0.00028951948
0.00034754358
0.00041857708
0.00050564864
0.00061252581
0.00074391882
0.00090573225
0.0011053429
0.0011792623
0.0011795717
0.0011797978
0.001179909
0.0011798993
0.0011797604
0.0011794823
0.0011790448
0.0011784124
0.0011775303
0.0011762959
0.0011746209
0.0011730659
0.0011718087
0.0011708089
0.0011700588
0.0011695856
0.0011694484
0.0011696184
0.0011692144
2.6713117e-07
8.9543558e-06
1.6897426e-05
1.8377351e-05
1.3934327e-05
1.3122154e-05
1.1452985e-05
1.248569e-05
1.1866184e-05
1.3578521e-05
1.3915876e-05
1.4211904e-05
1.3944869e-05
1.3620179e-05
1.3401689e-05
1.3245654e-05
1.3165733e-05
1.3152906e-05
1.3205345e-05
1.3317758e-05
1.3489283e-05
1.3721756e-05
1.4014754e-05
1.4286498e-05
1.4696668e-05
1.5178753e-05
1.5737863e-05
1.6382793e-05
1.7124816e-05
1.7979906e-05
1.8965061e-05
2.0098822e-05
2.1406704e-05
2.2919017e-05
2.4675203e-05
2.672292e-05
2.9121328e-05
3.194254e-05
3.527357e-05
3.9513345e-05
4.424127e-05
4.9886565e-05
5.664614e-05
6.475625e-05
7.4532602e-05
8.633776e-05
0.00010061962
0.00011793512
0.00013896834
0.00016457154
0.00019577759
0.00023387827
0.00028046088
0.00033749613
0.00040742101
0.00049325278
0.00059874461
0.00072858889
0.00088867279
0.0010863575
0.0011795554
0.0011797501
0.0011798632
0.0011798684
0.0011797576
0.0011795213
0.0011791492
0.0011786223
0.0011779034
0.0011769408
0.0011756578
0.0011739739
0.001172526
0.0011713526
0.0011704247
0.001169722
0.0011692513
0.0011690928
0.0011692882
0.0011688847
2.4383162e-07
8.9033022e-06
1.6419097e-05
1.6716446e-05
1.277645e-05
1.1432894e-05
9.9123563e-06
1.1146466e-05
1.0437686e-05
1.2203302e-05
1.271233e-05
1.2645418e-05
1.2420607e-05
1.2103991e-05
1.1910815e-05
1.1775914e-05
1.1710259e-05
1.1706273e-05
1.1690929e-05
1.1784611e-05
1.1937381e-05
1.2150085e-05
1.2420427e-05
1.2749166e-05
1.3141154e-05
1.3600124e-05
1.4131495e-05
1.4743981e-05
1.5448244e-05
1.6259785e-05
1.719582e-05
1.8274345e-05
1.9520381e-05
2.0963216e-05
2.2641325e-05
2.4601132e-05
2.6900498e-05
2.9610266e-05
3.2816925e-05
3.6625863e-05
4.116564e-05
4.6599041e-05
5.3123064e-05
6.1481369e-05
7.1020046e-05
8.2562338e-05
9.6553448e-05
0.00011354762
0.00013422402
0.00015943667
0.00019021429
0.00022784838
0.00027392493
0.00033041515
0.00039976006
0.00048498259
0.0005898419
0.00071903654
0.00087846385
0.0010755074
0.0011799753
0.0011800449
0.0011800344
0.0011799237
0.0011797031
0.0011793616
0.0011788879
0.0011782641
0.0011774524
0.0011763992
0.0011750616
0.0011734107
0.0011720643
0.0011709721
0.0011701115
0.0011694525
0.0011689854
0.0011687977
0.0011689483
0.0011685507
2.2043394e-07
8.8577927e-06
1.5927434e-05
1.4633282e-05
1.0504303e-05
1.016022e-05
8.1690094e-06
9.5027034e-06
9.699135e-06
1.0981112e-05
1.1493677e-05
1.1191498e-05
1.0986136e-05
1.0703227e-05
1.0535758e-05
1.0351732e-05
1.0275129e-05
1.0265438e-05
1.031489e-05
1.0420687e-05
1.0578557e-05
1.0790513e-05
1.1055776e-05
1.1374614e-05
1.1751962e-05
1.2192532e-05
1.2701785e-05
1.3288472e-05
1.3962842e-05
1.4739903e-05
1.5637206e-05
1.6672467e-05
1.7870537e-05
1.9260008e-05
2.0878776e-05
2.2772539e-05
2.4998405e-05
2.7626553e-05
3.0742817e-05
3.4451715e-05
3.8882241e-05
4.4194927e-05
5.0589981e-05
5.8299943e-05
6.7622944e-05
7.8930063e-05
9.3486067e-05
0.0001103152
0.00013081996
0.00015586236
0.00018647389
0.00022395411
0.0002698977
0.00032628777
0.00039558347
0.00048083081
0.00058581601
0.00071526838
0.00087512292
0.0010728209
0.0011805003
0.0011804362
0.0011802941
0.0011800602
0.0011797235
0.0011792714
0.0011786908
0.0011779643
0.0011770564
0.0011759078
0.0011744989
0.0011729375
0.0011716875
0.001170673
0.0011698741
0.0011692563
0.0011687919
0.0011685615
0.001168659
0.0011682642
2.0349066e-07
8.8127642e-06
1.4374091e-05
1.274842e-05
8.495981e-06
9.0283592e-06
7.256846e-06
8.5770824e-06
8.9844439e-06
9.8270351e-06
1.0289217e-05
9.8682698e-06
9.6690427e-06
9.3345782e-06
9.1563259e-06
9.0476167e-06
9.0056774e-06
9.0214958e-06
9.0889007e-06
9.2047678e-06
9.3696742e-06
9.5815661e-06
9.8431049e-06
1.0154606e-05
1.0521218e-05
1.094808e-05
1.1440821e-05
1.2008373e-05
1.2660726e-05
1.3412437e-05
1.4281462e-05
1.5285579e-05
1.6449735e-05
1.7802137e-05
1.9380472e-05
2.1230175e-05
2.3408104e-05
2.5984385e-05
2.904525e-05
3.2695745e-05
3.7065026e-05
4.2313246e-05
4.864432e-05
5.6290982e-05
6.5554115e-05
7.6807328e-05
9.0511593e-05
0.00010720893
0.00012875395
0.00015384865
0.00018456007
0.00022220407
0.00026839473
0.00032513914
0.00039492939
0.00048085297
0.00058674543
0.0007173937
0.0008787995
0.0010784954
0.0011811059
0.0011809022
0.0011806234
0.0011802614
0.0011798046
0.001179239
0.0011785487
0.0011777154
0.0011767091
0.0011754717
0.0011739764
0.0011725568
0.0011713999
0.0011704588
0.0011697159
0.0011691378
0.0011686784
0.0011683878
0.0011684008
0.0011679878
1.8767201e-07
8.7663368e-06
1.1421761e-05
1.0596995e-05
6.9766944e-06
8.0408077e-06
6.6171394e-06
7.7102415e-06
8.4106285e-06
8.7825248e-06
9.1089427e-06
8.5736875e-06
8.3229535e-06
8.0930626e-06
7.9636738e-06
7.8951818e-06
7.8828604e-06
7.9206059e-06
8.0036271e-06
8.1309954e-06
8.300211e-06
8.5139764e-06
8.7741668e-06
9.0816024e-06
9.4415374e-06
9.8595923e-06
1.0341692e-05
1.0897013e-05
1.1535514e-05
1.2271386e-05
1.3055826e-05
1.4029844e-05
1.5161883e-05
1.6479741e-05
1.8020892e-05
1.9830545e-05
2.1965387e-05
2.4495554e-05
2.7507819e-05
3.110807e-05
3.5426794e-05
4.0944377e-05
4.7277269e-05
5.4939897e-05
6.423609e-05
7.5543408e-05
8.9335846e-05
0.00010616811
0.00012674038
0.00015192658
0.00018447214
0.00022260268
0.00026942753
0.00032699043
0.00039783204
0.00048510093
0.00059270543
0.00072551921
0.00088964272
0.0010927319
0.0011817668
0.0011814199
0.0011810022
0.0011805098
0.001179931
0.0011792509
0.0011784511
0.0011775099
0.0011764019
0.0011750926
0.0011735651
0.0011722682
0.0011712029
0.001170331
0.0011696385
0.0011690983
0.0011686464
0.0011682893
0.0011681946
0.0011678776
1.7380117e-07
8.7228422e-06
9.0150473e-06
9.0019705e-06
6.130551e-06
7.1266246e-06
6.080488e-06
6.9552889e-06
7.8286466e-06
7.8093019e-06
7.8290412e-06
7.3744084e-06
7.1707995e-06
7.0040798e-06
6.9162407e-06
6.8812516e-06
6.8942961e-06
6.95131e-06
7.0484984e-06
7.1858575e-06
7.3621936e-06
7.5796035e-06
7.8411406e-06
8.1481287e-06
8.5059187e-06
8.8822572e-06
9.3519299e-06
9.8941792e-06
1.0518828e-05
1.1239599e-05
1.2073031e-05
1.3040627e-05
1.4166675e-05
1.5479108e-05
1.701582e-05
1.8822569e-05
2.0956828e-05
2.348976e-05
2.650999e-05
3.0125766e-05
3.447079e-05
3.9712197e-05
4.6054883e-05
5.3744739e-05
6.3090805e-05
7.5124975e-05
8.9137476e-05
0.00010626009
0.00012720553
0.00015287459
0.00018436962
0.00022515282
0.00027300748
0.00033186442
0.00040432924
0.00049363268
0.00060378088
0.00073976564
0.00090782312
0.001115764
0.0011824566
0.0011819657
0.0011814096
0.0011807871
0.0011800866
0.0011792926
0.0011783857
0.0011773405
0.00117613
0.0011747515
0.0011732624
0.0011720722
0.0011710952
0.0011702888
0.0011696423
0.0011691363
0.001168691
0.0011682725
0.0011680903
0.0011678825
1.6150048e-07
8.6721531e-06
7.1732056e-06
7.9078483e-06
5.4668855e-06
6.3113566e-06
5.6221116e-06
6.2884682e-06
7.1357875e-06
6.7038119e-06
6.6749848e-06
6.3265562e-06
6.166376e-06
6.0506841e-06
5.9984469e-06
5.9924004e-06
6.028104e-06
6.1030424e-06
6.2142989e-06
6.3625859e-06
6.5473693e-06
6.7710297e-06
7.0073703e-06
7.3112037e-06
7.6655296e-06
8.0753051e-06
8.5487718e-06
9.0947775e-06
9.7234071e-06
1.0448643e-05
1.128723e-05
1.2260465e-05
1.3394108e-05
1.4716562e-05
1.6266432e-05
1.8090445e-05
2.0247474e-05
2.2810294e-05
2.5870193e-05
2.9538958e-05
3.3953745e-05
3.9285549e-05
4.5749833e-05
5.3598778e-05
6.3151162e-05
7.4803789e-05
8.905003e-05
0.00010648697
0.00012897682
0.00015535424
0.00018773878
0.00022753956
0.00027913569
0.00033977318
0.00041444713
0.00050649337
0.00062004264
0.00076023765
0.00093349405
0.001147813
0.0011831497
0.0011825166
0.0011818254
0.0011810753
0.0011802555
0.0011793501
0.0011783392
0.0011771984
0.0011758959
0.0011744377
0.0011730622
0.0011719672
0.0011710726
0.001170329
0.0011697259
0.0011692506
0.0011688082
0.0011683387
0.0011681002
0.0011679983
1.5058087e-07
8.6103435e-06
5.7569454e-06
6.915864e-06
4.8786911e-06
5.5880481e-06
5.2338792e-06
5.6100413e-06
6.2617448e-06
5.7447869e-06
5.6629583e-06
5.41043e-06
5.2912333e-06
5.2181863e-06
5.1976256e-06
5.2177687e-06
5.2747739e-06
5.367268e-06
5.4931673e-06
5.6325496e-06
5.821249e-06
6.048794e-06
6.317945e-06
6.6322574e-06
6.9967832e-06
7.4169154e-06
7.9008275e-06
8.4581003e-06
9.0990934e-06
9.8380074e-06
1.0691765e-05
1.1681973e-05
1.2776951e-05
1.4110527e-05
1.5674548e-05
1.7516677e-05
1.9697421e-05
2.2291234e-05
2.5392118e-05
2.9115994e-05
3.3604642e-05
3.9330627e-05
4.5977518e-05
5.4059461e-05
6.3906273e-05
7.5926213e-05
9.0636267e-05
0.00010865988
0.00013076144
0.00015934013
0.00019288847
0.00023413821
0.00028488961
0.00035070715
0.00042818746
0.00052369937
0.00064152849
0.00078700087
0.00096676092
0.0011845744
0.0011838215
0.001183051
0.0011822305
0.0011813575
0.0011804229
0.0011794106
0.0011783002
0.0011770714
0.0011757043
0.0011742062
0.0011729588
0.0011719489
0.0011711287
0.0011704461
0.0011698853
0.0011694373
0.0011689948
0.0011684938
0.0011682319
0.0011682156
1.4091994e-07
8.4941621e-06
4.6770412e-06
6.0347465e-06
4.3543841e-06
4.9455491e-06
4.8968425e-06
4.8714504e-06
5.3788974e-06
4.889581e-06
4.786035e-06
4.6126045e-06
4.5325925e-06
4.4965492e-06
4.5049703e-06
4.5495545e-06
4.6272027e-06
4.7186067e-06
4.8537822e-06
5.0235235e-06
5.2289962e-06
5.472113e-06
5.7564054e-06
6.0856578e-06
6.4655714e-06
6.9018442e-06
7.4027421e-06
7.9543763e-06
8.608738e-06
9.3621016e-06
1.0231473e-05
1.1238524e-05
1.2409761e-05
1.3778495e-05
1.5384492e-05
1.7277031e-05
1.9519419e-05
2.2188975e-05
2.5383512e-05
2.9224895e-05
3.386149e-05
3.9480325e-05
4.630773e-05
5.462268e-05
6.4769154e-05
7.7818678e-05
9.3118632e-05
0.00011187814
0.00013489896
0.00016317112
0.00019977553
0.00024280264
0.00029575874
0.00036096121
0.00044550781
0.00054521467
0.00066821366
0.00082004665
0.0010076346
0.0011853212
0.0011844496
0.00118355
0.0011826079
0.0011816191
0.0011805758
0.0011794639
0.0011782619
0.0011769499
0.0011755359
0.0011740933
0.0011729453
0.0011720119
0.0011712551
0.0011706327
0.0011701135
0.0011696896
0.0011692439
0.0011687408
0.0011685029
0.0011685628
1.3242646e-07
8.1746331e-06
3.9295058e-06
5.2536741e-06
3.8890696e-06
4.3776454e-06
4.3607034e-06
4.2038098e-06
4.5270044e-06
4.1334476e-06
4.0347594e-06
3.9245274e-06
3.8815011e-06
3.8783324e-06
3.9135237e-06
3.9666282e-06
4.0574522e-06
4.1815183e-06
4.3381418e-06
4.5277903e-06
4.7523203e-06
5.0142197e-06
5.3174947e-06
5.6662521e-06
6.0528648e-06
6.5063329e-06
7.025141e-06
7.6188684e-06
8.299553e-06
9.0815384e-06
9.9822992e-06
1.102442e-05
1.2235536e-05
1.3650282e-05
1.5311218e-05
1.72695e-05
1.9591903e-05
2.2359478e-05
2.5674166e-05
2.9665198e-05
3.4487003e-05
4.033617e-05
4.7453901e-05
5.6131814e-05
6.6733427e-05
7.9705068e-05
9.6445449e-05
0.00011608943
0.0001402045
0.00016984074
0.00020626462
0.00025345301
0.00030900219
0.00037741419
0.00046169084
0.00057091954
0.00069997248
0.00085924713
0.0010559775
0.0011860012
0.0011850151
0.0011839979
0.0011829442
0.0011818484
0.0011807045
0.0011795009
0.0011782195
0.0011768385
0.0011753685
0.0011740741
0.0011730161
0.0011721502
0.0011714428
0.0011708804
0.0011704019
0.0011699993
0.0011695467
0.0011690708
0.0011689019
0.0011690071
1.2517972e-07
7.755051e-06
3.464027e-06
4.5619849e-06
3.4764254e-06
3.7126343e-06
3.8881169e-06
3.5922024e-06
3.7557724e-06
3.4766112e-06
3.3993242e-06
3.3391956e-06
3.3300511e-06
3.3565383e-06
3.399585e-06
3.4845597e-06
3.601525e-06
3.7493413e-06
3.9283111e-06
4.1396996e-06
4.3859645e-06
4.6698981e-06
4.9863189e-06
5.3554751e-06
5.7765202e-06
6.256185e-06
6.8025571e-06
7.4255631e-06
8.1374987e-06
8.953632e-06
9.8920156e-06
1.0976229e-05
1.2235203e-05
1.3705357e-05
1.5365704e-05
1.7386123e-05
1.978431e-05
2.2645651e-05
2.6233659e-05
3.0403988e-05
3.5447712e-05
4.1570937e-05
4.9031084e-05
5.8135585e-05
6.9266649e-05
8.2897694e-05
9.9609875e-05
0.00012011688
0.00014659426
0.00017779591
0.00021615732
0.00026334702
0.00032446921
0.00039654343
0.00048533586
0.00060057422
0.00073653167
0.00090429901
0.0011114534
0.0011865969
0.0011855051
0.0011843826
0.0011832288
0.0011820374
0.0011808028
0.0011795161
0.0011781647
0.0011767478
0.0011753087
0.0011741318
0.0011731595
0.0011723566
0.0011716905
0.0011711786
0.0011707416
0.0011703586
0.0011698961
0.0011694631
0.0011693976
0.0011695324
1.1947655e-07
6.76877e-06
3.0680048e-06
3.9346812e-06
3.1210876e-06
3.0986424e-06
3.4173464e-06
3.0382997e-06
3.0932533e-06
2.9155957e-06
2.8675525e-06
2.848304e-06
2.8615443e-06
2.9071618e-06
2.9886248e-06
3.1015779e-06
3.2440771e-06
3.4160885e-06
3.6187335e-06
3.8537524e-06
4.1180064e-06
4.4244319e-06
4.7732217e-06
5.1691804e-06
5.6180433e-06
6.1267648e-06
6.7038029e-06
7.3594751e-06
8.1064748e-06
8.940999e-06
9.915208e-06
1.1038942e-05
1.2342356e-05
1.3863231e-05
1.5648821e-05
1.7758197e-05
2.0264389e-05
2.3258814e-05
2.6854898e-05
3.1192783e-05
3.6446487e-05
4.3138911e-05
5.0987769e-05
6.0576418e-05
7.2307026e-05
8.6679735e-05
0.00010430997
0.00012595568
0.00015394951
0.00018689912
0.00022742167
0.00027727559
0.00034192658
0.00041807345
0.000511892
0.00062753225
0.0007774226
0.00095465801
0.0011734345
0.0011871004
0.0011859115
0.0011846964
0.0011834549
0.0011821805
0.0011808675
0.00117951
0.001178098
0.0011766427
0.0011753345
0.0011742549
0.0011733607
0.0011726198
0.0011720004
0.0011715262
0.0011711233
0.0011707588
0.0011702907
0.0011699021
0.0011699451
0.0011701148
1.1491462e-07
4.7377479e-06
2.7112353e-06
3.352982e-06
2.6696179e-06
2.5845855e-06
2.9209673e-06
2.5450034e-06
2.54174e-06
2.4432845e-06
2.4282073e-06
2.4365132e-06
2.4807062e-06
2.5604679e-06
2.671442e-06
2.811144e-06
2.978947e-06
3.1755489e-06
3.3994138e-06
3.6576967e-06
3.9516326e-06
4.2846006e-06
4.6607038e-06
5.0849287e-06
5.5632874e-06
6.1030272e-06
6.712948e-06
7.3926129e-06
8.1732436e-06
9.063494e-06
1.0083764e-05
1.1259393e-05
1.2622322e-05
1.4212656e-05
1.6080673e-05
1.8289022e-05
2.0915561e-05
2.4057149e-05
2.7834278e-05
3.2396447e-05
3.7928899e-05
4.4660039e-05
5.3265765e-05
6.3386437e-05
7.5775585e-05
9.0962104e-05
0.00010959729
0.00013248469
0.00016061533
0.00019696239
0.0002398341
0.00029258575
0.00035752514
0.00044160723
0.00054087775
0.00066323384
0.00082193735
0.0010094771
0.0011887844
0.0011875071
0.0011862314
0.0011849364
0.0011836196
0.0011822752
0.0011808962
0.0011794802
0.0011780367
0.001176603
0.0011754214
0.0011744317
0.0011736054
0.0011729188
0.0011723583
0.0011719003
0.0011715375
0.0011711811
0.0011707362
0.0011703903
0.0011705144
0.0011707089
1.1008602e-07
3.9352831e-06
2.3371703e-06
2.817229e-06
2.3022353e-06
2.1555891e-06
2.4066599e-06
2.11186e-06
2.0934093e-06
2.0556019e-06
2.0693453e-06
2.112146e-06
2.1922579e-06
2.3027044e-06
2.4409109e-06
2.60597e-06
2.7982375e-06
3.0167423e-06
3.2671645e-06
3.5508308e-06
3.870733e-06
4.2304943e-06
4.6344475e-06
5.0877693e-06
5.5966804e-06
6.1686949e-06
6.8053469e-06
7.5297272e-06
8.3504951e-06
9.2847571e-06
1.0354036e-05
1.1585201e-05
1.3012047e-05
1.4677053e-05
1.6633677e-05
1.8948835e-05
2.1705581e-05
2.5006824e-05
2.8980525e-05
3.3784814e-05
3.9615957e-05
4.7054773e-05
5.5796114e-05
6.6484758e-05
7.9576546e-05
9.5630519e-05
0.00011533547
0.00013954087
0.000170863
0.00020774147
0.0002530981
0.00030891395
0.00037762994
0.00046660749
0.0005716477
0.00070111483
0.00086908974
0.001067548
0.0011891594
0.0011878157
0.0011864668
0.0011851043
0.0011837237
0.0011823216
0.0011808919
0.0011794274
0.0011779524
0.0011766404
0.0011755544
0.0011746481
0.0011738852
0.0011732391
0.0011727279
0.0011723209
0.0011719756
0.0011716296
0.0011712059
0.0011709261
0.0011711092
0.0011712918
1.0683242e-07
3.1696671e-06
2.0151018e-06
2.2762617e-06
2.0008045e-06
1.788486e-06
1.9282867e-06
1.7443785e-06
1.7413482e-06
1.7522403e-06
1.7959655e-06
1.8766096e-06
1.9875578e-06
2.1248699e-06
2.2875477e-06
2.4758822e-06
2.6897977e-06
2.9330188e-06
3.2073938e-06
3.5156607e-06
3.8610942e-06
4.2475261e-06
4.6794493e-06
5.1621852e-06
5.7021203e-06
6.3026723e-06
6.9797654e-06
7.742211e-06
8.6043125e-06
9.5840241e-06
1.0704141e-05
1.1993142e-05
1.3486877e-05
1.5230341e-05
1.7280112e-05
1.9707315e-05
2.2600831e-05
2.6069725e-05
3.0250157e-05
3.5309693e-05
4.1728796e-05
4.9278479e-05
5.849673e-05
6.9775456e-05
8.3595078e-05
0.0001005473
0.00012135984
0.0001469305
0.00017997332
0.0002189252
0.00026683951
0.00032580696
0.00039840985
0.00049236828
0.0006033464
0.00074013841
0.00091759287
0.0011272976
0.0011894368
0.0011880334
0.0011866236
0.0011852061
0.0011837732
0.0011823219
0.001180854
0.0011793762
0.001177922
0.0011767258
0.0011757225
0.0011748868
0.0011741854
0.0011735862
0.0011731129
0.0011727414
0.0011724141
0.0011720869
0.0011717016
0.0011714922
0.0011717073
0.0011718442
1.0545863e-07
2.4984997e-06
1.7366487e-06
1.7569259e-06
1.7230827e-06
1.4744333e-06
1.5375898e-06
1.4515003e-06
1.4791605e-06
1.5250488e-06
1.6073586e-06
1.7184305e-06
1.8547919e-06
2.0148906e-06
2.1990286e-06
2.4083897e-06
2.643944e-06
2.9092464e-06
3.2064307e-06
3.5384956e-06
3.9088859e-06
4.3215735e-06
4.7811737e-06
5.2931269e-06
5.8639483e-06
6.5015699e-06
7.2157812e-06
8.0187614e-06
8.9154557e-06
9.9411083e-06
1.1112731e-05
1.2460516e-05
1.4022506e-05
1.5846447e-05
1.7992081e-05
2.0617816e-05
2.367387e-05
2.7341104e-05
3.1764589e-05
3.7123202e-05
4.3637161e-05
5.1577172e-05
6.1277557e-05
7.3149717e-05
8.7700205e-05
0.00010555318
0.0001274764
0.00015576462
0.00018912633
0.00023014558
0.00028060671
0.00034271186
0.00042314937
0.00051803079
0.00063492535
0.00077902883
0.00096585772
0.0011867876
0.001189632
0.0011881743
0.0011867129
0.0011852505
0.0011837788
0.0011822901
0.0011807832
0.0011792892
0.0011779592
0.0011768486
0.0011759178
0.0011751375
0.0011744842
0.0011739421
0.0011734987
0.0011731513
0.0011728621
0.0011725389
0.0011722015
0.0011720589
0.0011722804
0.0011723505
1.0702374e-07
1.9238673e-06
1.5045246e-06
1.358972e-06
1.4399293e-06
1.2110968e-06
1.2515837e-06
1.2369064e-06
1.2972078e-06
1.3774533e-06
1.4882759e-06
1.6227839e-06
1.7796727e-06
1.9590719e-06
2.1622058e-06
2.390827e-06
2.6467067e-06
2.9329005e-06
3.251955e-06
3.6070018e-06
4.0015868e-06
4.4397751e-06
4.9262837e-06
5.4666735e-06
6.0676132e-06
6.7372363e-06
7.4856181e-06
8.3253703e-06
9.2723813e-06
1.0346751e-05
1.157389e-05
1.298598e-05
1.4623563e-05
1.65376e-05
1.8791859e-05
2.1465847e-05
2.4658442e-05
2.8492595e-05
3.3120352e-05
3.8729819e-05
4.5553181e-05
5.3875879e-05
6.4046779e-05
7.6497843e-05
9.1759379e-05
0.00011139951
0.00013456661
0.00016302162
0.00019799363
0.00024099934
0.00029390808
0.00036239747
0.00044316522
0.00054263255
0.0006652019
0.00082425947
0.0010120594
0.001191294
0.0011897637
0.0011882584
0.0011867532
0.0011852504
0.0011837471
0.0011822404
0.0011807304
0.0011792528
0.0011780316
0.0011769989
0.0011761325
0.0011754025
0.0011747862
0.0011742875
0.0011738821
0.0011735489
0.001173279
0.0011729745
0.0011726855
0.0011726015
0.0011728202
0.0011728339
1.1268659e-07
1.4521626e-06
1.3160619e-06
1.0684372e-06
1.2849907e-06
9.9249494e-07
1.0574397e-06
1.0948659e-06
1.1820181e-06
1.2898631e-06
1.4216686e-06
1.5743652e-06
1.7483409e-06
1.9447316e-06
2.1652541e-06
2.4119239e-06
2.6870351e-06
2.9929647e-06
3.3328298e-06
3.7097301e-06
4.1272871e-06
4.589651e-06
5.1016432e-06
5.6689561e-06
6.2984282e-06
6.9984151e-06
7.77929e-06
8.6541247e-06
9.6394389e-06
1.0756224e-05
1.2031042e-05
1.3497621e-05
1.5198483e-05
1.7187109e-05
1.9530424e-05
2.2311895e-05
2.5635209e-05
2.9628814e-05
3.4451457e-05
4.0299016e-05
4.7736703e-05
5.6485063e-05
6.7174648e-05
8.0258055e-05
9.6291154e-05
0.00011595811
0.00014010164
0.00016976001
0.00020620917
0.00025337576
0.00030892829
0.00037727833
0.00046142062
0.00056506299
0.00069955868
0.00085824552
0.0010540093
0.0011914062
0.0011898456
0.0011883059
0.0011867688
0.001185233
0.0011836961
0.0011821622
0.0011806547
0.0011792781
0.0011781316
0.001177165
0.0011763524
0.0011756676
0.0011750877
0.0011746202
0.0011742517
0.0011739369
0.0011736697
0.0011733846
0.001173138
0.0011731025
0.0011733251
0.0011733009
1.2308949e-07
1.1466758e-06
1.1538188e-06
9.2780363e-07
9.398523e-07
8.678495e-07
9.2979265e-07
1.0092827e-06
1.1171991e-06
1.244578e-06
1.3922424e-06
1.5599775e-06
1.7490043e-06
1.9608545e-06
2.1973949e-06
2.4607102e-06
2.7531307e-06
3.077253e-06
3.4359864e-06
3.8326068e-06
4.2708353e-06
4.7549454e-06
5.289912e-06
5.8816249e-06
6.5371833e-06
7.2626951e-06
8.0726879e-06
8.9790323e-06
1.0007833e-05
1.1166918e-05
1.2490211e-05
1.4013117e-05
1.5780236e-05
1.7847576e-05
2.0285169e-05
2.3180223e-05
2.664097e-05
3.0801374e-05
3.5826857e-05
4.1921394e-05
4.9336223e-05
5.8380593e-05
6.9434785e-05
8.2964284e-05
9.9543903e-05
0.00011988008
0.00014613213
0.00017702953
0.00021498664
0.00026164481
0.00031902911
0.00038964463
0.00047658965
0.00058925025
0.00072224452
0.00088625485
0.0010886707
0.0011914878
0.0011898985
0.0011883312
0.0011867735
0.0011852219
0.0011836715
0.0011821254
0.0011806216
0.001179342
0.0011782577
0.0011773441
0.0011765741
0.0011759261
0.001175383
0.0011749379
0.0011745938
0.0011742925
0.001174033
0.0011737719
0.0011735618
0.0011735381
0.0011737175
0.0011736857
1.445491e-07
1.1862117e-06
9.9301298e-07
7.075649e-07
7.6748603e-07
7.754594e-07
8.592179e-07
9.6150478e-07
1.0858431e-06
1.2280089e-06
1.3891536e-06
1.5702011e-06
1.7726591e-06
1.9981728e-06
2.248637e-06
2.5261633e-06
2.8331145e-06
3.1721356e-06
3.5461966e-06
3.958646e-06
4.413284e-06
4.9144663e-06
5.4672534e-06
6.0776235e-06
6.752776e-06
7.5015453e-06
8.3349503e-06
9.2668964e-06
1.0315065e-05
1.1501973e-05
1.2856243e-05
1.4414194e-05
1.6221639e-05
1.8336121e-05
2.0829555e-05
2.3791451e-05
2.7332822e-05
3.159093e-05
3.6735105e-05
4.2973877e-05
5.0563885e-05
6.0249462e-05
7.1649713e-05
8.5597173e-05
0.00010268284
0.00012363252
0.0001493405
0.00018090893
0.00021969717
0.00026738099
0.00032603517
0.00040190095
0.00049143923
0.00060173811
0.00073771699
0.00090549333
0.0011126707
0.0011915817
0.0011899618
0.0011883637
0.0011867811
0.0011852133
0.0011836588
0.0011821231
0.0011806462
0.0011794344
0.001178402
0.0011775315
0.0011767964
0.0011761773
0.0011756599
0.0011752328
0.0011748939
0.00117461
0.0011743589
0.0011741235
0.0011739503
0.0011739314
0.0011740513
0.0011740014
1.3777586e-07
7.8991158e-07
8.1389312e-07
6.0307802e-07
6.6050012e-07
7.2114582e-07
8.2342813e-07
9.4248196e-07
1.0798928e-06
1.2346663e-06
1.4080527e-06
1.60126e-06
1.8158248e-06
2.0534579e-06
2.3160938e-06
2.6059009e-06
2.9253099e-06
3.2770021e-06
3.6640866e-06
4.0899721e-06
4.558544e-06
5.0742441e-06
5.6422212e-06
6.2685455e-06
6.9605174e-06
7.7270897e-06
8.5794277e-06
9.5316335e-06
1.0610324e-05
1.1824937e-05
1.3210645e-05
1.4804695e-05
1.6653997e-05
1.8817421e-05
2.1368465e-05
2.4398548e-05
2.8020969e-05
3.2375767e-05
3.7635666e-05
4.4013351e-05
5.1770392e-05
6.1228099e-05
7.2780857e-05
8.6914733e-05
0.00010422674
0.00012545203
0.00015149629
0.00018508643
0.00022466654
0.00027330845
0.00033312725
0.0004067376
0.00049738086
0.00060908098
0.00074684206
0.00091689781
0.0011270067
0.0011917311
0.0011900861
0.0011884591
0.0011868466
0.0011852496
0.0011836719
0.0011821337
0.0011807237
0.0011795511
0.0011785562
0.0011777168
0.0011770078
0.0011764083
0.0011759127
0.0011755008
0.001175165