/*--------------------------------*- C++ -*----------------------------------*\
  =========                 |
  \\      /  F ield         | OpenFOAM: The Open Source CFD Toolbox
   \\    /   O peration     | Website:  https://openfoam.org
    \\  /    A nd           | Version:  12
     \\/     M anipulation  |
\*---------------------------------------------------------------------------*/
FoamFile
{
    format      ascii;
    class       volScalarField;
    location    "0.123";
    object      k;
}
// * * * * * * * * * * * * * * * * * * * * * * * * * * * * * * * * * * * * * //

dimensions      [0 2 -2 0 0 0 0];

internalField   nonuniform List<scalar> 
16000
(
0.048777162
0.021610479
0.022482942
0.016543309
0.014032599
0.012702399
0.011912909
0.011440508
0.01112042
0.010904922
0.010745939
0.010627616
0.01053529
0.010462237
0.010403407
0.01035566
0.010316717
0.010284977
0.010258996
0.010237518
0.0102199
0.010205561
0.010194036
0.010184769
0.010177543
0.010171988
0.010167927
0.01016519
0.010163636
0.010163134
0.01016356
0.010164811
0.010166806
0.010169475
0.01017276
0.010176602
0.010180945
0.010185732
0.010190906
0.010196411
0.010202183
0.010208152
0.01021425
0.01022041
0.010226555
0.010232613
0.010238524
0.010244238
0.01024971
0.010254895
0.010259747
0.010264214
0.010268244
0.010271787
0.010274799
0.010277244
0.010279088
0.010280293
0.010280813
0.010280583
0.010279507
0.010277463
0.01027434
0.010270014
0.010264365
0.010257253
0.010248484
0.010237739
0.010224478
0.010207817
0.010186461
0.010158561
0.010125378
0.010100201
0.010080808
0.010067759
0.010060533
0.010071604
0.010047703
0.010066655
0.045855927
0.020446639
0.02103935
0.015995103
0.013687142
0.012499664
0.011750099
0.011323727
0.011019523
0.010821329
0.010672659
0.010563114
0.010477212
0.010409658
0.010355352
0.010311468
0.010275807
0.010246937
0.010223573
0.010204451
0.010188923
0.010176472
0.010166729
0.010159093
0.010153407
0.010149295
0.010146583
0.010145112
0.010144744
0.010145358
0.010146833
0.010149066
0.010151974
0.010155487
0.010159545
0.01016409
0.010169067
0.010174419
0.01018009
0.010186025
0.010192165
0.010198442
0.010204789
0.010211142
0.010217431
0.010223584
0.010229539
0.010235248
0.010240671
0.010245768
0.010250497
0.010254813
0.010258667
0.010262012
0.010264808
0.01026702
0.010268617
0.010269567
0.010269828
0.010269341
0.010268022
0.010265754
0.01026242
0.010257893
0.010252044
0.010244735
0.010235774
0.01022486
0.010211476
0.01019471
0.010173256
0.010145877
0.010114366
0.010090402
0.010072118
0.01005929
0.010053937
0.010059266
0.010047799
0.010067362
0.041971385
0.019623633
0.019704263
0.015431196
0.013333745
0.012272354
0.011581479
0.011197125
0.010916393
0.010736437
0.010598971
0.01049865
0.010419653
0.010357881
0.0103084
0.010268631
0.010236486
0.010210656
0.010190056
0.010173461
0.01016017
0.010149725
0.010141873
0.010135966
0.010131904
0.010129313
0.010128025
0.010127885
0.010128762
0.010130543
0.01013311
0.010136361
0.010140211
0.010144589
0.010149434
0.010154688
0.010160295
0.010166199
0.010172345
0.010178677
0.01018514
0.010191669
0.010198199
0.01020467
0.010211016
0.010217167
0.010223066
0.010228666
0.010233929
0.010238822
0.010243308
0.010247348
0.0102509
0.010253921
0.010256373
0.010258225
0.01025945
0.010260019
0.010259895
0.010259026
0.010257333
0.010254709
0.010251035
0.010246181
0.01024001
0.01023238
0.010223102
0.010211882
0.010198236
0.010181266
0.010159554
0.010132243
0.010102717
0.010080224
0.010063136
0.01005133
0.010046993
0.010050249
0.010048026
0.010067237
0.039217158
0.019069068
0.018550728
0.014925887
0.013013869
0.012066931
0.011427081
0.011081556
0.010821692
0.010658282
0.010531519
0.010439728
0.010367321
0.010311012
0.010266141
0.010230321
0.010201576
0.010178667
0.010160717
0.010146599
0.010135499
0.010127012
0.010121012
0.010116804
0.010114333
0.010113236
0.010113344
0.01011451
0.010116605
0.01011952
0.010123143
0.010127371
0.010132117
0.010137308
0.01014288
0.010148775
0.010154937
0.010161311
0.01016784
0.010174472
0.010181153
0.010187823
0.010194421
0.010200889
0.010207168
0.010213195
0.010218912
0.010224276
0.010229254
0.010233818
0.010237939
0.010241584
0.010244718
0.010247302
0.010249301
0.010250689
0.010251441
0.010251532
0.010250931
0.010249588
0.010247434
0.010244367
0.010240273
0.010235014
0.010228448
0.010220425
0.01021076
0.010199164
0.010185182
0.010167986
0.010146099
0.010118732
0.010091206
0.010070197
0.010054358
0.010043637
0.010039605
0.010041874
0.010045755
0.010064299
0.035936935
0.018755766
0.017564963
0.014457585
0.01271606
0.011872626
0.011282267
0.010972552
0.010733259
0.010585347
0.010469079
0.010385427
0.010319471
0.010268467
0.010228102
0.010196158
0.010170783
0.010150764
0.010135394
0.010123751
0.010114841
0.010108311
0.010104155
0.01010166
0.01010077
0.010101165
0.010102668
0.010105134
0.010108437
0.010112469
0.010117123
0.010122295
0.010127895
0.010133848
0.010140087
0.010146553
0.010153189
0.010159942
0.010166756
0.01017358
0.010180363
0.010187052
0.010193589
0.010199922
0.010205999
0.010211762
0.010217159
0.010222151
0.010226709
0.010230812
0.010234436
0.010237559
0.01024015
0.010242178
0.01024361
0.010244423
0.010244596
0.010244108
0.01024293
0.010241017
0.010238307
0.010234706
0.010230101
0.010224354
0.010217312
0.010208819
0.010198692
0.010186645
0.01017224
0.010154749
0.010132759
0.010105399
0.010079894
0.010060413
0.010045893
0.010036236
0.01003235
0.010034391
0.010042226
0.010055864
0.032874581
0.018684843
0.016831869
0.014028338
0.012441951
0.011691836
0.011148384
0.010871508
0.010652002
0.010518369
0.010412276
0.010336304
0.010276591
0.010230696
0.010194697
0.01016652
0.010144459
0.010127307
0.010114437
0.010105252
0.010098526
0.010093979
0.010091634
0.010090905
0.010091547
0.01009343
0.010096318
0.010100069
0.010104557
0.010109674
0.010115316
0.010121376
0.010127765
0.010134401
0.010141218
0.010148155
0.010155155
0.010162165
0.010169133
0.010176011
0.010182752
0.01018931
0.010195633
0.010201676
0.010207395
0.010212741
0.010217667
0.010222139
0.010226134
0.010229637
0.010232632
0.010235105
0.010237033
0.010238389
0.010239146
0.010239281
0.010238778
0.010237617
0.010235773
0.010233205
0.010229855
0.010225638
0.010220446
0.010214137
0.010206552
0.010197525
0.010186872
0.010174318
0.010159424
0.010141557
0.010119536
0.010092388
0.010068901
0.010050983
0.010037821
0.010029175
0.01002542
0.010027499
0.010037887
0.010046336
0.031219685
0.018781097
0.01631335
0.013634796
0.012189341
0.011523887
0.011025205
0.010778275
0.010577828
0.010457288
0.010361028
0.010292335
0.010238673
0.010197736
0.010165999
0.010141516
0.01012274
0.01010848
0.010098068
0.010091334
0.010086789
0.010084378
0.010083735
0.010084994
0.010086983
0.010090345
0.010094607
0.010099621
0.010105259
0.010111414
0.01011798
0.010124852
0.010131937
0.010139152
0.010146428
0.010153704
0.010160925
0.01016804
0.010175002
0.010181767
0.010188295
0.010194547
0.010200482
0.010206061
0.010211251
0.010216012
0.010220306
0.010224104
0.010227389
0.010230153
0.010232388
0.010234086
0.010235233
0.010235808
0.010235787
0.01023515
0.010233881
0.010231963
0.010229373
0.010226073
0.010222009
0.010217104
0.010211254
0.01020432
0.010196134
0.010186519
0.010175289
0.010162182
0.010146752
0.010128416
0.010106394
0.010079871
0.010058376
0.010042036
0.010030233
0.010022561
0.010019
0.010021013
0.0100319
0.010038674
0.028952624
0.018965029
0.015893798
0.013274503
0.01195678
0.011368558
0.010912174
0.010692718
0.010510404
0.010401991
0.010315261
0.010253553
0.010205803
0.010169736
0.010142211
0.010121392
0.010105891
0.010094587
0.010086652
0.010082308
0.010079909
0.010080193
0.010080818
0.010083515
0.010087448
0.010092271
0.010097878
0.010104112
0.010110842
0.010117957
0.010125352
0.010132923
0.010140574
0.010148222
0.010155798
0.010163242
0.010170501
0.010177531
0.01018429
0.010190743
0.010196858
0.010202605
0.010207956
0.010212882
0.010217358
0.010221359
0.010224855
0.010227823
0.010230253
0.010232143
0.010233492
0.010234299
0.010234558
0.010234253
0.010233364
0.010231871
0.010229759
0.010227012
0.010223608
0.010219512
0.010214673
0.010209018
0.010202454
0.010194841
0.010186008
0.010175766
0.010163921
0.010150224
0.010134238
0.010115357
0.010093261
0.010067973
0.010048426
0.010033664
0.010023192
0.010016457
0.010013161
0.010015105
0.010025466
0.010031001
0.02676172
0.019155011
0.015406971
0.01294426
0.011742634
0.011225059
0.010808624
0.010614092
0.010449772
0.010352708
0.010275202
0.010220257
0.010178301
0.010147047
0.010123706
0.010106547
0.010094318
0.010086033
0.010080695
0.010078445
0.01007775
0.010080104
0.01008345
0.01008789
0.010093327
0.010099587
0.010106482
0.01011386
0.010121583
0.010129539
0.010137622
0.01014573
0.01015377
0.010161656
0.010169324
0.010176717
0.010183789
0.010190503
0.010196827
0.010202737
0.010208212
0.010213235
0.01021779
0.010221861
0.010225435
0.010228498
0.010231032
0.010233021
0.010234459
0.01023535
0.0102357
0.010235515
0.010234792
0.010233523
0.01023169
0.010229273
0.010226256
0.010222623
0.010218352
0.010213409
0.010207747
0.010201297
0.010193972
0.010185639
0.010176125
0.010165232
0.010152748
0.010138431
0.010121888
0.010102458
0.010080074
0.010056798
0.010039154
0.01002595
0.010016755
0.010010925
0.010007951
0.010009732
0.010019244
0.010023825
0.025182882
0.019327062
0.014733404
0.012641313
0.011546831
0.011093805
0.010715377
0.010543456
0.010396497
0.010309885
0.01024128
0.010192908
0.010156633
0.010130147
0.010110974
0.010097488
0.010088535
0.01008328
0.010080749
0.010078691
0.010083334
0.010086873
0.010091928
0.010098069
0.010105049
0.010112663
0.010120745
0.010129137
0.0101377
0.010146318
0.010154888
0.010163312
0.010171499
0.01017937
0.010186866
0.010193938
0.010200551
0.010206679
0.010212304
0.010217414
0.010222003
0.010226069
0.010229611
0.010232625
0.010235112
0.010237068
0.010238488
0.010239362
0.010239688
0.010239475
0.010238732
0.010237471
0.010235693
0.010233395
0.01023056
0.010227169
0.010223202
0.010218642
0.010213467
0.010207644
0.010201125
0.010193848
0.010185732
0.010176651
0.010166433
0.010154874
0.010141745
0.010126786
0.010109681
0.010089831
0.010067004
0.01004641
0.010030633
0.010018949
0.010010962
0.01000601
0.010003439
0.010004925
0.010013091
0.010016358
0.02364901
0.019469973
0.01419332
0.012363509
0.011369875
0.010975148
0.01063295
0.010481484
0.010350759
0.010273917
0.010213912
0.010171988
0.010141311
0.010119574
0.010104572
0.010094788
0.010089141
0.010086841
0.010087349
0.010090281
0.010094093
0.010099921
0.010106827
0.010114589
0.010122987
0.010131821
0.010140919
0.010150126
0.010159301
0.010168329
0.010177108
0.010185551
0.010193575
0.010201112
0.010208114
0.010214546
0.010220386
0.010225625
0.010230262
0.010234301
0.010237752
0.01024063
0.010242948
0.010244716
0.010245947
0.010246648
0.010246823
0.010246469
0.010245588
0.010244189
0.010242284
0.010239887
0.010237004
0.010233633
0.01022976
0.010225364
0.010220422
0.010214913
0.010208814
0.010202092
0.010194701
0.01018658
0.010177656
0.01016781
0.010156875
0.010144647
0.010130882
0.010115287
0.010097585
0.010077537
0.010055075
0.01003685
0.010022913
0.010012694
0.010005836
0.010001719
0.0099996215
0.010000776
0.010007322
0.010010147
0.02228232
0.019600192
0.013724257
0.012111033
0.011211687
0.010868741
0.010561144
0.010427908
0.010312887
0.010245279
0.010193599
0.010158051
0.010132919
0.010115942
0.010105131
0.010099082
0.010096792
0.010097506
0.010100584
0.010105573
0.010112233
0.010119948
0.010128567
0.010137807
0.010147443
0.010157274
0.010167129
0.010176856
0.01018632
0.010195409
0.010204031
0.010212113
0.01021959
0.010226411
0.010232545
0.010237976
0.010242703
0.010246735
0.010250089
0.01025279
0.010254865
0.010256342
0.010257249
0.010257609
0.010257445
0.010256774
0.010255605
0.010253943
0.010251789
0.010249152
0.010246045
0.010242481
0.010238467
0.010234003
0.010229077
0.010223666
0.010217742
0.010211281
0.010204257
0.010196635
0.01018837
0.010179404
0.010169668
0.010159055
0.010147401
0.010134504
0.010120123
0.010103943
0.010085635
0.01006537
0.010044249
0.010028179
0.010016013
0.010007197
0.010001386
0.0099980418
0.0099964433
0.0099973201
0.010002434
0.010005164
0.021051179
0.019688534
0.013294527
0.011883892
0.011071845
0.010774593
0.010500087
0.010383301
0.010283229
0.010224495
0.010180917
0.010151732
0.010132137
0.010119949
0.010113372
0.010111097
0.010112186
0.010115939
0.010121774
0.010129214
0.010137843
0.010147383
0.010157517
0.010167984
0.010178562
0.010189048
0.01019928
0.010209114
0.010218427
0.010227124
0.01023513
0.010242392
0.010248873
0.010254547
0.010259407
0.010263461
0.010266731
0.010269247
0.010271046
0.010272171
0.010272662
0.010272563
0.010271913
0.010270745
0.01026909
0.010266969
0.010264397
0.010261382
0.010257927
0.010254034
0.010249715
0.010244979
0.010239836
0.010234284
0.010228312
0.010221895
0.010215003
0.010207604
0.010199668
0.010191161
0.010182037
0.010172239
0.010161702
0.010150328
0.010137967
0.01012441
0.010109427
0.010092741
0.010073964
0.010053297
0.010034542
0.010020436
0.01000993
0.010002441
0.0099976069
0.0099949659
0.009993858
0.0099945562
0.0099984621
0.010001086
0.019941706
0.019695459
0.01290472
0.011680105
0.010949584
0.010692735
0.010449887
0.010348005
0.010262254
0.010212214
0.010176597
0.010153808
0.010139781
0.010132438
0.010130138
0.010131663
0.010136123
0.010142847
0.010151272
0.010160946
0.010171484
0.010182546
0.010193853
0.010205149
0.010216217
0.010226867
0.01023695
0.010246343
0.010254948
0.010262697
0.010269545
0.010275472
0.010280472
0.010284552
0.010287736
0.010290056
0.010291557
0.01029229
0.01029231
0.010291672
0.010290431
0.010288638
0.01028634
0.010283576
0.010280381
0.01027678
0.010272789
0.010268417
0.010263665
0.010258532
0.010253021
0.01024714
0.010240893
0.010234279
0.010227288
0.010219894
0.010212062
0.010203755
0.010194937
0.010185573
0.010175618
0.010165015
0.0101537
0.010141586
0.010128536
0.010114348
0.01009878
0.01008163
0.01006272
0.010042219
0.010025944
0.010013634
0.010004643
0.0099983884
0.0099944743
0.0099924665
0.0099918096
0.0099924983
0.0099955513
0.0099981238
0.018942441
0.019485022
0.012552909
0.011498589
0.010844688
0.010623393
0.01041085
0.010322685
0.010250681
0.010209333
0.010181598
0.010165275
0.010156869
0.010154414
0.010156399
0.010161683
0.010169416
0.010178949
0.010189741
0.010201335
0.010213356
0.010225477
0.010237424
0.010248955
0.010259875
0.010270021
0.010279275
0.010287551
0.010294792
0.010300971
0.010306083
0.010310147
0.010313195
0.01031527
0.010316423
0.010316713
0.010316204
0.010314961
0.010313051
0.01031054
0.010307486
0.010303948
0.010299973
0.010295603
0.010290874
0.010285809
0.010280426
0.01027473
0.01026872
0.010262391
0.010255737
0.010248759
0.010241457
0.010233828
0.010225861
0.010217533
0.010208804
0.010199632
0.010189975
0.010179796
0.010169049
0.01015768
0.010145623
0.010132798
0.01011909
0.010104314
0.010088222
0.010070605
0.010051702
0.0100327
0.010018449
0.010007776
0.010000127
0.0099949923
0.0099919451
0.0099905028
0.0099902125
0.0099911082
0.009993892
0.0099966037
0.018038063
0.018643137
0.012236366
0.011338646
0.010757415
0.010566977
0.010383525
0.010308302
0.010249578
0.010217027
0.010197151
0.010187357
0.010184586
0.010186991
0.010193167
0.010202035
0.010212779
0.010224762
0.010237458
0.010250421
0.010263286
0.010275745
0.01028755
0.010298498
0.010308437
0.010317255
0.010324882
0.010331288
0.010336472
0.010340457
0.010343284
0.010345014
0.010345715
0.010345461
0.010344327
0.010342389
0.010339725
0.010336408
0.010332511
0.010328098
0.010323232
0.010317966
0.010312349
0.010306419
0.010300208
0.01029374
0.010287027
0.010280073
0.010272872
0.010265416
0.010257689
0.010249684
0.010241393
0.010232812
0.010223928
0.010214719
0.010205146
0.010195163
0.010184721
0.010173777
0.010162287
0.010150201
0.010137451
0.01012396
0.010109628
0.010094307
0.010077793
0.010059854
0.010040733
0.010024509
0.010012066
0.010002845
0.0099963611
0.0099922091
0.0099899663
0.0099890378
0.0099890029
0.009990242
0.0099932503
0.009996252
0.017220482
0.017286946
0.011957144
0.011200008
0.010686842
0.010524417
0.010368965
0.010306272
0.010260395
0.010236767
0.010224705
0.010221423
0.010224195
0.010231283
0.010241364
0.010253412
0.010266634
0.010280408
0.010294229
0.010307677
0.010320424
0.01033221
0.010342845
0.010352194
0.010360176
0.010366752
0.010371924
0.010375725
0.010378215
0.01037947
0.010379575
0.010378624
0.010376714
0.010373939
0.01037039
0.01036615
0.010361302
0.010355918
0.010350067
0.01034381
0.010337203
0.010330295
0.010323126
0.01031573
0.010308133
0.010300355
0.010292405
0.010284283
0.01027598
0.010267481
0.010258767
0.010249818
0.010240621
0.010231162
0.010221429
0.010211401
0.010201044
0.010190309
0.010179142
0.010167493
0.010155317
0.010142568
0.010129183
0.010115085
0.010100185
0.010084357
0.010067469
0.010049611
0.010031514
0.010017501
0.010006734
0.009998806
0.0099933286
0.0099900114
0.0099884822
0.009988038
0.0099881699
0.0099897577
0.0099933276
0.0099967818
0.016485594
0.016423585
0.011721388
0.01108308
0.01063387
0.010497109
0.01036867
0.010318279
0.010284827
0.010270187
0.010265815
0.010268874
0.010276888
0.01028821
0.01030158
0.010316022
0.01033077
0.010345243
0.010358991
0.010371662
0.010383009
0.010392863
0.01040113
0.010407775
0.010412808
0.010416277
0.01041826
0.010418857
0.010418178
0.010416341
0.010413463
0.010409661
0.010405043
0.010399711
0.01039376
0.010387271
0.010380319
0.010372971
0.010365285
0.010357314
0.0103491
0.010340685
0.010332099
0.010323368
0.010314512
0.010305544
0.010296469
0.010287284
0.010277979
0.010268534
0.010258924
0.010249124
0.010239107
0.010228855
0.01021835
0.010207572
0.010196493
0.010185068
0.01017324
0.010160952
0.010148152
0.010134801
0.010120843
0.010106205
0.010090807
0.010074564
0.010057349
0.010039421
0.010023755
0.010011612
0.010002357
0.0099955872
0.0099909993
0.0099883885
0.0099874361
0.0099874432
0.0099877444
0.0099895855
0.0099936444
0.0099975221
0.015825537
0.015421585
0.011520077
0.010988382
0.010599451
0.010486752
0.010384283
0.010346231
0.010324793
0.010319072
0.010322071
0.010330987
0.010343534
0.010358144
0.010373636
0.010389104
0.010403869
0.010417449
0.010429512
0.010439837
0.010448305
0.010454882
0.010459596
0.010462524
0.010463773
0.010463472
0.010461764
0.010458794
0.010454708
0.010449646
0.010443739
0.010437105
0.010429853
0.010422079
0.010413868
0.010405291
0.010396409
0.010387277
0.010377939
0.010368433
0.010358791
0.01034904
0.0103392
0.01032929
0.010319319
0.010309296
0.01029922
0.010289088
0.010278885
0.010268592
0.01025818
0.010247618
0.010236873
0.010225916
0.010214722
0.010203268
0.010191532
0.010179476
0.010167049
0.010154189
0.010140836
0.010126946
0.010112479
0.010097371
0.010081537
0.010064953
0.010047777
0.010030607
0.010017204
0.010006733
0.0099988143
0.0099930816
0.009989304
0.0099873446
0.0099867788
0.0099870895
0.0099877489
0.0099897579
0.0099939784
0.0099980837
0.015234639
0.014741501
0.011355618
0.010916599
0.010584633
0.010495548
0.010417995
0.010392485
0.010382527
0.010385268
0.010394805
0.010408432
0.010424051
0.010440221
0.010455904
0.010470365
0.0104831
0.01049381
0.010502352
0.010508687
0.010512861
0.010514984
0.010515205
0.010513699
0.01051065
0.010506241
0.010500649
0.010494044
0.010486578
0.010478392
0.010469609
0.010460337
0.010450668
0.010440684
0.010430452
0.010420026
0.010409452
0.010398767
0.010387998
0.010377169
0.010366299
0.010355402
0.010344488
0.010333563
0.010322631
0.010311694
0.010300746
0.010289782
0.010278786
0.010267739
0.010256613
0.010245374
0.010233986
0.010222411
0.010210613
0.010198564
0.010186239
0.01017361
0.010160639
0.010147269
0.010133436
0.010119079
0.010104162
0.010088655
0.010072491
0.010055593
0.010038349
0.010023395
0.010011737
0.010002738
0.0099959847
0.0099911717
0.0099881309
0.009986758
0.0099865043
0.009987035
0.009987911
0.0099902053
0.0099944588
0.0099985753
0.014707254
0.013989151
0.011224674
0.010870367
0.010591264
0.010526845
0.01047286
0.010459762
0.010460127
0.010469935
0.010484135
0.010500239
0.010516429
0.010531525
0.010544769
0.01055571
0.01056412
0.010569949
0.01057328
0.010574261
0.010573096
0.01057001
0.01056524
0.010559016
0.010551559
0.01054307
0.010533729
0.010523695
0.010513109
0.010502091
0.010490742
0.010479148
0.01046738
0.010455494
0.010443537
0.010431545
0.010419546
0.010407559
0.010395596
0.010383667
0.010371777
0.010359927
0.010348117
0.010336344
0.010324606
0.010312894
0.010301203
0.010289521
0.010277833
0.010266122
0.010254361
0.01024252
0.010230562
0.010218444
0.010206125
0.010193564
0.010180728
0.010167591
0.010154124
0.010140294
0.010126045
0.010111304
0.010096005
0.010080127
0.010063723
0.010046929
0.010030293
0.010017398
0.010007257
0.0099995098
0.009993761
0.0099897498
0.0099873485
0.0099864342
0.0099864254
0.0099871735
0.0099882733
0.0099908095
0.0099950148
0.0099990179
0.014243047
0.01340681
0.011131916
0.010854393
0.010623245
0.010584705
0.010551991
0.010549908
0.010558051
0.010571988
0.010587546
0.010602664
0.010615996
0.010626796
0.010634712
0.01063966
0.010641725
0.01064111
0.010638086
0.01063295
0.010625999
0.01061752
0.010607776
0.010597007
0.010585422
0.010573203
0.010560506
0.010547462
0.010534177
0.010520742
0.01050723
0.010493698
0.01048019
0.010466741
0.010453375
0.01044011
0.010426956
0.010413916
0.01040099
0.010388175
0.010375464
0.010362846
0.010350313
0.010337854
0.010325456
0.010313108
0.010300798
0.01028851
0.01027623
0.010263941
0.010251619
0.01023924
0.010226769
0.010214168
0.010201393
0.010188396
0.010175134
0.010161568
0.010147669
0.010133416
0.010118786
0.010103729
0.010088166
0.010072006
0.010055267
0.010038455
0.010023884
0.010012483
0.010003643
0.0099969433
0.0099920458
0.0099887199
0.0099868475
0.0099862474
0.0099866355
0.0099874162
0.0099887499
0.0099914884
0.0099956051
0.0099992695
0.013847426
0.012944502
0.011079831
0.010873779
0.010705353
0.010672175
0.010656454
0.010661728
0.010673139
0.010686578
0.010698962
0.0107089
0.010715696
0.010719141
0.01071932
0.010716491
0.010710995
0.010703205
0.010693495
0.010682218
0.010669688
0.010656183
0.010641939
0.010627159
0.01061201
0.010596631
0.010581133
0.010565607
0.010550124
0.010534739
0.010519493
0.010504417
0.010489532
0.010474851
0.010460378
0.010446115
0.010432057
0.010418195
0.010404518
0.010391012
0.010377659
0.010364444
0.010351346
0.010338348
0.010325431
0.010312578
0.010299769
0.010286988
0.010274216
0.010261436
0.010248628
0.010235769
0.010222834
0.010209791
0.010196601
0.01018322
0.010169601
0.010155694
0.010141455
0.01012685
0.010111863
0.010096483
0.010080698
0.010064485
0.010047882
0.010031477
0.010018703
0.010008575
0.010000792
0.0099949519
0.0099907579
0.0099880155
0.0099866044
0.0099861971
0.0099867763
0.0099876853
0.0099892556
0.0099922033
0.0099962384
0.0099994763
0.013529614
0.012572358
0.011072521
0.010928541
0.010807449
0.010788517
0.01078255
0.010789018
0.01079752
0.010804912
0.010809355
0.010810271
0.010807626
0.010801689
0.010792872
0.010781639
0.010768443
0.010753702
0.010737782
0.010721
0.010703618
0.010685852
0.010667876
0.01064983
0.010631823
0.01061394
0.010596248
0.010578795
0.010561615
0.010544733
0.010528162
0.01051191
0.010495977
0.010480359
0.010465047
0.010450027
0.010435284
0.0104208
0.010406554
0.010392524
0.010378688
0.01036502
0.010351497
0.010338093
0.010324785
0.010311548
0.01029836
0.010285197
0.010272039
0.010258864
0.010245653
0.010232385
0.010219037
0.010205587
0.010192005
0.010178261
0.010164313
0.010150119
0.010135627
0.010120787
0.010105551
0.010089885
0.01007379
0.010057348
0.01004093
0.010026149
0.010014626
0.010005573
0.0099986384
0.0099934826
0.0099898434
0.0099875654
0.0099865539
0.0099863358
0.0099869238
0.0099878961
0.0099895894
0.0099926759
0.0099967871
0.0099998415
0.013306427
0.01230233
0.011112856
0.011025193
0.01093984
0.010925217
0.010920141
0.010920456
0.010919699
0.010916105
0.010909025
0.010898589
0.010885224
0.010869455
0.010851804
0.010832748
0.010812698
0.010791995
0.010770914
0.010749675
0.010728449
0.010707368
0.010686531
0.010666011
0.010645861
0.010626117
0.010606802
0.010587929
0.010569504
0.010551524
0.010533983
0.010516868
0.010500167
0.01048386
0.010467928
0.010452349
0.0104371
0.010422155
0.010407488
0.010393072
0.010378879
0.01036488
0.010351047
0.01033735
0.010323762
0.010310252
0.010296795
0.010283362
0.010269927
0.010256465
0.010242952
0.010229365
0.010215683
0.010201884
0.010187947
0.010173849
0.010159566
0.010145072
0.010130334
0.010115313
0.010099959
0.010084214
0.01006804
0.010051519
0.010035266
0.010022066
0.010011557
0.010003372
0.0099971242
0.009992515
0.009989308
0.009987362
0.0099866072
0.0099865145
0.0099871312
0.0099881558
0.0099898563
0.0099927474
0.009996527
0.0099995127
0.013177869
0.012133202
0.011206132
0.011152647
0.01108727
0.011068808
0.011054869
0.011042358
0.011027679
0.01101034
0.010990469
0.010968532
0.010945061
0.010920547
0.010895408
0.010869979
0.010844525
0.010819244
0.010794286
0.010769759
0.010745737
0.010722272
0.010699396
0.010677124
0.010655463
0.01063441
0.010613955
0.010594085
0.010574783
0.010556028
0.010537798
0.010520068
0.010502815
0.010486011
0.010469629
0.010453641
0.010438019
0.010422733
0.010407754
0.010393051
0.010378594
0.010364352
0.010350295
0.01033639
0.010322607
0.010308915
0.010295281
0.010281676
0.01026807
0.010254431
0.010240732
0.010226944
0.010213041
0.010198998
0.010184791
0.010170401
0.010155808
0.010140997
0.010125953
0.010110665
0.010095117
0.010079292
0.010063186
0.010046903
0.01003109
0.010019008
0.01000933
0.010001833
0.0099961375
0.0099919655
0.0099890955
0.0099873733
0.0099866956
0.0099867471
0.0099873801
0.0099884721
0.0099902358
0.0099929966
0.0099964677
0.0099993233
0.01311114
0.012060805
0.011363346
0.011294398
0.011233243
0.01120055
0.011170889
0.011142026
0.011112259
0.011081595
0.011050299
0.011018736
0.010987231
0.010956048
0.010925385
0.010895379
0.010866126
0.010837683
0.010810082
0.010783336
0.010757443
0.01073239
0.010708159
0.010684724
0.010662058
0.01064013
0.010618911
0.010598367
0.010578466
0.010559177
0.010540467
0.010522303
0.010504654
0.010487488
0.010470774
0.01045448
0.010438575
0.010423027
0.010407805
0.010392878
0.010378214
0.010363781
0.010349549
0.010335485
0.010321558
0.010307736
0.010293987
0.010280278
0.010266578
0.010252854
0.010239072
0.010225201
0.010211209
0.010197064
0.010182738
0.010168201
0.01015343
0.010138403
0.010123103
0.010107522
0.010091656
0.010075523
0.010059196
0.010042993
0.01002829
0.010016871
0.010007811
0.010000813
0.00999553
0.0099916972
0.0099891025
0.009987576
0.0099869551
0.0099870606
0.0099877153
0.0099888496
0.009990582
0.0099930861
0.0099961689
0.0099989931
0.013118807
0.012019608
0.011517681
0.01142665
0.011354014
0.011302897
0.011256147
0.011212263
0.011169944
0.011129002
0.01108938
0.011051101
0.011014182
0.010978625
0.010944413
0.010911516
0.010879893
0.010849496
0.010820273
0.010792172
0.010765138
0.010739118
0.010714059
0.010689911
0.010666624
0.010644152
0.010622451
0.010601476
0.010581187
0.010561545
0.01054251
0.010524047
0.010506119
0.010488692
0.010471733
0.010455207
0.010439082
0.010423326
0.010407908
0.010392795
0.010377956
0.010363361
0.010348977
0.010334775
0.010320723
0.01030679
0.010292945
0.010279158
0.010265396
0.010251628
0.01023782
0.01022394
0.010209954
0.010195829
0.010181532
0.010167028
0.010152288
0.010137279
0.010121974
0.010106347
0.010090382
0.010074084
0.010057547
0.010041218
0.010027008
0.01001591
0.010007138
0.010000385
0.0099953141
0.0099916622
0.0099892136
0.0099877898
0.0099872291
0.0099873734
0.0099880848
0.0099893094
0.0099910795
0.009993429
0.0099961878
0.0099988578
0.01321001
0.012044214
0.011633383
0.011522837
0.011434823
0.011367815
0.011308185
0.011253998
0.011203612
0.011156372
0.011111829
0.011069688
0.01102972
0.010991737
0.010955581
0.010921114
0.010888212
0.010856764
0.010826671
0.010797842
0.010770194
0.01074365
0.010718141
0.010693601
0.01066997
0.010647192
0.010625214
0.010603988
0.010583466
0.010563607
0.010544369
0.010525711
0.010507598
0.010489992
0.010472859
0.010456163
0.010439873
0.010423955
0.010408378
0.01039311
0.01037812
0.010363377
0.010348851
0.010334512
0.010320329
0.010306275
0.010292318
0.010278429
0.010264578
0.010250736
0.010236871
0.010222955
0.010208956
0.010194844
0.010180588
0.01016616
0.010151531
0.010136676
0.010121567
0.010106182
0.010090505
0.010074534
0.010058334
0.010042242
0.010027744
0.01001652
0.010007636
0.010000808
0.0099956907
0.0099920161
0.00998955
0.0099880933
0.0099874876
0.0099876122
0.0099883562
0.0099896089
0.0099913528
0.0099935235
0.0099960178
0.0099986763
0.013334595
0.012100647
0.011693894
0.011571408
0.011473186
0.011397876
0.01133217
0.011273492
0.011219782
0.01117005
0.01112362
0.011080032
0.01103894
0.011000074
0.010963215
0.010928178
0.010894808
0.010862969
0.010832544
0.010803428
0.010775526
0.010748755
0.010723039
0.010698306
0.010674493
0.010651542
0.010629397
0.010608008
0.010587326
0.010567308
0.010547912
0.010529096
0.010510824
0.010493058
0.010475764
0.010458906
0.010442452
0.010426369
0.010410625
0.010395188
0.010380029
0.010365115
0.010350417
0.010335905
0.010321549
0.010307319
0.010293187
0.010279122
0.010265095
0.010251077
0.010237037
0.010222946
0.010208774
0.010194491
0.010180067
0.010165475
0.010150687
0.010135678
0.010120422
0.010104899
0.010089094
0.010073014
0.010056752
0.010040753
0.010026935
0.010016062
0.010007452
0.010000803
0.0099958088
0.0099922172
0.0099898016
0.0099883528
0.0099876822
0.0099875931
0.0099885323
0.0099897709
0.0099914901
0.0099935386
0.0099958728
0.0099985352
65.888175
359.46228
120.62596
14.500553
0.39968697
0.021326452
0.020080406
0.019785066
0.019529417
0.01847635
0.017140812
0.01595327
0.015053117
0.014482809
0.014077684
0.013693749
0.013319954
0.012988381
0.012709855
0.012476846
0.012278872
0.012108164
0.011959504
0.011829121
0.011714013
0.011611708
0.011520211
0.011437926
0.011363603
0.01129626
0.01123508
0.011179352
0.011128454
0.011081864
0.01103917
0.011000038
0.010964184
0.010931354
0.010901317
0.010873865
0.010848816
0.010825998
0.010805238
0.010786375
0.010769257
0.010753726
0.010739622
0.010726785
0.010715076
0.010704371
0.010694555
0.010685524