/*--------------------------------*- C++ -*----------------------------------*\
  =========                 |
  \\      /  F ield         | OpenFOAM: The Open Source CFD Toolbox
   \\    /   O peration     | Website:  https://openfoam.org
    \\  /    A nd           | Version:  12
     \\/     M anipulation  |
\*---------------------------------------------------------------------------*/
FoamFile
{
    format      ascii;
    class       volScalarField;
    location    "0.087";
    object      omega;
}
// * * * * * * * * * * * * * * * * * * * * * * * * * * * * * * * * * * * * * //

dimensions      [0 0 -1 0 0 0 0];

internalField   nonuniform List<scalar> 
16000
(
1087.8134
2186.2538
1075.0561
646.72236
456.35461
317.21438
240.8028
181.69478
146.39831
118.44636
100.64566
86.106909
75.366673
66.380293
59.055835
52.882868
47.673223
43.230221
39.413052
36.109244
33.234186
30.716713
28.498253
26.532064
24.780477
23.214202
21.80897
20.546033
19.409512
18.384932
17.459199
16.621974
15.865023
15.181379
14.565095
14.010648
13.512843
13.066776
12.66834
12.314072
12.000089
11.722301
11.477724
11.263648
11.076996
10.914641
10.77415
10.653219
10.549638
10.461305
10.38633
10.323062
10.269979
10.225753
10.189206
10.159409
10.135807
10.118395
10.107814
10.10428
10.103645
10.101677
10.099156
10.095861
10.091726
10.08675
10.081044
10.074787
10.068088
10.06076
10.051959
10.040689
10.031037
10.023133
10.017034
10.013455
10.013133
10.016418
10.026673
10.050486
1129.3335
2177.6346
1065.8204
646.84059
456.43887
320.13318
241.84202
183.50876
147.21438
119.47092
101.17825
86.664933
75.720396
66.688093
59.277176
53.054479
47.798077
43.320456
39.476125
36.150794
33.259049
30.729416
28.502383
26.530504
24.775064
23.206406
21.799561
20.535427
19.398203
18.373656
17.44843
16.61183
15.855476
15.172289
14.556354
14.002216
13.504789
13.05911
12.660884
12.306767
11.993168
11.715782
11.471469
11.257637
11.071389
10.909446
10.769333
10.648765
10.545557
10.457607
10.38299
10.320064
10.267298
10.223369
10.187088
10.157485
10.133914
10.116196
10.10475
10.100127
10.099404
10.097431
10.094908
10.091642
10.087563
10.082649
10.076986
10.070737
10.064014
10.056687
10.048055
10.037032
10.027556
10.019833
10.014044
10.01089
10.010944
10.014088
10.02438
10.040784
1169.264
2179.084
1053.4846
643.25265
453.02137
320.3536
240.71942
183.68381
146.75362
119.62228
101.01558
86.671514
75.611771
66.58589
59.14198
52.908177
47.641224
43.158738
39.313473
35.989464
33.100926
30.576468
28.356027
26.391933
24.644679
23.084527
21.686049
20.429868
19.300207
18.283186
17.365386
16.535849
15.786121
15.10903
14.498705
13.94974
13.457183
13.016119
12.622075
12.271683
11.961728
11.68779
11.446553
11.235446
11.051824
10.892304
10.754365
10.635738
10.534277
10.44791
10.374692
10.313002
10.261315
10.218329
10.182864
10.153941
10.130876
10.113401
10.101746
10.096348
10.095397
10.093353
10.090761
10.087459
10.083369
10.078461
10.072798
10.066524
10.059736
10.052329
10.043745
10.03301
10.023866
10.016451
10.011077
10.008437
10.008743
10.011829
10.021653
10.032851
1207.4116
2187.2245
1043.7017
639.75411
449.19633
320.39261
239.29783
183.70423
146.14866
119.67209
100.80027
86.615621
75.461655
66.436169
58.966318
52.723165
47.448972
42.964074
39.12036
35.799993
32.916704
30.399326
28.187198
26.232566
24.495054
22.944891
21.556217
20.309364
19.188487
18.180107
17.270824
16.449393
15.707298
15.037252
14.433431
13.890457
13.403507
12.96777
12.578626
12.232547
11.926759
11.656789
11.419134
11.211145
11.030503
10.873735
10.73826
10.621822
10.522308
10.437699
10.366022
10.305687
10.255173
10.213201
10.178609
10.150412
10.127891
10.110706
10.098961
10.092976
10.091707
10.089555
10.086863
10.083491
10.079359
10.074424
10.068732
10.062403
10.055522
10.047988
10.039402
10.028925
10.020174
10.013135
10.008233
10.006123
10.006625
10.009572
10.018649
10.026238
1243.6063
2205.2785
1035.0796
635.95455
444.60567
319.67987
237.18916
183.23302
145.16243
119.44151
100.39617
86.382393
75.172399
66.154025
58.675628
52.434093
47.163645
42.68538
38.851308
35.541785
32.670015
30.165273
27.966344
26.025585
24.301821
22.765322
21.389864
20.155537
19.046331
18.0492
17.150891
16.339873
15.6076
14.946648
14.351253
13.816053
13.336333
12.907435
12.524678
12.184216
11.883747
11.618824
11.385796
11.181798
11.004901
10.851583
10.719191
10.60548
10.508361
10.425902
10.356093
10.297392
10.248279
10.207509
10.173943
10.146603
10.124749
10.107986
10.096331
10.089986
10.088313
10.086006
10.083175
10.079697
10.075484
10.070488
10.064736
10.05833
10.051337
10.043642
10.034996
10.024842
10.016539
10.009937
10.005558
10.003991
10.004684
10.007371
10.015406
10.020454
1277.7043
2230.7965
1031.0524
632.91651
440.51431
318.33915
234.59462
182.35203
143.89563
118.96913
99.848246
85.994295
74.763574
65.756781
58.284447
52.054215
46.796798
42.332936
38.515349
35.222853
32.367991
29.8807
27.69923
25.77608
24.069586
22.55
21.190788
19.971858
18.876945
17.893423
17.008324
16.209816
15.489361
14.839376
14.254164
13.728371
13.257366
12.836657
12.461636
12.128021
11.833904
11.574963
11.347499
11.148272
10.975781
10.826511
10.69773
10.587208
10.492857
10.412872
10.3452
10.288355
10.240829
10.201406
10.168984
10.1426
10.121503
10.105248
10.093796
10.08731
10.085187
10.082681
10.079679
10.07606
10.071735
10.066648
10.060812
10.05431
10.047195
10.039323
10.030555
10.020799
10.012989
10.006885
10.00307
10.002043
10.002941
10.005271
10.011906
10.014815
1309.6575
2261.4613
1031.1128
630.06057
436.50346
316.35777
231.87701
181.09562
142.42796
118.25691
99.165384
85.449954
74.231298
65.242303
57.789595
51.58062
46.345443
41.903874
38.109503
34.840327
32.007917
29.543054
27.383583
25.48147
23.795959
22.296752
20.957013
19.756564
18.678786
17.711429
16.84196
16.058226
15.351747
14.714749
14.141608
13.62698
13.166297
12.755207
12.389319
12.064016
11.777338
11.525314
11.304372
11.11074
10.943314
10.798681
10.674029
10.56715
10.475922
10.398718
10.333434
10.278654
10.232883
10.194942
10.16377
10.138428
10.118166
10.1025
10.091327
10.084782
10.082299
10.079552
10.076346
10.072556
10.068091
10.062888
10.056949
10.050333
10.043088
10.035041
10.026081
10.01685
10.009575
10.004028
10.000798
10.000281
10.001394
10.00331
10.008219
10.009165
1339.5717
2294.8107
1032.7693
626.91152
432.58121
313.72897
229.20141
179.59957
140.90871
117.32932
98.364904
84.758064
73.576933
64.61291
57.191418
51.012978
45.808678
41.397171
37.631834
34.392165
31.587802
29.150392
27.017807
25.138259
23.477575
22.002437
20.685647
19.507027
18.449524
17.501154
16.649991
15.883535
15.193418
14.571635
14.012645
13.51111
13.06252
12.66262
12.307288
11.992502
11.7144
11.470206
11.25671
11.069611
10.907871
10.768418
10.648383
10.545569
10.457779
10.383628
10.320947
10.26841
10.224537
10.188188
10.158352
10.13412
10.114755
10.099743
10.088913
10.082373
10.079602
10.076583
10.073143
10.069153
10.064523
10.059186
10.053129
10.046388
10.039002
10.0308
10.021596
10.01302
10.006323
10.001386
9.9987446
9.998679
10.000014
10.00155
10.00468
10.005013
1367.5491
2328.636
1031.5647
622.99894
427.82121
310.39786
225.6724
177.71491
139.06355
116.21461
97.443562
83.918385
72.7939
63.864273
56.485176
50.345784
45.180988
40.807859
37.074425
33.870397
31.100008
28.695411
26.595468
24.747295
23.115844
21.668898
20.378806
19.225541
18.191582
17.265075
16.43489
15.688183
15.016769
14.412364
13.869519
13.382906
12.948074
12.560859
12.217203
11.913067
11.644842
11.409468
11.204336
11.025232
10.869793
10.736007
10.621114
10.52275
10.43868
10.367808
10.307909
10.257756
10.215895
10.181222
10.152784
10.12971
10.111284
10.096977
10.086544
10.080054
10.07705
10.073734
10.070035
10.065821
10.061003
10.055515
10.049334
10.042461
10.034919
10.026601
10.017284
10.00934
10.003258
9.9989692
9.9968965
9.9972026
9.9987526
10.000087
10.00167
10.001114
1393.6942
2361.2929
1022.6986
617.99358
421.34576
306.62213
221.29214
175.35016
137.14131
114.92074
96.391236
82.925994
71.874236
62.988498
55.66289
49.566225
44.448531
40.122674
36.435706
33.275961
30.547124
28.181788
26.120077
24.307703
22.710168
21.295674
20.03619
18.911966
17.905015
17.00341
16.196938
15.472558
14.822295
14.237518
13.712885
13.243068
12.823676
12.450635
12.120051
11.827948
11.570637
11.344922
11.148713
10.977502
10.829062
10.701401
10.592502
10.498938
10.418891
10.351476
10.294503
10.246835
10.207066
10.174125
10.147122
10.125235
10.107769
10.094199
10.08421
10.077798
10.074589
10.070961
10.066984
10.062524
10.0575
10.051848
10.045538
10.038538
10.03083
10.022416
10.013163
10.00585
10.000404
9.9967741
9.9952367
9.9958233
9.9975301
9.9988681
9.9996268
9.9981263
1418.1233
2392.0225
1013.9151
611.91665
413.22305
302.42689
216.6315
172.79372
135.12873
113.44513
95.194613
81.773611
70.80609
61.964963
54.701999
48.669452
43.612688
39.345713
35.713793
32.607059
29.927341
27.607884
25.590516
23.819648
22.260954
20.883325
19.658561
18.567246
17.590952
16.717486
15.937237
15.237812
14.611207
14.04835
13.544009
13.092857
12.690564
12.333129
12.016831
11.737787
11.492398
11.277264
11.090673
10.928081
10.787108
10.665732
10.562492
10.474081
10.398631
10.334807
10.280908
10.235795
10.198165
10.166981
10.141424
10.120727
10.104223
10.091405
10.081898
10.075586
10.072168
10.068223
10.063954
10.059234
10.053991
10.048161
10.041717
10.034603
10.026734
10.018222
10.009287
10.002602
9.9977886
9.9947954
9.9937521
9.9945377
9.9963058
9.99779
9.9983579
9.9960537
1440.9553
2421.7968
1000.5362
604.34312
403.66761
297.82897
211.80283
169.97997
133.09068
111.7941
93.826165
80.430847
69.551732
60.78732
53.606186
47.652273
42.669788
38.47366
34.907277
31.862571
29.240411
26.973854
25.007071
23.283543
21.769014
20.432479
19.246752
18.192407
17.25059
16.408834
15.656042
14.984225
14.383841
13.845255
13.36333
12.932731
12.549206
12.208802
11.908008
11.643056
11.410474
11.207436
11.030951
10.877383
10.744316
10.629597
10.532239
10.44901
10.377839
10.317732
10.267248
10.22477
10.189302
10.159874
10.135746
10.116222
10.10066
10.088583
10.07959
10.073408
10.069734
10.065478
10.060911
10.055925
10.050453
10.044437
10.03785
10.030639
10.022648
10.014005
10.005706
9.9996457
9.9954343
9.9930209
9.9924269
9.99337
9.995116
9.9967745
9.9975332
9.9948319
1462.4979
2449.9895
983.253
595.7658
393.5522
292.82549
206.90207
166.96587
131.00406
109.94578
92.22088
78.881361
68.116531
59.449778
52.369134
46.511095
41.617344
37.504808
34.015028
31.041981
28.486181
26.280175
24.370044
22.700048
21.23559
19.942714
18.800465
17.787341
16.883925
16.077998
15.358429
14.716807
14.145041
13.632908
13.175308
12.766874
12.40349
12.081212
11.796783
11.54664
11.327226
11.135636
10.969757
10.825598
10.700788
10.593442
10.501955
10.424026
10.357359
10.300863
10.25341
10.213833
10.180568
10.152883
10.130142
10.111753
10.097098
10.085726
10.077258
10.071264
10.067246
10.062688
10.057826
10.052575
10.046872
10.040665
10.033922
10.026621
10.018598
10.009852
10.002441
9.9970052
9.9933419
9.991423
9.9912263
9.9923345
9.994028
9.995818
9.9969704
9.9941325
1482.9922
2472.9208
961.7863
586.65859
382.99506
287.45826
202.01952
163.76054
128.7974
107.80556
90.36315
77.114633
66.487938
57.944299
50.984909
45.241231
40.452111
36.437004
33.036081
30.144371
27.66453
25.527668
23.678033
22.067857
20.660199
19.420396
18.326671
17.359353
16.498443
15.731811
15.048141
14.439221
13.897871
13.414062
12.982424
12.597483
12.255357
11.952067
11.684596
11.449736
11.244018
11.064415
10.909183
10.774498
10.657885
10.557282
10.47168
10.399004
10.337239
10.284469
10.239927
10.20284
10.171993
10.14607
10.124664
10.107349
10.093556
10.082829
10.074858
10.069131
10.06467
10.059819
10.054673
10.049164
10.043236
10.03684
10.029936
10.022522
10.01457
10.006062
9.9994726
9.9946587
9.991483
9.9899624
9.9900962
9.9914011
9.9930948
9.9949761
9.9965975
9.9941617
1502.6947
2486.009
936.17159
576.89394
372.0596
281.76631
197.22976
160.28486
126.35012
105.38099
88.225798
75.11313
64.653697
56.260949
49.446301
43.837759
39.171313
35.26797
31.969792
29.166648
26.772602
24.714716
22.939422
21.396749
20.052528
18.871235
17.831155
16.913629
16.099031
15.375083
14.730269
14.156305
13.645389
13.191247
12.786815
12.426321
12.106253
11.82258
11.572428
11.353081
11.161189
10.994453
10.849786
10.724477
10.616158
10.522487
10.442563
10.374763
10.317287
10.268629
10.22701
10.192214
10.163406
10.13944
10.119355
10.103035
10.090053
10.079904
10.072344
10.066839
10.061983
10.056846
10.051429
10.045677
10.039534
10.03296
10.025905
10.018349
10.010445
10.002565
9.9967551
9.9925482
9.9898144
9.9886157
9.9890024
9.9905102
9.9923299
9.9943843
9.9964539
9.9951072
1521.8243
2479.3686
906.75947
566.5275
360.79204
275.75324
192.52782
156.41177
123.5847
102.62746
85.779393
72.854407
62.598007
54.388811
47.74606
42.295238
37.772262
33.991833
30.811761
28.117489
25.822729
23.854612
22.16212
20.694849
19.420382
18.30368
17.322224
16.456361
15.69112
15.012505
14.408645
13.871856
13.394585
12.970632
12.593995
12.258297
11.960512
11.69663
11.463707
11.259747
11.081131
10.925904
10.791701
10.675543
10.575368
10.489143
10.41483
10.351724
10.298145
10.253076
10.214708
10.182126
10.155115
10.132817
10.114214
10.098833
10.086601
10.076974
10.069728
10.064381
10.059162
10.053749
10.048078
10.0421
10.035757
10.029012
10.021835
10.014169
10.006182
9.9993141
9.9942301
9.990611
9.9883047
9.9873988
9.9879756
9.9896273
9.9916448
9.9940724
9.9964879
9.9958852
1540.5531
2432.6992
874.93097
555.58771
349.25144
269.333
187.60392
152.11459
120.38726
99.497484
82.990545
70.314049
60.305211
52.318429
45.877705
40.604279
36.247533
32.620126
29.578134
27.007827
24.826219
22.959219
21.358617
19.974501
18.773322
17.725945
16.807787
15.999445
15.28567
14.654209
14.092529
13.593486
13.149862
12.755947
12.406766
12.095653
11.819847
11.57562
11.359684
11.170765
11.005216
10.861096
10.736801
10.629335
10.536602
10.456932
10.388627
10.330058
10.28011
10.238273
10.20275
10.172626
10.147246
10.126414
10.109091
10.09475
10.083203
10.074066
10.067036
10.061737
10.056199
10.05052
10.044608
10.038421
10.031898
10.024988
10.017692
10.010055
10.002259
9.9962595
9.9918639
9.9888104
9.9869425
9.9863434
9.9870855
9.988796
9.990883
9.9935825
9.9965258
9.9968055
1558.7552
2396.1428
842.8468
544.02463
337.4416
261.96361
182.53312
147.29047
116.64369
95.933306
79.824525
67.468242
57.760157
50.04164
43.828864
38.776395
34.618416
31.168022
28.285251
25.855919
23.800626
22.045777
20.542119
19.248217
18.128494
17.154054
16.301617
15.55221
14.890666
14.306538
13.787192
13.325788
12.91556
12.550892
12.226993
11.939725
11.685086
11.459963
11.261491
11.086945
10.934032
10.800459
10.685387
10.586138
10.500437
10.426734
10.363539
10.309485
10.263326
10.224409
10.191464
10.163494
10.139868
10.120299
10.104136
10.090756
10.079842
10.071192
10.064332
10.058906
10.053094
10.04716
10.041021
10.034634
10.027949
10.020902
10.013466
10.005837
9.998682
9.9934275
9.9896605
9.9871427
9.9857225
9.9854527
9.9863562
9.9880889
9.9901847
9.9930225
9.9964356
9.9977634
1575.9701
2355.2654
809.86559
531.50119
325.26033
253.40989
177.1218
141.82444
112.24569
91.874302
76.248235
64.296429
54.944302
47.54403
41.624587
36.833709
32.908546
29.661584
26.958088
24.685671
22.764666
21.131842
19.735824
18.536204
17.500122
16.600185
15.814064
15.12374
14.513863
13.974542
13.496467
13.071523
12.693565
12.357521
12.059063
11.794257
11.559557
11.351934
11.168818
11.007915
10.867148
10.744464
10.637918
10.546235
10.467069
10.398931
10.340452
10.290431
10.247791
10.211559
10.180945
10.154968
10.132989
10.114518
10.099335
10.086747
10.076488
10.068313
10.061684
10.055911
10.049861
10.043684
10.037329
10.030746
10.023898
10.016751
10.009259
10.001599
9.9954483
9.990853
9.9876502
9.9856194
9.9846328
9.9847016
9.9857709
9.9875242
9.9896822
9.9927306
9.9961129
9.9982868
1591.5251
2287.4919
775.23573
517.50845
311.9469
243.52358
171.05514
135.57789
107.09352
87.262128
72.236087
60.779395
51.874724
44.87292
39.300727
34.814468
31.155528
28.135401
25.62417
23.521843
21.74889
20.243698
18.958249
17.8546
16.902236
16.075844
15.354198
14.71967
14.160427
13.665554
13.226616
12.836257
12.488683
12.179239
11.904172
11.660176
11.444044
11.252835
11.084143
10.935716
10.805701
10.692476
10.594636
10.509801
10.436596
10.373546
10.319358
10.272908
10.233234
10.199781
10.171217
10.146978
10.126441
10.109133
10.094796
10.082877
10.07313
10.065332
10.058895
10.052807
10.046529
10.040118
10.033556
10.02679
10.019766
10.012498
10.005112
9.9978977
9.9925314
9.9885639
9.9858602
9.9842543
9.9836585
9.9840512
9.9852928
9.987064
9.989254
9.9924812
9.9959689
9.9987169
1604.3458
2219.1032
738.04033
501.47493
297.84447
232.11294
163.86148
128.38457
101.1109
82.066837
67.781982
56.957491
48.612505
42.086563
36.916204
32.771088
29.405217
26.626276
24.323874
22.398857
20.777275
19.401573
18.226696
17.217427
16.345994
15.589788
14.928309
14.348103
13.836139
13.382437
12.979831
12.621529
12.302178
12.017404
11.763754
11.538509
11.339193
11.162833
11.007329
10.870494
10.750462
10.646271
10.555524
10.476938
10.409068
10.350611
10.300337
10.257211
10.220368
10.189064
10.16236
10.139653
10.120398
10.104136
10.090541
10.079191
10.069844
10.062304
10.055989
10.049634
10.043147
10.036513
10.029741
10.022807
10.015647
10.008218
10.000764
9.9946355
9.9899446
9.9865541
9.9842985
9.9830627
9.9828019
9.9834748
9.9848842
9.9867147
9.9889657
9.9922773
9.9958512
9.9988835
1611.6554
2136.0358
698.05508
481.69737
282.70226
218.85961
155.06434
120.10682
94.297245
76.335041
62.968857
52.937769
45.253641
39.270758
34.544672
30.764587
27.70303
25.180528
23.090319
21.343491
19.871599
18.622171
17.554095
16.635102
15.839764
15.147934
14.543339
14.012332
13.543856
13.127698
12.757958
12.428628
12.134878
11.872664
11.638617
11.430109
11.245758
11.082542
10.938677
10.812317
10.70165
10.604935
10.520736
10.447686
10.384524
10.330106
10.283329
10.243064
10.208837
10.179483
10.154399
10.133009
10.114855
10.099555
10.086606
10.075744
10.06672
10.059316
10.053022
10.046447
10.039779
10.032947
10.02596
10.018829
10.011574
10.004236
9.9970711
9.9917238
9.9876693
9.9847945
9.9829508
9.9820559
9.9820887
9.9829869
9.9845277
9.9864321
9.9887832
9.9921535
9.9958172
9.9990199
1608.3203
2034.2053
654.76286
455.8676
266.34087
203.41438
144.42097
110.76822
86.802443
70.193573
57.98146
48.867096
41.917172
36.520735
32.263425
28.858978
26.102463
23.835274
21.953083
20.377923
19.048317
17.917546
16.949044
16.114011
15.38962
14.757762
14.203987
13.716461
13.285384
12.902819
12.562203
12.258431
11.987224
11.745067
11.528982
11.336411
11.16516
11.013407
10.879405
10.761596
10.658496
10.568585
10.490173
10.422072
10.363054
10.312087
10.268501
10.230928
10.198655
10.171031
10.147398
10.127154
10.110024
10.095412
10.083027
10.072579
10.063861
10.05652
10.050082
10.04332
10.036484
10.0295
10.02235
10.015017
10.007541
10.000168
9.9939475
9.9891886
9.9856824
9.9832588
9.9817944
9.9812243
9.9815225
9.9825971
9.9842233
9.9861855
9.9886324
9.9920177
9.9957193
9.9990858
1588.1616
1903.8338
608.37866
423.31089
248.76272
185.57066
132.15153
100.69294
78.975023
63.966918
53.040467
44.91087
38.726565
33.929911
30.144274
27.110652
24.64728
22.622819
20.93585
19.519487
18.319975
17.296566
16.417442
15.657422
14.996324
14.417916
13.909314
13.460572
13.062986
12.709571
12.39429
12.112632
11.86077
11.635574
11.434411
11.255021
11.095416
10.953809
10.82857
10.718194
10.62137
10.537271
10.463875
10.400107
10.344854
10.297098
10.255925
10.220499
10.189954
10.163724
10.141401
10.122225
10.105806
10.091792
10.079873
10.06982
10.061288
10.054001
10.047312
10.04037
10.033351
10.026214
10.018955
10.011565
10.004086
9.9968217
9.9912928
9.9870522
9.9839939
9.9819542
9.9808247
9.980544
9.9810654
9.9822716
9.9839558
9.9859789
9.9885286
9.991928
9.9956596
9.9990664
1542.3812
1744.6688
560.07321
384.82043
230.91329
165.6047
118.9403
90.503616
71.271512
57.97934
48.370892
41.229633
35.799068
31.583315
28.248694
25.566643
23.377651
21.568457
20.056864
18.7814
17.696278
16.766419
15.964525
15.268993
14.662417
14.130447
13.660548
13.244727
12.875248
12.54663
12.252852
11.989961
11.754526
11.543738
11.355224
11.186948
11.037116
10.904112
10.786452
10.682753
10.591718
10.51212
10.442777
10.382395
10.329997
10.284611
10.245422
10.211877
10.182908
10.157972
10.136527
10.118119
10.102325
10.088774
10.07727
10.067424
10.059027
10.051755
10.044872
10.037762
10.030558
10.02323
10.015792
10.008275
10.000831
9.9941644
9.9891271
9.9853275
9.9826385
9.9809181
9.980066
9.9800153
9.9807017
9.982002
9.9837399
9.9858412
9.9884963
9.9919136
9.9956757
9.9990786
1462.7386
1582.6049
510.82861
345.22518
206.89763
146.25846
105.72953
80.888445
64.149055
52.545775
44.189286
37.979324
33.245889
29.557237
26.62541
24.254504
22.308113
20.689346
19.32818
18.173262
17.185253
16.33421
15.596674
14.954043
14.391327
13.896314
13.458948
13.070898
12.725407
12.41685
12.140566
11.892888
11.670735
11.471565
11.293222
11.133845
10.991784
10.865533
10.753696
10.654955
10.56808
10.491987
10.425967
10.368401
10.318429
10.275133
10.237699
10.205387
10.177529
10.153476
10.132743
10.114898
10.099656
10.086515
10.075223
10.065531
10.057198
10.049904
10.042871
10.035629
10.028282
10.020808
10.013224
10.005587
9.9981626
9.9920866
9.9874446
9.984013
9.9816317
9.9801718
9.9795445
9.9796671
9.9804819
9.9818514
9.9836402
9.9858013
9.9884897
9.9918354
9.9955272
9.9988919
1350.9726
1496.5513
464.56472
297.684
183.00806
128.08684
93.781019
72.371203
57.983413
47.961135
40.714702
35.312061
31.171304
27.922431
25.321615
23.203676
21.453599
19.989138
18.749269
17.691527
16.782014
15.994905
15.309811
14.71043
14.183542
13.718343
13.305894
12.938842
12.611217
12.318527
12.055827
11.819917
11.607972
11.41768
11.247069
11.094438
10.958272
10.837194
10.729919
10.635225
10.551937
10.478905
10.415
10.359287
10.310818
10.268744
10.232292
10.200796
10.17379
10.15043
10.130278
10.112888
10.09789
10.084962
10.07382
10.064215
10.05591
10.048577
10.041426
10.034071
10.026603
10.019009
10.011314
10.003599
9.9962026
9.9905499
9.9862183
9.983083
9.9809538
9.9796968
9.9792302
9.9794588
9.980421
9.9818254
9.9836544
9.9858487
9.9885051
9.9917025
9.9952591
9.9986507
1218.5564
1255.5585
424.28279
255.28928
160.78225
112.92781
83.890204
65.49101
53.108817
44.426536
38.101352
33.342436
29.661277
26.746882
24.393812
22.462286
20.854514
19.500404
18.348589
17.360614
16.507254
15.765762
15.118124
14.549791
14.048818
13.605268
13.21107
12.859445
12.544801
12.262523
12.008827
11.780563
11.575135
11.390374
11.224433
11.075714
10.94279
10.82436
10.719212
10.626211
10.544334
10.472852
10.410198
10.355534
10.307939
10.266589
10.230727
10.199665
10.172791
10.149566
10.1295
10.112172
10.097212
10.084298
10.073155
10.063537
10.055208
10.047842
10.04065
10.033236
10.025694
10.018006
10.010202
10.002399
9.9950793
9.9896244
9.9854658
9.9825136
9.9805668
9.9794575
9.9790513
9.9792629
9.9804232
9.9818345
9.983716
9.9859724
9.9886361
9.9917181
9.9950989
9.9984675
1099.4033
1116.4789
391.51518
224.49054
144.15043
101.77393
76.562699
60.478386
49.623067
41.945462
36.295245
32.003244
28.65238
25.976775
23.799558
21.999577
20.491479
19.213693
18.120845
17.178825
16.361498
15.648447
15.023435
14.47342
13.988218
13.557449
13.173822
12.830932
12.523519
12.247208
11.998393
11.774101
11.571873
11.389654
11.225703
11.078508
10.946722
10.829112
10.724522
10.63185
10.55004
10.478075
10.414991
10.359851
10.311784
10.269976
10.233677
10.202208
10.174954
10.151369
10.130968
10.113326
10.09807
10.084878
10.073471
10.063604
10.055048
10.047517
10.040391
10.033005
10.025513
10.017885
10.01015
10.002394
9.9949849
9.989471
9.9852601
9.9822645
9.9803124
9.9792791
9.9789666
9.9793393
9.9803607
9.981834
9.9837527
9.9860585
9.9887333
9.9917405
9.9950015
9.9983607
1044.6623
1075.8436
367.18367
207.36518
133.25061
94.200713
71.100019
56.492426
46.651537
39.681604
34.536319
30.609871
27.531165
25.062599
23.046059
21.37285
19.966163
18.770422
17.744577
16.857729
16.08619
15.411444
14.818724
14.296017
13.833373
13.422463
13.056234
12.728746
12.43501
12.170864
11.932857
11.71814
11.524356
11.349545
11.192053
11.050453
10.92348
10.809985
10.70889
10.619171
10.53984
10.469944
10.408565
10.354828
10.307905
10.267024
10.231471
10.200595
10.173809
10.150586
10.130461
10.11302
10.097905
10.084802
10.07344
10.06358
10.054998
10.047416
10.040225
10.032776
10.02522
10.017529
10.009744
10.001986
9.9947766
9.9893572
9.9851959
9.9822158
9.9802747
9.97926
9.9789524
9.9790578
9.9803591
9.98178
9.9837294
9.9860573
9.9887327
9.9917086
9.9949145
9.9982982
30874.778
78730.134
36531.584
10495.042
1379.1068
610.20438
433.79256
350.16582
290.11773
236.0748
192.42225
159.19505
134.62475
116.40174
102.36991
90.901475
81.200527
72.917337
65.815988
59.688705
54.361041
49.697205
45.591618
41.958665
38.732996
35.850054
33.264426
30.936075
28.833112
26.930365
25.206347
23.641894
22.220296
20.926861
19.750059
18.68019
17.708506
16.82725
16.029342
15.308344
14.658643
14.074657
13.551309
13.084027
12.668313
12.299907
11.974961
11.689432
11.439633
11.222198
11.033847
10.871454
10.732039
10.613066
10.512016
10.426679
10.356746
10.302007
10.262424
10.241286
10.234126
10.231041
10.227284
10.222416
10.216697
10.210002
10.202083
10.192604
10.179507
10.163548
10.13951
10.115447
10.076813
10.071009
10.04179
10.055761
10.002087
10.021105
9.9887085
10.013183
20150.782
58484.531
24090.714
4964.3936
967.45564
528.07218
397.52341
320.98272
263.80995
212.60083
174.41111
145.59032
124.57239
108.81118
96.353507
85.91038
77.009884
69.396915
62.848658
57.171888
52.213232
47.855616
44.006422
40.589573
37.54316
34.81406
32.360809
30.14595
28.141347
26.32436
24.675152
23.175968
21.81142
20.567993
19.435375
18.404584
17.467456
16.616786
15.845933
15.148878
14.520371
13.955068
13.448199
12.995436
12.592453
12.235194
11.919983
11.642887
11.400391
11.189262
11.006319
10.848542
10.713055
10.597431
10.499234
10.416216
10.347722
10.294247
10.255855
10.235996
10.229442
10.226451
10.222671
10.217821
10.212133
10.205459
10.197554
10.188176
10.175822
10.160307
10.137166
10.113339
10.076841
10.071744
10.043465
10.05821
10.003875
10.023229
9.9897392
10.014397
28610.407
34382.397
13149.999
2494.9084
831.85223
498.44327
387.59267
305.75034
250.50501
201.06723
166.67252
139.50859
120.0272
105.14557
93.262334
83.230088
74.703261
67.410201
61.127762
55.673038
50.902654
46.70659
42.996655
39.700082
36.75601
34.117164
31.743357
29.598076
27.655245
25.893143
24.292635
22.836652
21.510498
20.301251
19.199296
18.19596
17.283407
16.454746
15.703577
15.024128
14.411367
13.860071
13.365681
12.924009
12.530836
12.18224
11.87466
11.604226
11.367552
11.161489
10.982926
10.828921
10.696687
10.583892
10.488022
10.407016
10.339707
10.287202
10.249721
10.230861
10.224754
10.221844
10.218067
10.213255
10.207607
10.200963
10.193083
10.183723
10.172053
10.157046
10.134854
10.111273
10.076951
10.071611
10.04508
10.060077
10.005742
10.025079
9.9909366
10.015479
35945.766
23711.771
8219.575
1525.9172
752.63759
475.43527
375.27588
289.87976
239.41922
190.44572
159.68413
133.61248
115.71598
101.6207
90.311944
80.684465
72.518531
65.524416
59.491033
54.244972
49.651388
45.606785
42.027293
38.843443
35.997656
33.442037
31.142677
29.063165
27.179018
25.469217
23.9153
22.500824
21.21172
20.035606
18.963521
17.987029
17.098605
16.291642
15.55995
14.897989
14.300921
13.763627
13.281755
12.851239
12.467957
12.12812
11.828271
11.5646
11.333849
11.132949
10.958858
10.808712
10.679882
10.569895
10.476427
10.397469
10.331574
10.280062
10.243528
10.225695
10.220029
10.217203
10.213436
10.208667
10.203066
10.196457
10.18861
10.179302
10.168107
10.153665
10.132429
10.109173
10.076892
10.070811
10.046442
10.061381
10.007742
10.027215
9.9924957
10.016616
40308.098
20311.934
5804.9064
1222.0174
719.24625
457.70761
365.65156
277.56188
231.37206
182.3582
154.74411
129.03838
112.47023
98.824702
87.944607
78.614964
70.729225
63.964286
58.124021
53.04129
48.58766
44.664204
41.190003
38.097959
35.332435
32.848144
30.609181
28.585077
26.750835
25.085842
23.57215
22.193779
20.937148
19.790294
18.744793
17.792329
16.925649
16.138361
15.424435
14.778519
14.195928
13.671615
13.201411
12.781342
12.407362
12.075801
11.783286
11.526054
11.300968
11.105024
10.935243
10.788845
10.66328
10.556037
10.464914
10.387963
10.323593
10.273014
10.237394
10.220513
10.215282
10.212538
10.208789
10.204073
10.198524
10.191957
10.184148
10.174898
10.164017
10.1502
10.129931
10.107077
10.07653
10.070317
10.047305
10.062471
10.009857
10.030146
9.9941861
10.01785
43059.342
18979.167
4479.5649
1151.7354
699.23047
439.70962
358.30109
267.88719
225.24032
175.89662
150.86905
125.17228
109.79086
96.415898
85.907807
76.820415
69.169763
62.595008
56.917031
51.972502
47.638145
43.818511
40.434998
37.422425
34.726878
32.30442
30.119183
28.144044
26.354048
24.729047
23.251448
21.905646
20.678471
19.558302
18.537187
17.606858
16.760318
15.991341
15.294029
14.663191
14.094263
13.582253
13.123161
12.713076
12.348022
12.024432
11.739005
11.488016
11.268445
11.077342
10.9118
10.769145
10.646708
10.542167
10.453366
10.378404
10.315693
10.266011
10.231291
10.215232
10.210519
10.207852
10.204131
10.199474
10.193982
10.187461
10.179698
10.170515
10.159801
10.146648
10.127362
10.104904
10.075989
10.070724
10.047682
10.063781
10.012122
10.033331
9.9956862
10.01915
45237.946
17073.94
3607.1906
1102.5159
684.28886
427.27008
352.46942
260.13708
220.47707
170.76026
147.78924
121.92597
107.5697
94.338849
84.15345
75.261258
67.807301
61.390715
55.849185
51.021594
46.788903
43.058288
39.752972
36.809299
34.174721
31.806552
29.670232
27.737171
25.98628
24.39697
22.951775
21.635367
20.434913
19.339079
18.340325
17.430372
16.602471
15.850518
15.168721
14.552032
13.99598
13.495611
13.047082
12.646521
12.290015
11.97409
11.695498
11.450552
11.236344
11.049979
10.888658
10.749541
10.630192
10.528317
10.44181
10.368819
10.307842
10.259062
10.22523
10.210056
10.205758
10.203149
10.199466
10.194873
10.189442
10.182972
10.175262
10.166154
10.155549
10.143018
10.124728
10.102608
10.075454
10.071023
10.047704
10.065038
10.014513
10.036103
9.9970425
10.020495
46848.193
14447.893
3046.1597
1071.9861
672.90407