/*--------------------------------*- C++ -*----------------------------------*\
  =========                 |
  \\      /  F ield         | OpenFOAM: The Open Source CFD Toolbox
   \\    /   O peration     | Website:  https://openfoam.org
    \\  /    A nd           | Version:  12
     \\/     M anipulation  |
\*---------------------------------------------------------------------------*/
FoamFile
{
    format      ascii;
    class       volScalarField;
    location    "0.087";
    object      T;
}
// * * * * * * * * * * * * * * * * * * * * * * * * * * * * * * * * * * * * * //

dimensions      [0 0 0 1 0 0 0];

internalField   nonuniform List<scalar> 
16000
(
295.60728
287.21886
290.48094
288.69286
289.78964
289.28545
289.70309
289.59208
289.78688
289.81961
289.93896
290.02238
290.12625
290.22752
290.3347
290.44516
290.55969
290.67814
290.80059
290.92704
291.05749
291.19191
291.33027
291.4725
291.61853
291.76823
291.92149
292.07812
292.23794
292.40072
292.56622
292.73415
292.9042
293.07603
293.24928
293.42356
293.59846
293.77356
293.94841
294.12257
294.29559
294.467
294.63636
294.80322
294.96716
295.12777
295.28465
295.43745
295.58583
295.7295
295.86816
296.0016
296.12961
296.25201
296.36866
296.47948
296.58439
296.68336
296.77639
296.86353
296.94487
297.02056
297.0908
297.15591
297.21631
297.27249
297.32488
297.37378
297.41928
297.46147
297.50079
297.53839
297.57597
297.61501
297.65577
297.69657
297.73815
297.7824
297.83911
297.91242
295.30517
286.81678
290.19707
288.34055
289.50386
288.96313
289.41535
289.29508
289.50403
289.54222
289.66839
289.7606
289.8715
289.98146
290.09692
290.21622
290.33977
290.46755
290.59957
290.73583
290.87631
291.02097
291.16973
291.32251
291.47917
291.63959
291.80356
291.97089
292.14132
292.3146
292.4904
292.66839
292.84822
293.02947
293.21174
293.39459
293.57756
293.76017
293.94196
294.12244
294.30114
294.47757
294.65129
294.82186
294.98884
295.15186
295.31055
295.46458
295.61366
295.75753
295.89596
296.02878
296.15582
296.27697
296.39215
296.50131
296.60444
296.70154
296.79267
296.8779
296.95737
297.03126
297.09978
297.16328
297.22218
297.27699
297.32815
297.37595
297.42042
297.46154
297.49959
297.53564
297.57147
297.60892
297.64852
297.689
297.73076
297.77795
297.83224
297.91577
295.01753
286.4454
289.94361
288.03049
289.2333
288.68274
289.14839
289.03572
289.24947
289.29935
289.43091
289.53355
289.65242
289.772
289.89688
290.02607
290.15978
290.29799
290.4407
290.58789
290.7395
290.89546
291.05565
291.21996
291.38821
291.5602
291.7357
291.91444
292.09613
292.28042
292.46696
292.65532
292.84509
293.0358
293.22699
293.41814
293.60876
293.79832
293.98631
294.17223
294.35557
294.53585
294.71262
294.88544
295.05393
295.21773
295.37651
295.52999
295.67794
295.82015
295.95647
296.08677
296.21097
296.32902
296.44089
296.54661
296.6462
296.73975
296.82735
296.90911
296.98522
297.05589
297.12135
297.18197
297.2382
297.29053
297.33944
297.38519
297.42776
297.46703
297.50317
297.53718
297.57092
297.60643
297.64444
297.68389
297.72579
297.77409
297.82739
297.91919
294.75264
286.10366
289.71947
287.75652
288.99548
288.43509
288.91437
288.81094
289.02996
289.09307
289.23102
289.34529
289.47344
289.60379
289.73937
289.87966
290.02471
290.17452
290.32905
290.48825
290.65202
290.82025
290.9928
291.16948
291.35008
291.53433
291.72194
291.91259
292.10588
292.30143
292.49877
292.69744
292.89693
293.09671
293.29623
293.49495
293.6923
293.88772
294.08068
294.27063
294.45707
294.63954
294.8176
294.99084
295.15891
295.32152
295.47839
295.62932
295.77413
295.91271
296.04496
296.17085
296.29037
296.40353
296.5104
296.61104
296.70556
296.79408
296.87675
296.95374
297.02526
297.09153
297.15284
297.20955
297.26212
297.31106
297.35683
297.39968
297.43956
297.47627
297.50989
297.54138
297.57269
297.60602
297.64218
297.68036
297.72227
297.77069
297.82371
297.92245
294.51087
285.79727
289.50833
287.52785
288.80171
288.22834
288.71742
288.6279
288.8506
288.92965
289.07476
289.20196
289.34075
289.48303
289.63053
289.78307
289.94061
290.10313
290.27057
290.44284
290.61981
290.80132
290.98717
291.17711
291.37086
291.56809
291.76842
291.97143
292.17666
292.38361
292.59176
292.80052
293.00933
293.21757
293.42462
293.62989
293.83276
294.03264
294.22897
294.42122
294.6089
294.79156
294.96881
295.14031
295.30576
295.46494
295.61767
295.76381
295.9033
296.0361
296.16221
296.28168
296.39458
296.50102
296.60111
296.69501
296.78288
296.86489
296.94123
297.01212
297.0778
297.13852
297.19458
297.24636
297.29432
297.33896
297.38073
297.41987
297.45628
297.48971
297.52017
297.54863
297.57713
297.60802
297.64209
297.67888
297.7206
297.76839
297.82149
297.92589
294.29588
285.53331
289.33286
287.33682
288.6323
288.0688
288.56781
288.49286
288.71825
288.81484
288.96799
289.10895
289.25953
289.41466
289.57518
289.74104
289.9122
290.08859
290.27012
290.45664
290.64796
290.84386
291.04406
291.24823
291.45598
291.6669
291.88049
292.09624
292.31358
292.53189
292.75056
292.96891
293.18627
293.40196
293.6153
293.82564
294.03234
294.2348
294.43245
294.6248
294.81139
294.99183
295.1658
295.33304
295.49336
295.64662
295.79274
295.93171
296.06356
296.18835
296.30619
296.41722
296.5216
296.61951
296.71115
296.79673
296.87647
296.95059
297.01933
297.08293
297.14166
297.19579
297.24564
297.29159
297.33408
297.37361
297.41062
297.44531
297.47755
297.50703
297.53375
297.55867
297.58398
297.61213
297.64393
297.67931
297.72067
297.7673
297.82064
297.92976
294.11088
285.31365
289.1893
287.18197
288.49917
287.95855
288.45539
288.40938
288.63409
288.75075
288.91296
289.06842
289.2322
289.40144
289.57642
289.75713
289.94348
290.13533
290.33251
290.53482
290.74196
290.95362
291.16941
291.38888
291.61154
291.83683
292.06415
292.29284
292.52221
292.75154
292.98007
293.20706
293.43174
293.65337
293.87122
294.08461
294.2929
294.4955
294.69189
294.88163
295.06434
295.23973
295.40757
295.56772
295.72012
295.86474
296.00165
296.13094
296.25276
296.3673
296.47476
296.57537
296.66939
296.75708
296.83869
296.91449
296.98475
297.04975
297.10974
297.16499
297.21579
297.26243
297.30522
297.34454
297.38082
297.41454
297.44612
297.47571
297.50317
297.52813
297.55057
297.5715
297.59325
297.61832
297.64764
297.68162
297.72241
297.7675
297.82128
297.93419
293.95429
285.13669
289.07593
287.06232
288.39481
287.88282
288.38055
288.34488
288.59804
288.73609
288.90984
289.08159
289.26094
289.44648
289.63817
289.83594
290.03963
290.24903
290.46387
290.68382
290.90849
291.13743
291.37011
291.60595
291.8443
292.08446
292.32567
292.56713
292.80802
293.04749
293.28468
293.51874
293.74884
293.97421
294.19409
294.40781
294.61477
294.81444
295.00639
295.19027
295.36583
295.53291
295.69142
295.84139
295.98287
296.11601
296.24101
296.35809
296.46754
296.56964
296.66471
296.75308
296.83506
296.91098
296.98116
297.04592
297.10556
297.16037
297.21065
297.25668
297.29875
297.33715
297.37219
297.40424
297.4337
297.46104
297.48663
297.51061
297.53277
297.55274
297.57046
297.58704
297.60488
297.62657
297.6532
297.68572
297.72567
297.76898
297.82354
297.93918
293.82129
285.00033
288.99567
286.97803
288.33938
287.87576
288.36654
288.3872
288.61597
288.77447
288.96328
289.15385
289.35171
289.55627
289.76735
289.98477
290.20829
290.43756
290.67221
290.91177
291.1557
291.40337
291.6541
291.90712
292.16161
292.41669
292.67143
292.92488
293.17608
293.42406
293.66786
293.90658
294.13935
294.36539
294.58398
294.79452
294.99648
295.18947
295.37318
295.54743
295.71213
295.8673
296.01304
296.14954
296.27704
296.39584
296.50628
296.60874
296.7036
296.79127
296.87216
296.94665
297.01515
297.07802
297.13563
297.18831
297.2364
297.28022
297.32004
297.35618
297.3889
297.4185
297.44528
297.46957
297.49177
297.51229
297.53148
297.54943
297.56591
297.58051
297.59322
297.60516
297.61886
297.63689
297.66067
297.69162
297.73031
297.77169
297.8275
297.94438
293.71072
284.90636
288.95395
286.94222
288.33714
287.8792
288.39688
288.4485
288.68982
288.87447
289.08194
289.29394
289.51336
289.73985
289.97316
290.21297
290.45888
290.71043
290.96705
291.22809
291.49281
291.76039
292.02992
292.30042
292.57087
292.84019
293.10727
293.37102
293.63033
293.88415
294.13146
294.37136
294.60298
294.82562
295.03866
295.24161
295.43413
295.61601
295.78713
295.94754
296.09736
296.23683
296.36626
296.48602
296.59653
296.69827
296.79172
296.87737
296.95573
297.02727
297.09248
297.15181
297.20569
297.25454
297.29872
297.3386
297.3745
297.40675
297.43563
297.46143
297.48442
297.50486
297.52304
297.53927
297.55391
297.56733
297.57984
297.5915
297.60204
297.61105
297.61853
297.6257
297.63508
297.64929
297.67014
297.69938
297.73632
297.7755
297.83297
297.94992
293.62592
284.86237
288.95645
287.01794
288.39305
288.00704
288.48638
288.58114
288.83256
289.04482
289.27498
289.51154
289.75583
290.00745
290.26605
290.53112
290.8021
291.07828
291.35888
291.64301
291.92966
292.21777
292.50616
292.79361
293.07888
293.36067
293.63772
293.90879
294.17271
294.42837
294.67478
294.91108
295.13654
295.35058
295.5528
295.74293
295.92087
296.08667
296.24048
296.38261
296.51344
296.63344
296.74314
296.8431
296.93393
297.01624
297.09063
297.1577
297.21803
297.27216
297.32062
297.36388
297.40241
297.4366
297.46686
297.49351
297.5169
297.5373
297.55501
297.57028
297.58336
297.59449
297.60394
297.61197
297.61893
297.62514
297.63084
297.63608
297.64056
297.64387
297.64607
297.64841
297.65339
297.66372
297.68166
297.70903
297.74368
297.78057
297.8399
297.95589
293.5734
284.88147
289.01177
287.15346
288.49615
288.16597
288.64502
288.78507
289.05298
289.29551
289.55273
289.81747
290.09026
290.37053
290.65769
290.95103
291.24969
291.55269
291.85895
292.16723
292.47624
292.78457
293.09078
293.39338
293.69089
293.98185
294.26487
294.53864
294.80199
295.05387
295.29341
295.51994
295.73296
295.93216
296.11743
296.28883
296.4466
296.59109
296.7228
296.8423
296.95024
297.04733
297.13429
297.21188
297.28083
297.34186
297.39568
297.44292
297.48423
297.52017
297.55127
297.57802
297.60087
297.6202
297.63638
297.64974
297.66057
297.66914
297.67571
297.68049
297.68372
297.68561
297.68638
297.68627
297.68558
297.6846
297.68353
297.68236
297.6808
297.67845
297.67542
297.67299
297.67362
297.68012
297.69525
297.72056
297.75238
297.78698
297.84862
297.96244
293.5584
284.9701
289.13026
287.33747
288.66264
288.4086
288.88241
289.0711
289.36147
289.63754
289.92661
290.22382
290.52927
290.84204
291.16127
291.48587
291.81462
292.14616
292.47898
292.81149
293.14198
293.46874
293.79001
294.10407
294.40926
294.70401
294.9869
295.2567
295.51235
295.75304
295.97817
296.1874
296.38062
296.55792
296.71959
296.86612
296.9981
297.11626
297.2214
297.3144
297.39614
297.46753
297.52946
297.5828
297.62838
297.66699
297.69937
297.72619
297.74807
297.76558
297.77924
297.7895
297.79676
297.8014
297.80373
297.80405
297.8026
297.79962
297.79533
297.78991
297.78356
297.77645
297.76877
297.76074
297.7526
297.74461
297.73693
297.72951
297.72206
297.71422
297.70615
297.69913
297.69551
297.69834
297.71083
297.73387
297.76233
297.79485
297.85924
297.96957
293.58267
285.13563
289.31719
287.60645
288.90429
288.73343
289.20879
289.44939
289.76982
290.08402
290.41044
290.74518
291.08792
291.43731
291.79201
292.15046
292.51095
292.8716
293.23044
293.58543
293.9345
294.27557
294.60666
294.92588
295.23152
295.52206
295.79625
296.0531
296.29192
296.51231
296.71417
296.89764
297.06313
297.21125
297.34276
297.45859
297.55972
297.64723
297.7222
297.78573
297.83889
297.88274
297.91825
297.94635
297.96792
297.98375
297.99455
298.001
298.00366
298.00307
297.99969
297.99393
297.98613
297.97661
297.96564
297.95345
297.94027
297.92627
297.91162
297.89648
297.881
297.86532
297.84959
297.834
297.81876
297.80407
297.79007
297.7767
297.76364
297.7506
297.73781
297.72645
297.71881
297.71821
297.7282
297.74872
297.77337
297.80413
297.87157
297.977
293.6511
285.39097
289.57619
287.96224
289.23214
289.15396
289.63794
289.93461
290.29369
290.65199
291.02197
291.39978
291.78455
292.17429
292.56706
292.96067
293.3528
293.741
294.1228
294.49571
294.85731
295.20529
295.53758
295.85231
296.14798
296.42339
296.67774
296.91058
297.12182
297.31173
297.48084
297.62995
297.76005
297.8723
297.96795
298.0483
298.11469
298.16846
298.21089
298.24322
298.26663
298.28221
298.29096
298.29381
298.2916
298.28507
298.2749
298.26166
298.24588
298.22801
298.20845
298.18752
298.16552
298.14269
298.11924
298.09536
298.0712
298.0469
298.02259
297.99838
297.97438
297.95069
297.92745
297.90479
297.8829
297.86195
297.84204
297.8231
297.80484
297.78702
297.76989
297.75455
297.74322
297.73949
297.74707
297.7648
297.78537
297.81446
297.88489
297.98473
293.76814
285.75438
289.90408
288.41916
289.66035
289.685
290.18799
290.54654
290.9539
291.36343
291.7834
292.20957
292.64021
293.07261
293.50404
293.93158
294.35222
294.76293
295.16073
295.5428
295.90656
296.24974
296.57047
296.86733
297.13938
297.38613
297.60757
297.8041
297.97647
298.12574
298.2532
298.36032
298.44866
298.51986
298.57554
298.61731
298.64674
298.66528
298.67433
298.67514
298.6689
298.65666
298.63937
298.61788
298.59294
298.56521
298.53526
298.50358
298.47061
298.4367
298.40217
298.36726
298.33219
298.29714
298.26225
298.22765
298.19345
298.15973
298.12657
298.09406
298.06226
298.03124
298.00111
297.97197
297.94398
297.91729
297.89198
297.86796
297.84499
297.8229
297.80193
297.78304
297.76843
297.76189
297.76707
297.78177
297.79836
297.82559
297.89829
297.99327
293.93833
286.25488
290.30556
288.99483
290.20989
290.34971
290.88459
291.31209
291.77739
292.24516
292.72059
293.19877
293.67689
294.15132
294.6184
295.07438
295.51556
295.9384
296.33967
296.71657
297.06678
297.38861
297.68094
297.94331
298.1758
298.37904
298.55409
298.70238
298.82559
298.92561
299.00441
299.06402
299.10645
299.13363
299.14743
299.14959
299.14172
299.1253
299.10167
299.07204
299.03747
298.99892
298.95722
298.91308
298.86714
298.81993
298.77191
298.72345
298.67489
298.62649
298.57845
298.53096
298.48414
298.43812
298.39296
298.34875
298.30554
298.26336
298.22227
298.1823
298.14349
298.1059
298.06957
298.03461
298.00114
297.9693
297.93915
297.91061
297.88351
297.85771
297.83343
297.81151
297.79413
297.78516
297.78787
297.79929
297.81233
297.83817
297.91187
298.00291
294.17274
286.94012
290.82521
289.72022
290.91151
291.17926
291.76018
292.26351
292.79508
293.32671
293.86081
294.39152
294.91464
295.42538
295.91906
296.3912
296.83768
297.25497
297.64021
297.99133
298.30708
298.58702
298.83146
299.04136
299.21822
299.36398
299.48087
299.57132
299.63783
299.68292
299.70906
299.71859
299.71374
299.69655
299.66891
299.63251
299.58887
299.53936
299.48516
299.42733
299.36676
299.30425
299.24046
299.17596
299.11123
299.04667
298.9826
298.9193
298.85697
298.79578
298.73585
298.67729
298.62015
298.56448
298.5103
298.45763
298.40648
298.35687
298.30878
298.26224
298.21726
298.17385
298.13206
298.09197
298.05368
298.01731
297.98293
297.95049
297.91986
297.89097
297.86395
297.83958
297.82003
297.80907
297.80925
297.81704
297.82717
297.85342
297.92698
298.01238
294.49776
287.80068
291.48984
290.63264
291.80291
292.20839
292.85089
293.43665
294.04083
294.63914
295.23075
295.80851
296.36659
296.89911
297.40078
297.86708
298.29441
298.68027
299.02329
299.32313
299.58045
299.79675
299.97417
300.11535
300.22326
300.30104
300.35187
300.37891
300.38516
300.37348
300.34649
300.30659
300.25596
300.19653
300.13002
300.05793
299.98159
299.90211
299.82049
299.73755
299.654
299.57042
299.48732
299.40508
299.32404
299.24446
299.16653
299.09042
299.01623
298.94403
298.87388
298.80578
298.73975
298.67576
298.6138
298.55383
298.49583
298.43977
298.38564
298.3334
298.28306
298.23462
298.18811
298.14358
298.10114
298.06089
298.02289
297.98717
297.95365
297.92227
297.89311
297.8669
297.84581
297.83332
297.83102
297.83512
297.84298
297.87072
297.94356
298.021
294.95358
288.76681
292.34143
291.76756
292.92781
293.47872
294.19936
294.87322
295.55165
296.21227
296.8506
297.45822
298.02831
298.55493
299.03355
299.46116
299.83626
300.15881
300.43003
300.65221
300.82843
300.96231
301.05783
301.11907
301.15008
301.1548
301.13692
301.09986
301.04672
300.9803
300.90309
300.81727
300.72476
300.6272
300.52601
300.42242
300.31745
300.21196
300.10668
300.0022
299.89903
299.79754
299.69806
299.60083
299.50602
299.41378
299.32419
299.23729
299.15311
299.07165
298.99287
298.91673
298.84318
298.77215
298.70359
298.63743
298.57361
298.51207
298.45277
298.39568
298.34077
298.28805
298.23752
298.18924
298.1433
298.09979
298.05881
298.02041
297.9846
297.95131
297.92059
297.89315
297.87114
297.85756
297.85302
297.85372
297.8595
297.88837
297.96014
298.0276
295.59583
290.01694
293.42744
293.17655
294.3465
295.04812
295.85797
296.61768
297.35911
298.06161
298.71806
299.32023
299.86242
300.34096
300.75435
301.10307
301.38929
301.61647
301.78907
301.9121
301.99086
302.03072
302.03683
302.01411
301.96706
301.89976
301.81588
301.71864
301.61085
301.49495
301.37304
301.24689
301.11801
300.98769
300.85697
300.72673
300.59771
300.47049
300.34553
300.22321
300.10382
299.98756
299.8746
299.76503
299.65891
299.55626
299.45706
299.36129
299.26888
299.17976
299.09384
299.01104
298.93124
298.85436
298.7803
298.70896
298.64025
298.57412
298.51049
298.44932
298.39058
298.33427
298.28039
298.229
298.18017
298.134
298.09061
298.05011
298.01254
297.97788
297.94613
297.91803
297.89562
297.88128
297.8748
297.8726
297.87651
297.90509
297.97381
298.0318
296.4821
291.60938
294.83276
294.93879
296.13754
296.98381
297.87438
298.69601
299.46457
300.16328
300.78592
301.32783
301.78777
302.16714
302.4696
302.70046
302.86613
302.97361
303.03005
303.04245
303.01744
302.96109
302.87892
302.77577
302.65591
302.523
302.3802
302.23019
302.0752
301.91714
301.75756
301.59777
301.43883
301.2816
301.12677
300.97491
300.82644
300.68169
300.54091
300.40427
300.27187
300.14378
300.02002
299.90055
299.78535
299.67433
299.5674
299.46446
299.36539
299.27006
299.17834
299.0901
299.0052
298.92351
298.84492
298.7693
298.69657
298.62663
298.55941
298.49486
298.43295
298.37367
298.31705
298.26312
298.21196
298.16367
298.1184
298.07629
298.03743
298.00181
297.9695
297.94124
297.91879
297.90385
297.89558
297.89106
297.89368
297.92088
297.98349
298.03429
297.59733
293.66862
296.66272
297.13787
298.36753
299.32986
300.25639
301.08026
301.80794
302.43079
302.94883
303.36497
303.6853
303.91795
304.07224
304.158
304.18494
304.16227
304.09844
304.00104
303.87669
303.73116
303.56933
303.39534
303.21265
303.02412
302.83214
302.63864
302.44521
302.25312
302.0634
301.87686
301.69415
301.51574
301.34201
301.17323
301.00957
300.85116
300.69805
300.55024
300.4077
300.27037
300.13815
300.01093
299.88859
299.77097
299.65793
299.54931
299.44493
299.34464
299.24826
299.15564
299.06661
298.98102
298.89874
298.81964
298.74361
298.67055
298.60038
298.53306
298.46856
298.40687
298.34802
298.29205
298.23904
298.18911
298.1424
298.0991
298.0593
298.02307
297.99054
297.96248
297.94026
297.92482
297.91487
297.90852
297.9106
297.93661
297.99224
298.03317
299.11094
296.30716
299.01309
299.82761
301.03331
302.05624
302.92992
303.65898
304.25251
304.71438
305.05505
305.28694
305.42384
305.47969
305.46778
305.40031
305.28811
305.14058
304.96569
304.77015
304.55952
304.33835
304.11038
303.87859
303.6454
303.41275
303.18217
302.95486
302.73175
302.51356
302.30083
302.09395
301.89321
301.69878
301.51077
301.3292
301.15408
300.98533
300.82288
300.66659
300.51633
300.37195
300.23325
300.10007
299.97221
299.84948
299.73167
299.61859
299.51004
299.40582
299.30574
299.20962
299.11728
299.02856
298.9433
298.86137
298.78265
298.70705
298.63449
298.56491
298.4983
298.43465
298.374
298.3164
298.26195
298.21075
298.16298
298.11879
298.07834
298.04171
298.0092
297.98154
297.95971
297.94389
297.9326
297.92502
297.92695
297.95134
297.99895
298.02835
301.07083
299.5954
301.88141
302.98368
304.15924
305.01708
305.71764
306.23953
306.60518
306.83301
306.9442
306.95887
306.89555
306.77055
306.59776
306.38881
306.1532
305.89864
305.63129
305.35605
305.07679
304.79653
304.51762
304.24187
303.97069
303.70511
303.44591
303.19367
302.94877
302.71148
302.48195
302.26024
302.04636
301.84024
301.64178
301.45087
301.26732
301.09096
300.9216
300.75902
300.603
300.45332
300.30974
300.17203
300.03995
299.91329
299.79179
299.67524
299.56342
299.4561
299.35309
299.25417
299.15917
299.06792
298.98025
298.89602
298.81512
298.73745
298.66293
298.59151
298.52317
298.45793
298.39582
298.33691
298.2813
298.22913
298.18055
298.13573
298.09482
298.05797
298.02557
297.99828
297.97674
297.9606
297.94839
297.94013
297.94177
297.96344
298.00225
298.02172
303.50283
303.52097
305.51323
306.47871
307.36599
307.97149
308.37362
308.59353
308.66749
308.62509
308.49302
308.29334
308.04403
307.75935
307.45046
307.12603
306.79267
306.45542
306.11811
305.7836
305.45401
305.1309
304.81541
304.50833
304.2102
303.92138
303.64205
303.3723
303.11212
302.86142
302.62008
302.38792
302.16474
301.95033
301.74443
301.54681
301.35718
301.1753
301.00088
300.83365
300.67334
300.51968
300.3724
300.23122
300.0959
299.96617
299.84178
299.72249
299.60805
299.49824
299.39285
299.29167
299.19449
299.10116
299.01149
298.92536
298.84264
298.76324
298.68707
298.61411
298.54432
298.47774
298.4144
298.3544
298.29783
298.24484
298.19561
298.1503
298.10905
298.07206
298.03972
298.01257
297.99092
297.97425
297.96145
297.95308
297.95424
297.97192
298.00182
298.01577
306.55036
307.92506
309.24187
309.93662
310.40927
310.61523
310.63638
310.51435
310.28963
309.99241
309.64598
309.2677
308.87035
308.46328
308.05323
307.64506
307.24224
306.8472
306.46161
306.08659
305.72288
305.3709
305.03085
304.70279
304.38665
304.08227
303.78945
303.50793
303.23742
302.97762
302.7282
302.48885
302.25922
302.03898
301.82781
301.62537
301.43134
301.24539
301.0672
300.89646
300.73287
300.57613
300.42594
300.28202
300.14408
300.01186
299.88509
299.76352
299.64689
299.53499
299.42758
299.32445
299.22541
299.13027
299.03888
298.95108
298.86677
298.78585
298.70824
298.63391
298.56284
298.49506
298.43063
298.36963
298.31218
298.25844
298.20858
298.16277
298.12117
298.08401
298.05159
298.02428
298.00219
297.98492
297.9719
297.96398
297.96463
297.97766
297.99905
298.00958
310.47976
312.24863
312.78147
312.96354
312.90595
312.67001
312.31766
311.89104
311.42014
310.92551
310.42111
309.91633
309.41741
308.92843
308.45202
307.98978
307.54264
307.11105
306.69515
306.29483
305.90986
305.53992
305.18459
304.84345
304.51603
304.20188
303.90052
303.61149
303.33434
303.06862
302.81389
302.56974
302.33574
302.11151
301.89666
301.69081
301.49359
301.30465
301.12365
300.95026
300.78414
300.62498
300.47248
300.32634
300.18628
300.052
299.92325
299.79976
299.68128
299.56758
299.45843
299.35362
299.25295
299.15624
299.06333
298.97408
298.88836
298.80609
298.72719
298.65163
298.5794
298.51053
298.44508
298.38314
298.32483
298.27032
298.21977
298.17337
298.1313
298.0938
298.06114
298.03359
298.01122
297.99379
297.98098
297.97325
297.97259
297.98087
297.99498
298.00352
315.41939
315.7796
315.50384
315.1326
314.60809
314.01385
313.38505
312.74713
312.11413
311.49458
310.8932
310.31252
309.75368
309.217
308.70229
308.20905
307.7366
307.2842
306.85104
306.43631
306.0392
305.65896
305.29482
304.94609
304.61208
304.29214
303.98568
303.6921
303.41086
303.14144
302.88333
302.63606
302.39919
302.17227
301.95489
301.74665
301.54716
301.35606
301.17298
300.99758
300.82953
300.66851
300.51419
300.36629
300.2245
300.08855
299.95817
299.83308
299.71305
299.59783
299.4872
299.38094
299.27886
299.18077
299.08652
298.99596
298.90898
298.82548
298.74539
298.66868
298.59535
298.52541
298.45893
298.396
298.33676
298.28136
298.22997
298.1828
298.14006
298.10198
298.06877
298.04061
298.01756
297.99962
297.98676
297.97914
297.97737
297.98203
297.99138
297.999
317.40504
317.56728
316.98614
316.22263
315.44212
314.66113
313.89956
313.16496
312.46068
311.78767
311.14558
310.53345
309.94998
309.39374
308.8633
308.35725
307.87425
307.41302
306.9724
306.55126
306.1486
305.76346
305.39496
305.04228
304.70467
304.3814
304.07183
303.77533
303.49131
303.21923
302.95857
302.70883
302.46955
302.24029
302.02062
301.81014
301.60845
301.41519
301.22999
301.0525
300.88239
300.71935
300.56304
300.41318
300.26947
300.13162
299.99937
299.87246
299.75063
299.63364
299.52127
299.4133
299.30955
299.20981
299.11394
299.0218
298.93325
298.84822
298.76662
298.68843
298.61363
298.54227
298.47439
298.41011
298.34955
298.29286
298.24023
298.19188
298.14803
298.10891
298.07472
298.04561
298.02167
298.00303
297.98994
297.98246
297.98006
297.98188
297.98847
297.9962
311.03737
309.76804
306.13959
303.30856
302.05251
301.76819
301.70026
301.69632
301.58625
301.52844
301.42327
301.35618
301.26933
301.18513
301.10002
301.01411
300.92753
300.84026
300.7523
300.6637
300.57456
300.48498
300.39509
300.30501
300.21488
300.12484
300.03502
299.94556
299.85659
299.76825
299.68066
299.59396
299.50827
299.42372
299.34042
299.25851
299.17809
299.0993
299.02226
298.94707
298.87387
298.80276
298.73387
298.6673
298.60317
298.54158
298.48265
298.42648
298.37315
298.32275
298.27535
298.23102
298.18979
298.1517
298.11674
298.08489
298.05609
298.03022
298.00715
297.98669
297.96865
297.95277
297.93872
297.92613
297.91465
297.90381
297.89357
297.88314
297.87386
297.86356
297.85812
297.84979
297.85596
297.85336
297.87945
297.88393
297.93611
297.93416
297.99354
298.00528
310.29058
307.38112
303.29728
301.27768
300.71681
300.71731
300.81621
300.82633
300.82041
300.7946
300.77137
300.73328
300.69055
300.64274
300.59123
300.53609
300.47767
300.41622
300.35208
300.28554
300.21689
300.14639
300.07429
300.00084
299.92626
299.85077
299.77457
299.69788
299.62089
299.54378
299.46675
299.38998
299.31363
299.23789
299.16291
299.08888
299.01593
298.94425
298.87397
298.80525
298.73824
298.67309
298.60993
298.54889
298.49012
298.43374
298.37986
298.32861
298.28008
298.23437
298.19155
298.15169
298.11484
298.08101
298.0502
298.02239
297.99749
297.97541
297.95597
297.93899
297.92426
297.91153
297.90044
297.89062
297.88174
297.87335
297.86538
297.85721
297.85003
297.84216
297.83882
297.83357
297.84186
297.8429
297.86999
297.87687
297.928
297.92798
297.98744
297.9987
308.88908
305.36098
302.34152
300.65481
300.33157
300.37085
300.40347
300.37692
300.34851
300.31574
300.28382
300.24887
300.21229
300.17293
300.13145
300.08759
300.0416
299.99345
299.94322
299.89101
299.83691
299.78104
299.72352
299.66448
299.60406
299.54242
299.4797
299.41608
299.35171
299.28677
299.22144
299.15589
299.0903
299.02485
298.95972
298.89509
298.83115
298.76807
298.70602
298.64519
298.58573
298.52783
298.47163
298.41731
298.365
298.31486
298.26701
298.2216
298.17873
298.1385
298.10101
298.06631
298.03446
298.00548
297.97937
297.95609
297.93556
297.91766
297.90223
297.88908
297.87798
297.86867
297.8608
297.85399
297.84791
297.84215
297.83665
297.83089
297.82599
297.82061
297.81956
297.81728
297.82782
297.83194
297.86135
297.86958
297.92032
297.9216
297.98134
297.99231
307.74244
303.96353
301.16731
299.9031
299.86022
299.8747
299.89144
299.85566
299.83775
299.80905
299.78545
299.75664
299.72773
299.6969
299.66498
299.63145
299.59649
299.55994
299.5218
299.48207
299.44077
299.39791
299.35354
299.30771
299.2605
299.21198
299.16226
299.11144
299.05965
299.00702
298.9537
298.89984
298.8456
298.79114
298.73664
298.68228
298.62824
298.5747
298.52185
298.46987
298.41893
298.36923
298.32094
298.27423
298.22927
298.18622
298.14523
298.10643
298.06995
298.03591
298.0044
297.97548
297.94921
297.92563
297.90471
297.88642
297.87068
297.85737
297.8463
297.83729
297.83011
297.82449
297.82006
297.81647
297.81338
297.81043
297.80755
297.80434
297.80185
297.79904
297.80042
297.80106
297.81395
297.82082
297.85228
297.86212
297.91257
297.91501
297.97504
297.98613
307.07244
302.77383
300.22344
299.28377
299.36321
299.33681
299.36352
299.32738
299.32139
299.29764
299.28287
299.26156
299.24165
299.21994
299.19763
299.17408
299.14946
299.1236
299.09648
299.06806
299.03832
299.00723
298.97481
298.94104
298.90598
298.86964
298.8321
298.79341
298.75366
298.71295
298.67138
298.62908
298.58619
298.54284
298.49919
298.45541
298.41166
298.36812
298.32497
298.2824
298.24058
298.19971
298.15996
298.12151
298.08455
298.04923
298.01572
297.98416
297.95469
297.92741
297.90243
297.87983
297.85965
297.84192
297.82664
297.81375
297.80319
297.7948
297.78842
297.78384
297.78084
297.77914
297.77837
297.77819
297.77827
297.77828
297.77816
297.77762
297.77768
297.77753
297.78141
297.78493
297.80028
297.80971
297.84287
297.85447
297.90506
297.90827
297.96865
297.98042
306.51501
301.60427
299.43542
298.68984
298.83883
298.78352
298.83009
298.79467
298.8035
298.78649
298.78273
298.77014
298.75998
298.74775
298.73516
298.72143
298.70674
298.69095
298.67406
298.65602
298.63682
298.61642
298.59483
298.57202
298.54802
298.52283
298.49649
298.46904
298.44053
298.41102
298.38061
298.34938
298.31745
298.28493
298.25195
298.21866
298.18522
298.15177
298.1185
298.08557
298.05317
298.02146
297.99065
297.96089
297.93237
297.90526
297.87971
297.85587
297.83387
297.81383
297.79585
297.78
297.76634
297.75488
297.74562
297.73851
297.73345
297.73031
297.7289
297.72901
297.73043
297.73285
297.73594
297.73933
297.74273
297.74584
297.74862
297.75087
297.75358
297.75614
297.76259
297.76899
297.78674
297.79866
297.83345
297.84668
297.89745
297.90156
297.96235
297.97486
305.95066
300.57839
298.79912
298.15081
298.34573
298.26498
298.3308
298.29385
298.31488
298.30233
298.30743
298.30195
298.29963
298.295
298.29028
298.28464
298.27821
298.27091
298.2627
298.25356
298.24345
298.23235
298.22021
298.20705
298.19283
298.17757
298.16127
298.14396
298.12567
298.10644
298.08634
298.06543
298.0438
298.02155
297.99879
297.97564
297.95223
297.9287
297.90522
297.88192
297.85899
297.83659
297.81489
297.79406
297.77426
297.75565
297.73839
297.72262
297.70846
297.69603
297.68542
297.6767
297.66991
297.66507
297.66216
297.66112
297.66187
297.66424
297.66804
297.67308
297.67911
297.68585
297.69295
297.70008
297.70693
297.71326
297.71904
297.72418
297.72962
297.73497
297.74402
297.75327
297.77321
297.78777
297.824
297.83887
297.8898
297.89494
297.95633
297.96926
305.48647
299.64392
298.26077
297.65788