/*--------------------------------*- C++ -*----------------------------------*\
  =========                 |
  \\      /  F ield         | OpenFOAM: The Open Source CFD Toolbox
   \\    /   O peration     | Website:  https://openfoam.org
    \\  /    A nd           | Version:  12
     \\/     M anipulation  |
\*---------------------------------------------------------------------------*/
FoamFile
{
    format      ascii;
    class       volVectorField;
    location    "0.087";
    object      U;
}
// * * * * * * * * * * * * * * * * * * * * * * * * * * * * * * * * * * * * * //

dimensions      [0 1 -1 0 0 0 0];

internalField   nonuniform List<vector> 
16000
(
(214.65514 -3.1514724e-17 -8.3401154)
(251.483 0 5.3559814)
(237.58597 0 -7.5439433)
(245.26744 4.988889e-17 3.7643077)
(240.58942 -4.9242618e-17 -5.9462954)
(242.79262 0 1.7432166)
(241.00063 0 -4.3303701)
(241.50758 8.4288378e-17 -0.034499596)
(240.66841 -8.008143e-17 -3.1694188)
(240.54874 0 -1.2750583)
(240.03631 7.2358795e-17 -2.5776294)
(239.69073 -2.0615119e-16 -1.995699)
(239.24886 1.3048196e-16 -2.4374092)
(238.82206 -1.2411638e-16 -2.3750698)
(238.36727 1.1776359e-16 -2.5378667)
(237.89873 -3.4933931e-18 -2.6110488)
(237.41169 -3.3185649e-18 -2.7159098)
(236.90706 -9.7920752e-17 -2.8100286)
(236.38431 1.9184858e-16 -2.9059311)
(235.84331 -9.1025025e-17 -2.9996404)
(235.28393 1.7313712e-16 -3.0915408)
(234.7061 -1.6412158e-16 -3.1809358)
(234.10985 0 -3.2673299)
(233.49529 1.5276486e-16 -3.3501451)
(232.86262 -4.138069e-18 -3.4287963)
(232.21216 -2.6661879e-16 -3.5026671)
(231.54434 1.2636797e-16 -3.5711352)
(230.85971 0 -3.6335663)
(230.15894 0 -3.6893305)
(229.44284 2.1944297e-16 -3.7378075)
(228.71237 -2.0446463e-16 -3.7784005)
(227.9686 0 -3.8105443)
(227.21275 0 -3.8337171)
(226.44617 0 -3.8474543)
(225.67035 5.1579841e-18 -3.8513591)
(224.88688 1.5652473e-16 -3.8451136)
(224.09747 -1.4328693e-16 -3.8284915)
(223.30393 -1.4032962e-16 -3.8013654)
(222.50812 1.2425475e-16 -3.7637161)
(221.712 0 -3.7156398)
(220.91755 -1.1891082e-16 -3.6573483)
(220.12677 1.1223976e-16 -3.589173)
(219.34166 -2.1269902e-16 -3.5115614)
(218.56418 2.0067815e-16 -3.4250734)
(217.79628 -1.9597605e-16 -3.3303754)
(217.03978 3.5879558e-16 -3.2282301)
(216.29647 5.6129973e-18 -3.1194862)
(215.56799 2.9029622e-19 -3.0050645)
(214.85588 -1.5100659e-16 -2.885941)
(214.16151 1.4280487e-16 -2.7631298)
(213.48613 -1.2614145e-16 -2.6376646)
(212.83083 0 -2.5105794)
(212.19651 7.4961415e-18 -2.3828921)
(211.58391 0 -2.2555863)
(210.9936 6.6698374e-18 -2.1295954)
(210.42595 2.0766474e-16 -2.0057884)
(209.8812 -3.7954489e-16 -1.8849569)
(209.35945 1.0970478e-17 -1.7678047)
(208.86067 1.6863708e-16 -1.6549398)
(208.38468 -1.4924467e-16 -1.5468819)
(207.93112 1.4057751e-16 -1.4440316)
(207.49951 -8.84469e-18 -1.346697)
(207.08901 0 -1.2550172)
(206.69823 0 -1.1689549)
(206.3251 -1.1141682e-16 -1.0882867)
(205.96685 1.1209446e-16 -1.0126041)
(205.62019 -9.9304146e-17 -0.94135425)
(205.28168 1.9382269e-16 -0.87388681)
(204.94825 -1.8913014e-16 -0.80950906)
(204.61749 8.3838499e-17 -0.74755689)
(204.28756 5.2931653e-18 -0.68749431)
(203.95661 0 -0.62899424)
(203.62209 4.7575101e-18 -0.57209626)
(203.28034 -4.5183638e-18 -0.51758057)
(202.92714 0 -0.46574811)
(202.56233 -3.3776454e-17 -0.41442048)
(202.17789 6.2512737e-17 -0.36981745)
(201.76997 -3.1762531e-17 -0.32952281)
(201.31275 0 -0.23148072)
(200.94699 0 -0.31142536)
(215.96056 0 -11.148762)
(253.11372 -3.7413474e-18 3.3157895)
(238.57163 -1.2022129e-16 -10.457587)
(246.72279 1.1085478e-16 1.6907911)
(241.69075 0 -8.7962043)
(244.12493 1.0199127e-16 -0.40383783)
(242.12954 -1.8833808e-16 -7.0650537)
(242.72503 -1.0150208e-19 -2.3050745)
(241.79501 8.4877933e-17 -5.7500134)
(241.67621 0 -3.6637855)
(241.12328 -1.5331775e-16 -5.0441132)
(240.74899 1.4997555e-16 -4.4300089)
(240.27535 1.42639e-16 -4.8580642)
(239.81442 -2.6257956e-16 -4.7967234)
(239.32539 1.2070978e-16 -4.939385)
(238.82075 1.1097352e-17 -5.0053207)
(238.29663 1.1604134e-16 -5.094602)
(237.75365 -1.0334916e-16 -5.1749902)
(237.19142 0 -5.2548181)
(236.60985 0 -5.3313977)
(236.00887 5.7028608e-18 -5.4046131)
(235.38852 -1.7889663e-16 -5.4737622)
(234.74893 3.3922195e-16 -5.5382185)
(234.09034 -3.1697399e-16 -5.5973064)
(233.41311 1.4326942e-16 -5.6503366)
(232.71771 0 -5.6966061)
(232.00475 1.2494991e-16 -5.7354047)
(231.27498 -1.3398586e-16 -5.7660294)
(230.52927 0 -5.7877927)
(229.76867 3.5408062e-18 -5.800034)
(228.99436 -1.3429714e-17 -5.8021313)
(228.20765 0 -5.7935165)
(227.41 0 -5.773684)
(226.60303 -1.7135146e-16 -5.7422101)
(225.78844 3.4024458e-16 -5.6987616)
(224.96808 -1.633817e-16 -5.6431097)
(224.14387 -1.597605e-16 -5.5751424)
(223.31781 1.462241e-16 -5.4948708)
(222.49198 -1.1261725e-16 -5.4024387)
(221.66846 -2.8152941e-19 -5.298126)
(220.84937 -2.6318162e-19 -5.1823496)
(220.03679 2.3373571e-16 -5.0556625)
(219.23278 -1.1027839e-16 -4.9187484)
(218.43932 0 -4.7724134)
(217.6583 2.0317204e-16 -4.617577)
(216.8915 1.1975072e-17 -4.4552572)
(216.1406 -5.1461036e-18 -4.2865547)
(215.40709 -1.651733e-16 -4.1126347)
(214.69235 0 -3.9347066)
(213.99757 -1.4710142e-16 -3.7540032)
(213.32378 -8.8843807e-18 -3.5717603)
(212.67183 2.6106117e-16 -3.3891953)
(212.04239 -1.3055866e-16 -3.2074891)
(211.43596 0 -3.0277669)
(210.85286 -2.0453354e-17 -2.8510806)
(210.29324 -2.1191874e-16 -2.6783952)
(209.75712 3.6247231e-16 -2.5105759)
(209.24436 -2.1597697e-16 -2.3483785)
(208.75475 0 -2.1924442)
(208.28794 -1.7131411e-16 -2.0433059)
(207.84341 1.80019e-16 -1.9013524)
(207.42054 2.6761994e-17 -1.7668643)
(207.01839 0 -1.6399502)
(206.63553 -1.4225509e-16 -1.5205275)
(206.26985 7.3499235e-18 -1.4083295)
(205.91857 1.1197633e-16 -1.3029081)
(205.57832 -1.9780425e-17 -1.2036803)
(205.24557 9.3187851e-17 -1.109978)
(204.91711 -1.0533124e-16 -1.0211078)
(204.59051 5.5182613e-18 -0.93643543)
(204.26412 -5.2060072e-18 -0.85548105)
(203.93658 0 -0.77795884)
(203.6058 -4.6435555e-18 -0.70398493)
(203.26795 4.3914021e-18 -0.63437131)
(202.91845 8.3158697e-18 -0.56853203)
(202.55542 9.8518995e-19 -0.50348892)
(202.17184 0 -0.4472808)
(201.75017 3.0232915e-17 -0.3948218)
(201.31927 -5.7599156e-17 -0.26597132)
(200.88521 2.5857439e-17 -0.38943024)
(217.13528 0 -14.030914)
(254.59439 -1.2306193e-16 1.0790923)
(239.50992 2.5092279e-16 -13.456591)
(247.98143 -2.241115e-16 -0.55329419)
(242.68858 1.1068066e-16 -11.722867)
(245.25858 -3.2773363e-18 -2.7434026)
(243.13557 9.9754061e-17 -9.8485524)
(243.75676 -9.4478084e-17 -4.7727053)
(242.76981 -5.6085981e-18 -8.3956957)
(242.62769 -5.3253516e-18 -6.2179024)
(242.03946 -1.0116245e-17 -7.6093594)
(241.62926 1.395657e-16 -7.000758)
(241.12029 -1.4147158e-16 -7.3974116)
(240.62101 1.3884346e-16 -7.3430653)
(240.09308 -1.1927599e-16 -7.4642187)
(239.54791 -1.5632531e-17 -7.522014)
(238.98202 0 -7.5955727)
(238.39603 -1.2084411e-20 -7.6609956)
(237.78961 -2.2736396e-16 -7.7236292)
(237.16278 -3.6382844e-19 -7.7814548)
(236.5156 1.7426896e-16 -7.8340432)
(235.84822 1.7117664e-17 -7.8806064)
(235.16092 -2.165115e-17 -7.920397)
(234.45412 0 -7.9526342)
(233.72835 7.0074183e-21 -7.9765322)
(232.98428 -1.661968e-16 -7.9913027)
(232.22275 1.4847947e-16 -7.9961672)
(231.44475 8.2866228e-18 -7.9903647)
(230.6514 0 -7.9731714)
(229.84401 -7.4339284e-18 -7.9439067)
(229.02403 -1.5663255e-21 -7.9019541)
(228.19308 -2.0009975e-16 -7.8467734)
(227.35291 2.015282e-16 -7.7779157)
(226.50539 1.1941399e-17 -7.6950423)
(225.65254 -1.8076538e-16 -7.5979336)
(224.79646 1.4918832e-16 -7.4865058)
(223.9393 -1.817728e-16 -7.3608197)
(223.08331 1.5235929e-16 -7.2210891)
(222.23072 -1.4424999e-16 -7.0676834)
(221.38378 1.3595014e-16 -6.901132)
(220.54471 1.6073736e-17 -6.7221205)
(219.71565 0 -6.5314826)
(218.89866 2.0048794e-16 -6.3301928)
(218.09569 -2.4267139e-16 -6.1193519)
(217.30856 0 -5.9001703)
(216.53891 1.8008605e-16 -5.673951)
(215.78823 -1.5803134e-16 -5.4420649)
(215.05783 1.7049123e-16 -5.2059305)
(214.34883 -1.8033293e-16 -4.9669884)
(213.66218 0 -4.7266791)
(212.9986 1.777957e-16 -4.4864207)
(212.35868 -1.336185e-16 -4.2475856)
(211.74277 0 -4.0114825)
(211.15108 0 -3.7793375)
(210.58365 1.2516508e-16 -3.5522756)
(210.04034 -2.0902278e-16 -3.3313108)
(209.5209 1.2269386e-16 -3.1173347)
(209.02497 1.8462434e-16 -2.9111097)
(208.55209 1.8798693e-19 -2.7132655)
(208.10173 1.6624435e-19 -2.5243067)
(207.67319 -3.2488684e-16 -2.3445767)
(207.26568 8.9657341e-17 -2.1742941)
(206.87815 0 -2.013507)
(206.50908 1.424505e-16 -1.8620572)
(206.1563 -1.6339488e-16 -1.7196045)
(205.81702 1.116573e-16 -1.585635)
(205.48785 1.3167616e-17 -1.4595139)
(205.16519 -8.6143795e-17 -1.3405407)
(204.84577 1.1565653e-17 -1.2280126)
(204.52711 2.1747405e-17 -1.1213124)
(204.20771 -1.0224819e-16 -1.0199762)
(203.88666 9.6157631e-17 -0.92372829)
(203.56236 -7.242922e-17 -0.83282858)
(203.23106 1.3641922e-16 -0.74813247)
(202.88813 -5.6249215e-17 -0.66809091)
(202.53076 -6.0670422e-17 -0.5896792)
(202.14803 5.0125767e-17 -0.52382481)
(201.7242 0 -0.45364192)
(201.30988 3.206226e-18 -0.30231821)
(200.82629 -1.215221e-17 -0.46166041)
(218.15304 0 -16.982423)
(255.9276 0 -1.291753)
(240.27275 0 -16.590384)
(249.06322 1.0710389e-16 -2.9045044)
(243.50271 -1.2435946e-16 -14.778779)
(246.22762 -2.2149074e-16 -5.2004267)
(243.96286 2.1065629e-16 -12.749646)
(244.61247 -1.247715e-17 -7.3671549)
(243.56159 5.9410781e-18 -11.151052)
(243.39211 -1.7470933e-16 -8.9030226)
(242.76417 1.7104052e-16 -10.285109)
(242.31264 1.0164681e-17 -9.6961976)
(241.76357 -1.543521e-16 -10.053248)
(241.22071 1.3711672e-16 -10.007472)
(240.64883 -1.3526604e-20 -10.105786)
(240.05804 -8.2234351e-18 -10.153442)
(239.44543 0 -10.209652)
(238.81155 -7.4229696e-18 -10.257646)
(238.15625 -2.1129785e-16 -10.300429)
(237.47965 2.133557e-16 -10.336427)
(236.78193 1.2664066e-17 -10.36498)
(236.06342 -1.2006496e-17 -10.385212)
(235.32458 2.1635556e-16 -10.396273)
(234.566 -1.7234017e-16 -10.397291)
(233.78844 1.0219848e-17 -10.387392)
(232.99284 1.937805e-16 -10.365716)
(232.18028 -1.2818754e-16 -10.331423)
(231.35203 0 -10.283715)
(230.50954 1.4810875e-16 -10.221846)
(229.65444 -1.2432071e-16 -10.145146)
(228.78851 2.5053879e-16 -10.053032)
(227.9137 -1.339027e-17 -9.9450339)
(227.03208 -2.1044435e-16 -9.8208057)
(226.14587 1.7453454e-16 -9.680145)
(225.25738 -1.8802038e-16 -9.5230049)
(224.36897 -2.9772476e-20 -9.3495084)
(223.48306 2.1017036e-16 -9.1599547)
(222.6021 -3.1717673e-16 -8.9548235)
(221.72847 9.3351112e-17 -8.7347768)
(220.86453 3.5340073e-17 -8.5006529)
(220.01254 -4.9970569e-17 -8.2534615)
(219.17465 0 -7.9943666)
(218.35284 -8.890743e-17 -7.7246739)
(217.54894 1.3924692e-16 -7.4458073)
(216.76461 -2.102332e-16 -7.1592883)
(216.00126 1.9753463e-16 -6.8667117)
(215.26013 -2.0949759e-16 -6.569716)
(214.54223 3.9391333e-16 -6.269959)
(213.84838 -3.0868442e-16 -5.9690913)
(213.17916 3.0952477e-16 -5.6687308)
(212.53498 -1.4527632e-16 -5.3704398)
(211.91604 1.3673575e-16 -5.0757044)
(211.32237 -9.6122422e-17 -4.7859136)
(210.75385 3.0137905e-17 -4.5023453)
(210.21017 0 -4.2261488)
(209.69091 0 -3.9583385)
(209.19555 0 -3.6997856)
(208.72345 2.332207e-17 -3.4512153)
(208.27395 0 -3.2132051)
(207.8463 -1.6411101e-16 -2.9861949)
(207.43966 1.9210946e-16 -2.7704532)
(207.05307 -1.0811091e-16 -2.566109)
(206.68537 -1.0716842e-19 -2.373127)
(206.33497 2.5288674e-16 -2.1912573)
(205.9997 2.9687757e-17 -2.0200734)
(205.67676 -1.3867163e-16 -1.8589862)
(205.36276 5.1989897e-17 -1.7073018)
(205.0541 -1.4605584e-16 -1.5642788)
(204.74741 -4.5630046e-17 -1.4291962)
(204.44014 -6.4133064e-17 -1.3014303)
(204.13085 -6.0126801e-17 -1.1804848)
(203.81901 5.6346302e-17 -1.0660686)
(203.50344 0 -0.95861438)
(203.18062 0 -0.85892219)
(202.84621 -1.5521861e-17 -0.76449247)
(202.49609 0 -0.67334084)
(202.11497 6.854526e-18 -0.59835021)
(201.69471 5.1599886e-17 -0.50739006)
(201.29087 -7.2903055e-17 -0.34055649)
(200.76846 -2.7166905e-21 -0.53184698)
(218.99642 0 -20.131315)
(257.09058 -8.854918e-18 -3.7402413)
(240.90066 2.6778877e-16 -19.859362)
(249.92495 -2.5015156e-16 -5.379884)
(244.08477 2.5524702e-16 -17.948394)
(246.99682 -2.3353782e-16 -7.8095188)
(244.59329 -2.2261594e-16 -15.755513)
(245.2599 2.1073849e-16 -10.11891)
(244.1481 0 -14.00867)
(243.94041 0 -11.737386)
(243.27055 1.8060265e-16 -13.074372)
(242.77094 -1.7109838e-16 -12.523772)
(242.17701 -1.0164208e-17 -12.831469)
(241.58536 2.8910408e-17 -12.793566)
(240.96456 -9.1488767e-18 -12.86705)
(240.32328 3.469938e-17 -12.900857)
(239.65916 0 -12.936809)
(238.97273 0 -12.963643)
(238.26395 -2.3696475e-16 -12.982754)
(237.53307 2.1015704e-16 -12.992791)
(236.78044 0 -12.992909)
(236.00657 0 -12.982129)
(235.21215 -1.9120309e-16 -12.959475)
(234.39802 3.618464e-16 -12.923972)
(233.56525 -1.7114076e-16 -12.874647)
(232.71506 -2.0274409e-17 -12.810563)
(231.84891 -3.8398689e-17 -12.730828)
(230.96843 -1.4549341e-16 -12.634619)
(230.07545 1.2012856e-16 -12.521201)
(229.172 0 -12.38995)
(228.26025 -3.0764764e-17 -12.24037)
(227.34255 0 -12.07212)
(226.42136 0 -11.885023)
(225.49923 2.0766695e-16 -11.679093)
(224.57879 -2.2011178e-16 -11.454536)
(223.66269 2.3089001e-17 -11.211764)
(222.75358 -2.178515e-17 -10.951399)
(221.85405 -4.1183236e-17 -10.67427)
(220.9666 -8.4537849e-20 -10.381409)
(220.09362 8.027986e-20 -10.074031)
(219.23734 -7.5743386e-20 -9.7535323)
(218.39979 0 -9.4214535)
(217.58281 -1.2223207e-16 -9.0794672)
(216.78799 1.1478166e-16 -8.7293429)
(216.0167 0 -8.3729196)
(215.27005 -5.0867926e-17 -8.012079)
(214.54891 1.9117819e-16 -7.648708)
(213.85392 -2.2411377e-16 -7.2846754)
(213.18546 -2.1082954e-16 -6.9218015)
(212.54373 1.5806593e-16 -6.5618348)
(211.92872 1.1146902e-16 -6.2064287)
(211.34024 -1.3913949e-16 -5.8571243)
(210.77792 -3.2618827e-17 -5.5153312)
(210.24127 -2.1426752e-16 -5.182318)
(209.72965 1.1459518e-16 -4.8591984)
(209.24235 -1.0746556e-16 -4.5469296)
(208.77853 1.0051524e-16 -4.2463091)
(208.33733 2.3547891e-16 -3.9579744)
(207.91785 -1.7611223e-16 -3.6824063)
(207.51918 0 -3.4199397)
(207.1403 -3.8531177e-17 -3.170738)
(206.78013 -7.2113055e-17 -2.934813)
(206.43742 1.3474536e-16 -2.7120211)
(206.11051 1.2604427e-16 -2.5020043)
(205.79723 -2.3552755e-16 -2.3042338)
(205.49482 8.248339e-17 -2.1180328)
(205.19996 5.1408235e-17 -1.9426363)
(204.90904 9.6096471e-17 -1.7772555)
(204.61866 1.3469772e-16 -1.6211478)
(204.32616 1.9680214e-20 -1.4736718)
(204.03016 0 -1.334275)
(203.73036 0 -1.2026581)
(203.42594 -3.4260557e-17 -1.0794111)
(203.11378 9.6105206e-17 -0.96505478)
(202.78999 -8.987992e-17 -0.85629388)
(202.44843 -8.4115872e-17 -0.75325326)
(202.0707 5.2487757e-17 -0.66887906)
(201.65864 0 -0.55529793)
(201.26264 4.6098207e-17 -0.37982323)
(200.71031 3.4812626e-21 -0.60158913)
(219.6455 0 -23.452246)
(258.05806 1.8874064e-20 -6.2648693)
(241.33767 9.1127805e-18 -23.224063)
(250.62177 2.8973322e-16 -7.9943227)
(244.51135 3.3138187e-19 -21.222295)
(247.53796 -5.081927e-16 -10.569763)
(244.9827 -3.2146596e-19 -18.856765)
(245.66973 4.583469e-16 -13.033162)
(244.49938 -2.1088407e-16 -16.966937)
(244.24539 -1.2509023e-17 -14.720933)
(243.532 1.1880477e-17 -15.976549)
(242.97909 -1.8039784e-16 -15.477236)
(242.33648 1.9219446e-16 -15.727645)
(241.69174 -1.8261217e-16 -15.693588)
(241.01761 3.0761466e-16 -15.739958)
(240.32125 -3.0992969e-16 -15.755384)
(239.60087 1.3813266e-16 -15.767603)
(238.85697 0 -15.769187)
(238.08973 0 -15.760406)
(237.29957 1.4713329e-17 -15.739921)
(236.48709 -2.7897663e-17 -15.706678)
(235.6531 0 -15.659541)
(234.7986 2.0032435e-16 -15.597384)
(233.92481 4.6828494e-19 -15.519111)
(233.03318 -3.5850852e-16 -15.423656)
(232.12537 1.6939626e-16 -15.31002)
(231.20328 2.0042276e-17 -15.177295)
(230.26901 0 -15.024677)
(229.32487 -1.7952924e-16 -14.851502)
(228.37336 1.353772e-16 -14.657265)
(227.41712 -2.2447824e-16 -14.441641)
(226.45893 2.1129363e-16 -14.204511)
(225.50166 -2.2866106e-16 -13.945969)
(224.54822 2.1523586e-16 -13.666345)
(223.60154 7.6295334e-17 -13.366205)
(222.66451 0 -13.046355)
(221.73994 0 -12.707839)
(220.8305 4.2519937e-17 -12.351927)
(219.93871 4.0046894e-17 -11.980097)
(219.06687 -3.7702039e-17 -11.594013)
(218.21705 3.5479534e-17 -11.195504)
(217.39105 6.6932343e-17 -10.786523)
(216.59041 -6.2863609e-17 -10.369126)
(215.81637 3.5442037e-16 -9.9454271)
(215.06988 -2.7723288e-16 -9.5175687)
(214.35163 5.2032243e-17 -9.0876861)
(213.662 -4.8955311e-17 -8.6578726)
(213.00115 0 -8.2301531)
(212.36901 2.1515184e-16 -7.8064556)
(211.76527 -1.6114934e-16 -7.3885909)
(211.18947 0 -6.9782315)
(210.64099 0 -6.5769003)
(210.11906 1.3257075e-16 -6.1859554)
(209.6228 -6.1962924e-17 -5.8065854)
(209.15125 0 -5.4398037)
(208.70338 -1.6277402e-16 -5.0864485)
(208.2781 1.0132021e-16 -4.7471879)
(207.87432 1.4219584e-16 -4.4225222)
(207.49096 -1.7687613e-16 -4.1127921)
(207.12692 1.6530293e-16 -3.8181914)
(206.78108 -1.5418736e-16 -3.5387469)
(206.45224 6.5460792e-20 -3.2743334)
(206.13908 0 -3.0246773)
(205.83993 6.2646301e-17 -2.7893005)
(205.55263 -2.9206791e-16 -2.5675625)
(205.27448 1.6333129e-16 -2.3586895)
(205.00227 0 -2.1618376)
(204.73246 -1.419672e-16 -1.9761642)
(204.4616 8.818336e-17 -1.8009026)
(204.18699 1.2333805e-16 -1.6353868)
(203.90723 2.5554168e-20 -1.4790143)
(203.62219 -7.1370122e-17 -1.3315241)
(203.33127 9.9787491e-17 -1.1935976)
(203.03197 -1.5499719e-16 -1.0651932)
(202.72069 8.6686858e-17 -0.9425346)
(202.38867 2.6930458e-17 -0.82855433)
(202.01625 5.0249631e-17 -0.73399844)
(201.61619 0 -0.59679573)
(201.2266 -4.3765114e-17 -0.4186855)
(200.65023 2.0370269e-17 -0.66893804)
(220.08266 0 -26.941154)
(258.82091 9.8536095e-18 -8.8955905)
(241.57674 -3.0723364e-16 -26.713491)
(251.1349 2.5088581e-16 -10.750259)
(244.74379 2.5768737e-16 -24.595249)
(247.83887 -5.026129e-16 -13.484705)
(245.1688 2.3118463e-16 -22.040613)
(245.82316 2.3405661e-16 -16.109916)
(244.60905 -2.2181888e-16 -20.011438)
(244.29461 3.9483187e-17 -17.841748)
(243.53686 0 -18.980586)
(242.92526 0 -18.541678)
(242.2291 -2.2455445e-17 -18.731008)
(241.52555 -1.7048229e-16 -18.696374)
(240.7919 1.4108912e-16 -18.714786)
(240.03397 1.9138757e-17 -18.708162)
(239.2506 -3.6278928e-17 -18.693548)
(238.44243 3.0952365e-16 -18.665895)
(237.60994 -2.2746027e-16 -18.624679)
(236.7539 2.4687342e-16 -18.568451)
(235.87527 -2.0401042e-16 -18.495952)
(234.97528 2.7658998e-17 -18.40589)
(234.05538 1.5713556e-16 -18.297011)
(233.11727 -1.9763949e-16 -18.168129)
(232.16293 0 -18.018132)
(231.19457 0 -17.846023)
(230.21464 0 -17.650946)
(229.22582 -1.9792329e-16 -17.432212)
(228.23097 1.8644683e-16 -17.189326)
(227.23311 -3.532593e-17 -16.922012)
(226.23541 0 -16.630241)
(225.2411 -2.831704e-16 -16.314239)
(224.25345 2.3667428e-16 -15.974506)
(223.27568 -5.5974982e-17 -15.611816)
(222.31098 1.5829272e-16 -15.227226)
(221.36237 -4.919514e-17 -14.82205)
(220.43271 -1.8657846e-16 -14.397863)
(219.52463 2.2008746e-16 -13.956463)
(218.6405 -1.6522941e-16 -13.499845)
(217.78238 7.7931674e-17 -13.030174)
(216.95202 -7.312581e-17 -12.549742)
(216.15083 1.3745597e-16 -12.060922)
(215.37988 -6.4408318e-17 -11.566141)
(214.63991 -2.4239308e-16 -11.067828)
(213.93132 5.1110779e-16 -10.568376)
(213.25422 -2.1286428e-16 -10.070114)
(212.60846 -1.4998972e-16 -9.5752678)
(211.9936 9.3258079e-17 -9.0859353)
(211.40904 8.7713195e-17 -8.6040661)
(210.85395 -1.6408045e-16 -8.1314432)
(210.32739 1.5330186e-16 -7.6696706)
(209.82828 0 -7.2201664)
(209.35546 1.3416109e-16 -6.7841563)
(208.9077 -1.8790994e-16 -6.3626743)
(208.48371 5.8553278e-17 -5.9565643)
(208.08219 5.4567058e-17 -5.5664858)
(207.70184 0 -5.1929232)
(207.34138 0 -4.8361942)
(206.99956 0 -4.4964605)
(206.67518 0 -4.1737449)
(206.367 0 -3.8679107)
(206.07379 -7.1654329e-17 -3.5786806)
(205.79417 0 -3.3056371)
(205.52648 -5.3224615e-20 -3.0481742)
(205.26861 2.3129457e-16 -2.8055353)
(205.01797 -2.1514323e-16 -2.5768446)
(204.77147 -1.00129e-16 -2.3611737)
(204.52568 -1.8615527e-16 -2.1576229)
(204.27718 2.5947875e-16 -1.9653973)
(204.02323 4.7585839e-20 -1.7838049)
(203.76243 7.4715453e-17 -1.6122306)
(203.49464 0 -1.450518)
(203.21953 0 -1.2993193)
(202.93529 0 -1.1577789)
(202.63834 -1.1144312e-16 -1.0221093)
(202.31678 0 -0.89822738)
(201.95202 -9.6248169e-17 -0.79230411)
(201.5675 1.3419197e-16 -0.63136375)
(201.18292 8.3192477e-17 -0.455841)
(200.58734 -1.9258377e-17 -0.73281373)
(220.3098 0 -30.606523)
(259.38414 0 -11.634164)
(241.62284 3.2324701e-16 -30.333782)
(251.46719 1.9390055e-17 -13.66338)
(244.79288 -2.7050893e-16 -28.076568)
(247.95412 0 -16.57673)
(245.16062 1.6207935e-17 -25.303677)
(245.84991 -3.0723747e-17 -19.341521)
(244.47653 0 -23.121655)
(244.08988 1.9366432e-16 -21.082559)
(243.28113 -4.1928156e-16 -22.081741)
(242.60066 1.9853716e-16 -21.710735)
(241.84147 2.3564121e-17 -21.840911)
(241.0695 0 -21.801033)
(240.26666 2.1144014e-17 -21.790592)
(239.43765 -3.410587e-16 -21.757542)
(238.58198 7.5196003e-17 -21.711559)
(237.70056 2.5134542e-16 -21.648998)
(236.79429 2.3868809e-16 -21.568834)
(235.86437 -2.5746095e-16 -21.4695)
(234.91228 0 -21.34957)
(233.93977 -2.8886506e-16 -21.207643)
(232.94889 2.4526692e-16 -21.04239)
(231.94197 -2.0671879e-16 -20.852599)
(230.92162 1.948385e-16 -20.6372)
(229.89073 -1.8463702e-16 -20.395288)
(228.8524 3.4830738e-16 -20.126182)
(227.80997 -1.6436284e-16 -19.829426)
(226.76691 1.5543948e-16 -19.504842)
(225.72684 -2.9304661e-16 -19.152538)
(224.69341 1.3792537e-16 -18.772933)
(223.67028 1.3025328e-16 -18.366768)
(222.66106 -2.4574407e-16 -17.935102)
(221.6692 5.7062637e-17 -17.479308)
(220.69798 -5.6752924e-19 -17.001067)
(219.75043 2.5565315e-16 -16.502323)
(218.82928 0 -15.985274)
(217.93691 1.9110649e-19 -15.452322)
(217.07534 0 -14.906026)
(216.24618 -7.9789543e-17 -14.349067)
(215.45067 -1.4994274e-16 -13.784192)
(214.68961 7.0396828e-17 -13.214165)
(213.96344 0 -12.641727)
(213.27221 -6.2026691e-17 -12.069544)
(212.61568 2.903092e-16 -11.500176)
(211.99326 -3.2591852e-16 -10.936042)
(211.40415 -3.0536027e-16 -10.379392)
(210.8473 2.8510927e-16 -9.8322878)
(210.32152 -1.7791388e-16 -9.2965891)
(209.82546 0 -8.773945)
(209.35771 0 -8.2657903)
(208.91675 7.2599076e-17 -7.7733452)
(208.50106 6.7748099e-17 -7.2976199)
(208.1091 1.262537e-16 -6.8394199)
(207.73932 -5.8870755e-17 -6.3993553)
(207.39021 -1.0965519e-16 -5.9778518)
(207.06028 -2.0446102e-16 -5.5751648)
(206.74813 -9.5369323e-17 -5.1913913)
(206.4524 1.770707e-16 -4.8264851)
(206.17183 0 -4.4802755)
(205.90513 -7.6679179e-17 -4.1524461)
(205.65105 -1.4251477e-16 -3.8425565)
(205.40821 1.3240789e-16 -3.5500413)
(205.17498 6.1414012e-17 -3.2741647)
(204.94935 5.7108415e-17 -3.0140551)
(204.72885 0 -2.7687359)
(204.51055 1.968227e-16 -2.537195)
(204.29117 1.8261278e-16 -2.3184761)
(204.0674 -2.5407199e-16 -2.1117516)
(203.83648 7.8575759e-17 -1.9163072)
(203.59696 -7.2810685e-17 -1.7315721)
(203.34865 -2.960038e-20 -1.5575466)
(203.09141 2.5020119e-16 -1.3946844)
(202.82429 -2.3184959e-16 -1.2411911)
(202.54322 5.368296e-17 -1.0938511)
(202.23321 1.4927492e-16 -0.96112816)
(201.87884 -4.6105009e-17 -0.84250763)
(201.51256 -4.2701937e-17 -0.6589822)
(201.13148 0 -0.48961583)
(200.52238 3.6528996e-17 -0.79213115)
(220.3373 3.930786e-16 -34.458426)
(259.75345 5.3903625e-19 -14.487949)
(241.45564 -3.6030489e-16 -34.101618)
(251.61292 0 -16.74021)
(244.58347 0 -31.634812)
(247.74044 -2.6882981e-16 -19.842328)
(244.84746 2.7195529e-16 -28.62179)
(245.37144 6.4500278e-17 -22.733355)
(244.07127 -2.4481141e-16 -26.329956)
(243.6084 2.315621e-16 -24.467284)
(242.73833 -2.4747971e-16 -25.305767)
(241.97632 2.0801092e-16 -24.998433)
(241.14212 -4.9346247e-17 -25.069241)
(240.29012 -4.6792993e-17 -25.014681)
(239.40665 -1.7731491e-16 -24.970521)
(238.49555 1.6747979e-16 -24.90342)
(237.55703 -3.5764652e-16 -24.818212)
(236.59239 6.0117903e-16 -24.711945)
(235.60309 -2.8404879e-16 -24.583206)
(234.59093 -2.695029e-16 -24.430293)
(233.55802 2.5414751e-16 -24.25165)
(232.50684 -3.0262096e-17 -24.045811)
(231.44016 -2.2780897e-16 -23.811447)
(230.3611 2.1460053e-16 -23.547425)
(229.27307 2.542027e-16 -23.252828)
(228.17971 -1.4334194e-16 -22.926997)
(227.08491 0 -22.569577)
(225.9927 2.56324e-16 -22.180534)
(224.90722 -3.219468e-16 -21.760195)
(223.83262 1.1328403e-16 -21.30925)
(222.77302 -2.8638167e-16 -20.828768)
(221.73239 2.0176951e-16 -20.32019)
(220.71451 -6.357126e-17 -19.785314)
(219.7229 2.3889637e-16 -19.226267)
(218.76073 -2.2409061e-16 -18.645481)
(217.83078 -2.1118686e-16 -18.045634)
(216.93539 1.9794067e-16 -17.429612)
(216.07644 -4.6424545e-17 -16.800452)
(215.25535 0 -16.16128)
(214.47303 8.2140785e-17 -15.515257)
(213.72993 -7.6668905e-17 -14.865522)
(213.02609 0 -14.21514)
(212.3611 1.3498559e-16 -13.567053)
(211.73424 -6.31429e-17 -12.924044)
(211.14444 -1.7704252e-16 -12.2887)
(210.59039 5.5221241e-16 -11.663391)
(210.07059 -2.0674198e-16 -11.050251)
(209.58336 9.6422636e-17 -10.451173)
(209.12695 -2.7035325e-16 -9.8677991)
(208.69951 -1.7850383e-19 -9.3015295)
(208.29918 1.5674135e-16 -8.7535259)
(207.92412 -1.4621065e-16 -8.2247209)
(207.57249 -6.8040759e-17 -7.7158309)
(207.24251 -6.3375121e-17 -7.2273683)
(206.93244 -1.1831739e-16 -6.759656)
(206.64062 2.1972759e-16 -6.3128438)
(206.36549 0 -5.8869246)
(206.10555 9.4939161e-17 -5.4817504)
(205.85942 -3.53228e-16 -5.0970497)
(205.6258 2.4583155e-16 -4.7324469)
(205.40345 7.6070305e-17 -4.3874398)
(205.1911 1.4129827e-16 -4.0614236)
(204.98744 1.3126014e-16 -3.7536881)
(204.7909 -1.2146762e-16 -3.4633723)
(204.59959 -1.1254868e-16 -3.1894969)
(204.41118 -3.1301249e-16 -2.9309921)
(204.22296 -3.2805959e-20 -2.6867709)
(204.03183 -8.9435104e-17 -2.4558256)
(203.83462 0 -2.2372929)
(203.62864 -2.2984645e-16 -2.0304474)
(203.41235 7.0874152e-17 -1.8348212)
(203.18533 0 -1.6505746)
(202.94774 1.2120835e-16 -1.4777685)
(202.69944 0 -1.3137388)
(202.43552 1.0351461e-16 -1.156448)
(202.13834 -1.4344622e-16 -1.0159271)
(201.79728 1.3254026e-16 -0.8835593)
(201.45053 -8.1608938e-17 -0.68010082)
(201.07187 7.5382866e-17 -0.51585157)
(200.45934 0 -0.84563641)
(220.15504 -4.1295192e-16 -38.503699)
(259.91786 3.649088e-16 -17.475251)
(241.03995 -3.3426338e-16 -38.04895)
(251.51201 3.3242123e-16 -19.99622)
(244.09241 3.1830887e-16 -35.254643)
(247.29638 -1.8100088e-17 -23.291913)
(244.29069 -2.8501534e-16 -32.018398)
(244.76165 -2.7055764e-16 -26.314943)
(243.37751 2.8797429e-16 -29.656353)
(242.80683 0 -27.998048)
(241.86484 2.8734e-17 -28.660734)
(241.00858 0 -28.405018)
(240.0866 -1.2923153e-16 -28.416161)
(239.14225 2.4401053e-16 -28.335344)
(238.16595 0 -28.249715)
(237.16109 0 -28.138311)
(236.12868 0 -28.002943)
(235.07064 3.929394e-17 -27.84094)
(233.98916 0 -27.650605)
(232.88685 -2.4575297e-16 -27.430146)
(231.76669 3.3111247e-16 -27.177948)
(230.63204 1.2528373e-16 -26.892594)
(229.48663 1.7764201e-16 -26.572885)
(228.33453 -2.7902529e-16 -26.217922)
(227.18005 -5.2581033e-17 -25.827132)
(226.02776 -2.4882232e-16 -25.400315)
(224.88234 1.8727106e-16 -24.937675)
(223.74854 -2.2117577e-16 -24.439851)
(222.6311 8.275731e-17 -23.907915)
(221.53462 7.8236722e-17 -23.343387)
(220.4635 0 -22.748214)
(219.42183 2.782995e-16 -22.124739)
(218.41333 -2.6137739e-16 -21.475673)
(217.44125 0 -20.804036)
(216.50836 -2.3105401e-16 -20.113106)
(215.61684 2.1641736e-16 -19.406348)
(214.76833 -1.0197923e-16 -18.687346)
(213.96389 1.9092685e-16 -17.959737)
(213.20399 -2.6826354e-16 -17.227137)
(212.48859 1.258314e-19 -16.493079)
(211.81716 -1.5673213e-16 -15.760957)
(211.18872 -7.3347242e-17 -15.033972)
(210.60195 -1.3765032e-16 -14.315098)
(210.05519 2.5661152e-16 -13.607053)
(209.54655 -1.1974597e-16 -12.912272)
(209.07396 0 -12.232907)
(208.63524 -3.7574569e-19 -11.570814)
(208.22814 9.7402024e-17 -10.927571)
(207.8504 0 -10.304475)
(207.49977 8.4709239e-17 -9.7025651)
(207.17406 7.9194377e-17 -9.1226362)
(206.87115 -7.3534237e-17 -8.5652569)
(206.58901 2.7375103e-16 -8.0307878)
(206.3257 -2.5447723e-16 -7.5194007)
(206.0794 -1.1834329e-16 -7.031096)
(205.84839 -1.0993246e-16 -6.5657223)
(205.63109 1.0206909e-16 -6.1229942)
(205.426 1.89322e-16 -5.7025099)
(205.23178 -3.5116246e-16 -5.3037693)
(205.04716 4.0693916e-16 -4.9261939)
(204.87096 -1.5077258e-16 -4.5691)
(204.70199 1.3974247e-16 -4.2317268)
(204.53901 -1.2934396e-16 -3.9132302)
(204.38055 2.3951622e-16 -3.6126347)
(204.22485 -3.3245866e-16 -3.3288661)
(204.06979 2.0493071e-16 -3.0607757)
(203.91285 -7.7732844e-20 -2.8072176)
(203.75117 8.7570302e-17 -2.5671425)
(203.58181 0 -2.3396512)
(203.40218 0 -2.1240243)
(203.21057 0 -1.9199413)
(203.00631 -1.2718973e-16 -1.7276569)
(202.78977 2.0546645e-20 -1.5466636)
(202.56154 0 -1.3737164)
(202.31558 0 -1.2084833)
(202.03262 9.1937325e-17 -1.0612188)
(201.70785 -1.6941659e-16 -0.91457687)
(201.38181 0 -0.69453344)
(201.00537 0 -0.54093848)
(200.3963 -1.318664e-16 -0.89145459)
(219.73091 2.7865855e-17 -42.751848)
(259.84217 -7.9007053e-16 -20.619357)
(240.34901 3.4971602e-16 -42.137829)
(250.90098 -2.1849465e-17 -23.431835)
(243.28948 3.7517872e-16 -38.991759)
(246.52406 -3.5382391e-16 -26.964375)
(243.43185 0 -35.53308)
(243.77054 -3.1870067e-16 -30.089486)
(242.33476 2.34291e-16 -33.098997)
(241.64032 2.2252305e-16 -31.66879)
(240.61282 -2.4019885e-16 -32.150397)
(239.64822 0 -31.927141)
(238.62405 1.8830959e-19 -31.876389)
(237.57381 0 -31.755335)
(236.49154 3.8687176e-16 -31.616741)
(235.38065 -7.3083271e-16 -31.447292)
(234.24309 3.4502908e-16 -31.246981)
(233.08169 -4.075725e-17 -31.013243)
(231.89963 -3.8725088e-17 -30.744209)
(230.70059 3.6801591e-17 -30.438086)
(229.48866 -6.8732582e-17 -30.093355)
(228.26838 -3.2557943e-16 -29.708806)
(227.04461 3.0642866e-16 -29.283601)
(225.82252 5.7765278e-17 -28.817333)
(224.60748 -2.7372842e-16 -28.310055)
(223.40497 -6.9169051e-19 -27.762335)
(222.22046 2.9072223e-16 -27.175258)
(221.05933 -1.8246472e-16 -26.550436)
(219.92672 -6.0639179e-19 -25.889997)
(218.82745 0 -25.196554)
(217.7659 0 -24.473162)
(216.74592 -7.1785524e-17 -23.723261)
(215.77076 1.3439466e-16 -22.95061)
(214.843 0 -22.159202)
(213.96454 -1.1877295e-16 -21.353184)
(213.13657 2.2224108e-16 -20.536773)
(212.35961 -1.0411596e-16 -19.714161)
(211.63352 -1.9510917e-16 -18.889448)
(210.95757 9.067755e-17 -18.066562)