/*--------------------------------*- C++ -*----------------------------------*\
  =========                 |
  \\      /  F ield         | OpenFOAM: The Open Source CFD Toolbox
   \\    /   O peration     | Website:  https://openfoam.org
    \\  /    A nd           | Version:  12
     \\/     M anipulation  |
\*---------------------------------------------------------------------------*/
FoamFile
{
    format      ascii;
    class       volScalarField;
    location    "0.147";
    object      k;
}
// * * * * * * * * * * * * * * * * * * * * * * * * * * * * * * * * * * * * * //

dimensions      [0 2 -2 0 0 0 0];

internalField   nonuniform List<scalar> 
16000
(
0.048469304
0.021653763
0.02246762
0.016513569
0.014016582
0.012692669
0.011904629
0.011434118
0.011114735
0.010899894
0.010741447
0.010623488
0.010531447
0.01045859
0.010399985
0.010352556
0.010313798
0.010282065
0.010256231
0.010234871
0.010217405
0.010203191
0.010191774
0.010182609
0.0101755
0.010170051
0.010166096
0.010163463
0.010162012
0.010161611
0.010162139
0.010163494
0.010165593
0.010168369
0.010171764
0.01017572
0.01018018
0.010185086
0.010190381
0.010196003
0.010201887
0.010207957
0.010214145
0.01022038
0.010226585
0.010232689
0.010238631
0.01024436
0.010249829
0.010254991
0.010259801
0.010264218
0.010268199
0.01027171
0.010274719
0.010277196
0.0102791
0.010280381
0.010280968
0.010280777
0.010279699
0.010277615
0.010274414
0.01026997
0.010264136
0.010256765
0.010247744
0.010237014
0.010224548
0.010210275
0.010193875
0.010174453
0.010151511
0.010129605
0.010112341
0.010097748
0.010083821
0.010084436
0.010068816
0.010090813
0.045741753
0.020486238
0.021022606
0.015969725
0.013671503
0.012488048
0.011741773
0.011316615
0.011013679
0.010816074
0.010667928
0.010558734
0.010473112
0.010405738
0.010351614
0.010308053
0.010272642
0.010243768
0.010220545
0.010201509
0.010186139
0.010173822
0.010164192
0.010156655
0.010151091
0.010147089
0.010144487
0.010143124
0.010142863
0.010143584
0.010145166
0.010147507
0.010150524
0.010154148
0.01015832
0.010162983
0.010168082
0.010173559
0.010179356
0.010185416
0.010191676
0.010198064
0.010204511
0.010210949
0.010217308
0.010223515
0.010229508
0.01023524
0.010240666
0.010245745
0.01025044
0.010254713
0.010258529
0.010261856
0.010264667
0.010266936
0.010268628
0.010269697
0.010270075
0.010269681
0.010268415
0.010266162
0.010262814
0.010258252
0.010252332
0.010244906
0.010235861
0.010225139
0.010212709
0.010198492
0.010182223
0.010163123
0.010140667
0.010119754
0.010103344
0.010089102
0.010077072
0.010072752
0.010066136
0.01008864
0.042054942
0.019658411
0.019693286
0.015407788
0.013319054
0.012261515
0.011573283
0.011190139
0.01091044
0.010731033
0.010594053
0.010494066
0.010415342
0.010353744
0.010304404
0.010264936
0.010233103
0.010207282
0.010186835
0.010170274
0.010157145
0.010146842
0.010139113
0.010133302
0.010129366
0.010126889
0.010125715
0.010125688
0.010126678
0.010128569
0.010131248
0.010134612
0.010138576
0.01014307
0.010148033
0.010153409
0.010159142
0.010165176
0.010171452
0.010177915
0.010184504
0.010191151
0.010197789
0.010204352
0.010210775
0.010216988
0.01022293
0.010228555
0.010233826
0.010238706
0.010243163
0.010247169
0.010250694
0.010253711
0.010256197
0.01025813
0.01025948
0.010260203
0.010260238
0.010259503
0.010257906
0.010255341
0.010251709
0.010246897
0.010240767
0.01023317
0.010223988
0.010213166
0.010200673
0.010186405
0.010170117
0.01015117
0.010129094
0.010109373
0.01009389
0.010080538
0.010069329
0.010063063
0.010060965
0.0100812
0.038195435
0.019095805
0.018542451
0.014904272
0.012999936
0.012056314
0.011419011
0.01107454
0.010815675
0.010652768
0.010526461
0.010434985
0.010362845
0.010306711
0.010261946
0.010226387
0.010198009
0.010175129
0.010157373
0.01014322
0.010132284
0.010123944
0.01011808
0.010113967
0.010111624
0.010110646
0.010110873
0.010112156
0.010114369
0.0101174
0.010121139
0.010125484
0.010130348
0.010135659
0.010141353
0.010147374
0.010153665
0.010160171
0.010166834
0.0101736
0.010180412
0.010187206
0.010193916
0.010200482
0.010206844
0.010212934
0.010218698
0.01022409
0.010229078
0.010233634
0.010237732
0.010241351
0.010244467
0.010247061
0.010249112
0.0102506
0.010251501
0.010251773
0.010251359
0.010250184
0.01024816
0.010245193
0.010241191
0.010236051
0.010229641
0.010221809
0.010212428
0.010201439
0.01018881
0.010174416
0.010158014
0.010139146
0.010117335
0.010098836
0.010084344
0.010071956
0.010061169
0.010054105
0.010055252
0.010069957
0.035787166
0.01878066
0.017551752
0.014437606
0.012702865
0.011862375
0.011274356
0.010965592
0.010727219
0.010579771
0.010463928
0.010380574
0.010314876
0.010264053
0.010223773
0.010192035
0.010167067
0.010147088
0.010131993
0.010120231
0.010111487
0.010105106
0.010101102
0.010098702
0.010097941
0.010098461
0.010100087
0.010102675
0.0101061
0.010110254
0.010115028
0.010120321
0.010126043
0.010132119
0.010138483
0.010145077
0.010151844
0.01015873
0.01016568
0.010172639
0.010179555
0.010186369
0.010193021
0.010199455
0.010205615
0.010211444
0.010216889
0.01022191
0.010226479
0.010230577
0.010234184
0.010237288
0.010239872
0.010241921
0.01024342
0.010244349
0.010244686
0.010244397
0.010243426
0.010241706
0.010239155
0.01023569
0.010231229
0.010225677
0.010218908
0.010210768
0.010201118
0.010189883
0.010177035
0.010162436
0.010145814
0.010126942
0.010105533
0.010088288
0.010074838
0.0100634
0.010052986
0.01004582
0.010048806
0.010058373
0.033655957
0.018710406
0.01681619
0.014009888
0.0124295
0.011681981
0.011140666
0.010864643
0.010645981
0.010512778
0.010407079
0.010331387
0.010271921
0.010226213
0.010190291
0.010162261
0.010140638
0.010123509
0.010111037
0.010101643
0.010095083
0.010090682
0.010088506
0.010087879
0.010088651
0.010090662
0.010093678
0.010097557
0.010102172
0.010107415
0.010113181
0.010119366
0.01012588
0.010132642
0.010139585
0.01014665
0.010153781
0.010160923
0.010168026
0.010175037
0.01018191
0.010188591
0.010195029
0.010201171
0.010206973
0.010212383
0.010217355
0.010221855
0.010225862
0.010229362
0.010232346
0.010234807
0.010236736
0.010238124
0.010238957
0.010239218
0.010238889
0.010237936
0.010236312
0.010233953
0.010230789
0.010226744
0.010221747
0.01021571
0.010208512
0.010199999
0.010190017
0.010178469
0.010165322
0.010150445
0.010133517
0.010114531
0.010093767
0.010077805
0.010065435
0.010054927
0.010044971
0.010037968
0.010041902
0.010047823
0.030761426
0.018808183
0.016294491
0.013617757
0.012177616
0.011514457
0.011017704
0.010771545
0.010571861
0.010451719
0.010355823
0.010287394
0.010233966
0.010193221
0.010161568
0.010137172
0.010118862
0.01010457
0.010094702
0.010087687
0.01008331
0.010081026
0.010080578
0.010081959
0.01008407
0.010087567
0.010091962
0.010097109
0.010102879
0.010109164
0.010115858
0.010122858
0.010130069
0.01013741
0.010144813
0.010152215
0.010159564
0.010166808
0.0101739
0.010180794
0.010187448
0.010193819
0.010199864
0.010205538
0.010210806
0.010215627
0.010219964
0.010223787
0.010227083
0.010229846
0.010232073
0.010233765
0.010234921
0.010235535
0.010235596
0.010235089
0.010233995
0.010232287
0.010229922
0.010226845
0.01022299
0.010218293
0.01021269
0.0102061
0.010198409
0.010189461
0.010179088
0.010167165
0.010153644
0.01013842
0.010121131
0.010101884
0.010082188
0.010067522
0.010056244
0.010046665
0.010037317
0.01003066
0.010034292
0.010038393
0.028509104
0.018995779
0.015871579
0.013258765
0.011945748
0.011359558
0.010904899
0.010686144
0.010504512
0.010396473
0.010310079
0.010248624
0.010201098
0.010165227
0.010137803
0.010117011
0.010102005
0.010090585
0.010083279
0.010078679
0.010076449
0.010076791
0.010077672
0.010080497
0.010084575
0.010089538
0.010095284
0.010101656
0.010108521
0.010115769
0.010123295
0.010130995
0.010138773
0.010146546
0.010154246
0.010161812
0.010169194
0.010176346
0.010183227
0.010189801
0.010196032
0.01020189
0.010207341
0.010212354
0.010216901
0.010220955
0.010224488
0.010227478
0.010229916
0.010231806
0.01023315
0.010233956
0.010234229
0.010233966
0.010233159
0.010231794
0.010229853
0.010227311
0.010224132
0.010220266
0.010215657
0.010210247
0.010203979
0.010196779
0.010188536
0.010179097
0.010168281
0.010155931
0.010141968
0.010126327
0.010108679
0.01008902
0.010070893
0.010057538
0.010047353
0.010038716
0.010030128
0.010023951
0.010027025
0.010029756
0.026791995
0.019179903
0.015380064
0.012929714
0.011732264
0.011216478
0.010801588
0.010607685
0.010443989
0.010347276
0.010270084
0.01021538
0.01017364
0.010142583
0.01011937
0.010102182
0.010090444
0.010081998
0.010077033
0.010074915
0.010074314
0.010076909
0.010080377
0.010084969
0.010090552
0.010096958
0.010103997
0.010111516
0.010119378
0.010127469
0.010135685
0.010143921
0.010152085
0.010160092
0.010167878
0.010175386
0.010182571
0.010189397
0.010195832
0.010201849
0.010207428
0.010212548
0.010217192
0.010221338
0.010224973
0.01022808
0.010230644
0.010232648
0.010234092
0.010234982
0.010235329
0.010235145
0.010234438
0.010233211
0.010231456
0.010229159
0.010226302
0.010222863
0.01021881
0.010214103
0.010208688
0.010202515
0.010195534
0.010187674
0.010178829
0.010168847
0.010157541
0.010144724
0.010130266
0.01011413
0.010096181
0.010076264
0.010059991
0.010047959
0.010038862
0.010031187
0.010023511
0.010017871
0.010020074
0.010021364
0.025082822
0.019351467
0.014711133
0.012627867
0.011537117
0.011085652
0.010708616
0.010537257
0.010390866
0.010304581
0.010236269
0.010188132
0.010152067
0.010125777
0.010106765
0.010093215
0.010084546
0.010079378
0.010075766
0.010075742
0.010080104
0.01008379
0.010089006
0.010095301
0.010102434
0.0101102
0.010118429
0.010126966
0.010135669
0.010144423
0.010153124
0.010161671
0.010169977
0.010177962
0.010185566
0.010192742
0.010199455
0.01020568
0.010211399
0.010216601
0.010221277
0.010225424
0.010229039
0.010232114
0.010234649
0.010236639
0.010238079
0.010238961
0.010239288
0.010239071
0.010238325
0.010237065
0.010235302
0.01023304
0.010230274
0.010226989
0.010223165
0.010218784
0.010213817
0.010208228
0.010201972
0.010194999
0.010187266
0.010178706
0.010169216
0.010158648
0.01014681
0.010133492
0.010118514
0.010101807
0.010083581
0.010064149
0.010049581
0.010038881
0.010030863
0.010024165
0.010017529
0.01001247
0.010013587
0.010013963
0.023571044
0.019492827
0.014173289
0.012351111
0.011360824
0.01096745
0.010626493
0.010475535
0.010345318
0.010268786
0.01020906
0.010167365
0.010136895
0.010115351
0.010100536
0.010090737
0.010084315
0.0100834
0.010084253
0.010086987
0.010091058
0.01009705
0.010104119
0.010112042
0.010120598
0.010129588
0.010138837
0.010148189
0.010157503
0.010166663
0.010175567
0.010184126
0.010192259
0.010199898
0.010206994
0.010213513
0.010219436
0.010224753
0.010229465
0.010233574
0.010237093
0.010240032
0.010242404
0.010244217
0.010245481
0.010246204
0.010246388
0.010246035
0.010245148
0.010243741
0.01024183
0.010239431
0.010236558
0.010233214
0.010229395
0.010225086
0.010220266
0.010214914
0.010209007
0.010202514
0.010195393
0.010187598
0.010179086
0.010169795
0.010159625
0.010148436
0.010136033
0.010122186
0.010106684
0.010089395
0.010070759
0.010052711
0.010039767
0.010030385
0.010023432
0.010017709
0.010012191
0.010007814
0.010007886
0.0100079
0.022215709
0.0196215
0.013707572
0.012099683
0.011203304
0.010861511
0.010555014
0.01042224
0.01030768
0.010240369
0.010188956
0.010153635
0.010128711
0.010111926
0.010101303
0.010095503
0.010093575
0.010094189
0.010097424
0.010102653
0.010109468
0.010117355
0.010126143
0.01013555
0.010145349
0.010155336
0.010165341
0.010175211
0.010184808
0.010194021
0.010202758
0.010210944
0.010218515
0.01022542
0.010231629
0.010237127
0.010241914
0.010246001
0.010249406
0.010252154
0.010254272
0.010255789
0.01025673
0.010257117
0.01025697
0.010256307
0.010255137
0.010253465
0.010251298
0.010248647
0.010245528
0.010241955
0.010237942
0.010233493
0.010228602
0.010223254
0.010217425
0.010211094
0.01020424
0.010196835
0.01018884
0.010180211
0.010170905
0.010160862
0.010149989
0.01013815
0.010125158
0.010110761
0.010094736
0.010076985
0.01005783
0.010042038
0.010030631
0.010022532
0.010016629
0.010011857
0.010007469
0.010003912
0.01000324
0.01000279
0.020990469
0.019706866
0.013278954
0.011873565
0.011064118
0.010767848
0.010494315
0.010377955
0.010278304
0.010219858
0.01017654
0.010147583
0.0101282
0.010116214
0.010109831
0.010107728
0.010108971
0.010112974
0.010118995
0.010126608
0.010135424
0.010145143
0.010155451
0.010166088
0.010176827
0.010187468
0.010197845
0.010207814
0.01021725
0.010226057
0.010234161
0.010241508
0.010248062
0.010253797
0.010258707
0.010262803
0.010266106
0.01026865
0.010270474
0.010271619
0.010272128
0.010272045
0.010271408
0.010270248
0.010268593
0.010266466
0.010263881
0.010260847
0.010257369
0.010253453
0.010249113
0.01024436
0.010239204
0.010233649
0.010227689
0.010221307
0.010214478
0.010207177
0.010199384
0.010191072
0.010182209
0.010172747
0.010162642
0.010151837
0.010140246
0.01012774
0.010114142
0.010099192
0.010082634
0.01006463
0.010046082
0.010032177
0.010022239
0.010015366
0.010010494
0.010006636
0.01000332
0.010000715
0.0099996994
0.0099986954
0.019888349
0.019711549
0.012890623
0.011670732
0.010942505
0.0106865
0.01044451
0.010343028
0.010257664
0.010207908
0.01017255
0.010149993
0.010136186
0.010129055
0.010126962
0.010128696
0.010133363
0.010140272
0.010148893
0.010158762
0.010169488
0.010180733
0.010192217
0.01020368
0.010214906
0.010225702
0.010235918
0.01024543
0.01025414
0.010261978
0.010268901
0.010274887
0.010279932
0.010284045
0.010287249
0.010289581
0.010291086
0.010291818
0.010291833
0.010291188
0.010289939
0.010288137
0.01028583
0.010283054
0.010279844
0.010276222
0.010272206
0.010267804
0.010263018
0.010257851
0.010252306
0.010246393
0.010240118
0.010233481
0.010226475
0.010219083
0.010211278
0.010203033
0.010194323
0.010185125
0.010175407
0.010165124
0.010154227
0.010142661
0.010130348
0.010117166
0.01010295
0.010087472
0.010070439
0.010052112
0.010035408
0.010023218
0.010014637
0.010008911
0.010005046
0.01000207
0.0099996967
0.0099981279
0.0099974061
0.0099959988
0.018895073
0.01948431
0.012540091
0.011490157
0.010838267
0.0106177
0.010405913
0.010318129
0.01024649
0.010205427
0.010177953
0.010161873
0.010153696
0.010151466
0.01015367
0.010159169
0.010167114
0.01017686
0.010187856
0.010199649
0.010211861
0.010224164
0.010236282
0.010247971
0.010259036
0.010269312
0.010278679
0.01028705
0.010294369
0.010300609
0.010305764
0.010309855
0.010312916
0.01031499
0.010316132
0.0103164
0.010315863
0.010314588
0.010312644
0.010310097
0.01030701
0.010303439
0.010299433
0.010295032
0.010290271
0.010285171
0.010279749
0.01027401
0.010267954
0.010261577
0.010254875
0.010247848
0.010240497
0.01023282
0.01022481
0.010216448
0.010207706
0.010198554
0.010188963
0.010178908
0.010168361
0.01015728
0.010145608
0.010133292
0.010120265
0.010106412
0.010091567
0.010075566
0.010058285
0.010040088
0.010025811
0.010015205
0.010007861
0.010003182
0.010000288
0.0099981723
0.0099965797
0.0099959789
0.0099961052
0.009994529
0.017995968
0.018614873
0.012224821
0.011331133
0.010751667
0.010561865
0.010379084
0.010304232
0.01024586
0.010213599
0.010193992
0.010184452
0.010181926
0.01018457
0.010190979
0.010200077
0.010211043
0.010223243
0.010236147
0.010249309
0.010262361
0.010274992
0.010286954
0.010298042
0.010308103
0.010317022
0.010324732
0.010331201
0.010336428
0.010340437
0.010343271
0.010344992
0.010345668
0.010345378
0.010344197
0.010342205
0.010339481
0.010336101
0.01033214
0.010327665
0.010322739
0.010317417
0.010311747
0.010305767
0.010299508
0.01029299
0.010286224
0.010279213
0.010271952
0.010264432
0.010256638
0.010248564
0.010240202
0.010231546
0.010222586
0.010213306
0.010203677
0.010193666
0.010183239
0.010172367
0.010161024
0.010149172
0.010136755
0.010123712
0.010109983
0.010095478
0.010080028
0.010063485
0.010046094
0.01002959
0.010017252
0.010008151
0.010001932
0.0099981902
0.0099961976
0.0099949188
0.0099939744
0.0099941168
0.0099951424
0.0099941532
0.017183334
0.017256514
0.011947055
0.011193422
0.010681792
0.010519942
0.010365089
0.010302765
0.010257233
0.010233905
0.010222124
0.010219111
0.010222143
0.010229484
0.010239811
0.010252098
0.010265548
0.010279541
0.010293566
0.010307202
0.01032012
0.010332056
0.010342822
0.01035228
0.010360348
0.010366989
0.010372203
0.010376027
0.010378519
0.010379757
0.010379828
0.010378829
0.010376857
0.010374009
0.010370378
0.010366052
0.010361112
0.010355636
0.010349693
0.010343348
0.010336658
0.01032967
0.010322428
0.010314963
0.010307301
0.010299457
0.010291439
0.010283246
0.010274866
0.010266285
0.010257483
0.010248442
0.010239147
0.010229585
0.010219742
0.010209603
0.010199143
0.010188327
0.010177116
0.010165475
0.010153375
0.010140788
0.010127663
0.01011393
0.010099523
0.010084377
0.010068384
0.010051447
0.010034081
0.010020302
0.010009739
0.010002031
0.0099968538
0.0099939459
0.0099927375
0.0099922303
0.0099918807
0.0099926113
0.0099945664
0.009995092
0.016453052
0.016400704
0.011712709
0.011077436
0.010629558
0.010493333
0.010365439
0.010315419
0.010282316
0.010267989
0.010263914
0.010267258
0.010275547
0.010287135
0.010300758
0.01031544
0.010330412
0.010345092
0.010359026
0.010371861
0.010383348
0.010393317
0.010401674
0.010408385
0.010413459
0.010416947
0.010418927
0.010419499
0.010418777
0.010416881
0.010413928
0.010410038
0.010405321
0.010399882
0.010393817
0.01038721
0.010380138
0.010372671
0.010364868
0.010356784
0.010348464
0.010339948
0.010331268
0.010322449
0.010313509
0.010304458
0.010295299
0.010286027
0.010276627
0.01026708
0.01025736
0.010247441
0.010237299
0.010226912
0.010216262
0.010205332
0.010194099
0.010182533
0.010170593
0.010158238
0.010145431
0.010132149
0.010118355
0.010103982
0.010088943
0.010073176
0.010056668
0.010039631
0.010023927
0.010012124
0.010003216
0.0099967979
0.0099926026
0.0099904469
0.0099898807
0.0099900164
0.0099902568
0.0099915542
0.0099943152
0.0099963909
0.015797165
0.015401063
0.011512692
0.010983706
0.010595916
0.010483748
0.010381787
0.010344116
0.010323039
0.010317648
0.010320962
0.010330178
0.010343009
0.010357887
0.010373627
0.010389323
0.010404291
0.010418048
0.010430261
0.010440707
0.010449269
0.010455912
0.010460665
0.010463606
0.010464845
0.010464512
0.010462751
0.01045971
0.010455537
0.010450373
0.010444352
0.010437594
0.010430209
0.010422296
0.010413942
0.010405219
0.010396193
0.010386917
0.010377439
0.010367798
0.010358027
0.010348154
0.0103382
0.010328181
0.010318107
0.010307982
0.010297805
0.010287566
0.01027725
0.010266833
0.010256287
0.010245579
0.010234677
0.010223551
0.010212174
0.010200525
0.010188584
0.010176323
0.010163709
0.010150697
0.010137244
0.010123318
0.010108892
0.010093924
0.010078324
0.010062021
0.01004513
0.010028321
0.010015171
0.010005076
0.0099976223
0.009992383
0.0099891158
0.009987656
0.009987608
0.0099882318
0.0099890362
0.0099908935
0.0099942646
0.009997577
0.015210101
0.014726849
0.01134951
0.010912953
0.010581913
0.010493412
0.010416347
0.010391236
0.010381653
0.01038474
0.010394602
0.010408532
0.01042443
0.010440853
0.010456759
0.010471413
0.010484309
0.010495146
0.010503784
0.010510184
0.010514393
0.010516523
0.010516725
0.010515176
0.010512062
0.01050757
0.010501878
0.010495157
0.010487563
0.010479237
0.010470305
0.010460876
0.010451046
0.010440896
0.010430495
0.010419901
0.010409159
0.010398308
0.010387378
0.010376394
0.010365374
0.010354335
0.010343284
0.01033223
0.010321173
0.010310113
0.010299043
0.010287952
0.010276822
0.01026563
0.010254344
0.010242931
0.010231351
0.010219569
0.010207548
0.010195258
0.010182676
0.010169779
0.010156541
0.010142927
0.010128892
0.010114388
0.010099381
0.010083852
0.010067761
0.010051043
0.010033994
0.010019052
0.010007685
0.0099991126
0.0099929072
0.0099887106
0.0099862986
0.0099854836
0.0099858663
0.0099868363
0.0099881322
0.009990574
0.0099942746
0.0099981198
0.014686283
0.013976653
0.011219812
0.010867838
0.010589363
0.010525696
0.010472196
0.010459513
0.010460261
0.010470418
0.010484936
0.010501324
0.010517762
0.010533069
0.010546486
0.010557561
0.010566069
0.01057196
0.010575319
0.010576299
0.010575104
0.010571963
0.010567114
0.010560793
0.010553221
0.010544601
0.010535116
0.010524928
0.010514178
0.010502988
0.010491461
0.010479684
0.010467729
0.010455654
0.010443508
0.010431328
0.010419142
0.01040697
0.010394827
0.010382723
0.010370663
0.010358649
0.010346681
0.010334756
0.010322869
0.010311012
0.010299175
0.010287343
0.010275498
0.010263617
0.010251671
0.010239625
0.01022744
0.010215075
0.010202486
0.010189635
0.010176489
0.010163023
0.010149215
0.010135046
0.010120485
0.01010548
0.01008997
0.010073923
0.01005739
0.010040551
0.010024008
0.010011297
0.010001466
0.0099941776
0.0099890251
0.0099857139
0.009984047
0.0099838021
0.0099845487
0.0099857664
0.0099874242
0.0099903781
0.0099944192
0.0099985079
0.014225506
0.013398616
0.01112834
0.010853127
0.010622122
0.010584683
0.010552452
0.010550786
0.0105593
0.010573561
0.010589399
0.010604751
0.01061827
0.010629212
0.010637227
0.010642232
0.010644319
0.01064369
0.010640622
0.010635416
0.010628371
0.010619777
0.010609902
0.010598985
0.010587241
0.010574852
0.010561976
0.010548745
0.010535268
0.010521635
0.010507921
0.010494185
0.010480471
0.010466816
0.010453244
0.010439773
0.010426415
0.010413174
0.010400051
0.010387042
0.010374141
0.010361338
0.010348625
0.010335989
0.010323418
0.010310898
0.010298414
0.010285949
0.010273486
0.010260999
0.010248464
0.010235849
0.010223116
0.010210226
0.010197132
0.010183792
0.010170163
0.010156208
0.010141902
0.010127229
0.010112178
0.010096724
0.010080816
0.010064375
0.010047399
0.010030395
0.010016005
0.010004863
0.0099963959
0.0099901927
0.0099859199
0.0099833367
0.0099822766
0.0099824963
0.0099835515
0.0099849982
0.0099869675
0.0099903031
0.0099946367
0.0099988224
0.013833278
0.012939109
0.011077559
0.010873955
0.010706177
0.010673416
0.010658158
0.010663816
0.01067555
0.010689251
0.01070184
0.010711929
0.010718825
0.010722322
0.010722512
0.010719656
0.0107141
0.010706221
0.010696399
0.010684988
0.010672308
0.010658638
0.010644218
0.010629251
0.010613907
0.010598326
0.010582621
0.010566884
0.010551187
0.010535584
0.01052012
0.010504824
0.010489718
0.010474816
0.010460123
0.010445641
0.010431365
0.010417287
0.010403396
0.010389679
0.010376118
0.010362695
0.010349394
0.010336194
0.010323076
0.010310021
0.010297009
0.01028402
0.010271033
0.010258025
0.010244972
0.010231844
0.010218612
0.010205237
0.010191682
0.010177902
0.010163854
0.010149495
0.010134785
0.010119694
0.010104203
0.010088309
0.010072023
0.010055375
0.010038475
0.010021957
0.010009444
0.0099996569
0.0099923233
0.0099870378
0.0099835029
0.009981516
0.0099809266
0.0099814875
0.0099827802
0.0099844537
0.0099867342
0.0099903445
0.0099948472
0.0099989416
0.01351889
0.012570001
0.011071567
0.010930133
0.01080954
0.010791122
0.010785542
0.010792316
0.010801049
0.010808605
0.01081315
0.010814112
0.010811465
0.010805483
0.010796587
0.010785244
0.010771914
0.010757018
0.010740928
0.010723961
0.010706383
0.010688412
0.010670225
0.010651962
0.010633734
0.010615627
0.010597708
0.010580026
0.010562616
0.010545503
0.010528701
0.010512217
0.010496052
0.010480203
0.010464659
0.010449409
0.010434436
0.010419723
0.010405249
0.010390992
0.010376928
0.010363033
0.010349283
0.010335651
0.010322114
0.010308644
0.010295219
0.010281814
0.010268403
0.010254964
0.010241471
0.010227897
0.010214215
0.010200395
0.010186404
0.010172208
0.010157771
0.010143055
0.01012802
0.010112623
0.010096822
0.010080577
0.010063876
0.010046812
0.010029898
0.010015416
0.010004162
0.0099955209
0.0099891065
0.0099845744
0.0099816517
0.0099801561
0.0099799338
0.0099807367
0.0099822001
0.0099840721
0.0099866337
0.0099904486
0.0099950433
0.0099990646
0.013299386
0.012302864
0.011113188
0.011028315
0.010943398
0.010929162
0.010924362
0.010924862
0.010924212
0.010920658
0.010913562
0.010903062
0.010889595
0.010873691
0.010855881
0.010836646
0.010816401
0.01079549
0.010774193
0.010752731
0.010731276
0.010709962
0.010688889
0.010668132
0.010647743
0.010627759
0.010608203
0.01058909
0.010570425
0.010552205
0.010534423
0.010517069
0.010500128
0.010483583
0.010467412
0.010451594
0.010436105
0.01042092
0.010406012
0.010391354
0.010376917
0.010362671
0.010348589
0.010334639
0.010320792
0.010307019
0.010293289
0.010279575
0.010265848
0.010252079
0.010238241
0.010224306
0.010210249
0.01019604
0.010181654
0.010167064
0.010152243
0.010137167
0.010121808
0.010106139
0.010090126
0.010073732
0.010056944
0.010039873
0.010023217
0.010010278
0.010000077
0.009992335
0.0099866484
0.0099827052
0.0099802599
0.0099791463
0.0099792074
0.0099801867
0.0099817813
0.0099838262
0.0099866119
0.0099905728
0.0099952434
0.0099991564
0.013173077
0.012136536
0.011209147
0.011157251
0.011092195
0.011073978
0.01106016
0.011047685
0.011032974
0.011015547
0.010995545
0.010973446
0.010949786
0.010925065
0.010899704
0.010874044
0.010848351
0.010822826
0.01079762
0.010772843
0.010748571
0.010724854
0.010701726
0.010679203
0.010657292
0.010635989
0.010615286
0.010595169
0.01057562
0.01055662
0.010538144
0.010520171
0.010502673
0.010485625
0.010468999
0.010452766
0.010436897
0.010421362
0.010406132
0.010391175
0.01037646
0.010361955
0.010347629
0.010333448
0.010319381
0.010305394
0.010291455
0.010277531
0.010263589
0.010249598
0.010235525
0.01022134
0.010207014
0.010192516
0.01017782
0.010162901
0.010147736
0.010132308
0.010116599
0.010100595
0.010084283
0.010067651
0.010050735
0.01003382
0.010018296
0.01000639
0.0099970492
0.0099900084
0.0099848898
0.0099813966
0.0099792987
0.009978437
0.0099786665
0.0099797769
0.0099814544
0.0099836413
0.0099865581
0.0099904731
0.0099949813
0.0099988713
0.013109341
0.012065878
0.011368993
0.011300394
0.011239359
0.011206724
0.01117701
0.011148032
0.011118101
0.01108724
0.011055722
0.01102392
0.010992164
0.010960722
0.010929795
0.010899523
0.010870002
0.010841291
0.010813423
0.010786411
0.010760254
0.010734939
0.010710446
0.010686753
0.01066383
0.010641648
0.010620176
0.010599381
0.010579231
0.010559693
0.010540736
0.010522325
0.01050443
0.010487018
0.010470056
0.010453513
0.010437357
0.010421556
0.010406076
0.010390887
0.010375954
0.010361247
0.010346731
0.010332373
0.010318141
0.010304
0.010289916
0.010275855
0.010261781
0.01024766
0.010233457
0.010219138
0.010204668
0.010190015
0.010175147
0.010160036
0.010144657
0.010128985
0.010113007
0.01009671
0.010080091
0.010063171
0.010046055
0.010029237
0.010014852
0.010003658
0.0099949621
0.0099884417
0.009983751
0.0099806056
0.0099787833
0.0099781217
0.0099782774
0.0099795612
0.0099812584
0.0099835406
0.0099865153
0.0099903254
0.0099946436
0.0099985577
0.013120245
0.012026135
0.011524171
0.011433817
0.011361015
0.011309777
0.01126282
0.011218699
0.011176118
0.0111349
0.011094994
0.011056426
0.011019217
0.01098337
0.010948869
0.010915686
0.010883779
0.010853101
0.0108236
0.010795225
0.010767919
0.01074163
0.010716306
0.010691896
0.01066835
0.010645622
0.010623666
0.01060244
0.010581901
0.01056201
0.010542728
0.010524018
0.010505844
0.010488171
0.010470963
0.010454188
0.010437811
0.0104218
0.010406122
0.010390743
0.010375632
0.010360755
0.01034608
0.010331575
0.010317206
0.010302939
0.010288742
0.010274579
0.010260417
0.010246219
0.010231952
0.01021758
0.010203068
0.010188381
0.010173486
0.010158351
0.010142943
0.010127235
0.0101112
0.010094817
0.010078076
0.010060991
0.010043698
0.010026818
0.010013006
0.010002198
0.0099938479
0.0099876117
0.0099831585
0.009980216
0.0099785732
0.0099780456
0.0099780645
0.0099795721
0.0099812891
0.0099836642
0.0099866597
0.0099903246
0.0099944078
0.0099983156
0.013214174
0.012052331
0.011640886
0.011530713
0.01144238
0.011375106
0.011315167
0.011260663
0.011209957
0.011162396
0.011117534
0.011075078
0.011034799
0.01099651
0.010960053
0.01092529
0.010892096
0.010860361
0.010829986
0.010800879
0.010772957
0.010746143
0.010720367
0.010695565
0.010671674
0.010648639
0.010626408
0.01060493
0.01058416
0.010564054
0.01054457
0.010525668
0.01050731
0.010489459
0.01047208
0.010455137
0.010438597
0.010422426
0.010406591
0.010391059
0.010375798
0.010360775
0.010345959
0.010331317
0.010316818
0.010302428
0.010288116
0.010273847
0.010259588
0.010245306
0.010230968
0.01021654
0.010201989
0.010187285
0.010172395
0.010157291
0.010141945
0.01012633
0.010110424
0.01009421
0.010077678
0.010060843
0.010043821
0.01002715
0.01001313
0.010002262
0.0099938663
0.0099876112
0.0099831525
0.0099802128
0.0099785689
0.0099780365
0.0099780162
0.0099796062
0.0099813545
0.0099837995
0.0099868049
0.0099903483
0.0099942426
0.0099981534
0.013339847
0.012108935
0.011702256
0.011579571
0.011481003
0.011405348
0.011339289
0.011280261
0.011226206
0.011176136
0.011129375
0.011085462
0.011044053
0.011004876
0.010967712
0.010932377
0.010898713
0.010866587
0.010835879
0.010806484
0.010778309
0.010751268
0.010725285
0.01070029
0.010676219
0.010653012
0.010630614
0.010608975
0.010588046
0.010567782
0.010548141
0.010529082
0.010510568
0.010492559
0.010475021
0.010457919
0.010441217
0.010424884
0.010408885
0.010393189
0.010377762
0.010362574
0.010347592
0.010332784
0.010318118
0.010303562
0.010289083
0.010274649
0.010260225
0.010245779
0.010231277
0.010216686
0.010201973
0.010187108
0.010172061
0.0101568
0.010141301
0.010125536
0.010109484
0.010093129
0.010076463
0.010059509
0.010042408
0.010025798
0.010012363
0.010001789
0.0099936251
0.009987516
0.0099831456
0.0099802488
0.0099786112
0.0099780657
0.0099781897
0.0099795715
0.00998139
0.0099838489
0.0099868495
0.0099903212
0.0099941213
0.0099980606
67.036815
364.58991
122.719
14.811773
0.40924078
0.021529896
0.020187234
0.019875112
0.019598468
0.018534785
0.01719164
0.016003842
0.015101557
0.014526765
0.014119004
0.013732204
0.013354702
0.013020422
0.012740597
0.012506868
0.012308232
0.012136881
0.011987644
0.011856754
0.011741197
0.011638483
0.011546604
0.011463959
0.011389295
0.011321624
0.011260126
0.011204086
0.011152882
0.011105988
0.011062991
0.011023556
0.010987398
0.010954264
0.010923921
0.010896157
0.01087079
0.010847636
0.010826515
0.010807257
0.010789697
0.010773675
0.010759027
0.010745602
0.010733268
0.010721909
0.010711409