/*--------------------------------*- C++ -*----------------------------------*\
  =========                 |
  \\      /  F ield         | OpenFOAM: The Open Source CFD Toolbox
   \\    /   O peration     | Website:  https://openfoam.org
    \\  /    A nd           | Version:  12
     \\/     M anipulation  |
\*---------------------------------------------------------------------------*/
FoamFile
{
    format      ascii;
    class       volScalarField;
    location    "0.147";
    object      T;
}
// * * * * * * * * * * * * * * * * * * * * * * * * * * * * * * * * * * * * * //

dimensions      [0 0 0 1 0 0 0];

internalField   nonuniform List<scalar> 
16000
(
294.51155
286.06052
289.33118
287.55129
288.65686
288.15029
288.57181
288.46159
288.65808
288.69219
288.81306
288.8979
289.00324
289.10598
289.21466
289.32666
289.44275
289.56284
289.68697
289.81516
289.94743
290.08376
290.22411
290.36845
290.5167
290.66875
290.82449
290.98375
291.14636
291.3121
291.48074
291.652
291.82558
292.00116
292.17839
292.35689
292.53626
292.7161
292.89599
293.07548
293.25415
293.43157
293.60732
293.78098
293.95217
294.12051
294.28566
294.44731
294.60517
294.75902
294.90864
295.05387
295.19458
295.33069
295.46217
295.589
295.71123
295.82893
295.9422
296.05119
296.15607
296.25705
296.35433
296.44819
296.53895
296.62696
296.71264
296.79646
296.87896
296.96075
297.04251
297.12492
297.20854
297.2937
297.38072
297.47022
297.56948
297.64666
297.81063
297.83776
294.20681
285.65717
289.06483
287.19689
288.36986
287.82604
288.28299
288.16328
288.37426
288.41382
288.5417
288.63543
288.74795
288.85952
288.97663
289.09763
289.22291
289.35249
289.48636
289.62455
289.76703
289.91378
290.06474
290.21982
290.37891
290.54188
290.70855
290.87873
291.05219
291.22865
291.40783
291.5894
291.773
291.95826
292.14476
292.33209
292.51978
292.7074
292.89448
293.08056
293.26517
293.44788
293.62824
293.80586
293.98034
294.15133
294.31853
294.48164
294.64043
294.7947
294.9443
295.08911
295.22906
295.36412
295.4943
295.61965
295.74025
295.85622
295.9677
296.07487
296.17794
296.27713
296.37268
296.46486
296.554
296.64048
296.72471
296.80717
296.8884
296.96902
297.04971
297.13119
297.21403
297.29854
297.38514
297.47526
297.56888
297.66182
297.79552
297.85953
293.91674
285.28387
288.81683
286.88579
288.09859
287.54475
288.01545
287.90357
288.11944
288.17085
288.30425
288.40859
288.52923
288.65059
288.7773
288.90836
289.04399
289.18419
289.32895
289.47827
289.63209
289.79037
289.95298
290.11982
290.29073
290.46551
290.64396
290.82581
291.01077
291.19852
291.3887
291.58092
291.77475
291.96975
292.16545
292.36137
292.55701
292.75186
292.94544
293.13724
293.32679
293.51362
293.69732
293.87748
294.05375
294.22579
294.39334
294.55617
294.71408
294.86695
295.01468
295.15722
295.29457
295.42676
295.55386
295.67597
295.79325
295.90585
296.01396
296.1178
296.21761
296.31364
296.40614
296.49542
296.5818
296.66566
296.74744
296.8276
296.9067
296.98533
297.06419
297.14399
297.2253
297.30848
297.39403
297.48287
297.57443
297.67284
297.79161
297.87149
293.6502
284.94044
288.58557
286.61204
287.86109
287.297
287.7818
287.67929
287.90062
287.96538
288.10534
288.22147
288.35157
288.4839
288.62149
288.76385
288.91103
289.06303
289.21982
289.38137
289.54758
289.71836
289.89356
290.07302
290.25652
290.44383
290.63466
290.82867
291.02553
291.22481
291.42609
291.6289
291.83275
292.03711
292.24146
292.44524
292.64791
292.84893
293.04776
293.24389
293.43683
293.62614
293.8114
293.99225
294.16836
294.33947
294.50537
294.66588
294.8209
294.97037
295.11427
295.25262
295.3855
295.51302
295.63531
295.75255
295.86493
295.97267
296.076
296.17518
296.27047
296.36215
296.45051
296.53585
296.6185
296.69885
296.77733
296.85442
296.93065
297.00661
297.08301
297.16052
297.23975
297.3211
297.40502
297.49194
297.58222
297.68132
297.79063
297.88154
293.40793
284.63384
288.37715
286.38416
287.66906
287.09121
287.58637
287.49778
287.72315
287.80387
287.95117
288.08042
288.22133
288.36577
288.51548
288.67028
288.83014
288.99507
289.16499
289.33983
289.51948
289.70378
289.89253
290.08552
290.28245
290.48302
290.68684
290.89353
291.10262
291.31362
291.52601
291.73924
291.95272
292.16585
292.37805
292.58869
292.79719
293.00297
293.20548
293.40421
293.59867
293.78845
293.97318
294.15255
294.32629
294.49423
294.65622
294.81218
294.96211
295.10602
295.24399
295.37615
295.50263
295.62362
295.73934
295.85003
295.95593
296.05732
296.15446
296.24766
296.3372
296.42339
296.50652
296.5869
296.66488
296.74084
296.8152
296.88844
296.96107
297.0337
297.10698
297.1816
297.25816
297.33711
297.41875
297.50329
297.59198
297.68962
297.7927
297.88981
293.19367
284.37063
288.20334
286.19442
287.50211
286.93373
287.43986
287.36528
287.59429
287.69208
287.84756
287.99072
288.1436
288.30106
288.46396
288.63229
288.80598
288.985
289.16924
289.35858
289.55284
289.75181
289.9552
290.16271
290.37395
290.58852
290.80593
291.02568
291.24721
291.46991
291.69315
291.91629
292.13866
292.35958
292.57839
292.79442
293.00707
293.21572
293.41985
293.61896
293.81261
294.00043
294.18214
294.3575
294.52634
294.68858
294.84419
294.99321
295.1357
295.27182
295.40173
295.52565
295.64381
295.75648
295.86394
295.96649
296.06444
296.15809
296.24777
296.33379
296.41647
296.49613
296.57306
296.64759
296.72006
296.79084
296.86036
296.92906
296.99746
297.06613
297.13571
297.20687
297.28023
297.35624
297.43505
297.51682
297.60332
297.69822
297.79627
297.8973
293.01036
284.15247
288.06215
286.04142
287.37101
286.82628
287.33087
287.28456
287.51291
287.63176
287.79643
287.95427
288.12052
288.29231
288.4699
288.65332
288.84245
289.03721
289.23739
289.44282
289.65321
289.86825
290.08756
290.31071
290.5372
290.76649
290.99798
291.23103
291.46494
291.699
291.93247
292.1646
292.39463
292.62182
292.84546
293.06486
293.27939
293.48848
293.69162
293.88838
294.0784
294.26142
294.43722
294.60571
294.76685
294.92067
295.06726
295.2068
295.33947
295.46553
295.58525
295.69896
295.80696
295.90959
296.00722
296.10018
296.18883
296.27352
296.35459
296.43238
296.50723
296.57945
296.64935
296.71725
296.78348
296.84841
296.91244
296.976
297.0396
297.10377
297.16911
297.23629
297.30595
297.37849
297.45397
297.53259
297.61632
297.7075
297.80103
297.90449
292.85583
283.97734
287.95164
285.92385
287.27009
286.75194
287.25902
287.22235
287.48152
287.62135
287.79781
287.97222
288.15431
288.34269
288.53729
288.73808
288.94488
289.15751
289.37568
289.5991
289.82736
290.06004
290.29661
290.5365
290.77906
291.02359
291.26935
291.51555
291.76135
292.00591
292.24839
292.48794
292.72373
292.95498
293.18095
293.40098
293.61446
293.82089
294.01983
294.21097
294.39406
294.56897
294.73565
294.89414
295.04455
295.18706
295.32193
295.44944
295.56992
295.68373
295.79126
295.8929
295.98906
296.08013
296.16653
296.24863
296.32684
296.40152
296.47304
296.54174
296.60795
296.672
296.7342
296.79484
296.85425
296.91277
296.97078
297.02871
297.08703
297.14623
297.20689
297.26964
297.33513
297.40373
297.47543
297.55056
297.631
297.71766
297.80676
297.91168
292.72506
283.8433
287.87499
285.842
287.21892
286.74933
287.24962
287.27313
287.50362
287.66492
287.85675
288.05031
288.25124
288.45898
288.6733
288.89408
289.12105
289.35391
289.59227
289.83567
290.08357
290.33538
290.59038
290.84785
291.10694
291.36679
291.62648
291.88505
292.14154
292.39498
292.64442
292.88896
293.12774
293.35996
293.58493
293.80203
294.01075
294.21071
294.40162
294.58331
294.75572
294.91889
295.07295
295.21813
295.35471
295.48303
295.6035
295.71654
295.82261
295.92217
296.0157
296.10367
296.18655
296.26478
296.3388
296.40905
296.47591
296.53978
296.60101
296.65996
296.71694
296.77229
296.82627
296.87919
296.93133
296.98303
297.03464
297.08656
297.13922
297.19308
297.24868
297.30663
297.36756
297.43181
297.49934
297.57069
297.64731
297.72875
297.81351
297.91908
292.61735
283.75261
287.83782
285.81121
287.22251
286.78796
287.28581
287.33823
287.58383
287.77147
287.98223
288.19754
288.42035
288.65034
288.88724
289.13076
289.38051
289.63603
289.89675
290.16204
290.43115
290.70327
290.9775
291.25286
291.52833
291.80283
292.07525
292.3445
292.60947
292.8691
293.12239
293.3684
293.60631
293.83538
294.05502
294.26474
294.46421
294.65322
294.83169
294.99967
295.15732
295.30491
295.44277
295.57133
295.69105
295.80245
295.90606
296.00245
296.09218
296.17579
296.25384
296.32685
296.39533
296.45975
296.52058
296.57824
296.63313
296.68564
296.73613
296.78491
296.8323
296.87859
296.92406
296.96896
297.01357
297.05819
297.10314
297.14879
297.19553
297.24379
297.29406
297.34692
297.40296
297.46248
297.52555
297.59287
297.66519
297.74087
297.82135
297.92669
292.53647
283.71341
287.84613
285.8997
287.28486
286.89113
287.38156
287.47885
287.73397
287.94956
288.1833
288.42351
288.67152
288.92701
289.18958
289.45877
289.73398
290.01455
290.29969
290.5885
290.87999
291.17308
291.46661
291.75936
292.05006
292.33744
292.62021
292.89715
293.16705
293.42883
293.68149
293.92416
294.15611
294.37678
294.58575
294.78278
294.96778
295.1408
295.30205
295.45183
295.59056
295.71875
295.83696
295.94581
296.04595
296.13803
296.22272
296.30068
296.37255
296.43894
296.50044
296.55761
296.61096
296.66098
296.70813
296.75282
296.79544
296.83635
296.87587
296.91432
296.95197
296.98909
297.02592
297.0627
297.09968
297.13711
297.17528
297.21453
297.25521
297.29771
297.34248
297.39005
297.44096
297.49547
297.55386
297.61694
297.68455
297.75416
297.83041
297.93451
292.48884
283.73867
287.90834
286.038
287.39396
287.06401
287.54799
287.69078
287.96282
288.20906
288.4702
288.73898
289.01591
289.30046
289.59204
289.88993
290.19329
290.50116
290.81241
291.12585
291.44016
291.75394
292.06573
292.37405
292.6774
292.97432
293.2634
293.54335
293.81296
294.07119
294.31718
294.55024
294.76988
294.97579
295.16789
295.34624
295.5111
295.66285
295.802
295.92916
296.04503
296.15035
296.24588
296.33242
296.41077
296.48169
296.54594
296.60425
296.65728
296.70568
296.75006
296.79096
296.82889
296.86432
296.89768
296.92935
296.9597
296.98904
297.01767
297.04585
297.07385
297.10188
297.13016
297.15889
297.18828
297.21856
297.24998
297.28284
297.31744
297.35413
297.39333
297.43552
297.48112
297.53043
297.58401
297.64267
297.70519
297.76864
297.84088
297.94256
292.47927
283.83444
288.03463
286.22965
287.56861
287.31385
287.79402
287.98602
288.28081
288.56105
288.85448
289.15618
289.46623
289.78376
290.10789
290.43756
290.77151
291.10841
291.44673
291.78488
292.12115
292.4538
292.78108
293.10125
293.41262
293.71365
294.00288
294.27907
294.54116
294.78833
295.02
295.23582
295.43567
295.61968
295.78816
295.94159
296.08061
296.20598
296.31854
296.41918
296.50885
296.58848
296.65902
296.72138
296.77646
296.82508
296.86805
296.90611
296.93993
296.97015
296.99734
297.02202
297.04467
297.06572
297.08554
297.10448
297.12286
297.14094
297.15899
297.17722
297.19586
297.21508
297.23506
297.25597
297.27799
297.3013
297.32612
297.3527
297.38131
297.41226
297.44593
297.48272
297.52295
297.56698
297.61568
297.66974
297.72685
297.78425
297.85293
297.95077
292.50978
284.00833
288.23007
286.50755
287.81883
287.64856
288.13018
288.37467
288.69992
289.01881
289.35008
289.68981
290.03769
290.39237
290.75251
291.11656
291.48278
291.84931
292.21416
292.57527
292.93055
293.27793
293.61539
293.94104
294.25313
294.55015
294.83082
295.09416
295.33947
295.56634
295.77469
295.96468
296.13672
296.29144
296.42964
296.55226
296.66033
296.75496
296.83727
296.9084
296.96948
297.02158
297.06575
297.10296
297.13414
297.16013
297.18172
297.19962
297.21447
297.22686
297.23731
297.24629
297.25421
297.26144
297.26831
297.2751
297.28208
297.28947
297.29746
297.30625
297.316
297.32686
297.33895
297.35242
297.3674
297.38405
297.40254
297.42307
297.44589
297.47127
297.49953
297.53101
297.5659
297.60467
297.64848
297.69776
297.74922
297.80091
297.86662
297.95888
292.58525
284.27354
288.49798
286.87338
288.15663
288.07983
288.57033
288.87156
289.23592
289.59948
289.97487
290.35826
290.74874
291.14436
291.54314
291.9429
292.3413
292.7359
293.12417
293.50363
293.87181
294.22642
294.56532
294.88666
295.1889
295.47084
295.73167
295.97093
296.18856
296.3848
296.56024
296.71567
296.85213
296.9708
297.07295
297.15994
297.23314
297.29392
297.34361
297.38351
297.41482
297.43869
297.45618
297.46826
297.47581
297.47964
297.48047
297.47895
297.47565
297.47107
297.46568
297.45985
297.45394
297.44824
297.44302
297.43849
297.43487
297.43231
297.43097
297.43098
297.43247
297.43554
297.44028
297.4468
297.45519
297.46558
297.4781
297.49292
297.51022
297.53027
297.55335
297.57967
297.60936
297.64302
297.68199
297.72625
297.77193
297.81846
297.88154
297.96721
292.71002
284.64853
288.83458
287.34146
288.59589
288.62298
289.13278
289.49663
289.90983
290.32524
290.75125
291.18361
291.62057
292.05944
292.49746
292.9317
293.35911
293.77665
294.18132
294.57025
294.94083
295.29079
295.61821
295.92168
296.20023
296.45337
296.6811
296.88383
297.06232
297.21766
297.35117
297.46434
297.55878
297.63615
297.69813
297.74637
297.78247
297.80793
297.82418
297.83255
297.83424
297.83037
297.82193
297.80982
297.79485
297.77771
297.75904
297.73938
297.71922
297.69897
297.67898
297.65957
297.641
297.6235
297.60725
297.59242
297.57915
297.56754
297.55771
297.54973
297.54369
297.53965
297.53767
297.53781
297.54015
297.54476
297.55174
297.56123
297.57338
297.58843
297.60659
297.62798
297.6527
297.68151
297.71571
297.75468
297.79451
297.83664
297.89745
297.97541
292.88872
285.16301
289.24735
287.92973
289.1579
289.30134
289.84337
290.27695
290.74871
291.22304
291.70515
292.19017
292.67523
293.15672
293.63092
294.09408
294.54243
294.97242
295.38077
295.76465
296.12172
296.45026
296.74914
297.01788
297.25659
297.46589
297.64688
297.80099
297.92995
298.03568
298.12018
298.18553
298.23377
298.26689
298.28679
298.29526
298.29396
298.2844
298.26797
298.24592
298.21937
298.18931
298.15663
298.12208
298.08636
298.05003
298.01361
297.97752
297.94215
297.9078
297.87473
297.84317
297.8133
297.78527
297.7592
297.73519
297.71332
297.69366
297.67625
297.66114
297.64836
297.63795
297.62992
297.62432
297.62118
297.62055
297.62249
297.62709
297.6345
297.64491
297.65846
297.6752
297.69529
297.71959
297.74913
297.7826
297.81649
297.85487
297.91374
297.98313
293.13292
285.86371
289.77931
288.66939
289.87356
290.14615
290.73466
291.24484
291.78358
292.32247
292.86393
293.40213
293.93278
294.45109
294.95232
295.43195
295.88581
296.31033
296.70262
297.06058
297.38294
297.66926
297.91985
298.13568
298.31829
298.46964
298.59199
298.6878
298.75963
298.81003
298.84151
298.85648
298.85719
298.84573
298.82403
298.79384
298.75671
298.71406
298.6671
298.61695
298.56454
298.5107
298.45615
298.40151
298.34729
298.29395
298.24185
298.1913
298.14258
298.09588
298.05138
298.00921
297.96949
297.93228
297.89765
297.86564
297.83627
297.80957
297.78554
297.76418
297.74549
297.72946
297.7161
297.70541
297.69739
297.69207
297.68947
297.68967
297.69278
297.69894
297.70824
297.72066
297.73648
297.75664
297.7817
297.80961
297.83762
297.87251
297.92948
297.99042
293.4694
286.73432
290.45744
289.59758
290.78056
291.19217
291.84285
292.43631
293.04842
293.65472
294.25436
294.84017
295.40624
295.94665
296.45606
296.92987
297.36447
297.75733
298.10703
298.41326
298.67667
298.89878
299.08176
299.22828
299.34135
299.42415
299.47991
299.51184
299.52298
299.51624
299.49428
299.45956
299.41429
299.36045
299.2998
299.23388
299.16406
299.0915
299.01724
298.94213
298.86693
298.79227
298.71868
298.64661
298.57643
298.50843
298.44288
298.37995
298.31982
298.26258
298.20832
298.15711
298.10898
298.06395
298.02201
297.98316
297.94738
297.91465
297.88492
297.85818
297.83439
297.81351
297.79551
297.78037
297.76807
297.75862
297.75201
297.74829
297.74754
297.74986
297.75526
297.76374
297.77569
297.79204
297.81283
297.83541
297.85797
297.88934
297.94374
297.99903
293.93836
287.71798
291.32404
290.75001
291.9229
292.4813
293.21087
293.89331
294.58041
295.24966
295.89652
296.51253
297.09076
297.62525
298.1114
298.54617
298.92805
299.25699
299.53423
299.76209
299.94366
300.08263
300.183
300.24891
300.28447
300.29365
300.2802
300.24759
300.19898
300.1372
300.06479
299.98397
299.89669
299.80466
299.70932
299.61193
299.51357
299.41513
299.31737
299.22094
299.12637
299.03408
298.94444
298.85772
298.77415
298.69391
298.61711
298.54385
298.4742
298.40817
298.34579
298.28703
298.23188
298.18031
298.13225
298.08767
298.0465
298.00869
297.97416
297.94286
297.91472
297.88969
297.86772
297.84875
297.83276
297.8197
297.80958
297.80241
297.79826
297.79715
297.79903
297.80394
297.81242
297.82525
297.84194
297.85961
297.87764
297.90609
297.95742
298.00647
294.59554
288.98638
292.42696
292.17873
293.36137
294.07181
294.89136
295.66041
296.41105
297.12254
297.78764
298.39808
298.94811
299.43401
299.85428
300.20941
300.50157
300.73427
300.912
301.03983
301.12312
301.16728
301.17754
301.15884
301.11577
301.05245
300.9726
300.87948
300.77594
300.66448
300.54722
300.42598
300.30231
300.17752
300.05271
299.92879
299.80653
299.68653
299.56932
299.45531
299.3448
299.23807
299.1353
299.03662
298.94214
298.85191
298.76596
298.68429
298.60687
298.53368
298.46466
298.39974
298.33884
298.2819
298.22881
298.17951
298.13388
298.09185
298.05332
298.01821
297.98643
297.95791
297.93257
297.91034
297.89118
297.87503
297.86187
297.8517
297.84455
297.84039
297.83914
297.8409
297.84627
297.85583
297.86861
297.88185
297.89625
297.92246
297.9702
298.01202
295.49765
290.60029
293.8518
293.96329
295.17484
296.03103
296.93186
297.76321
298.54106
299.24856
299.87941
300.42893
300.89588
301.28167
301.58998
301.82619
301.99675
302.10872
302.16933
302.18565
302.16436
302.11161
302.03295
301.9333
301.81696
301.68766
301.5486
301.40247
301.25158
301.09785
300.94288
300.788
300.63431
300.4827
300.33392
300.18853
300.04701
299.90973
299.77696
299.64891
299.52572
299.40749
299.29428
299.1861
299.08295
298.98478
298.89154
298.80317
298.71957
298.64065
298.5663
298.49643
298.43091
298.36963
298.31247
298.25932
298.21006
298.16457
298.12275
298.08449
298.04969
298.01825
297.99008
297.96511
297.94325
297.92446
297.90868
297.89593
297.88617
297.87932
297.87532
297.87433
297.87695
297.88346
297.89254
297.90188
297.9134
297.93764
297.9811
298.01527
296.62665
292.68409
295.7041
296.18729
297.42963
298.40262
299.33937
300.1727
300.90908
301.53986
302.06508
302.48767
302.81377
303.05157
303.21049
303.30041
303.33115
303.31198
303.25143
303.15716
303.03586
302.89334
302.73454
302.56365
302.38417
302.19901
302.01059
301.82086
301.63146
301.44369
301.25861
301.07706
300.8997
300.72707
300.55955
300.39745
300.24099
300.0903
299.94548
299.80656
299.67356
299.54644
299.42515
299.30961
299.19972
299.09537
298.99646
298.90284
298.81439
298.73096
298.65243
298.57863
298.50943
298.44469
298.38427
298.32802
298.27582
298.22752
298.18301
298.14217
298.10487
298.07101
298.04048
298.0132
297.98907
297.96803
297.95002
297.93503
297.923
297.91381
297.90741
297.90406
297.90424
297.90791
297.91358
297.91956
297.9287
297.95062
297.98881
298.01643
298.1598
295.35027
298.07911
298.90381
300.12102
301.15522
302.03831
302.77578
303.37674
303.84515
304.19152
304.42838
304.56963
304.62929
304.62077
304.55637
304.44699
304.30211
304.12977
303.93675
303.72866
303.51009
303.28482
303.05588
302.82572
302.59632
302.36922
302.14565
301.9266
301.71278
301.50478
301.30302
301.10779
300.91932
300.73772
300.56307
300.39538
300.23463
300.08076
299.93368
299.79329
299.65945
299.53204
299.4109
299.29588
299.18682
299.08354
298.98588
298.89368
298.80675
298.72493
298.64805
298.57595
298.50846
298.44543
298.3867
298.33212
298.28155
298.23484
298.19187
298.15251
298.11664
298.08415
298.05492
298.02887
298.00592
297.98601
297.96909
297.95507
297.94385
297.9354
297.93001
297.92801
297.92909
297.93171
297.93486
297.942
297.96145
297.99434
298.01647
300.13855
298.66869
300.97243
302.08719
303.27415
304.14102
304.8495
305.37814
305.7495
305.98215
306.09741
306.11553
306.05519
305.93279
305.76234
305.55555
305.32199
305.06945
304.80413
304.53099
304.25393
303.97601
303.69961
303.42659
303.15835
302.89597
302.64027
302.39182
302.15105
301.91824
301.69357
301.47713
301.26893
301.06897
300.87715
300.69337
300.51751
300.34942
300.18892
300.03584
299.88999
299.75117
299.61921
299.49388
299.37499
299.26235
299.15575
299.05499
298.95987
298.87022
298.78583
298.70652
298.63211
298.56243
298.4973
298.43656
298.38005
298.32761
298.2791
298.23437
298.19329
298.15574
298.12158
298.09072
298.06303
298.03845
298.0169
297.99831
297.98256
297.96957
297.95937
297.9522
297.94824
297.94698
297.94705
297.94805
297.95361
297.97043
297.99738
298.01228
302.59146
302.62349
304.63271
305.60839
306.50465
307.11746
307.52551
307.75017
307.82797
307.78867
307.65915
307.4616
307.21414
306.93111
306.62377
306.30085
305.96901
305.63336
305.29775
304.96507
304.63749
304.31659
304.00352
303.69912
303.40393
303.11834
302.84256
302.57668
302.32072
302.07463
301.83829
301.61155
301.39425
301.18617
300.98711
300.79685
300.61514
300.44176
300.27645
300.11899
299.96912
299.82661
299.69123
299.56273
299.44089
299.32549
299.2163
299.1131
299.01569
298.92385
298.83738
298.7561
298.6798
298.6083
298.54143
298.479
298.42086
298.36684
298.31679
298.27055
298.228
298.189
298.15341
298.12112
298.09202
298.06602
298.04303
298.02297
298.00572
297.99121
297.97948
297.97074
297.965
297.96168
297.95971
297.95918
297.96331
297.97701
297.9982
298.00921
305.66137
307.05655
308.3857
309.08888
309.56815
309.779
309.80386
309.68462
309.46204
309.16648
308.82142
308.44429
308.04799
307.64192
307.2329
306.82583
306.42422
306.03052
305.64644
305.27312
304.91133
304.56149
304.22385
303.89847
303.58529
303.28419
302.99498
302.71742
302.45124
302.19615
301.95187
301.71808
301.49447
301.28074
301.07658
300.88169
300.69576
300.51851
300.34965
300.18889
300.03596
299.8906
299.75254
299.62153
299.49731
299.37966
299.26833
299.16309
299.06373
298.97003
298.88177
298.79876
298.7208
298.6477
298.57927
298.51534
298.45574
298.40029
298.34885
298.30127
298.25738
298.21707
298.18019
298.14662
298.11625
298.08899
298.06472
298.04336
298.02478
298.00895
297.9959
297.98574
297.9784
297.97335
297.96989
297.96836
297.97123
297.98157
297.99712
298.00551
309.61739
311.4043
311.94593
312.13352
312.07983
311.84651
311.49595
311.07058
310.60056
310.10661
309.60278
309.09854
308.60017
308.11182
307.63614
307.17478
306.72867
306.2983
305.88381
305.48514
305.10205
304.73424
304.38131
304.04287
303.71845
303.40763
303.10994
302.82493
302.55219
302.29127
302.04177
301.80328
301.57542
301.35781
301.15009
300.95192
300.76294
300.58285
300.41132
300.24806
300.09276
299.94514
299.80494
299.67187
299.54569
299.42615
299.313
299.20601
299.10495
299.00961
298.91976
298.83521
298.75575
298.68119
298.61135
298.54604
298.4851
298.42835
298.37564
298.32681
298.28171
298.2402
298.20215
298.16743
298.13593
298.10753
298.08213
298.05962
298.03991
298.02294
298.00874
297.99733
297.98858
297.98212
297.97757
297.97529
297.97687
297.98395
297.99478
298.00184
314.58078
314.9526
314.68272
314.31422
313.79148
313.19817
312.5699
311.93224
311.2994
310.67996
310.07872
309.49824
308.93971
308.40347
307.88935
307.39687
306.92538
306.47414
306.04235
305.62924
305.234
304.85589
304.49417
304.14815
303.81716
303.50057
303.19781
302.90829
302.6315
302.36692
302.11408
301.87253
301.64184
301.42159
301.2114
301.01089
300.81971
300.63752
300.46397
300.29877
300.14161
299.99219
299.85024
299.71548
299.58765
299.4665
299.35178
299.24326
299.1407
299.04389
298.95261
298.86666
298.78583
298.70993
298.63878
298.57219
298.50999
298.45201
298.3981
298.34809
298.30184
298.2592
298.22005
298.18425
298.15169
298.12224
298.09581
298.07227
298.05155
298.03359
298.01837
298.00588
297.99597
297.98841
297.98305
297.98016
297.98057
297.98498
297.99233
297.99883
316.57967
316.74715
316.17238
315.40969
314.62989
313.84903
313.08742
312.35268
311.64826
310.97515
310.33306
309.72102
309.13778
308.58192
308.05204
307.54673
307.06466
306.60459
306.16533
305.74581
305.34502
304.96201
304.59593
304.24596
303.91137
303.59146
303.28558
302.99313
302.71355
302.4463
302.19089
301.94685
301.71373
301.49112
301.27861
301.07583
300.88241
300.69802
300.52231
300.35497
300.19571
300.04422
299.90022
299.76345
299.63363
299.51053
299.39389
299.28348
299.17907
299.08044
298.98737
298.89967
298.81713
298.73955
298.66675
298.59856
298.53479
298.47529
298.41988
298.36842
298.32076
298.27675
298.23626
298.19916
298.16535
298.13469
298.10708
298.08242
298.06061
298.04159
298.02535
298.01181
298.00089
297.99245
297.98642
297.983
297.98256
297.98532
297.9907
297.99695
310.33746
309.018
305.33328
302.42014
301.13053
300.84054
300.77252
300.76985
300.65805
300.60138
300.49791
300.4269
300.34041
300.25365
300.16733
300.08059
299.99319
299.90509
299.8163
299.7269
299.63696
299.54659
299.45591
299.36507
299.27419
299.18341
299.09288
299.00273
298.9131
298.82412
298.73592
298.64864
298.56239
298.47732
298.39353
298.31117
298.23035
298.15119
298.07384
297.9984
297.92501
297.8538
297.7849
297.71843
297.65453
297.59333
297.53497
297.47957
297.42727
297.37819
297.33245
297.29018
297.25147
297.21643
297.18513
297.15766
297.13405
297.11436
297.0986
297.08681
297.07906
297.0754
297.07585
297.08046
297.08934
297.10256
297.12044
297.14276
297.17053
297.20194
297.24137
297.28066
297.33672
297.37984
297.46195
297.49576
297.62095
297.63855
297.81613
297.84726
309.5351
306.61616
302.41642
300.34056
299.76532
299.76647
299.86805
299.87943
299.87396
299.84791
299.82424
299.7869
299.74416
299.6966
299.6451
299.58979
299.53113
299.4694
299.40493
299.33802
299.26897
299.19804
299.12549
299.05157
298.97651
298.90053
298.82385
298.74668
298.66921
298.59164
298.51417
298.43696
298.36021
298.28409
298.20876
298.1344
298.06117
297.98925
297.91878
297.84993
297.78286
297.71773
297.65468
297.59389
297.53549
297.47964
297.4265
297.3762
297.32889
297.2847
297.24377
297.20622
297.17215
297.14166
297.11484
297.09175
297.07244
297.05694
297.04528
297.03749
297.03362
297.03371
297.03779
297.04589
297.05811
297.07452
297.0954
297.12059
297.15094
297.18494
297.22641
297.26821
297.32553
297.37116
297.4535
297.49018
297.61517
297.63422
297.81514
297.84112
308.1267
304.53441
301.41095
299.70255
299.37124
299.41194
299.44629
299.42053
299.39225
299.35982
299.32827
299.29345
299.25698
299.21759
299.17602
299.13205
299.0859
299.03753
298.98704
298.93454
298.88011
298.82389
298.76601
298.70659
298.6458
298.58377
298.52068
298.45668
298.39196
298.32668
298.26101
298.19515
298.12928
298.06356
297.9982
297.93338
297.86928
297.80608
297.74397
297.68314
297.62376
297.56601
297.51008
297.45614
297.40436
297.35492
297.30799
297.26372
297.22227
297.18378
297.14841
297.11628
297.08749
297.06216
297.04036
297.02216
297.00761
296.99674
296.98956
296.9861
296.98642
296.99054
296.99849
297.01029
297.02604
297.0458
297.06981
297.09796
297.13101
297.16762
297.21129
297.25553
297.31434
297.36219
297.44521
297.48435
297.6097
297.62999
297.81398
297.83555
306.93241
303.07871
300.23928
298.94753
298.89672
298.91326
298.93057
298.89486
298.87657
298.84767
298.82381
298.79486
298.76569
298.73456
298.70233
298.66846
298.63313
298.5962
298.55768
298.51756
298.47586
298.43261
298.38785
298.34165
298.29407
298.2452
298.19515
298.14402
298.09195
298.03906
297.9855
297.93142
297.87699
297.82238
297.76777
297.71333
297.65925
297.60572
297.55293
297.50108
297.45036
297.40097
297.35309
297.30693
297.26267
297.2205
297.1806
297.14315
297.10831
297.07624
297.0471
297.02102
296.99811
296.97848
296.96222
296.94938
296.94003
296.93418
296.93184
296.93305
296.93785
296.94627
296.95832
296.97403
296.99347
297.01672
297.044
297.07521
297.11105
297.15031
297.19626
297.24291
297.30335
297.35327
297.43721
297.47846
297.60446
297.62587
297.8128
297.83042
306.22951
301.86407
299.27622
298.31985
298.39708
298.37169
298.3979
298.36126
298.35452
298.33024
298.31494
298.29317
298.27273
298.25049
298.22766
298.20359
298.17846
298.1521
298.1245
298.09561
298.06542
298.03391
298.00107
297.96693
297.93151
297.89485
297.85702
297.81807
297.77809
297.73718
297.69545
297.65303
297.61004
297.56664
297.52298
297.47923
297.43557
297.39216
297.34922
297.30691
297.26545
297.22504
297.18586
297.14813
297.11204
297.0778
297.04558
297.01558
296.98796
296.96291
296.94057
296.92108
296.90456
296.89112
296.88084
296.8738
296.87002
296.86955
296.87239
296.87855
296.8881
296.90106
296.91741
296.9372
296.96049
296.98736
297.018
297.05236
297.09106
297.13303
297.18132
297.23036
297.29252
297.34444
297.42945
297.47273
297.59944
297.62189
297.81153
297.8256
305.66162
300.67479
298.47461
297.71739
297.86568
297.81028
297.85645
297.82042
297.82858
297.81099
297.80669
297.79362
297.78292
297.77014
297.75701
297.74276
297.72756
297.71127
297.6939
297.6754
297.65576
297.63496
297.61298
297.58983
297.56551
297.54005
297.51347
297.48582
297.45714
297.42752
297.39702
297.36576
297.33383
297.30135
297.26847
297.23533
297.20209
297.16891
297.13597
297.10345
297.07155
297.04046
297.01038
296.98151
296.95405
296.9282
296.90415
296.88209
296.86219
296.84463
296.82957
296.81713
296.80744
296.80061
296.79672
296.79583
296.79799
296.80321
296.81151
296.8229
296.83743
296.85513
296.87597
296.9
296.92727
296.95787
296.99197
297.02954
297.07115
297.11587
297.16654
297.21795
297.2819
297.3358
297.42193
297.46713
297.59461
297.61809
297.81007
297.82121
305.08339
299.62334
297.82313
297.16698
297.36337
297.28183
297.34768
297.31003
297.33065
297.3176
297.32234
297.31642
297.31366
297.30859
297.30342
297.29734
297.29047
297.28275
297.27413
297.26459
297.25411
297.24265
297.23021
297.21675
297.20229
297.18682
297.17035
297.15291
297.13454
297.11527
297.09518
297.07432
297.0528
297.0307
297.00814
296.98525
296.96216
296.93903
296.91601
296.89327
296.871
296.84937
296.82857
296.8088
296.79025
296.7731
296.75756
296.7438
296.73199
296.7223
296.71489
296.70987
296.70738
296.70751
296.71034
296.71593
296.72432
296.73552
296.74953
296.76638
296.78611
296.80872
296.83421
296.86261
296.89398
296.92839
296.96602
297.00686
297.05143
297.09891
297.15198
297.20574
297.27151
297.32742
297.41464
297.46173
297.58997
297.61452
297.80855
297.81717
304.6035
298.67353
297.27258