/*--------------------------------*- C++ -*----------------------------------*\
  =========                 |
  \\      /  F ield         | OpenFOAM: The Open Source CFD Toolbox
   \\    /   O peration     | Website:  https://openfoam.org
    \\  /    A nd           | Version:  12
     \\/     M anipulation  |
\*---------------------------------------------------------------------------*/
FoamFile
{
    format      ascii;
    class       volScalarField;
    location    "0.073";
    object      k;
}
// * * * * * * * * * * * * * * * * * * * * * * * * * * * * * * * * * * * * * //

dimensions      [0 2 -2 0 0 0 0];

internalField   nonuniform List<scalar> 
16000
(
0.049281791
0.021475035
0.022315437
0.016401932
0.013926766
0.012614744
0.01183319
0.011367065
0.011050373
0.010837618
0.010680402
0.010563527
0.010472244
0.010400062
0.010341997
0.010294969
0.010256506
0.010224988
0.01019939
0.010178402
0.010161049
0.010147011
0.010135751
0.010126732
0.010119751
0.010114441
0.010110628
0.010108148
0.010106864
0.01010665
0.010107388
0.01010898
0.010111348
0.010114427
0.010118161
0.010122493
0.010127368
0.010132729
0.010138522
0.010144694
0.010151188
0.010157944
0.010164907
0.010172021
0.010179222
0.010186442
0.010193625
0.010200718
0.010207673
0.010214443
0.010220984
0.010227251
0.010233193
0.010238764
0.010243914
0.010248593
0.010252735
0.010256249
0.010259015
0.01026088
0.01026167
0.010261211
0.010259383
0.010256127
0.010251469
0.010245529
0.010238479
0.010230469
0.010221572
0.010211873
0.010201829
0.010192746
0.010186495
0.010183351
0.010183462
0.010170714
0.01012432
0.0100844
0.010016291
0.0100202
0.04570563
0.020322256
0.020882457
0.015865141
0.013586095
0.01241285
0.011672535
0.01125133
0.010950753
0.010755014
0.010608015
0.010499798
0.010414874
0.010348113
0.010294498
0.01025132
0.010216189
0.0101875
0.010164438
0.010145805
0.010130534
0.010118376
0.010108892
0.010101499
0.010096052
0.010092181
0.010089716
0.010088498
0.010088398
0.010089297
0.010091081
0.010093651
0.010096928
0.010100846
0.010105348
0.010110378
0.010115884
0.010121807
0.010128096
0.010134698
0.010141559
0.010148622
0.010155831
0.010163135
0.010170473
0.010177781
0.010185
0.010192078
0.01019897
0.010205632
0.010212022
0.010218101
0.010223823
0.010229141
0.010234007
0.01023837
0.010242168
0.010245315
0.010247696
0.010249172
0.01024958
0.010248763
0.010246608
0.010243063
0.010238154
0.010231992
0.010224735
0.010216518
0.010207417
0.010197554
0.010187437
0.01017841
0.010172433
0.010169687
0.010169131
0.010153442
0.010114993
0.01007231
0.010011242
0.010020651
0.041697452
0.019500405
0.019564972
0.015309179
0.013237726
0.012189073
0.011506134
0.011126456
0.010848892
0.010671145
0.010535215
0.0104361
0.010358015
0.010296966
0.010248097
0.010208989
0.010177422
0.010151771
0.010131401
0.010115268
0.010102227
0.010092068
0.010084471
0.010078803
0.010074977
0.010072625
0.010071583
0.010071697
0.010072844
0.010074911
0.010077788
0.010081376
0.010085596
0.01009038
0.010095669
0.010101409
0.010107545
0.010114023
0.010120788
0.010127791
0.010134979
0.010142298
0.010149694
0.010157117
0.010164515
0.010171823
0.010178984
0.010185951
0.010192677
0.010199123
0.010205252
0.010211028
0.01021641
0.010221357
0.01022582
0.01022975
0.010233084
0.01023574
0.01023761
0.010238562
0.010238449
0.010237129
0.010234502
0.010230526
0.01022523
0.01021872
0.01021114
0.010202613
0.010193216
0.010183123
0.010172928
0.010163986
0.010158237
0.010155783
0.010154123
0.010137319
0.010100828
0.010056553
0.010008208
0.010013856
0.038586961
0.018944072
0.018422796
0.014810844
0.012922037
0.01198611
0.011353663
0.011012237
0.01075532
0.01059389
0.010468549
0.010377854
0.010306298
0.010250658
0.010206325
0.010171105
0.01014298
0.010120274
0.0101025
0.0100888
0.010077948
0.010069739
0.010063994
0.010060023
0.010057786
0.010056929
0.010057285
0.010058708
0.010061075
0.01006428
0.010068216
0.010072784
0.010077903
0.010083501
0.01008952
0.010095903
0.010102597
0.010109547
0.0101167
0.010124006
0.010131417
0.010138881
0.010146348
0.010153772
0.010161104
0.010168287
0.010175266
0.010181995
0.010188431
0.010194539
0.010200284
0.010205637
0.010210564
0.010215025
0.010218978
0.010222371
0.010225144
0.010227216
0.010228487
0.010228832
0.010228119
0.010226219
0.010223046
0.010218565
0.010212804
0.010205861
0.010197869
0.010188941
0.010179169
0.010168789
0.010158483
0.010149577
0.010143827
0.010141384
0.010138596
0.010121448
0.01008738
0.010045172
0.01000604
0.010010296
0.035498768
0.018625115
0.017439809
0.014348818
0.012628049
0.011794214
0.011210604
0.010904512
0.010667908
0.010521769
0.010406812
0.010324159
0.010258996
0.010208616
0.010168732
0.010137315
0.010112586
0.010092805
0.01007759
0.010066303
0.010057642
0.010051384
0.010047485
0.010045224
0.010044572
0.01004521
0.010046964
0.010049692
0.010053271
0.010057599
0.010062572
0.010068089
0.010074067
0.010080432
0.010087123
0.010094081
0.010101254
0.010108589
0.010116032
0.010123536
0.010131056
0.010138545
0.010145957
0.010153249
0.010160382
0.010167304
0.010173965
0.010180321
0.010186334
0.010191973
0.010197207
0.010202011
0.010206358
0.010210215
0.010213542
0.01021629
0.010218397
0.010219786
0.010220362
0.010220009
0.010218606
0.01021604
0.010212234
0.010207159
0.010200843
0.010193374
0.010184874
0.010175456
0.010165242
0.010154535
0.010144097
0.010135203
0.010129262
0.010126865
0.01012313
0.010105982
0.010073911
0.010035194
0.01000438
0.010006189
0.033539277
0.018548849
0.016704896
0.013925095
0.012357367
0.011615595
0.011078302
0.010804611
0.010587571
0.010455522
0.010350639
0.01027558
0.010216604
0.010171298
0.010135737
0.010108012
0.010086609
0.01006972
0.010057023
0.010048119
0.010041646
0.010037359
0.010035282
0.010034774
0.010035669
0.010037798
0.010040942
0.010044962
0.010049733
0.010055154
0.010061121
0.010067535
0.010074309
0.010081366
0.010088642
0.010096078
0.010103622
0.010111221
0.010118826
0.010126392
0.010133877
0.010141243
0.010148447
0.010155455
0.010162234
0.010168742
0.010174934
0.010180771
0.01018622
0.010191252
0.010195842
0.010199971
0.010203617
0.010206753
0.010209344
0.010211341
0.010212685
0.010213301
0.010213096
0.010211965
0.010209796
0.010206488
0.010201974
0.010196229
0.010189276
0.010181196
0.010172102
0.01016212
0.010151414
0.010140362
0.010129777
0.010120875
0.010114581
0.010112302
0.010107794
0.010090975
0.010061316
0.010027054
0.010003057
0.010003393
0.030913534
0.018640764
0.016183237
0.013536459
0.012107857
0.011449633
0.010956551
0.010712422
0.010514231
0.010395116
0.010299968
0.010232112
0.010179134
0.010138752
0.010107425
0.010083317
0.010065201
0.010051205
0.010041019
0.010034485
0.010030204
0.010028008
0.010027673
0.010029092
0.010031399
0.010035014
0.010039539
0.01004483
0.010050761
0.010057228
0.010064131
0.010071367
0.010078847
0.010086493
0.010094238
0.010102023
0.010109797
0.010117511
0.010125119
0.010132581
0.010139863
0.010146932
0.010153756
0.010160307
0.010166561
0.010172488
0.010178051
0.010183215
0.010187952
0.010192239
0.010196055
0.010199384
0.010202211
0.010204515
0.010206264
0.010207414
0.010207905
0.010207664
0.010206603
0.010204622
0.010201618
0.010197501
0.01019221
0.010185721
0.010178056
0.010169285
0.010159522
0.010148915
0.01013769
0.010126299
0.010115559
0.010106612
0.010100175
0.010097919
0.010092844
0.010076684
0.010049703
0.010020339
0.010001989
0.010000825
0.028396224
0.018826569
0.01576428
0.013180591
0.01187812
0.011296139
0.010844852
0.01062784
0.010447594
0.01034045
0.010254737
0.010193796
0.010146676
0.01011113
0.010083993
0.010063473
0.010048628
0.010037563
0.010029913
0.01002572
0.010023603
0.010023941
0.010025022
0.010027965
0.010032139
0.010037225
0.010043104
0.010049625
0.010056659
0.010064099
0.010071843
0.01007979
0.01008785
0.010095941
0.010103998
0.010111964
0.010119788
0.010127428
0.010134845
0.010142007
0.010148885
0.010155459
0.010161707
0.010167612
0.010173158
0.010178328
0.010183095
0.01018743
0.010191311
0.010194717
0.010197633
0.010200046
0.010201945
0.010203315
0.01020413
0.010204347
0.010203907
0.010202739
0.010200756
0.010197865
0.010193971
0.010188986
0.010182857
0.01017556
0.010167115
0.010157587
0.010147096
0.010135827
0.010124078
0.010112373
0.010101485
0.010092374
0.010086201
0.010083879
0.010078459
0.010063305
0.010039243
0.010014798
0.010001301
0.0099986444
0.026777827
0.019012192
0.015286977
0.012854378
0.011666551
0.011154411
0.010742519
0.010550136
0.010387667
0.010291737
0.010215158
0.010160916
0.01011954
0.010088773
0.010065811
0.010048878
0.010037273
0.010029212
0.010024163
0.010022118
0.010021583
0.010024327
0.010027882
0.010032581
0.010038284
0.010044816
0.010051995
0.010059672
0.010067713
0.010076008
0.010084455
0.010092955
0.010101418
0.010109762
0.010117926
0.010125855
0.010133506
0.010140843
0.010147838
0.010154469
0.010160719
0.010166579
0.01017204
0.010177097
0.010181746
0.010185981
0.010189787
0.010193142
0.010196027
0.010198428
0.01020033
0.010201724
0.010202601
0.010202952
0.010202754
0.010201967
0.010200534
0.010198383
0.010195428
0.01019158
0.010186747
0.010180847
0.010173827
0.010165669
0.01015639
0.010146057
0.010134801
0.010122856
0.010110599
0.010098608
0.010087608
0.010078191
0.010072793
0.010070365
0.010064843
0.010051008
0.010029977
0.010010055
0.01000106
0.0099969188
0.025024989
0.019184434
0.014621891
0.012555122
0.011473014
0.011025021
0.010650323
0.01048029
0.010334996
0.010249416
0.010181657
0.010133934
0.010098198
0.010072168
0.010053372
0.010040057
0.010031541
0.010026654
0.010024358
0.010022158
0.010027522
0.010031283
0.010036608
0.010043014
0.010050266
0.010058166
0.010066545
0.010075251
0.010084148
0.010093122
0.010102073
0.010110906
0.010119534
0.01012788
0.010135889
0.010143513
0.01015072
0.010157486
0.010163795
0.010169639
0.010175015
0.010179929
0.010184386
0.010188392
0.010191957
0.010195087
0.010197777
0.010200013
0.010201781
0.010203068
0.010203861
0.010204151
0.010203933
0.010203197
0.010201927
0.010200085
0.010197613
0.010194439
0.010190477
0.010185638
0.010179831
0.010172978
0.010165028
0.010155966
0.010145816
0.010134654
0.010122626
0.010110018
0.010097287
0.010085023
0.010073947
0.010064548
0.010060049
0.010057541
0.01005217
0.010039926
0.010021983
0.010006055
0.010000854
0.009995809
0.023514195
0.019326449
0.014089005
0.012280589
0.011298003
0.010907401
0.010568797
0.010419018
0.010289807
0.010213904
0.010154673
0.010113351
0.010083175
0.010061864
0.010047237
0.010037634
0.010031543
0.010030427
0.010031194
0.010034513
0.010038469
0.010044573
0.010051746
0.010059785
0.01006847
0.010077603
0.010087015
0.010096553
0.01010608
0.010115482
0.010124662
0.010133533
0.010142017
0.010150048
0.01015758
0.010164581
0.010171031
0.010176924
0.010182259
0.010187045
0.010191297
0.010195032
0.010198272
0.010201038
0.010203349
0.010205221
0.010206662
0.010207664
0.010208215
0.010208304
0.010207917
0.010207045
0.010205679
0.010203814
0.010201433
0.010198504
0.010194968
0.010190749
0.010185759
0.010179908
0.010173105
0.010165275
0.010156369
0.010146378
0.010135342
0.010123354
0.010110576
0.010097338
0.010084176
0.010071655
0.010060428
0.010051969
0.01004807
0.010045552
0.010040582
0.010030152
0.010015323
0.01000311
0.010000008
0.0099952648
0.022158215
0.019455518
0.013626191
0.012031008
0.011141569
0.010801956
0.010497842
0.010366115
0.010252442
0.010185693
0.01013472
0.01009973
0.010075065
0.010058486
0.010048029
0.01004235
0.010040495
0.010041305
0.010044664
0.010049888
0.010056849
0.010064835
0.010073734
0.010083264
0.010093202
0.010103349
0.010113536
0.010123614
0.010133449
0.010142933
0.010151976
0.010160507
0.010168464
0.010175798
0.010182481
0.010188499
0.010193853
0.010198553
0.010202621
0.010206082
0.010208967
0.010211311
0.010213147
0.010214507
0.010215423
0.010215918
0.010216007
0.010215689
0.010214955
0.01021379
0.010212181
0.010210114
0.010207577
0.010204563
0.010201058
0.010197029
0.010192421
0.010187153
0.010181132
0.010174262
0.010166456
0.010157639
0.010147769
0.010136845
0.010124929
0.010112144
0.010098673
0.01008485
0.010071284
0.010058571
0.01004715
0.010040378
0.010036954
0.010034518
0.010030167
0.010021715
0.010010075
0.010001003
0.0099988989
0.0099949809
0.020931695
0.01954514
0.013201484
0.011806494
0.011003333
0.010709088
0.010437555
0.010322118
0.010223254
0.010165306
0.010122375
0.010093708
0.01007455
0.010062741
0.010056501
0.010054523
0.01005588
0.010059954
0.010066064
0.010073789
0.010082691
0.010092518
0.010102946
0.010113719
0.010124615
0.010135436
0.01014602
0.010156226
0.010165933
0.010175046
0.010183494
0.010191226
0.010198208
0.010204414
0.010209842
0.0102145
0.010218413
0.010221613
0.010224139
0.010226035
0.010227347
0.010228122
0.010228406
0.010228239
0.010227659
0.010226697
0.01022537
0.010223684
0.010221629
0.01021919
0.010216347
0.010213081
0.010209376
0.01020522
0.010200597
0.010195478
0.010189807
0.010183503
0.010176464
0.010168588
0.010159786
0.010149992
0.010139171
0.010127335
0.010114566
0.01010103
0.01008694
0.010072599
0.010058615
0.010045803
0.010035488
0.010029794
0.010026784
0.010024547
0.01002098
0.010014571
0.010006078
0.0099997578
0.0099982197
0.009994949
0.01982844
0.019553784
0.012816293
0.011605115
0.010882489
0.010628215
0.010388053
0.010287387
0.010202712
0.010153396
0.010118373
0.010096066
0.01008245
0.010075468
0.010073496
0.010075329
0.010080085
0.010087086
0.010095794
0.010105751
0.010116583
0.010127945
0.010139563
0.010151183
0.01016259
0.010173595
0.010184051
0.010193837
0.010202858
0.010211045
0.010218357
0.010224774
0.010230294
0.010234927
0.010238695
0.010241636
0.010243796
0.010245227
0.010245986
0.01024613
0.010245718
0.010244804
0.010243442
0.010241678
0.010239552
0.010237098
0.010234335
0.010231271
0.010227898
0.010224194
0.010220135
0.010215696
0.010210852
0.010205584
0.010199872
0.01019369
0.010186983
0.010179669
0.010171642
0.01016279
0.010153021
0.010142279
0.010130546
0.010117845
0.010104274
0.010090036
0.010075395
0.010060623
0.010046245
0.010033433
0.010025099
0.010020274
0.010017642
0.01001573
0.010013056
0.01000862
0.01000302
0.0099990342
0.009997726
0.0099952153
0.018834327
0.019352505
0.012468632
0.011425749
0.010778873
0.010559839
0.010349651
0.010262589
0.010191545
0.010150865
0.010123677
0.010107805
0.010099787
0.010097679
0.010099984
0.010105569
0.010113596
0.010123422
0.010134506
0.010146399
0.010158725
0.010171162
0.010183438
0.010195313
0.010206593
0.010217116
0.010226765
0.010235456
0.010243135
0.010249773
0.01025537
0.010259944
0.010263531
0.010266176
0.010267931
0.010268857
0.010269019
0.010268486
0.010267326
0.010265606
0.010263388
0.010260733
0.010257695
0.01025432
0.010250651
0.010246718
0.010242542
0.010238129
0.010233469
0.010228541
0.010223313
0.010217749
0.010211818
0.010205489
0.010198738
0.010191535
0.010183833
0.010175551
0.010166581
0.010156802
0.010146117
0.010134481
0.010121894
0.0101084
0.0100941
0.010079208
0.010064047
0.010048928
0.010034309
0.010023029
0.010015957
0.01001185
0.010009607
0.010008132
0.010006391
0.010003742
0.01000059
0.0099985326
0.0099974853
0.0099957088
0.017934745
0.018527392
0.012155822
0.011267761
0.010692738
0.01050429
0.010322908
0.010248691
0.010190824
0.010158889
0.010139519
0.010130149
0.010127751
0.010130493
0.010136985
0.010146158
0.010157201
0.010169484
0.010182484
0.01019576
0.010208948
0.010221742
0.010233896
0.010245209
0.010255529
0.010264745
0.010272789
0.010279632
0.010285274
0.010289738
0.010293069
0.010295328
0.010296586
0.010296917
0.0102964
0.010295111
0.010293131
0.010290534
0.010287395
0.01028378
0.010279754
0.010275374
0.010270692
0.010265752
0.01026059
0.010255236
0.010249706
0.010244005
0.010238122
0.010232033
0.0102257
0.010219081
0.010212133
0.010204813
0.010197088
0.010188926
0.010180281
0.010171083
0.010161227
0.010150589
0.010139065
0.010126609
0.010113244
0.010099039
0.010084101
0.010068619
0.010052925
0.010037557
0.010023495
0.010014096
0.010008066
0.010004564
0.010002738
0.010001771
0.010000929
0.0099998051
0.0099986113
0.0099980519
0.0099974591
0.0099962311
0.017121454
0.017180597
0.01187983
0.011130889
0.010623207
0.010462531
0.010308883
0.010247111
0.010202001
0.010178943
0.010167353
0.010164473
0.010167605
0.010175024
0.010185422
0.010197779
0.01021131
0.010225397
0.010239538
0.010253315
0.010266404
0.010278544
0.010289549
0.010299284
0.010307667
0.010314662
0.010320271
0.01032453
0.010327497
0.01032925
0.010329876
0.010329471
0.010328133
0.010325958
0.010323038
0.010319459
0.010315304
0.010310648
0.010305562
0.010300109
0.010294345
0.010288323
0.010282086
0.010275672
0.010269111
0.010262428
0.010255635
0.010248733
0.010241711
0.010234541
0.010227184
0.010219591
0.010211708
0.010203481
0.010194864
0.010185816
0.010176296
0.010166243
0.010155565
0.010144148
0.010131879
0.010118704
0.01010465
0.010089812
0.01007432
0.010058342
0.010042169
0.010026472
0.010014668
0.010006558
0.010001396
0.0099984457
0.0099970592
0.0099966093
0.0099965533
0.0099966316
0.0099969124
0.0099974849
0.0099975228
0.0099966457
0.016390446
0.016324053
0.011646848
0.01101556
0.010571165
0.010435955
0.010309081
0.010259533
0.010226773
0.010212661
0.010208732
0.010212177
0.010220543
0.010232196
0.010245887
0.010260647
0.010275716
0.010290517
0.010304602
0.010317621
0.010329329
0.010339558
0.010348215
0.010355265
0.010360719
0.010364627
0.010367068
0.010368139
0.010367955
0.010366633
0.010364292
0.01036105
0.010357017
0.010352297
0.010346986
0.010341167
0.010334916
0.010328303
0.010321387
0.010314221
0.010306853
0.010299322
0.010291664
0.010283906
0.010276073
0.010268179
0.010260234
0.010252236
0.010244171
0.010236013
0.010227719
0.010219237
0.010210507
0.010201464
0.010192047
0.010182206
0.010171893
0.010161057
0.010149628
0.010137512
0.010124602
0.010110828
0.010096192
0.010080794
0.010064793
0.010048389
0.010032059
0.010017472
0.010007308
0.010000327
0.0099959026
0.0099934732
0.0099925231
0.0099925442
0.0099931116
0.0099940504
0.0099953594
0.0099967835
0.0099973021
0.0099970334
0.015733954
0.015327907
0.011447982
0.010922312
0.010537572
0.010426265
0.010325146
0.010287867
0.010267058
0.010261828
0.010265249
0.01027454
0.010287436
0.010302381
0.010318202
0.010334
0.010349102
0.010363026
0.010375444
0.010386135
0.010394984
0.010401955
0.010407079
0.010410431
0.01041212
0.010412277
0.010411042
0.010408564
0.010404988
0.010400456
0.010395099
0.010389038
0.010382382
0.01037523
0.010367667
0.010359767
0.010351593
0.010343199
0.010334634
0.010325935
0.010317137
0.010308269
0.010299352
0.010290405
0.010281444
0.010272475
0.010263504
0.010254524
0.010245521
0.010236468
0.010227325
0.01021804
0.010208549
0.010198781
0.010188663
0.01017813
0.010167125
0.010155599
0.010143498
0.010130759
0.010117301
0.010103045
0.010087954
0.010072085
0.010055622
0.010038861
0.010022475
0.010010207
0.010001321
0.0099952708
0.0099914973
0.0099895475
0.0099889931
0.0099894073
0.0099904454
0.0099919525
0.0099938391
0.0099957402
0.0099968909
0.0099975129
0.015146312
0.014652731
0.011285644
0.010851839
0.010523455
0.010435662
0.010359271
0.010334471
0.010325088
0.010328291
0.010338235
0.010352231
0.010368201
0.010384712
0.010400737
0.010415542
0.01042863
0.010439702
0.010448617
0.010455338
0.010459912
0.010462449
0.010463098
0.010462034
0.010459442
0.010455506
0.010450404
0.010444304
0.010437362
0.010429718
0.010421497
0.010412808
0.010403745
0.01039439
0.010384812
0.010375069
0.010365206
0.010355262
0.010345266
0.010335245
0.010325217
0.010315199
0.010305201
0.010295231
0.010285295
0.010275395
0.010265526
0.010255683
0.010245847
0.010235995
0.01022609
0.010216081
0.010205907
0.010195497
0.010184771
0.010173653
0.010162072
0.01014997
0.010137299
0.010124016
0.010110077
0.010095427
0.010080006
0.010063792
0.010046921
0.010029993
0.010015116
0.010004294
0.009996517
0.0099912473
0.0099880374
0.0099865019
0.0099862714
0.0099869852
0.0099883638
0.0099902468
0.0099924554
0.009994593
0.0099961876
0.0099980253
0.014621916
0.013905268
0.011156566
0.010806802
0.010530607
0.010467491
0.010414508
0.010402063
0.010402958
0.010413206
0.010427803
0.010444275
0.010460823
0.010476272
0.010489871
0.010501174
0.010509955
0.010516165
0.010519888
0.010521275
0.010520528
0.010517874
0.010513548
0.010507783
0.010500798
0.010492796
0.010483957
0.010474443
0.010464392
0.010453926
0.010443148
0.010432146
0.010420989
0.010409739
0.010398441
0.010387135
0.010375849
0.010364603
0.010353413
0.010342289
0.010331237
0.010320261
0.01030936
0.010298534
0.010287779
0.010277088
0.010266454
0.010255865
0.010245304
0.010234746
0.010224159
0.0102135
0.010202711
0.010191728
0.010180471
0.010168862
0.01015682
0.010144273
0.010131162
0.010117444
0.010103089
0.010088077
0.010072387
0.010056002
0.010038998
0.010022109
0.010009237
0.00999958
0.0099927039
0.0099880887
0.009985347
0.0099841423
0.009984152
0.0099850714
0.0099866752
0.0099888124
0.0099912609
0.0099936231
0.009995635
0.0099980624
0.014160445
0.013326759
0.011065376
0.010791926
0.010562844
0.010525806
0.010493964
0.01049248
0.010501119
0.010515482
0.010531433
0.010546926
0.010560627
0.010571796
0.010580086
0.010585414
0.010587871
0.010587656
0.010585044
0.010580332
0.010573816
0.010565784
0.0105565
0.010546203
0.010535103
0.010523384
0.010511201
0.010498685
0.010485945
0.010473071
0.010460138
0.010447203
0.010434313
0.010421503
0.0104088
0.010396221
0.01038378
0.010371481
0.010359326
0.010347312
0.010335433
0.010323683
0.010312052
0.010300529
0.010289102
0.01027776
0.010266488
0.010255271
0.010244089
0.010232919
0.010221733
0.010210491
0.010199148
0.010187645
0.010175915
0.010163882
0.010151466
0.01013859
0.010125179
0.010111172
0.010096521
0.010081197
0.01006521
0.010048639
0.0100318
0.01001608
0.01000451
0.0099958469
0.0099896982
0.0099856173
0.0099832482
0.0099822924
0.0099824717
0.0099835271
0.0099852615
0.0099875325
0.009990144
0.0099927859
0.0099952819
0.0099981057
0.01376732
0.012868071
0.011014565
0.010812307
0.01064596
0.01061364
0.010598691
0.010604522
0.010616407
0.010630267
0.010643051
0.010653377
0.010660559
0.010664392
0.010664966
0.010662539
0.010657454
0.010650084
0.010640805
0.010629967
0.010617888
0.010604844
0.010591073
0.010576777
0.010562125
0.010547254
0.010532279
0.01051729
0.010502358
0.010487541
0.010472879
0.010458406
0.010444142
0.010430102
0.010416293
0.010402717
0.010389371
0.010376247
0.010363336
0.010350626
0.0103381
0.010325744
0.010313538
0.010301466
0.010289508
0.010277645
0.010265859
0.010254129
0.010242433
0.010230748
0.010219046
0.010207295
0.010195456
0.010183481
0.010171315
0.010158895
0.010146151
0.010133009
0.010119394
0.010105233
0.010090454
0.010074992
0.010058815
0.010042031
0.010025278
0.010011363
0.010000759
0.0099928948
0.0099873267
0.0099836677
0.0099815857
0.0099808138
0.0099811147
0.0099822632
0.0099840721
0.0099864023
0.0099891057
0.0099919893
0.009994938
0.0099981438
0.013451729
0.012499045
0.011008196
0.010867768
0.010748301
0.010730264
0.010724982
0.010731982
0.010740951
0.010748773
0.010753631
0.010754956
0.01075272
0.010747194
0.010738794
0.010727984
0.010715218
0.010700915
0.010685441
0.010669113
0.010652194
0.0106349
0.010617407
0.010599854
0.010582351
0.010564986
0.010547823
0.010530912
0.01051429
0.01049798
0.010481998
0.010466352
0.010451043
0.010436068
0.010421419
0.010407085
0.010393051
0.010379301
0.010365816
0.010352575
0.010339557
0.010326739
0.010314097
0.010301606
0.010289243
0.010276983
0.0102648
0.010252671
0.01024057
0.010228472
0.010216349
0.010204171
0.010191904
0.010179512
0.01016695
0.010154167
0.010141107
0.010127708
0.010113906
0.010099634
0.010084822
0.010069399
0.010053317
0.010036673
0.010020232
0.0100076
0.0099978054
0.0099905607
0.0099854413
0.0099821019
0.009980235
0.009979599
0.0099799894
0.0099812041
0.0099830565
0.009985413
0.0099881822
0.0099912753
0.0099946039
0.0099981461
0.0132305
0.012231738
0.011049107
0.010964962
0.010880968
0.010867148
0.010862709
0.010863549
0.010863269
0.010860126
0.010853486
0.010843484
0.010830553
0.010815217
0.010798004
0.01077939
0.010759786
0.010739534
0.010718912
0.010698138
0.010677384
0.010656784
0.010636437
0.010616418
0.010596779
0.010577557
0.010558776
0.010540451
0.010522587
0.010505183
0.010488233
0.010471726
0.010455649
0.010439986
0.010424718
0.010409823
0.010395279
0.010381064
0.010367151
0.010353516
0.010340132
0.010326971
0.010314005
0.010301207
0.010288547
0.010275998
0.010263529
0.010251111
0.010238716
0.010226315
0.010213876
0.010201372
0.010188769
0.010176036
0.010163136
0.010150029
0.010136671
0.010123012
0.010109
0.010094579
0.010079693
0.010064289
0.010048347
0.010032037
0.010016377
0.010004645
0.0099954981
0.0099887215
0.0099839313
0.0099808204
0.0099791099
0.0099785759
0.0099790334
0.0099803001
0.0099821921
0.0099845836
0.0099874268
0.0099906972
0.0099943086
0.0099981062
0.013102939
0.01206491
0.011143893
0.011092754
0.011028549
0.011010852
0.010997535
0.010985563
0.010971386
0.010954524
0.010935119
0.010913642
0.010890626
0.010866567
0.010841882
0.010816909
0.010791913
0.010767094
0.010742603
0.010718549
0.010695007
0.010672029
0.010649648
0.010627881
0.010606735
0.010586207
0.010566291
0.010546972
0.010528233
0.010510056
0.010492419
0.010475299
0.010458671
0.01044251
0.01042679
0.010411484
0.010396564
0.010382002
0.010367771
0.01035384
0.010340181
0.010326765
0.010313561
0.010300538
0.010287667
0.010274915
0.010262251
0.010249642
0.010237056
0.01022446
0.010211821
0.010199107
0.010186284
0.010173318
0.010160178
0.010146826
0.010133227
0.01011934
0.010105121
0.010090528
0.010075516
0.010060056
0.010044173
0.010028164
0.010013525
0.010002389
0.0099937305
0.0099872885
0.0099827244
0.0099797656
0.009978164
0.00997771
0.0099782215
0.0099795313
0.0099814685
0.0099839156
0.0099868507
0.0099902712
0.0099940801
0.0099980541
0.013037333
0.011993725
0.011302306
0.011234729
0.011174605
0.011142673
0.011113643
0.011085346
0.011056107
0.011025948
0.010995142
0.010964058
0.010933026
0.010902311
0.010872114
0.010842574
0.010813788
0.010785814
0.010758687
0.010732419
0.010707009
0.010682448
0.010658715
0.010635788
0.01061364
0.010592241
0.010571562
0.010551571
0.010532236
0.010513527
0.010495411
0.010477857
0.010460834
0.010444311
0.010428257
0.010412642
0.010397435
0.010382606
0.010368125
0.010353961
0.010340085
0.010326465
0.010313071
0.010299874
0.01028684
0.01027394
0.01026114
0.010248408
0.010235709
0.010223009
0.010210272
0.010197463
0.010184545
0.010171483
0.010158238
0.010144775
0.010131054
0.010117036
0.010102682
0.010087952
0.010072818
0.010057272
0.010041384
0.010025552
0.010011559
0.010000813
0.0099924563
0.0099862189
0.0099817941
0.0099789315
0.0099773957
0.0099769869
0.0099775415
0.0099788839
0.0099808683
0.0099833833
0.0099864187
0.0099899657
0.0099939098
0.0099980056
0.01304585
0.011953602
0.011456212
0.01136716
0.011295434
0.011245093
0.011198994
0.0111557
0.011113932
0.011073514
0.011034398
0.010996612
0.010960176
0.010925096
0.010891358
0.010858933
0.010827782
0.010797858
0.010769112
0.010741492
0.010714945
0.010689418
0.01066486
0.010641222
0.010618455
0.010596514
0.010575355
0.010554935
0.010535213
0.010516152
0.010497713
0.01047986
0.010462559
0.010445774
0.010429474
0.010413625
0.010398195
0.010383153
0.010368469
0.010354111
0.01034005
0.010326255
0.010312698
0.010299347
0.010286173
0.010273145
0.010260234
0.010247407
0.010234631
0.010221874
0.010209101
0.010196276
0.010183361
0.010170318
0.010157108
0.010143689
0.010130021
0.010116058
0.010101754
0.010087064
0.01007195
0.010056395
0.010040473
0.010024621
0.010010796
0.010000138
0.0099918269
0.0099856143
0.0099812143
0.0099783831
0.0099768761
0.0099764142
0.0099769927
0.0099783535
0.0099803798
0.0099829644
0.0099860916
0.0099897347
0.0099937691
0.0099979563
0.013137328
0.011980071
0.011572051
0.01146339
0.011376306
0.011310076
0.011251115
0.011197532
0.01114771
0.011101004
0.011056974
0.011015332
0.010975852
0.01093835
0.010902671
0.010868678
0.01083625
0.010805277
0.010775663
0.010747316
0.010720156
0.010694107
0.0106691
0.010645072
0.010621962
0.010599716
0.010578282
0.010557612
0.010537659
0.010518383
0.010499741
0.010481696
0.010464209
0.010447246
0.010430771
0.010414751
0.010399154
0.010383947
0.0103691
0.010354581
0.010340361
0.010326411
0.010312702
0.010299204
0.01028589
0.01027273
0.010259697
0.010246761
0.010233893
0.010221061
0.010208235
0.010195379
0.010182461
0.010169443
0.010156288
0.010142959
0.010129417
0.010115623
0.01010154
0.010087129
0.010072358
0.010057206
0.010041704
0.010026122
0.010011746
0.010000789
0.0099922013
0.0099857725
0.0099811928
0.0099782092
0.0099765793
0.0099760624
0.0099766006
0.0099779503
0.0099799906
0.0099826279
0.0099858271
0.0099895415
0.0099936412
0.0099979064
0.013261036
0.012036155
0.011633198
0.011511902
0.011414718
0.011340171
0.011275142
0.011217071
0.011163926
0.011114729
0.011068813
0.011025724
0.010985121
0.010946736
0.010910353
0.01087579
0.010842894
0.010811532
0.010781585
0.010752952
0.010725539
0.010699264
0.010674051
0.010649832
0.010626543
0.010604126
0.010582527
0.010561696
0.010541587
0.010522154
0.010503358
0.010485157
0.010467515
0.010450396
0.010433763
0.010417584
0.010401825
0.010386455
0.010371442
0.010356755
0.010342366
0.010328245
0.010314362
0.01030069
0.010287201
0.010273866
0.010260658
0.010247549
0.01023451
0.010221511
0.010208521
0.010195508
0.010182436
0.010169268
0.010155967
0.010142495
0.010128814
0.010114888
0.010100682
0.010086165
0.01007131
0.010056105
0.010040605
0.010025149
0.010011316
0.010000605
0.0099921698
0.0099857771
0.0099811548
0.0099780937
0.009976402
0.009975864
0.009976381
0.0099776761
0.0099797178
0.009982372
0.0099856107
0.0099893714
0.0099935233
0.0099978605
68.034827
368.50512
123.86356
14.830574
0.40709809
0.021292144
0.01995136
0.019643504
0.019382474
0.018333072
0.017018881
0.015853512
0.014966149
0.014400442
0.013997621
0.013617361
0.013247904
0.012919833
0.01264382
0.01241273
0.012216315
0.012046911
0.011899372
0.011769966
0.01165571
0.011554137
0.011463273
0.011381551
0.011307744
0.011240881
0.011180157
0.011124869
0.011074405
0.011028251
0.010986001
0.010947322
0.010911932
0.010879574
0.010850011
0.010823026
0.010798431
0.010776043
0.010755687
0.010737207
0.010720464
0.010705327
0.010691667
0.01067936
0.010668294