/*--------------------------------*- C++ -*----------------------------------*\
  =========                 |
  \\      /  F ield         | OpenFOAM: The Open Source CFD Toolbox
   \\    /   O peration     | Website:  https://openfoam.org
    \\  /    A nd           | Version:  12
     \\/     M anipulation  |
\*---------------------------------------------------------------------------*/
FoamFile
{
    format      ascii;
    class       volScalarField;
    location    "0.073";
    object      Ma;
}
// * * * * * * * * * * * * * * * * * * * * * * * * * * * * * * * * * * * * * //

dimensions      [];

internalField   nonuniform List<scalar> 
16000
(
0.62439712
0.74184979
0.69735653
0.72157065
0.70665621
0.71350091
0.70785657
0.70934069
0.7067152
0.70626269
0.70464838
0.70351395
0.70210341
0.70072609
0.69926683
0.69776122
0.69619801
0.69457881
0.69290237
0.69116823
0.68937599
0.68752551
0.68561688
0.68365046
0.68162694
0.67954733
0.67741301
0.67522572
0.67298762
0.67070126
0.66836964
0.66599617
0.66358468
0.6611394
0.65866497
0.65616639
0.65364897
0.65111832
0.64858026
0.64604076
0.6435059
0.64098178
0.63847444
0.63598981
0.63353359
0.63111124
0.62872788
0.62638821
0.62409652
0.62185658
0.61967167
0.61754453
0.61547738
0.61347192
0.61152935
0.60965042
0.6078354
0.6060842
0.60439633
0.60277079
0.60120606
0.59970027
0.5982511
0.59685536
0.59550885
0.59420632
0.5929415
0.59170731
0.59049636
0.58930037
0.58811039
0.58691291
0.58568596
0.5843997
0.58301848
0.58161326
0.57997062
0.5797359
0.57741424
0.57940836
0.62888498
0.74705147
0.70059806
0.72622252
0.71048166
0.71779084
0.71169546
0.71330145
0.71048981
0.70996638
0.70826293
0.70701317
0.7055107
0.7040192
0.70245123
0.7008291
0.69914684
0.69740437
0.69560107
0.6937365
0.69181053
0.68982326
0.68777513
0.68566689
0.68349967
0.68127498
0.67899475
0.67666134
0.67427754
0.67184661
0.66937226
0.66685865
0.6643104
0.66173252
0.65913041
0.65650983
0.6538768
0.65123758
0.6485986
0.64596634
0.64334729
0.64074787
0.63817432
0.63563263
0.63312847
0.63066712
0.62825341
0.62589166
0.62358566
0.6213386
0.61915313
0.61703132
0.61497467
0.61298416
0.61106029
0.60920305
0.60741207
0.6056866
0.60402553
0.60242737
0.60089009
0.59941133
0.59798835
0.5966176
0.59529461
0.59401394
0.59276923
0.59155341
0.59035899
0.58917801
0.58800108
0.5868141
0.58559506
0.58431596
0.58295008
0.58149501
0.58010563
0.57932817
0.5777657
0.57911103
0.63308944
0.75183899
0.70418605
0.73028234
0.71408471
0.72149728
0.71524304
0.71673938
0.71387266
0.71319329
0.7114216
0.71003478
0.70842828
0.7068105
0.70511849
0.70336584
0.70154918
0.69966814
0.69772237
0.69571173
0.69363644
0.691497
0.6892943
0.6870296
0.68470461
0.68232146
0.67988275
0.67739159
0.67485155
0.67226675
0.66964176
0.66698166
0.66429198
0.66157864
0.65884796
0.65610654
0.65336121
0.65061895
0.64788679
0.64517174
0.64248067
0.63982021
0.6371967
0.63461607
0.63208377
0.62960473
0.62718327
0.62482312
0.62252733
0.62029834
0.61813793
0.6160473
0.61402704
0.61207725
0.61019752
0.60838703
0.60664459
0.60496867
0.60335748
0.60180891
0.60032033
0.59888886
0.59751126
0.59618359
0.59490105
0.59365799
0.59244801
0.59126412
0.59009897
0.58894474
0.58779172
0.58662528
0.58542403
0.58416131
0.58280627
0.58136334
0.58007342
0.57915874
0.57797036
0.57895892
0.63693786
0.75621646
0.70725219
0.73385161
0.71724101
0.72476223
0.71834259
0.71971068
0.71678039
0.71592598
0.71407175
0.71253202
0.71080364
0.70904352
0.70721004
0.70531009
0.70334229
0.70130626
0.69920198
0.6970297
0.69479005
0.69248399
0.69011297
0.68767884
0.68518399
0.68263131
0.68002424
0.67736678
0.67466348
0.67191946
0.66914036
0.66633233
0.66350195
0.6606562
0.6578024
0.65494804
0.65210079
0.64926833
0.64645823
0.6436779
0.64093443
0.63823451
0.63558433
0.63298951
0.63045504
0.62798519
0.62558354
0.62325291
0.62099543
0.61881249
0.61670483
0.61467257
0.61271524
0.6108319
0.60902117
0.60728127
0.60561016
0.60400552
0.60246481
0.60098525
0.59956368
0.59819666
0.5968805
0.59561088
0.59438275
0.59319034
0.59202723
0.59088659
0.58976131
0.58864364
0.5875236
0.58638631
0.58521137
0.58397218
0.58263703
0.58123582
0.58000026
0.57902386
0.57807708
0.57884337
0.64042693
0.76012541
0.71005485
0.73679831
0.71980371
0.72748198
0.72094406
0.7221235
0.71914882
0.71808346
0.71613572
0.714425
0.71255595
0.71063751
0.70864522
0.7065816
0.70444631
0.70223913
0.69996036
0.69761064
0.69519106
0.69270317
0.6901491
0.68753148
0.6848536
0.68211934
0.67933321
0.67650038
0.67362663
0.67071833
0.6677824
0.66482626
0.66185774
0.65888498
0.65591634
0.65296029
0.65002525
0.64711951
0.64425106
0.6414275
0.6386559
0.63594271
0.6332937
0.63071383
0.62820728
0.62577738
0.62342662
0.62115664
0.61896834
0.61686184
0.61483664
0.61289158
0.61102502
0.60923488
0.60751871
0.60587377
0.60429711
0.60278562
0.60133602
0.59994491
0.59860858
0.5973231
0.59608436
0.59488772
0.59372793
0.59259915
0.59149507
0.59040907
0.58933431
0.58826314
0.58718528
0.58608596
0.58494562
0.58373739
0.58243316
0.58108233
0.57989386
0.5789248
0.57813387
0.57876939
0.64350435
0.76347915
0.71242372
0.73929937
0.72202645
0.72957341
0.72290871
0.72389564
0.72088717
0.71959037
0.71753642
0.71564328
0.71361724
0.71152715
0.70936054
0.70711754
0.70479826
0.70240288
0.69993213
0.69738725
0.69477007
0.69208302
0.68932919
0.68651236
0.68363704
0.68070845
0.67773254
0.67471595
0.67166598
0.66859054
0.66549807
0.66239743
0.6592978
0.65620855
0.65313909
0.65009874
0.64709656
0.64414122
0.64124084
0.63840288
0.63563403
0.63294011
0.63032601
0.62779568
0.62535207
0.62299715
0.62073199
0.61855677
0.61647086
0.61447292
0.61256099
0.61073257
0.60898472
0.60731419
0.60571744
0.6041908
0.60273045
0.60133251
0.59999307
0.59870815
0.59747357
0.59628501
0.595138
0.59402768
0.59294869
0.59189521
0.59086112
0.58984008
0.58882555
0.58780991
0.58678271
0.5857295
0.58463148
0.58346194
0.58219909
0.58090632
0.57976729
0.57882419
0.57815951
0.57870479
0.64613331
0.76625567
0.7143473
0.74131314
0.72379281
0.7310127
0.72436655
0.72498348
0.72198286
0.72042027
0.71824567
0.71615904
0.71395639
0.7116765
0.70931459
0.70687021
0.70434406
0.70173705
0.69905077
0.69628745
0.69345004
0.69054225
0.68756856
0.68453429
0.68144557
0.67830937
0.6751334
0.67192614
0.66869671
0.6654548
0.66221052
0.65897431
0.65575671
0.65256825
0.64941925
0.64631965
0.64327882
0.64030544
0.63740731
0.63459129
0.63186316
0.6292276
0.62668814
0.62424717
0.62190599
0.61966484
0.61752298
0.61547884
0.61353007
0.61167367
0.60990613
0.60822355
0.60662169
0.60509614
0.60364238
0.60225583
0.60093193
0.59966616
0.59845406
0.59729119
0.59617303
0.59509496
0.5940523
0.59304006
0.59205287
0.59108505
0.59013072
0.58918391
0.58823837
0.58728645
0.58631765
0.58531807
0.58426962
0.58314642
0.58193438
0.58070657
0.57962176
0.57871852
0.5781679
0.5786398
0.64834864
0.76848017
0.71586153
0.74286399
0.72515564
0.73199797
0.72535407
0.72582458
0.72243829
0.72059155
0.71826204
0.71595664
0.71354402
0.71104332
0.70845399
0.70577623
0.70301152
0.70016186
0.69723002
0.69421961
0.6911351
0.68798188
0.68476628
0.68149557
0.67817794
0.67482248
0.67143909
0.66803839
0.66463155
0.66123023
0.6578463
0.65449171
0.65117825
0.64791738
0.64471995
0.6415961
0.63855499
0.63560472
0.63275215
0.63000289
0.62736117
0.62482989
0.62241064
0.62010374
0.61790836
0.61582262
0.61384371
0.61196806
0.61019145
0.60850919
0.60691622
0.60540723
0.60397682
0.60261953
0.60132996
0.60010283
0.59893296
0.59781536
0.59674519
0.59571771
0.59472819
0.59377187
0.59284398
0.59193954
0.59105328
0.59017977
0.58931346
0.58844878
0.58757969
0.58669854
0.58579491
0.58485564
0.5838634
0.58279395
0.58164155
0.58048527
0.5794586
0.57860278
0.57815138
0.57856498
0.65021618
0.77017985
0.71692745
0.74395219
0.72587409
0.73208482
0.72551828
0.72521689
0.72217653
0.72005554
0.71752262
0.71496281
0.71229853
0.70953793
0.70668236
0.70373322
0.70069306
0.69756529
0.69435431
0.69106554
0.68770546
0.68428167
0.68080284
0.67727874
0.6737201
0.67013859
0.66654662
0.66295724
0.65938387
0.65584012
0.65233954
0.64889536
0.64552027
0.64222611
0.6390237
0.63592265
0.63293116
0.63005593
0.62730207
0.62467311
0.62217097
0.6197961
0.61754752
0.615423
0.61341916
0.61153174
0.60975567
0.60808529
0.60651454
0.60503706
0.60364637
0.60233596
0.6010994
0.59993043
0.59882299
0.59777128
0.59676975
0.59581313
0.59489638
0.59401466
0.59316319
0.59233723
0.59153207
0.59074287
0.58996462
0.5891922
0.58842046
0.58764421
0.58685761
0.58605297
0.58522016
0.58434694
0.58341683
0.58240816
0.58132362
0.58024437
0.57927939
0.57847658
0.57811519
0.57847396
0.65174354
0.77133707
0.71747802
0.7444057
0.72588283
0.73166336
0.72507961
0.72440027
0.72116779
0.71869549
0.71590915
0.71305683
0.71009708
0.70703393
0.70386982
0.70060793
0.69725246
0.69380883
0.69028366
0.68668483
0.68302154
0.67930426
0.67554468
0.67175566
0.66795101
0.66414541
0.6603541
0.65659267
0.65287675
0.64922174
0.64564246
0.6421529
0.63876587
0.63549282
0.63234356
0.62932616
0.62644679
0.62370972
0.62111731
0.61867009
0.61636691
0.61420507
0.61218051
0.61028807
0.60852163
0.60687441
0.60533908
0.60390802
0.60257347
0.60132765
0.60016292
0.59907184
0.59804727
0.59708241
0.59617082
0.59530645
0.59448364
0.59369706
0.59294169
0.59221276
0.59150562
0.59081572
0.59013858
0.58946962
0.58880419
0.58813757
0.58746507
0.58678182
0.58608211
0.58535833
0.58460079
0.58379825
0.58293539
0.58199405
0.5809848
0.57998627
0.57908562
0.57834227
0.57805506
0.57836233
0.6528739
0.77185505
0.71743829
0.74337591
0.72512386
0.73031656
0.72387419
0.72260459
0.7192378
0.71639097
0.71329353
0.71010289
0.70679856
0.70338471
0.69986513
0.6962453
0.69253184
0.68873295
0.68485833
0.68091924
0.67692844
0.67290015
0.66884984
0.66479409
0.66075033
0.65673648
0.65277073
0.64887106
0.64505494
0.64133895
0.63773836
0.63426687
0.6309363
0.62775637
0.62473453
0.62187594
0.61918345
0.61665768
0.61429719
0.61209867
0.61005717
0.6081664
0.60641893
0.60480654
0.60332039
0.60195134
0.60069005
0.59952726
0.59845386
0.59746103
0.59654035
0.59568385
0.59488403
0.5941339
0.59342697
0.59275724
0.59211915
0.59150758
0.59091773
0.59034508
0.5897853
0.58923415
0.58868754
0.58814128
0.58759116
0.58703294
0.58646236
0.58587484
0.58526478
0.58462471
0.58394563
0.58321732
0.5824259
0.5815579
0.58063023
0.57971368
0.57887766
0.5782019
0.57797499
0.57823173
0.65350871
0.77155941
0.7166879
0.74158435
0.7237321
0.72811514
0.72173473
0.71986064
0.71626256
0.71300065
0.70952896
0.70594564
0.70224113
0.69842218
0.69449486
0.69046781
0.68635123
0.68215725
0.67789987
0.67359487
0.66925971
0.66491323
0.66057547
0.65626725
0.65200978
0.64782429
0.64373148
0.63975112
0.63590156
0.63219929
0.62865859
0.62529119
0.62210615
0.61910964
0.61630505
0.61369305
0.61127174
0.60903699
0.60698265
0.60510096
0.60338285
0.60181828
0.60039656
0.59910661
0.59793726
0.59687741
0.59591624
0.59504333
0.59424874
0.59352314
0.5928578
0.59224465
0.59167624
0.59114576
0.59064698
0.59017422
0.5897223
0.58928649
0.58886242
0.588446
0.58803333
0.58762066
0.58720436
0.58678075
0.58634614
0.58589677
0.58542881
0.58493792
0.58441861
0.58386374
0.5832651
0.58261345
0.58189689
0.58110744
0.58026615
0.57943116
0.57865858
0.57805921
0.57787891
0.5780887
0.65358055
0.77037059
0.71508758
0.73912137
0.72148677
0.72488062
0.71853783
0.71600626
0.71209403
0.70836643
0.7044486
0.70040657
0.69623675
0.69195004
0.68755644
0.68306928
0.67850391
0.67387802
0.66921137
0.66452559
0.65984385
0.65519049
0.65059052
0.64606911
0.64165104
0.63736007
0.63321838
0.62924596
0.62546015
0.62187522
0.61850207
0.61534815
0.61241738
0.60971034
0.60722447
0.60495444
0.60289253
0.60102903
0.59935273
0.59785129
0.59651169
0.5953205
0.59426427
0.59332972
0.59250399
0.59177473
0.59113031
0.59055981
0.59005312
0.5896009
0.58919467
0.58882667
0.58848993
0.58817813
0.5878856
0.58760725
0.58733847
0.58707512
0.5868134
0.58654978
0.58628091
0.58600363
0.58571487
0.58541152
0.58509042
0.58474834
0.58438179
0.58398668
0.5835577
0.58308825
0.58257094
0.58199752
0.58135854
0.58065183
0.57989998
0.57914599
0.57843693
0.57791234
0.57777119
0.57794009
0.65307089
0.76819335
0.71256524
0.73555396
0.71823013
0.72052194
0.71413668
0.7108959
0.70655937
0.70229471
0.69784568
0.6932646
0.68855326
0.68372843
0.67880638
0.6738072
0.66875338
0.66366991
0.65858381
0.65352371
0.64851934
0.64360083
0.63879807
0.63413989
0.62965332
0.62536278
0.62128948
0.61745079
0.61385992
0.61052574
0.60745268
0.60464104
0.60208722
0.59978421
0.59772209
0.59588861
0.59426975
0.59285025
0.5916141
0.590545
0.58962667
0.58884324
0.58817937
0.58762053
0.58715307
0.58676428
0.58644247
0.58617696
0.58595806
0.58577703
0.58562606
0.58549815
0.58538711
0.58528743
0.58519423
0.58510318
0.58501043
0.58491255
0.58480641
0.58468916
0.58455806
0.58441062
0.58424436
0.58405676
0.58384525
0.58360704
0.58333899
0.58303723
0.58269684
0.58231191
0.58187594
0.5813816
0.58082233
0.58020133
0.57954022
0.57886652
0.57822269
0.57775901
0.57765622
0.57779248
0.65192326
0.76485836
0.70906607
0.73082093
0.71380899
0.71486476
0.70833078
0.70431262
0.69942467
0.69452824
0.68944816
0.68423512
0.6788988
0.67346423
0.66795662
0.66240511
0.65684138
0.6512994
0.64581475
0.64042388
0.63516317
0.63006799
0.62517158
0.62050408
0.61609157
0.61195537
0.60811147
0.60457033
0.60133684
0.59841063
0.59578649
0.593455
0.59140327
0.5896156
0.58807429
0.5867603
0.58565388
0.58473509
0.58398425
0.58338228
0.582911
0.58255326
0.58229309
0.58211579
0.58200792
0.58195729
0.58195295
0.5819851
0.58204505
0.58212512
0.58221856
0.58231944
0.58242261
0.58252358
0.58261841
0.58270368
0.58277639
0.5828339
0.58287383
0.58289402
0.58289243
0.58286723
0.58281654
0.58273847
0.58263094
0.58249162
0.58231768
0.58210559
0.58185094
0.58154871
0.58119329
0.58077837
0.58030025
0.57976652
0.5791959
0.57860159
0.57802166
0.57761498
0.57754033
0.57765304
0.65008152
0.76012726
0.70462797
0.72472464
0.70801411
0.70768543
0.70085141
0.69595987
0.69037175
0.68472605
0.67890397
0.6729617
0.66692051
0.66081621
0.65468572
0.6485697
0.64251111
0.63655446
0.63074461
0.62512541
0.61973829
0.6146208
0.60980538
0.60531827
0.60117891
0.5973995
0.59398517
0.5909343
0.58823923
0.58588711
0.58386086
0.58214018
0.5807025
0.5795239
0.57857986
0.57784591
0.5772982
0.57691382
0.57667117
0.57655008
0.57653198
0.57659991
0.5767385
0.57693397
0.57717402
0.57744778
0.57774566
0.57805931
0.57838144
0.57870577
0.57902688
0.57934013
0.57964156
0.57992779
0.58019595
0.58044355
0.5806685
0.58086898
0.58104336
0.5811902
0.58130818
0.58139607
0.58145261
0.58147647
0.58146605
0.58141943
0.58133412
0.581207
0.58103439
0.58081225
0.58053587
0.58020008
0.57980377
0.57935723
0.57887552
0.57835995
0.5778426
0.57748899
0.57743305
0.57752932
0.6474883
0.75361565
0.6991587
0.7170051
0.70053931
0.69863907
0.69131183
0.68542497
0.67897736
0.67245534
0.66578238
0.65902429
0.65221829
0.64541462
0.63866544
0.63202584
0.62555186
0.61929872
0.61331874
0.60765937
0.60236134
0.59745728
0.59297077
0.58891597
0.58529775
0.58211237
0.57934841
0.57698809
0.57500852
0.57338313
0.57208293
0.57107765
0.5703367
0.56982999
0.56952853
0.56940485
0.56943333
0.56959035
0.56985436
0.57020592
0.57062762
0.57110399
0.57162136
0.57216779
0.57273285
0.57330755
0.57388416
0.57445607
0.57501769
0.57556431
0.576092
0.57659748
0.57707803
0.57753142
0.57795582
0.57834975
0.57871196
0.57904143
0.57933729
0.57959879
0.57982527
0.58001608
0.58017055
0.58028782
0.58036676
0.58040582
0.58040289
0.58035539
0.58026045
0.58011503
0.5799154
0.57965766
0.57934269
0.57898157
0.57858554
0.57814833
0.57769447
0.57738927
0.57734533
0.57742805
0.64401199
0.744653
0.69203168
0.70721103
0.69092814
0.68725045
0.67920666
0.67219143
0.6647272
0.65720518
0.64958783
0.64195589
0.63436906
0.6268975
0.6196122
0.61258394
0.6058799
0.59956094
0.59367891
0.58827473
0.5833771
0.57900213
0.57515371
0.57182449
0.56899742
0.56664755
0.56474393
0.56325144
0.56213253
0.56134867
0.5608616
0.56063419
0.56063121
0.56081975
0.5611695
0.56165292
0.56224519
0.56292419
0.56367034
0.56446647
0.56529759
0.56615074
0.56701477
0.56788015
0.5687388
0.56958393
0.57040989
0.571212
0.57198644
0.57273012
0.57344059
0.57411591
0.5747546
0.57535552
0.57591786
0.57644102
0.57692461
0.57736835
0.57777206
0.57813562
0.57845898
0.57874205
0.57898462
0.57918629
0.57934633
0.57946358
0.57953637
0.57956273
0.57954059
0.57946783
0.57934174
0.5791599
0.57892446
0.57864529
0.57832986
0.57797029
0.57758649
0.57732419
0.57728557
0.57735114
0.63936601
0.73320984
0.68281931
0.69477968
0.67860057
0.67295856
0.66393545
0.65564089
0.64700803
0.63837931
0.62976472
0.6212687
0.61298009
0.60499191
0.59739196
0.59025964
0.58366194
0.57765071
0.57226101
0.56751077
0.56340151
0.55992005
0.55704083
0.55472854
0.55294087
0.55163102
0.55075005
0.55024867
0.55007881
0.55019465
0.5505534
0.5511157
0.5518459
0.55271204
0.55368574
0.5547421
0.55585935
0.55701868
0.55820388
0.55940114
0.56059873
0.56178678
0.56295707
0.56410277
0.56521833
0.56629926
0.56734199
0.56834374
0.56930242
0.57021649
0.57108488
0.57190691
0.57268222
0.57341069
0.57409241
0.5747276
0.57531662
0.57585986
0.57635777
0.57681079
0.57721941
0.57758398
0.57790474
0.57818169
0.57841446
0.57860228
0.57874399
0.57883822
0.57888363
0.57887884
0.57882223
0.57871286
0.57855352
0.57835146
0.57811037
0.57782495
0.5775154
0.57729682
0.57725983
0.57729359
0.63318545
0.72036091
0.67096199
0.6791274
0.66284163
0.65504467
0.64473255
0.63498851
0.62506961
0.61530112
0.60575275
0.5965581
0.5878323
0.57968135
0.57219309
0.56543415
0.55944749
0.55425239
0.54984578
0.54620511
0.54329195
0.54105594
0.53943868
0.53837737
0.53780773
0.53766649
0.53789308
0.53843093
0.53922815
0.54023788
0.5414184
0.54273293
0.54414939
0.54564002
0.54718102
0.54875208
0.55033603
0.55191844
0.5534873
0.55503267
0.55654641
0.55802192
0.55945398
0.56083846
0.56217225
0.56345302
0.56467919
0.56584971
0.56696406
0.56802208
0.56902395
0.56997008
0.5708611
0.57169776
0.57248096
0.57321163
0.57389075
0.57451932
0.57509831
0.57562868
0.57611133
0.57654703
0.57693636
0.57727968
0.57757697
0.57782788
0.57803174
0.57818776
0.57829515
0.57835318
0.57836118
0.57831947
0.57823092
0.57809976
0.57792611
0.57770865
0.57747361
0.57730123
0.57725687
0.57724741
0.62514481
0.70351229
0.65563103
0.65936987
0.64261134
0.6324528
0.62056815
0.6092715
0.59809639
0.58736247
0.57719564
0.56774561
0.55912862
0.55143195
0.54470859
0.53897813
0.5342293
0.53042462
0.5275061
0.52540129
0.52402891
0.52330388
0.52314134
0.52345962
0.52418236
0.52523969
0.52656889
0.52811451
0.52982809
0.53166778
0.53359778
0.53558766
0.53761185
0.53964892
0.54168113
0.54369384
0.54567512
0.54761534
0.54950681
0.5513435
0.55312075
0.55483512
0.55648413
0.55806615
0.55958023
0.56102601
0.5624036
0.56371348
0.56495646
0.56613356
0.56724601
0.56829514
0.56928242
0.57020934
0.57107744
0.57188827
0.57264335
0.57334413
0.57399208
0.57458854
0.57513476
0.57563186
0.57608071
0.57648197
0.57683598
0.57714277
0.57740215
0.57761378
0.57777734
0.5778926
0.57795964
0.57797948
0.5779545
0.57788658
0.57777408
0.57761795
0.57744535
0.5773199
0.57727368
0.57720074
0.61460458
0.68170317
0.63543786
0.63409166
0.61643685
0.60379716
0.59027023
0.57758444
0.56552256
0.55438076
0.54429982
0.53540009
0.52774689
0.52135864
0.5162098
0.51223915
0.50935874
0.50746323
0.50643828
0.50616761
0.50653832
0.50744459
0.50878992
0.51048822
0.51246407
0.51465229
0.5169973
0.51945216
0.52197761
0.52454105
0.52711566
0.52967953
0.53221492
0.5347076
0.53714627
0.53952211
0.54182835
0.5440599
0.5462131
0.54828547
0.55027547
0.5521824
0.55400617
0.55574727
0.55740659
0.55898538
0.56048519
0.56190774
0.56325491
0.5645287
0.56573118
0.56686444
0.5679306
0.56893175
0.56986998
0.57074731
0.57156569
0.57232697
0.57303297
0.57368538
0.57428572
0.57483535
0.57533543
0.57578686
0.57619028
0.5765461
0.57685449
0.57711549
0.57732915
0.57749567
0.57761558
0.57768993
0.57772016
0.57770688
0.57764917
0.57755028
0.57743155
0.57733357
0.57727136
0.57717662
0.60041285
0.65282996
0.60846562
0.60153905
0.58270865
0.56770022
0.55294635
0.53956635
0.52752389
0.51703483
0.50817125
0.50095018
0.49532145
0.4911859
0.48840873
0.48683466
0.48630058
0.48664568
0.48771845
0.48938106
0.49151146
0.49400388
0.49676825
0.49972892
0.50282311
0.50599929
0.50921546
0.51243778
0.51563916
0.51879813
0.52189787
0.52492538
0.52787076
0.53072666
0.53348782
0.53615064
0.53871289
0.54117345
0.5435321
0.5457893
0.54794613
0.5500041
0.55196509
0.55383126
0.55560501
0.55728885
0.55888543
0.56039747
0.56182769
0.56317885
0.56445365
0.56565478
0.56678487
0.56784649
0.56884213
0.56977417
0.57064492
0.57145655
0.57221113
0.5729106
0.57355672
0.57415103
0.57469489
0.57518943
0.57563554
0.57603391
0.57638499
0.57668912
0.57694666
0.57715813
0.57732418
0.57744539
0.57752221
0.577555
0.57754489
0.57749675
0.57742348
0.57734356
0.57726178
0.57715036
0.58060208
0.61454883
0.57252195
0.55990919
0.54039866
0.52345636
0.50862044
0.49596398
0.48545381
0.47713276
0.47090346
0.4666065
0.46403116
0.46294384
0.46310716
0.46429502
0.46630172
0.4689466
0.47207521
0.47555835
0.47928969
0.48318298
0.48716907
0.49119307
0.49521187
0.49919193
0.50310745
0.50693886
0.51067157
0.51429493
0.51780149
0.52118624
0.5244462
0.5275799
0.53058713
0.53346859
0.53622575
0.53886067
0.54137582
0.54377402
0.54605833
0.548232
0.55029842
0.55226102
0.5541233
0.55588878
0.55756092
0.55914316
0.56063887
0.56205134
0.56338379
0.56463933
0.56582096
0.56693162
0.56797408
0.56895104
0.56986503
0.57071845
0.57151361
0.57225259
0.57293731
0.57356948
0.5741506
0.57468196
0.57516465
0.57559954
0.57598727
0.57632842
0.57662361
0.57687352
0.57707863
0.57723882
0.57735379
0.57742444
0.57745418
0.57744823
0.57741075
0.57734315
0.57724672
0.57712764
0.55256083
0.56435528
0.52623527
0.50784781
0.48724497
0.47180121
0.4588483
0.44898518
0.44194728
0.43749213
0.43527403
0.43493028
0.43610392
0.43846927
0.44174236
0.44568458
0.45010082
0.45483488
0.45976384
0.4647923
0.46984713
0.47487295
0.47982833
0.48468276
0.48941418
0.49400707
0.49845093
0.50273913
0.50686797
0.510836
0.51464345
0.51829183
0.5217836
0.52512192
0.52831043
0.53135316
0.53425436
0.53701844
0.5396499
0.54215327
0.5445331
0.5467939
0.54894012
0.55097615
0.55290628
0.55473471
0.5564655
0.55810262
0.55964988
0.56111096
0.56248942
0.56378869
0.56501206
0.56616267
0.56724357
0.5682576
0.5692075
0.57009583
0.57092503
0.57169732
0.57241469
0.57307898
0.57369178
0.57425451
0.57476836
0.5752343
0.57565311
0.57602555
0.5763524
0.57663437
0.57687156
0.57706327
0.57720893
0.57731031
0.57737228
0.57739902
0.5773874
0.57732839
0.57722492
0.57711099
0.51217827
0.49968262
0.46253269
0.44467459
0.42728627
0.41511085
0.40681862
0.40219527
0.40058786
0.40141159
0.40409878
0.40816346
0.41320431
0.41890373
0.42501695
0.43135946
0.43779459
0.4442227
0.45057228
0.45679295
0.46285005
0.46872055
0.47438994
0.47985
0.48509702
0.4901306
0.49495266
0.4995668
0.50397776
0.50819106
0.5122127
0.51604897
0.51970634
0.52319127
0.52651021
0.52966952
0.53267542
0.53553399
0.53825112
0.54083256
0.54328386
0.5456104
0.54781738
0.54990983
0.55189257
0.55377028
0.55554743
0.5572283
0.55881704
0.56031758
0.56173372
0.56306909
0.56432716
0.56551125
0.56662454
0.56767002
0.56865052
0.56956874
0.57042717
0.5712281
0.57197361
0.57266557
0.57330565
0.57389532
0.57443583
0.5749282
0.5753733
0.57577199
0.57612514
0.57643335
0.57669634
0.57691305
0.57708339
0.5772096
0.57729714
0.57734817
0.57735456
0.57730296
0.57720055
0.5770978
0.45055168
0.41805624
0.38840959
0.37359734
0.36278299
0.3579919
0.35742642
0.36016976
0.36523245
0.37185635
0.3794573
0.3876117
0.39601981
0.40447508
0.41283826
0.42101784
0.42895571
0.43661688
0.44398222
0.45104343
0.45779947
0.46425414
0.47041439
0.4762891
0.48188833
0.48722271
0.49230312
0.49714038
0.50174511
0.50612763
0.51029791
0.51426547
0.51803946
0.52162857
0.52504111
0.52828496
0.53136766
0.53429636
0.53707789
0.53971876
0.54222519
0.54460312
0.54685822
0.54899592
0.55102141
0.55293963
0.55475533
0.55647301
0.55809699
0.55963139
0.56108013
0.56244698
0.56373553
0.56494921
0.56609126
0.56716478
0.56817264
0.5691176
0.5700022
0.57082873
0.57159932
0.57231586
0.57298004
0.57359335
0.57415705
0.57467218
0.57513968
0.57556046
0.57593539
0.57626488
0.57654846
0.57678512
0.57697504
0.57712124
0.57722865
0.57729744
0.57731708
0.57727402
0.5771792
0.57708895
0.35503215
0.32160941
0.30402869
0.29955866
0.30093747
0.30718838
0.31633687
0.32711987
0.33866556
0.35042381
0.36205965
0.37337759
0.38427026
0.39468485
0.40460187
0.41402181
0.42295675
0.43142526
0.43944914
0.44705145
0.45425536
0.46108343
0.46755721
0.47369709
0.47952217
0.48505028
0.49029804
0.49528087
0.50001312
0.50450814
0.50877833
0.51283524
0.51668967
0.52035167
0.52383067
0.52713551
0.53027449
0.53325544
0.53608572
0.53877232
0.54132183
0.54374054
0.54603439
0.54820905
0.5502699
0.55222207
0.55407044
0.55581963
0.55747408
0.55903799
0.56051538
0.56191007
0.56322573
0.56446584
0.56563369
0.56673239
0.56776488
0.5687339
0.56964201
0.5704915
0.57128449
0.57202287
0.57270833
0.57334232
0.57392611
0.57446075
0.57494722
0.57538646
0.57577927
0.57612594
0.57642598
0.57667865
0.57688402
0.5770463
0.57716879
0.57725052
0.57728091
0.57724818
0.57716476
0.57708484
0.21619676
0.21491734
0.2202905
0.23366051
0.25092816
0.26927215
0.28749074
0.30493516
0.321377
0.33675258
0.35108714
0.36444102
0.37688793
0.38850308
0.39935815
0.40951914
0.4190457
0.42799133
0.43640372
0.4443254
0.45179424
0.45884406
0.4655051
0.4718045
0.47776664
0.48341353
0.4887651
0.49383943
0.49865301
0.50322087
0.50755684
0.51167361
0.51558288
0.51929549
0.52282149
0.52617026
0.52935052
0.53237045
0.53523774
0.53795961
0.54054287
0.54299398
0.54531904
0.54752384
0.54961388
0.55159436
0.55347024
0.55524622
0.55692677
0.55851617
0.56001848
0.56143755
0.56277708
0.56404058
0.56523137
0.5663526
0.56740718
0.56839787
0.56932721
0.5701975
0.57101082
0.57176905
0.57247382
0.57312658
0.57372855
0.57428078
0.57478425
0.5752399
0.57564848
0.57601018
0.57632442
0.57659053
0.57680973
0.57698548
0.5771198
0.57721164
0.57725135
0.57722926
0.57715735
0.57708416
0.091780429
0.1216241
0.15897559
0.19255624
0.22262556
0.24909403
0.27258095
0.29355155
0.31242132
0.32951592
0.3450979
0.35937752
0.37252548
0.38468145
0.39596098
0.40646052
0.41626131
0.42543236
0.43403272
0.44211331
0.44971831
0.45688631
0.46365122
0.47004296
0.47608814
0.48181048
0.48723126
0.49236963
0.49724293
0.5018669
0.50625589
0.51042305
0.51438044
0.51813918
0.52170958
0.52510117
0.52832286
0.53138294
0.53428921
0.53704898
0.53966913
0.54215617
0.54451627
0.54675526
0.54887866
0.55089173
0.55279945
0.55460656
0.55631756
0.55793674
0.5594682
0.56091582
0.56228333
0.56357426
0.56479196
0.56593959
0.5670201
0.56803624
0.56899057
0.56988537
0.5707227
0.5715044
0.57223205
0.57290705
0.57353053
0.57410352
0.57462693
0.57510164
0.57552827
0.57590691
0.57623707
0.57651828
0.57675134
0.57693906
0.57708439
0.57718516
0.57723256
0.57721959
0.5771549
0.57708483
0.010581586
0.29564192
0.47125234
0.51962753
0.52950909
0.53004319
0.52971483
0.53084105
0.53234241
0.53383445
0.53531896
0.53676442
0.53818826
0.53959741
0.54100206
0.54241252
0.54383026
0.54525589
0.54668923
0.54812932
0.54957475
0.55102374
0.55247433
0.55392443
0.55537189
0.55681452
0.55825016
0.55967667
0.56109196
0.56249399
0.56388076
0.56525032
0.56660075
0.56793016
0.56923668
0.57051847
0.57177367
0.57300043
0.5741969
0.57536122
0.5764915
0.57758584
0.57864232
0.57965902
0.58063399
0.58156529
0.58245096
0.58328908
0.58407771
0.58481495
0.58549896
0.58612792
0.58670007
0.58721376
0.58766741
0.58805959
0.58838903
0.58865452
0.58885503
0.58898935
0.58905584
0.58905304
0.58897955
0.58883501
0.5886176
0.58833164
0.58796999
0.58755611
0.58704847
0.58654386
0.58585839
0.58530801
0.5843542
0.58392765
0.58246354
0.5822814
0.58008235
0.57997654
0.57748884
0.5775538
0.062919562
0.38317527
0.52199151
0.54738461
0.54830952
0.54647672
0.54560575
0.54574288
0.54593632
0.54623298
0.54661649
0.54716769
0.5478383
0.54859946
0.54942299
0.55030579
0.55124101
0.5522243
0.55325028
0.55431378
0.55541003
0.55653455
0.55768311
0.55885171
0.56003653
0.56123391
0.56244039
0.56365262
0.56486741
0.56608166
0.5672924
0.56849676
0.56969194
0.57087523
0.57204398
0.57319561
0.57432758
0.5754374
0.57652261
0.57758078
0.57860953
0.57960648
0.58056928
0.58149561
0.58238316
0.58322969
0.58403296
0.5847908
0.58550107
0.58616171
0.58677073
0.58732623
0.58782639
0.58826953
0.58865409
0.58897867
0.58924207
0.58944317
0.58958102
0.58965449
0.58966209
0.58960249
0.58947461
0.58927825
0.58901224
0.5886806
0.58827796
0.58782476
0.58728553
0.58674483
0.58603804
0.58545411
0.58449044
0.58402416
0.58255904
0.58233767
0.58010873
0.58001996
0.57745641
0.57766332
0.14584935
0.46400946
0.54194936
0.55483491
0.55351086
0.55255394
0.55251821
0.55306327
0.55346342
0.55397348
0.55446359
0.55501824
0.55559321
0.5562109
0.55686254
0.55755285
0.55827764
0.55903736
0.55983038
0.5606549
0.56150906
0.56239083
0.56329805
0.5642284
0.56517944
0.56614863
0.56713334
0.56813088
0.56913848
0.57015335
0.57117265
0.57219354
0.57321314
0.57422859
0.57523702
0.57623555
0.57722132
0.57819151
0.57914328
0.58007381
0.58098034
0.5818601
0.58271038
0.58352849
0.58431179
0.5850577
0.58576371
0.58642737
0.58704632
0.58761829
0.58814113
0.5886128
0.5890314
0.58939518
0.58970257
0.58995215
0.59014278
0.59027337
0.59034303
0.5903507
0.59029497
0.59017468
0.589989
0.58973789
0.58942074
0.58904139
0.58859567
0.58810204
0.58752877
0.58695198
0.58622049
0.5856069
0.58462626
0.58412393
0.58265011
0.58239534
0.58013389
0.58005764
0.57743415
0.5777694
0.22790482
0.51207701
0.55546656
0.56315327
0.56048372
0.5606709
0.56071223
0.56130345
0.56156438
0.56200843
0.56237446
0.56282367
0.56327452
0.56375803
0.5642591
0.56478583
0.56533527
0.56590979
0.56650914
0.5671332
0.56778162
0.56845385
0.56914911
0.56986637
0.5706044
0.57136174
0.57213676
0.5729276
0.57373227
0.57454858
0.57537423
0.57620677
0.57704364
0.57788217
0.57871963
0.57955319
0.58037997
0.58119705
0.58200146
0.58279021
0.58356033
0.58430881
0.58503268
0.58572901
0.58639489
0.5870275
0.58762406
0.58818191
0.58869846
0.58917128
0.58959805
0.58997662
0.59030499