/*--------------------------------*- C++ -*----------------------------------*\
  =========                 |
  \\      /  F ield         | OpenFOAM: The Open Source CFD Toolbox
   \\    /   O peration     | Website:  https://openfoam.org
    \\  /    A nd           | Version:  12
     \\/     M anipulation  |
\*---------------------------------------------------------------------------*/
FoamFile
{
    format      ascii;
    class       volScalarField;
    location    "0.073";
    object      nut;
}
// * * * * * * * * * * * * * * * * * * * * * * * * * * * * * * * * * * * * * //

dimensions      [0 2 -1 0 0 0 0];

internalField   nonuniform List<scalar> 
16000
(
4.665822e-07
9.8167629e-06
1.858023e-05
2.3672824e-05
1.8190485e-05
2.4876442e-05
1.7674876e-05
2.4091704e-05
1.8927647e-05
2.5911918e-05
2.1943856e-05
2.5633306e-05
2.3443028e-05
2.4018727e-05
2.3225419e-05
2.308378e-05
2.2844098e-05
2.2776263e-05
2.2786675e-05
2.2893843e-05
2.3090521e-05
2.3375998e-05
2.3747764e-05
2.4205823e-05
2.4752307e-05
2.5393013e-05
2.6135812e-05
2.6993266e-05
2.7980621e-05
2.9114232e-05
3.0412088e-05
3.1898147e-05
3.3603346e-05
3.5565798e-05
3.7832353e-05
4.0458848e-05
4.3511722e-05
4.7070174e-05
5.1232222e-05
5.6119159e-05
6.1873089e-05
6.8661345e-05
7.6694786e-05
8.6231227e-05
9.7576893e-05
0.00011109864
0.00012725051
0.00014658446
0.00016977076
0.00019762428
0.00023114012
0.00027153648
0.00032030036
0.00037925182
0.00045062045
0.00053715159
0.00064224075
0.00077010751
0.00092602663
0.0010185396
0.0010185288
0.0010184456
0.0010183065
0.0010180775
0.0010177664
0.001017378
0.0010169211
0.0010164034
0.001015828
0.0010151983
0.0010145376
0.0010139158
0.0010134332
0.0010131013
0.0010129266
0.0010120072
0.0010091847
0.0010066116
0.0010023611
0.0010020008
4.2105704e-07
9.3255947e-06
1.9769372e-05
2.1212364e-05
1.6432507e-05
2.2355892e-05
1.5713614e-05
2.114751e-05
1.6737769e-05
2.2924906e-05
1.9880908e-05
2.3136316e-05
2.1452834e-05
2.17847e-05
2.1164275e-05
2.097554e-05
2.0775435e-05
2.0703791e-05
2.0715318e-05
2.0812961e-05
2.09942e-05
2.1258066e-05
2.1602663e-05
2.202807e-05
2.2535954e-05
2.3131734e-05
2.3822215e-05
2.4618716e-05
2.5535667e-05
2.6589012e-05
2.7795462e-05
2.9176874e-05
3.0761836e-05
3.2585587e-05
3.4691899e-05
3.7133203e-05
3.9972299e-05
4.3283481e-05
4.7157921e-05
5.171035e-05
5.7077183e-05
6.3415735e-05
7.0924378e-05
7.9848753e-05
9.048268e-05
0.00010317443
0.00011835669
0.00013655744
0.0001584195
0.00018472526
0.00021643089
0.00025471047
0.00030099961
0.00035705943
0.00042505029
0.00050763571
0.00060811481
0.00073058609
0.00088015964
0.0010177893
0.001017795
0.0010176857
0.0010175274
0.0010172818
0.0010169561
0.0010165547
0.0010160858
0.001015556
0.0010149684
0.0010143285
0.0010136627
0.0010130432
0.0010125762
0.0010122684
0.0010120587
0.0010109786
0.0010085844
0.0010058545
0.0010020151
0.0010019976
3.7403367e-07
8.9421165e-06
1.8716736e-05
1.9475372e-05
1.4743153e-05
1.9715558e-05
1.4013492e-05
1.8409526e-05
1.5072503e-05
2.014746e-05
1.8150018e-05
2.0631498e-05
1.9452334e-05
1.9533548e-05
1.9054679e-05
1.8846405e-05
1.8677261e-05
1.8610924e-05
1.8625271e-05
1.8717529e-05
1.8886399e-05
1.913129e-05
1.9450625e-05
1.9844721e-05
2.0314876e-05
2.0866311e-05
2.150509e-05
2.2241458e-05
2.3088872e-05
2.4062879e-05
2.5179334e-05
2.6458438e-05
2.7926848e-05
2.961735e-05
3.157102e-05
3.3837215e-05
3.6475583e-05
3.9556659e-05
4.3165946e-05
4.7411747e-05
5.2425983e-05
5.8358434e-05
6.5396958e-05
7.3776119e-05
8.3780234e-05
9.574299e-05
0.00011007979
0.00012729936
0.00014802286
0.00017300773
0.00020317974
0.00023967896
0.0002839014
0.00033756383
0.00040277513
0.00048213761
0.00057887731
0.00069700547
0.0008415172
0.0010170908
0.0010171104
0.0010169698
0.0010167837
0.0010165133
0.0010161651
0.0010157435
0.0010152557
0.0010147077
0.0010141028
0.001013449
0.0010127775
0.0010121617
0.0010117073
0.0010114172
0.0010111474
0.0010100014
0.001007708
0.0010048869
0.0010017863
0.0010015082
3.3795054e-07
8.6554485e-06
1.7789913e-05
1.8077525e-05
1.3270061e-05
1.7435618e-05
1.2503387e-05
1.6115458e-05
1.3581589e-05
1.7785885e-05
1.6582151e-05
1.84088e-05
1.7600488e-05
1.7500719e-05
1.7126929e-05
1.6918859e-05
1.6776957e-05
1.6720798e-05
1.6740672e-05
1.6831061e-05
1.699116e-05
1.7220797e-05
1.7518732e-05
1.7885638e-05
1.8322564e-05
1.8834672e-05
1.9427534e-05
2.0110545e-05
2.0896238e-05
2.1799837e-05
2.2836639e-05
2.4025444e-05
2.5391348e-05
2.6965038e-05
2.8785325e-05
3.0898924e-05
3.3362778e-05
3.6244501e-05
3.9625106e-05
4.3606914e-05
4.8318442e-05
5.39038e-05
6.0542432e-05
6.8459104e-05
7.7931419e-05
8.9282009e-05
0.00010291283
0.00011931802
0.00013910249
0.00016300608
0.00019193237
0.00022699781
0.00026957116
0.00032134003
0.00038438058
0.00046125669
0.00055514799
0.00067001133
0.00081077525
0.00098356138
0.0010164689
0.0010162947
0.0010160763
0.0010157769
0.0010154017
0.001014955
0.0010144432
0.0010138719
0.001013245
0.0010125741
0.0010118952
0.0010112803
0.0010108256
0.0010105371
0.001010205
0.0010090361
0.0010068692
0.0010041631
0.0010015968
0.0010012643
3.0398781e-07
8.4402581e-06
1.6976653e-05
1.8065797e-05
1.3219368e-05
1.5436997e-05
1.117286e-05
1.4139094e-05
1.2296304e-05
1.5738264e-05
1.518148e-05
1.6398819e-05
1.5866697e-05
1.5645683e-05
1.5350026e-05
1.5155966e-05
1.5037134e-05
1.4992151e-05
1.5016826e-05
1.5105133e-05
1.5256423e-05
1.5471104e-05
1.5748316e-05
1.608921e-05
1.649473e-05
1.697006e-05
1.7520435e-05
1.8154578e-05
1.8884111e-05
1.97239e-05
2.0688884e-05
2.1796707e-05
2.3071182e-05
2.4541194e-05
2.6243616e-05
2.8222874e-05
3.0533513e-05
3.3240804e-05
3.6422424e-05
4.0175014e-05
4.4624271e-05
4.9910133e-05
5.6205552e-05
6.3726166e-05
7.2744709e-05
8.3575455e-05
9.6609565e-05
0.00011232964
0.00013132765
0.00015433057
0.00018222473
0.00021610925
0.00025733274
0.00030756207
0.00036885104
0.00044373767
0.0005353705
0.00064766907
0.00078551656
0.00095497032
0.0010158703
0.0010156599
0.0010154042
0.0010150707
0.0010146635
0.0010141863
0.001013645
0.0010130452
0.0010123925
0.0010117022
0.0010110146
0.0010103991
0.0010099332
0.0010096476
0.0010092627
0.0010080897
0.0010060263
0.0010035171
0.0010014427
0.0010009985
2.811635e-07
8.3092733e-06
1.6325186e-05
1.7836623e-05
1.3006356e-05
1.3685932e-05
1.0521123e-05
1.2501886e-05
1.1305299e-05
1.4000615e-05
1.3948386e-05
1.4628632e-05
1.4279727e-05
1.3988978e-05
1.3743214e-05
1.3565404e-05
1.3461953e-05
1.3424291e-05
1.3450372e-05
1.3534513e-05
1.3676024e-05
1.3875813e-05
1.4133261e-05
1.4449907e-05
1.482671e-05
1.5268833e-05
1.5781244e-05
1.6372146e-05
1.7052273e-05
1.7836102e-05
1.8738388e-05
1.9775845e-05
2.0971276e-05
2.2352074e-05
2.3953528e-05
2.5818178e-05
2.7998548e-05
3.0558066e-05
3.3572306e-05
3.7133022e-05
4.1363358e-05
4.6400624e-05
5.2413683e-05
5.9609973e-05
6.8259284e-05
7.867062e-05
9.1227386e-05
0.00010640437
0.0001247844
0.00014708732
0.00017418826
0.00020717667
0.00024738992
0.00029648463
0.00035650525
0.00042997982
0.00052004503
0.00063060601
0.00076653033
0.00093385298
0.0010153093
0.0010150597
0.0010147624
0.0010143904
0.0010139465
0.001013434
0.0010128583
0.0010122257
0.0010115443
0.0010108334
0.0010101363
0.0010095191
0.0010090326
0.0010087535
0.0010083246
0.0010071661
0.001005231
0.0010029743
0.0010013068
0.0010008137
2.5390553e-07
8.2366041e-06
1.5815424e-05
1.6903376e-05
1.2904544e-05
1.2104245e-05
1.0598804e-05
1.1501041e-05
1.0983667e-05
1.2513518e-05
1.2839463e-05
1.3062834e-05
1.2808911e-05
1.2488979e-05
1.2271569e-05
1.210967e-05
1.2017469e-05
1.1985661e-05
1.2012554e-05
1.2093091e-05
1.2226274e-05
1.2413421e-05
1.2653936e-05
1.2873618e-05
1.3216563e-05
1.3622149e-05
1.4094644e-05
1.4641536e-05
1.5272481e-05
1.6001232e-05
1.6842327e-05
1.7811576e-05
1.8930853e-05
2.0226123e-05
2.1731208e-05
2.348692e-05
2.554388e-05
2.796371e-05
3.0820644e-05
3.4460531e-05
3.8513285e-05
4.3350204e-05
4.913852e-05
5.6078683e-05
6.4438644e-05
7.452512e-05
8.6716696e-05
0.00010148373
0.00011940316
0.00014119303
0.00016772265
0.0002000787
0.00023959535
0.00028792819
0.00034712388
0.00041971465
0.0005088429
0.00061841995
0.00075332304
0.00091960126
0.001014782
0.0010144905
0.0010141477
0.001013733
0.0010132481
0.0010126957
0.0010120812
0.0010114123
0.0010107005
0.0010099693
0.0010092621
0.0010086412
0.0010081459
0.0010078673
0.0010074055
0.0010062808
0.0010044919
0.0010025125
0.0010011636
0.0010006432
2.2865028e-07
8.1971247e-06
1.5380861e-05
1.5402437e-05
1.1899723e-05
1.0558843e-05
9.2218228e-06
1.0288993e-05
9.7077594e-06
1.1244291e-05
1.1726463e-05
1.1625097e-05
1.1406771e-05
1.1096299e-05
1.0901771e-05
1.0759595e-05
1.0680694e-05
1.0657321e-05
1.0622999e-05
1.0687058e-05
1.0803864e-05
1.0973688e-05
1.1194484e-05
1.1466327e-05
1.179339e-05
1.2178709e-05
1.2626787e-05
1.3145044e-05
1.3742589e-05
1.443276e-05
1.5230295e-05
1.6150525e-05
1.7214877e-05
1.8448412e-05
1.988409e-05
2.156163e-05
2.3530508e-05
2.5851234e-05
2.8597594e-05
3.1859409e-05
3.5746148e-05
4.0396389e-05
4.5977594e-05
5.3128917e-05
6.128001e-05
7.1136916e-05
8.3076668e-05
9.7568495e-05
0.00011518679
0.00013665352
0.00016283778
0.00019483078
0.0002339721
0.00028192631
0.0003407546
0.0004130087
0.0005018557
0.00061123632
0.00074606451
0.0009124414
0.0010142833
0.001013947
0.0010135553
0.0010130942
0.0010125643
0.0010119683
0.0010113117
0.0010106043
0.0010098617
0.0010091115
0.0010083948
0.0010077636
0.0010072819
0.0010069986
0.001006516
0.0010054459
0.00100382
0.0010021142
0.0010010157
0.0010004896
2.1152006e-07
8.1569477e-06
1.493221e-05
1.3496778e-05
9.7930693e-06
9.3905656e-06
7.596214e-06
8.7707333e-06
8.9842376e-06
1.0123028e-05
1.0594605e-05
1.0285178e-05
1.0082192e-05
9.8039862e-06
9.6329984e-06
9.4464051e-06
9.3580556e-06
9.3301513e-06
9.3555015e-06
9.4311844e-06
9.553124e-06
9.7229746e-06
9.939536e-06
1.0202895e-05
1.0517178e-05
1.0886297e-05
1.1314809e-05
1.1810168e-05
1.2381111e-05
1.3040535e-05
1.3803474e-05
1.4685006e-05
1.5706396e-05
1.6892073e-05
1.8274467e-05
1.9892639e-05
2.1795383e-05
2.4042607e-05
2.6707512e-05
2.9879164e-05
3.3667428e-05
3.8208982e-05
4.3674192e-05
5.0260712e-05
5.8221994e-05
6.7873321e-05
8.0296481e-05
9.4646893e-05
0.00011212272
0.00013345528
0.00015951954
0.00019141858
0.00023050633
0.00027846676
0.00033738843
0.0004098586
0.00049908905
0.00060907477
0.00074479518
0.00091244156
0.0010138078
0.0010134237
0.0010129803
0.0010124696
0.0010118917
0.0010112492
0.0010105484
0.0010098018
0.0010090293
0.0010082616
0.0010075373
0.0010068879
0.0010064487
0.0010061582
0.0010056683
0.0010046712
0.0010032168
0.0010017521
0.0010009193
0.0010003613
1.9401656e-07
8.1162621e-06
1.3504119e-05
1.1773992e-05
7.9246821e-06
8.3297885e-06
6.7294645e-06
7.9188691e-06
8.314997e-06
9.0527878e-06
9.4700048e-06
9.0586201e-06
8.8603305e-06
8.5363776e-06
8.3563149e-06
8.2395241e-06
8.1835194e-06
8.1796316e-06
8.2219253e-06
8.3071614e-06
8.4362326e-06
8.606361e-06
8.8199433e-06
9.0769767e-06
9.3818138e-06
9.7387608e-06
1.0152528e-05
1.0630723e-05
1.1181852e-05
1.1818396e-05
1.2555738e-05
1.3409001e-05
1.4399508e-05
1.5551327e-05
1.689667e-05
1.8474332e-05
2.0332848e-05
2.2532044e-05
2.5145441e-05
2.826254e-05
3.1993351e-05
3.6474262e-05
4.1878942e-05
4.8405415e-05
5.6309842e-05
6.5910243e-05
7.7598874e-05
9.1836874e-05
0.00011020845
0.00013159794
0.00015777109
0.00018985021
0.00022921331
0.00027757499
0.0003370652
0.00041032411
0.0005006299
0.00061205992
0.00074969197
0.00091984703
0.0010133495
0.0010129148
0.0010124175
0.0010118548
0.0010112268
0.0010105363
0.0010097907
0.0010090055
0.0010082052
0.0010074209
0.001006691
0.0010060416
0.0010056519
0.0010053558
0.0010048731
0.0010039643
0.0010026839
0.0010014711
0.001000845
0.0010002706
1.7901034e-07
8.0707497e-06
1.0718689e-05
9.8200356e-06
6.4966803e-06
7.415456e-06
6.130335e-06
7.1135765e-06
7.7690012e-06
8.0781309e-06
8.3660305e-06
7.8549903e-06
7.6099205e-06
7.3833012e-06
7.2488695e-06
7.1696931e-06
7.1410867e-06
7.1580654e-06
7.2150688e-06
7.3114276e-06
7.4444725e-06
7.6165816e-06
7.829124e-06
8.0825993e-06
8.3814493e-06
8.7304131e-06
9.1344654e-06
9.6014245e-06
1.0139755e-05
1.0761595e-05
1.1423843e-05
1.2249692e-05
1.3210828e-05
1.4330933e-05
1.564199e-05
1.7182559e-05
1.9000983e-05
2.1157055e-05
2.3724729e-05
2.6794217e-05
3.0476683e-05
3.5183735e-05
4.0584009e-05
4.7118081e-05
5.5044984e-05
6.4686719e-05
7.644763e-05
9.0801099e-05
0.00010834519
0.00012982695
0.00015759339
0.00019013233
0.00023010771
0.00027927692
0.00033982655
0.00041446899
0.00050657245
0.00062032818
0.00076095128
0.0009349351
0.0010129025
0.0010124145
0.001011862
0.0010112457
0.0010105665
0.0010098281
0.001009039
0.001008217
0.0010073914
0.0010065914
0.0010058518
0.0010052541
0.0010048974
0.0010046002
0.0010041396
0.0010033332
0.0010022305
0.0010012484
0.0010007489
0.0010002098
1.6573142e-07
8.0242169e-06
8.4481458e-06
8.306919e-06
5.6920917e-06
6.5714426e-06
5.6246579e-06
6.4058708e-06
7.2142733e-06
7.1672565e-06
7.1717629e-06
6.738358e-06
6.5371913e-06
6.3694843e-06
6.273781e-06
6.225917e-06
6.2213047e-06
6.25585e-06
6.3260818e-06
6.4316835e-06
6.5714122e-06
6.7468925e-06
6.9606429e-06
7.213615e-06
7.5103349e-06
7.8221261e-06
8.2148287e-06
8.6697625e-06
9.1952574e-06
9.8030167e-06
1.050714e-05
1.1325975e-05
1.2280199e-05
1.3393576e-05
1.4698405e-05
1.6233671e-05
1.8048343e-05
2.0203051e-05
2.2773299e-05
2.5851306e-05
2.9551001e-05
3.4014854e-05
3.9417578e-05
4.5968964e-05
5.3932901e-05
6.4191114e-05
7.6137312e-05
9.0739692e-05
0.00010860924
0.00013051926
0.00015741763
0.00019227162
0.00023320596
0.0002836023
0.00034572059
0.00042236701
0.00051702605
0.00063403798
0.00077880231
0.00095803358
0.0010124609
0.0010119174
0.0010113092
0.0010106391
0.001009909
0.0010091245
0.0010082947
0.0010074384
0.0010065888
0.0010057769
0.0010050253
0.0010045213
0.0010041909
0.0010038984
0.0010034734
0.0010027801
0.00100186
0.0010010727
0.0010006491
0.0010001492
1.5383218e-07
7.9678613e-06
6.7088898e-06
7.2894892e-06
5.0668461e-06
5.8097026e-06
5.1899766e-06
5.7794415e-06
6.5549562e-06
6.1348576e-06
6.0943245e-06
5.7606716e-06
5.6000331e-06
5.479851e-06
5.4172859e-06
5.3963065e-06
5.4126601e-06
5.4638645e-06
5.547044e-06
5.6626498e-06
5.8099905e-06
5.9910041e-06
6.1823265e-06
6.4323315e-06
6.7257046e-06
7.0665934e-06
7.4620067e-06
7.9194438e-06
8.4474519e-06
9.0579361e-06
9.7651475e-06
1.0587221e-05
1.1546078e-05
1.266585e-05
1.3979402e-05
1.5526505e-05
1.7357277e-05
1.9533685e-05
2.2133479e-05
2.5251889e-05
2.9005816e-05
3.3541097e-05
3.904163e-05
4.5722856e-05
5.3857435e-05
6.3785186e-05
7.5929146e-05
9.0802135e-05
0.00010999793
0.00013253171
0.00016022397
0.00019429603
0.00023851614
0.00029057234
0.00035478605
0.00043408188
0.00053209001
0.00065333762
0.00080346507
0.00098946984
0.0010120195
0.0010114194
0.0010107562
0.0010100333
0.001009254
0.0010084258
0.0010075597
0.0010066725
0.0010057977
0.0010049791
0.0010042886
0.0010038444
0.0010035373
0.0010032567
0.001002878
0.0010023045
0.0010015687
0.0010009539
0.001000572
0.0010000953
1.4321005e-07
7.897025e-06
5.3724476e-06
6.3626254e-06
4.5119328e-06
5.1328924e-06
4.8174144e-06
5.140276e-06
5.7288319e-06
5.2370924e-06
5.1484663e-06
4.9042794e-06
4.7819219e-06
4.7014001e-06
4.6682328e-06
4.6714783e-06
4.7074498e-06
4.7746922e-06
4.8711473e-06
4.9789657e-06
5.129816e-06
5.3141855e-06
5.5343233e-06
5.7931733e-06
6.0949804e-06
6.4442742e-06
6.8479917e-06
7.3142616e-06
7.8518573e-06
8.4728478e-06
9.1916117e-06
1.0026516e-05
1.0950197e-05
1.2077251e-05
1.3400333e-05
1.4959972e-05
1.6807643e-05
1.9006706e-05
2.1637202e-05
2.4797888e-05
2.8609646e-05
3.3475058e-05
3.9125495e-05
4.5999764e-05
5.4380456e-05
6.461799e-05
7.7156824e-05
9.2534195e-05
0.00011141046
0.00013584396
0.00016456994
0.00019994501
0.00024354564
0.00030018759
0.00036703776
0.00044964832
0.00055182976
0.00067833561
0.00083510954
0.0010121879
0.0010115739
0.0010109176
0.0010102015
0.0010094283
0.0010086026
0.0010077339
0.0010068353
0.0010059219
0.001005023
0.0010042029
0.0010036227
0.0010032271
0.0010029414
0.0010026801
0.0010023549
0.0010019021
0.0010013494
0.0010008591
0.0010005062
0.0010000498
1.3373192e-07
7.7743759e-06
4.3525403e-06
5.5377794e-06
4.0150158e-06
4.529064e-06
4.4898066e-06
4.4456271e-06
4.8970614e-06
4.4357759e-06
4.3281699e-06
4.15745e-06
4.0715672e-06
4.0253148e-06
4.0188739e-06
4.0445253e-06
4.0992818e-06
4.1658391e-06
4.2706726e-06
4.4054127e-06
4.5709117e-06
4.7686883e-06
5.0016783e-06
5.2730336e-06
5.5875667e-06
5.9500729e-06
6.3675586e-06
6.8279635e-06
7.3759035e-06
8.0079764e-06
8.7386098e-06
9.5861968e-06
1.0573236e-05
1.1728009e-05
1.3084282e-05
1.4683926e-05
1.6580761e-05
1.8840561e-05
2.1546594e-05
2.4802689e-05
2.8735399e-05
3.3504421e-05
3.9303313e-05
4.6371068e-05
5.5002915e-05
6.6113656e-05
7.9155948e-05
9.5166582e-05
0.00011484093
0.0001390406
0.00017041903
0.00020738665
0.00025298724
0.00030927654
0.00038244434
0.00046904405
0.00057624007
0.0007090542
0.00087379354
0.001011777
0.0010111208
0.0010104114
0.0010096454
0.0010088258
0.0010079577
0.0010070513
0.0010061225
0.0010051877
0.0010042727
0.0010035366
0.0010030267
0.0010026715
0.001002408
0.0010021724
0.0010019033
0.00100156
0.0010011593
0.0010007916
0.0010004548
0.00099999988
1.2531883e-07
7.4629744e-06
3.6436786e-06
4.8049753e-06
3.5722027e-06
3.9932694e-06
3.9783204e-06
3.8166786e-06
4.0971934e-06
3.726976e-06
3.6248193e-06
3.5125782e-06
3.4609257e-06
3.4449145e-06
3.4629349e-06
3.4966214e-06
3.5633579e-06
3.6589654e-06
3.7826588e-06
3.9346901e-06
4.1165405e-06
4.3302491e-06
4.5791741e-06
4.8667558e-06
5.1863579e-06
5.5628367e-06
5.9947649e-06
6.4902522e-06
7.0594964e-06
7.7146481e-06
8.4705157e-06
9.3462445e-06
1.0365265e-05
1.1556951e-05
1.2957413e-05
1.4610088e-05
1.6571712e-05
1.8911212e-05
2.1715363e-05
2.5094273e-05
2.9179737e-05
3.413973e-05
4.0180707e-05
4.7552849e-05
5.6568678e-05
6.7612912e-05
8.1881549e-05
9.8653508e-05
0.00011927727
0.00014467063
0.00017594659
0.00021654832
0.00026449292
0.00032372158
0.00039694003
0.00049215254
0.00060519618
0.00074536657
0.00091938567
0.0010113586
0.0010106592
0.0010099017
0.0010090899
0.0010082281
0.0010073225
0.001006382
0.0010054228
0.0010044728
0.0010035865
0.0010029536
0.0010025015
0.0010021807
0.0010019411
0.0010017353
0.0010015198
0.0010012691
0.0010009913
0.0010007207
0.0010004058
0.00099996305
1.180445e-07
7.0536409e-06
3.1993419e-06
4.1548941e-06
3.1775e-06
3.3694744e-06
3.5248516e-06
3.2403389e-06
3.3748833e-06
3.1111058e-06
3.0293835e-06
2.9632947e-06
2.9427491e-06
2.953745e-06
2.9792387e-06
3.0413909e-06
3.1312252e-06
3.247571e-06
3.3905488e-06
3.5611387e-06
3.7613652e-06
3.9935484e-06
4.253194e-06
4.5575962e-06
4.9059506e-06
5.3039468e-06
5.7584259e-06
6.277788e-06
6.8724394e-06
7.5553026e-06
8.3416599e-06
9.251476e-06
1.0309253e-05
1.1545848e-05
1.2943824e-05
1.4646628e-05
1.6669629e-05
1.9085422e-05
2.2117006e-05
2.564402e-05
2.9913555e-05
3.5101846e-05
4.1429392e-05
4.9160275e-05
5.8623615e-05
7.0228215e-05
8.4477653e-05
0.00010199281
0.00012464409
0.0001514042
0.00018438679
0.00022507412
0.00027791639
0.00034048319
0.00041787808
0.00051871947
0.00063839432
0.00078691641
0.00097146582
0.001010931
0.0010101907
0.0010093911
0.0010085386
0.0010076389
0.0010066998
0.0010057301
0.0010047437
0.0010037748
0.0010030138
0.0010024507
0.001002046
0.0010017568
0.0010015428
0.0010013673
0.0010011986
0.0010010202
0.0010008333
0.0010006346
0.0010003647
0.00099995982
1.1217346e-07
6.1263358e-06
2.819331e-06
3.5643411e-06
2.8348635e-06
2.7939674e-06
3.0738175e-06
2.7186799e-06
2.7553742e-06
2.5850396e-06
2.5305957e-06
2.5018801e-06
2.5019027e-06
2.530304e-06
2.589861e-06
2.6765465e-06
2.7885043e-06
2.9255799e-06
3.0886429e-06
3.2791132e-06
3.4942708e-06
3.745117e-06
4.0317709e-06
4.3582913e-06
4.729527e-06
5.1513599e-06
5.6309438e-06
6.1770039e-06
6.8002736e-06
7.4976598e-06
8.3130694e-06
9.2549101e-06
1.0348695e-05
1.1626406e-05
1.3128071e-05
1.4903774e-05
1.7015509e-05
1.9540965e-05
2.2576674e-05
2.6242096e-05
3.0685822e-05
3.6351214e-05
4.30047e-05
5.1143218e-05
6.1113538e-05
7.3348205e-05
8.8381462e-05
0.00010687412
0.00013083309
0.00015911361
0.00019399092
0.00023703561
0.00029302557
0.00035927892
0.00044128602
0.00054290132
0.00067529099
0.00083302899
0.0010112459
0.0010104964
0.0010097178
0.0010088835
0.0010079965
0.001007063
0.0010060926
0.0010050967
0.0010041005
0.0010031945
0.0010025255
0.0010020241
0.0010016588
0.0010013991
0.0010012109
0.0010010635
0.0010009326
0.001000806
0.0010006826
0.0010005429
0.0010003138
0.00099996935
1.0730118e-07
4.2616325e-06
2.4754975e-06
3.0165754e-06
2.4057e-06
2.311432e-06
2.6022328e-06
2.2547891e-06
2.2402069e-06
2.1421597e-06
2.1179041e-06
2.1143095e-06
2.1420347e-06
2.2005106e-06
2.2857333e-06
2.3954017e-06
2.5288697e-06
2.6866619e-06
2.8674369e-06
3.0772457e-06
3.317115e-06
3.5898993e-06
3.8990705e-06
4.2488484e-06
4.64432e-06
5.0916141e-06
5.5981692e-06
6.163729e-06
6.8144926e-06
7.5578394e-06
8.4109975e-06
9.3953748e-06
1.0537965e-05
1.1872687e-05
1.3442095e-05
1.5299275e-05
1.7510283e-05
2.0157409e-05
2.3343181e-05
2.7195025e-05
3.1871128e-05
3.7566952e-05
4.4856054e-05
5.3442373e-05
6.3968964e-05
7.6893681e-05
9.2782583e-05
0.00011233723
0.0001364275
0.00016762287
0.00020454518
0.00025013237
0.00030647171
0.00037969617
0.00046664636
0.00057443994
0.00071505265
0.00088263576
0.001010831
0.0010100574
0.0010092448
0.0010083828
0.001007469
0.0010065071
0.0010055079
0.0010044887
0.001003487
0.0010027109
0.0010021154
0.0010016671
0.0010013363
0.0010011025
0.0010009385
0.0010008152
0.0010007139
0.0010006233
0.0010005368
0.0010004315
0.0010002556
0.00099999229
1.0209613e-07
3.5145635e-06
2.1167613e-06
2.5131742e-06
2.0542512e-06
1.9081567e-06
2.1192927e-06
1.8484672e-06
1.8215343e-06
1.7782594e-06
1.7800749e-06
1.807124e-06
1.866227e-06
1.9511605e-06
2.0595798e-06
2.1906265e-06
2.3445555e-06
2.5205385e-06
2.7233579e-06
2.9541394e-06
3.2154187e-06
3.5102677e-06
3.8423582e-06
4.2160737e-06
4.6366763e-06
5.1105168e-06
5.6390019e-06
6.2414518e-06
6.9252416e-06
7.7048008e-06
8.598284e-06
9.6283645e-06
1.0823575e-05
1.2219809e-05
1.3862277e-05
1.5807638e-05
1.8126316e-05
2.0905704e-05
2.425465e-05
2.8307913e-05
3.3233068e-05
3.9521726e-05
4.6923438e-05
5.5986906e-05
6.7105389e-05
8.0762933e-05
9.7558358e-05
0.00011823368
0.00014504058
0.00017670314
0.00021576646
0.00026400976
0.00032364662
0.00040117779
0.00049326323
0.00060746212
0.00075652483
0.0009342424
0.0010104191
0.0010096194
0.0010087778
0.0010078929
0.0010069599
0.0010059775
0.0010049531
0.0010039209
0.0010029997
0.0010023025
0.0010017712
0.0010013709
0.0010010723
0.0010008582
0.0010007149
0.0010006106
0.0010005321
0.0010004672
0.001000404
0.0010003176
0.0010001792
0.0010000284
9.8273372e-08
2.8060181e-06
1.8067392e-06
2.0095268e-06
1.7632091e-06
1.5629815e-06
1.6742957e-06
1.5044449e-06
1.4920866e-06
1.4921157e-06
1.5204581e-06
1.5802867e-06
1.665739e-06
1.7733585e-06
1.9022455e-06
2.0526257e-06
2.2244498e-06
2.4208497e-06
2.6434024e-06
2.8944352e-06
3.1767291e-06
3.4935351e-06
3.8486614e-06
4.2466128e-06
4.6927889e-06
5.1901602e-06
5.7520375e-06
6.3859e-06
7.1038011e-06
7.9208676e-06
8.8563024e-06
9.9341105e-06
1.1184527e-05
1.2645539e-05
1.4364958e-05
1.640296e-05
1.8834851e-05
2.1753201e-05
2.5273761e-05
2.9539254e-05
3.4955381e-05
4.1335252e-05
4.9135467e-05
5.8692858e-05
7.0421615e-05
8.4833637e-05
0.00010256106
0.00012438744
0.00015264718
0.00018606577
0.00022730143
0.00027823067
0.00034119421
0.00042300813
0.00052023706
0.0006408314
0.00079823585
0.00098596
0.0010100155
0.0010091927
0.001008326
0.0010074197
0.001006471
0.0010054783
0.0010044452
0.0010034126
0.0010025999
0.0010019635
0.001001481
0.0010011224
0.0010008583
0.0010006565
0.0010005289
0.0010004387
0.0010003763
0.0010003308
0.0010002884
0.0010002241
0.0010001205
0.0010000179
9.6027904e-08
2.1874553e-06
1.5370611e-06
1.5305374e-06
1.4949132e-06
1.2680154e-06
1.3124591e-06
1.2299517e-06
1.2448999e-06
1.2755814e-06
1.3370429e-06
1.4226419e-06
1.5293732e-06
1.6559163e-06
1.8025318e-06
1.9702324e-06
2.1598714e-06
2.3744373e-06
2.6157583e-06
2.8863834e-06
3.1892377e-06
3.52769e-06
3.9056512e-06
4.3277245e-06
4.7994154e-06
5.3274166e-06
5.9199782e-06
6.5873545e-06
7.3338958e-06
8.1889485e-06
9.1669613e-06
1.0293353e-05
1.1600176e-05
1.3127697e-05
1.4926363e-05
1.7128864e-05
1.9695463e-05
2.2778347e-05
2.6500736e-05
3.101484e-05
3.650841e-05
4.3212722e-05
5.1414014e-05
6.1465391e-05
7.3802844e-05
8.8965334e-05
0.00010761836
0.00013172619
0.00016023366
0.00019537494
0.00023873258
0.00029227587
0.00036185386
0.00044434731
0.00054651046
0.00067321197
0.00083845702
0.0010104509
0.0010096262
0.001008785
0.0010079003
0.0010069751
0.0010060086
0.0010050047
0.0010039802
0.0010030124
0.0010022715
0.0010016879
0.0010012406
0.001000908
0.0010006776
0.0010004893
0.0010003719
0.0010002923
0.0010002407
0.0010002076
0.0010001807
0.001000141
0.0010000764
0.0010000113
9.6144956e-08
1.6605284e-06
1.3094771e-06
1.1639461e-06
1.2252933e-06
1.0212054e-06
1.0469189e-06
1.0270565e-06
1.0702128e-06
1.1301802e-06
1.2155812e-06
1.32066e-06
1.4443439e-06
1.5867756e-06
1.7490109e-06
1.932548e-06
2.1389103e-06
2.3706743e-06
2.6300131e-06
2.9195867e-06
3.2424054e-06
3.6019162e-06
4.0021144e-06
4.4477034e-06
4.9443145e-06
5.4988054e-06
6.1196589e-06
6.8174822e-06
7.6056298e-06
8.5009923e-06
9.5249278e-06
1.0704498e-05
1.2073826e-05
1.3675844e-05
1.5564342e-05
1.7806477e-05
2.0485884e-05
2.3706715e-05
2.7597974e-05
3.2319508e-05
3.8068961e-05
4.5089759e-05
5.3680046e-05
6.4209733e-05
7.7134108e-05
9.3785803e-05
0.00011346706
0.00013768484
0.0001675102
0.000204272
0.00024961854
0.00030846805
0.0003781454
0.00046430106
0.0005709631
0.0007100186
0.00087535737
0.0010100828
0.0010092521
0.0010083993
0.0010075059
0.0010065711
0.0010055925
0.0010045754
0.001003555
0.0010026886
0.001002003
0.0010014662
0.0010010521
0.0010007391
0.0010005168
0.0010003492
0.0010002381
0.0010001667
0.0010001227
0.0010000977
0.0010000822
0.0010000641
0.0010000354
0.0010000054
9.94227e-08
1.2304724e-06
1.1209608e-06
8.9583432e-07
1.0683055e-06
8.1771448e-07
8.6462121e-07
8.894503e-07
9.5526579e-07
1.0382356e-06
1.1409737e-06
1.2610239e-06
1.3987562e-06
1.5551597e-06
1.731701e-06
1.9300967e-06
2.1522979e-06
2.4003331e-06
2.6768396e-06
2.9844549e-06
3.3262528e-06
3.7057519e-06
4.1270345e-06
4.5949123e-06
5.115156e-06
5.6948048e-06
6.3425841e-06
7.0694758e-06
7.8893495e-06
8.8198238e-06
9.8832013e-06
1.1107811e-05
1.2529404e-05
1.4192987e-05
1.615495e-05
1.8485714e-05
2.1272875e-05
2.4625101e-05
2.8676883e-05
3.3594403e-05
3.9853086e-05
4.7224892e-05
5.6242323e-05
6.7291814e-05
8.0848963e-05
9.7500533e-05
0.00011797129
0.00014315712
0.00017416326
0.00021434943
0.0002618029
0.00032033488
0.00039259852
0.00048190555
0.00059817752
0.0007360584
0.00090703228
0.001009736
0.0010088978
0.0010080367
0.0010071401
0.0010062058
0.0010052309
0.0010042206
0.0010032171
0.0010024225
0.0010017823
0.0010012804
0.0010008927
0.0010005998
0.0010003819
0.0010002279
0.0010001235
0.0010000582
0.0010000201
0.001000001
0.00099999499
0.00099999597
0.0009999979
0.00099999849
1.0596693e-07
9.4981949e-07
9.5654492e-07
7.5786624e-07
7.6128697e-07
6.973912e-07
7.4258383e-07
8.023902e-07
8.8538924e-07
9.8442738e-07
1.1002057e-06
1.2326269e-06
1.3827473e-06
1.5518805e-06
1.7416174e-06
1.9537326e-06
2.1902091e-06
2.4532552e-06
2.7453434e-06
3.0692553e-06
3.4281477e-06
3.8256409e-06
4.2659431e-06
4.7540277e-06
5.2958783e-06
5.8967073e-06
6.5686129e-06
7.3216022e-06
8.1773794e-06
9.142815e-06
1.0246224e-05
1.1517313e-05
1.2993538e-05
1.4721982e-05
1.6761586e-05
1.9185833e-05
2.2086036e-05
2.5575355e-05
2.9793687e-05
3.4913733e-05
4.1148451e-05
4.876027e-05
5.8072282e-05
6.9480534e-05
8.3474789e-05
0.00010065804
0.00012285837
0.0001490271
0.00018121816
0.00022084714
0.00026966717
0.00032985632
0.00040412229
0.0005005522
0.000614756
0.00075605757
0.0009311166
0.0010094287
0.0010085805
0.0010077096
0.0010068078
0.0010058732
0.001004905
0.0010039126
0.0010029529
0.0010022091
0.0010016055
0.0010011291
0.0010007574
0.0010004792
0.0010002707
0.001000124
0.0010000248
0.00099996466
0.00099993189
0.00099991884
0.00099992217
0.00099993964
0.00099996553
0.00099999015
1.2043681e-07
9.534947e-07
7.9804739e-07
5.6175794e-07
6.049272e-07
6.0788134e-07
6.7121838e-07
7.4972754e-07
8.4618132e-07
9.5734304e-07
1.0841986e-06
1.2275692e-06
1.3887435e-06
1.5691293e-06
1.7703422e-06
1.9941807e-06
2.2426553e-06
2.5180143e-06
2.8227799e-06
3.1597929e-06
3.5322737e-06
3.9439093e-06
4.3989763e-06
4.9025187e-06
5.4605992e-06
6.0806437e-06
6.7718994e-06
7.546022e-06
8.4178218e-06
9.4061548e-06
1.0534996e-05
1.1834785e-05
1.3343947e-05
1.5110795e-05
1.7195772e-05
1.967419e-05
2.2639557e-05
2.6207607e-05
3.052125e-05
3.5756636e-05
4.2130723e-05
5.0268238e-05
5.9856707e-05
7.1596629e-05
8.5989268e-05
0.00010365094
0.00012534191
0.00015200054
0.000184786
0.00022513
0.00027480887
0.00033912634
0.00041515497
0.00050895346
0.00062479186
0.00076800948
0.00094528984
0.0010091853
0.0010083263
0.001007445
0.0010065357
0.0010055973
0.0010046317
0.0010036557
0.0010027529
0.0010020423
0.0010014658
0.001001008
0.0010006483
0.0010003799
0.0010001765
0.0010000362
0.00099994134
0.00099988564
0.00099985812
0.00099985162
0.00099986449
0.00099989588
0.00099993968
0.00099998262
1.1041226e-07
6.1409568e-07
6.3265824e-07
4.6520826e-07
5.0756932e-07
5.5317212e-07
6.3155828e-07
7.2364534e-07
8.3073836e-07
9.5217235e-07
1.0890196e-06
1.2423296e-06
1.4134172e-06
1.6037441e-06
1.8149586e-06
2.048905e-06
2.3076485e-06
2.5934668e-06
2.9089931e-06
3.2571168e-06
3.641127e-06
4.0647799e-06
4.5324228e-06
5.0491731e-06
5.6211736e-06
6.2559435e-06
6.9628447e-06
7.7536872e-06
8.6505644e-06
9.6616697e-06
1.0816305e-05
1.2145655e-05
1.3689025e-05
1.5495788e-05
1.762764e-05
2.0161398e-05
2.3192349e-05
2.6838365e-05
3.124493e-05
3.6591292e-05
4.3098e-05
5.1036084e-05
6.0738327e-05
7.2614998e-05
8.7170199e-05
0.00010502492
0.00012694449
0.00015522341
0.00018856787
0.00022956604
0.0002800088
0.0003421118
0.00041862459
0.00051296532
0.00062939314
0.00077322963
0.00095112843
0.0010090269
0.0010081601
0.0010072708
0.0010063546
0.0010054116
0.0010044458
0.0010034794
0.0010026119
0.0010019215
0.0010013599
0.0010009128
0.0010005635
0.0010003048
0.0010001009