/*--------------------------------*- C++ -*----------------------------------*\
  =========                 |
  \\      /  F ield         | OpenFOAM: The Open Source CFD Toolbox
   \\    /   O peration     | Website:  https://openfoam.org
    \\  /    A nd           | Version:  12
     \\/     M anipulation  |
\*---------------------------------------------------------------------------*/
FoamFile
{
    format      ascii;
    class       volScalarField;
    location    "0.073";
    object      omega;
}
// * * * * * * * * * * * * * * * * * * * * * * * * * * * * * * * * * * * * * //

dimensions      [0 0 -1 0 0 0 0];

internalField   nonuniform List<scalar> 
16000
(
1089.8642
2187.5882
1067.0256
641.94242
452.66364
314.91943
238.78137
180.36884
145.23714
117.66379
99.9492
85.585271
74.900904
65.990649
58.713148
52.583965
47.409117
42.995668
39.203324
35.920633
33.063602
30.561569
28.356408
26.401751
24.660241
23.102819
21.705438
20.449516
19.31928
18.300323
17.379638
16.546977
15.794171
15.114305
14.501463
13.950145
13.455173
13.011668
12.615554
12.263386
11.951286
11.675202
11.432182
11.21953
11.034179
10.873026
10.733658
10.613784
10.511201
10.423831
10.349812
10.287516
10.235426
10.192204
10.156678
10.127937
10.105362
10.088659
10.078044
10.07411
10.074992
10.075364
10.074946
10.074014
10.072517
10.070524
10.068115
10.065363
10.062306
10.058994
10.055644
10.052852
10.051472
10.051661
10.053505
10.050041
10.032177
10.018163
9.9926973
10.000191
1131.5921
2179.1914
1056.3035
642.36254
452.83434
317.79001
239.85324
182.17171
146.07209
118.69332
100.49362
86.146632
75.26195
66.302453
58.939321
52.759544
47.537822
43.089436
39.269699
35.965257
33.09134
30.576963
28.363054
26.402534
24.657007
23.097034
21.697867
20.440579
19.309485
18.290415
17.370092
16.537912
15.785562
15.106017
14.493397
13.942273
13.447574
13.004356
12.60836
12.256263
11.944479
11.66873
11.425915
11.213462
11.028476
10.8677
10.728682
10.609148
10.506921
10.419915
10.346238
10.284271
10.232493
10.189568
10.154298
10.125731
10.103206
10.086345
10.075133
10.070032
10.070378
10.070656
10.070105
10.069051
10.067449
10.065362
10.062865
10.060025
10.056881
10.053502
10.050125
10.04736
10.046091
10.046433
10.047966
10.043182
10.028901
10.013685
9.9911091
10.000674
1171.7349
2180.7371
1045.3197
638.77744
449.52195
318.06824
238.78296
182.37331
145.63876
118.8551
100.34745
86.159232
75.162639
66.206391
58.810556
52.618804
47.386147
42.932438
39.11137
35.807883
32.936841
30.427339
28.219745
26.266754
24.529173
22.977478
21.586456
20.336905
19.213173
18.201447
17.288377
16.463091
15.717204
15.0436
14.436445
13.89036
13.40041
12.961696
12.569777
12.221313
11.913095
11.640724
11.400922
11.191144
11.008746
10.850362
10.713492
10.595882
10.495391
10.409962
10.337677
10.276944
10.226248
10.184277
10.149835
10.121946
10.099925
10.083374
10.072178
10.066518
10.066213
10.066305
10.065565
10.064331
10.062568
10.060335
10.057703
10.054731
10.051463
10.047988
10.044583
10.04186
10.040688
10.041141
10.042179
10.036935
10.023566
10.007646
9.9903614
9.9987762
1210.1079
2188.6875
1035.5754
635.34971
445.78994
318.12862
237.41199
182.41098
145.06519
118.91536
100.15032
86.109749
75.022071
66.063151
58.64148
52.439517
47.199163
42.742549
38.922601
35.62236
32.75621
30.253465
28.053891
26.110091
24.382002
22.840061
21.458615
20.21817
19.103017
18.099745
17.195016
16.377667
15.63925
14.972535
14.371738
13.831511
13.347048
12.913552
12.52643
12.182187
11.87806
11.609591
11.373311
11.166604
10.987152
10.831494
10.697068
10.581634
10.483084
10.399413
10.328669
10.269295
10.219781
10.178841
10.145291
10.118138
10.096667
10.080455
10.069348
10.063413
10.062402
10.062258
10.061298
10.059852
10.057895
10.055482
10.052676
10.049535
10.046108
10.042513
10.039066
10.036364
10.03519
10.035638
10.036177
10.030809
10.01856
10.003526
9.990088
9.9976561
1246.5295
2206.6997
1027.2819
631.62856
441.30308
317.4519
235.36181
181.96481
144.11499
118.69823
99.766107
85.884476
74.742943
65.788359
58.357879
52.156639
46.91944
42.468892
38.658082
35.368231
32.513196
30.022725
27.836021
25.905797
24.191182
22.662651
21.294181
20.06603
18.962332
17.970113
17.076176
16.269067
15.540306
14.88253
14.290013
13.757424
13.280069
12.853306
12.472471
12.133756
11.834874
11.57139
11.339681
11.136922
10.961187
10.808959
10.677603
10.564891
10.468739
10.387224
10.318359
10.260629
10.212533
10.172819
10.140323
10.114048
10.093256
10.077499
10.066594
10.060516
10.058967
10.058524
10.057309
10.055614
10.053425
10.050791
10.047772
10.044425
10.040811
10.037079
10.033581
10.030891
10.029635
10.030098
10.030223
10.024883
10.013567
10.000022
9.9899677
9.9962079
1280.8506
2232.307
1023.2591
628.63356
437.31198
316.14881
232.82973
181.11175
142.88754
118.24098
99.238567
85.505345
74.344424
65.399027
57.974093
51.78325
46.558404
42.121642
38.326764
35.053443
32.214876
29.741463
27.571861
25.658924
23.961287
22.449402
21.096927
19.883935
18.794304
17.815491
16.934578
16.139805
15.422696
14.775732
14.193253
13.669938
13.201179
12.7825
12.409309
12.077355
11.784754
11.527196
11.301003
11.102975
10.931625
10.783433
10.655683
10.546162
10.452789
10.373762
10.307051
10.251197
10.204709
10.166372
10.135054
10.109765
10.089746
10.074527
10.063908
10.05781
10.055849
10.055061
10.053559
10.051582
10.049126
10.046235
10.042967
10.039382
10.035561
10.031685
10.02813
10.025442
10.024037
10.024552
10.024345
10.019176
10.008959
9.9973191
9.9900021
9.9952603
1313.0245
2263.1614
1023.2566
625.80124
433.39505
314.20843
230.17901
179.88615
141.46278
117.54567
98.576016
84.971018
73.822652
64.893006
57.486956
51.316433
46.113064
41.697923
37.925654
34.675113
31.858517
29.407108
27.259118
25.366877
23.68991
22.198121
20.864861
19.670102
18.597376
17.634519
16.769048
15.988876
15.28558
14.651449
14.0809
13.56862
13.110068
12.700908
12.336766
12.013044
11.727818
11.477128
11.257418
11.064953
10.89865
10.755093
10.631476
10.525608
10.435375
10.359153
10.294855
10.241092
10.196389
10.159567
10.129538
10.105328
10.086169
10.071563
10.061294
10.055266
10.053015
10.051845
10.050025
10.047735
10.044979
10.041798
10.038248
10.0344
10.030361
10.026344
10.022727
10.020027
10.018565
10.019096
10.018651
10.013789
10.004763
9.9952266
9.9903648
9.994396
1343.1539
2296.7284
1024.9283
622.67476
429.56284
311.62491
227.57045
178.42338
139.98044
116.63647
97.795236
84.290103
73.17902
64.272556
56.896796
50.755822
45.582483
41.196676
37.452785
34.231163
31.442096
29.017688
26.89617
25.026131
23.373659
21.905644
20.595063
19.421884
18.369196
17.425113
16.57776
15.814693
15.1276
14.508536
13.952003
13.452695
13.006128
12.608065
12.254401
11.941134
11.664427
11.421525
11.209234
11.023278
10.862653
10.724281
10.605294
10.503511
10.416741
10.343603
10.28194
10.230453
10.187683
10.152492
10.123841
10.100784
10.082552
10.068622
10.058754
10.052856
10.050418
10.048835
10.046671
10.044041
10.040957
10.037456
10.033599
10.029471
10.025212
10.021067
10.017392
10.014625
10.013285
10.013796
10.013214
10.008799
10.001039
9.9936698
9.9911524
9.993751
1371.3396
2330.7974
1023.7585
618.79314
424.88511
308.34335
224.10556
176.57411
138.17753
115.54108
96.892736
83.462268
72.40699
63.533272
56.198824
50.095857
44.961093
40.612882
36.900194
33.713586
30.957934
28.565857
26.476547
24.637493
23.013907
21.573778
20.289622
19.141545
18.112168
17.189736
16.363175
15.619691
14.951149
14.349325
13.808812
13.324314
12.891406
12.505945
12.163888
11.861216
11.594341
11.360227
11.156281
10.978315
10.823989
10.691299
10.577477
10.480172
10.397156
10.327337
10.268495
10.219429
10.178711
10.145239
10.118033
10.096181
10.078925
10.065723
10.056295
10.05056
10.048006
10.045992
10.04346
10.040468
10.037032
10.033191
10.029011
10.024598
10.020125
10.015861
10.012143
10.009248
10.008253
10.008729
10.008115
10.004276
9.9978164
9.9925469
9.9918742
9.9933085
1397.6903
2363.7032
1015.2704
613.84416
418.4996
304.61782
219.79374
174.24793
136.29803
114.26706
95.858203
82.48239
71.498551
62.667138
55.38498
49.323665
44.235006
39.933224
36.266241
33.123248
30.408561
28.055219
26.003697
24.200044
22.610019
21.202031
19.948205
18.828923
17.826324
16.928586
16.12556
15.404246
14.756716
14.174393
13.651979
13.184179
12.766626
12.39527
12.06623
11.775548
11.519556
11.29508
11.100047
10.929974
10.782655
10.656112
10.548322
10.455856
10.376904
10.310589
10.254719
10.208182
10.1696
10.137904
10.112183
10.091567
10.075316
10.062877
10.053921
10.048358
10.045726
10.043271
10.040352
10.036979
10.033176
10.028986
10.024479
10.019785
10.015111
10.010735
10.00699
10.004107
10.00351
10.003961
10.003422
10.000282
9.9951575
9.9913564
9.9924107
9.9931052
1422.311
2394.6287
1006.6674
607.8432
410.46514
300.46919
215.20576
171.73063
134.32552
112.81164
94.678427
81.343002
70.441832
61.653485
54.432678
48.434305
43.40552
39.161687
35.548959
32.458287
29.79209
27.484097
25.476458
23.713905
22.162362
20.790927
19.57155
18.484936
17.512777
16.642981
15.866009
15.169506
14.545509
13.984997
13.482778
13.033562
12.633039
12.277234
11.962439
11.684789
11.440703
11.226799
11.041388
10.879944
10.74011
10.619877
10.517785
10.43052
10.35622
10.29355
10.240809
10.196876
10.160478
10.130587
10.106362
10.086988
10.071746
10.060092
10.051637
10.046239
10.043519
10.040625
10.037307
10.033543
10.029367
10.024828
10.020006
10.015044
10.010187
10.005704
10.001899
9.999431
9.9991003
9.9995519
9.9991896
9.9968304
9.993034
9.9906375
9.9925238
9.9931683
1445.3198
2424.6002
993.51514
600.35369
401.00984
295.92239
210.44857
168.95699
132.32395
111.1808
93.326299
80.013708
69.199204
60.485881
53.345475
47.424478
42.468901
38.294871
34.746863
31.717492
29.108223
26.852581
24.895063
23.179448
21.671713
20.341066
19.160462
18.110592
17.172711
16.334445
15.58477
14.915749
14.317868
13.781536
13.301658
12.872931
12.491127
12.152314
11.852999
11.589427
11.358146
11.156349
10.981058
10.828661
10.696759
10.583216
10.487051
10.405021
10.335055
10.276164
10.226903
10.18566
10.151471
10.123383
10.100636
10.082488
10.068238
10.057363
10.049438
10.044201
10.041332
10.038012
10.034289
10.030133
10.025585
10.020711
10.015596
10.010389
10.005361
10.000798
9.9969131
9.995187
9.9950651
9.9955512
9.9954492
9.9939312
9.991491
9.9902863
9.9924123
9.9934898
1467.0258
2452.997
976.45784
591.87653
391.00717
290.97561
205.61745
165.98264
130.27
109.35276
91.737413
78.478091
67.775875
59.158408
52.11695
46.290467
41.42244
37.33103
33.85874
30.90029
28.356742
26.161099
24.259772
22.597294
21.13929
19.852002
18.714629
17.705772
16.806115
16.003527
15.286945
14.648011
14.078666
13.568719
13.113111
12.706506
12.344811
12.024104
11.741145
11.492383
11.274279
11.083944
10.919286
10.776328
10.652719
10.546593
10.456349
10.379678
10.314279
10.25906
10.212897
10.17462
10.142683
10.116381
10.095069
10.078106
10.064812
10.054684
10.047309
10.042257
10.039121
10.035394
10.031272
10.026733
10.021824
10.016632
10.011258
10.005836
10.000634
9.9960317
9.9926341
9.991383
9.9914412
9.992006
9.9922232
9.9915451
9.9904064
9.9902279
9.9925035
9.9939965
1487.6681
2476.095
955.23131
582.86996
380.56069
285.66683
200.80215
162.81705
128.0925
107.2333
89.896268
76.725437
66.159161
57.662875
50.741026
45.027493
40.262883
36.267862
32.88355
30.005691
27.537472
25.410437
23.569147
21.966113
20.564596
19.330116
18.241042
17.277812
16.420511
15.657091
14.976306
14.369988
13.830999
13.349331
12.919651
12.536516
12.196065
11.894342
11.628346
11.394882
11.190497
11.012176
10.858198
10.724753
10.60938
10.510039
10.425731
10.354375
10.293949
10.242525
10.199339
10.163618
10.134153
10.109654
10.089719
10.073876
10.06149
10.05205
10.045209
10.040418
10.036856
10.032746
10.028242
10.023341
10.018092
10.0126
10.006994
10.001396
9.9960355
9.9914405
9.9889121
9.988042
9.9882631
9.9889588
9.989532
9.9896189
9.9895408
9.9904511
9.9926676
9.9947174
1507.503
2489.268
929.87355
573.2093
369.73713
280.03682
196.07552
159.38053
125.67178
104.82959
87.775662
74.738015
64.336628
55.989191
49.210358
43.630499
38.987321
35.103032
31.820588
29.030558
26.647521
24.598954
22.831588
21.295711
19.957351
18.781147
17.745527
16.831938
16.020829
15.299998
14.657991
14.08657
13.577968
13.125941
12.723452
12.364759
12.046369
11.764272
11.515612
11.297685
11.107158
10.941746
10.798372
10.674347
10.567316
10.474952
10.39637
10.329948
10.273879
10.226643
10.186452
10.153087
10.125717
10.103213
10.08463
10.069825
10.058295
10.04947
10.043082
10.038578
10.034526
10.030054
10.025197
10.019966
10.014408
10.008635
10.002805
9.9970665
9.9916179
9.9877064
9.985733
9.9851745
9.9855618
9.9864368
9.9873812
9.988161
9.9890098
9.9906243
9.9929402
9.99571
1526.7495
2482.5747
900.74913
562.95073
358.5816
274.08778
191.4318
155.54638
122.93115
102.09703
85.346063
72.493206
62.29232
54.126296
47.517579
42.093956
37.593009
33.830606
30.665424
27.983573
25.699252
23.739989
22.05505
20.594269
19.325421
18.213616
17.236461
16.374407
15.612563
14.936993
14.335888
13.801605
13.326626
12.904778
12.530085
12.196195
11.900103
11.637818
11.406412
11.203905
11.02669
10.872827
10.739962
10.625135
10.526298
10.441431
10.368508
10.306834
10.254724
10.211147
10.174284
10.143203
10.117687
10.096888
10.07981
10.065972
10.055238
10.046976
10.040916
10.036588
10.03213
10.027322
10.022144
10.016621
10.010797
10.004768
9.9987046
9.9928618
9.9876737
9.9846055
9.9830939
9.9827945
9.9833589
9.9844447
9.9857526
9.9871303
9.9887098
9.9908518
9.9934036
9.9966005
1545.5773
2435.7062
869.27184
552.12269
347.1524
267.73355
186.56212
151.28734
119.75785
98.98802
82.573936
69.966434
60.010438
52.064621
45.656124
40.408418
36.072498
32.462144
29.434253
26.875732
24.704052
22.845494
21.252119
19.874233
18.678463
17.635821
16.721839
15.91721
15.20676
14.578292
14.01933
13.52277
13.081427
12.689618
12.34239
12.033102
11.759012
11.51641
11.302025
11.114596
10.950489
10.807778
10.684868
10.578779
10.487431
10.409168
10.342301
10.285212
10.236787
10.196507
10.162559
10.13401
10.110188
10.090896
10.075113
10.062326
10.052313
10.044599
10.038781
10.034461
10.02967
10.024562
10.019101
10.013322
10.007273
10.001035
9.9947574
9.9887655
9.9845764
9.9820948
9.9809748
9.9809109
9.9816596
9.9829595
9.984586
9.9864434
9.9885886
9.9911442
9.9938779
9.9970474
1563.8551
2399.4024
837.51503
540.67209
335.4521
260.43371
181.53961
146.50079
116.03866
95.444763
79.424407
67.133742
57.475719
49.795932
43.613605
38.585435
34.447152
31.012918
28.143538
25.725425
23.67961
21.932842
20.436126
19.148231
18.033741
17.063898
16.215531
15.469755
14.811477
14.230302
13.713646
13.25471
12.846758
12.484201
12.16227
11.876847
11.623952
11.400487
11.203602
11.030587
10.87916
10.74704
10.6334
10.535575
10.451304
10.37905
10.317337
10.264805
10.220215
10.182906
10.151599
10.125275
10.103277
10.0853
10.070697
10.058869
10.049499
10.042329
10.036756
10.03221
10.027161
10.021799
10.016098
10.010093
10.003844
9.9974351
9.9910899
9.9855737
9.9820984
9.9801263
9.9793487
9.9795106
9.9804374
9.9819279
9.9838012
9.9860016
9.9885416
9.9913595
9.9941658
9.9973398
1581.1227
2358.1023
804.84844
528.26197
323.3787
251.95414
176.17131
141.07215
111.6657
91.406504
75.864199
63.974459
54.669584
47.305862
41.415178
36.647283
32.740783
29.509177
26.818437
24.556731
22.644803
21.019737
19.630403
18.436586
17.405578
16.51011
15.727961
15.041193
14.434526
13.898121
13.422711
13.000222
12.62454
12.290615
11.994141
11.731202
11.498272
11.292339
11.110847
10.951516
10.812278
10.691091
10.586023
10.495808
10.418115
10.351467
10.294506
10.246041
10.205003
10.170418
10.141489
10.117218
10.096938
10.080128
10.066546
10.055514
10.046783
10.040098
10.034811
10.029885
10.024625
10.019058
10.013166
10.006969
10.00054
9.9940008
9.9876484
9.9831437
9.9802081
9.9786358
9.9781639
9.9785461
9.9796271
9.9812707
9.9833179
9.9857288
9.9884776
9.9914289
9.9943365
9.9975899
1596.7077
2290.1927
770.52575
514.38689
310.17345
242.14701
170.14398
134.86278
106.53915
86.814736
71.867622
60.469414
51.609256
44.641946
39.096952
34.632471
30.991243
27.98573
25.486671
23.394581
21.630321
20.132575
18.853561
17.755515
16.808066
15.986018
15.268246
14.637202
14.081112
13.589116
13.152817
12.764898
12.419594
12.112276
11.839208
11.597102
11.382766
11.193277
11.026243
10.879426
10.750981
10.639297
10.542975
10.459651
10.387958
10.326433
10.273794
10.228928
10.190879
10.159095
10.132246
10.109755
10.090977
10.075403
10.062738
10.052414
10.044189
10.037854
10.032767
10.027557
10.022105
10.016369
10.010336
10.003994
9.9974024
9.9908204
9.9851634
9.9813116
9.9788428
9.9775691
9.9773383
9.9779387
9.9791372
9.9808906
9.983052
9.985581
9.9884201
9.9914198
9.9943969
9.9977416
1609.5261
2221.4264
733.64384
498.47966
296.18178
230.81873
162.98894
127.70644
100.58258
81.639556
67.428782
56.659266
48.356188
41.862803
36.718175
32.593689
29.244606
26.479561
24.188746
22.273489
20.660212
19.291639
18.12294
17.119068
16.252388
15.500397
14.842694
14.26589
13.757021
13.306153
12.906158
12.550278
12.23319
11.950542
11.698902
11.475567
11.278072
11.103462
10.949647
10.814455
10.69603
10.593416
10.504229
10.427192
10.36087
10.303969
10.255271
10.213747
10.178544
10.14892
10.123942
10.103003
10.085543
10.071076
10.059239
10.049569
10.041792
10.035702
10.0307
10.025285
10.019665
10.013777
10.007628
10.001212
9.9945697
9.988024
9.9832819
9.979984
9.9779269
9.976891
9.9767842
9.9775919
9.9788738
9.9806928
9.9829189
9.9855088
9.9883806
9.9913837
9.9944303
9.9978834
1616.7777
2137.9496
693.97589
478.84724
281.14255
217.64909
154.23297
119.46589
93.795551
75.927998
62.631131
52.651583
45.006812
39.054561
34.352721
30.592104
27.546399
25.037033
22.957801
21.22024
19.75625
18.513624
17.451458
16.537648
15.746893
15.059148
14.458223
13.930537
13.46509
13.051721
12.684561
12.357634
12.066136
11.806046
11.574016
11.367434
11.184925
11.023485
10.881339
10.756653
10.647623
10.55252
10.469915
10.39845
10.336868
10.284036
10.238856
10.200212
10.16763
10.139959
10.1166
10.096978
10.080625
10.067148
10.056021
10.046941
10.039607
10.033729
10.028641
10.023119
10.017381
10.011367
10.005094
9.9985997
9.9920303
9.9859981
9.9818363
9.9790031
9.9773205
9.9765589
9.9764877
9.9774104
9.9787607
9.9806099
9.9828591
9.9854597
9.988339
9.9913776
9.9945187
9.9979926
1613.2925
2035.4892
651.00687
453.1913
264.87771
202.29007
143.63544
110.16542
86.328415
69.807616
57.659953
48.593616
41.680387
36.312537
32.077891
28.691683
25.950046
23.695193
21.823346
20.256943
18.934827
17.810524
16.847661
16.01759
15.297606
14.669695
14.119482
13.635197
13.207091
12.827266
12.489199
12.187809
11.918845
11.678809
11.464741
11.274102
11.104711
10.954756
10.822501
10.706396
10.604965
10.516696
10.439908
10.373422
10.316014
10.266658
10.224688
10.188747
10.15813
10.132189
10.110274
10.091785
10.076441
10.063649
10.053101
10.044487
10.037555
10.03186
10.026627
10.021063
10.01528
10.00922
10.002874
9.9962934
9.9897637
9.9845186
9.9807671
9.9782651
9.9768305
9.9762941
9.9764303
9.9773301
9.9787387
9.9805996
9.982847
9.9854266
9.9882845
9.9913488
9.9945838
9.99809
1592.9034
1904.2245
604.94701
420.83798
247.39065
184.53551
131.41698
100.12967
78.529967
63.60314
52.736018
44.650678
38.500203
33.729943
29.965288
26.948616
24.499133
22.486197
20.808933
19.400818
18.208388
17.191117
16.317366
15.562093
14.905228
14.33063
13.825485
13.379903
12.985227
12.634508
12.321744
12.04245
11.792819
11.569743
11.370602
11.193154
11.035422
10.895631
10.77216
10.663514
10.568389
10.485957
10.414211
10.352083
10.298462
10.252338
10.212801
10.179022
10.150141
10.125599
10.104985
10.08755
10.072902
10.060687
10.050588
10.042362
10.035635
10.030055
10.024708
10.019113
10.013326
10.007296
10.001003
9.9944903
9.9880989
9.9834153
9.9800178
9.9777851
9.9765352
9.9761181
9.9764248
9.9773247
9.9787571
9.9806234
9.9828561
9.9854029
9.9882323
9.9913156
9.9946249
9.9981611
1546.7614
1743.7916
556.95535
382.57715
229.61011
164.66013
118.26095
89.981103
70.856288
57.638272
48.083724
40.982738
35.583028
31.391427
28.076081
25.409677
23.233578
21.435146
19.932642
18.664937
17.586508
16.662478
15.865709
15.174724
14.572219
14.043929
13.577391
13.164658
12.798035
12.472073
12.180785
11.920241
11.687029
11.478359
11.291874
11.125548
10.977602
10.846429
10.730554
10.628603
10.539284
10.461379
10.393709
10.334988
10.284244
10.240511
10.202977
10.17109
10.143793
10.120547
10.100813
10.084142
10.070109
10.058343
10.048639
10.040605
10.034006
10.028457
10.022998
10.017349
10.011537
10.005524
9.999301
9.9929378
9.9868866
9.9825923
9.979476
9.9774556
9.9763748
9.9760399
9.9764088
9.977339
9.9787865
9.9806528
9.9828721
9.9853941
9.9882042
9.9913002
9.9946532
9.9982047
1466.6452
1580.3858
508.00438
343.1956
205.70804
145.40304
105.10677
80.406355
63.762927
52.226448
43.918486
37.744899
33.039456
29.372823
26.458659
24.102165
22.167716
20.558977
19.206332
18.058726
17.07706
16.231568
15.498938
14.860682
14.301906
13.810469
13.376376
12.991346
12.648661
12.342729
12.068914
11.823571
11.603639
11.406589
11.230282
11.072867
10.932705
10.808301
10.698267
10.601293
10.516156
10.441777
10.377446
10.321559
10.273256
10.231625
10.195858
10.165218
10.139044
10.116691
10.097677
10.081573
10.06809
10.05673
10.047235
10.039346
10.032804
10.027236
10.021678
10.015959
10.010094
10.00406
9.9978656
9.9916371
9.986034
9.9820027
9.9791035
9.9772319
9.9762564
9.9759756
9.9764027
9.9773492
9.9788069
9.9806727
9.9828848
9.9853972
9.9882043
9.9913115
9.994683
9.9982279
1354.3417
1491.8637
461.97868
295.90722
181.92973
127.31554
93.211529
71.926117
57.623335
47.660757
40.45803
35.088307
30.973021
27.744305
25.159758
23.055173
21.316223
19.861156
18.629325
17.578517
16.675048
15.893255
15.212881
14.617729
14.094665
13.632955
13.223716
12.859638
12.534788
12.244698
11.984455
11.750875
11.541154
11.352989
11.184426
11.033772
10.899523
10.780309
10.674853
10.581941
10.500404
10.429098
10.366901
10.312882
10.266097
10.225704
10.190933
10.161123
10.135809
10.114156
10.095731
10.080091
10.066865
10.055731
10.046399
10.038612
10.032112
10.026528
10.02091
10.015134
10.009213
10.003139
9.9969399
9.9907903
9.9854784
9.9816339
9.9788862
9.977112
9.9761723
9.9758904
9.9763895
9.9773406
9.9788039
9.9806695
9.9828802
9.9853951
9.9882116
9.9913313
9.994709
9.9982423
1221.3859
1248.1491
421.88656
253.7234
159.81056
112.22785
83.365817
65.076363
52.769792
44.141115
37.855494
33.126613
29.468883
26.573174
24.235301
22.316343
20.719112
19.373954
18.229825
17.248515
16.40099
15.664651
15.021604
14.457401
13.960174
13.520055
13.129022
12.780339
12.468449
12.188763
11.937522
11.711593
11.508397
11.325777
11.161901
11.015178
10.884191
10.767649
10.664344
10.57315
10.493046
10.423305
10.362372
10.309413
10.263512
10.22385
10.189674
10.160303
10.13513
10.113619
10.095288
10.079718
10.066541
10.055436
10.046123
10.038349
10.031861
10.026291
10.020713
10.01496
10.009052
10.002972
9.9967539
9.9905911
9.9853515
9.9815512
9.9788357
9.977089
9.9761799
9.9759158
9.9763469
9.9773116
9.9787661
9.9806314
9.9828448
9.9853716
9.9882043
9.9913364
9.9947169
9.9982452
1101.7953
1111.57
389.31906
223.06515
143.2594
101.12492
76.071015
60.085588
49.298919
41.670288
36.056557
31.79247
28.463557
25.805594
23.642828
21.854876
20.35693
19.087813
18.002444
17.066939
16.255336
15.547358
14.926882
14.380956
13.899469
13.472111
13.09164
12.75169
12.447035
12.173326
11.926979
11.705038
11.505058
11.324999
11.16313
11.017949
10.888118
10.772411
10.669679
10.578828
10.498805
10.428599
10.367251
10.313829
10.267467
10.227355
10.192749
10.162974
10.137421
10.11555
10.096881
10.080993
10.067518
10.056134
10.046561
10.038548
10.031854
10.026161
10.020736
10.015113
10.009378
10.003492
9.9974654
9.9914147
9.9859146
9.9819552
9.9790918
9.9772309
9.9762396
9.9759474
9.9763457
9.9772617
9.9786982
9.9805512
9.982764
9.9853044
9.9881571
9.9913057
9.9946963
9.9982359
1046.8666
1069.736
365.13345
206.01091
132.40811
93.581412
70.629404
56.11472
46.338346
39.41434
34.30328
30.40311
27.345146
24.893322
22.890556
21.228862
19.831932
18.644557
17.625957
16.745442
15.979482
15.309692
14.721414
14.20272
13.743737
13.336194
12.973088
12.64852
12.357531
12.095985
11.860453
11.648101
11.456588
11.283966
11.128589
10.98904
10.864064
10.752516
10.653326
10.565473
10.487977
10.419886
10.36029
10.308316
10.26314
10.223995
10.190172
10.161024
10.135969
10.114485
10.096112
10.080441
10.067118
10.055831
10.046308
10.038307
10.031594
10.025857
10.020376
10.014713
10.00895
10.003049
9.997028
9.9910277
9.9857511
9.9818838
9.9790788
9.9772372
9.9762258
9.9759076
9.9763033
9.9771888
9.9786015
9.9804361
9.9826462
9.9851932
9.9880623
9.9912307
9.9946441
9.9982156
31783.237
79244.376
37269.494
10784.62
1411.5999
610.80368
433.0395
349.47861
289.53392
235.52568
191.91298
158.76103
134.2499
116.04422
102.02413
90.574998
80.89778
72.64092
65.566313
59.463152
54.155907
49.509389
45.418798
41.798976
38.584777
35.711933
33.135221
30.814816
28.718997
26.822715
25.104578
23.545503
22.128838
20.839938
19.667314
18.601287
17.633135
16.75512
15.960177
15.24188
14.59463
14.012866
13.491526
13.026056
12.611992
12.245121
11.921618
11.637464
11.388988
11.172835
10.985736
10.824594
10.686463
10.568825
10.469183
10.385716
10.318688
10.26716
10.230496
10.210873
10.205002
10.205036
10.205457
10.205295
10.204649
10.202069
10.197163
10.191086
10.180845
10.17284
10.151225
10.141129
10.114978
10.113236
10.06228
10.080741
10.023533
10.042954
9.9988208
10.007826
19749.917
60229.038
24949.942
5130.1028
974.14909
528.18606
396.67522
320.43157
263.25123
212.07099
173.93385
145.19271
124.20353
108.43899
95.993248
85.573535
76.70025
69.115762
62.594545
56.941167
52.002349
47.661885
43.827732
40.424124
37.38936
34.670555
32.226438
30.019775
28.022582
26.21233
24.569274
23.075735
21.716378
20.477738
19.349541
18.322829
17.389461
16.542253
15.774575
15.080421
14.454558
13.89166
13.386972
12.936184
12.535007
12.179429
11.865796
11.590198
11.349139
11.139392
10.957794
10.801354
10.667228
10.553007
10.456284
10.374984
10.309518
10.259336
10.22388
10.205355
10.200115
10.200348
10.200755
10.200582
10.200106
10.198174
10.193843
10.188063
10.178286
10.170327
10.149743
10.140034
10.114151
10.112887
10.063078
10.08255
10.024966
10.044175
9.9989932
10.007508
27712.31
36348.582
13786.198
2574.8553
838.03393
498.16211
386.57707
305.19621
249.8975
200.53807
166.19239
139.10627
119.63996
104.75205
92.886981
82.882439
74.385905
67.122489
60.867088
55.435637
50.685253
46.506625
42.812014
39.528948
36.596818
33.968545
31.604145
29.467341
27.532197
25.777105
24.183016
22.732933
21.412215
20.207994
19.110691
18.111656
17.203079
16.378086
15.630287
14.953927
14.343989
13.795268
13.303218
12.863671
12.472447
12.125665
11.819783
11.550958
11.31582
11.11123
10.934094
10.781501
10.650697
10.539361
10.445018
10.365639
10.301351
10.252212
10.217686
10.199888
10.195235
10.195613
10.196015
10.195839
10.195293
10.193968
10.190247
10.184805
10.175552
10.167689
10.148289
10.138893
10.113264
10.11237
10.063939
10.084381
10.026411
10.045343
9.9991132
10.007123
35351.195
24180.466
8419.084
1556.932
754.84913
474.77024
374.11372
289.31887
238.69995
189.88029
159.17683
133.1918
115.30696
101.2051
89.922328
80.326751
72.194123
65.230562
59.224444
54.001794
49.428449
45.401554
41.837644
38.667547
35.833934
33.289159
30.999448
28.928658
27.052435
25.349874
23.802601
22.39424
21.110778
19.939891
18.872652
17.900647
17.016381
16.213259
15.485104
14.826391
14.232299
13.697725
13.218328
12.790064
12.408853
12.070944
11.772896
11.510928
11.281799
11.082449
10.909854
10.761184
10.633837
10.525359
10.433463
10.356184
10.293108
10.245037
10.211461
10.194457
10.190361
10.190864
10.191261
10.191082
10.19052
10.189388
10.1863
10.181238
10.172569
10.164848
10.146723
10.137665
10.112241
10.111803
10.064842
10.086243
10.027859
10.046456
9.999182
10.006716
40020.127
20465.931
5904.1922
1230.5293
719.556
457.33424
364.39283
276.86238
230.52431
181.71628
154.20147
128.58506
112.03568
98.383328
87.539501
78.245926
70.396698
63.663278
57.850922
52.792133
48.359251
44.453952
40.995713
37.917748
35.164689
32.691501
30.46248
28.447345
26.621257
24.963724
23.456882
22.08482
20.834015
19.692565
18.65208
17.704268
16.841904
16.058606
15.348359
14.705828
14.126343
13.604873
13.137261
12.719553
12.347749
12.018213
11.727586
11.472137
11.248745
11.054415
10.886189
10.741318
10.617281
10.511589
10.422072
10.346838
10.285038
10.237987
10.205313
10.189132
10.185491
10.1861
10.186493
10.186313
10.185723
10.184512
10.182019
10.177383
10.169354
10.161828
10.145045
10.136351
10.111104
10.111167
10.06577
10.088118
10.029296
10.047496
9.9991991
10.006276
42851.469
19048.565
4520.248
1156.7273
698.72903
438.71707
356.80905
267.01595
224.22319
175.19953
150.2961
124.68055
109.33333
95.947986
85.488005
76.439973
68.828887
62.286587
56.63743
51.71756
47.404572
43.603613
40.236493
37.238363
34.555596
32.144525
29.969515
28.003591
26.221975
24.604641
23.134084
21.794767
20.573583
19.458977
18.443027
17.517492
16.675404
15.910547
15.217034
14.589698
14.023987
13.514924
13.058521
12.650888
12.288098
11.966613
11.683146
11.434006
11.216188
11.026751
10.862809
10.72172
10.60085
10.497893
10.410724
10.337508
10.277085
10.231015
10.199219
10.183822
10.180621
10.181327
10.181718
10.181537
10.180922
10.179649
10.177401
10.173229
10.165896
10.158618
10.143211
10.13494
10.109894
10.110454
10.066709
10.089989
10.030705
10.048452
9.999165
10.005807
45108.273
17146.547
3616.8243
1104.7653
683.12089
425.91408
350.86008
259.10561
219.36285
170.00975
147.18456
121.39245
107.09348
93.845865
83.721002
74.870218
67.458519
61.075185
55.563433
50.761244
46.55056
42.839157
39.55068
36.621828
34.000356
31.643864
29.518024
27.594447
25.85216
24.270719
22.832746
21.522985
20.328671
19.238542
18.245083
17.340049
16.516718
15.768993
15.091098
14.478008
13.925265
13.42793
12.982168
12.584136
12.229965
11.91621
11.639636
11.396592
11.184183
10.999523
10.839833
10.702318
10.584564
10.484296
10.399441
10.328213
10.269264
10.224131
10.193185
10.178548
10.175759
10.176553
10.176943
10.17676
10.176118
10.174787
10.172496
10.168784
10.162197
10.155218
10.14118
10.133433
10.1086
10.109658
10.067644
10.091834
10.032074
10.049313
9.9990787
10.005303
46772.762
14504.856