/*--------------------------------*- C++ -*----------------------------------*\
  =========                 |
  \\      /  F ield         | OpenFOAM: The Open Source CFD Toolbox
   \\    /   O peration     | Website:  https://openfoam.org
    \\  /    A nd           | Version:  12
     \\/     M anipulation  |
\*---------------------------------------------------------------------------*/
FoamFile
{
    format      ascii;
    class       surfaceScalarField;
    location    "0.073";
    object      phi;
}
// * * * * * * * * * * * * * * * * * * * * * * * * * * * * * * * * * * * * * //

dimensions      [1 0 -1 0 0 0 0];

internalField   nonuniform List<scalar> 
31760
(
-0.00064262679
-0.050739865
0.051380799
-0.0016113445
-0.064142129
0.065109897
-0.0026075077
-0.062797848
0.063790321
-0.0036312755
-0.068436225
0.069458872
-0.004711106
-0.070112311
0.071190798
-0.0058185049
-0.074360431
0.075466473
-0.0069976805
-0.077284883
0.078462553
-0.0082147884
-0.081278227
0.082493768
-0.0094936731
-0.084893078
0.08617028
-0.010831055
-0.088999072
0.090334692
-0.012224824
-0.093122953
0.094514866
-0.013686224
-0.097522768
0.098982224
-0.015210145
-0.10208676
0.10360865
-0.016804778
-0.10687643
0.10846894
-0.018469777
-0.11188072
0.1135435
-0.0202099
-0.11711617
0.11885399
-0.02202785
-0.12259084
0.12440638
-0.023926858
-0.1283161
0.1302126
-0.0259102
-0.13430291
0.13628365
-0.027981305
-0.1405625
0.1426309
-0.030143643
-0.14710722
0.14926676
-0.032401008
-0.15394899
0.15620346
-0.034757028
-0.16110135
0.16345437
-0.037215644
-0.16857793
0.17103345
-0.039779867
-0.17639321
0.17895424
-0.042454314
-0.18456123
0.1872324
-0.045242916
-0.19309818
0.19588341
-0.04814914
-0.20202056
0.20492334
-0.051176522
-0.21134525
0.21436911
-0.054329144
-0.22109022
0.22423925
-0.057610354
-0.23127432
0.23455188
-0.06102352
-0.24191727
0.24532675
-0.064571496
-0.25304047
0.25658473
-0.068257367
-0.26466493
0.26834708
-0.072083167
-0.27681463
0.28063672
-0.076050598
-0.28951372
0.29347748
-0.080161028
-0.3027878
0.30689463
-0.084414965
-0.31666445
0.32091488
-0.08881225
-0.33117149
0.33556542
-0.093351585
-0.34634023
0.35087642
-0.098030977
-0.36220226
0.36687878
-0.102847
-0.37879116
0.38360465
-0.10779502
-0.39614275
0.4010887
-0.11286921
-0.41429468
0.41936734
-0.11806181
-0.43328703
0.43847876
-0.12336363
-0.45316113
0.45846287
-0.12876306
-0.47396155
0.47936184
-0.13424712
-0.49573426
0.50122027
-0.13980022
-0.51852889
0.52408521
-0.14540396
-0.5423967
0.54800511
-0.1510372
-0.56739151
0.57303106
-0.15667628
-0.59357066
0.59921793
-0.16229368
-0.62099377
0.62662145
-0.16785826
-0.64972362
0.65530082
-0.17333531
-0.67982594
0.6853182
-0.17868463
-0.71137055
0.71673797
-0.18386184
-0.74442989
0.74962839
-0.18881716
-0.7790802
0.78406036
-0.1934938
-0.81540196
0.82010736
-0.19782917
-0.8534791
0.8578476
-0.20175279
-0.89339947
0.89736104
-0.20518643
-0.93525467
0.93873164
-0.20804255
-0.97914074
0.98204618
-0.21022384
-1.0251573
1.0273947
-0.2116219
-1.0734061
1.0748679
-0.21211659
-1.1239927
1.1245597
-0.21157266
-1.1770238
1.1765621
-0.20984537
-1.2326071
1.2309733
-0.20676848
-1.2908573
1.287887
-0.20215481
-1.3518881
1.3473958
-0.19580277
-1.4158115
1.4095972
-0.18749539
-1.4827291
1.474577
-0.17698456
-1.5527266
1.542388
-0.16402044
-1.6258466
1.6130691
-0.14821346
-1.7021735
1.6865592
-0.12961128
-1.7818481
1.763429
-0.10668816
-1.8653695
1.8425961
-0.081529307
-1.9552358
1.9301493
-0.049723861
-2.0477748
2.0160169
-2.1518714
2.1170233
-0.00063726544
-0.050104727
-0.00150974
-0.063270976
-0.0024146415
-0.061892297
-0.0033778084
-0.067474751
-0.0043528812
-0.069139085
-0.0054052258
-0.07330991
-0.0064736191
-0.07621843
-0.0076221242
-0.080131684
-0.0087971747
-0.083720094
-0.010046924
-0.087751447
-0.01134029
-0.091831797
-0.012701521
-0.096163829
-0.014120799
-0.10066987
-0.015607151
-0.10539255
-0.017160826
-0.11032962
-0.018785998
-0.11549368
-0.020484892
-0.12089473
-0.022261313
-0.12654257
-0.024118517
-0.13244871
-0.026060121
-0.13862402
-0.028089823
-0.14508076
-0.030210918
-0.15183125
-0.032427551
-0.15888819
-0.034743457
-0.16626562
-0.037163475
-0.17397691
-0.039690471
-0.18203808
-0.042329186
-0.19046342
-0.045083409
-0.19927042
-0.047957474
-0.20847537
-0.050955009
-0.21809697
-0.054080151
-0.22815356
-0.057336293
-0.23866559
-0.060726799
-0.2496545
-0.064254723
-0.2611416
-0.067922557
-0.27315142
-0.071732689
-0.28570823
-0.075686359
-0.29883876
-0.079785134
-0.31257025
-0.084028424
-0.32693269
-0.088415882
-0.34195712
-0.092945958
-0.35767631
-0.0976156
-0.37412535
-0.10242048
-0.39134133
-0.10735557
-0.40936258
-0.11241379
-0.42823119
-0.11758662
-0.44798998
-0.12286382
-0.46868519
-0.12823273
-0.49036518
-0.13367904
-0.51308124
-0.13918612
-0.53688692
-0.14473452
-0.56183886
-0.15030208
-0.5879971
-0.15586345
-0.61542442
-0.16139016
-0.64418675
-0.16684993
-0.67435359
-0.17220619
-0.70599901
-0.17741822
-0.73919961
-0.18244012
-0.77403674
-0.18722024
-0.81059662
-0.19170137
-0.84896867
-0.19581912
-0.88924783
-0.19950182
-0.93153291
-0.20266917
-0.97592844
-0.20523301
-1.0225418
-0.207094
-1.0714857
-0.20814335
-1.1228748
-0.20825614
-1.1768321
-0.20729766
-1.2334747
-0.20511736
-1.2929329
-0.20154649
-1.3553386
-0.19640171
-1.4208185
-0.18947957
-1.4894954
-0.1805603
-1.5614726
-0.16939109
-1.6368284
-0.15571684
-1.7156547
-0.13925217
-1.7981311
-0.11934618
-1.8851353
-0.096589936
-1.9779296
-0.068638395
-2.0756884
-2.1831539
-0.00057668695
-0.049530186
-0.0013911998
-0.062458018
-0.0022031398
-0.061082721
-0.003110493
-0.066569123
-0.0040080489
-0.068243436
-0.0049917609
-0.072328107
-0.005977669
-0.075234563
-0.0070469553
-0.07906448
-0.0081360264
-0.082633224
-0.0092980416
-0.086591711
-0.010500416
-0.090631804
-0.011767025
-0.094899698
-0.013089049
-0.099350431
-0.014474726
-0.10400957
-0.015924783
-0.10888237
-0.017442833
-0.11397856
-0.019032254
-0.11930836
-0.020696025
-0.12488197
-0.022438444
-0.1307096
-0.024262368
-0.13680353
-0.026172317
-0.14317439
-0.02817185
-0.14983544
-0.030264886
-0.15679901
-0.032456246
-0.16407826
-0.034749246
-0.17168805
-0.037149136
-0.17964248
-0.039659412
-0.18795758
-0.042285185
-0.19664922
-0.04503006
-0.20573521
-0.04789923
-0.21523264
-0.050895856
-0.2251619
-0.054024318
-0.23554222
-0.057288473
-0.24639554
-0.060691065
-0.25774429
-0.064235738
-0.26961212
-0.067924719
-0.28202467
-0.071760305
-0.29500863
-0.075743071
-0.30859293
-0.079874092
-0.32280706
-0.084152913
-0.33768359
-0.088577806
-0.35325656
-0.093146712
-0.36956135
-0.09785631
-0.38663631
-0.1027012
-0.40452187
-0.10767543
-0.42326061
-0.11277109
-0.44289735
-0.11797897
-0.46347955
-0.12328721
-0.48505826
-0.12868328
-0.5076854
-0.13415153
-0.53141763
-0.13967381
-0.5563141
-0.14523067
-0.58243611
-0.15079878
-0.60985035
-0.15635216
-0.63862535
-0.16186154
-0.66883393
-0.16729385
-0.70055391
-0.17261235
-0.73386556
-0.17777467
-0.76885579
-0.1827351
-0.80561413
-0.18744095
-0.84423693
-0.1918345
-0.88482404
-0.19585051
-0.92748168
-0.1994172
-0.97232077
-0.2024537
-1.0194576
-0.20487026
-1.0690135
-0.20656619
-1.121114
-0.20743378
-1.1758887
-0.20734734
-1.2334726
-0.20616735
-1.2940097
-0.20374565
-1.3576406
-0.19991006
-1.4245164
-0.19448238
-1.4947667
-0.1872565
-1.5685245
-0.17801024
-1.645887
-0.16650611
-1.7269665
-0.1524243
-1.8120343
-0.13542496
-1.9020018
-0.11543922
-1.9978577
-0.091279069
-2.099819
-2.2107124
-0.00052051969
-0.0490118
-0.0012745043
-0.061705611
-0.0020139974
-0.060345263
-0.0028685795
-0.065716302
-0.0036998038
-0.067414186
-0.004616564
-0.071413336
-0.0055253891
-0.074327873
-0.0065210584
-0.078071
-0.0075297271
-0.081626875
-0.0086107407
-0.085513107
-0.0097290162
-0.089516051
-0.010908657
-0.093722689
-0.012141803
-0.098120035
-0.013435713
-0.10271853
-0.014792096
-0.10752898
-0.016214746
-0.11255904
-0.01770699
-0.11781938
-0.019272245
-0.12332012
-0.02091402
-0.12907137
-0.022636702
-0.13508454
-0.024443506
-0.14137142
-0.026339536
-0.1479434
-0.028328745
-0.15481395
-0.030415169
-0.16199615
-0.032604007
-0.16950368
-0.03489926
-0.17735185
-0.037306013
-0.18555562
-0.039828655
-0.19413153
-0.042472683
-0.20309629
-0.045241507
-0.21246909
-0.048140305
-0.22226852
-0.051173487
-0.2325146
-0.054344798
-0.24322993
-0.057658166
-0.25443675
-0.061117049
-0.26615917
-0.064723954
-0.27842379
-0.068481144
-0.29125752
-0.072390585
-0.3046896
-0.07645268
-0.31875107
-0.080667527
-0.33347478
-0.085034581
-0.34889542
-0.089551226
-0.36505044
-0.094214721
-0.38197829
-0.099020767
-0.39972094
-0.1039635
-0.41832255
-0.10903649
-0.43782846
-0.1142301
-0.45828933
-0.11953546
-0.47975544
-0.12493983
-0.50228257
-0.13042962
-0.52592822
-0.13598918
-0.55075355
-0.14159992
-0.57682286
-0.14724156
-0.60420447
-0.1528912
-0.63296956
-0.15852168
-0.66319519
-0.16410449
-0.69496048
-0.16960603
-0.72835082
-0.17498924
-0.7634565
-0.18021275
-0.80037133
-0.18522991
-0.83919685
-0.18998885
-0.88003805
-0.19443149
-0.92300719
-0.1984935
-0.96822128
-0.20210253
-1.0158044
-0.20517825
-1.0658856
-0.20763304
-1.1185975
-0.20936191
-1.1740869
-0.21025911
-1.2324893
-0.21019611
-1.2939714
-0.20904058
-1.3586777
-0.20664089
-1.4267791
-0.20282479
-1.4984268
-0.19741998
-1.5737555
-0.19021911
-1.6529008
-0.18100259
-1.7359926
-0.16948097
-1.8233822
-0.15538649
-1.9159722
-0.13848241
-2.0147088
-0.11805631
-2.1202222
-2.2343488
-0.00046466494
-0.048549299
-0.0011708158
-0.061001118
-0.0018335331
-0.059684427
-0.0026321637
-0.064919522
-0.0033896405
-0.066658765
-0.0042483158
-0.070556747
-0.0050900706
-0.073488345
-0.0060202289
-0.077143131
-0.006957175
-0.080692344
-0.0079650523
-0.084507746
-0.0090088819
-0.088474856
-0.010111517
-0.092622806
-0.011267223
-0.096967205
-0.012482192
-0.10150657
-0.013758852
-0.10625546
-0.015100348
-0.11122081
-0.016510475
-0.11641266
-0.01799305
-0.12184111
-0.019551808
-0.12751632
-0.021190822
-0.13344939
-0.022914845
-0.13965143
-0.024727269
-0.14613517
-0.026633647
-0.15291193
-0.028638608
-0.15999571
-0.030746718
-0.16740027
-0.0329633
-0.17514014
-0.035293609
-0.18323035
-0.037742634
-0.19168772
-0.040315356
-0.20052896
-0.043017032
-0.20977298
-0.045852597
-0.21943869
-0.04882659
-0.22954651
-0.051943433
-0.24011914
-0.055207553
-0.25117883
-0.058622184
-0.26275087
-0.06219049
-0.27486192
-0.065915055
-0.28753948
-0.069797866
-0.30081337
-0.073839765
-0.31471577
-0.07804123
-0.32927989
-0.082401307
-0.34454184
-0.086918912
-0.36053918
-0.091590848
-0.3773125
-0.096413518
-0.39490411
-0.10138254
-0.41335897
-0.10649099
-0.43272494
-0.11173172
-0.4530529
-0.11709564
-0.47439505
-0.12257206
-0.49680876
-0.12814945
-0.52035236
-0.1338133
-0.54508999
-0.13954813
-0.5710869
-0.14533582
-0.59841405
-0.15115592
-0.62714495
-0.15698592
-0.6573587
-0.16279983
-0.68913788
-0.1685682
-0.72257133
-0.17425941
-0.75775146
-0.17983655
-0.79477732
-0.18525937
-0.83375373
-0.19048184
-0.87479131
-0.19545324
-0.91800689
-0.20011645
-0.96352366
-0.20440822
-1.0114716
-0.20825766
-1.0619872
-0.21158433
-1.1152122
-0.21430308
-1.171298
-0.21630812
-1.2304006
-0.21749858
-1.2926817
-0.21774134
-1.3583181
-0.21691003
-1.4274746
-0.21485482
-1.5003269
-0.21141388
-1.5770238
-0.20640796
-1.6577214
-0.19962807
-1.7425854
-0.19082017
-1.832023
-0.1797575
-1.9269204
-0.16616419
-2.0282545
-0.14955411
-2.1368151
-2.2538543
-0.00041462646
-0.048136836
-0.0010796766
-0.060337784
-0.0016790125
-0.059087125
-0.0024194595
-0.064181007
-0.0031009725
-0.06597935
-0.0039079467
-0.069751913
-0.0046833098
-0.072715253
-0.0055539512
-0.076274846
-0.0064277763
-0.079820983
-0.0073733279
-0.08356478
-0.0083562215
-0.087494667
-0.0093959258
-0.091585926
-0.010488945
-0.095877135
-0.011639973
-0.10035862
-0.012851869
-0.10504678
-0.014128521
-0.10994752
-0.015473459
-0.11507123
-0.016890583
-0.12042763
-0.018384415
-0.1260263
-0.019958973
-0.1318788
-0.021619376
-0.13799515
-0.023370463
-0.14438838
-0.025217403
-0.15106946
-0.027165331
-0.15805243
-0.02921989
-0.16535054
-0.03138692
-0.17297812
-0.033671195
-0.18095127
-0.036079049
-0.18928525
-0.038615819
-0.19799775
-0.041286923
-0.20710762
-0.04409799
-0.21663355
-0.047053642
-0.22659696
-0.050159318
-0.23701973
-0.053418372
-0.2479262
-0.056835367
-0.25934044
-0.060413703
-0.27129028
-0.064155655
-0.28380432
-0.068063292
-0.2969126
-0.072138252
-0.31064772
-0.076380703
-0.32504436
-0.080790645
-0.34013877
-0.08536619
-0.3559704
-0.090105725
-0.37257955
-0.095006118
-0.39001006
-0.10006242
-0.40830867
-0.10526966
-0.42752326
-0.11062217
-0.44770538
-0.11611118
-0.46891033
-0.12172883
-0.49119458
-0.12746375
-0.51461993
-0.13330534
-0.53924974
-0.13923961
-0.56515267
-0.14525148
-0.59240076
-0.15132378
-0.62106959
-0.15743703
-0.65124054
-0.16356933
-0.68299863
-0.16969675
-0.71643466
-0.17579102
-0.75164538
-0.18182144
-0.78873219
-0.1877528
-0.82780436
-0.19354675
-0.86897554
-0.19915921
-0.91236811
-0.20454133
-0.95810982
-0.20963803
-1.0063367
-0.21438771
-1.0571913
-0.21872114
-1.110823
-0.22256094
-1.1673908
-0.22582266
-1.2270578
-0.228404
-1.2900034
-0.23020425
-1.3564032
-0.23110094
-1.4264442
-0.23096668
-1.5003083
-0.22965918
-1.5781612
-0.22701657
-1.6601823
-0.22284907
-1.7465712
-0.21693722
-1.8377762
-0.20907309
-1.9346815
-0.19901249
-2.0382777
-0.18638178
-2.1494459
-2.2690065
-0.0003718955
-0.047767071
-0.0010056091
-0.059705799
-0.0015498695
-0.058544885
-0.0022426112
-0.063490224
-0.0028641079
-0.06535999
-0.0036237117
-0.06899447
-0.0043421894
-0.071999065
-0.0051512031
-0.075468225
-0.0059825172
-0.078992174
-0.0068814126
-0.082668489
-0.0078178457
-0.086560957
-0.008807623
-0.090598991
-0.0098504106
-0.094837317
-0.010950259
-0.099261874
-0.012111228
-0.10388905
-0.013336817
-0.10872531
-0.014631895
-0.11377968
-0.016000574
-0.11906264
-0.017447671
-0.12458304
-0.018978602
-0.13035187
-0.020597993
-0.13637993
-0.022312074
-0.14267864
-0.024126084
-0.14925996
-0.026045743
-0.15613746
-0.028077433
-0.16332372
-0.030226824
-0.17083379
-0.032500831
-0.17868251
-0.034905047
-0.18688646
-0.03744524
-0.19546318
-0.040128052
-0.20443061
-0.042958532
-0.21380906
-0.045942313
-0.22361934
-0.049084124
-0.23388425
-0.052389139
-0.24462768
-0.05586048
-0.25587574
-0.059501886
-0.26765565
-0.06331655
-0.27999655
-0.067306237
-0.2929299
-0.071472164
-0.30648884
-0.075815073
-0.32070852
-0.080335018
-0.33562588
-0.08503085
-0.35128156
-0.08990111
-0.36771615
-0.09494274
-0.38497508
-0.10015292
-0.40310485
-0.10552719
-0.42215496
-0.11106017
-0.44217788
-0.11674643
-0.46322894
-0.12257804
-0.4853671
-0.12854761
-0.50865361
-0.13464511
-0.53315448
-0.14086016
-0.55893869
-0.147181
-0.58607965
-0.15359339
-0.61465541
-0.16008206
-0.64474838
-0.16662898
-0.6764463
-0.17321467
-0.70984142
-0.17981646
-0.74503361
-0.18640878
-0.78212711
-0.19296344
-0.82123375
-0.19944765
-0.86247166
-0.20582548
-0.90596621
-0.2120557
-0.95185025
-0.21809241
-1.0002642
-0.22388375
-1.0513563
-0.2293706
-1.1052829
-0.23448715
-1.1622095
-0.23916019
-1.2223064
-0.24330405
-1.2857654
-0.24682687
-1.3527686
-0.24963137
-1.4235091
-0.251603
-1.4981872
-0.25261617
-1.5769823
-0.25253533
-1.6600871
-0.25118475
-1.7477478
-0.24837308
-1.8404401
-0.24393156
-1.9390344
-0.23763729
-2.0445519
-0.22920784
-2.1578958
-2.2795602
-0.00032897612
-0.047440171
-0.00093693066
-0.059099561
-0.0014317106
-0.058052095
-0.0020787053
-0.062845179
-0.0026551002
-0.064785701
-0.0033850146
-0.068266706
-0.0040694701
-0.071316888
-0.0048617219
-0.074678355
-0.0056536122
-0.078202747
-0.0065065916
-0.081818086
-0.0074008398
-0.085669405
-0.0083477287
-0.08965492
-0.009349775
-0.093838215
-0.010410428
-0.098204298
-0.011534138
-0.10276855
-0.0127255
-0.1075373
-0.013988493
-0.11252019
-0.015329114
-0.11772567
-0.016752213
-0.12316375
-0.018263488
-0.12884457
-0.019868797
-0.13477876
-0.021574166
-0.14097758
-0.023385922
-0.14745269
-0.025311325
-0.15421672
-0.02735587
-0.16128401
-0.029527061
-0.16866762
-0.031831059
-0.17638371
-0.034274717
-0.18444819
-0.036864567
-0.1928789
-0.039606693
-0.20169423
-0.042506856
-0.21091482
-0.045570828
-0.22056147
-0.048803772
-0.23065758
-0.052209785
-0.2412281
-0.055793154
-0.25229896
-0.059557443
-0.26389808
-0.0635049
-0.27605594
-0.067637865
-0.28880388
-0.071957767
-0.30217596
-0.076465281
-0.31620807
-0.08116036
-0.33093787
-0.086043118
-0.34640583
-0.091111598
-0.3626546
-0.096364361
-0.37972909
-0.10179904
-0.39767671
-0.10741243
-0.41654779
-0.11320102
-0.43639508
-0.11916061
-0.45727462
-0.12528606
-0.47924628
-0.1315716
-0.50237193
-0.13801087
-0.52671817
-0.14459572
-0.55235576
-0.15131766
-0.57935842
-0.15816649
-0.60780594
-0.16513092
-0.63778175
-0.17219797
-0.66937529
-0.17935215
-0.70268126
-0.18657649
-0.73780096
-0.1938516
-0.77484103
-0.20115515
-0.81391613
-0.20846187
-0.85514723
-0.21574307
-0.89866298
-0.22296587
-0.94460024
-0.23009356
-0.99310296
-0.23708338
-1.0443252
-0.24388796
-1.0984277
-0.25045243
-1.1555831
-0.25671398
-1.2159695
-0.26260513
-1.2797836
-0.26805239
-1.3472135
-0.2729624
-1.4184729
-0.27724988
-1.4937557
-0.28080306
-1.5732701
-0.28350295
-1.6572196
-0.28520067
-1.7458866
-0.28573579
-1.8397709
-0.2849672
-1.9397328
-0.28270459
-2.0468178
-0.27875506
-2.1618901
-2.2852321
-0.00028760158
-0.047154577
-0.00087673655
-0.058512106
-0.0013312003
-0.05759957
-0.0019532224
-0.06222507
-0.0025067519
-0.064234232
-0.0032112617
-0.067564299
-0.0038693906
-0.070660988
-0.0046376329
-0.073912381
-0.0053996943
-0.077443109
-0.0062202051
-0.081000103
-0.0070871633
-0.084805093
-0.0080072881
-0.088737561
-0.0089854582
-0.092862936
-0.010025127
-0.09716765
-0.011131389
-0.10166544
-0.012309091
-0.1063629
-0.013563917
-0.1112688
-0.014901297
-0.11639188
-0.016327255
-0.12174153
-0.017848575
-0.12732715
-0.019471308
-0.13316008
-0.021202989
-0.13925011
-0.023050003
-0.14561006
-0.025019745
-0.15225153
-0.0271198
-0.15918868
-0.029356958
-0.16643536
-0.031738751
-0.17400698
-0.03427205
-0.18192013
-0.036963299
-0.19019306
-0.039819304
-0.19884382
-0.042846137
-0.20789375
-0.046048866
-0.21736467
-0.049432391
-0.22728014
-0.053001542
-0.2376652
-0.056760033
-0.24854686
-0.06071068
-0.25995396
-0.064856436
-0.27191683
-0.069199254
-0.28446782
-0.073740278
-0.29764178
-0.078480699
-0.31147455
-0.083420641
-0.32600485
-0.088559906
-0.34127348
-0.093898348
-0.35732301
-0.099435438
-0.37419873
-0.10516962
-0.39194908
-0.11109957
-0.41062412
-0.11722334
-0.43027726
-0.1235388
-0.45096467
-0.13004352
-0.47274653
-0.13673401
-0.49568575
-0.14360698
-0.51984874
-0.15065813
-0.54530726
-0.15788212
-0.57213602
-0.16527334
-0.60041511
-0.17282443
-0.63022966
-0.18052722
-0.66166988
-0.18837129
-0.69483267
-0.19634592
-0.72981961
-0.20443718
-0.76674047
-0.21262938
-0.80571162
-0.2209048
-0.84685593
-0.22924247
-0.89030518
-0.23761831
-0.93619916
-0.24600389
-0.98468597
-0.25436789
-1.0359223
-0.26267264
-1.0900749
-0.27087663
-1.1473202
-0.278929
-1.2078454
-0.28677732
-1.2718488
-0.29435711
-1.3395309
-0.30160493
-1.4111052
-0.30844331
-1.4867809
-0.31478572
-1.5667779
-0.32052476
-1.6513243
-0.32553689
-1.7407247
-0.32969393
-1.8354971
-0.33288467
-1.9364946
-0.33496698
-2.0447649
-0.3358102
-2.1611181
-2.2856918
-0.0002488735
-0.046907632
-0.00082619211
-0.057936418
-0.0012498233
-0.057177815
-0.0018945966
-0.061582149
-0.0024332868
-0.063697538
-0.0031183427
-0.066881302
-0.003753318
-0.070028173
-0.0044800836
-0.073187877
-0.0052276269
-0.076697921
-0.00603187
-0.080198319
-0.0068883273
-0.083951208
-0.0077998741
-0.087828703
-0.0087736327
-0.091891986
-0.009813554
-0.096130663
-0.010925404
-0.10055666
-0.012114949
-0.10517655
-0.013388433
-0.10999865
-0.014752546
-0.11503124
-0.016214081
-0.12028361
-0.017779753
-0.12576524
-0.019458176
-0.13148557
-0.021255804
-0.13745655
-0.023181488
-0.1436886
-0.025242502
-0.15019489
-0.02744666
-0.15698906
-0.029802036
-0.16408468
-0.03231601
-0.17149787
-0.034995535
-0.17924562
-0.037847987
-0.18734579
-0.040879326
-0.19581781
-0.044095128
-0.20468343
-0.047501037
-0.2139644
-0.051101483
-0.22368549
-0.054900675
-0.23387194
-0.058901921
-0.24455169
-0.063108069
-0.25575403
-0.067521408
-0.26750983
-0.072143702
-0.27985197
-0.076976767
-0.29281525
-0.082021358
-0.30643657
-0.087278466
-0.3207544
-0.092748936
-0.33580967
-0.098433311
-0.35164527
-0.10433166
-0.36830695
-0.11044487
-0.3858423
-0.11677348
-0.40430175
-0.12331748
-0.42373923
-0.13007731
-0.44421046
-0.13705315
-0.46577586
-0.1442452
-0.48849836
-0.15165264
-0.51244531
-0.15927562
-0.53768753
-0.16711257
-0.56430144
-0.17516184
-0.59236715
-0.18342124
-0.62197034
-0.19188726
-0.65320248
-0.20055579
-0.686161
-0.20942094
-0.72094925
-0.21847595
-0.75767779
-0.22771225
-0.79646471
-0.23711869
-0.83743538
-0.24668296
-0.88072264
-0.25638955
-0.9264693
-0.26622039
-0.97482583
-0.27615325
-1.0259529
-0.28616231
-1.0800206
-0.29621695
-1.13721
-0.30628314
-1.1977117
-0.31631914
-1.2617315
-0.32628143
-1.3294723
-0.33612221
-1.4011525
-0.34577645
-1.4770002
-0.35518025
-1.5572366
-0.36424722
-1.6421157
-0.37287771
-1.7319617
-0.38097052
-1.8273094
-0.38845495
-1.9289899
-0.39521684
-2.0380582
-0.40123059
-2.1552109
-2.2805684
-0.00021451733
-0.046694964
-0.00079172213
-0.057360789
-0.0011920994
-0.056779245
-0.0018559252
-0.060920069
-0.0023726793
-0.063182707
-0.0030497337
-0.066206211
-0.003676791
-0.069403201
-0.0043976375
-0.072469192
-0.0051472677
-0.075950562
-0.0059513666
-0.079396591
-0.0068150978
-0.083089954
-0.007738632
-0.086907757
-0.0087304157
-0.090902904
-0.0097952652
-0.095068632
-0.010939846
-0.099415016
-0.012170868
-0.10394859
-0.013495502
-0.1086772
-0.014921074
-0.11360899
-0.016456001
-0.11875214
-0.018108193
-0.12411664
-0.019885899
-0.12971159
-0.02179801
-0.1355483
-0.023852643
-0.14163797
-0.026058477
-0.1479932
-0.028424198
-0.15462762
-0.030957179
-0.16155612
-0.033665227
-0.16879438
-0.036555608
-0.17635995
-0.039635058
-0.18427119
-0.042908796
-0.19254906
-0.046383241
-0.20121412
-0.050062249
-0.21029066
-0.053950602
-0.21980254
-0.058051094
-0.22977699
-0.062366568
-0.24024189
-0.066899989
-0.2512264
-0.071653319
-0.26276242
-0.076628136
-0.27488318
-0.081826226
-0.28762329
-0.087249447
-0.30101956
-0.092899363
-0.31511076
-0.098777818
-0.32993753
-0.10488652
-0.34554289
-0.11122809
-0.36197166
-0.11780491
-0.37927169
-0.12461935
-0.39749339
-0.13167504
-0.41668942
-0.13897447
-0.43691666
-0.14652158
-0.45823404
-0.15431964
-0.48070518
-0.1623724
-0.50439692
-0.17068264
-0.52938106
-0.17925402
-0.55573309
-0.18808968
-0.58353365
-0.19719189
-0.61286922
-0.20656279
-0.64383136
-0.21620412
-0.67651786
-0.22611625
-0.71103339
-0.23629885
-0.7474891
-0.24675022
-0.78600442
-0.2574684
-0.82670488
-0.26844822
-0.86972643
-0.27968367
-0.91521259
-0.29116628
-0.96331615
-0.30288482
-1.0142004
-0.31482512
-1.0680381
-0.32696993
-1.1250135
-0.33929651
-1.1853223
-0.35178343
-1.2491696
-0.36440129
-1.3167662
-0.37711319
-1.3883388
-0.38988759
-1.4641119
-0.40266665
-1.5443355
-0.41538541
-1.6292735
-0.42796709
-1.7192693
-0.44036078
-1.8148483
-0.45251785
-1.9168463
-0.46435604
-2.0263087
-0.47594354
-2.1437749
-2.2694461
-0.00019313024
-0.046503596
-0.00078932585
-0.056766102
-0.0011855364
-0.056384765
-0.0018424428
-0.060264863
-0.0023520969
-0.062674893
-0.0030312639
-0.06552893
-0.003673364
-0.068763095
-0.0044010798
-0.071743547
-0.0051722429
-0.075181567
-0.0059975027
-0.078573593
-0.0068904142
-0.082199403
-0.007850246
-0.085950388
-0.008886545
-0.089869172
-0.010005376
-0.093952477
-0.011214451
-0.098208727
-0.012521646
-0.10264429
-0.013935392
-0.10726647
-0.015464501
-0.11208301
-0.017117583
-0.1171023
-0.018904552
-0.12233303
-0.020834182
-0.12778544
-0.022916098
-0.13346999
-0.025159084
-0.13939871
-0.027572191
-0.14558394
-0.03016389
-0.1520399
-0.032942194
-0.15878191
-0.035914068
-0.16582672
-0.0390866
-0.17319175
-0.042465206
-0.18089703
-0.046055848
-0.18896299
-0.049862309
-0.19741235
-0.053888718
-0.20626907
-0.058138379
-0.21555782
-0.062613876
-0.22530655
-0.067317692
-0.23554325
-0.072252081
-0.24629731
-0.077418763
-0.25760115
-0.082820228
-0.26948725
-0.08845845
-0.28199071
-0.094336193
-0.29514755
-0.10045638
-0.30899639
-0.10682242
-0.32357738
-0.1134385
-0.33893274
-0.12030888
-0.35510721
-0.12743843
-0.37214806
-0.13483308
-0.39010458
-0.14249864
-0.40902959
-0.1504417
-0.42897915
-0.15866894
-0.45001212
-0.16718779
-0.47219136
-0.17600565
-0.49558372
-0.18513085
-0.52026005
-0.19457094
-0.54629664
-0.20433402
-0.57377349
-0.21442759
-0.60277767
-0.22486014
-0.63339971
-0.23563849
-0.66573898
-0.24676996
-0.69989961
-0.25826137
-0.73599319
-0.270119
-0.7741396
-0.28234786
-0.81446555
-0.29495253
-0.85710736
-0.30793617
-0.90220988
-0.32130039
-0.94992731
-0.33504537
-1.0004243
-0.34916891
-1.0538759
-0.36366649
-1.1104686
-0.3785313
-1.1704005
-0.39375827
-1.2338749
-0.40933045
-1.3011152
-0.42523824
-1.3723415
-0.44145527
-1.4477964
-0.45795344
-1.527734
-0.47469014
-1.6124359
-0.49161278
-1.7022633
-0.50870219
-1.7977261
-0.52595714
-1.8996467
-0.54332739
-2.0090588
-0.56094665
-2.1263639
-2.2518666
-0.00017476361
-0.046330498
-0.00079952206
-0.056142773
-0.0012024096
-0.055983517
-0.0018688891
-0.059599999
-0.0023905149
-0.062155012
-0.0030848021
-0.064836429
-0.0037569765
-0.068092808
-0.0045078589
-0.070994623
-0.0053186186
-0.074372856
-0.0061872771
-0.077707069
-0.0071333414
-0.081255564
-0.0081568086
-0.084929238
-0.0092679791
-0.088760413
-0.010474555
-0.092748409
-0.011785569
-0.096900318
-0.013210328
-0.10122224
-0.014758561
-0.10572104
-0.016440348
-0.11040412
-0.018265934
-0.11527972
-0.020245221
-0.12035685
-0.022388588
-0.12564528
-0.024705602
-0.13115628
-0.027205426
-0.13690229
-0.029897207
-0.14289566
-0.032788689
-0.14915201
-0.035887128
-0.15568716
-0.039199697
-0.16251794
-0.04273123
-0.16966411
-0.04648693
-0.17714532
-0.050470702
-0.18498331
-0.054685956
-0.19320129
-0.059135736
-0.20182359
-0.063821426
-0.21087654
-0.068746287
-0.22038621
-0.073911795
-0.23038238
-0.079319955
-0.24089391
-0.08497372
-0.25195226
-0.090875437
-0.26359052
-0.097029363
-0.27584189
-0.10343935
-0.28874279
-0.11011012
-0.30233095
-0.11704728
-0.31664563
-0.1242576
-0.33172791
-0.13174804
-0.34762231
-0.1395267
-0.36437496
-0.14760256
-0.38203428
-0.15598495
-0.40065271
-0.16468403
-0.42028551
-0.17371092
-0.44099053
-0.18307679
-0.46283062
-0.19279393
-0.48587147
-0.20287408
-0.51018448
-0.21333098
-0.53584389
-0.22417725
-0.56293082
-0.23542698
-0.59153083
-0.24709326
-0.62173536
-0.25919062
-0.65364231
-0.27173278
-0.68735655
-0.2847336
-0.72298944
-0.2982078
-0.76065997
-0.31216847
-0.80049636
-0.3266294
-0.84263419
-0.34160383
-0.8872188
-0.35710408
-0.93440521
-0.37314134
-0.9843592
-0.38972655
-1.0372561
-0.40686966
-1.0932832
-0.42458053
-1.1526391
-0.4428645
-1.2155318
-0.46172972
-1.2821824
-0.48117898
-1.3528172
-0.50121228
-1.4276831
-0.52181775
-1.5070482
-0.54296957
-1.591211
-0.56465688
-1.6805266
-0.58688691
-1.7755047
-0.60970509
-1.8769279
-0.63310901
-1.9858103
-0.65727598
-2.1024708
-2.2273099
-0.00016058042
-0.046171482
-0.00082684467
-0.055477851
-0.0012432382
-0.055568666
-0.0019397185
-0.058905038
-0.0024912466
-0.061605126
-0.003213584
-0.06411577
-0.0039360708
-0.06737209
-0.0047312125
-0.070201316
-0.0056044269
-0.073501555
-0.0065435261
-0.076769962
-0.0075719577
-0.080229203
-0.0086918765
-0.083811472
-0.0099146493
-0.087539874
-0.011250039
-0.091415336
-0.012708601
-0.095444153
-0.014301388
-0.099631929
-0.016039508
-0.10398548
-0.017934162
-0.10851211
-0.019996439
-0.11322017
-0.022237099
-0.11811899
-0.024666209
-0.12321905
-0.027293648
-0.1285318
-0.030128553
-0.13407041
-0.033178402
-0.13984892
-0.036450672
-0.14588292
-0.039951289
-0.1521898
-0.04368509
-0.15878747
-0.047656389
-0.16569621
-0.05186832
-0.17293688
-0.05632324
-0.18053196
-0.061022937
-0.18850525
-0.065969542
-0.19688073
-0.071164561
-0.20568537
-0.076609814
-0.21494491
-0.082307854
-0.22468841
-0.088261427
-0.23494452
-0.094474075
-0.24574393
-0.10095096
-0.25711807
-0.10769655
-0.26910087
-0.11471797
-0.28172606
-0.12202219
-0.29503155
-0.1296186
-0.30905416
-0.13751569
-0.32383586
-0.14572432
-0.33941882
-0.15425648
-0.355848
-0.16312387
-0.37317215
-0.17234014
-0.39144171
-0.18191976
-0.41071117
-0.19187738
-0.43103815
-0.2022293
-0.45248387
-0.21299171
-0.47511412
-0.22418278
-0.49899829
-0.23581981
-0.52421148
-0.24792175
-0.55083311
-0.26050844
-0.57894781
-0.27359973
-0.60864697
-0.28721601
-0.64002787
-0.30137928
-0.67319374
-0.3161111
-0.70825627
-0.33143332
-0.74533411
-0.34736897
-0.78455426
-0.36394145
-0.82605182
-0.38117402
-0.86997227
-0.39908976
-0.91647078
-0.41771342
-0.96571147
-0.43706865
-1.0178708
-0.45717963
-1.0731357
-0.47807118
-1.1317043
-0.49976717
-1.1937862
-0.52229497
-1.2595995
-0.54567579
-1.3293777
-0.56992691
-1.4033733
-0.59506087
-1.481861
-0.6210847
-1.5651476
-0.64800603
-1.6535968
-0.67587366
-1.7476921
-0.70476063
-1.8481846
-0.73474941
-1.9560271
-0.76602593
-2.0715398
-2.1951837
-0.00015242321
-0.046020518
-0.00087909676
-0.054752431
-0.0013143909
-0.055134814
-0.0020541617
-0.058166685
-0.0026561159
-0.061004702
-0.0034247809
-0.063348666
-0.0042206175
-0.066577895
-0.0050847945
-0.069338839
-0.0060460884
-0.072542029
-0.0070868739
-0.075731011
-0.0082327105
-0.079085268
-0.0094892923
-0.082556859
-0.010869485
-0.086161716
-0.012385084
-0.089901839
-0.014048439
-0.093782964
-0.015871861
-0.097810738
-0.017867623
-0.10199201
-0.020047565
-0.10633452
-0.022423155
-0.11084699
-0.025005082
-0.11553953
-0.027803337
-0.12042332
-0.030826539
-0.12551117
-0.034082253
-0.13081732
-0.037577226
-0.13635662
-0.04131613
-0.14214674
-0.045303288
-0.14820542
-0.049540901
-0.1545527
-0.054031145
-0.16120886
-0.058775466
-0.16819552
-0.06377461
-0.17553584
-0.069029885
-0.18325308
-0.074542198
-0.19137161
-0.080313762
-0.19991709
-0.08634683
-0.20891524
-0.092645306
-0.21839344
-0.099213182
-0.22838027
-0.10605674
-0.23890412
-0.11318223
-0.24999648
-0.12059867
-0.26168846
-0.12831459
-0.27401433
-0.13634169
-0.28700877
-0.14469062
-0.3007097
-0.1533751
-0.31515599
-0.16240954
-0.33038911
-0.17180876
-0.34645363
-0.1815893
-0.36339656
-0.19176869
-0.38126736
-0.20236539
-0.40011959
-0.21339921