/*--------------------------------*- C++ -*----------------------------------*\
  =========                 |
  \\      /  F ield         | OpenFOAM: The Open Source CFD Toolbox
   \\    /   O peration     | Website:  https://openfoam.org
    \\  /    A nd           | Version:  12
     \\/     M anipulation  |
\*---------------------------------------------------------------------------*/
FoamFile
{
    format      ascii;
    class       volScalarField;
    location    "1575";
    object      alphat;
}
// * * * * * * * * * * * * * * * * * * * * * * * * * * * * * * * * * * * * * //

dimensions      [1 -1 -1 0 0 0 0];

internalField   nonuniform List<scalar> 
16200
(
0.0004805929203
0.001646922349
0.002740045185
0.003591063182
0.003846393213
0.003384914594
0.002491286608
0.001363310884
0.0007051693342
0.0001776827886
5.575191248e-06
2.598132971e-06
2.355477667e-06
2.316546736e-06
1.84284886e-06
1.588413315e-06
1.387571741e-06
1.245986367e-06
1.154324814e-06
1.095422828e-06
1.061781721e-06
1.050643976e-06
1.059311346e-06
1.086166455e-06
1.130914201e-06
1.194823439e-06
1.281129464e-06
1.395637632e-06
1.548019556e-06
1.754565184e-06
2.04338022e-06
2.463988732e-06
3.105412299e-06
4.1333452e-06
5.873848861e-06
9.003365225e-06
1.498068287e-05
2.702374265e-05
5.232967978e-05
0.0001071823189
0.0002288358659
0.000503366659
0.001131283773
0.001165215662
0.001165794196
0.00116548576
0.001164491277
0.001164182412
0.001164194374
0.001164307458
0.001164436148
0.001164552204
0.001164650702
0.001164735802
0.001164814846
0.00116489748
0.001164994064
0.001165122099
0.001165294703
0.001165566835
0.0004689374893
0.001592294329
0.002619785599
0.003366516455
0.003457746143
0.002883565364
0.002012250516
0.0009951927057
0.0005500085027
3.919338713e-05
2.620178556e-06
2.161168953e-06
1.969775939e-06
1.932152873e-06
1.63965762e-06
1.409930128e-06
1.228220948e-06
1.100210619e-06
1.018910949e-06
9.678490564e-07
9.398370947e-07
9.320517128e-07
9.418142212e-07
9.674331657e-07
1.008496837e-06
1.066024376e-06
1.142831575e-06
1.244136329e-06
1.378877689e-06
1.56230707e-06
1.820540485e-06
2.198818186e-06
2.77739174e-06
3.704614468e-06
5.271632547e-06
8.081968769e-06
1.343743314e-05
2.421083717e-05
4.682812659e-05
9.582725937e-05
0.00020446989
0.0004496308946
0.001010479231
0.001165045925
0.001165663302
0.001165474893
0.001164491437
0.001164178023
0.001164190605
0.001164306427
0.001164438321
0.00116455728
0.001164658105
0.001164744838
0.001164824912
0.001164907799
0.001165004175
0.001165131612
0.001165303971
0.001165579974
0.0004592587479
0.001540804238
0.00250399633
0.003142156489
0.00308076589
0.002423973326
0.001532431207
0.0007219904281
0.0003600221253
1.365747938e-05
2.042462894e-06
1.810298719e-06
1.655374119e-06
1.62027139e-06
1.454039618e-06
1.247435473e-06
1.083934035e-06
9.687150311e-07
8.968146231e-07
8.525215116e-07
8.289447715e-07
8.231533064e-07
8.324597828e-07
8.551083598e-07
8.906110928e-07
9.398579926e-07
1.005515871e-06
1.092714493e-06
1.210354548e-06
1.373335883e-06
1.606260712e-06
1.950435198e-06
2.478073586e-06
3.322233305e-06
4.743981029e-06
7.284216146e-06
1.210863502e-05
2.178596494e-05
4.204932043e-05
8.58345761e-05
0.000182659099
0.0004005837013
0.00089792757
0.001164976343
0.001165585804
0.001165472809
0.001164507369
0.00116418759
0.001164197367
0.001164312713
0.001164445299
0.001164565358
0.00116466728
0.00116475487
0.001164835489
0.001164918433
0.001165014512
0.001165141395
0.00116531358
0.001165593477
0.0004524313188
0.001493405903
0.002391405171
0.002894347743
0.002706005951
0.002014539562
0.001084118759
0.0005331115555
0.0001727360875
4.715968143e-06
1.710293633e-06
1.534075785e-06
1.40727372e-06
1.374479291e-06
1.291424718e-06
1.104577123e-06
9.567994406e-07
8.527074372e-07
7.888212661e-07
7.501153773e-07
7.29970576e-07
7.253667694e-07
7.336506646e-07
7.531299659e-07
7.834270792e-07
8.25595126e-07
8.825622661e-07
9.598411712e-07
1.066668169e-06
1.217777176e-06
1.436469293e-06
1.760912798e-06
2.257460881e-06
3.048729492e-06
4.376000189e-06
6.739642548e-06
1.121792931e-05
2.018537589e-05
3.893456432e-05
7.938580864e-05
0.0001686875441
0.0003693302104
0.0008264641785
0.001165021081
0.001165577741
0.001165477832
0.001164541566
0.001164214835
0.001164218255
0.001164329304
0.001164459376
0.001164578116
0.001164679412
0.0011647667
0.001164847111
0.001164929701
0.001165025249
0.001165151505
0.001165323407
0.001165606615
0.000446888287
0.001449884747
0.002283894685
0.002654487126
0.002347110294
0.001659643047
0.0007808187415
0.0004030386488
4.150273745e-05
2.030521474e-06
1.458165179e-06
1.303333089e-06
1.199587626e-06
1.169635051e-06
1.139964469e-06
9.720121851e-07
8.393888132e-07
7.46063406e-07
6.897348952e-07
6.561515721e-07
6.390707281e-07
6.354880805e-07
6.42903913e-07
6.598558977e-07
6.862652917e-07
7.235658502e-07
7.751425877e-07
8.469604705e-07
9.484676363e-07
1.094032457e-06
1.305674987e-06
1.618963763e-06
2.09569086e-06
2.850574839e-06
4.110154698e-06
6.344626968e-06
1.056653231e-05
1.900226348e-05
3.66032823e-05
7.449200503e-05
0.0001579306174
0.0003449198114
0.0007698775499
0.001165149186
0.001165623221
0.001165497632
0.001164589257
0.00116425511
0.001164249538
0.001164353446
0.001164478613
0.001164594229
0.001164693623
0.001164779758
0.001164859427
0.00116494139
0.001165036286
0.001165161918
0.00116533355
0.00116561983
0.0004420330887
0.001409753005
0.00217959712
0.002416710123
0.002002451227
0.001291139522
0.0005778067768
0.0002762352673
1.631773559e-05
1.488838011e-06
1.222259684e-06
1.112729429e-06
1.027100582e-06
9.992519426e-07
1.000643162e-06
8.499822084e-07
7.314928315e-07
6.484703808e-07
5.993780556e-07
5.707913456e-07
5.568891995e-07
5.547548624e-07
5.621328614e-07
5.779103404e-07
6.024188505e-07
6.375555449e-07
6.871675624e-07
7.57566548e-07
8.582632355e-07
1.003253695e-06
1.213616302e-06
1.523145983e-06
1.99055401e-06
2.72532161e-06
3.944507923e-06
6.09921024e-06
1.0160133e-05
1.825793955e-05
3.511957405e-05
7.133269991e-05
0.0001508740271
0.0003286381424
0.0007315178105
0.001165344272
0.001165714648
0.001165543115
0.001164646889
0.001164306109
0.001164289819
0.001164384337
0.001164502576
0.001164613482
0.001164709821
0.001164794018
0.001164872444
0.001164953511
0.00116504764
0.001165172641
0.001165344
0.001165633039
0.0004371779281
0.001371726787
0.002076100352
0.002169516143
0.001678441259
0.0009451150128
0.0004347131591
0.0001630532206
4.901972586e-06
1.235940527e-06
1.042018889e-06
9.489308707e-07
8.781932348e-07
8.529151545e-07
8.705842243e-07
7.369967392e-07
6.326002066e-07
5.601309835e-07
5.184868169e-07
4.95160405e-07
4.848205606e-07
4.847360971e-07
4.929933377e-07
5.089090921e-07
5.332635639e-07
5.681651292e-07
6.183240077e-07
6.900427149e-07
7.928178383e-07
9.403626055e-07
1.153759013e-06
1.464769868e-06
1.930519877e-06
2.657117638e-06
3.855842459e-06
5.966541953e-06
9.934986671e-06
1.78328324e-05
3.424337211e-05
6.940029614e-05
0.0001464042543
0.0003179799597
0.0007056505805
0.001165585268
0.001165838595
0.001165606205
0.001164711242
0.001164364937
0.001164336915
0.001164420467
0.001164530277
0.001164635253
0.001164727632
0.001164809265
0.001164886048
0.001164966007
0.001165059292
0.001165183674
0.001165354778
0.001165646313
0.0004315969694
0.001333954647
0.001969680239
0.001920254975
0.001388834629
0.0006831925282
0.0003376900904
7.391737335e-05
2.455320964e-06
1.041703824e-06
8.863982856e-07
8.098166521e-07
7.517485913e-07
7.293485105e-07
7.536377813e-07
6.362565858e-07
5.453042059e-07
4.830700805e-07
4.486501958e-07
4.304955278e-07
4.238094874e-07
4.261138087e-07
4.358807054e-07
4.528704105e-07
4.780787385e-07
5.147309397e-07
5.671376974e-07
6.420150879e-07
7.489044256e-07
9.014448365e-07
1.119884963e-06
1.437181389e-06
1.907747281e-06
2.636376128e-06
3.831705233e-06
5.929093532e-06
9.864075706e-06
1.768141839e-05
3.38918174e-05
6.853451305e-05
0.000144196892
0.0003122669809
0.0006908251513
0.001165855008
0.001165984
0.001165680125
0.001164779458
0.001164429089
0.001164388963
0.001164460562
0.00116456089
0.001164659036
0.001164746761
0.001164825339
0.001164900163
0.001164978846
0.001165071232
0.001165195019
0.001165365889
0.001165659658
0.0004252600283
0.001294168455
0.001836981912
0.001669017298
0.001111177829
0.0005129589669
0.0002573200238
2.986433447e-05
1.428629267e-06
8.841372747e-07
7.597702275e-07
6.952311825e-07
6.471154551e-07
6.27250231e-07
6.518166198e-07
5.488979238e-07
4.701026491e-07
4.173502127e-07
3.89663943e-07
3.764107073e-07
3.733024133e-07
3.78129279e-07
3.895129818e-07
4.081834205e-07
4.355197297e-07
4.746366141e-07
5.303703098e-07
6.096113061e-07
7.220034117e-07
8.812793093e-07
1.107766024e-06
1.434196154e-06
1.914819048e-06
2.653717539e-06
3.859377869e-06
5.9681006e-06
9.917034236e-06
1.774991479e-05
3.396190785e-05
6.852567581e-05
0.0001438057502
0.0003105197477
0.00068484488
0.001166138607
0.001166140989
0.001165758586
0.001164849351
0.001164496389
0.00116444424
0.001164503393
0.001164593596
0.001164684311
0.001164766897
0.001164842066
0.0011649147
0.001164991987
0.00116508345
0.001165206675
0.00116537734
0.001165673099
0.0004179852097
0.001251998645
0.001688931552
0.001422107677
0.0008230421823
0.000389890805
0.0001840768979
1.771606956e-05
1.125033746e-06
7.541988425e-07
6.536453647e-07
5.991273142e-07
5.590977363e-07
5.417254616e-07
5.630932941e-07
4.73296498e-07
4.056524904e-07
3.617726849e-07
3.403902167e-07
3.317444744e-07
3.320280306e-07
3.390637916e-07
3.527405564e-07
3.734336416e-07
4.031586009e-07
4.453988224e-07
5.05233379e-07
5.897220961e-07
7.086836342e-07
8.760945125e-07
1.112594669e-06
1.451068744e-06
1.946138739e-06
2.702212346e-06
3.929726208e-06
6.070544621e-06
1.007355906e-05
1.800359676e-05
3.438910844e-05
6.924554696e-05
0.0001449629406
0.0003121582389
0.0006864220685
0.001166424426
0.001166301686
0.001165836397
0.001164919227
0.001164565057
0.001164501293
0.001164547902
0.001164627679
0.00116471062
0.001164787762
0.001164859289
0.00116492958
0.001165005396
0.001165095937
0.001165218643
0.001165389132
0.001165686647
0.0004095355089
0.001206856964
0.001530537637
0.001186159915
0.0006006261645
0.0002993204634
0.0001219368404
1.219575439e-05
9.266052057e-07
6.465663996e-07
5.648620804e-07
5.183653763e-07
4.848913299e-07
4.69840138e-07
4.862375777e-07
4.08299486e-07
3.508542044e-07
3.152028599e-07
2.996045823e-07
2.951427824e-07
2.981905453e-07
3.078564761e-07
3.236130554e-07
3.465255166e-07
3.790364889e-07
4.249168558e-07
4.894436991e-07
5.798615376e-07
7.06239577e-07
8.829252409e-07
1.131058259e-06
1.483985781e-06
1.997136269e-06
2.776120353e-06
4.035111555e-06
6.2254893e-06
1.031656647e-05
1.84132063e-05
3.511890553e-05
7.0585378e-05
0.000147440174
0.0003166854296
0.0006944466223
0.001166703651
0.001166459984
0.001165909384
0.001164987864
0.001164633691
0.001164558932
0.001164593199
0.001164662519
0.001164737559
0.001164809111
0.00116487687
0.001164944733
0.001165019044
0.001165108683
0.001165230921
0.00116540127
0.001165700316
0.0003994671505
0.001157124374
0.00136693221
0.0009511202193
0.0004559334941
0.0002364943139
5.898864386e-05
6.753990702e-06
7.489122104e-07
5.564270047e-07
4.895041777e-07
4.498472127e-07
4.218365249e-07
4.090708197e-07
4.198830774e-07
3.526518339e-07
3.044897421e-07
2.763706693e-07
2.659519007e-07
2.648694949e-07
2.709174965e-07
2.827871178e-07
3.006171764e-07
3.259723384e-07
3.616250884e-07
4.115633196e-07
4.812412787e-07
5.781198857e-07
7.125910131e-07
8.994777372e-07
1.160570064e-06
1.529937682e-06
2.064184099e-06
2.87089028e-06
4.169536864e-06
6.424499363e-06
1.06331646e-05
1.895713676e-05
3.611177163e-05
7.24674004e-05
0.000151075742
0.0003237513024
0.0007081390985
0.00116697001
0.001166611435
0.001165974385
0.001165054402
0.00116470123
0.001164616219
0.001164638561
0.001164697607
0.00116476479
0.001164830731
0.001164894685
0.001164960095
0.001165032902
0.001165121681
0.001165243509
0.001165413754
0.001165714114
0.000387587357
0.001100490818
0.001196795117
0.0007228701024
0.0003590871849
0.0001857308717
3.047313662e-05
3.511768928e-06
6.107733635e-07
4.804710631e-07
4.257268203e-07
3.917794922e-07
3.682924844e-07
3.575825683e-07
3.627026531e-07
3.050317537e-07
2.652755817e-07
2.439928433e-07
2.38143755e-07
2.402243914e-07
2.487594973e-07
2.626558423e-07
2.826458429e-07
3.106834348e-07
3.497824094e-07
4.041019699e-07
4.79275776e-07
5.830201057e-07
7.26112022e-07
9.239344765e-07
1.199050209e-06
1.586471338e-06
2.144299165e-06
2.982768154e-06
4.328076446e-06
6.660721318e-06
1.101303112e-05
1.961834133e-05
3.733690417e-05
7.483156289e-05
0.0001557455324
0.0003330881438
0.0007269041575
0.001167219316
0.001166752968
0.001166029121
0.001165118267
0.0011647669
0.001164672444
0.001164683427
0.001164732534
0.001164792036
0.001164852447
0.001164912633
0.001164975614
0.00116504695
0.001165134925
0.001165256406
0.001165426581
0.00116572805
0.0003743235966
0.001035776548
0.001023486854
0.0005470484399
0.0002797839938
0.0001391217835
1.850081655e-05
1.924771171e-06
5.044630386e-07
4.150157326e-07
3.715826716e-07
3.4224682e-07
3.223118787e-07
3.133417099e-07
3.130607789e-07
2.640601697e-07
2.320400604e-07
2.16988264e-07
2.147842969e-07
2.200883483e-07
2.307594767e-07
2.466332966e-07
2.689202444e-07
2.998585501e-07
3.426378709e-07
4.015692795e-07
4.82482317e-07
5.933861141e-07
7.454935326e-07
9.548150772e-07
1.244873531e-06
1.651557779e-06
2.235012262e-06
3.108661492e-06
4.50671969e-06
6.92867803e-06
1.144810599e-05
2.038382318e-05
3.877131017e-05
7.763378418e-05
0.0001613595366
0.0003445033274
0.0007503153645
0.001167449026
0.00116688263
0.001166072064
0.0011651791
0.001164830165
0.001164727088
0.001164727372
0.001164766984
0.001164819076
0.001164874118
0.00116493063
0.001164991245
0.001165061166
0.001165148411
0.001165269609
0.00116543974
0.001165742127
0.0003607273038
0.0009651182772
0.0008346392945
0.0004244658343
0.0002287322682
0.000102032768
1.2995972e-05
1.112934192e-06
4.209776028e-07
3.581710212e-07
3.230305741e-07
2.987621416e-07
2.81904497e-07
2.746450126e-07
2.697367632e-07
2.288271053e-07
2.040235606e-07
1.946059921e-07
1.959146934e-07
2.036702365e-07
2.162686016e-07
2.341459017e-07
2.588694498e-07
2.928756596e-07
3.394918956e-07
4.031805562e-07
4.899879131e-07
6.082470896e-07
7.696464711e-07
9.908797748e-07
1.29641231e-06
1.723492183e-06
2.334255998e-06
3.245999659e-06
4.702174182e-06
7.223957035e-06
1.193204854e-05
2.124361419e-05
4.039776454e-05
8.084167733e-05
0.0001678525846
0.0003578587564
0.0007780688252
0.001167657848
0.001166999327
0.001166102286
0.001165236702
0.00116489068
0.001164779796
0.001164770087
0.001164800718
0.001164845742
0.00116489563
0.001164948607
0.001165006954
0.001165075538
0.001165162135
0.001165283113
0.001165453222
0.001165756348
0.0003473668254
0.0008867155538
0.0006817747042
0.0003525422127
0.0001951090568
5.791563379e-05
8.806784935e-06
7.002838491e-07
3.550261375e-07
3.089034507e-07
2.804447511e-07
2.601763283e-07
2.46614208e-07
2.409853203e-07
2.323020627e-07
1.988839684e-07
1.807255101e-07
1.75905181e-07
1.805935022e-07
1.904018841e-07
2.048215166e-07
2.247585585e-07
2.520281247e-07
2.892068543e-07
3.397445023e-07
4.082633186e-07
5.01045145e-07
6.267712272e-07
7.976372983e-07
1.031067974e-06
1.352554872e-06
1.800835029e-06
2.440301164e-06
3.392657404e-06
4.911761479e-06
7.543049769e-06
1.245996321e-05
2.219026911e-05
4.220381542e-05
8.443249101e-05
0.0001751799169
0.0003730610762
0.0008099611435
0.0011678454
0.001167102608
0.001166124037
0.001165290994
0.001164948244
0.001164830336
0.001164811365
0.001164833567
0.001164871908
0.0011649169
0.001164966512
0.00116502271
0.001165090052
0.001165176093
0.001165296913
0.001165467035
0.001165770714
0.0003367466477
0.0007994386238
0.0005601293289
0.0002962501936
0.0001642001509
3.23082619e-05
4.229564608e-06
4.776329296e-07
3.022348112e-07
2.669328135e-07
2.437284102e-07
2.267513197e-07
2.156644238e-07
2.11811135e-07
2.002117534e-07
1.737298216e-07
1.616329017e-07
1.611262315e-07
1.682610556e-07
1.798568228e-07
1.960552198e-07
2.181035822e-07
2.479834232e-07
2.883802886e-07
3.428641139e-07
4.162270222e-07
5.150012471e-07
6.482351343e-07
8.286588084e-07
1.074478526e-06
1.412262193e-06
1.882379864e-06
2.551716089e-06
3.546898722e-06
5.133332707e-06
7.883213979e-06
1.302815832e-05
2.321841377e-05
4.418088771e-05
8.839124312e-05
0.0001833131499
0.000390052695
0.0008458690279
0.001168011941
0.001167192236
0.001166144064
0.001165341984
0.00116500277
0.001164878578
0.001164851069
0.001164865415
0.001164897484
0.001164937862
0.001164984306
0.001165038493
0.001165104698
0.001165190283
0.001165311006
0.001165481216
0.001165785225
0.0003321668756
0.0007062051951
0.0004682254526
0.0002506445193
0.0001346885986
1.945730942e-05
2.043496469e-06
3.498539128e-07
2.587212589e-07
2.308249409e-07
2.117742503e-07
1.975819201e-07
1.885765728e-07
1.862499516e-07
1.728945641e-07
1.52922261e-07
1.459602088e-07
1.49381989e-07
1.584791394e-07
1.716877753e-07
1.89647131e-07
2.138345284e-07
2.463444862e-07
2.899572425e-07
3.483654562e-07
4.265397106e-07
5.312744099e-07
6.72001213e-07
8.620101566e-07
1.120314206e-06
1.474659903e-06
1.96712797e-06
2.667333966e-06
3.707331812e-06
5.365202184e-06
8.242368122e-06
1.363396474e-05
2.43244108e-05
4.6323626e-05
9.270935786e-05
0.000192237332
0.0004088052364
0.0008857344278
0.001168158165
0.001167268002
0.001166162486
0.001165389741
0.00116505425
0.001164924468
0.001164889129
0.001164896191
0.00116492241
0.001164958473
0.001165001957
0.001165054285
0.001165119469
0.001165204701
0.001165325393
0.001165495781
0.001165799881
0.0003367154745
0.0006117430747
0.0003859712443
0.0002168930507
0.0001077283642
1.291766717e-05
1.007901987e-06
2.7273911e-07
2.219618519e-07
1.994727248e-07
1.838534599e-07
1.721416887e-07
1.6502883e-07
1.641224805e-07
1.500628493e-07
1.361557034e-07
1.339985476e-07
1.401776556e-07
1.508737622e-07
1.655840017e-07
1.852934843e-07
2.116222291e-07
2.467467357e-07
2.935369009e-07
3.558120014e-07
4.387285079e-07
5.493534023e-07
6.975167143e-07
8.970898251e-07
1.167933771e-06
1.539027772e-06
2.054270445e-06
2.786224893e-06
3.87286753e-06
5.606085825e-06
8.618996708e-06
1.427558128e-05
2.550608872e-05
4.862938568e-05
9.738365073e-05
0.0002019488136
0.000429314896
0.0009295541341
0.001168285059
0.001167329985
0.001166179404
0.001165434376
0.001165102737
0.001164968007
0.001164925515
0.001164925856
0.001164946648
0.001164978702
0.001165019445
0.001165070072
0.001165134359
0.001165219344
0.001165340075
0.001165510732
0.001165814681
0.0003517474173
0.0005243753866
0.0003324587783
0.000195812661
6.381538824e-05
9.208327681e-06
5.268172873e-07
2.218219069e-07
1.909082041e-07
1.725868656e-07
1.598448563e-07
1.503269832e-07
1.44910913e-07
1.453401095e-07
1.314342427e-07
1.230337494e-07
1.248375116e-07
1.330404447e-07
1.450971815e-07
1.612502446e-07
1.826991638e-07
2.111494804e-07
2.488456461e-07
2.98747402e-07
3.648053647e-07
4.523690341e-07
5.687879786e-07
7.243051701e-07
9.333949945e-07
1.216800187e-06
1.604787428e-06
2.14317183e-06
2.907673457e-06
4.042688051e-06
5.855055664e-06
9.012079784e-06
1.495195631e-05
2.676252581e-05
5.109780793e-05
0.0001024154394
0.0002124533146
0.0004515981506
0.0009773703743
0.001168393769
0.001167378464
0.001166194914
0.001165476026
0.001165148324
0.001165009237
0.001164960235
0.001164954398
0.00116497018
0.001164998531
0.001165036756
0.001165085847
0.001165149362
0.001165234207
0.001165355053
0.001165526016
0.001165829616
0.0003752333349
0.0004939257107
0.000293984699
0.0001783295552
3.45330588e-05
3.845856227e-06
3.066412109e-07
1.859751043e-07
1.650644707e-07
1.499695277e-07
1.395499375e-07
1.318841298e-07
1.279727304e-07
1.295328698e-07
1.165677187e-07
1.128503274e-07
1.178570179e-07
1.275650734e-07
1.408542061e-07
1.584246033e-07
1.815939413e-07
2.121254532e-07
2.523283256e-07
3.05255188e-07
3.749933032e-07
4.670923886e-07
5.891944733e-07
7.519693631e-07
9.705152318e-07
1.266487455e-06
1.671491402e-06
2.233352291e-06
3.031152804e-06
4.216210959e-06
6.111490412e-06
9.421022387e-06
1.566268009e-05
2.809387176e-05
5.373049828e-05
0.0001078099227
0.0002237646456
0.0004756890476
0.001029265241
0.001168485521
0.001167413846
0.001166209105
0.001165514847
0.001165191131
0.001165048227
0.001164993318
0.001164981822
0.001164992999
0.00116501795
0.001165053879
0.0011651016
0.001165164473
0.001165249284
0.001165370321
0.001165541608
0.001165844672
0.0004036741895
0.0004379830679
0.0002680858139
0.0001604139389
1.895379808e-05
1.484012487e-06
2.072999584e-07
1.589052793e-07
1.434516038e-07
1.309031361e-07
1.223345176e-07
1.162722152e-07
1.137513621e-07
1.149628378e-07
1.049563143e-07
1.053759528e-07
1.125373993e-07
1.234438497e-07
1.379086926e-07
1.568770317e-07
1.817316014e-07
2.142847433e-07
2.56912087e-07
3.127632549e-07
3.86067598e-07
4.825821486e-07
6.102509417e-07
7.8018393e-07
1.008122225e-06
1.316663186e-06
1.738799202e-06
2.324455854e-06
3.15628318e-06
4.393035257e-06
6.375003558e-06
9.845554305e-06
1.640783473e-05
2.950110421e-05
5.653059906e-05
0.0001135753759
0.0002359031106
0.0005016358597
0.001085353276
0.001168561554
0.001167436602
0.001166222063
0.001165551002
0.001165231293
0.001165085064
0.001165024812
0.00116500815
0.001165015111
0.001165036956
0.001165070811
0.001165117327
0.001165179686
0.001165264571
0.001165385876
0.001165557512
0.00116585983
0.0004381483152
0.0004092099635
0.0002572978085
0.0001399673728
1.117184866e-05
5.415341385e-07
1.609711416e-07
1.371233837e-07
1.250276794e-07
1.145820696e-07
1.076348578e-07
1.030511575e-07
1.016010471e-07
1.013791342e-07
9.6140937e-08
9.986135984e-08
1.085107859e-07
1.204573391e-07
1.360661343e-07
1.564005927e-07
1.828872167e-07
2.173869881e-07
2.623449974e-07
3.210120358e-07
3.977648298e-07
4.985745518e-07
6.316962989e-07
8.086926446e-07
1.045965721e-06
1.367082761e-06
1.806469643e-06
2.416240711e-06
3.282819789e-06
4.572925853e-06
6.645422733e-06
1.028570035e-05
1.71879466e-05
3.098594263e-05
5.950261683e-05
0.0001197227762
0.0002488946579
0.0005294990123
0.001145774075
0.001168623086
0.001167447215
0.001166233871
0.001165584657
0.001165268952
0.001165119845
0.001165054773
0.001165033409
0.001165036527
0.001165055551
0.001165087548
0.001165133023
0.001165194996
0.001165280062
0.001165401715
0.001165573675
0.001165875074
0.0004757244544
0.0004016809454
0.0002557970808
9.609842143e-05
5.682965667e-06
2.224750328e-07
1.34775942e-07
1.18876494e-07
1.091404534e-07
1.007202587e-07
9.506221623e-08
9.170065918e-08
9.132135129e-08
9.071823651e-08
8.967675681e-08
9.574120154e-08
1.055282147e-07
1.184326866e-07
1.351503496e-07
1.568027664e-07
1.848542653e-07
2.212160859e-07
2.684058219e-07
3.297793981e-07
4.098659248e-07
5.148571242e-07
6.533276132e-07
8.373043068e-07
1.083867617e-06
1.417581634e-06
1.874351184e-06
2.508567185e-06
3.410637648e-06
4.755793983e-06
6.922763427e-06
1.074174234e-05
1.8003926e-05
3.255074139e-05
6.265221184e-05
0.0001262653615
0.0002627699068
0.0005593488711
0.001169799942
0.001168671295
0.001167446148
0.00116624461
0.001165615972
0.001165304251
0.001165152673
0.001165083265
0.001165057636
0.001165057264
0.001165073742
0.00116510409
0.001165148685
0.001165210398
0.001165295754
0.001165417823
0.001165589977
0.001165890407
0.0005326479363
0.0004107560895
0.0002599053427
4.743881624e-05
1.561574111e-06
1.387099173e-07
1.161230426e-07
1.037487792e-07
9.581787493e-08
8.883328961e-08
8.432225712e-08
8.214547606e-08
8.2828077e-08
8.272032066e-08
8.508107179e-08
9.273227859e-08
1.034111735e-07
1.172192378e-07
1.349999305e-07
1.579099273e-07
1.87450658e-07
2.255855575e-07
2.749076124e-07
3.388816032e-07
4.221936788e-07
5.31262033e-07
6.749886738e-07
8.658759726e-07
1.121699322e-06
1.468046187e-06
1.942345349e-06
2.601352507e-06
3.539675832e-06
4.941627969e-06
7.207140403e-06
1.121410005e-05
1.885689532e-05
3.419822197e-05
6.598575226e-05
0.0001332178409
0.000277562681
0.0005912629405
0.001169880908
0.001168707309
0.001167433799
0.001166254358
0.001165645105
0.001165337333
0.00116518365
0.001165110355
0.001165080868
0.001165077341
0.001165091535
0.001165120437
0.001165164307
0.001165225885
0.001165311638
0.001165434161
0.001165606279
0.001165905842
0.000588706714
0.0004111275297
0.0002578466561
2.254127289e-05
3.815489815e-07
1.133159374e-07
1.014799753e-07
9.123656094e-08
8.453031519e-08
7.877059754e-08
7.532624197e-08
7.428796435e-08
7.599858543e-08
7.700259972e-08
8.185745805e-08
9.056579424e-08
1.020091598e-07
1.166735876e-07
1.354634045e-07
1.595643298e-07
1.905157531e-07
2.303353487e-07
2.81694254e-07
3.481695442e-07
4.346086523e-07
5.476616688e-07
6.965653605e-07
8.943082501e-07
1.159377121e-06
1.518409197e-06
2.010402242e-06
2.694566121e-06
3.669932071e-06
5.130486014e-06
7.498756769e-06
1.170331277e-05
1.974815419e-05
3.593140115e-05
6.95101541e-05
0.0001405960257
0.0002933091424
0.0006253239181
0.001169946839
0.001168732208
0.001167410476
0.001166263188
0.001165672205
0.001165368335
0.001165212878
0.001165136109
0.001165103146
0.001165096779
0.001165108939
0.001165136591
0.001165179886
0.001165241451
0.001165327706
0.001165450671
0.001165622706
0.001165921358
0.0006447313178
0.0004070377007
0.0002461640658
1.137642096e-05
1.502784724e-07
9.84956342e-08
8.92716697e-08
8.07589196e-08
7.502918947e-08
7.031903566e-08
6.789339651e-08
6.796110298e-08
7.064798775e-08
7.306854977e-08
7.95881231e-08
8.905141134e-08
1.011903796e-07
1.166627282e-07
1.364038886e-07
1.616276214e-07
1.939127469e-07
2.35333299e-07
2.886411843e-07
3.575289265e-07
4.470091173e-07
5.639687899e-07
7.179865122e-07
9.225474725e-07
1.196866253e-06
1.568656406e-06
2.078530202e-06
2.78824286e-06
3.801479981e-06
5.322518002e-06
7.797931153e-06
1.221007277e-05
2.067921973e-05
3.775363289e-05
7.323290343e-05
0.0001484167614
0.0003100474396
0.0006616185501
0.001169999023
0.001168747039
0.001167376368
0.001166271171
0.00116569741
0.001165397386
0.001165240456
0.001165160594
0.00116512451
0.001165115601
0.001165125966
0.001165152553
0.001165195417
0.00116525709
0.001165343941
0.001165467311
0.001165639379
0.001165936892
0.0006791926438
0.0004018261245
0.0002217412192
6.77828076e-06
1.137943661e-07
8.65246719e-08
7.904417993e-08
7.192204441e-08
6.700549749e-08
6.324810043e-08
6.184016548e-08
6.298061866e-08
6.656372744e-08
7.040868052e-08
7.798558802e-08
8.805371596e-08
1.008394329e-07
1.1706982e-07
1.377035172e-07
1.639831724e-07
1.975286837e-07
2.404724933e-07
2.956496759e-07
3.668710553e-07
4.593179292e-07
5.801190286e-07
7.392015628e-07
9.505578203e-07
1.234146686e-06
1.618784875e-06
2.146745234e-06
2.882421606e-06
3.934394091e-06
5.517872192e-06
8.104977053e-06
1.273505952e-05
2.165158121e-05
3.966821683e-05
7.716138843e-05
0.0001566967301
0.000327815461
0.0007002332396
0.001170038624
0.001168752833
0.001167339305
0.001166278372
0.001165720851
0.001165424608
0.001165266476
0.001165183873
0.001165145
0.001165133829
0.001165142623
0.001165168324
0.001165210895
0.001165272793
0.001165360325
0.001165484053
0.001165656294
0.001165952395
0.0006773754769
0.0004028672663
0.0001863172577
2.668122626e-06
9.437712591e-08
7.659955722e-08
7.042267741e-08
6.442735875e-08
6.022209032e-08
5.738259891e-08
5.700717082e-08
5.915235597e-08
6.348622841e-08
6.859767049e-08
7.686689378e-08
8.746422919e-08
1.008531034e-07
1.177919061e-07
1.392614218e-07
1.665344238e-07
2.012734771e-07
2.456712826e-07
3.026482053e-07
3.761359126e-07
4.714876708e-07
5.960784365e-07
7.601907825e-07
9.783345322e-07
1.271229554e-06
1.668822908e-06
2.215094807e-06
2.977173361e-06
4.068782556e-06
5.716733083e-06
8.420246736e-06
1.327899111e-05
2.266675862e-05
4.16784578e-05
8.130293176e-05
0.0001654523621
0.0003466503774
0.0007412525174
0.001170066695
0.001168750299
0.001167304436
0.001166284851
0.001165742648
0.001165450116
0.001165291027
0.001165206008
0.001165164655
0.001165151483
0.001165158921
0.001165183903
0.001165226313
0.001165288552
0.001165376835
0.001165500876
0.001165673453
0.001165967836
0.0006707593378
0.0004071995801
0.0001016915434
9.194171498e-07
8.141792313e-08
6.838279031e-08
6.317766783e-08
5.809219224e-08
5.453200689e-08
5.260682798e-08
5.324856689e-08
5.627931023e-08
6.104312433e-08
6.734530838e-08
7.611688866e-08
8.719571136e-08
1.011452942e-07
1.187441575e-07
1.409957944e-07
1.692043201e-07
2.050763883e-07
2.508665795e-07
3.095824142e-07
3.852786964e-07
4.834837061e-07
6.118229926e-07
7.809411302e-07
1.005875908e-06
1.308124975e-06
1.718793151e-06
2.283615355e-06
3.072551796e-06
4.204728748e-06
5.919249987e-06
8.74403835e-06
1.384249285e-05
2.372609966e-05
4.378732359e-05
8.566417524e-05
0.0001746986726
0.0003665863589
0.0007847544102
0.001170084197
0.001168739892
0.001167271612
0.001166290666
0.001165762913
0.001165474016
0.001165314193
0.001165227056
0.00116518351
0.001165168586
0.001165174868
0.001165199292
0.001165241666
0.001165304357
0.001165393444
0.001165517761
0.001165690844
0.001165983149
0.0006582926213
0.0004080332864
5.649077371e-05
3.518228082e-07
7.184750817e-08
6.156325411e-08
5.707494889e-08
5.273411186e-08
4.979909626e-08
4.880175869e-08
5.039356235e-08
5.415795521e-08
5.94253174e-08
6.647109974e-08
7.565083403e-08
8.71726278e-08
1.016422323e-07
1.198558875e-07
1.428406002e-07
1.719329072e-07
2.088847776e-07
2.560140721e-07
3.164171188e-07
3.942739618e-07
4.952907872e-07
6.273480056e-07
8.014587982e-07
1.033199419e-06
1.34486221e-06
1.768737475e-06
2.352362641e-06
3.168630082e-06
4.342335543e-06
6.125589926e-06
9.076659401e-06
1.442617424e-05
2.483087202e-05
4.599754691e-05
9.0251153e-05
0.0001844491765
0.0003876539346
0.0008308082195
0.001170092018
0.001168721993
0.001167240695
0.001166295868
0.00116578175
0.001165496408
0.001165336051
0.001165247073
0.001165201603
0.001165185158
0.001165190473
0.001165214488
0.001165256946
0.001165320197
0.001165410122
0.001165534692
0.001165708443
0.001165998289
0.0006396380606
0.0003989686615
2.790568897e-05
1.588427558e-07
6.426161828e-08
5.593164127e-08
5.19654126e-08
4.822874433e-08
4.592343816e-08
4.58466221e-08
4.826479454e-08
5.260494134e-08
5.833813205e-08
6.586691405e-08
7.540305888e-08
8.733316087e-08
1.022849415e-07
1.210722922e-07
1.447465095e-07
1.746774984e-07
2.126636025e-07
2.61087194e-07
3.231349031e-07