/*--------------------------------*- C++ -*----------------------------------*\
  =========                 |
  \\      /  F ield         | OpenFOAM: The Open Source CFD Toolbox
   \\    /   O peration     | Website:  https://openfoam.org
    \\  /    A nd           | Version:  12
     \\/     M anipulation  |
\*---------------------------------------------------------------------------*/
FoamFile
{
    format      ascii;
    class       volScalarField;
    location    "1575";
    object      Ma;
}
// * * * * * * * * * * * * * * * * * * * * * * * * * * * * * * * * * * * * * //

dimensions      [];

internalField   nonuniform List<scalar> 
16200
(
0.5344585136
0.6375129747
0.6957319755
0.7419529532
0.7854403019
0.8317828221
0.8829189545
0.9294083447
0.9460400382
0.9464597777
0.9453530179
0.9443087692
0.9430218462
0.941603161
0.9399359558
0.9380261981
0.9358005906
0.9332191749
0.930213258
0.9267163414
0.9226484689
0.9179231767
0.9124456432
0.9061158309
0.8988326708
0.8905016643
0.8810474093
0.8704320481
0.8586805358
0.845910784
0.8323608276
0.8183961186
0.8044793139
0.7911018925
0.7787015783
0.7675986748
0.7579702942
0.7498595052
0.7432041928
0.7378713123
0.7336883801
0.7304690775
0.7280320584
0.7262130456
0.7248711149
0.7238905136
0.7231792886
0.7226663872
0.7222980664
0.7220343568
0.7218459084
0.7217113394
0.7216151711
0.7215461062
0.7214960491
0.7214587465
0.7214306774
0.7214081318
0.7213893592
0.7213677422
0.5481592864
0.6548938708
0.7150831727
0.7628937368
0.8082342512
0.8570219703
0.9098395065
0.9496703271
0.9590137143
0.9586975752
0.9575263218
0.9563945106
0.9550088759
0.9534717208
0.9516607604
0.9495766656
0.9471412032
0.9443063675
0.9409962349
0.93713439
0.9326308826
0.9273876772
0.9212982515
0.9142510793
0.9061358085
0.896853734
0.8863349586
0.8745631348
0.8616080983
0.8476608263
0.8330548742
0.8182512239
0.803775742
0.7901277946
0.7776986048
0.7667294741
0.7573139483
0.7494277135
0.7429662934
0.7377781528
0.7336896513
0.7305228941
0.7281082463
0.7262925068
0.72494342
0.72395116
0.7232273827
0.7227029367
0.7223248838
0.722053423
0.7218590497
0.7217201069
0.7216208008
0.721549586
0.721498057
0.7214598747
0.7214310927
0.721408215
0.7213892656
0.7213660892
0.5616206392
0.6719778405
0.7341057216
0.7835780801
0.8309133627
0.881940584
0.9353334567
0.9657166725
0.9698593337
0.9690223147
0.967780337
0.9665462993
0.9650317208
0.9633407003
0.9613469859
0.9590440976
0.9563490811
0.95320476
0.9495273294
0.9452293996
0.9402098644
0.9343579479
0.927554482
0.9196765096
0.9106065311
0.9002475
0.888546567
0.875528079
0.861333595
0.8462559907
0.8307427609
0.8153464968
0.8006290803
0.7870589071
0.7749450958
0.7644264068
0.7555019926
0.7480780706
0.7420099525
0.737131125
0.7332705183
0.7302624398
0.7279528315
0.7262034599
0.7248944957
0.7239254428
0.7232144804
0.7226967475
0.7223219888
0.7220520045
0.7218582037
0.7217194307
0.7216201475
0.7215489471
0.7214974494
0.7214593783
0.721430642
0.7214079022
0.7213893337
0.7213661834
0.5740298588
0.6875738573
0.7514483827
0.8026826629
0.8523004141
0.9053185241
0.9562533644
0.976718224
0.9778840991
0.976887856
0.9755695498
0.9742161394
0.9725580803
0.9706937973
0.9684942937
0.9659439951
0.9629549741
0.9594597226
0.9553657165
0.9505737191
0.944970733
0.9384331009
0.9308299811
0.9220302073
0.9119159384
0.9004038898
0.8874772686
0.8732272613
0.8578958999
0.8418975035
0.825789639
0.8101845674
0.7956314366
0.7825215615
0.7710526712
0.761251246
0.7530262545
0.7462249297
0.7406734466
0.7361993042
0.7326404606
0.7298479494
0.7276866408
0.7260359773
0.7247908538
0.723862079
0.7231760055
0.7226733935
0.7223077049
0.7220431174
0.7218525214
0.721715666
0.7216175549
0.72154711
0.721496122
0.7214584451
0.7214299387
0.7214073981
0.7213891745
0.7213657496
0.5851222449
0.7015339026
0.7670061187
0.8199715524
0.8720339763
0.9270436971
0.9712161549
0.9833330734
0.9831606453
0.9820542457
0.9806716103
0.9791768903
0.9773514591
0.9752854307
0.9728484261
0.9700141118
0.966689313
0.962795085
0.9582291816
0.9528796843
0.9466213411
0.9393185581
0.9308318163
0.9210280996
0.9098003631
0.8970965518
0.8829603729
0.8675784777
0.8513165992
0.8347136625
0.8184111315
0.8030318368
0.7890594404
0.7767702739
0.7662349853
0.7573705625
0.7500084763
0.7439518241
0.7390101678
0.7350137827
0.7318150745
0.7292849809
0.7273092812
0.725786568
0.7246277601
0.723756194
0.7231075236
0.7226291274
0.7222790213
0.7220244342
0.7218402596
0.7217075441
0.7216121236
0.7215434557
0.7214936613
0.7214568185
0.721428848
0.7214066721
0.7213889261
0.7213654472
0.594541913
0.7135511704
0.7805142011
0.8352392503
0.8897227486
0.946126183
0.9808937043
0.9868601861
0.9857368859
0.9845849222
0.9829982308
0.9813465205
0.9793367328
0.9770467164
0.9743454313
0.9711938984
0.9674929017
0.9631511386
0.9580561319
0.9520837295
0.9450979415
0.9369546899
0.927511909
0.9166449903
0.9042734918
0.8903988667
0.8751525658
0.8588417934
0.8419652452
0.8251671789
0.8091258016
0.7944164714
0.7814101992
0.7702447062
0.7608629747
0.7530864618
0.746688122
0.7414443562
0.7371610885
0.7336795794
0.7308711422
0.7286286861
0.7268597351
0.7254824047
0.7244239367
0.7236205666
0.7230176919
0.7225697777
0.7222398402
0.7219985515
0.7218231336
0.7216961877
0.7216045788
0.721538446
0.721490351
0.7214546681
0.721427453
0.7214057548
0.7213885437
0.7213650169
0.602221701
0.7236943294
0.7921502804
0.8488757204
0.90582984
0.9610964274
0.9859388069
0.9886056602
0.985759651
0.9844531083
0.9827347794
0.9808993395
0.9786759652
0.9761265868
0.9731202659
0.9696044883
0.9654739248
0.9606252026
0.9549361858
0.9482720367
0.9404886239
0.9314382879
0.920984863
0.9090257389
0.8955267302
0.8805678896
0.8643941784
0.847448339
0.8303518134
0.8138134334
0.7984890439
0.7848518642
0.7731277799
0.7633095409
0.7552250584
0.7486212343
0.743233516
0.7388282689
0.7352189407
0.7322641135
0.7298568863
0.7279129409
0.7263613551
0.7251392824
0.7241898715
0.7234620388
0.7229108986
0.7224981118
0.7221918763
0.7219665119
0.7218017633
0.7216819551
0.7215951203
0.7215321868
0.7214862428
0.721452018
0.7214257626
0.7214046555
0.721388053
0.7213645433
0.6080937093
0.7319863681
0.8021009168
0.8611577682
0.9206280548
0.9706198694
0.9852192736
0.9847568725
0.983371941
0.9819438583
0.9800497897
0.978001443
0.9755330588
0.9726882429
0.9693367594
0.9654120759
0.9608025078
0.9553928615
0.9490517695
0.9416355583
0.9329957485
0.9229884561
0.9114954227
0.8984535366
0.8838976916
0.86801197
0.8511742685
0.8339619501
0.8170875122
0.8012676189
0.7870752542
0.7748393911
0.7646266062
0.7562939985
0.7495761976
0.7441696032
0.7397924042
0.7362152443
0.7332677524
0.7308301245
0.7288186352
0.7271714871
0.7258383415
0.7247742861
0.7239374413
0.7232887466
0.7227926403
0.7224177941
0.722137541
0.72192988
0.7217771482
0.7216654736
0.7215841328
0.7215249081
0.7214814686
0.7214489404
0.7214238101
0.7214033885
0.7213874538
0.7213639945
0.6121288685
0.7384351435
0.8105494671
0.872174576
0.9336059638
0.9755505215
0.9821091069
0.9806758125
0.9788347305
0.9772374674
0.9751566458
0.9728739576
0.9701362816
0.9669667405
0.9632356137
0.9588618922
0.9537270519
0.9477047588
0.9406558711
0.9324316995
0.9228860698
0.9118895348
0.8993569461
0.8852848446
0.8698012696
0.8532165512
0.8360490155
0.8189895653
0.8027908274
0.7881137305
0.7753969172
0.7648013534
0.7562382084
0.7494500849
0.7441047909
0.7398718781
0.7364697192
0.7336842699
0.7313672208
0.7294226758
0.7277901711
0.726429357
0.7253089716
0.724400545
0.7236759208
0.7231071341
0.7226673231
0.7223317901
0.7220787979
0.7218899343
0.7217501053
0.7216472536
0.7215719267
0.7215167922
0.7214761304
0.7214454896
0.7214216203
0.7214019662
0.7213867553
0.7213633802
0.6146819789
0.7435823538
0.8180147463
0.8822890352
0.9435516779
0.9746085008
0.9757645252
0.9743279997
0.9724493581
0.9706635372
0.9683715165
0.9658255843
0.9627859717
0.959253964
0.9550999826
0.950228787
0.9445151899
0.9378236652
0.9300104153
0.9209274799
0.9104396447
0.898444502
0.8849073489
0.8699066461
0.8536872919
0.8367002602
0.8195940428
0.8031306458
0.7880394089
0.7748658973
0.763879785
0.7550701337
0.7482113392
0.7429595751
0.7389428898
0.7358248408
0.7333376388
0.7312901748
0.7295595458
0.7280743974
0.726796626
0.7257057031
0.7247876253
0.7240286719
0.7234130039
0.7229226812
0.7225387825
0.7222427389
0.7220174324
0.7218478614
0.7217214074
0.7216277872
0.721558807
0.7215080218
0.7214703329
0.7214417224
0.7214192197
0.7214004007
0.7213859612
0.7213626958
0.6159625386
0.7477815658
0.8248663419
0.8920568641
0.9496194644
0.968899897
0.9681068242
0.966500701
0.9644614612
0.9624610199
0.9599328624
0.9570928332
0.9537158403
0.9497807108
0.9451576927
0.9397385083
0.9333923841
0.9259776348
0.917350052
0.9073693737
0.895921715
0.8829468935
0.8684814075
0.8527100251
0.8360140443
0.8189846908
0.8023682717
0.7869379729
0.7733344581
0.7619422097
0.7528480938
0.7458830639
0.7407130772
0.7369380865
0.734170973
0.7320859938
0.7304388329
0.7290658278
0.7278707302
0.7268061039
0.7258546308
0.7250136614
0.7242844999
0.7236664263
0.7231544738
0.7227396107
0.7224100421
0.7221527645
0.7219549083
0.7218046502
0.7216917091
0.7216074973
0.721545039
0.7214987578
0.721464169
0.7214376894
0.7214166324
0.7213987032
0.7213850757
0.7213619415
0.6160934193
0.7513299973
0.8312211482
0.900991218
0.9516061878
0.9609154758
0.9589867749
0.9572878833
0.9550804948
0.9528379085
0.9500432337
0.9468736069
0.9431192478
0.9387371016
0.9335970561
0.9275794667
0.920549231
0.9123618347
0.9028778144
0.891973511
0.8795700645
0.8656690674
0.8504025672
0.8340844109
0.8172399641
0.8005787916
0.7848914902
0.7708944934
0.7590840347
0.7496582812
0.7425277844
0.7373920872
0.7338413152
0.7314476847
0.7298291546
0.7286827915
0.7277936892
0.7270275829
0.7263145564
0.7256296142
0.7249742585
0.7243616511
0.723806456
0.7233192493
0.7229045334
0.7225610891
0.7222834323
0.7220635447
0.7218924086
0.7217611174
0.7216615614
0.7215867467
0.7215308549
0.7214891433
0.7214577231
0.7214334374
0.721413881
0.7213968843
0.7213841025
0.7213611158
0.615214843
0.7545510722
0.8374509451
0.9079917533
0.9460757911
0.9511859291
0.9486811403
0.9468661878
0.9444528828
0.9419388034
0.9388465598
0.9353126056
0.9311420049
0.9262705422
0.9205668589
0.9139014297
0.9061365816
0.8971299277
0.8867549217
0.874917515
0.8615923512
0.8468663887
0.8309914519
0.8144239933
0.797821258
0.7819660677
0.7676263798
0.7553983859
0.7455969064
0.7382308021
0.7330570807
0.7296775765
0.7276387352
0.726509237
0.7259272531
0.7256204341
0.7254061397
0.7251795257
0.7248956113
0.724549856
0.7241604499
0.7237543129
0.7233576136
0.7229906288
0.7226660184
0.7223893437
0.722160651
0.7219763397
0.7218308455
0.7217179081
0.7216314098
0.7215658349
0.7215164501
0.7214793013
0.7214510691
0.7214290084
0.7214109861
0.7213949542
0.7213830484
0.7213602181
0.6135094518
0.7576493423
0.8438071993
0.9122574997
0.9392176383
0.9400279747
0.9373006105
0.9353386281
0.932697705
0.9298876893
0.9264682982
0.9225353593
0.9179067284
0.9124983371
0.9061775062
0.8988082687
0.8902550464
0.8803859787
0.8690994365
0.8563479192
0.8421815851
0.8267969535
0.810582946
0.7941347552
0.778205878
0.7635897485
0.7509636589
0.7407557202
0.7330853575
0.727788579
0.7245018391
0.7227643842
0.7221072921
0.7221143859
0.7224541746
0.7228889887
0.7232689632
0.7235173683
0.723612113
0.7235668902
0.7234144396
0.7231934935
0.7229400178
0.7226825383
0.7224406805
0.7222258407
0.7220428719
0.721892056
0.7217708983
0.7216755172
0.7216016051
0.721545004
0.7215019865
0.7214693363
0.7214442713
0.7214244397
0.7214079664
0.7213929233
0.7213819227
0.7213592482
0.6113942293
0.7608340944
0.8497472561
0.9131392458
0.9286203301
0.92787048
0.9250190921
0.9228521102
0.9199481328
0.9168016533
0.9130076785
0.9086234122
0.903478129
0.8974712847
0.8904707974
0.8823396269
0.8729508245
0.8621933586
0.8500052075
0.8364055369
0.8215435656
0.8057449705
0.7895385816
0.7736321485
0.7588196095
0.7458360181
0.735211364
0.727180177
0.721674469
0.7183875203
0.7168721276
0.7166371803
0.7172209982
0.7182355567
0.7193854694
0.7204689914
0.7213679023
0.7220314627
0.7224581065
0.7226774974
0.7227348886
0.7226790421
0.7225541878
0.7223958079
0.7222294318
0.7220714429
0.7219308442
0.7218113078
0.721713049
0.7216343097
0.7215724155
0.7215244449
0.7214875956
0.7214593356
0.7214373852
0.7214197645
0.7214048392
0.7213908025
0.7213807307
0.7213582059
0.6092653672
0.764500559
0.8542105047
0.9079245697
0.9165581695
0.9147976903
0.9118123345
0.90938583
0.9061780609
0.9026492272
0.898430003
0.8935416338
0.8878241829
0.8811643107
0.873432749
0.8644972589
0.8542478437
0.8426079673
0.829574419
0.8152560969
0.7999220995
0.7840348656
0.7682454727
0.7533267573
0.7400465372
0.7290189585
0.7205902698
0.7147993441
0.7114157667
0.7100271144
0.71013807
0.7112538699
0.7129364533
0.714833869
0.7166891534
0.7183357033
0.7196847813
0.7207090943
0.7214251534
0.7218764204
0.7221187911
0.7222094627
0.7221995786
0.7221304452
0.7220325634
0.7219265549
0.721824987
0.7217344765
0.7216576196
0.7215945436
0.7215440389
0.7215043041
0.7214733821
0.7214493711
0.7214304578
0.7214150118
0.7214016202
0.7213886019
0.7213794654
0.7213570911
0.6075373754
0.7681440682
0.8562483776
0.8988056623
0.9029479256
0.9007344118
0.8975940115
0.8948623066
0.8913178783
0.8873702036
0.8826847273
0.8772491765
0.8709135278
0.8635556793
0.8550530604
0.8452875153
0.83417948
0.8217057259
0.8079438643
0.7931129045
0.7776120559
0.76202979
0.7471008526
0.7336018614
0.7222094281
0.7133710338
0.7072362853
0.70366614
0.7023029325
0.7026663449
0.7042436063
0.706556414
0.7092008926
0.7118649589
0.7143298872
0.7164621275
0.7181997113
0.7195361128
0.7205035488
0.7211572728
0.7215621491
0.7217824105
0.721874941
0.7218858905
0.7218499232
0.7217912447
0.7217254702
0.721661764
0.7216048057
0.7215563899
0.7215166158
0.7214846912
0.7214594279
0.7214395014
0.7214235293
0.7214102074
0.7213983243
0.7213863296
0.7213781091
0.7213559027
0.6070217808
0.7711713474
0.8552597209
0.8880266605
0.8881649488
0.8856877568
0.8823532191
0.8792771724
0.8753603106
0.8709531336
0.8657552513
0.8597241409
0.8527208367
0.8446216539
0.8353191293
0.8247229358
0.8128010425
0.7996029615
0.7853054508
0.770248726
0.7549569773
0.7401150212
0.7264873281
0.7147899168
0.7055554988
0.6990413352
0.6952092275
0.6937734321
0.6942876509
0.6962377865
0.6991176435
0.7024790417
0.7059580035
0.7092830422
0.7122718302
0.7148210502
0.7168925822
0.7184980471
0.7196831662
0.7205131836
0.7210604624
0.7213950602
0.7215785938
0.7216612157
0.7216810577
0.7216653425
0.721632282
0.7215932375
0.7215547059
0.7215199521
0.7214902402
0.7214656854
0.7214457959
0.7214297738
0.7214166335
0.7214053739
0.7213949653
0.721383991
0.7213766334
0.7213546395
0.6085183152
0.7728471318
0.8513063509
0.8739300441
0.8723042846
0.8696452848
0.8660608667
0.8625920599
0.8582560752
0.8533386225
0.8475754685
0.8408996338
0.8331872414
0.8243233058
0.8142263058
0.8028482316
0.7902204447
0.7764811024
0.7619178151
0.7469917906
0.7323311539
0.7186716601
0.7067465409
0.6971543083
0.6902506102
0.6861014419
0.6845060559
0.6850696757
0.6872940518
0.690659168
0.6946825111
0.6989541028
0.7031518724
0.7070435731
0.7104804654
0.7133863336
0.7157440138
0.717580827
0.7189540166
0.719937234
0.7206090698
0.7210443697
0.7213086246
0.7214552737
0.7215253208
0.7215485184
0.7215452833
0.7215288666
0.7215073463
0.7214852812
0.7214649702
0.7214473417
0.7214325331
0.7214202261
0.7214097991
0.7214005314
0.7213915558
0.7213815889
0.7213750667
0.7213533007
0.6121889733
0.7726365135
0.842149137
0.8584895486
0.8553303848
0.8524669876
0.8485847138
0.8446782864
0.8398819018
0.8344141386
0.8280498551
0.820705311
0.812276343
0.802667174
0.7918326371
0.779780556
0.7666202133
0.7525912779
0.7380966481
0.7237052239
0.7101122508
0.6980486069
0.6881577795
0.68087974
0.6763819834
0.6745569181
0.6750760817
0.6774736666
0.6812307645
0.6858421775
0.6908599331
0.695915943
0.7007294577
0.7051048378
0.7089236629
0.7121336635
0.7147359111
0.7167712155
0.7183065951
0.7194227383
0.7202033758
0.7207272607
0.7210630312
0.7212668064
0.7213819552
0.7214403421
0.7214642503
0.7214685525
0.7214627005
0.7214523894
0.7214408358
0.7214296957
0.7214196743
0.7214108885
0.7214030503
0.7213956979
0.7213881083
0.7213791292
0.7213734329
0.7213518892
0.6171099531
0.7705925237
0.8290666466
0.8411548585
0.8371241585
0.8340341371
0.8298184688
0.8254483136
0.8201712707
0.81413843
0.8071652964
0.799159877
0.790042159
0.7797463011
0.7682751412
0.7557072001
0.7422441964
0.7282352829
0.7141914376
0.700759895
0.6886530571
0.6785390463
0.6709248906
0.6660715672
0.6639675026
0.6643617267
0.6668358769
0.6708871063
0.676000174
0.6816986616
0.6875749085
0.6933032318
0.6986419641
0.7034287806
0.7075722042
0.711040913
0.7138517417
0.7160570358
0.7177320749
0.7189634112
0.7198389929
0.7204407376
0.7208398183
0.7210945215
0.721250151
0.7213403264
0.7213889062
0.7214121513
0.7214207056
0.7214212606
0.7214178462
0.7214127684
0.7214072441
0.7214017849
0.7213964077
0.7213908897
0.7213846348
0.7213766193
0.7213717091
0.7213504123
0.6210147667
0.7665395699
0.8151355549
0.8223419061
0.8177346177
0.8143774639
0.8098086396
0.8049576661
0.7991881027
0.7925861247
0.785007629
0.7763628997
0.7666026365
0.7557043343
0.7437339979
0.7308561607
0.7173749041
0.7037453023
0.6905628734
0.6785090788
0.6682580802
0.6603652924
0.6551729125
0.65276314
0.6529694439
0.6554334797
0.6596826372
0.6652046337
0.6715051389
0.6781447366
0.6847580505
0.6910602169
0.6968454895
0.7019813367
0.7063999682
0.7100882658
0.7130766375
0.7154272678
0.7172224009
0.7185534572
0.7195118251
0.7201819618
0.720637061
0.7209371444
0.7211290871
0.7212479597
0.7213189453
0.7213594914
0.7213812743
0.721391859
0.7213959952
0.7213965697
0.7213952595
0.7213929339
0.7213898893
0.7213861218
0.721381146
0.7213740613
0.7213699045
0.7213488793
0.6241053924
0.7600193655
0.7982106482
0.8022578027
0.7972908103
0.7936017706
0.7886583141
0.7833045258
0.7770230729
0.769843941
0.761663775
0.7524095113
0.7420731091
0.7306915869
0.7184087618
0.705484843
0.6923245385
0.6794696407
0.6675619528
0.6572658309
0.6491665302
0.6436724844
0.6409528953
0.6409282204
0.6433096
0.6476673577
0.6535049187
0.6603210731
0.6676533631
0.6751031574
0.6823467233
0.6891371821
0.6953011494
0.7007324193
0.7053838801
0.709258174
0.7123973753
0.7148720526
0.7167703131
0.7181876065
0.7192181085
0.7199482928
0.7204529433
0.7207934517
0.7210179595
0.721162728
0.7212540504
0.7213103861
0.7213443044
0.7213641355
0.721375266
0.7213811009
0.7213837314
0.7213843503
0.7213835103
0.7213814078
0.721377651
0.7213714586
0.72136805
0.7213472925
0.6254270894
0.7509198649
0.7795358224
0.7810778959
0.7758327271
0.7717344339
0.7663853919
0.7605002519
0.753683174
0.7459245056
0.73716396
0.7273613346
0.7165622649
0.7048761015
0.6925328386
0.679887243
0.66742935
0.6557553634
0.645507455
0.6372837734
0.6315427486
0.6285303849
0.6282524432
0.6304955486
0.6348835542
0.6409475507
0.6481905253
0.6561362036
0.6643599135
0.6725044231
0.6802853663
0.6874903954
0.6939748832
0.6996557036
0.7045037265
0.7085352201
0.7118022862
0.7143826412
0.7163693256
0.7178611142
0.7189544234
0.7197373068
0.7202857777
0.7206622919
0.720915999
0.7210841302
0.721193905
0.7212646431
0.7213096857
0.7213380329
0.7213556343
0.7213663576
0.721372666
0.7213760459
0.7213772844
0.7213767604
0.7213741579
0.7213688248
0.7213662307
0.7213456411
0.6243726904
0.7352781075
0.7591315126
0.7587054906
0.7532366626
0.748652007
0.7428733561
0.736449192
0.729101129
0.7208001884
0.7115325128
0.701304195
0.6902240828
0.678480867
0.6663908337
0.6543917846
0.643032943
0.6329251093
0.6246649824
0.6187450146
0.6154755318
0.6149423177
0.6170098846
0.6213636851
0.6275731291
0.6351561309
0.6436319998
0.6525576898
0.6615484896
0.6702871035
0.6785253584
0.6860817965
0.6928371126
0.6987283239
0.7037419145
0.7079059398
0.7112811345
0.7139513175
0.7160136827
0.7175697396
0.7187176895
0.7195468011
0.7201340147
0.7205425954
0.7208224822
0.721011688
0.7211382011
0.7212220709
0.7212773051
0.7213134892
0.7213370711
0.7213523308
0.7213620664
0.7213680298
0.7213712236
0.7213721907
0.721370675
0.7213661899
0.7213644987
0.7213439139
0.6206212627
0.7184977095
0.7368700246
0.7349375304
0.7292980219
0.7242071357
0.7180111131
0.7110894558
0.7032682331
0.6945192225
0.684879005
0.6744103187
0.6632918488
0.651793241
0.6403094107
0.6293404466
0.6194609394
0.6112544677
0.6052328366
0.6017572384
0.6009853489
0.6028586305
0.6071293875
0.6134142979
0.6212561979
0.6301792842
0.6397300002
0.6495025358
0.6591517566
0.6683976114
0.6770245708
0.6848785123
0.691862306
0.6979305178
0.7030831985
0.7073586222
0.7108249767
0.7135713053
0.7156983
0.7173097126
0.7185051486
0.7193747873
0.719996244
0.7204333794
0.7207367364
0.7209449509
0.7210866444
0.7211824835
0.7212470498
0.7212904408
0.7213195445
0.7213390088
0.7213519328
0.7213603092
0.7213653386
0.7213677089
0.7213672126
0.721363589
0.7213626462
0.7213421372
0.6139740523
0.6997935064
0.7128527821
0.7097758749
0.7039906862
0.6984262401
0.6918517541
0.684506303
0.6763071399
0.6672441106
0.6574094428
0.6469305233
0.6360584183
0.6251383206
0.614627269
0.6050587479
0.5969951192
0.5909545292
0.5873355676
0.5863578022
0.5880357345
0.5921909454
0.5984942767
0.6065224162
0.6158133821
0.6259109852
0.6363948536
0.6468973673
0.6571109799
0.6667895828
0.6757467098
0.6838522649
0.691028489
0.6972452415
0.7025143895
0.7068830971
0.7104260119
0.7132366641
0.7154186965
0.717077691
0.7183143396
0.7192194793
0.7198711888
0.720333746
0.7206581419
0.7208834992
0.7210389575
0.7211457026
0.7212188097
0.7212688236
0.721303021
0.7213263779
0.7213422638
0.7213528899
0.7213596389
0.7213633241
0.7213637817
0.7213610336
0.7213607773
0.7213403391
0.6044907172
0.6797319584
0.6873304945
0.6833634624
0.6774272658
0.6714403504
0.664540253
0.6568621107
0.6484059561
0.6391944472
0.6293792048
0.6191555418
0.6088429596
0.5988484718
0.5896667811
0.5818313329
0.5758562765
0.5721647063
0.5710270266
0.572524539
0.5765477771
0.5828264301
0.5909785695
0.6005643555
0.6111326805
0.6222551822
0.6335471951
0.6446782314
0.6553754549
0.6654232088
0.6746606855
0.6829788328
0.6903168097
0.6966578337
0.702024102
0.7064705492
0.7100774477
0.7129421968
0.7151709313
0.7168707188
0.7181430732
0.7190792773
0.7197576976
0.7202428796
0.7205861303
0.7208269446
0.7209948806
0.7211115591
0.721192479
0.7212485748
0.7212874667
0.7213144231
0.7213330564
0.7213457765
0.7213541331
0.7213590445
0.7213603954
0.7213585422
0.7213587937
0.7213385273
0.5923876416
0.6569343835
0.660466504
0.6557893069
0.6497132943
0.643373346
0.6362265394
0.628336387
0.6197784748
0.610619895
0.6010727585
0.5913976527
0.5819716558
0.5732429435
0.5657148873
0.5598878653
0.5561983193
0.5549560803
0.5563013184
0.5601908175
0.566415492
0.5746407228
0.5844562425
0.5954234091
0.607112363
0.6191268292
0.6311179346
0.6427900537
0.6539017916
0.664264525
0.6737399866
0.6822375356
0.6897111319
0.6961557027
0.7016025197
0.7061133452
0.7097733761
0.7126833614
0.7149515432
0.7166861865
0.7179894055
0.7189527525
0.7196547353
0.7201600415
0.7205201831
0.7207749295
0.7209541724
0.7210798944
0.7211679566
0.7212296334
0.7212728478
0.7213031285
0.7213243063
0.7213389723
0.7213488283
0.7213548777
0.7213570673
0.721356121
0.7213567271
0.7213367326
0.5779340568
0.6319461324
0.6323807938
0.6271381079
0.6209641507
0.6143676404
0.6070838101
0.5991354386
0.5906665946
0.5817953842
0.5727916523
0.5639724565
0.5557555036
0.5486052119
0.5430042049
0.5393915067
0.5381057784
0.5393370711
0.543103746
0.5492581607
0.5575171392
0.5675063271
0.5788064019
0.590992331
0.6036616038
0.616451454
0.6290473313
0.6411855777
0.6526529087
0.6632845422
0.6729619694
0.6816106726
0.6891976021
0.6957279983
0.7012411496
0.7058048533
0.7095086417
0.7124561767
0.7147574844
0.7165217849
0.7178516075
0.7188386272
0.7195613705
0.7200845628
0.7204598275
0.7207271254
0.720916609
0.7210505595
0.7211451467
0.7212119405
0.7212591306
0.7212924777
0.7213160086
0.7213324799
0.7213437309
0.7213508307
0.7213538119
0.7213537761
0.7213545603
0.7213349671
0.5612161844
0.6050741334
0.6031989142
0.5975436371
0.5913231004
0.5845963597
0.5773164803
0.5694945193
0.5613361598
0.5530109146
0.544838687
0.5371790227
0.5304695416
0.5251651705
0.5217016415
0.5204358143
0.5215986225
0.525263838
0.5313435114
0.5396082388
0.5497246115
0.5612987867
0.5739165834
0.5871745336
0.6007003859
0.6141644028
0.6272840018
0.639824372
0.6515971526
0.6624585156
0.6723072742
0.6810830686
0.6887643016
0.6953653493
0.7009326262
0.7055392981
0.7092787356
0.7122571459
0.7145860658
0.7163754671
0.7177281393
0.7187357572
0.7194767646
0.7200158375
0.7204046319
0.7206832302
0.7208819828
0.7210234149
0.7211239583
0.7211954393
0.7212462822
0.7212824538
0.7213081574
0.7213263008
0.7213388457
0.7213469103
0.7213506447
0.7213515089
0.721352312
0.7213332516
0.5423648332
0.5765392278
0.573055778
0.5671525863
0.5609706911
0.5542707006
0.5471686132
0.5396836909
0.5320768436
0.524564984
0.5175068531
0.5112875665
0.5063428956
0.5030945597
0.50191082
0.5030539524
0.5066463595
0.5126563903
0.5209089843
0.5311153103
0.5429122593
0.5559021013
0.5696855102
0.5838850663
0.5981594461
0.6122102861
0.6257841912
0.6386721052
0.6507076547
0.6617654101
0.6717593982
0.6806417406
0.6884009917
0.69505967
0.7006705663
0.7053116521
0.7090797163
0.7120831991
0.7144349167
0.7162454208
0.7176176308
0.7186431195
0.7194001637
0.7199533176
0.7203542038
0.720642967
0.7208501021
0.7209983308
0.7211043059
0.7211800756
0.7212342703
0.72127304
0.7213007462
0.7213204358
0.7213341766
0.7213431232
0.7213475821
0.7213493185
0.7213499837
0.7213316105
0.5215107859
0.5466063786
0.5419600539
0.5362085849
0.5301722573
0.5236679058
0.5169323742
0.5100037248
0.5031904925
0.4967498139
0.491065315
0.4865291012
0.4835540533
0.4825088082
0.4836802222
0.4872316033
0.4931832666
0.5014135132
0.5116802896
0.5236554592
0.5369627456
0.5512118021
0.5660242209
0.5810505635
0.5959796237
0.6105420998
0.6245108808
0.6376997408
0.6499616524
0.6611873487
0.6713042582
0.6802755568
0.6880988498
0.6948039587
0.7004494161
0.7051175212
0.7089081235
0.7119316294
0.7143019376
0.7161300336
0.7175188574
0.7185597951
0.7193308869
0.7198965052
0.7203081843
0.7206060809
0.7208207888
0.7209751852
0.7210861083
0.7211657973
0.7212230635
0.721264219
0.7212937682
0.7213148847
0.721329726
0.721339477
0.7213446396
0.7213471993
0.7213475881
0.7213300813
0.4988342397
0.5156682044
0.510627799
0.5049672134
0.4992072362
0.4930702146
0.4868919989
0.4807359162
0.4749479648
0.4698151091
0.4657300558
0.463073278
0.4622162796
0.463459898
0.4670024347
0.4729106101
0.481114028
0.4914182557
0.5035332691
0.5171085498
0.5317671975
0.5471338412
0.5628542799
0.5786072389
0.5941099339
0.6091195315
0.6234323777
0.6368824049
0.6493395999
0.6607089255
0.6709296643
0.6799748365
0.6878501664
0.6945920684
0.7002642777
0.704953014
0.7087608804
0.7118000206
0.7141852466
0.7160278542
0.7174307119
0.7184849491
0.7192683123
0.7198449428
0.7202662413
0.7205723342
0.7207938756
0.7209538626
0.7210692874
0.7211525534
0.7212126301
0.7212559729
0.7212872153
0.7213096459
0.7213254952
0.7213359795
0.7213418308
0.7213451415
0.7213451461
0.7213287068
0.4743420945
0.4841069991
0.4791102953
0.473690346
0.4683412609
0.4627468082
0.4573157234
0.452139481
0.4475898018
0.4439713007
0.4416700055
0.4410380617
0.4423910883
0.4459530099
0.4518324909
0.4600070843
0.4703297941
0.4825507451
0.4963486699
0.5113641035
0.5272284887
0.5435860885
0.5601081877
0.5765007228
0.5925071607
0.6079084936
0.6225218803
0.6361990187
0.648824874
0.6603169772
0.6706251456
0.6797312167
0.6876482436
0.6944186289
0.7001108499
0.704814696
0.7086352585
0.7116862199
0.7140831598
0.7159375777
0.7173521939
0.7184178228
0.7192118718
0.7197982101
0.7202280674
0.7205415055
0.7207692052
0.720934253
0.7210537682
0.7211402943
0.7212029386
0.7212482833
0.7212810786
0.7213047164
0.7213214845
0.7213326392
0.7213391659
0.7213431345
0.7213427116
0.7213274975
0.4486141699
0.4523138034
0.4476861561
0.4426325021
0.4378381701
0.4329600352
0.4284574615
0.4244500513
0.4213236145
0.4193881539
0.4190086553
0.4204951692
0.4240972783
0.4299580471
0.4381002455
0.448422943
0.4607175935
0.4746948402
0.490016067
0.5063229772
0.5232613376
0.5404974829
0.5577280787
0.5746846311
0.5911344863
0.6068799058
0.6217564448
0.6356314478
0.6484030895
0.6600000405
0.670381526
0.6795373251
0.6874871448
0.6942788582
0.6999852868
0.704699485
0.7085288009
0.7115882827
0.7139941503
0.7158580168
0.7172823893
0.7183577206
0.7191610414
0.7197559168
0.7201933759
0.7205133865
0.7207466283
0.7209162514
0.721039478
0.721128971
0.7211939573
0.7212411313
0.7212753483
0.7213000918
0.7213176934
0.7213294646
0.7213366511
0.7213411712
0.7213403433
0.7213263722
0.4218429427
0.4206802266
0.4166190967
0.4120620207
0.407956193
0.4039513122
0.4005374607
0.3978596907
0.3963063552
0.3961810209
0.397815093
0.4014658072
0.4073105572
0.4154118323
0.4257136654
0.4380489892
0.4521623441
0.4677387656
0.484433264
0.5018959169
0.5197904477
0.5378061093
0.5556639567
0.5731190712
0.5899602934
0.6060087721
0.6211162936
0.6351639933
0.6480617275
0.6597480816
0.6701907263
0.6793866335
0.6873615858
0.6941684794
0.6998841342
0.7046046027
0.7084392858
0.7115044444
0.7139168287
0.7157880873
0.7172204606
0.7183040023
0.7191153366
0.7197177008
0.7201618988
0.7204877813
0.7207260037
0.7208997574
0.7210263467
0.7211185356
0.7211856547
0.7212344974
0.7212700138
0.7212957667
0.7213141213
0.721326464
0.721334288
0.7213392491
0.7213380549
0.7213253803
0.3943416588
0.389560281
0.386174792
0.3822362807
0.3789350156
0.3759365588
0.3737432997
0.3725219726
0.3726531339
0.374423138
0.3781191098
0.383937468
0.3919806829
0.402234255
0.4145728459
0.4287760653
0.4445549233
0.4615803477
0.4795092458
0.4980048766
0.5167507814
0.5354588852
0.553873108
0.5717699698
0.5889575127
0.6052735963
0.6205843156
0.6347829774
0.6477897983
0.6595522257
0.6700455486
0.679273288
0.6872668009
0.6940836166
0.6998042489
0.7045275119
0.708364677
0.7114330832
0.7138499135
0.7157267858
0.7171656295
0.71825607
0.7190743033
0.7196832206
0.7201333821
0.7204645032
0.7207071956
0.7208846734
0.7210143054
0.7211089405
0.7211779988
0.7212283615
0.7212650632
0.721291734
0.7213107671
0.7213236438
0.7213320738