/*--------------------------------*- C++ -*----------------------------------*\
  =========                 |
  \\      /  F ield         | OpenFOAM: The Open Source CFD Toolbox
   \\    /   O peration     | Website:  https://openfoam.org
    \\  /    A nd           | Version:  12
     \\/     M anipulation  |
\*---------------------------------------------------------------------------*/
FoamFile
{
    format      ascii;
    class       volScalarField;
    location    "1575";
    object      nut;
}
// * * * * * * * * * * * * * * * * * * * * * * * * * * * * * * * * * * * * * //

dimensions      [0 2 -1 0 0 0 0];

internalField   nonuniform List<scalar> 
16200
(
0.0005122341005
0.001755340693
0.002918785912
0.003820225498
0.004080953456
0.003571894001
0.002599017311
0.001392723119
0.0007114051384
0.0001789537865
5.612589508e-06
2.613975509e-06
2.368119135e-06
2.326884222e-06
1.849103314e-06
1.591758235e-06
1.388375369e-06
1.244446533e-06
1.150424996e-06
1.088956268e-06
1.052370177e-06
1.037697765e-06
1.0420015e-06
1.063374693e-06
1.101158523e-06
1.156143218e-06
1.23090971e-06
1.33033951e-06
1.462749001e-06
1.642328162e-06
1.893720557e-06
2.260405814e-06
2.820365743e-06
3.718254094e-06
5.237872483e-06
7.966427589e-06
1.316710513e-05
2.361993482e-05
4.55304812e-05
9.291768308e-05
0.0001978176138
0.0004341879787
0.0009742023448
0.00100219757
0.001001788821
0.001000863178
0.0009995313929
0.000998922457
0.0009986862694
0.0009986071626
0.0009985919902
0.0009986021899
0.0009986232479
0.0009986513385
0.0009986876226
0.0009987364018
0.0009988044426
0.0009989028787
0.0009990486235
0.0009992760127
0.0005055401184
0.001716295258
0.002821585486
0.003619689089
0.003705379177
0.003068825839
0.002110839283
0.001021856889
0.000560157666
3.987375471e-05
2.664297634e-06
2.195993759e-06
1.99985131e-06
1.959641573e-06
1.660974762e-06
1.42618009e-06
1.24023259e-06
1.108691574e-06
1.024277161e-06
9.701646061e-07
9.389204021e-07
9.274782017e-07
9.328922339e-07
9.531676412e-07
9.875308353e-07
1.036544839e-06
1.102421145e-06
1.189539808e-06
1.305616457e-06
1.464000257e-06
1.687663252e-06
2.016369757e-06
2.520412405e-06
3.329239681e-06
4.696142166e-06
7.144860913e-06
1.180246685e-05
2.115067909e-05
4.073010905e-05
8.305694517e-05
0.0001767348124
0.0003878173661
0.0008701575888
0.001002053813
0.001001686282
0.00100086569
0.0009995424259
0.0009989275348
0.0009986896467
0.0009986108987
0.0009985968748
0.0009986083649
0.000998630555
0.000998659469
0.0009986962225
0.00099874504
0.000998812793
0.0009989107524
0.0009990565666
0.0009992877217
0.0004998443625
0.001676336779
0.002721312692
0.003407560982
0.003327188494
0.002595312095
0.001611238491
0.000744943176
0.0003696238755
1.401206677e-05
2.094229632e-06
1.854681567e-06
1.694371497e-06
1.656532716e-06
1.484564291e-06
1.271539999e-06
1.102736467e-06
9.832460925e-07
9.077849828e-07
8.60171909e-07
8.332176308e-07
8.237269604e-07
8.287324983e-07
8.461767399e-07
8.752291216e-07
9.163629265e-07
9.717021353e-07
1.045620409e-06
1.145893961e-06
1.285649218e-06
1.486561123e-06
1.784897339e-06
2.24380752e-06
2.979246255e-06
4.218145832e-06
6.429647484e-06
1.062263262e-05
1.901568379e-05
3.655149041e-05
7.43663437e-05
0.0001578433387
0.0003454623728
0.0007731728344
0.001001953086
0.001001601543
0.001000857824
0.0009995558028
0.0009989377374
0.00099869796
0.0009986185231
0.0009986045319
0.0009986163844
0.0009986390138
0.0009986682814
0.0009987052062
0.0009987539197
0.0009988213151
0.0009989187923
0.0009990645683
0.0009992987872
0.0004961160944
0.001636597074
0.00261695694
0.003158827224
0.002938063018
0.002163953536
0.001139703429
0.0005524153597
0.0001784995814
4.870104711e-06
1.764990338e-06
1.581677841e-06
1.44939803e-06
1.413776112e-06
1.326305678e-06
1.132312343e-06
9.786727134e-07
8.699284905e-07
8.022742647e-07
7.601372838e-07
7.365663337e-07
7.282641371e-07
7.322948711e-07
7.466755271e-07
7.707103446e-07
8.050715168e-07
8.521862224e-07
9.168498871e-07
1.007205844e-06
1.136256915e-06
1.32448643e-06
1.605300733e-06
2.036581221e-06
2.725016658e-06
3.880126689e-06
5.935579551e-06
9.824096732e-06
1.759577867e-05
3.381245251e-05
6.873463152e-05
0.0001457061819
0.0003184178433
0.0007115067999
0.001001875128
0.001001522458
0.001000817927
0.0009995582413
0.0009989447074
0.0009987057882
0.0009986264383
0.0009986125447
0.0009986246202
0.0009986475358
0.0009986770553
0.0009987141131
0.0009987627549
0.0009988298679
0.0009989269658
0.0009990727589
0.000999309876
0.0004925271993
0.001596570283
0.002510417019
0.002908077318
0.002554718441
0.001782134234
0.0008194354396
0.0004189823185
4.307804802e-05
2.106181493e-06
1.511165789e-06
1.349266585e-06
1.240365471e-06
1.207613041e-06
1.174936317e-06
9.99743405e-07
8.612045492e-07
7.632104077e-07
7.031444631e-07
6.661774048e-07
6.45724457e-07
6.385037593e-07
6.417432311e-07
6.537094604e-07
6.740309645e-07
7.037859722e-07
7.458755894e-07
8.055493492e-07
8.911534028e-07
1.015330971e-06
1.197354506e-06
1.468238321e-06
1.881751389e-06
2.537556247e-06
3.632154618e-06
5.572713271e-06
9.23451444e-06
1.653885742e-05
3.175216546e-05
6.444610528e-05
0.0001363395964
0.0002972613496
0.0006626261502
0.001001821598
0.001001455302
0.001000766537
0.0009995553545
0.0009989511932
0.0009987145866
0.0009986354846
0.0009986214363
0.0009986334163
0.000998656354
0.0009986859498
0.0009987230508
0.0009987716127
0.000998838489
0.0009989352887
0.0009990811288
0.0009993208671
0.0004884224197
0.001555952126
0.002400352448
0.002650819229
0.002178844829
0.001380809112
0.0006051015066
0.0002875828293
1.697307429e-05
1.547267241e-06
1.269076226e-06
1.154011811e-06
1.063762063e-06
1.033210606e-06
1.03263185e-06
8.751024052e-07
7.510221307e-07
6.635913086e-07
6.109689487e-07
5.791635098e-07
5.620210194e-07
5.563568289e-07
5.596608315e-07
5.705701996e-07
5.89141687e-07
6.169247262e-07
6.572734324e-07
7.157571677e-07
8.007511255e-07
9.245094748e-07
1.105396374e-06
1.372782371e-06
1.777644688e-06
2.414954782e-06
3.472774147e-06
5.341359211e-06
8.859194443e-06
1.586394324e-05
3.042698524e-05
6.165737426e-05
0.0001301651674
0.0002831049495
0.0006294214669
0.001001786521
0.001001398438
0.001000715843
0.0009995456419
0.0009989560047
0.0009987235142
0.0009986450997
0.0009986308444
0.0009986425463
0.0009986653325
0.0009986948862
0.0009987319774
0.0009987804717
0.0009988471724
0.0009989437654
0.0009990897058
0.0009993318463
0.0004832239004
0.001514088675
0.002285548631
0.002376849536
0.001820641844
0.001003811625
0.0004539360787
0.0001696558618
5.098633018e-06
1.284451136e-06
1.081789472e-06
9.838484037e-07
9.091067704e-07
8.812904302e-07
8.975632819e-07
7.578313268e-07
6.484514858e-07
5.720421805e-07
5.272030073e-07
5.009037754e-07
4.875044596e-07
4.840239354e-07
4.883157582e-07
4.994652489e-07
5.179855499e-07
5.456382053e-07
5.865968042e-07
6.463870451e-07
7.333286403e-07
8.59368668e-07
1.042828987e-06
1.311203707e-06
1.714021193e-06
2.343196155e-06
3.38156415e-06
5.209267199e-06
8.642594418e-06
1.546723805e-05
2.96291537e-05
5.993023259e-05
0.0001262234141
0.000273793007
0.0006069636984
0.00100176595
0.001001350055
0.001000665494
0.0009995307399
0.0009989595707
0.0009987326086
0.0009986552274
0.0009986407138
0.0009986519785
0.0009986744614
0.0009987038693
0.0009987409047
0.0009987893443
0.0009988559291
0.0009989524039
0.0009990984975
0.0009993428137
0.0004762028895
0.001469330092
0.002162826952
0.002096099712
0.001497051539
0.000719486459
0.0003514737928
7.680391723e-05
2.549189666e-06
1.080373732e-06
9.182134313e-07
8.376359484e-07
7.762224005e-07
7.515121226e-07
7.746134128e-07
6.520308484e-07
5.568689399e-07
4.912756245e-07
4.540519519e-07
4.331951946e-07
4.236345498e-07
4.226656205e-07
4.285502993e-07
4.408301166e-07
4.602387943e-07
4.896078331e-07
5.326943174e-07
5.953825823e-07
6.859897903e-07
8.163521768e-07
1.004000675e-06
1.277472337e-06
1.683818165e-06
2.313704571e-06
3.347462131e-06
5.160967347e-06
8.561009607e-06
1.530900782e-05
2.928667636e-05
5.912594054e-05
0.0001242343638
0.0002687414468
0.0005940056034
0.001001755454
0.001001307766
0.001000614495
0.0009995114122
0.000998961854
0.0009987416373
0.0009986656435
0.000998650881
0.0009986616102
0.0009986836844
0.0009987128737
0.0009987498263
0.0009987982327
0.0009988647652
0.0009989612108
0.0009991075144
0.000999353792
0.0004674864488
0.00141985557
0.002008010913
0.001811206393
0.001186481864
0.0005354550838
0.0002664946516
3.091604908e-05
1.477751723e-06
9.134492366e-07
7.83910085e-07
7.1612602e-07
6.652646665e-07
6.433273737e-07
6.66666864e-07
5.595486834e-07
4.773546836e-07
4.218384306e-07
3.917276821e-07
3.760180607e-07
3.701862078e-07
3.718224779e-07
3.793644791e-07
3.933169701e-07
4.147784432e-07
4.464528682e-07
4.925705539e-07
5.591395174e-07
6.545307687e-07
7.906291976e-07
9.850043222e-07
1.26595468e-06
1.6803389e-06
2.31808365e-06
3.359171827e-06
5.17990827e-06
8.587814132e-06
1.534233203e-05
2.931007364e-05
5.906297634e-05
0.0001238127748
0.0002671063176
0.0005886572587
0.001001751398
0.001001269587
0.00100056198
0.0009994888923
0.0009989630882
0.000998750519
0.0009986762086
0.0009986612307
0.0009986713662
0.0009986929616
0.0009987218843
0.0009987587418
0.0009988071431
0.0009988736885
0.0009989701923
0.0009991167627
0.0009993647914
0.0004570871049
0.001365980265
0.001834714299
0.001531229003
0.0008685148096
0.0004036251736
0.0001898042652
1.82486525e-05
1.157720862e-06
7.750681295e-07
6.707173133e-07
6.136270553e-07
5.713753443e-07
5.521667968e-07
5.721647645e-07
4.791504988e-07
4.088876449e-07
3.62797256e-07
3.393178355e-07
3.284068705e-07
3.260625004e-07
3.29942133e-07
3.397452512e-07
3.556334131e-07
3.793149521e-07
4.138218553e-07
4.635790791e-07
5.347146678e-07
6.357249819e-07
7.786853428e-07
9.814175481e-07
1.272318358e-06
1.698521998e-06
2.35011831e-06
3.408560457e-06
5.254573005e-06
8.705149275e-06
1.553682401e-05
2.964313164e-05
5.963007492e-05
0.0001247269543
0.0002683872077
0.0005898097621
0.001001750697
0.001001233772
0.001000507071
0.0009994642283
0.0009989634659
0.0009987591709
0.0009986867878
0.00099867165
0.0009986811721
0.0009987022522
0.0009987308847
0.0009987676499
0.0009988160813
0.0009988827068
0.0009989793546
0.0009991262473
0.0009993758227
0.0004448954717
0.001307585166
0.001649613606
0.001264301795
0.0006255523891
0.0003071059526
0.0001249192294
1.248275014e-05
9.473459401e-07
6.600500189e-07
5.756644745e-07
5.271780406e-07
4.919289431e-07
4.752635464e-07
4.901497498e-07
4.099014217e-07
3.505376702e-07
3.131456912e-07
2.956995437e-07
2.890924094e-07
2.895522252e-07
2.960231476e-07
3.078131007e-07
3.257565419e-07
3.519551528e-07
3.89685114e-07
4.435234772e-07
5.197364115e-07
6.270199182e-07
7.777580491e-07
9.901927796e-07
1.293094603e-06
1.734250291e-06
2.404677558e-06
3.488843875e-06
5.375302398e-06
8.898001668e-06
1.586689075e-05
3.023836816e-05
6.073286726e-05
0.0001267794102
0.0002721551911
0.0005965068942
0.001001750938
0.001001198938
0.001000449009
0.0009994383974
0.000998963209
0.000998767554
0.0009986972812
0.0009986820494
0.0009986909668
0.0009987115231
0.0009987398625
0.000998776551
0.0009988250539
0.0009988918281
0.0009989887031
0.0009991359711
0.0009993868932
0.0004306353355
0.001243609132
0.001459798639
0.001001303952
0.0004687201079
0.0002408610319
5.999720313e-05
6.862004916e-06
7.599109013e-07
5.636557342e-07
4.949166558e-07
4.53761197e-07
4.243428874e-07
4.101593824e-07
4.193833693e-07
3.506383899e-07
3.011473721e-07
2.716491988e-07
2.595409216e-07
2.5636751e-07
2.597893454e-07
2.683697468e-07
2.820782667e-07
3.022222913e-07
3.311955924e-07
3.724500573e-07
4.306982775e-07
5.12378552e-07
6.26456063e-07
7.857192974e-07
1.00896349e-06
1.325561503e-06
1.784272114e-06
2.477708227e-06
3.594707611e-06
5.53465209e-06
9.155038486e-06
1.63136142e-05
3.10613118e-05
6.230378398e-05
0.000129830094
0.0002781079307
0.0006080767723
0.001001750286
0.001001164016
0.001000387161
0.0009994121949
0.000998962513
0.0009987756462
0.0009987076111
0.0009986923564
0.0009987007004
0.0009987207471
0.0009987488081
0.0009987854469
0.0009988340681
0.0009989010604
0.0009989982429
0.0009991459359
0.0009993980086
0.0004142375094
0.001171973062
0.001264725905
0.0007502259075
0.0003648145564
0.0001875310504
3.074042991e-05
3.538103242e-06
6.144578191e-07
4.82470726e-07
4.265862148e-07
3.915541661e-07
3.669628532e-07
3.550063919e-07
3.585628718e-07
3.000491499e-07
2.594270352e-07
2.370065477e-07
2.295342314e-07
2.295026344e-07
2.353162882e-07
2.457769281e-07
2.614286946e-07
2.839357079e-07
3.158962832e-07
3.608969806e-07
4.237924199e-07
5.112329175e-07
6.325116706e-07
8.008968108e-07
1.03584341e-06
1.367518425e-06
1.845931885e-06
2.565884991e-06
3.721802763e-06
5.726587088e-06
9.467194965e-06
1.686207151e-05
3.208509171e-05
6.429062098e-05
0.0001337714527
0.0002860140504
0.0006240059615
0.001001747415
0.001001128228
0.00100032104
0.0009993862479
0.000998961548
0.0009987834424
0.0009987177228
0.0009987025165
0.0009987103347
0.0009987299039
0.0009987577154
0.000998794341
0.0009988431314
0.0009989104116
0.0009990079787
0.0009991561413
0.0009994091723
0.0003963098739
0.001091916429
0.001068599305
0.0005590497028
0.0002807924912
0.0001392051957
1.849559245e-05
1.921447929e-06
5.02773241e-07
4.127744285e-07
3.686991655e-07
3.386180686e-07
3.178220975e-07
3.077461762e-07
3.060337464e-07
2.567225132e-07
2.241610011e-07
2.080882406e-07
2.042589348e-07
2.073434167e-07
2.151506361e-07
2.273925481e-07
2.450634223e-07
2.700785477e-07
3.051796545e-07
3.540736383e-07
4.217765471e-07
5.151876457e-07
6.439743087e-07
8.219432182e-07
1.069370063e-06
1.417160759e-06
1.917046495e-06
2.666482448e-06
3.866600398e-06
5.94629326e-06
9.827396795e-06
1.750088046e-05
3.328963028e-05
6.665501171e-05
0.0001385253949
0.0002957068965
0.0006439263808
0.001001741406
0.001001091033
0.001000250288
0.0009993610167
0.0009989604508
0.0009987909469
0.0009987275793
0.0009987124907
0.0009987198421
0.0009987389793
0.0009987665816
0.0009988032379
0.0009988522519
0.0009989198896
0.0009990179142
0.0009991665846
0.000999420386
0.0003781318666
0.001006380266
0.0008597114213
0.0004271865199
0.0002272404603
0.0001011264212
1.286790251e-05
1.100161029e-06
4.153857703e-07
3.526032555e-07
3.171662304e-07
2.924045038e-07
2.748759147e-07
2.666190259e-07
2.605082759e-07
2.196772859e-07
1.945152977e-07
1.840754163e-07
1.836673834e-07
1.890577672e-07
1.986091222e-07
2.126104582e-07
2.323820994e-07
2.600078909e-07
2.983401625e-07
3.51209624e-07
4.238159091e-07
5.233366521e-07
6.598483043e-07
8.47743358e-07
1.108101857e-06
1.472984276e-06
1.995799401e-06
2.777245506e-06
4.026212523e-06
6.189898875e-06
1.023008126e-05
1.822130663e-05
3.465986886e-05
6.936872681e-05
0.000144035296
0.000307066835
0.0006675754336
0.001001731666
0.001001052073
0.001000174671
0.0009993368201
0.0009989593271
0.0009987981703
0.0009987371588
0.0009987222533
0.000998729204
0.0009987479648
0.0009987754066
0.0009988121432
0.0009988614378
0.0009989295017
0.0009990280522
0.0009991772615
0.0009994316499
0.0003602961368
0.0009136602933
0.0006918418362
0.0003498101216
0.0001917772571
5.68246073e-05
8.630648951e-06
6.850053002e-07
3.465672769e-07
3.007735695e-07
2.722570584e-07
2.516893389e-07
2.37585769e-07
2.310399911e-07
2.214629882e-07
1.883724714e-07
1.699010646e-07
1.639786906e-07
1.66772939e-07
1.740359691e-07
1.851890776e-07
2.009612342e-07
2.228918326e-07
2.531805684e-07
2.947796545e-07
3.51654566e-07
4.292073071e-07
5.349155424e-07
6.792916611e-07
8.773536803e-07
1.151056849e-06
1.533727011e-06
2.080678506e-06
2.896316205e-06
4.198294816e-06
6.454328111e-06
1.06709519e-05
1.901681653e-05
3.618489693e-05
7.241188323e-05
0.0001502621636
0.0003200128031
0.0006947770233
0.001001717842
0.001001011133
0.001000098087
0.0009993138608
0.0009989582547
0.0009988051271
0.0009987464508
0.0009987317893
0.00099873841
0.0009987568565
0.0009987841929
0.0009988210636
0.0009988706973
0.0009989392552
0.0009990383947
0.0009991881691
0.0009994429623
0.0003453760903
0.00081309936
0.0005594213004
0.000289725454
0.0001596333265
3.135918986e-05
4.099558666e-06
4.619937286e-07
2.91668442e-07
2.568724576e-07
2.337750384e-07
2.166459363e-07
2.051194346e-07
2.003892131e-07
1.882572509e-07
1.622109124e-07
1.497161728e-07
1.479214211e-07
1.529689782e-07
1.618125978e-07
1.744922229e-07
1.920473239e-07
2.161598664e-07
2.491191011e-07
2.939780716e-07
3.548480485e-07
4.373472137e-07
5.49269311e-07
7.015847524e-07
9.099790751e-07
1.197324746e-06
1.598335853e-06
2.170435625e-06
3.02217986e-06
4.38096828e-06
6.737176454e-06
1.114676372e-05
1.988267995e-05
3.785716913e-05
7.577132294e-05
0.0001571811465
0.0003344945616
0.0007254239931
0.001001699764
0.001000967897
0.001000026361
0.0009992922521
0.0009989572885
0.0009988118337
0.000998755454
0.0009987410928
0.0009987474557
0.0009987656545
0.0009987929447
0.0009988300063
0.0009988800384
0.0009989491565
0.000999048943
0.0009991993097
0.0009994543208
0.0003365851661
0.0007082285979
0.0004600678161
0.0002417392597
0.0001294525748
1.867108739e-05
1.957741316e-06
3.34403521e-07
2.466646193e-07
2.193813151e-07
2.005474092e-07
1.863080731e-07
1.769338546e-07
1.73744666e-07
1.602200854e-07
1.406481687e-07
1.3311674e-07
1.349787769e-07
1.417783135e-07
1.52007682e-07
1.661679749e-07
1.855020944e-07
2.117868366e-07
2.473906377e-07
2.954716774e-07
3.602955462e-07
4.477066992e-07
5.658279673e-07
7.261082995e-07
9.449210027e-07
1.246142192e-06
1.665940738e-06
2.264054502e-06
3.153622417e-06
4.572758053e-06
7.036615364e-06
1.16551619e-05
2.081567568e-05
3.967193098e-05
7.943942841e-05
0.0001647789865
0.0003504870438
0.0007594653231
0.001001677398
0.001000921874
0.0009999594713
0.0009992720409
0.0009989564658
0.0009988183078
0.0009987641735
0.0009987501641
0.0009987563418
0.0009987743619
0.0009988016679
0.0009988389789
0.000998889469
0.000998959211
0.0009990596988
0.000999210685
0.0009994657217
0.0003367136325
0.0006043207947
0.0003731335877
0.0002066709012
0.000102317007
1.224747061e-05
9.538286361e-07
2.574499841e-07
2.089234126e-07
1.871075286e-07
1.717683718e-07
1.600732232e-07
1.526287699e-07
1.508461164e-07
1.369487112e-07
1.232716339e-07
1.202579784e-07
1.246169968e-07
1.327987596e-07
1.442866155e-07
1.598939411e-07
1.809865674e-07
2.094099739e-07
2.476091834e-07
2.988520097e-07
3.675649176e-07
4.598268959e-07
5.841016029e-07
7.523335985e-07
9.816181864e-07
1.296880713e-06
1.735836516e-06
2.36072419e-06
3.289692146e-06
4.772537714e-06
7.351307766e-06
1.219454504e-05
2.181385356e-05
4.162677454e-05
8.341324011e-05
0.0001730521733
0.0003679863446
0.0007968971674
0.001001650819
0.001000872696
0.0009998972817
0.0009992532274
0.0009989558099
0.0009988245674
0.0009987726193
0.0009987590089
0.000998765073
0.0009987829841
0.0009988103693
0.000998847989
0.0009988989963
0.0009989694238
0.0009990706631
0.0009992222911
0.0009994771601
0.00034666003
0.0005097616396
0.0003163759382
0.0001840865561
5.985579085e-05
8.61988964e-06
4.921042544e-07
2.066225305e-07
1.772661785e-07
1.596465534e-07
1.472139912e-07
1.377441846e-07
1.320073926e-07
1.315198061e-07
1.180499188e-07
1.09594471e-07
1.102087301e-07
1.163439536e-07
1.256668424e-07
1.383404795e-07
1.553669267e-07
1.781844199e-07
2.086962951e-07
2.494254247e-07
3.037536329e-07
3.762739371e-07
4.733074743e-07
6.03670041e-07
7.79819254e-07
1.019600338e-06
1.349034268e-06
1.807467217e-06
2.459818217e-06
3.429671095e-06
4.979488404e-06
7.680345359e-06
1.276396083e-05
2.287634525e-05
4.372126817e-05
8.769368537e-05
0.0001820052732
0.0003870060199
0.0008377547554
0.001001620174
0.001000820099
0.0009998395838
0.0009992357804
0.0009989553347
0.0009988306303
0.0009987808047
0.0009987676362
0.0009987736565
0.0009987915281
0.0009988190563
0.0009988570443
0.0009989086269
0.0009989797984
0.0009990818359
0.0009992341145
0.0009994886296
0.0003640288886
0.0004720419657
0.0002753191449
0.0001653787799
3.196265958e-05
3.551621543e-06
2.825081275e-07
1.708110588e-07
1.510813957e-07
1.367002368e-07
1.266018705e-07
1.189953031e-07
1.147508278e-07
1.153396652e-07
1.02992706e-07
9.88698718e-08
1.023347984e-07
1.097471071e-07
1.200788028e-07
1.339005865e-07
1.523162084e-07
1.768129406e-07
2.09350216e-07
2.525317881e-07
3.098577759e-07
3.860931385e-07
4.878086021e-07
6.241829837e-07
8.08203901e-07
1.058492405e-06
1.40220865e-06
1.880409766e-06
2.560871422e-06
3.57304331e-06
5.19305527e-06
8.023186629e-06
1.336301166e-05
2.400320836e-05
4.595667654e-05
9.228503911e-05
0.0001916498229
0.0004075747451
0.0008821075869
0.001001585653
0.001000763892
0.0009997861291
0.0009992196487
0.000998955047
0.0009988365141
0.000998788745
0.0009987760577
0.0009987821014
0.0009988000022
0.0009988277367
0.000998866152
0.0009989183666
0.0009989903377
0.0009990932156
0.000999246139
0.0009995001215
0.0003851850373
0.0004112034282
0.0002468885626
0.0001466767992
1.729991063e-05
1.351138225e-06
1.882439975e-07
1.438166532e-07
1.293438538e-07
1.175076731e-07
1.092614935e-07
1.032474457e-07
1.003521687e-07
1.006876763e-07
9.119839758e-08
9.079253094e-08
9.611773975e-08
1.045154293e-07
1.157933352e-07
1.307355144e-07
1.50501202e-07
1.766201687e-07
2.111098661e-07
2.566583204e-07
3.16888008e-07
3.967410461e-07
5.030450142e-07
6.453523585e-07
8.371965101e-07
1.09799911e-06
1.456100705e-06
1.954346635e-06
2.663544329e-06
3.719448396e-06
5.412885509e-06
8.379570349e-06
1.399172507e-05
2.519521618e-05
4.833559154e-05
9.71942297e-05
0.0002020029522
0.0004297334355
0.0009300530534
0.001001547475
0.001000703933
0.0009997366508
0.0009992047696
0.0009989549488
0.0009988422357
0.0009987964566
0.0009987842865
0.0009987904183
0.000998808415
0.0009988364184
0.0009988753188
0.0009989282205
0.0009990010433
0.0009991047991
0.0009992583549
0.000999511625
0.0004109335645
0.0003773336089
0.0002332737139
0.0001261412598
1.005045535e-05
4.858451902e-07
1.440041563e-07
1.222300022e-07
1.109985102e-07
1.012453982e-07
9.459771088e-08
9.002052782e-08
8.815537942e-08
8.731362622e-08
8.214795793e-08
8.462479296e-08
9.119334371e-08
1.004260365e-07
1.126137337e-07
1.286418278e-07
1.497072824e-07
1.773824107e-07
2.137452339e-07
2.615711731e-07
3.246088746e-07
4.079826611e-07
5.187839983e-07
6.669490868e-07
8.665722967e-07
1.137899549e-06
1.510491508e-06
2.029057342e-06
2.767612543e-06
3.868667951e-06
5.638810273e-06
8.749489485e-06
1.465051203e-05
2.645378248e-05
5.086178217e-05
0.0001024305146
0.0002130866509
0.0004535334601
0.0009817100873
0.001001505876
0.001000640108
0.0009996908798
0.0009991910747
0.0009989550391
0.0009988478111
0.0009988039564
0.0009987923364
0.0009987986179
0.0009988167756
0.0009988451088
0.0009988845507
0.0009989381923
0.0009990119157
0.0009991165829
0.0009992707468
0.0009995231289
0.0004383508075
0.0003637522543
0.0002283214116
8.533890673e-05
5.037076793e-06
1.966026841e-07
1.187301885e-07
1.043202786e-07
9.536202695e-08
8.756505145e-08
8.218128947e-08
7.877756357e-08
7.791205212e-08
7.682583455e-08
7.535713236e-08
7.982392612e-08
8.731489165e-08
9.730428406e-08
1.103660193e-07
1.274351069e-07
1.497415522e-07
1.789016225e-07
2.170561776e-07
2.670708495e-07
3.328240633e-07
4.196271931e-07
5.34842319e-07
6.887990884e-07
8.961674029e-07
1.1780405e-06
1.565238064e-06
2.104408165e-06
2.872953784e-06
4.020608736e-06
5.870821979e-06
9.133158295e-06
1.534011465e-05
2.778086894e-05
5.354001259e-05
0.0001080050994
0.0002249269307
0.0004790347397
0.001002187641
0.001001461102
0.001000572303
0.0009996485534
0.0009991784943
0.0009989553146
0.0009988532554
0.0009988112613
0.0009988002217
0.0009988067116
0.0009988250928
0.0009988538151
0.000998893853
0.0009989482848
0.0009990229546
0.0009991285609
0.0009992832825
0.0009995346246
0.000482137661
0.0003656367196
0.0002283154519
4.149306512e-05
1.36295469e-06
1.20677927e-07
1.006847489e-07
8.958679504e-08
8.235890417e-08
7.595642169e-08
7.168038983e-08
6.938425482e-08
6.948044429e-08
6.888983561e-08
7.033585902e-08
7.610992006e-08
8.430525263e-08
9.500058544e-08
1.088944049e-07
1.269520714e-07
1.504360909e-07
1.810081071e-07
2.208738331e-07
2.729917295e-07
3.413734227e-07
4.315219393e-07
5.510763836e-07
7.10769182e-07
9.258599987e-07
1.218312093e-06
1.620242706e-06
2.180314152e-06
2.979500854e-06
4.175244014e-06
6.108998965e-06
9.530910726e-06
1.606145925e-05
2.917875573e-05
5.637565993e-05
0.0001139304611
0.0002375525663
0.0005063033414
0.001002157401
0.001001413417
0.001000500383
0.0009996094222
0.0009991669593
0.0009989557709
0.0009988585827
0.0009988183876
0.0009988079561
0.0009988147101
0.0009988333751
0.0009988625435
0.0009989032298
0.0009989584997
0.0009990341585
0.0009991407214
0.0009992959193
0.0009995461064
0.0005231511052
0.0003594733647
0.0002228444142
1.940752229e-05
3.277309019e-07
9.700112312e-08
8.655524069e-08
7.748450782e-08
7.144642068e-08
6.622143015e-08
6.295362166e-08
6.169216668e-08
6.269119439e-08
6.308536144e-08
6.661073052e-08
7.322921732e-08
8.201758564e-08
9.337667033e-08
1.080561776e-07
1.270468178e-07
1.516441794e-07
1.835566798e-07
2.250567812e-07
2.791982358e-07
3.501290861e-07
4.43548347e-07
5.67378271e-07
7.327631457e-07
9.555664497e-07
1.258644088e-06
1.675449409e-06
2.256735252e-06
3.087237128e-06
4.33260746e-06
6.353496157e-06
9.943184607e-06
1.681562634e-05
3.064997976e-05
5.937457659e-05
0.0001202200303
0.0002509943521
0.0005354098096
0.001002123478
0.001001363099
0.001000424169
0.0009995732522
0.0009991564035
0.0009989564026
0.0009988638059
0.0009988253506
0.000998815553
0.0009988226239
0.0009988416302
0.0009988712998
0.0009989126843
0.0009989688374
0.0009990455236
0.0009991530467
0.0009993086467
0.0009995575654
0.0005622345974
0.0003492875764
0.0002092396063
9.636680665e-06
1.269712137e-07
8.292463427e-08
7.487451545e-08
6.743582018e-08
6.234617064e-08
5.811762446e-08
5.578681945e-08
5.549951275e-08
5.732964347e-08
5.892258261e-08
6.379828409e-08
7.100341223e-08
8.032552947e-08
9.230707924e-08
1.077243285e-07
1.275924351e-07
1.532410595e-07
1.864268339e-07
2.294908073e-07
2.85584358e-07
3.589949799e-07
4.556218182e-07
5.836762246e-07
7.547233473e-07
9.852445698e-07
1.299011235e-06
1.730851762e-06
2.333687261e-06
3.19621095e-06
4.492811431e-06
6.604567897e-06
1.037054975e-05
1.760388449e-05
3.219736973e-05
6.254310843e-05
0.0001268881325
0.0002652847993
0.0005664281831
0.001002086131
0.001001310453
0.001000343415
0.0009995398266
0.0009991467639
0.0009989572038
0.0009988689366
0.000998832165
0.000998823025
0.0009988304629
0.0009988498654
0.0009988800884
0.0009989222184
0.000998979297
0.0009990570444
0.0009991655185
0.0009993214837
0.0009995689825
0.0005811318109
0.0003383410381
0.000185344062
5.647224116e-06
9.454594618e-08
7.162734955e-08
6.51799544e-08
5.904251546e-08
5.473844652e-08
5.139565283e-08
4.997018982e-08
5.059779802e-08
5.316822859e-08
5.592942254e-08
6.163897544e-08
6.930511639e-08
7.91199286e-08
9.168281407e-08
1.077901036e-07
1.284819358e-07
1.551231515e-07
1.895200147e-07
2.340838965e-07
2.920659857e-07
3.678960912e-07
4.676774736e-07
5.999164268e-07
7.76607929e-07
1.014865455e-06
1.339398804e-06
1.786450875e-06
2.411190514e-06
3.306472613e-06
4.655968203e-06
6.862465706e-06
1.081356708e-05
1.842748127e-05
3.382371203e-05
6.588752375e-05
0.000133948963
0.0002804562124
0.0005994322332
0.001002045604
0.001001255824
0.001000264455
0.0009995089456
0.0009991379811
0.0009989581684
0.0009988739855
0.000998838844
0.0009988303838
0.0009988382359
0.0009988580868
0.000998888913
0.0009989318328
0.0009989898764
0.0009990687128
0.0009991781207
0.0009993344272
0.0009995803356
0.0005685874972
0.0003330218384
0.0001531211083
2.185837761e-06
7.709530156e-08
6.234320492e-08
5.709080973e-08
5.19998724e-08
4.837448834e-08
4.586028621e-08
4.53216259e-08
4.678025437e-08
4.995397933e-08
5.372695998e-08
5.99678822e-08
6.803279105e-08
7.830461232e-08
9.140877401e-08
1.081607024e-07
1.296263438e-07
1.572068051e-07
1.927592984e-07
2.387671081e-07
2.985832498e-07
3.767825526e-07
4.796762449e-07
6.160713433e-07
7.984016438e-07
1.044427049e-06
1.379819119e-06
1.842275229e-06
2.48929339e-06
3.418101871e-06
4.822221916e-06
7.12747543e-06
1.127283223e-05
1.928769301e-05
3.553180129e-05
6.941404084e-05
0.0001414165116
0.0002965402975
0.0006344941551
0.001002002117
0.001001199336
0.001000191362
0.0009994804261
0.0009991299999
0.0009989592899
0.0009988789618
0.0009988454
0.00099883764
0.0009988459509
0.0009988662997
0.0009988977759
0.0009989415269
0.0009990005719
0.000999080519
0.0009991908375
0.0009993474607
0.000999591607
0.0005523408011
0.000330548536
8.216768375e-05
7.40619985e-07
6.539140486e-08
5.472211348e-08
5.036078529e-08
4.6109293e-08
4.308764783e-08
4.137114841e-08
4.167778049e-08
4.384844401e-08
4.735996708e-08
5.206129403e-08
5.867945052e-08
6.71045216e-08
7.77992876e-08
9.140620564e-08
1.087601172e-07
1.309535965e-07
1.594250072e-07
1.960836975e-07
2.43486312e-07
3.050895642e-07
3.856158749e-07
4.915881917e-07
6.32119982e-07
8.200928468e-07
1.073927545e-06
1.42028089e-06
1.898345175e-06
2.568030815e-06
3.531158702e-06
4.991688144e-06
7.399838392e-06
1.174886366e-05
2.01856517e-05
3.732414812e-05
7.312830187e-05
0.0001493035668
0.0003135662081
0.0006716806008
0.001001955881
0.001001140939
0.001000123692
0.0009994541004
0.0009991227685
0.0009989605618
0.0009988838739
0.000998851844
0.0009988448033
0.0009988536148
0.0009988745081
0.0009989066782
0.0009989512988
0.0009990113782
0.0009990924509
0.0009992036531
0.0009993605679
0.0009996027756
0.0005318441167
0.0003253739972
4.488054234e-05
2.786801824e-07
5.674327128e-08
4.844954679e-08
4.474984561e-08
4.11804839e-08
3.872652893e-08
3.779133992e-08
3.886441387e-08
4.160972362e-08
4.550775713e-08
5.077489795e-08
5.769515482e-08
6.64497141e-08
7.753518435e-08
9.160906514e-08
1.09526131e-07
1.324063241e-07
1.617261445e-07
1.994481398e-07
2.482036383e-07
3.115548092e-07
3.943741425e-07
5.033999933e-07
6.480579859e-07
8.416865684e-07
1.103381878e-06
1.460809712e-06
1.954698107e-06
2.647454971e-06
3.645720432e-06
5.164498422e-06
7.679805021e-06
1.224216798e-05
2.112242332e-05
3.920306587e-05
7.703543519e-05
0.0001576216432
0.0003315599974
0.0007110507795
0.001001907105
0.001001080559
0.001000061047
0.000999429815
0.0009991162391
0.0009989619776
0.000998888729
0.0009988581857
0.000998851882
0.0009988612335
0.0009988827151
0.0009989156199