/*--------------------------------*- C++ -*----------------------------------*\
  =========                 |
  \\      /  F ield         | OpenFOAM: The Open Source CFD Toolbox
   \\    /   O peration     | Website:  https://openfoam.org
    \\  /    A nd           | Version:  12
     \\/     M anipulation  |
\*---------------------------------------------------------------------------*/
FoamFile
{
    format      ascii;
    class       volScalarField;
    location    "1575";
    object      p;
}
// * * * * * * * * * * * * * * * * * * * * * * * * * * * * * * * * * * * * * //

dimensions      [1 -1 -2 0 0 0 0];

internalField   nonuniform List<scalar> 
16200
(
79453.42541
79460.26533
79469.28554
79480.99474
79496.34321
79516.6264
79543.82431
79579.9037
79625.13673
79679.40005
79744.02246
79820.92844
79911.98923
80020.33074
80148.47346
80300.57232
80480.33914
80693.02955
80943.94083
81239.69002
81587.37914
81995.20959
82472.02886
83027.3976
83671.08186
84412.45733
85259.34502
86216.31848
87282.30446
88447.58713
89690.89425
90978.3148
92266.02573
93507.0084
94659.26173
95692.0737
96588.4544
97344.12789
97964.68206
98462.31025
98852.88995
99153.63407
99381.35513
99551.33036
99676.70126
99768.28046
99834.66765
99882.51004
99916.83535
99941.38206
99958.89346
99971.36475
99980.23223
99986.53308
99990.9935
99994.1751
99996.37491
99998.08049
99998.78143
100000.0969
78308.25844
78316.4904
78326.09813
78339.04994
78356.24318
78379.15903
78410.27625
78450.94324
78501.5421
78561.88562
78633.58644
78718.9388
78819.91519
78940.09985
79082.19564
79250.88305
79450.27002
79686.25218
79964.79133
80293.35353
80680.00466
81134.05009
81665.54186
82285.26839
83004.10397
83832.13353
84777.06112
85841.8816
87021.65801
88299.83482
89645.67323
91015.36694
92358.18986
93625.77285
94780.37165
95798.95762
96672.81076
97404.40287
98003.64376
98484.71047
98863.74301
99157.23789
99380.92441
99549.01981
99673.8102
99765.50369
99832.31292
99880.66267
99915.46699
99940.41681
99958.2445
99970.95117
99979.98793
99986.40329
99990.94414
99994.16698
99996.39753
99998.109
99998.78491
100000.1007
77353.29125
77362.48258
77373.26817
77387.85506
77407.30829
77433.38954
77468.90263
77514.46322
77570.46837
77637.03648
77716.07009
77810.28649
77921.74041
78054.57411
78211.75434
78398.59487
78619.73709
78881.84458
79191.68937
79557.69736
79989.00097
80496.07245
81090.19458
81783.31703
82587.1744
83511.98428
84564.23511
85743.50153
87038.35004
88422.5332
89854.12417
91280.13363
92646.10658
93906.56821
95031.6629
96008.1703
96836.31594
97525.08277
98088.09739
98540.876
98899.26079
99178.56094
99393.01609
99555.42403
99676.90056
99766.78232
99832.6785
99880.62264
99915.28872
99940.22824
99958.09742
99970.85838
99979.94524
99986.39866
99990.9687
99994.2042
99996.44483
99998.15412
99998.80671
100000.1451
76609.60214
76619.61838
76632.12842
76648.77533
76671.03128
76701.06813
76741.58733
76792.77719
76855.03557
76929.09834
77017.00668
77121.99499
77246.2059
77394.40316
77569.8564
77778.54208
78025.66415
78318.66986
78665.1878
79074.66714
79557.41169
80125.15992
80790.45429
81566.24165
82464.61116
83494.8866
84660.59465
85955.32409
87358.13529
88830.83538
90320.3586
91767.4648
93118.67679
94335.91891
95400.09758
96308.78221
97070.79455
97700.69584
98214.85083
98629.33407
98959.13858
99218.0017
99418.38206
99571.41135
99686.81439
99772.85875
99836.37943
99882.87709
99916.67303
99941.09293
99958.65227
99971.22736
99980.20133
99986.5839
99991.1096
99994.31178
99996.52988
99998.21883
99998.83482
100000.1721
76104.49549
76115.72391
76130.36435
76149.50536
76175.16358
76210.07092
76256.49923
76314.41072
76384.1616
76467.20575
76565.6158
76683.18838
76822.12852
76987.84556
77183.95613
77417.16679
77693.37163
78020.94839
78408.5776
78866.89719
79407.48499
80043.29585
80787.86363
81654.54685
82654.75613
83795.27082
85074.26102
86476.3924
87968.68609
89500.45441
91009.99514
92436.74938
93733.55251
94873.52578
95849.85573
96670.55587
97351.72801
97912.00576
98369.23654
98739.18268
99035.45683
99269.92158
99453.07472
99594.2547
99701.68646
99782.46602
99842.55899
99886.84843
99919.2315
99942.75043
99959.7353
99971.94302
99980.6809
99986.91033
99991.33678
99994.47128
99996.64389
99998.30019
99998.87446
100000.2115
75842.54548
75855.3059
75872.48588
75894.60929
75924.38989
75965.13007
76018.49835
76083.9099
76161.6732
76254.02776
76363.26008
76494.0293
76648.70608
76833.46545
77052.4127
77313.11088
77622.28185
77989.29776
78423.90778
78937.84838
79543.78828
80255.58221
81087.23537
82051.64027
83158.10284
84408.73615
85793.61209
87285.77856
88839.00333
90391.80043
91878.46065
93242.906
94448.97455
95483.27868
96351.28429
97070.04819
97661.10467
98145.4934
98541.32295
98863.28162
99123.19567
99330.87125
99494.77735
99622.43209
99720.53767
99794.98664
99850.83503
99892.30452
99922.82577
99945.11999
99961.30052
99972.97998
99981.37062
99987.37136
99991.64756
99994.68151
99996.78668
99998.3977
99998.92334
100000.2552
75794.98129
75809.60206
75829.73688
75855.44487
75890.2669
75937.62999
75998.3773
76071.15877
76157.98878
76262.01959
76385.03146
76532.35681
76706.58112
76914.67791
77161.26085
77454.72041
77802.60257
78215.22798
78703.38479
79279.84314
79958.23427
80752.98909
81677.89246
82744.1343
83957.02539
85311.49611
86786.78898
88342.54514
89920.02334
91450.90145
92871.4058
94135.44584
95221.07463
96128.95474
96875.52526
97484.80516
97981.7237
98388.13754
98721.36562
98994.43307
99217.11747
99397.10152
99540.85107
99654.11643
99742.1223
99809.58309
99860.6516
99898.88061
99927.21925
99948.04996
99963.25201
99974.27851
99982.23408
99987.94531
99992.02966
99994.93568
99996.95528
99998.51026
99998.9818
100000.3067
75954.48102
75971.57017
75994.94403
76024.82996
76065.75921
76120.64878
76189.88002
76272.20542
76370.46151
76487.80008
76626.40588
76792.41377
76988.60002
77222.77567
77500.15242
77829.99715
78220.7765
78683.81183
79230.95917
79875.92162
80632.97091
81516.42726
82538.69344
83707.55833
85022.08234
86467.38034
88009.66403
89594.94671
91154.97772
92620.29861
93935.20249
95067.7922
96011.66185
96780.50305
97399.53243
97897.38364
98300.45084
98630.06935
98901.97283
99127.13698
99313.17277
99465.67181
99589.19407
99687.8302
99765.41871
99825.56013
99871.5427
99906.26896
99932.2117
99951.41207
99965.50904
99975.78888
99983.24144
99988.61488
99992.47362
99995.22884
99997.14754
99998.637
99999.04913
100000.3652
76300.44301
76320.51821
76347.59496
76382.45033
76430.69872
76493.72424
76571.88563
76664.75599
76774.88314
76906.72845
77062.35183
77248.86257
77469.32239
77732.41448
78044.04464
78414.38853
78852.88595
79371.81928
79983.97746
80703.65422
81545.13664
82521.64481
83642.7814
84911.011
86316.71309
87832.74756
89411.21562
90986.38868
92485.60972
93844.77147
95021.43766
96000.20058
96789.67833
97414.40928
97905.76837
98294.7281
98607.50842
98863.90784
99077.54539
99257.14913
99408.16621
99534.20439
99638.06317
99722.31633
99789.53551
99842.29605
99883.08168
99914.18131
99937.61145
99955.08097
99967.99117
99977.46055
99984.3618
99989.36183
99992.96918
99995.55554
99997.36102
99998.77694
99999.125
100000.4313
76799.71012
76823.24429
76854.54905
76895.25591
76951.68662
77023.54303
77111.34995
77216.15819
77340.4992
77489.39884
77664.88518
77875.04755
78123.31563
78419.27284
78769.6111
79185.43138
79677.15305
80257.88608
80941.07197
81741.08947
82671.45811
83743.1529
84961.33916
86320.92594
87801.04985
89360.54519
90938.16451
92460.66132
93857.47767
95075.94224
96090.30093
96901.86644
97532.29173
98014.13768
98382.30682
98668.13944
98896.42292
99084.7347
99244.2908
99381.5287
99499.82554
99600.96228
99686.15065
99756.60747
99813.77019
99859.28995
99894.91765
99922.37617
99943.25516
99958.94822
99970.62781
99979.24865
99985.56744
99990.16965
99993.50704
99995.91082
99997.59346
99998.92916
99999.20911
100000.5052
77436.01138
77463.55877
77499.76207
77547.62355
77613.40032
77695.83178
77795.4083
77913.20532
78052.6243
78219.97857
78417.19523
78653.40495
78932.52212
79265.05417
79658.5147
80124.82036
80675.21339
81323.34705
82082.9157
82967.77986
83989.76008
85156.16034
86465.63522
87902.94278
89433.71741
91002.52384
92537.94645
93965.39122
95223.12563
96274.48372
97111.6025
97750.9482
98224.29968
98569.26833
98821.94167
99012.48233
99163.379
99289.59887
99399.86133
99498.38525
99586.63187
99664.73993
99732.51676
99789.98605
99837.58637
99876.14918
99906.76893
99930.65531
99949.006
99962.92122
99973.35762
99981.11352
99986.83346
99991.02327
99994.07852
99996.29002
99997.84269
99999.09278
99999.30133
100000.5873
78185.46751
78217.69901
78259.62228
78315.69639
78390.62451
78483.10162
78595.34902
78729.02349
78886.57974
79075.77305
79298.54609
79565.02291
79879.58134
80253.54192
80695.20613
81217.20905
81831.54304
82552.22641
83392.81892
84365.8951
85480.27026
86737.61792
88127.51946
89622.04275
91172.27491
92710.61594
94161.0073
95454.54211
96543.94784
97410.91407
98064.57259
98533.72653
98857.02715
99074.3995
99221.2322
99325.41865
99406.63576
99477.08944
99543.05217
99606.67268
99667.68439
99724.77821
99776.53898
99821.95589
99860.5993
99892.58299
99918.42099
99938.86398
99954.75471
99966.92443
99976.12956
99983.02153
99988.13836
99991.90945
99994.6759
99996.68891
99998.1067
99999.26696
99999.4015
100000.6778
79038.93124
79076.62313
79125.20095
79190.72611
79278.08492
79384.20888
79510.52473
79661.66691
79839.31739
80052.52351
80303.20827
80602.55898
80955.54478
81374.35024
81868.2042
82450.46923
83133.75095
83931.98368
84857.74949
85921.02242
87125.73872
88465.49939
89918.18849
91441.57975
92973.32284
94438.31414
95762.82345
96890.10663
97790.89918
98465.24816
98936.77465
99243.19672
99426.91809
99527.91225
99579.49968
99606.63004
99625.94244
99646.90604
99673.49172
99705.97044
99742.54913
99780.66254
99817.84517
99852.19961
99882.54956
99908.3868
99929.71742
99946.8858
99960.41685
99970.89805
99978.90229
99984.94485
99989.46396
99992.81677
99995.29234
99997.10368
99998.38365
99999.45089
99999.50905
100000.7769
79986.78201
80030.87485
80087.57199
80164.34379
80264.63931
80384.38193
80525.76724
80695.47345
80894.6416
81133.8909
81415.10367
81750.67383
82146.31558
82615.04197
83166.91327
83815.67421
84573.98261
85454.85407
86468.73436
87621.38547
88909.66719
90316.55146
91806.26787
93322.55718
94793.32016
96142.51112
97305.72299
98243.05041
98944.30416
99425.92877
99722.60652
99877.52119
99934.16081
99930.85049
99897.96031
99857.16604
99822.0567
99799.50698
99791.38727
99796.30198
99811.13158
99832.23512
99856.25459
99880.53995
99903.2783
99923.42681
99940.55061
99954.63739
99965.92978
99974.79636
99981.64331
99986.86101
99990.79523
99993.73554
99995.9219
99997.53093
99998.67187
99999.64368
99999.62305
100000.8848
81008.31732
81060.18966
81126.41461
81214.43856
81327.42097
81463.38788
81622.96564
81814.84162
82039.54952
82309.5587
82626.66281
83004.38199
83449.08386
83974.34931
84590.77866
85312.06147
86150.3384
87116.84976
88218.54192
89454.94296
90813.31733
92263.81861
93756.60852
95224.11945
96590.38823
97785.57615
98760.21256
99493.43768
99992.9417
100288.3314
100421.6712
100438.5481
100381.4712
100285.9788
100179.0186
100078.9223
99996.3615
99935.82854
99897.31997
99877.98609
99873.57001
99879.51968
99891.72569
99906.90425
99922.70369
99937.62474
99950.85212
99962.06238
99971.24912
99978.58562
99984.32782
99988.75234
99992.11997
99994.65767
99996.5595
99997.96768
99998.96986
99999.84434
99999.743
100001.0018
82110.22701
82171.47046
82248.14732
82349.43037
82477.16577
82631.3225
82812.11188
83029.86396
83284.00806
83589.02863
83946.62868
84371.30339
84870.00808
85456.73607
86142.43362
86940.33746
87861.31016
88913.46371
90098.19794
91406.30448
92813.17626
94275.30219
95730.6573
97105.41738
98326.70456
99337.15397
100105.5432
100629.7964
100932.656
101053.1251
101037.2384
100930.5358
100773.1082
100597.0515
100425.7342
100274.2526
100150.5814
100057.0764
99992.09104
99951.52368
99930.15282
99922.66178
99924.31374
99931.29506
99940.8009
99950.94443
99960.58394
99969.1259
99976.34528
99982.24208
99986.93752
99990.60526
99993.42848
99995.57649
99997.20077
99998.41128
99999.27621
100000.052
99999.86993
100001.1281
83295.94388
83368.66544
83457.6611
83576.73841
83722.66656
83897.16005
84100.96118
84347.10198
84633.44426
84976.52768
85378.10073
85853.59409
86410.56367
87063.22742
87822.45268
88700.1179
89704.32719
90838.04785
92094.79568
93454.50985
94879.68727
96314.35591
97688.45051
98928.33537
99970.80469
100775.2449
101329.4504
101647.9168
101764.7618
101724.7075
101574.9266
101359.1373
101114.1298
100868.28
100641.4415
100445.6951
100286.5828
100164.5777
100076.6111
100017.5148
99981.25659
99961.8832
99954.13774
99953.76648
99957.58554
99963.38057
99969.73095
99975.80961
99981.20035
99985.74998
99989.45945
99992.40962
99994.71316
99996.48659
99997.84204
99998.85942
99999.58962
100000.2659
100000.0066
100001.2639
84567.29919
84654.25814
84757.33647
84895.3847
85060.01984
85257.36795
85486.34084
85763.72764
86085.75146
86470.95397
86921.22222
87452.73858
88073.39465
88796.96636
89633.2415
90591.29866
91674.68703
92879.28643
94188.92869
95571.64551
96977.66543
98341.77249
99591.57247
100660.1952
101499.1319
102086.3271
102427.1643
102549.3147
102494.4507
102309.8352
102041.6491
101730.64
101409.8624
101103.9657
100829.4934
100595.7891
100406.2399
100259.6805
100151.8238
100076.6004
100027.3016
99997.44829
99981.3554
99974.40594
99973.10062
99974.94957
99978.29467
99982.10757
99985.80535
99989.09983
99991.88491
99994.15811
99995.9682
99997.38359
99998.48018
99999.31007
99999.90887
100000.4857
100000.1565
100001.4097
85924.04635
86028.37851
86144.9821
86302.07473
86488.12511
86712.5178
86970.77807
87284.08371
87647.06333
88079.98945
88584.7219
89177.65753
89866.43354
90663.41443
91576.14906
92609.5438
93761.08768
95018.06882
96353.50091
97723.59457
99068.61514
100318.9602
101406.2035
102275.7577
102896.5789
103264.6371
103399.9772
103339.6327
103129.3761
102816.5284
102444.8326
102051.4351
101665.5476
101308.2639
100993.0999
100726.9611
100511.3502
100343.6897
100218.6559
100129.4228
100068.7211
100029.6401
100006.1449
99993.32051
99987.40658
99985.6824
99986.28826
99988.02276
99990.15796
99992.28696
99994.20857
99995.84565
99997.18924
99998.264
99999.11259
99999.76142
100000.2328
100000.7116
100000.3195
100001.5659
87381.17775
87505.62889
87637.34864
87816.63573
88025.74384
88280.97439
88572.46771
88925.66056
89333.62011
89817.96451
90380.26438
91036.47692
91793.42081
92661.16604
93644.00028
94741.43207
95943.45588
97227.4582
98555.20369
99872.59203
101113.943
102211.1166
103105.4132
103758.1069
104156.0165
104310.8349
104253.6265
104027.1568
103678.4912
103253.2482
102791.8729
102327.6707
101886.1242
101485.0446
101135.2354
100841.4595
100603.5864
100417.829
100277.9864
100176.6007
100105.9406
100058.744
100028.6921
100010.627
100000.5739
99995.61915
99993.73262
99993.56442
99994.2607
99995.31027
99996.42766
99997.46892
99998.37307
99999.12503
99999.73702
100000.2119
100000.5605
100000.9434
100000.4917
100001.7324
88947.87264
89096.31533
89247.69879
89454.29962
89687.71317
89975.27666
90301.71098
90696.30363
91150.51862
91686.91243
92306.61677
93024.50323
93846.05014
94778.11749
95820.54292
96965.94348
98195.28089
99475.26546
100757.3473
101980.4341
103078.2311
103989.8377
104670.4683
105098.5414
105277.1659
105230.4464
104996.7853
104621.6048
104151.1891
103628.3383
103089.7947
102565.0528
102076.1123
101637.824
101258.5957
100941.3244
100684.4725
100483.2213
100330.6297
100218.7143
100139.3655
100085.037
100049.1815
100026.4452
100012.6775
100004.805
100000.6534
99998.74594
99998.11943
99998.17128
99998.54135
99999.02602
99999.51741
99999.96451
100000.3516
100000.6599
100000.8907
100001.1807
100000.6728
100001.9085
90624.44774
90800.63138
90971.88864
91206.03531
91465.0033
91786.19025
92148.86987
92585.83326
93086.95755
93675.26526
94351.43404
95128.46376
96009.69363
96997.46919
98085.55062
99258.07701
100486.0668
101726.1973
102922.3937
104011.3677
104931.8044
105634.6009
106090.9308
106295.5537
106265.023
106032.2578
105639.7369
105133.1749
104556.6886
103949.661
103345.05
102768.7392
102239.5614
101769.7387
101365.5838
101028.3784
100755.3763
100540.8807
100377.3275
100256.2978
100169.3737
100108.781
100067.7911
100040.8929
100023.7935
100013.2872
100007.079
100003.5832
100001.7422
100000.8733
100000.5502
100000.516
100000.6207
100000.7807
100000.9547
100001.1043
100001.2227
100001.4235
100000.8637
100002.0935
92397.01074
92602.61512
92793.57967
93058.4267
93344.54826
93700.41117
94100.69534
94581.39468
95130.91685
95771.7511
96503.81134
97336.94737
98270.99416
99302.18342
100416.7051
101589.4604
102782.0552
103943.5207
105014.4858
105934.6949
106652.4906
107133.1947
107363.8775
107353.3539
107128.2416
106726.9283
106193.3611
105571.8919
104903.6563
104224.4007
103563.4299
102943.31
102380.0459
101883.5514
101458.3178
101104.2323
100817.5122
100591.7131
100418.7476
100289.8361
100196.3117
100130.2195
100084.6881
100054.0828
100033.9959
100021.1134
100013.0386
100008.0935
100005.1385
100003.4209
100002.4558
100001.9388
100001.682
100001.5723
100001.545
100001.5438
100001.5556
100001.6719
100001.0606
100002.2871
94267.40183
94497.69761
94702.04277
94998.15336
95315.75624
95710.38086
96152.26703
96679.90565
97280.42911
97974.19733
98759.6766
99642.193
100616.7533
101672.4317
102787.2821
103927.4751
105047.177
106091.3888
107002.152
107726.8148
108226.3826
108481.1959
108492.5426
108280.2465
107877.6717
107325.8902
106668.4133
105947.1909
105199.9971
104458.9803
103750.0466
103092.7791
102500.6881
101981.674
101538.6498
101170.2993
100871.9503
100636.5217
100455.4856
100319.7655
100220.4942
100149.5755
100100.028
100066.1212
100043.3558
100028.3296
100018.5614
100012.2945
100008.3185
100005.8193
100004.2604
100003.2948
100002.7007
100002.3381
100002.1212
100001.9772
100001.889
100001.9248
100001.2538
100002.491
96219.14062
96483.72641
96715.29235
97044.72382
97396.69533
97832.84586
98318.48773
98892.9348
99542.57859
100284.1487
101113.9389
102031.8509
103027.1774
104081.4262
105164.8053
106236.2916
107245.5828
108137.7744
108860.6248
109372.2849
109647.5574
109680.7308
109484.6881
109087.0844
108525.1532
107840.5366
107075.0478
106267.6768
105452.7606
104659.046
103909.3557
103220.6288
102604.1928
102066.1976
101608.1891
101227.812
100919.6284
100676.0139
100488.0698
100346.4755
100242.2043
100167.0518
100113.9536
100077.1066
100051.9399
100034.9801
100023.6759
100016.2038
100011.2927
100008.0743
100005.9667
100004.5849
100003.6765
100003.0775
100002.6822
100002.4037
100002.2223
100002.1793
100001.4362
100002.7072
98296.1834
98598.51459
98857.01016
99219.87881
99604.70035
100079.7166
100605.9342
101221.3405
101912.0687
102690.2338
103549.0893
104482.4216
105473.2372
106495.6275
107513.0848
108479.8516
109344.7304
110056.883
110573.0294
110863.6688
110916.9002
110738.8174
110350.9623
109785.9448
109082.6005
108281.6743
107422.5393
106541.0179
105668.1291
104829.5
104045.2043
103329.8591
102692.8897
102138.9262
101668.3286
101277.8411
100961.365
100710.8104
100516.9664
100370.312
100261.6954
100182.8311
100126.5945
100087.1295
100059.8099
100041.1062
100028.4092
100019.8388
100014.0713
100010.1917
100007.5775
100005.8101
100004.6094
100003.7897
100003.2271
100002.8223
100002.5546
100002.4311
100001.6201
100002.9346
100493.6565
100835.853
101121.4726
101516.0789
101930.283
102438.7072
102999.7289
103647.877
104368.6759
105168.8582
106037.8209
106962.8113
107920.5599
108878.7314
109796.1639
110625.4914
111318.2272
111830.7781
112130.6489
112200.6852
112040.6378
111665.7931
111103.5702
110389.1824
109561.4284
108659.234
107719.1802
106773.9472
105851.4687
104974.5691
104160.8981
103423.0453
102768.7812
102201.4142
101720.2721
101321.3159
100997.8736
100741.4553
100542.5862
100391.5817
100279.1934
100197.0775
100138.0681
100096.2723
100067.023
100046.7467
100032.7867
100023.2157
100016.6646
100012.1775
100009.0961
100006.9718
100005.4996
100004.4743
100003.755
100003.2323
100002.8849
100002.678
100001.8167
100003.1687
102799.2909
103178.4835
103486.1397
103911.2468
104353.1716
104889.8554
105478.8123
106149.7673
106887.1408
107691.7017
108548.5832
109438.6761
110333.2094
111195.2255
111981.5931
112646.5689
113147.3843
113449.6616
113532.0905
113388.699
113028.6543
112473.8327
111755.1717
110908.724
109972.1659
108982.1042
107972.2456
106972.2954
106007.3894
105097.8686
104259.2606
103502.3884
102833.5819
102254.9964
101765.0576
101359.0411
101029.7751
100768.424
100565.2901
100410.5557
100294.8994
100209.938
100148.4804
100104.6101
100073.6315
100051.9372
100036.8325
100026.3501
100019.0824
100014.0374
100010.5256
100008.0712
100006.3474
100005.1308
100004.2652
100003.6332
100003.212
100002.919
100002.0261
100003.4065
105206.0181
105618.0595
105944.596
106394.1328
106858.5575
107415.3507
108021.8651
108702.0819
109438.9988
110227.0698
111047.0884
111874.3426
112676.0019
113412.8149
114042.4967
114523.6917
114821.3371
114910.96
114781.699
114436.927
113892.872
113175.7094
112318.0627
111355.6045
110324.2467
109258.079
108188.0243
107141.0581
106139.8214
105202.4745
104342.6941
103569.7646
102888.7577
102300.8185
101803.5794
101391.7131
101057.6091
100792.1321
100585.395
100427.4731
100308.9915
100221.5436
100157.9262
100112.2108
100079.683
100056.7106
100040.5686
100029.2567
100021.3338
100015.7771
100011.869
100009.11
100007.1532
100005.7589
100004.757
100004.0242
100003.5347
100003.1535
100002.2506
100003.6455
107695.7993
108136.0278
108477.9723
108944.5317
109423.9687
109990.7809
110602.3726
111275.8398
111992.6914
112741.2773
113498.5621
114235.6198
114917.5032
115505.1232
115959.4865
116245.5359
116336.7778
116218.2659
115888.1412
115357.0588
114646.1525
113784.057
112803.7656
111739.8013
110625.9965
109493.9268
108371.9213
107284.5025
106252.1122
105291.0057
104413.2471
103626.7775
102935.5658
102339.8667
101836.6109
101419.9367
101081.8465
100812.9435
100603.18
100442.5456
100321.6284
100232.0117
100166.4913
100119.1358
100085.2209
100061.0972
100044.0158
100031.9491
100023.4279
100017.402
100013.1296
100010.0896
100007.9175
100006.3586
100005.23
100004.405
100003.8513
100003.3815
100002.4899
100003.8833
110253.7932
110714.7412
111067.2983
111542.9898
112027.4928
112590.9067
113191.9507
113839.9458
114515.0241
115200.2349
115869.7157
116492.0225
117032.0858
117453.1078
117721.1272
117808.3364
117696.7119
117379.7507
116862.85
116161.984
115301.4052
114310.8403
113222.7797
112070.1701
110884.6743
109695.4795
108528.5602
107406.2652
106347.111
105365.6928
104472.6678
103674.8002
102975.0867
102372.9923
101864.8223
101444.2382
101102.8989
100831.1779
100618.8912
100455.9605
100332.9513
100241.4473
100174.2525
100125.4408
100090.2849
100065.1247
100047.1931
100034.4402
100025.3728
100018.9174
100014.3103
100011.0116
100008.6408
100006.9295
100005.6837
100004.775
100004.1605
100003.603
100002.7441
100004.1177
112859.1242
113330.2627
113687.1316
114162.4834
114640.6511
115184.8379
115757.3911
116360.0102
116971.653
117571.0986
118130.8637
118618.6991
119001.1712
119245.3566
119323.2861
119214.5158
118908.727
118406.4333
117718.5552
116864.7054
115870.8844
114766.9658
113584.4127
112354.4125
111106.5125
109867.7038
108661.8607
107509.4239
106427.2304
105428.4286
104522.4447
103715.0066
103008.2483
102400.9296
101888.7944
101465.0761
101121.126
100847.1159
100632.7454
100467.884
100343.0856
100249.9441
100181.2791
100131.1761
100094.9111
100068.8186
100050.1181
100036.7419
100027.1766
100020.3282
100015.4141
100011.8777
100009.3239
100007.4717
100006.1178
100005.1337
100004.4604
100003.8188
100003.0127
100004.3455
115494.5505
115961.7899
116309.9028
116767.2652
117225.9585
117735.5601
118262.2809
118800.9472
119329.8474
119824.6936
120257.6739
120597.3193
120813.1918
120877.1957
120767.6018
120470.8327
119983.1476
119310.5935
118468.0827
117477.5377
116365.7259
115162.0657
113896.724
112599.109
111296.7914
110014.788
108775.1231
107596.5712
106494.5078
105480.8176
104563.8454
103748.4013
103035.849
102424.3137
101909.0321
101482.8505
101136.8437
100861.0048
100644.9349
100478.4637
100352.1438
100257.5865
100187.6335
100136.3874
100099.1325
100072.2022
100052.8072
100038.8655
100028.8466
100021.6392
100016.444
100012.6893
100009.9672
100007.9852
100006.5323
100005.4805
100004.7495
100004.0299
100003.2953
100004.5617
118113.8335
118561.3522
118893.3184
119322.112
119748.1554
120208.8075
120674.1115
121132.7355
121563.0388
121938.9933
122233.6519
122417.582
122464.1819
122350.5281
122060.8351
121587.539
120932.2485
120105.1923
119124.0298
118012.0123
116796.0185
115504.6675
114166.7363
112809.9339
111460.0357
110140.3106
108871.1655
107669.9253
106550.6916
105524.2422
104597.9673
103775.8585
103058.587
102443.7027
101925.9812
101497.9161
101150.3328
100873.0656
100655.6317
100487.8326
100360.2272
100264.451
100193.3728
100141.1167
100102.9795
100075.2974
100055.2757
100040.8215
100030.3902
100022.8552
100017.4029
100013.4483
100010.5717
100008.4702
100006.9272
100005.8147
100005.0263
100004.238
100003.5898
100004.761
120674.6978
121095.3635
121404.9739
121794.0911
122175.9026
122574.6398
122965.0534
123330.7146
123650.77
123898.6579
124049.1713
124075.7118
123955.839
123671.6656
123212.7218
122576.4729
121768.7218
120802.7509
119698.0212
118478.4319
117170.5707
115802.0963
114400.4154
112991.6736
111600.0475
110247.2752
108952.3562
107731.3553
106597.2615
105559.8791
104625.7498
103798.1315
103077.0674
102459.5833
101940.0323
101510.5858
101161.8423
100883.4949
100664.99
100496.1099
100367.4275
100270.6072
100198.5491
100145.4026
100106.4804
100078.1246
100057.5382
100042.6201
100031.8141
100023.9808
100018.2937
100014.1563
100011.1381
100008.927
100007.3025
100006.1354
100005.2897
100004.4447
100003.891
100004.9419
123161.9705
123540.6302
123817.2912
124154.5577
124480.6077
124806.5158
125111.727
125375.66
125578.6964
125694.6811
125700.6551
125573.2229
125294.033
124849.799
124234.599
123449.971
122504.9235
121414.913
120200.525
118885.8664
117497.0163
116060.6355
114602.8486
113148.3997
111720.0628
110338.2449
109020.7253
107782.4723
106635.5012
105588.7553
104648.0185
103815.8856
103091.8277
102472.3897
101951.5354
101521.1404
101171.5963
100892.4704
100673.1493
100503.4046
100373.8284
100276.1188
100203.2104
100149.2809
100109.6614
100080.7029
100059.6084
100044.271
100033.1251
100025.0204
100019.1193
100014.8151
100011.6674
100009.3561
100007.6583
100006.4418
100005.5392
100004.6515
100004.1912
100005.1112
125525.055
125855.4159
126095.1239
126374.207
126637.5034
126883.8482
127097.7964
127255.85
127339.9563
127325.0594
127190.6346
126916.5329
126488.181
125896.327
125138.8321
124220.4691
123152.6626
121952.3939
120640.9153
119242.279
117781.9654
116285.6759
114778.3761
113283.5778
111822.8361
110415.4068
109078.0118
107824.6643
106666.5232
105611.767
104665.4983
103829.7091
103103.346
102482.5098
101960.8047
101529.8331
101179.7978
100900.1534
100680.2368
100509.8157
100379.5066
100281.0444
100207.4012
100152.7847
100112.5471
100083.0502
100061.4991
100045.7833
100034.3296
100025.9784
100019.8828
100015.4265
100012.1606
100009.758
100007.9949
100006.7329
100005.7749
100004.8588
100004.4852
100005.274
127752.0269
128023.9099
128219.2597
128433.5261
128628.7758
128792.1809
128912.9292
128965.4815
128933.2383
128792.6101
128525.4666
128114.7616
127549.2879
126823.2458
125937.5953
124899.6585
123722.6781
122424.7057
121027.3699
119554.5344
118031.073
116481.8109
114930.6933
113400.1633
111910.7257
110480.6436
109125.7231
107859.143
106691.3066
105629.7091
104678.8369
103840.1309
103112.0542
102490.2959
101968.1266
101536.8956
101186.6328
100906.6922
100686.3698
100515.4352
100384.5334
100285.4389
100211.1631
100155.9455
100115.1609
100085.1837
100063.223
100047.1661
100035.4339
100026.8593
100020.587
100015.9924
100012.6187
100010.1334
100008.3125
100007.0081
100005.9972
100005.0667
100004.7682
100005.4287
129800.6848
130012.7954
130164.0934
130313.5047
130440.9834
130523.2763
130553.4302
130504.8912
130362.4384
130104.2312
129714.415
129178.8132
128489.1514
127642.5419
126642.4694
125498.2704
124224.5716
122840.1905
121366.9641
119828.5178
118249.162
116652.9508
115062.9485
113500.6828
111985.7584
110535.5848
109165.1742
107886.9751
106710.7209
105643.2934
104688.6187
103847.6316
103118.3474
102496.0721
101973.7654
101542.5424
101192.2743
100912.2253
100691.6581
100520.3496
100388.9763
100289.3542
100214.5358
100158.7932
100117.5253
100087.1201
100064.7922
100048.4282
100036.4445
100027.6676
100021.235
100016.5148
100013.0431
100010.4832
100008.6112
100007.2669
100006.2071
100005.2736
100005.0343
100005.5781
131657.1166
131809.8391
131920.2996
132008.3162
132071.0279
132076.9354
132021.9277
131879.3358
131635.1647
131269.4368
130768.3603
130120.3312
129319.5887
128365.685
127264.1676
126025.9852
124666.8454
123206.1395
121665.8284
120069.3044
118440.3853
116802.467
115177.8668
113587.3356
112049.7116
110581.6713
109197.5386
107909.1209
106725.5557
105653.1713
104695.3824
103852.6567
103122.5931
102500.1406
101977.9688
101546.9751
101196.8853
100916.8835
100696.2058
100524.6408
100392.8993
100292.8402
100217.5574
100161.3569
100119.6622
100088.8757
100066.2187
100049.5784
100037.3677
100028.4078
100021.83
100016.9959
100013.4352
100010.8084
100008.8913
100007.5091
100006.4049
100005.4768
100005.2827
100005.7296
133317.7566
133416.1482
133488.9252
133520.5513
133522.734
133458.4721
133325.4442
133097.453
132761.4443
132299.2579
131698.8943
130950.9989
130051.9441
129003.3244
127812.3892
126491.4044
125056.953
123528.887
121929.2617
120281.2733
118608.3308
116933.2835
115277.8256
113662.0557
112104.1624
110620.1944
109223.8786
107926.4582
106736.5391
105659.9484
104699.632
103855.6252
103125.1388
102502.7881
101980.972
101550.3854
101200.6208
100920.7912
100700.1121
100528.3874
100396.3639
100295.9445
100220.2648
100163.6646
100121.5926
100090.4664
100067.5146
100050.6254
100038.2098
100029.0844
100022.3752
100017.4378
100013.7965
100011.1101
100009.1531
100007.7345
100006.5909
100005.6743
100005.5215
100005.8849
134793.3808
134840.8278
134876.5129
134857.0883
134804.0564
134676.9557
134474.1625