/*--------------------------------*- C++ -*----------------------------------*\
  =========                 |
  \\      /  F ield         | OpenFOAM: The Open Source CFD Toolbox
   \\    /   O peration     | Website:  https://openfoam.org
    \\  /    A nd           | Version:  12
     \\/     M anipulation  |
\*---------------------------------------------------------------------------*/
FoamFile
{
    format      ascii;
    class       volScalarField;
    location    "1575";
    object      T;
}
// * * * * * * * * * * * * * * * * * * * * * * * * * * * * * * * * * * * * * //

dimensions      [0 0 0 1 0 0 0];

internalField   nonuniform List<scalar> 
16200
(
294.3867979
294.4105916
294.2797147
293.9317955
293.2058825
291.6920019
288.4715608
282.6041945
279.2417116
278.9760994
279.0784353
279.1712615
279.2866106
279.4138067
279.5631398
279.7340722
279.9330904
280.1636826
280.4318646
280.7434037
281.1051965
281.5246227
282.0096772
282.5686509
283.2097124
283.9401875
284.7654174
285.6871337
286.7013172
287.7957668
288.9481144
290.1257215
291.2888143
292.3966297
293.4143111
294.3177704
295.09517
295.745564
296.2761339
296.6992244
297.029789
297.2834192
297.4749621
297.6176745
297.7228158
297.7995708
297.8552005
297.8952971
297.9240803
297.9446832
297.9594036
297.9699138
297.9774234
297.9828147
297.9867195
297.9896222
297.9917849
297.9934867
297.9949417
297.9970632
293.4993702
293.481678
293.2875049
292.8385892
291.9252427
290.0001241
285.9532094
280.0444818
277.9513882
277.876304
277.9819539
278.0844424
278.2093099
278.3477864
278.5107869
278.6982248
278.9170541
279.1714866
279.4681936
279.8138273
280.2161654
280.6835913
281.2250895
281.8498849
282.5668356
283.3834489
284.3043271
285.329008
286.4492346
287.646215
288.8892846
290.1378568
291.3473075
292.4768792
293.496214
294.388173
295.1479467
295.7800665
296.2950425
296.7065956
297.0296862
297.2791831
297.4689788
297.6114442
297.7171533
297.7948254
297.8514397
297.8924403
297.9219848
297.9431937
297.9583771
297.9692291
297.9769839
297.9825432
297.9865631
297.9895356
297.9917568
297.9934864
297.9949511
297.9972073
292.7183532
292.6426821
292.3671033
291.7967146
290.6630264
288.2537517
283.1952919
278.0697635
276.894139
276.9422487
277.055712
277.1674975
277.3045187
277.4574481
277.6375922
277.8454975
278.0885583
278.3718078
278.7026228
279.0886244
279.5385601
280.0618999
280.6686706
281.3689829
282.1721388
283.0852386
284.1110558
285.245198
286.4728352
287.7662044
289.0850194
290.3814428
291.6086544
292.7293849
293.7207826
294.5745093
295.2935207
295.8878468
296.3710308
296.7577953
297.0627431
297.2996717
297.4811798
297.6184241
297.7209837
297.7968371
297.8524483
297.8929239
297.9222109
297.9433044
297.9584432
297.9692819
297.977035
297.9825933
297.9866108
297.9895753
297.9917953
297.9935166
297.9949454
297.997187
292.096444
291.954656
291.5841977
290.8625574
289.4459175
286.4656981
280.5065704
276.6742373
276.1442738
276.2293936
276.3493265
276.4723239
276.6227602
276.7918279
276.991117
277.2219808
277.4922668
277.8079282
278.1771095
278.6084641
279.1117525
279.6975131
280.3766873
281.1599312
282.0563219
283.0714148
284.2044327
285.4447722
286.7686517
288.1379268
289.5034302
290.8132037
292.0226009
293.1017181
294.0374696
294.8308759
295.4920951
296.0356498
296.4771296
296.8314851
297.1124158
297.33227
297.5020753
297.6315522
297.7290988
297.8017944
297.8554566
297.8947491
297.9233269
297.9439986
297.9588869
297.9695759
297.9772376
297.9827369
297.9867147
297.9896489
297.9918531
297.9935612
297.9949589
297.9972151
291.6440462
291.4333061
290.9613393
290.0661103
288.285991
284.5338028
278.2523912
275.8415827
275.6610484
275.7597347
275.885558
276.0216046
276.1875268
276.3752095
276.5963856
276.8533654
277.1544614
277.5066355
277.9188723
278.4009094
278.963521
279.6181869
280.3764403
281.24885
282.2432087
283.3619278
284.598526
285.9337931
287.3332511
288.7485376
290.1243305
291.4090661
292.5647856
293.5719304
294.4281712
295.1433644
295.7336263
296.2166509
296.6090097
296.9251573
297.1774493
297.3765281
297.5316898
297.6510989
297.7418677
297.8100779
297.860811
297.8982087
297.925568
297.945458
297.9598445
297.9702102
297.9776618
297.9830224
297.9869071
297.9897765
297.9919407
297.9936228
297.9949794
297.9972315
291.3716579
291.0926178
290.5173711
289.4358444
287.2289309
282.4584109
276.7877354
275.3999009
275.4375495
275.5293015
275.6737375
275.8241777
276.0069974
276.2151641
276.4604719
276.7463539
277.0816432
277.4743767
277.9344003
278.4724627
279.100173
279.8295888
280.6722224
281.6375733
282.7306911
283.9488669
285.2776163
286.6871925
288.132063
289.5558458
290.9015215
292.1229712
293.1926927
294.1030593
294.8621572
295.4872496
295.9987097
296.4159302
296.7554121
297.0304683
297.251769
297.4280973
297.5669575
297.6749316
297.7578232
297.8206874
297.8678343
297.902847
297.9286292
297.9474797
297.9611821
297.971097
297.978251
297.9834138
297.9871658
297.9899449
297.9920516
297.9936989
297.9950106
297.9972584
291.2693202
290.9179066
290.2293553
288.9231842
286.1929842
280.4003491
275.8997277
275.1794336
275.4172086
275.5412656
275.6976693
275.8647966
276.0670072
276.2986781
276.5715776
276.8903318
277.2642807
277.7024865
278.2155729
278.8151196
279.5132861
280.3222071
281.252554
282.3114905
283.4995663
284.8068158
286.2087273
287.6641436
289.1179302
290.5096958
291.7859787
292.9105601
293.8686841
294.6647018
295.3157069
295.8444463
296.2737656
296.6234104
296.9089443
297.1420664
297.3315605
297.4843057
297.6060408
297.7018098
297.7761428
297.8330868
297.8761831
297.9084476
297.9323765
297.9499824
297.9628511
297.9722085
297.9789896
297.9839026
297.9874868
297.9901523
297.9921854
297.9937889
297.9950503
297.9972884
291.3357063
290.9074157
290.0907703
288.4893163
285.0335407
278.6786911
275.6704236
275.5059439
275.6399363
275.7696771
275.9419504
276.1282561
276.352505
276.610706
276.9145279
277.2698186
277.6864229
278.1743765
278.7450036
279.4105003
280.1831779
281.0745259
282.0932471
283.2425921
284.5166504
285.8961672
287.3453079
288.8121606
290.2353015
291.5555084
292.7279144
293.7292912
294.5582396
295.2298451
295.7681422
296.1992955
296.5469854
296.8302051
297.0629434
297.2549909
297.4131696
297.5424974
297.6470384
297.7303929
297.7958957
297.8466391
297.8854274
297.9147239
297.9366214
297.9528437
297.9647735
297.9734956
297.9798477
297.9844711
297.9878597
297.9903929
297.9923393
297.9938917
297.9950986
297.9973241
291.5620428
291.0604675
290.0973127
288.1292523
283.6828114
277.5584571
275.6569081
275.8794755
276.0518539
276.1976215
276.3865712
276.5937919
276.8420226
277.129094
277.4665727
277.8615483
278.3243861
278.8659962
279.4982267
280.2334909
281.0835941
282.058373
283.1631806
284.3956101
285.7413403
287.1702434
288.6350726
290.0756161
291.4289673
292.6424916
293.6838291
294.5440838
295.2343048
295.7782012
296.2044369
296.5406713
296.8100754
297.0300822
297.2127046
297.3656938
297.4939393
297.6007058
297.6885158
297.7596518
297.8163556
297.86084
297.8952225
297.9214442
297.9412105
297.9559638
297.9668855
297.9749184
297.9808008
297.985105
297.9882767
297.9906627
297.9925115
297.9940063
297.9951547
297.9973647
291.9142039
291.3334415
290.1901074
287.7825418
282.2499803
277.1533798
276.3661129
276.45854
276.6320497
276.7941724
277.0018043
277.2323066
277.5071626
277.8261346
278.2006994
278.639138
279.1522861
279.7517088
280.449446
281.2575556
282.1865101
283.2433383
284.4285318
285.7321996
287.1298482
288.579755
290.0248118
291.4006996
292.6485778
293.7270763
294.6185557
295.3280767
295.8771175
296.2954983
296.6142916
296.861042
297.0574146
297.2187633
297.354928
297.4716199
297.5719001
297.6574299
297.7293464
297.7887553
297.8369202
297.8752608
297.9052684
297.928402
297.9460042
297.9592499
297.9691267
297.9764385
297.9818253
297.9857899
297.9887296
297.9909571
297.9926999
297.9941318
297.9952182
297.9974104
292.3770964
291.7061305
290.3172091
287.2840371
280.9532452
277.0671123
277.0033895
277.1690953
277.355476
277.536463
277.764773
278.0210347
278.325334
278.679401
279.0946264
279.5803404
280.1477129
280.8086423
281.5749262
282.4575912
283.4648168
284.5994878
285.85551
287.2136413
288.6380037
290.0759832
291.4640292
292.7391185
293.8517588
294.774991
295.5062455
296.0627882
296.4738981
296.7729924
296.9916448
297.156066
297.2857588
297.3937281
297.4876048
297.5711522
297.6457554
297.7116435
297.7687329
297.8170965
297.8571372
297.8895714
297.9153289
297.9354315
297.9508881
297.9626248
297.9714459
297.9780229
297.9829004
297.9865133
297.989211
297.9912722
297.9929028
297.9942674
297.9952889
297.9974612
292.9385232
292.1669461
290.4736811
286.5525998
280.0939032
277.8114496
277.8328735
278.0023583
278.2022631
278.4043102
278.6557244
278.9405612
279.277433
279.6699584
280.1294308
280.66604
281.2911326
282.0165899
282.8534541
283.8108871
284.8935587
286.0985661
287.4113244
288.8017019
290.2224283
291.6125848
292.9071813
294.0501363
295.0053447
295.7614808
296.3297586
296.7370366
297.0176265
297.2063143
297.3336908
297.4238055
297.4936377
297.5537668
297.6096935
297.6633845
297.714726
297.7626919
297.8061403
297.8442506
297.8766783
297.9035242
297.9252219
297.9424015
297.95577
297.9660247
297.9738002
297.9796433
297.984008
297.9872641
297.9897145
297.9916044
297.9931184
297.9944123
297.9953664
297.997517
293.5871823
292.6820552
290.6093096
285.6450458
279.9280123
278.5766954
278.7649252
278.9408716
279.1576966
279.3831731
279.6600971
279.9761539
280.348506
280.7825616
281.2895642
281.8803833
282.5663349
283.3587873
284.267256
285.2978735
286.4502313
287.7137671
289.0636958
290.458453
291.8411634
293.1470115
294.315292
295.301649
296.0855294
296.6706061
297.0794464
297.345561
297.505748
297.5943775
297.6400173
297.6640739
297.6808738
297.6986337
297.7208757
297.7479522
297.7784359
297.8102173
297.8412488
297.869946
297.8953223
297.9169454
297.9348147
297.9492136
297.9605784
297.9693992
297.9761548
297.9812762
297.9851328
297.9880327
297.9902342
297.9919504
297.993345
297.9945657
297.9954502
297.9975779
294.3212191
293.2224908
290.613499
284.7255838
279.9679442
279.5457813
279.7902351
279.9737552
280.2095639
280.4602854
280.764899
281.1146966
281.5255545
282.0045103
282.5627243
283.2113855
283.9613121
284.822567
285.8020597
286.901448
288.1134849
289.4182009
290.7797034
292.1460782
293.4545432
294.6419097
295.6570542
296.4704253
297.0771825
297.493933
297.751605
297.8875337
297.9388984
297.9383599
297.9118249
297.8778519
297.8481528
297.8287336
297.8213291
297.8248715
297.8367993
297.8540807
297.8739011
297.8940296
297.9129328
297.9297208
297.9440158
297.955797
297.9652603
297.9727098
297.9784822
297.9829028
297.9862622
297.9888108
297.9907651
297.9923073
297.9935814
297.9947268
297.9955395
297.9976439
295.1287916
293.7701769
290.4266415
284.0734814
280.8130807
280.6144665
280.8883893
281.0865864
281.3443304
281.6234413
281.9593983
282.3468826
282.8005813
283.3288106
283.9424329
284.6524277
285.4684921
286.3984533
287.4453581
288.6047738
289.8608874
291.1831781
292.5251447
293.8274813
295.026591
296.0664452
296.9093702
297.5416516
297.9726379
298.2289767
298.3469208
298.3652076
298.3198195
298.2408758
298.151312
298.0668363
297.9966936
297.9448814
297.9115537
297.8944127
297.8899309
297.894299
297.9040593
297.9164377
297.9294391
297.941783
297.9527667
297.9621038
297.9697783
297.9759277
297.9807616
297.9845081
297.9873859
297.9895918
297.9913028
297.9926725
297.993826
297.9948948
297.9956338
297.997715
295.9987646
294.2684875
290.0789121
283.9929828
281.7602998
281.7803745
282.0622572
282.2795955
282.5625206
282.8734893
283.2445519
283.6734914
284.1738344
284.7547959
285.4266995
286.1997499
287.081766
288.0771652
289.1835783
290.3887659
291.6670595
292.97745
294.265095
295.4678052
296.5266601
297.3972475
298.0572424
298.5079258
298.7702052
298.8776297
298.8690691
298.7827834
298.6524972
298.5053403
298.3612123
298.2331035
298.1280027
298.0481214
297.9922381
297.9570033
297.9380746
297.9309939
297.9317684
297.9371711
297.9448191
297.9531009
297.9610348
297.9681044
297.974107
297.9790331
297.9829774
297.9860808
297.9884957
297.9903699
297.9918438
297.9930438
297.9940777
297.9950689
297.9957327
297.9977911
296.9194903
294.7054301
289.6980724
284.0819446
282.8934792
283.0270017
283.3164256
283.5577192
283.8681439
284.2134225
284.6222876
285.0953457
285.6450085
286.2809774
287.0126529
287.8486212
288.7936625
289.847256
290.9999698
292.2304705
293.5030381
294.7678622
295.9656075
297.0364066
297.9308146
298.6187131
299.0930525
299.3679049
299.4726282
299.4447421
299.3235551
299.1455327
298.9415234
298.7355139
298.5444693
298.378875
298.2437022
298.1396001
298.0641646
298.0131558
297.9815505
297.9643528
297.9571281
297.9562746
297.9590853
297.9636694
297.9688071
297.9737828
297.9782313
297.9820124
297.9851187
297.9876122
297.9895853
297.9911405
297.9923849
297.9934191
297.9943353
297.9952483
297.9958344
297.9978724
297.8320961
295.0683495
289.4523724
284.5813338
284.1444851
284.349415
284.6503958
284.9189734
285.2592931
285.6414999
286.091075
286.6110901
287.2127075
287.9054342
288.696989
289.5931599
290.5943069
291.6935326
292.8731972
294.102563
295.3370575
296.521227
297.5959703
298.5086306
299.2225417
299.7225954
300.0153756
300.1248133
300.0856534
299.9369361
299.7168199
299.4591576
299.1916507
298.9351933
298.7040197
298.5063613
298.3454151
298.2204795
298.1281432
298.0634181
298.0207163
297.9945998
297.9802717
297.9738216
297.9722736
297.9735019
297.9760845
297.9791341
297.9821434
297.9848576
297.9871782
297.9890962
297.9906497
297.9919001
297.9929235
297.9937966
297.9945978
297.9954321
297.9959473
297.9979589
298.6394691
295.3765554
289.4520234
285.820124
285.5040431
285.7471436
286.0642555
286.3639547
286.7372866
287.1596553
287.6531192
288.222635
288.8777407
289.6268274
290.4750164
291.4241422
292.4689975
293.5953365
294.7769032
295.9743098
297.1365949
298.2067909
299.1307887
299.8668839
300.3926508
300.7070052
300.8275531
300.7850015
300.6168119
300.3616866
300.0555928
299.729354
299.4075015
299.1080166
298.8426587
298.6176663
298.4346941
298.2918828
298.1849688
298.1083395
298.0559414
298.0219755
298.0013502
297.9899027
297.9844348
297.9826246
297.982878
297.9841606
297.9858415
297.9875648
297.9891513
297.9905285
297.9916852
297.9926456
297.9934572
297.9941749
297.9948642
297.9956201
297.9960703
297.9980507
299.3162024
295.6658133
289.8649506
286.9459736
286.9673156
287.230519
287.5665578
287.900447
288.3091468
288.7736529
289.3123487
289.9313465
290.6381585
291.4391706
292.3360985
293.3258603
294.3967911
295.5267444
296.6811747
297.8138723
298.8709907
299.798527
300.5513557
301.1008326
301.4384798
301.5750693
301.5362509
301.3566922
301.0744653
300.7266571
300.3464566
299.961536
299.5933946
299.2573514
298.9629651
298.7147332
298.5129808
298.3548618
298.235395
298.1484488
298.0875886
298.0467227
298.0205213
298.0046168
297.9956286
297.9910711
297.9892053
297.9888701
297.9893275
297.9901331
297.9910357
297.9919062
297.9926892
297.9933747
297.9939842
297.9945524
297.9951336
297.9958125
297.9962014
297.9981476
299.9256183
295.9532282
290.5052516
288.3388651
288.526931
288.8038255
289.1626447
289.5318099
289.9761351
290.4822678
291.0647951
291.7302103
292.483648
293.3286433
294.2626841
295.2768255
296.3522149
297.4588031
298.5550746
299.5909496
300.5138227
301.276727
301.8461334
302.2068368
302.362669
302.3335055
302.1501721
301.8489855
301.4671169
301.0392607
300.595583
300.1606821
299.7532563
299.3862426
299.0672676
298.7993206
298.5815862
298.4103803
298.2801194
298.1842423
298.1160038
298.0690772
298.0379419
298.0180654
298.0059185
297.9988798
297.995088
297.9932738
297.9926064
297.9925636
297.9928307
297.9932279
297.9936598
297.9940856
297.9945029
297.994928
297.995405
297.9960088
297.996339
297.9982491
300.5594456
296.3026469
291.1939022
289.8619086
290.1689087
290.4613577
290.844084
291.2485192
291.7277663
292.2738314
292.8975606
293.6049184
294.3981761
295.2770365
296.2337695
297.2527466
298.3077336
299.3617868
300.3689336
301.2789744
302.0445456
302.6286642
303.0103684
303.1868205
303.1717378
302.9912801
302.6789943
302.2711183
301.8029447
301.3063883
300.8085871
300.3312619
299.8905862
299.4973955
299.1576359
298.8729961
298.6416851
298.4593082
298.319777
298.2161764
298.1415094
298.0892622
298.0537631
298.0303486
298.0153689
298.0060907
298.00055
297.9973852
297.9956851
297.9948591
297.9945368
297.9944926
297.9945955
297.9947767
297.995012
297.9953005
297.9956777
297.9962089
297.9964833
297.9983546
301.2017761
296.7921004
292.4134686
291.4987271
291.8772651
292.1895997
292.5973124
293.0371298
293.5509547
294.1353048
294.7973112
295.5412412
296.365766
297.2656785
298.227247
299.2279633
300.2350482
301.2068365
302.0962482
302.8567549
303.4493329
303.848421
304.0451047
304.0468912
303.8747123
303.5584889
303.1325791
302.6319674
302.0895223
301.5342715
300.9904703
300.4772215
300.0084599
299.5931856
299.2358898
298.9371427
298.6943191
298.5024217
298.3549393
298.2446654
298.1644011
298.1074849
298.0681275
298.0415623
298.0240428
298.0127441
298.0056162
298.0012189
297.9985715
297.9970237
297.9961552
297.9957004
297.9954956
297.9954469
297.9955101
297.9956687
297.9959508
297.9964124
297.996632
297.9984641
301.9110998
297.4386447
293.8074288
293.223311
293.6441346
293.9815133
294.4155019
294.891
295.4390731
296.0592655
296.7549037
297.5273442
298.3708942
299.2747938
300.2191886
301.1754449
302.1060859
302.9676422
303.7153833
304.3095285
304.7211506
304.9360855
304.9558839
304.7959623
304.4819578
304.0455119
303.5204373
302.9397541
302.3336813
301.7284361
301.145621
300.6020031
300.1095541
299.6756804
299.3036169
298.9929714
298.7404049
298.5404081
298.3861155
298.270082
298.1849472
298.1239356
298.0811674
298.0517967
298.0320005
298.0188793
298.0103114
298.00479
298.0012742
297.9990616
297.997688
297.9968515
297.9963595
297.9960953
297.9959963
297.9960317
297.9962239
297.9966185
297.9967791
297.9985784
302.7228912
298.5198668
295.3038383
295.0310971
295.4731887
295.8414722
296.3019216
296.811303
297.3906143
298.0407169
298.7610309
299.5491445
300.3946048
301.2810556
302.1831296
303.0675898
303.8947093
304.6222683
305.2108085
305.6292338
305.8591027
305.8965118
305.7513442
305.4445131
305.0042515
304.4624122
303.8513901
303.2018859
302.541461
301.8937084
301.2778453
300.708582
300.1961809
299.7466685
299.3621944
299.0415372
298.7807449
298.5738724
298.4137572
298.2927587
298.2033894
298.1387869
298.0930043
298.0611357
298.0392985
298.0245335
298.0146597
298.0081135
298.0038021
298.0009778
297.9991373
297.9979466
297.9971871
297.9967212
297.9964696
297.9963887
297.9964962
297.9968249
297.9969268
297.998699
303.6123338
299.6508181
296.9634557
296.9244407
297.3743804
297.7742284
298.2579319
298.7951827
299.3982779
300.0678252
300.7992668
301.5859368
302.4125692
303.2576632
304.0915215
304.8783346
305.5787709
306.1545662
306.5735407
306.8139968
306.8672652
306.7379159
306.4419234
306.0035871
305.4521162
304.8185552
304.1333921
303.4249033
302.7181218
302.0342574
301.3904163
300.7995131
300.2703271
299.8076899
299.4128121
299.0837553
298.8160389
298.6033453
298.4382627
298.3129909
298.2199437
298.1521945
298.1037485
298.0696561
298.0459896
298.0297422
298.018684
298.0112038
298.0061641
298.0027772
298.0005056
297.9989867
297.9979783
297.997324
297.9969292
297.9967388
297.9967669
297.9970295
297.9970703
297.9988257
304.602356
300.7597894
298.7576477
298.8912426
299.3422993
299.7692565
300.2707126
300.8272743
301.4438973
302.1197086
302.8460988
303.6119586
304.3975456
305.1771919
305.9185654
306.5855913
307.1417988
307.5548758
307.800869
307.867142
307.7533728
307.4705958
307.0388333
306.4840919
305.8354152
305.1224206
304.37348
303.6145046
302.8682023
302.1536605
301.4861361
300.8769832
300.3336957
299.8600687
299.456497
299.1204189
298.8468961
298.6292913
298.4599824
298.3310403
298.2348027
298.1642983
298.1135
298.0774283
298.0521223
298.0345382
298.0224062
298.014075
298.0083687
298.0044648
298.0017956
297.9999728
297.9987332
297.9979033
297.9973743
297.9970813
297.9970352
297.9972302
297.9972201
297.9989554
305.7233236
301.9694955
300.657298
300.909107
301.3596203
301.8073152
302.319975
302.8861729
303.5045375
304.1718185
304.8754832
305.6002285
306.3226604
307.0144131
307.6425111
308.172834
308.5736833
308.8197892
308.8953979
308.7958631
308.5274727
308.1058102
307.5532628
306.8963144
306.1631078
305.3815178
304.5777803
303.7755962
302.9955852
302.2549681
301.567392
300.9428577
300.387743
299.9049408
299.4941334
299.1522143
298.8738463
298.6521162
298.4792246
298.347138
298.2481379
298.1752235
298.1223489
298.084516
298.0577409
298.0389517
298.0258464
298.0167402
298.0104242
298.0060456
298.00301
298.0009062
297.9994521
297.9984588
297.9978043
297.9974157
297.9973
297.9974262
297.9973782
297.9990849
306.9488894
303.4637898
302.6348072
302.9617969
303.409042
303.8696687
304.3852281
304.9496553
305.5562091
306.1987228
306.8611218
307.5246033
308.1633425
308.7479934
309.246875
309.6295917
309.8703571
309.9511503
309.8636649
309.6097945
309.200699
308.6548775
307.9958049
307.249613
306.4431271
305.6023754
304.7515552
303.9123614
303.103568
302.3407675
301.6362107
300.9987235
300.433712
299.9432795
299.5264825
299.179735
298.8973497
298.6721743
298.4962595
298.361488
298.2601012
298.1850818
298.1303761
298.0909771
298.0628861
298.0430107
298.0290237
298.0192118
298.0123385
298.0075243
298.0041513
298.0017879
298.0001352
297.99899
297.9982185
297.9977412
297.9975604
297.9976167
297.9975446
297.9992094
308.2460563
305.1104067
304.6606899
305.0330613
305.4722929
305.9363782
306.4447763
306.9944677
307.5743083
308.1751299
308.777973
309.3615772
309.8991209
310.3619555
310.7212705
310.9515142
311.0331718
310.9549899
310.7149425
310.3199351
309.7844631
309.1286606
308.3761942
307.5523367
306.6824077
305.7906226
304.8993031
304.0283591
303.1949502
302.4132559
301.6943159
301.0459344
300.4726669
299.9759218
299.5542016
299.2034956
298.9178075
298.6897761
298.511325
298.3742706
298.2708276
298.193973
298.1376545
298.0968637
298.0675948
298.0467411
298.0319553
298.0215016
298.0141191
298.0089056
298.0052222
298.0026195
298.000783
297.999497
297.9986167
297.9980574
297.997815
297.9978012
297.997718
297.999333
309.6120295
306.8681952
306.708611
307.1026303
307.5293492
307.9858989
308.4757201
308.9968156
309.5345847
310.0772304
310.6038232
311.0918573
311.5149092
311.8464036
312.0614367
312.1397502
312.0678351
311.8403033
311.4601075
310.9377648
310.2898636
309.5372424
308.70318
307.811823
306.8869516
305.9510831
305.0248556
304.1266116
303.2721081
302.4743005
301.7431767
301.085648
300.5055214
300.0035891
299.5778601
299.2239441
298.93557
298.7051937
298.5246308
298.3856457
298.2804376
298.2019867
298.1442496
298.1022233
298.0719007
298.0501662
298.0346577
298.0236203
298.0157731
298.0101937
298.0062252
298.003402
298.001396
297.9999794
297.9989982
297.9983638
297.9980628
297.9979797
297.9978979
297.9994535
311.0391304
308.7039156
308.7542761
309.1507974
309.5583055
309.9952512
310.4541243
310.9327122
311.4138219
311.8836415
312.3202591
312.7010764
313.0012147
313.1971126
313.2682556
313.1995806
312.9829164
312.6176658
312.1105226
311.4744482
310.7271921
309.8896678
308.9844303
308.0343999
307.0618799
306.0878456
305.1314492
304.2096695
303.3370493
302.5254828
301.7840415
301.1188522
300.5330589
300.0269031
299.5979505
299.2414697
298.9509434
298.7186661
298.5363616
298.3957547
298.289038
298.2092027
298.1502203
298.1070988
298.0758345
298.0533079
298.0371457
298.0255782
298.0173071
298.0113931
298.0071629
298.0041369
298.0019746
298.0004374
297.9993629
297.9986598
297.9983025
297.9981521
297.9980836
297.9995693
312.5073584
310.583244
310.7838035
311.1522487
311.5331999
311.9391208
312.3553925
312.7790617
313.191196
313.5766685
313.9135316
314.180078
314.3537954
314.4146314
314.3464796
314.1390031
313.7885085
313.2981274
312.6772312
311.9403238
311.1056614
310.193842
309.2265361
308.2254462
307.211515
306.2043486
305.2218036
304.2796789
303.3914675
302.5681423
301.8179727
301.1463924
300.5559531
300.0464012
299.6149012
299.2564124
298.9641962
298.7304037
298.546681
298.4047232
298.2967244
298.2156927
298.1556198
298.1115289
298.0794243
298.056186
298.0394333
298.0273847
298.0187276
298.0125077
298.0080378
298.0048256
298.0025194
298.0008708
297.9997105
297.9989448
297.9985329
297.9983189
297.9982744
297.9996776
313.9725355
312.4669641
312.74009
313.0832205
313.4298091
313.7947903
314.1586073
314.5173369
314.8511846
315.1444407
315.3759421
315.5256038
315.5737416
315.5039146
315.3041119
314.9680588
314.4956559
313.8928248
313.17077
312.3448835
311.433501
310.456691
309.4351947
308.3895703
307.3395417
306.3035173
305.2982327
304.3384691
303.4368116
302.6034301
301.845888
301.1690022
300.5747921
300.0625547
299.6290891
299.269073
298.9755668
298.7405944
298.5557355
298.4126644
298.3035833
298.221522
298.1604966
298.1155495
298.082696
298.058819
298.0415336
298.0290489
298.0200406
298.0135416
298.0088523
298.0054693
298.003031
298.0012799
298.0000409
297.9992182
297.9987529
297.9984808
297.9984686
297.999775
315.4342642
314.3206119
314.6124519
314.9223302
315.2278658
315.5436111
315.8471946
316.1336949
316.3832466
316.5801981
316.7047582
316.7388856
316.6658509
316.472633
316.1508168
315.6974764
315.1153019
314.4122406
313.6006997
312.6965143
311.7178443
310.6841365
309.6152328
308.530655
307.4490562
306.3878086
305.3626832
304.3875845
303.4743101
302.6323272
301.868574
301.1873144
300.5900857
300.0757748
299.6408453
299.2797168
298.9852667
298.7494053
298.5636562
298.4196801
298.3096927
298.2267498
298.1648952
298.1191933
298.0856736
298.0612243
298.0434588
298.0305794
298.021252
298.0144986
298.0096089
298.0060696
298.00351
298.0016648
298.0003542
297.9994793
297.9989617
297.9986388
297.9986619
297.9998596
316.8756719
316.104525
316.380041
316.651738
316.9105581
317.1707683
317.4088145
317.6188578
317.7815528
317.8817607
317.9013896
317.8245837
317.6374485
317.3300207
316.8969183
316.3378961
315.6577622
314.8659026
313.9754835
313.0025004
311.964805
310.8812109
309.7707331
308.6519788
307.5426755
306.4593059
305.416814
304.4283486
303.5050229
302.6556859
301.8867186
301.201886
300.6022856
300.0864273
299.6504655
299.2885816
298.9934861
298.7569873
298.5705616
298.4258625
298.3151237
298.2314302
298.1688564
298.1224909
298.0883795
298.0634181
298.0452206
298.0319844
298.0223674
298.0153825
298.0103101
298.006628
298.0039574
298.0020259
298.0006504
297.9997275
297.9991589
297.9987933
297.998849
297.9999347
318.2807178
317.7869924
318.0267384
318.2563506
318.4649389
318.6660562
318.8361979
318.9687559
319.0453119
319.0515171
318.9710915
318.7903115
318.4978576
318.0864005
317.5530529
316.8996804
316.1326815
315.2624553
314.3026313
313.2692019
312.1796611
311.0522262
309.9051789
308.7563354
307.6226312
306.5197904
305.4620489
304.4619034
303.5298701
302.6742507
301.9009266
301.2132095
300.6117932
300.094839
299.6582148
299.2958817
299.0003969
298.7634775
298.5765599
298.4312963
298.3199418
298.2356134
298.172418
298.1254705
298.0908346
298.0654158
298.0468301
298.0332717
298.0233924
298.0161971
298.0109582
298.0071459
298.0043738
298.0023636
298.0009294
297.9999622
297.9993442
297.9989445
297.9990267
298.0000099
319.6310664
319.3446072
319.5401559
319.7253839
319.8825814
320.0238226
320.1265698
320.1835639
320.1775136
320.0949739
319.9214426
319.6451688
319.2570951
318.7521122
318.1293572
317.392348
316.548679
315.6094675
314.5886214
313.502049
312.3668903
311.2008297
310.0215157
308.8460918
307.6908221
306.5707864
305.4996151
304.4892413
303.5496574
302.688679
301.911736
301.2217261
300.6189701
300.1013059
299.6643345
299.3018126
299.0061566
298.7690014
298.5817507
298.4360594
298.3242074
298.2393459
298.1756155
298.1281587
298.0930587
298.0672319
298.0482977
298.0344489
298.0243323
298.0169461
298.0115559
298.0076249
298.0047603
298.0026785
298.0011915
298.0001828
297.999518
297.9990923
297.9991959
298.0000759
320.9105004
320.7609205
320.911594
321.0522209
321.1593998
321.2428112
321.2813213
321.2671251
321.1841413
321.0198645
320.7614677
320.3989724
319.9252691
319.3370973
318.6352305
317.8244863
316.9133717
315.9135264
314.8390317
313.7056854
312.5303079
311.3301264
310.1222557
308.9232746
307.748883
306.6136156
305.5305852
304.5112364
303.565101
302.6995596
301.9196326
301.2278366
300.6241471
300.1061
299.6690473
299.3065556
299.0109115
298.7736765
298.5862271
298.4402252
298.327978
298.2426719
298.1784826
298.1305812
298.0950711
298.0688806
298.049634
298.0355237
298.0251925
298.0176334
298.0121057
298.0080667
298.0051178
298.0029712
298.0014367
298.000389
297.9996805
297.9992355
297.9993499
298.0001354
322.1052107
322.0256921
322.1375842
322.2360913
322.2967881
322.3265013
322.3057426
322.2263121
322.0733728
321.8353439
321.5009201
321.0616772
320.5121584
319.8506348
319.0792081
318.2037316
317.2334275
316.1803351
315.0586572
313.884088
312.673179
311.4427791
310.2095624
308.98964
307.7982415
306.6494421
305.5559125
304.5286733
303.5768494
302.7074304
301.9250629
301.2319121
300.6276315
300.109475
299.6725616
299.3102807
299.0147995
298.7776135
298.5900775
298.4438635
298.3313079
298.2456337
298.1810519
298.1327626
298.0968903
298.0703759
298.0508493
298.0365034
298.0259784
298.0182626
298.0126102
298.0084731
298.0054476
298.0032424
298.0016652
298.0005806
297.999832
297.9993722
297.9994909
298.0001932
323.2058807
323.1432114
323.2224826
323.2822693
323.3006991
323.2817524
323.2076157
323.0697521
322.8544912
322.551093
322.1495812
321.6428653
321.0268772
320.3011576
319.4688959
318.5367887
317.5146393
316.4148144
315.2516202
314.0406736
312.7983146
311.5410899
310.2853177
309.0467276
307.8401604
306.6793059
305.5764574
304.5422671
303.5854988
302.7127895
301.9284437
301.2343004
300.629713
300.1116708
299.6750749
299.3131495
299.0179516
298.7809179
298.5933861
298.447041
298.3342496
298.248272
298.1833546
298.1347269
298.0985344
298.0717312
298.0519535
298.0373955
298.0266954
298.0188378
298.0130723
298.008846
298.0057509
298.0034931
298.0018774
298.0007576
297.9999726
297.9995013
297.9996217
298.0002456
324.1742925
324.124149
324.1739291
324.1988519
324.1796715
324.1176291