/*--------------------------------*- C++ -*----------------------------------*\
  =========                 |
  \\      /  F ield         | OpenFOAM: The Open Source CFD Toolbox
   \\    /   O peration     | Website:  https://openfoam.org
    \\  /    A nd           | Version:  12
     \\/     M anipulation  |
\*---------------------------------------------------------------------------*/
FoamFile
{
    format      ascii;
    class       volScalarField;
    location    "0.144";
    object      alphat;
}
// * * * * * * * * * * * * * * * * * * * * * * * * * * * * * * * * * * * * * //

dimensions      [1 -1 -1 0 0 0 0];

internalField   nonuniform List<scalar> 
16000
(
4.9377521e-07
1.0780769e-05
2.0801279e-05
2.553081e-05
1.9748774e-05
2.7169937e-05
1.9196411e-05
2.6306518e-05
2.0538358e-05
2.8298795e-05
2.3846237e-05
2.8023933e-05
2.5575196e-05
2.62758e-05
2.5410321e-05
2.5287842e-05
2.5046152e-05
2.4997521e-05
2.5034188e-05
2.5178304e-05
2.5422344e-05
2.5765711e-05
2.6206065e-05
2.6743776e-05
2.7381575e-05
2.8126245e-05
2.8986898e-05
2.9977922e-05
3.1116826e-05
3.24225e-05
3.39157e-05
3.5623925e-05
3.7582634e-05
3.9835535e-05
4.2436432e-05
4.544958e-05
4.8951608e-05
5.3033989e-05
5.7810005e-05
6.3420119e-05
7.0029409e-05
7.7832511e-05
8.7074886e-05
9.805745e-05
0.00011113871
0.00012674894
0.0001454219
0.00016780844
0.00019470164
0.00022706883
0.00026609504
0.00031323543
0.0003702709
0.00043938626
0.00052326293
0.00062520522
0.00074929732
0.00090060848
0.001085471
0.0011804777
0.0011811731
0.001181754
0.0011822194
0.0011825316
0.0011826903
0.0011826841
0.0011825012
0.0011821322
0.0011815773
0.0011808468
0.0011799437
0.001178829
0.001177475
0.001176241
0.0011752736
0.0011744248
0.0011735101
0.0011729453
0.0011723599
0.0011722221
4.439686e-07
1.0211726e-05
2.1260856e-05
2.3206746e-05
1.7801943e-05
2.4334914e-05
1.7027952e-05
2.3025349e-05
1.8139419e-05
2.4993462e-05
2.1583706e-05
2.5259099e-05
2.3378368e-05
2.379856e-05
2.3126322e-05
2.2947344e-05
2.2748796e-05
2.2694194e-05
2.2731154e-05
2.2863717e-05
2.3089818e-05
2.3408478e-05
2.3817996e-05
2.4318795e-05
2.4913085e-05
2.5607212e-05
2.6409108e-05
2.7331755e-05
2.8391717e-05
2.9607404e-05
3.0998146e-05
3.2589093e-05
3.4413081e-05
3.6510605e-05
3.8932026e-05
4.1737789e-05
4.5000454e-05
4.8806022e-05
5.3260082e-05
5.8495661e-05
6.4671427e-05
7.1970722e-05
8.0624798e-05
9.0920643e-05
0.00010320268
0.00011788009
0.00013546216
0.0001565721
0.00018197099
0.00021258772
0.00024956066
0.00029429148
0.0003484981
0.00041429196
0.0004942667
0.00059162147
0.00071031465
0.00085525306
0.0010325472
0.0011799778
0.0011806874
0.0011812366
0.0011816795
0.0011819706
0.0011821094
0.0011820855
0.0011818889
0.0011815119
0.0011809549
0.0011802273
0.001179334
0.0011782409
0.0011769109
0.0011757156
0.0011747844
0.001173952
0.0011730788
0.001172348
0.0011719294
0.0011720811
3.8931987e-07
9.7668766e-06
2.00943e-05
2.1153898e-05
1.5921669e-05
2.1417246e-05
1.5147531e-05
2.0006128e-05
1.6295613e-05
2.1920478e-05
1.9664098e-05
2.2480398e-05
2.1163981e-05
2.1302226e-05
2.0789523e-05
2.058729e-05
2.0423248e-05
2.0373918e-05
2.0413609e-05
2.0539607e-05
2.0751307e-05
2.1048128e-05
2.1428701e-05
2.1893697e-05
2.2444925e-05
2.3088496e-05
2.3831516e-05
2.4685762e-05
2.5666675e-05
2.6792184e-05
2.8080649e-05
2.9555357e-05
3.1246966e-05
3.3193191e-05
3.5441333e-05
3.8048323e-05
4.1083097e-05
4.4627344e-05
4.8780161e-05
5.3667127e-05
5.9441612e-05
6.627821e-05
7.4395943e-05
8.4068728e-05
9.5629659e-05
0.00010947065
0.00012608031
0.00014605843
0.00017013914
0.00019921984
0.00023439981
0.00027703602
0.00032879338
0.00039172193
0.00046834173
0.00056176292
0.0006758372
0.00081534248
0.00098621673
0.001179652
0.0011803631
0.0011808617
0.0011812604
0.0011815104
0.0011816107
0.0011815521
0.001181326
0.0011809266
0.0011803548
0.0011796175
0.0011787188
0.0011776304
0.0011763164
0.0011751711
0.0011742796
0.001173479
0.0011726196
0.0011718141
0.0011714163
0.0011714055
3.5400921e-07
9.4323694e-06
1.9048317e-05
1.9625196e-05
1.4299352e-05
1.8896512e-05
1.3487835e-05
1.7472255e-05
1.4657271e-05
1.9310335e-05
1.7938838e-05
2.002202e-05
1.9124664e-05
1.9057359e-05
1.8663727e-05
1.8460423e-05
1.8326744e-05
1.8288204e-05
1.8333656e-05
1.8457023e-05
1.8658334e-05
1.8937476e-05
1.9293442e-05
1.9727286e-05
2.0240556e-05
2.0839289e-05
2.1530045e-05
2.2323652e-05
2.3234498e-05
2.4280124e-05
2.5478256e-05
2.6850602e-05
2.8426064e-05
3.0239979e-05
3.233707e-05
3.4771248e-05
3.7608339e-05
4.0926663e-05
4.4820172e-05
4.9407537e-05
5.4838081e-05
6.1279792e-05
6.8941902e-05
7.8086757e-05
8.9039294e-05
0.00010217817
0.00011797566
0.0001370134
0.00016000483
0.00018782423
0.00022154133
0.00026248033
0.00031226731
0.00037290853
0.00044687242
0.0005372069
0.00064768921
0.00078301038
0.00094900055
0.0011529044
0.0011802347
0.0011806653
0.0011810011
0.0011811929
0.0011812395
0.0011811325
0.0011808645
0.0011804311
0.0011798332
0.0011790747
0.0011781566
0.0011770596
0.0011757464
0.0011746498
0.0011737958
0.001173024
0.0011721655
0.0011713069
0.0011709427
0.0011706765
3.2215355e-07
9.1833183e-06
1.8139677e-05
1.9601098e-05
1.4239961e-05
1.6701784e-05
1.203342e-05
1.5302299e-05
1.3251646e-05
1.7063227e-05
1.6408492e-05
1.7812979e-05
1.7227674e-05
1.7021455e-05
1.67156e-05
1.6526215e-05
1.6417496e-05
1.6390351e-05
1.6440262e-05
1.6560379e-05
1.675096e-05
1.7012535e-05
1.7344511e-05
1.7748444e-05
1.8225768e-05
1.8782534e-05
1.9424914e-05
2.0162987e-05
2.1010102e-05
2.1983373e-05
2.3100107e-05
2.4380708e-05
2.5852625e-05
2.7549149e-05
2.9512793e-05
3.1794852e-05
3.4458379e-05
3.7578979e-05
4.124676e-05
4.5573844e-05
5.0706172e-05
5.6806805e-05
6.4077358e-05
7.2769362e-05
8.3201605e-05
9.5742467e-05
0.00011085078
0.00012909338
0.00015116664
0.00017792698
0.00021041991
0.00024994365
0.00029809281
0.00035683872
0.000428609
0.00051640211
0.00062393592
0.00075583206
0.00091783658
0.0011170812
0.0011802803
0.0011806271
0.0011808823
0.001181
0.0011809785
0.0011808103
0.0011804886
0.0011800095
0.0011793741
0.0011785833
0.0011776327
0.0011765146
0.0011752047
0.0011741564
0.0011733377
0.0011725903
0.0011717304
0.0011708411
0.0011704469
0.0011699275
2.9236886e-07
9.0300138e-06
1.7414146e-05
1.9336255e-05
1.3993519e-05
1.4787099e-05
1.1359611e-05
1.3512962e-05
1.2264748e-05
1.5172522e-05
1.5072239e-05
1.5878178e-05
1.5500658e-05
1.5212579e-05
1.496202e-05
1.4788798e-05
1.4696061e-05
1.4675838e-05
1.4726323e-05
1.4840876e-05
1.5019716e-05
1.5263923e-05
1.5573147e-05
1.5949353e-05
1.6393946e-05
1.6912971e-05
1.7512282e-05
1.8201372e-05
1.899259e-05
1.990259e-05
2.0948458e-05
2.2149548e-05
2.3532168e-05
2.5127919e-05
2.6977513e-05
2.9130089e-05
3.1646378e-05
3.4599844e-05
3.8078156e-05
4.2187822e-05
4.7071735e-05
5.2889777e-05
5.9838709e-05
6.8160318e-05
7.816944e-05
9.022766e-05
0.00010478386
0.00012239432
0.00014374269
0.00016967414
0.00020121683
0.00023965161
0.0002865517
0.00034386528
0.00041399416
0.00049990506
0.0006052775
0.00073468861
0.00089383359
0.001089777
0.0011804879
0.0011807362
0.0011808953
0.0011809249
0.0011808229
0.0011805823
0.0011801964
0.0011796609
0.0011789769
0.0011781433
0.0011771487
0.0011759954
0.001174698
0.001173697
0.0011729106
0.0011721831
0.0011713253
0.0011704126
0.0011699123
0.0011692783
2.6113822e-07
8.9442854e-06
1.6848504e-05
1.8286374e-05
1.386792e-05
1.306068e-05
1.1408528e-05
1.2442393e-05
1.1829068e-05
1.3543568e-05
1.3876452e-05
1.4173368e-05
1.3903941e-05
1.3579679e-05
1.336015e-05
1.3203103e-05
1.312198e-05
1.3107378e-05
1.3158081e-05
1.326802e-05
1.3437033e-05
1.3666666e-05
1.3956547e-05
1.422488e-05
1.4631124e-05
1.5108813e-05
1.5662966e-05
1.6302284e-05
1.7037915e-05
1.7885691e-05
1.8862444e-05
1.9986507e-05
2.1283144e-05
2.278234e-05
2.4523146e-05
2.6552731e-05
2.8929652e-05
3.1725279e-05
3.5025713e-05
3.9226592e-05
4.3909868e-05
4.9501121e-05
5.6195061e-05
6.4225149e-05
7.3903548e-05
8.5588455e-05
9.9722168e-05
0.00011685433
0.00013765958
0.00016297793
0.00019382634
0.00023147612
0.00027748802
0.00033379754
0.00040279368
0.00048742722
0.00059135762
0.00071913869
0.00087644193
0.001070303
0.0011808395
0.0011809765
0.0011810263
0.001180956
0.0011807627
0.00118044
0.0011799806
0.0011793792
0.0011786359
0.0011777494
0.0011767013
0.0011754972
0.0011742345
0.0011732791
0.0011725209
0.0011718098
0.0011709576
0.0011700294
0.0011694324
0.0011686966
2.3896244e-07
8.8949022e-06
1.6368725e-05
1.6631066e-05
1.2704547e-05
1.1380135e-05
9.8631361e-06
1.1108032e-05
1.0390603e-05
1.2174027e-05
1.267562e-05
1.2610439e-05
1.2383386e-05
1.2067014e-05
1.187281e-05
1.1736784e-05
1.1669909e-05
1.1664111e-05
1.1647117e-05
1.1738405e-05
1.1888737e-05
1.2098636e-05
1.2366021e-05
1.2691347e-05
1.3079532e-05
1.353423e-05
1.4060785e-05
1.4667822e-05
1.5365882e-05
1.6170323e-05
1.7098198e-05
1.81673e-05
1.9402399e-05
2.083247e-05
2.2495599e-05
2.4437725e-05
2.6716111e-05
2.9400858e-05
3.2577539e-05
3.6350397e-05
4.0846569e-05
4.6227052e-05
5.268662e-05
6.0961676e-05
7.0402953e-05
8.1825343e-05
9.566834e-05
0.00011247874
0.00013292604
0.00015785157
0.00018826759
0.0002254441
0.00027093911
0.00032668657
0.00039507655
0.0004790609
0.00058229892
0.00070934431
0.00086587269
0.0010589298
0.0011813146
0.0011813297
0.0011812597
0.0011810798
0.0011807864
0.0011803734
0.0011798327
0.0011791574
0.0011783453
0.0011773957
0.0011762886
0.001175018
0.0011738191
0.0011729074
0.0011721737
0.0011714775
0.0011706367
0.0011696911
0.0011690126
0.0011682721
2.2018056e-07
8.8466663e-06
1.5875925e-05
1.4556568e-05
1.0441178e-05
1.0115166e-05
8.129674e-06
9.4733588e-06
9.6702661e-06
1.0953294e-05
1.1459427e-05
1.1159451e-05
1.0952235e-05
1.0669354e-05
1.0500907e-05
1.0315711e-05
1.0237875e-05
1.0226386e-05
1.0274051e-05
1.0377704e-05
1.0533126e-05
1.0742492e-05
1.1004777e-05
1.1320315e-05
1.1693975e-05
1.2130405e-05
1.2634993e-05
1.3216401e-05
1.3884761e-05
1.4654944e-05
1.5544336e-05
1.6570452e-05
1.7757899e-05
1.9134961e-05
2.0739146e-05
2.2615676e-05
2.482106e-05
2.7424736e-05
3.0511615e-05
3.4185069e-05
3.8572653e-05
4.3833093e-05
5.0164333e-05
5.7796072e-05
6.702281e-05
7.8211031e-05
9.2611841e-05
0.00010925632
0.00012953025
0.00015428254
0.00018452759
0.00022154245
0.0002668923
0.00032252091
0.00039083353
0.00047480061
0.00057810199
0.00070531503
0.00086214691
0.0010556909
0.0011818901
0.001181775
0.0011815775
0.0011812806
0.0011808804
0.0011803704
0.0011797422
0.0011789866
0.0011780981
0.0011770754
0.001175908
0.0011745796
0.0011734566
0.0011725872
0.001171875
0.0011711945
0.0011703756
0.0011694165
0.0011686751
0.0011678826
2.015597e-07
8.801886e-06
1.4268661e-05
1.2677964e-05
8.4434307e-06
8.9922803e-06
7.2311806e-06
8.5513532e-06
8.9573803e-06
9.8020356e-06
1.0257763e-05
9.8390851e-06
9.6384177e-06
9.3037679e-06
9.1245462e-06
9.0145725e-06
8.9712565e-06
8.9854064e-06
9.0503381e-06
9.1651279e-06
9.3273774e-06
9.5366761e-06
9.7953537e-06
1.0103662e-05
1.0466711e-05
1.0889575e-05
1.1377811e-05
1.1940263e-05
1.2586811e-05
1.3331877e-05
1.419325e-05
1.5188515e-05
1.6342375e-05
1.7682734e-05
1.9246895e-05
2.1079817e-05
2.3237759e-05
2.5790102e-05
2.8822152e-05
3.2437792e-05
3.6764729e-05
4.196129e-05
4.8229078e-05
5.5797945e-05
6.4965069e-05
7.6099339e-05
8.965572e-05
0.0001061685
0.00012747023
0.00015227114
0.00018261034
0.00021978013
0.00026536358
0.00032132629
0.00039010355
0.00047470295
0.00057884706
0.00070716288
0.00086541804
0.0010607895
0.001182541
0.0011822898
0.0011819597
0.001181541
0.001181029
0.0011804174
0.0011796967
0.0011788562
0.0011778863
0.001176782
0.001175551
0.0011742065
0.0011731505
0.0011723227
0.0011716309
0.0011709679
0.0011701838
0.0011692231
0.0011684154
0.0011676181
1.8615544e-07
8.755223e-06
1.1336244e-05
1.0523731e-05
6.937176e-06
8.0100055e-06
6.5948499e-06
7.6881989e-06
8.3855215e-06
8.7598577e-06
9.0807437e-06
8.5474363e-06
8.2955657e-06
8.0651827e-06
7.9347689e-06
7.8649739e-06
7.8507414e-06
7.8874245e-06
7.9686828e-06
8.0938322e-06
8.2608551e-06
8.4721253e-06
8.7295554e-06
9.0339202e-06
9.3904286e-06
9.8046401e-06
1.0282407e-05
1.0832822e-05
1.1465737e-05
1.2195211e-05
1.2972615e-05
1.3938186e-05
1.506038e-05
1.6366701e-05
1.7894238e-05
1.968773e-05
2.1803268e-05
2.4310238e-05
2.7294485e-05
3.0860729e-05
3.5137992e-05
4.0602029e-05
4.6872023e-05
5.4457102e-05
6.3657313e-05
7.4845381e-05
8.8489094e-05
0.0001051352
0.0001254734
0.00015036372
0.00018251519
0.00022016178
0.00026636488
0.00032312459
0.0003929219
0.00047882144
0.00058461221
0.00071499925
0.00087584197
0.0010744365
0.0011832407
0.00118285
0.001182385
0.0011818418
0.0011812155
0.0011804991
0.0011796828
0.001178754
0.0011777005
0.0011765106
0.0011752043
0.0011738989
0.0011729043
0.0011721174
0.001171448
0.0011708044
0.0011700603
0.0011691171
0.0011682593
0.001167548
1.724351e-07
8.7115697e-06
8.9479338e-06
8.9568879e-06
6.1056609e-06
7.1002401e-06
6.0608589e-06
6.9367007e-06
7.8051634e-06
7.7888389e-06
7.8042203e-06
7.3508965e-06
7.1462919e-06
6.9788693e-06
6.8899526e-06
6.8537401e-06
6.8654243e-06
6.9207044e-06
7.016101e-06
7.151528e-06
7.3256872e-06
7.5407085e-06
7.799606e-06
8.1036573e-06
8.4581709e-06
8.8309399e-06
9.2965147e-06
9.8341248e-06
1.045349e-05
1.1168207e-05
1.1994655e-05
1.2954139e-05
1.4070709e-05
1.5372e-05
1.6895523e-05
1.8686562e-05
2.080199e-05
2.3312218e-05
2.6304926e-05
2.9887185e-05
3.4191207e-05
3.9382249e-05
4.566284e-05
5.3275875e-05
6.2526548e-05
7.4435644e-05
8.8298246e-05
0.00010523271
0.00012594096
0.00015130947
0.00018242156
0.00022269069
0.00026990842
0.00032794004
0.00039932869
0.00048721753
0.00059548765
0.00072895344
0.00089360173
0.0010968822
0.0011839623
0.0011834311
0.0011828316
0.0011821636
0.001181422
0.0011805996
0.0011796861
0.0011786674
0.0011775292
0.0011762589
0.0011748667
0.0011736586
0.0011727202
0.0011719737
0.0011713314
0.0011707101
0.0011700005
0.0011690902
0.0011682295
0.0011675904
1.6025227e-07
8.6605423e-06
7.1219981e-06
7.86882e-06
5.4461782e-06
6.2896885e-06
5.6046315e-06
6.2726954e-06
7.1138562e-06
6.6853098e-06
6.6532477e-06
6.3054949e-06
6.1444116e-06
6.0278967e-06
5.9745681e-06
5.9672699e-06
6.0015542e-06
6.0749679e-06
6.1845169e-06
6.3309281e-06
6.5136548e-06
6.7350448e-06
6.968918e-06
7.2699908e-06
7.6212413e-06
8.0275689e-06
8.4971498e-06
9.0387511e-06
9.6623557e-06
1.0381821e-05
1.1213732e-05
1.2179189e-05
1.3303708e-05
1.4615391e-05
1.6152463e-05
1.796117e-05
2.0099783e-05
2.2640319e-05
2.5673107e-05
2.930874e-05
3.3682867e-05
3.8964573e-05
4.5366893e-05
5.3138957e-05
6.2595609e-05
7.4128587e-05
8.8224731e-05
0.0001054727
0.0001277123
0.00015378415
0.00018577857
0.00022507839
0.00027599722
0.00033578778
0.0004093547
0.00049994308
0.00061155408
0.00074914515
0.00091887293
0.0011283773
0.0011846795
0.0011840089
0.0011832776
0.0011824865
0.0011816308
0.0011807029
0.0011796926
0.0011785842
0.0011773601
0.0011760223
0.0011746134
0.0011734849
0.0011725994
0.0011718929
0.0011712839
0.0011706889
0.0011700083
0.0011691471
0.0011683382
0.0011677658
1.4945574e-07
8.5993034e-06
5.7180073e-06
6.8832704e-06
4.8609433e-06
5.5701754e-06
5.218255e-06
5.5965231e-06
6.2418006e-06
5.7280701e-06
5.643997e-06
5.3916321e-06
5.2715872e-06
5.1976612e-06
5.1760256e-06
5.1949626e-06
5.2506235e-06
5.3416359e-06
5.4659165e-06
5.6035302e-06
5.7902977e-06
6.0157219e-06
6.2825343e-06
6.5942535e-06
6.9558887e-06
7.3727769e-06
7.8530252e-06
8.406133e-06
9.0423584e-06
9.7757763e-06
1.0623151e-05
1.160589e-05
1.2692446e-05
1.4015692e-05
1.5567384e-05
1.7394707e-05
1.9557563e-05
2.2129646e-05
2.5203997e-05
2.8895326e-05
3.3343894e-05
3.9017799e-05
4.5602707e-05
5.3607543e-05
6.3358109e-05
7.5257492e-05
8.9815958e-05
0.00010764829
0.00012950757
0.00015776327
0.00019091455
0.00023165376
0.00028174473
0.00034666365
0.00042300974
0.00051702606
0.00063286575
0.00077566426
0.00095179761
0.001169143
0.0011853672
0.0011845609
0.0011837026
0.0011827921
0.001181825
0.0011807936
0.0011796881
0.0011784937
0.0011771877
0.0011757786
0.0011744378
0.0011733797
0.0011725425
0.0011718745
0.0011713046
0.0011707398
0.0011700791
0.0011692807
0.001168586
0.0011680786
1.3990035e-07
8.4781024e-06
4.6482569e-06
6.007783e-06
4.3394087e-06
4.9310988e-06
4.8826022e-06
4.8598202e-06
5.3612541e-06
4.8746163e-06
4.7695641e-06
4.5959465e-06
4.515121e-06
4.4781819e-06
4.4855568e-06
4.528979e-06
4.6053465e-06
4.6953429e-06
4.8290006e-06
4.9970934e-06
5.2007692e-06
5.4419147e-06
5.7240329e-06
6.0508698e-06
6.4280835e-06
6.8613158e-06
7.3587659e-06
7.9065694e-06
8.5564466e-06
9.3046183e-06
1.0167934e-05
1.1167868e-05
1.2330682e-05
1.3689378e-05
1.5283342e-05
1.716137e-05
1.9386159e-05
2.2034262e-05
2.5202518e-05
2.9011567e-05
3.360823e-05
3.9177567e-05
4.5943426e-05
5.4181611e-05
6.4232028e-05
7.7155153e-05
9.2302049e-05
0.00011086813
0.00013364359
0.0001616033
0.00019778895
0.00024029787
0.00029258339
0.0003569125
0.00044026403
0.00053844876
0.00065942356
0.00080853858
0.0009924419
0.0011869162
0.0011860025
0.0011850669
0.0011840882
0.0011830637
0.0011819894
0.0011808584
0.0011796603
0.0011783835
0.0011770128
0.0011755563
0.0011743354
0.0011733427
0.0011725495
0.0011719178
0.0011713906
0.001170861
0.0011702136
0.0011694822
0.0011689498
0.0011684923
1.3150264e-07
8.1507234e-06
3.9121225e-06
5.2318888e-06
3.876386e-06
4.3661004e-06
4.3478114e-06
4.1935592e-06
4.5119841e-06
4.1202775e-06
4.0205527e-06
3.9099046e-06
3.8660762e-06
3.8620105e-06
3.8961914e-06
3.9481728e-06
4.0377901e-06
4.1605596e-06
4.3157876e-06
4.5039241e-06
4.7268048e-06
4.9868903e-06
5.288157e-06
5.6346724e-06
6.0188058e-06
6.4694441e-06
6.9850284e-06
7.5750563e-06
8.2514651e-06
9.028474e-06
9.9234019e-06
1.0958636e-05
1.2161565e-05
1.356651e-05
1.5215647e-05
1.7159647e-05
1.9464667e-05
2.2210986e-05
2.5499565e-05
2.945839e-05
3.4240335e-05
4.0039995e-05
4.7096047e-05
5.5696905e-05
6.6201962e-05
7.9052244e-05
9.563211e-05
0.00011508104
0.00013894864
0.00016826969
0.00020429049
0.00025093664
0.00030581085
0.00037334463
0.00045647077
0.00056411775
0.00069113917
0.00084769209
0.0010407429
0.0011875942
0.0011865657
0.0011855101
0.0011844191
0.0011832876
0.0011821117
0.0011808864
0.001179601
0.0011782437
0.0011768248
0.0011754281
0.0011742988
0.0011733712
0.0011726196
0.0011720224
0.001171538
0.0011710479
0.0011704149
0.0011697416
0.0011693683
0.00116902
1.2434617e-07
7.7357074e-06
3.4495272e-06
4.5444611e-06
3.4658561e-06
3.7036544e-06
3.8764369e-06
3.5831563e-06
3.7433911e-06
3.4652264e-06
3.3871337e-06
3.3264436e-06
3.3165052e-06
3.3421197e-06
3.3841861e-06
3.4681317e-06
3.5840034e-06
3.7306511e-06
3.9083617e-06
4.1183805e-06
4.3631421e-06
4.6454107e-06
4.9599916e-06
5.3270727e-06
5.7457711e-06
6.2227637e-06
6.7660729e-06
7.3855445e-06
8.093374e-06
8.9047047e-06
9.8374343e-06
1.0914945e-05
1.2165917e-05
1.3626458e-05
1.5275658e-05
1.72821e-05
1.966322e-05
2.2503632e-05
2.606468e-05
3.0202874e-05
3.5206766e-05
4.1280462e-05
4.8678833e-05
5.7706101e-05
6.8740343e-05
8.2249669e-05
9.8808407e-05
0.00011912143
0.00014534145
0.00017622784
0.00021418685
0.00026086063
0.0003212876
0.00039249257
0.00048014955
0.00059382828
0.00072778999
0.00089289221
0.0010964592
0.0011881804
0.0011870428
0.0011858777
0.0011846835
0.0011834535
0.0011821829
0.0011808688
0.0011795049
0.0011780794
0.0011766141
0.0011753673
0.0011743239
0.0011734592
0.0011727501
0.0011721875
0.0011717417
0.00117129
0.0011706833
0.0011700756
0.0011698564
0.0011696907
1.1872258e-07
6.7053395e-06
3.0560657e-06
3.9209034e-06
3.1124277e-06
3.0917411e-06
3.4069131e-06
3.0304132e-06
3.0831505e-06
2.9058331e-06
2.8570938e-06
2.8372253e-06
2.8496973e-06
2.8944903e-06
2.975087e-06
3.0871323e-06
3.2286672e-06
3.3996414e-06
3.6011583e-06
3.834936e-06
4.097817e-06
4.4027084e-06
4.7497721e-06
5.1437766e-06
5.5904135e-06
6.0965848e-06
6.6706841e-06
7.3229496e-06
8.065975e-06
8.8959534e-06
9.8646952e-06
1.0981927e-05
1.2277558e-05
1.3789056e-05
1.5563281e-05
1.7658811e-05
2.0148057e-05
2.3121655e-05
2.669205e-05
3.0998148e-05
3.6212409e-05
4.2853439e-05
5.0640577e-05
6.0152083e-05
7.1786062e-05
8.6037442e-05
0.00010351497
0.00012496804
0.00015270656
0.00018534492
0.0002254718
0.00027482091
0.00033879434
0.00041410073
0.0005068284
0.00062104154
0.00076897019
0.00094368572
0.0011590928
0.0011886649
0.0011874256
0.0011861616
0.0011848736
0.0011835549
0.001182199
0.0011808021
0.001179365
0.0011779004
0.0011765007
0.0011753597
0.0011744016
0.0011735983
0.0011729352
0.0011724103
0.0011719969
0.0011715748
0.0011710063
0.0011704794
0.0011703968
0.0011703198
1.1420458e-07
4.7092539e-06
2.7005763e-06
3.3429481e-06
2.6624442e-06
2.5791997e-06
2.9119279e-06
2.5381665e-06
2.5334669e-06
2.4349509e-06
2.4192631e-06
2.4269532e-06
2.4704544e-06
2.5495031e-06
2.6597342e-06
2.7986512e-06
2.9656089e-06
3.1612864e-06
3.3841272e-06
3.6412712e-06
3.9339285e-06
4.2654526e-06
4.639917e-06
5.0622733e-06
5.5384921e-06
6.0757691e-06
6.6828411e-06
7.3592563e-06
8.1360397e-06
9.0217627e-06
1.0036669e-05
1.1205903e-05
1.2561153e-05
1.4142215e-05
1.5998967e-05
1.8193564e-05
2.0803245e-05
2.392409e-05
2.7675616e-05
3.2206098e-05
3.7699238e-05
4.4381502e-05
5.292348e-05
6.2967569e-05
7.5261017e-05
9.0327732e-05
0.00010881269
0.00013151137
0.00015940458
0.00019543842
0.00023792954
0.00029019963
0.00035452773
0.00043779453
0.00053605783
0.00065711205
0.00081404199
0.00099933023
0.0011903824
0.0011890442
0.0011877113
0.0011863592
0.0011849867
0.0011835889
0.0011821591
0.0011806911
0.0011791901
0.0011776988
0.001176447
0.0011754
0.0011745218
0.0011737793
0.001173166
0.0011726843
0.001172299
0.0011718958
0.0011713692
0.0011709281
0.0011709577
0.0011710458
1.0944309e-07
3.9129878e-06
2.3288342e-06
2.8104017e-06
2.2959156e-06
2.1512125e-06
2.3992936e-06
2.106015e-06
2.0866467e-06
2.048583e-06
2.0617897e-06
2.1040351e-06
2.1835663e-06
2.2934138e-06
2.4309862e-06
2.5953594e-06
2.7868706e-06
3.0045286e-06
3.2540016e-06
3.5365946e-06
3.8552783e-06
4.2136518e-06
4.6160204e-06
5.0675274e-06
5.5743531e-06
6.1439615e-06
6.777868e-06
7.49902e-06
8.3160062e-06
9.2458095e-06
1.0309796e-05
1.1534637e-05
1.2953877e-05
1.4609682e-05
1.6555113e-05
1.8856591e-05
2.1596554e-05
2.4877142e-05
2.882536e-05
3.3598144e-05
3.9390266e-05
4.6778346e-05
5.5459072e-05
6.6072382e-05
7.9070441e-05
9.50077e-05
0.00011456721
0.00013859126
0.00016967581
0.00020626987
0.00025127171
0.00030664476
0.00037480768
0.00046305969
0.00056722469
0.00069558668
0.00086208701
0.0010587229
0.0011907283
0.0011893182
0.0011879028
0.0011864734
0.001185026
0.0011835576
0.0011820639
0.0011805399
0.0011790022
0.0011775943
0.0011764393
0.0011754789
0.0011746757
0.0011739951
0.0011734324
0.0011729985
0.001172641
0.001172253
0.001171774
0.0011714402
0.0011715631
0.0011716836
1.0624503e-07
3.1524115e-06
2.0082915e-06
2.2714272e-06
1.995427e-06
1.7850154e-06
1.9226344e-06
1.7395319e-06
1.735897e-06
1.7464655e-06
1.7897201e-06
1.8699015e-06
1.9803687e-06
2.1171711e-06
2.2792915e-06
2.4670045e-06
2.680216e-06
2.9226389e-06
3.1961037e-06
3.5033307e-06
3.8475751e-06
4.2326464e-06
4.663011e-06
5.1439585e-06
5.6818362e-06
6.2800384e-06
6.9543912e-06
7.7136442e-06
8.572003e-06
9.5472982e-06
1.0662166e-05
1.1944889e-05
1.3431065e-05
1.5165377e-05
1.7204012e-05
1.9617603e-05
2.2494423e-05
2.5942791e-05
3.009794e-05
3.5126292e-05
4.1505092e-05
4.900683e-05
5.8165854e-05
6.9371401e-05
8.3100621e-05
9.9941212e-05
0.00012061601
0.00014601691
0.00017884023
0.00021753375
0.00026513187
0.00032371368
0.00039584816
0.00048921056
0.00059950136
0.00073546674
0.00091187041
0.0011203619
0.0011909709
0.0011894942
0.0011880079
0.001186512
0.0011850005
0.0011834701
0.0011819212
0.0011803619
0.0011788302
0.0011775535
0.0011764803
0.0011755902
0.0011748534
0.0011742402
0.0011737242
0.0011733385
0.0011730085
0.0011726356
0.001172204
0.0011719743
0.0011721796
0.0011723013
1.0492222e-07
2.4864236e-06
1.731242e-06
1.7538169e-06
1.7185037e-06
1.4716988e-06
1.5334431e-06
1.4476192e-06
1.4748574e-06
1.5204118e-06
1.6023413e-06
1.7130306e-06
1.8489809e-06
2.0086247e-06
2.1922471e-06
2.4010176e-06
2.635892e-06
2.9004131e-06
3.1966987e-06
3.5277317e-06
3.8969384e-06
4.3082694e-06
4.7663149e-06
5.2764845e-06
5.8452555e-06
6.4805117e-06
7.1919815e-06
7.9917664e-06
8.8847853e-06
9.9060429e-06
1.1072442e-05
1.2413975e-05
1.3968438e-05
1.5783265e-05
1.7917815e-05
2.0529459e-05
2.3568802e-05
2.7215547e-05
3.1613878e-05
3.6941597e-05
4.3417616e-05
5.1311064e-05
6.0954352e-05
7.2756593e-05
8.7221618e-05
0.00010497038
0.00012676692
0.00015489373
0.00018806942
0.00022886629
0.00027906394
0.00034086071
0.0004209217
0.00051540042
0.00063185464
0.00077549552
0.0009618274
0.0011823421
0.0011911245
0.0011895873
0.0011880399
0.0011864867
0.0011849226
0.0011833425
0.0011817447
0.0011801587
0.0011787462
0.0011775641
0.0011765698
0.001175737
0.0011750467
0.0011745016
0.001174033
0.0011736883
0.0011733854
0.0011730355
0.0011726594
0.0011725183
0.0011727752
0.0011728789
1.0653166e-07
1.915871e-06
1.5003204e-06
1.3570794e-06
1.4364206e-06
1.2089826e-06
1.2486377e-06
1.2339073e-06
1.293896e-06
1.3738469e-06
1.4843577e-06
1.6185334e-06
1.7750466e-06
1.9540131e-06
2.1566438e-06
2.3846797e-06
2.63988e-06
2.9252878e-06
3.243436e-06
3.5974405e-06
3.9908301e-06
4.4276492e-06
4.9125907e-06
5.4511857e-06
6.0500659e-06
6.7173176e-06
7.4629562e-06
8.2995161e-06
9.2427871e-06
1.0312743e-05
1.1534637e-05
1.294045e-05
1.4570478e-05
1.6475374e-05
1.8718529e-05
2.1378991e-05
2.4555079e-05
2.8369065e-05
3.2972185e-05
3.8551569e-05
4.5338245e-05
5.3616298e-05
6.3733027e-05
7.6118588e-05
9.1301277e-05
0.00011084194
0.00013389607
0.00016221813
0.00019703559
0.00023986468
0.00029257646
0.00036083911
0.00044139118
0.00054066256
0.00066309336
0.00082210898
0.0010101023
0.001192816
0.0011912078
0.0011896173
0.0011880188
0.0011864151
0.0011848054
0.0011831909
0.0011815781
0.0011800075
0.001178713
0.0011776163
0.0011766975
0.0011759266
0.0011752824
0.0011747566
0.0011743501
0.0011740354
0.0011737555
0.0011734362
0.001173125
0.0011730598
0.0011733419
0.0011734267
1.122317e-07
1.4475022e-06
1.3129574e-06
1.0674244e-06
1.2820225e-06
9.9078044e-07
1.0553961e-06
1.0926351e-06
1.1795401e-06
1.2871379e-06
1.4186691e-06
1.5710523e-06
1.7446597e-06
1.9406165e-06
2.1606289e-06
2.4067021e-06
2.6811189e-06
2.9862449e-06
3.3251834e-06
3.7010194e-06
4.1173576e-06
4.5783283e-06
5.0887295e-06
5.6542246e-06
6.281616e-06
6.9792132e-06
7.7573302e-06
8.6289623e-06
9.6105311e-06
1.0722903e-05
1.1992484e-05
1.3452803e-05
1.5146142e-05
1.7125682e-05
1.9457986e-05
2.2226085e-05
2.5533144e-05
2.9506991e-05
3.4305646e-05
4.0124142e-05
4.7524849e-05
5.6230636e-05
6.6869308e-05
7.9892238e-05
9.5854112e-05
0.00011543811
0.00013948641
0.00016903764
0.00020536965
0.00025240415
0.00030783715
0.00037608787
0.00046017877
0.00056386272
0.00069855389
0.00085772577
0.00105442
0.0011928788
0.0011912355
0.0011896042
0.0011879674
0.0011863244
0.0011846732
0.0011830189
0.001181393
0.0011799401
0.0011787222
0.0011776965
0.0011768377
0.0011761208
0.0011755257
0.001175033
0.0011746615
0.001174371
0.0011741094
0.0011738241
0.0011735797
0.0011735779
0.001173863
0.0011739186
1.2267164e-07
1.1466512e-06
1.1517145e-06
9.2670564e-07
9.3849859e-07
8.6670353e-07
9.2836433e-07
1.0076892e-06
1.1153963e-06
1.2425504e-06
1.389949e-06
1.5573681e-06
1.7460178e-06
1.9574209e-06
2.1934347e-06
2.456134e-06
2.7478383e-06
3.0711326e-06
3.4289131e-06
3.8244411e-06
4.2614211e-06
4.7441072e-06
5.277451e-06
5.8673137e-06
6.5207586e-06
7.2438684e-06
8.0510811e-06
8.954205e-06
9.9791766e-06
1.1133812e-05
1.2451831e-05
1.3968445e-05
1.5728015e-05
1.7786264e-05
2.0212876e-05
2.3094651e-05
2.6539341e-05
3.0680355e-05
3.5682485e-05
4.1749006e-05
4.9130405e-05
5.8135162e-05
6.9142836e-05
8.2618359e-05
9.9136302e-05
0.00011940346
0.00014557503
0.00017639402
0.00021427572
0.00026087167
0.0003182241
0.00038886586
0.00047593941
0.00058889571
0.0007224719
0.00088750532
0.00109163
0.0011929055
0.0011912298
0.001189565
0.0011879004
0.0011862345
0.0011845659
0.0011829013
0.0011812849
0.0011799305
0.0011787766
0.0011778048
0.0011769899
0.0011763142
0.0011757766
0.0011753014
0.0011749587
0.0011746861
0.0011744421
0.0011741948
0.0011740141
0.0011740581
0.0011743275
0.001174366
1.4418616e-07
1.1849185e-06
9.9167429e-07
7.0716262e-07
7.6673177e-07
7.7468231e-07
8.5825021e-07
9.6038743e-07
1.0845395e-06
1.226484e-06
1.3873584e-06
1.5680795e-06
1.7701466e-06
1.9951967e-06
2.2451159e-06
2.5220059e-06
2.8282192e-06
3.1663891e-06
3.5394731e-06
3.9508054e-06
4.40417e-06
4.9039042e-06
5.4550458e-06
6.0635458e-06
6.7365685e-06
7.4829038e-06
8.3135127e-06
9.2422256e-06
1.0286628e-05
1.1469115e-05
1.2818157e-05
1.4369886e-05
1.6169888e-05
1.8275433e-05
2.0758115e-05
2.3707068e-05
2.723288e-05
3.1472335e-05
3.6594245e-05
4.2806608e-05
5.0365553e-05
6.0012804e-05
7.1371298e-05
8.5271842e-05
0.00010230621
0.00012320202
0.00014885697
0.00018037918
0.0002191379
0.00026682489
0.0003255402
0.00040156069
0.00049141824
0.00060228844
0.00073923113
0.00090857492
0.0011182399
0.0011929398
0.0011912315
0.0011895331
0.0011878387
0.0011861477
0.0011844623
0.0011828007
0.001181252
0.001179965
0.0011788667
0.0011779407
0.001177162
0.0011765185
0.0011759854
0.0011755624
0.0011752318
0.0011749739
0.001174746
0.0011745372
0.0011744112
0.0011744828
0.0011747223
0.0011747459
1.3747607e-07
7.9037663e-07
8.1332961e-07
6.0291665e-07
6.6008421e-07
7.2065465e-07
8.2280026e-07
9.4170955e-07
1.0789359e-06
1.2334814e-06
1.4065877e-06
1.5994562e-06
1.8136158e-06
2.0507694e-06
2.3128428e-06
2.6019949e-06
2.9206459e-06
3.2714663e-06
3.6575521e-06
4.0822983e-06
4.5495746e-06
5.0638047e-06
5.6301154e-06
6.2545501e-06
6.9443754e-06
7.7085005e-06
8.5580339e-06
9.5070047e-06
1.0581865e-05
1.1792046e-05
1.3172525e-05
1.4760366e-05
1.660226e-05
1.8756819e-05
2.1297241e-05
2.43146e-05
2.7921818e-05
3.2258525e-05
3.7497031e-05
4.3849639e-05
5.1577629e-05
6.1002214e-05
7.2518027e-05
8.6611944e-05
0.0001038827
0.00012506858
0.00015108057
0.00018464976
0.00022424298
0.00027294906
0.00033291599
0.0004068086
0.00049794408
0.00061046033
0.00074953203
0.00092164751
0.0011349449
0.0011930307
0.0011912944
0.0011895659
0.0011878421
0.0011861234
0.0011844166
0.001182754
0.0011812759
0.0011800316
0.0011789733
0.0011780806
0.0011773335
0.0011767271
0.0011762102
0.0011758089
0.0011754759
0.0011752354