/*--------------------------------*- C++ -*----------------------------------*\
  =========                 |
  \\      /  F ield         | OpenFOAM: The Open Source CFD Toolbox
   \\    /   O peration     | Website:  https://openfoam.org
    \\  /    A nd           | Version:  12
     \\/     M anipulation  |
\*---------------------------------------------------------------------------*/
FoamFile
{
    format      ascii;
    class       volScalarField;
    location    "0.144";
    object      k;
}
// * * * * * * * * * * * * * * * * * * * * * * * * * * * * * * * * * * * * * //

dimensions      [0 2 -2 0 0 0 0];

internalField   nonuniform List<scalar> 
16000
(
0.049419619
0.02166809
0.022469213
0.016513101
0.014016108
0.012691816
0.011904295
0.011433653
0.011114381
0.010899501
0.010741053
0.010623083
0.010531045
0.010458197
0.010399603
0.01035217
0.010313411
0.010281684
0.010255827
0.010234463
0.010217011
0.010202795
0.010191381
0.010182221
0.010175113
0.010169668
0.010165717
0.010163088
0.010161642
0.010161247
0.01016178
0.01016314
0.010165246
0.010168029
0.010171432
0.010175397
0.010179867
0.010184785
0.010190091
0.010195727
0.010201624
0.010207709
0.010213911
0.01022016
0.010226381
0.010232502
0.010238463
0.010244214
0.010249707
0.010254895
0.010259729
0.010264161
0.010268147
0.010271645
0.010274623
0.010277045
0.010278875
0.01028006
0.010280536
0.010280222
0.010279016
0.010276802
0.010273475
0.010268911
0.010262965
0.010255475
0.010246293
0.010235305
0.010222453
0.010207697
0.010190811
0.010170986
0.010147693
0.010126293
0.010109605
0.010095731
0.010083119
0.010082658
0.010071611
0.010095434
0.045818297
0.020494308
0.021027557
0.0159699
0.013671279
0.012487837
0.0117415
0.011316324
0.011013353
0.010815718
0.010667569
0.010558367
0.010472746
0.010405382
0.010351273
0.010307709
0.010272286
0.010243415
0.010220185
0.010201149
0.010185798
0.01017348
0.010163854
0.010156324
0.010150764
0.010146767
0.010144172
0.010142815
0.010142562
0.01014329
0.010144879
0.010147229
0.010150255
0.010153889
0.010158072
0.010162746
0.010167857
0.010173347
0.010179158
0.010185233
0.010191508
0.010197911
0.010204373
0.010210827
0.010217201
0.010223424
0.010229437
0.01023519
0.010240641
0.010245745
0.01025046
0.010254744
0.010258558
0.010261864
0.010264634
0.010266841
0.010268453
0.010269426
0.0102697
0.010269199
0.010267827
0.01026547
0.010262019
0.01025735
0.010251316
0.010243755
0.010234524
0.010223522
0.0102107
0.010196025
0.010179331
0.010159915
0.010137164
0.010116689
0.010100826
0.010087462
0.010076364
0.010071684
0.0100691
0.010094131
0.041383369
0.019660575
0.019698343
0.015407318
0.013318768
0.012261246
0.011573013
0.011189839
0.010910139
0.010730708
0.01059373
0.010493738
0.010415017
0.010353427
0.010304104
0.010264642
0.010232795
0.010206967
0.010186521
0.010169965
0.010156859
0.010146558
0.010138832
0.010133031
0.010129103
0.010126633
0.010125468
0.010125449
0.010126449
0.010128351
0.01013104
0.010134415
0.010138391
0.010142898
0.010147875
0.010153266
0.010159014
0.010165064
0.010171357
0.010177836
0.010184442
0.010191106
0.01019776
0.01020434
0.01021078
0.01021701
0.010222972
0.010228619
0.010233913
0.010238815
0.010243289
0.0102473
0.010250815
0.010253802
0.010256238
0.010258102
0.01025937
0.010260003
0.010259945
0.010259124
0.010257446
0.0102548
0.010251082
0.010246168
0.010239913
0.010232159
0.010222765
0.010211645
0.010198759
0.010184061
0.010167408
0.010148226
0.010125941
0.010106593
0.010091661
0.010079217
0.01006878
0.010062503
0.010063363
0.010084121
0.038641348
0.01909795
0.018547782
0.014903872
0.012999593
0.012056028
0.011418744
0.011074261
0.010815398
0.010652477
0.010526174
0.010434698
0.010362561
0.010306434
0.010261685
0.010226142
0.010197758
0.010174865
0.010157111
0.010142962
0.010132055
0.010123721
0.010117861
0.010113757
0.010111428
0.01011046
0.010110698
0.010111993
0.010114218
0.010117263
0.010121017
0.010125376
0.010130256
0.010135583
0.010141295
0.010147334
0.010153644
0.010160169
0.010166852
0.010173638
0.01018047
0.010187282
0.010194011
0.010200596
0.010206976
0.010213086
0.010218869
0.010224283
0.010229293
0.010233868
0.010237977
0.010241595
0.010244692
0.010247248
0.010249241
0.010250658
0.010251478
0.010251671
0.010251183
0.010249943
0.01024786
0.01024483
0.01024075
0.010235503
0.010228951
0.010220938
0.010211324
0.010200028
0.010187021
0.010172236
0.010155528
0.010136494
0.01011455
0.010096369
0.010082437
0.010070949
0.010060864
0.010053996
0.010057576
0.010071584
0.036046153
0.018781204
0.017558089
0.014437218
0.012702531
0.011862107
0.011274104
0.010965336
0.010726967
0.010579513
0.010463676
0.010380325
0.010314634
0.010263817
0.010223551
0.010191835
0.010166877
0.010146881
0.010131791
0.010120026
0.010111316
0.010104947
0.010100949
0.010098557
0.010097816
0.010098349
0.01009999
0.010102594
0.010106035
0.010110206
0.010114998
0.01012031
0.010126052
0.010132148
0.010138534
0.01014515
0.01015194
0.01015885
0.010165823
0.010172805
0.010179745
0.010186581
0.010193255
0.01019971
0.010205892
0.010211741
0.010217207
0.010222248
0.010226836
0.010230948
0.01023456
0.010237655
0.010240212
0.010242215
0.010243652
0.010244509
0.010244773
0.010244417
0.010243392
0.010241627
0.010239034
0.010235516
0.010230975
0.010225306
0.010218376
0.010210034
0.010200135
0.010188598
0.0101754
0.010160461
0.010143596
0.010124616
0.010103143
0.010086173
0.010073291
0.010062735
0.010052994
0.010046071
0.010050765
0.010059697
0.033480855
0.018709153
0.016818016
0.014009518
0.01242917
0.011681724
0.01114043
0.01086441
0.010645757
0.010512553
0.010406864
0.010331179
0.010271722
0.010226022
0.010190112
0.010162105
0.010140511
0.010123361
0.010110899
0.010101495
0.010094975
0.01009059
0.010088428
0.010087809
0.010088603
0.010090632
0.010093666
0.010097565
0.010102199
0.010107464
0.010113253
0.010119461
0.010125999
0.010132786
0.010139756
0.010146848
0.010154005
0.010161176
0.010168306
0.010175345
0.010182245
0.010188953
0.010195416
0.010201583
0.010207408
0.01021284
0.010217833
0.010222351
0.010226373
0.010229881
0.010232863
0.010235306
0.0102372
0.010238536
0.010239304
0.010239497
0.010239103
0.010238098
0.010236436
0.01023405
0.010230854
0.010226758
0.010221675
0.010215507
0.010208132
0.010199401
0.010189164
0.010177327
0.010163871
0.010148717
0.010131614
0.010112568
0.010091791
0.010076076
0.010064271
0.010054619
0.010045318
0.010038543
0.010042887
0.010048496
0.030568768
0.018807228
0.016294122
0.013617392
0.0121773
0.011514216
0.011017491
0.010771336
0.010571667
0.010451532
0.010355648
0.010287229
0.010233814
0.01019308
0.010161437
0.010137062
0.010118802
0.010104484
0.010094635
0.010087602
0.01008327
0.010081001
0.010080579
0.010081981
0.010084107
0.010087625
0.010092043
0.010097213
0.010103008
0.010109318
0.01011604
0.010123068
0.010130308
0.01013768
0.010145113
0.010152548
0.010159928
0.010167205
0.010174329
0.010181255
0.01018794
0.010194341
0.010200415
0.010206116
0.01021141
0.010216254
0.01022061
0.010224449
0.010227755
0.010230518
0.010232735
0.010234401
0.010235515
0.010236072
0.010236069
0.010235498
0.01023435
0.010232603
0.010230214
0.010227119
0.010223237
0.010218485
0.010212787
0.010206055
0.010198176
0.010189003
0.010178379
0.010166188
0.010152406
0.010136975
0.010119582
0.010100306
0.010080639
0.010066202
0.010055472
0.010046699
0.010037951
0.010031467
0.01003507
0.010038137
0.028566621
0.01899372
0.015870164
0.013258413
0.011945461
0.011359341
0.010904717
0.010685968
0.010504359
0.010396329
0.010309951
0.010248508
0.010200997
0.010165141
0.010137727
0.01011695
0.010102015
0.010090565
0.010083286
0.010078669
0.010076485
0.01007682
0.010077755
0.010080601
0.010084703
0.010089692
0.010095465
0.010101865
0.01010876
0.010116039
0.010123597
0.01013133
0.010139143
0.010146951
0.010154686
0.010162289
0.010169707
0.010176896
0.010183814
0.010190423
0.010196689
0.010202581
0.010208064
0.010213106
0.010217679
0.010221756
0.010225306
0.010228307
0.010230749
0.010232631
0.010233956
0.010234728
0.010234953
0.010234632
0.010233763
0.010232341
0.010230355
0.010227785
0.010224591
0.010220712
0.010216075
0.010210604
0.010204233
0.010196883
0.010188448
0.010178787
0.010167733
0.010155145
0.010140972
0.010125195
0.01010751
0.010087832
0.010069773
0.010056632
0.010046964
0.010039056
0.010030992
0.010024864
0.010027524
0.01002911
0.026853601
0.019177392
0.015379588
0.012929386
0.011732021
0.011216291
0.010801444
0.010607558
0.01044388
0.01034718
0.010270005
0.010215318
0.010173595
0.010142556
0.010119357
0.010102173
0.010090521
0.01008205
0.010077114
0.010075004
0.010074392
0.01007706
0.010080547
0.010085167
0.01009078
0.010097216
0.010104287
0.01011184
0.010119736
0.010127863
0.010136116
0.01014439
0.010152593
0.01016064
0.010168467
0.010176015
0.010183242
0.010190108
0.010196582
0.010202639
0.010208255
0.010213411
0.010218088
0.010222264
0.010225924
0.010229052
0.010231628
0.010233638
0.010235078
0.010235953
0.010236273
0.010236048
0.01023529
0.010234003
0.01023219
0.010229842
0.01022695
0.01022349
0.010219428
0.010214707
0.010209261
0.010203022
0.010195932
0.01018792
0.010178888
0.010168697
0.010157175
0.010144155
0.010129542
0.010113338
0.010095411
0.010075526
0.010059285
0.010047454
0.010038823
0.010031774
0.01002454
0.010018873
0.010020475
0.010020563
0.02505739
0.019349165
0.014710492
0.012627572
0.011536918
0.011085505
0.010708512
0.010537169
0.010390802
0.010304534
0.010236244
0.010188126
0.010152082
0.010125812
0.01010682
0.010093264
0.010084655
0.010079507
0.010075892
0.010076156
0.010080315
0.010084026
0.010089275
0.010095602
0.010102769
0.010110571
0.010118837
0.010127412
0.010136155
0.01014495
0.010153692
0.010162283
0.010170633
0.010178662
0.01018631
0.010193531
0.010200288
0.010206555
0.010212317
0.010217558
0.010222273
0.010226456
0.010230103
0.010233206
0.010235763
0.01023777
0.010239218
0.010240099
0.010240414
0.010240175
0.010239394
0.010238089
0.010236272
0.010233953
0.010231134
0.010227805
0.010223953
0.010219556
0.010214581
0.010208977
0.010202685
0.010195642
0.010187799
0.010179092
0.010169428
0.010158672
0.010146648
0.01013317
0.010118093
0.010101383
0.010083216
0.010063806
0.010049257
0.010038741
0.010031125
0.010024932
0.010018656
0.010013554
0.010013981
0.010012817
0.023568511
0.01949043
0.014172756
0.012350867
0.01136067
0.010967343
0.010626431
0.010475491
0.010345303
0.010268793
0.01020909
0.010167418
0.010136972
0.010115452
0.010100663
0.010090861
0.0100843
0.010083613
0.010084492
0.010087214
0.010091362
0.010097388
0.010104492
0.010112453
0.010121049
0.010130079
0.01013937
0.010148765
0.010158124
0.01016733
0.010176281
0.010184887
0.010193068
0.010200754
0.010207897
0.010214463
0.010220431
0.010225792
0.010230545
0.010234695
0.01023825
0.010241224
0.010243625
0.010245462
0.010246745
0.010247477
0.010247664
0.010247302
0.010246397
0.01024496
0.01024301
0.010240563
0.010237636
0.01023424
0.010230373
0.010226028
0.010221184
0.010215821
0.010209905
0.010203394
0.010196233
0.010188366
0.010179748
0.010170322
0.010159998
0.010148648
0.010136095
0.010122134
0.010106592
0.010089353
0.010070792
0.010052714
0.010039776
0.01003056
0.010023943
0.010018599
0.01001336
0.010008945
0.010008326
0.010006644
0.022209848
0.019619008
0.013707058
0.012099478
0.011203195
0.010861447
0.010554998
0.01042225
0.010307719
0.010240433
0.010189046
0.010153752
0.010128855
0.010112098
0.010101504
0.010095744
0.010093874
0.010094484
0.010097756
0.010103029
0.010109873
0.0101178
0.010126629
0.010136079
0.010145922
0.010155954
0.010166007
0.010175925
0.010185572
0.010194835
0.010203622
0.010211859
0.01021948
0.010226434
0.010232692
0.010238237
0.010243069
0.010247198
0.010250644
0.010253429
0.01025558
0.010257125
0.01025809
0.010258496
0.010258361
0.010257701
0.010256526
0.01025484
0.010252648
0.010249963
0.010246801
0.010243181
0.010239118
0.010234621
0.01022969
0.010224312
0.010218465
0.010212125
0.01020526
0.010197834
0.010189797
0.010181098
0.010171695
0.010161534
0.010150532
0.010138564
0.010125459
0.010110996
0.010094989
0.01007732
0.010058214
0.010042329
0.010030914
0.010022963
0.010017339
0.010012834
0.01000864
0.010005061
0.010003741
0.010001592
0.020985311
0.019704476
0.013278519
0.011873396
0.011064059
0.010767834
0.010494349
0.010378018
0.0102784
0.010219982
0.010176695
0.010147768
0.010128416
0.010116463
0.010110113
0.010108042
0.010109319
0.010113366
0.010119426
0.010127079
0.010135939
0.010145703
0.010156057
0.010166741
0.01017753
0.010188221
0.01019865
0.010208671
0.01021816
0.010227021
0.010235178
0.010242578
0.010249183
0.010254968
0.010259926
0.010264067
0.010267413
0.010269997
0.010271856
0.010273032
0.010273569
0.010273509
0.010272888
0.010271739
0.010270089
0.010267958
0.010265362
0.010262307
0.0102588
0.010254848
0.010250465
0.010245667
0.010240467
0.010234872
0.010228878
0.010222473
0.01021563
0.010208321
0.010200516
0.010192182
0.010183275
0.010173749
0.01016356
0.01015266
0.010140968
0.010128364
0.010114691
0.010099721
0.010083226
0.010065316
0.010046712
0.010032697
0.010022732
0.010015989
0.010011354
0.010007677
0.010004456
0.01000184
0.01000033
0.0099977694
0.019883706
0.019709386
0.01289026
0.011670615
0.010942499
0.010686538
0.010444598
0.010343149
0.010257821
0.010208098
0.010172774
0.010150251
0.01013648
0.010129385
0.01012733
0.010129104
0.010133813
0.010140763
0.01014943
0.010159345
0.010170119
0.010181414
0.010192949
0.010204465
0.010215744
0.010226595
0.010236866
0.010246434
0.0102552
0.010263094
0.010270071
0.010276109
0.010281206
0.010285367
0.010288617
0.010290991
0.010292534
0.0102933
0.010293344
0.010292724
0.010291494
0.010289707
0.010287408
0.010284636
0.010281422
0.01027779
0.010273756
0.010269329
0.010264513
0.01025931
0.010253726
0.010247774
0.01024146
0.010234791
0.010227759
0.010220351
0.010212536
0.010204283
0.010195561
0.010186339
0.010176581
0.010166242
0.010155278
0.010143639
0.010131253
0.010118004
0.010103748
0.010088292
0.010071346
0.010053113
0.010036234
0.010023911
0.010015281
0.01000966
0.010006003
0.010003147
0.010000764
0.0099991725
0.0099981189
0.0099954339
0.018890785
0.019482249
0.012539798
0.011490095
0.010838317
0.010617794
0.01040606
0.010318312
0.010246713
0.010205686
0.010178251
0.010162209
0.010154073
0.010151883
0.010154131
0.010159674
0.010167666
0.01017746
0.010188506
0.01020035
0.010212615
0.010224973
0.010237146
0.010248893
0.010260015
0.010270349
0.010279773
0.010288202
0.010295579
0.010301874
0.010307083
0.010311226
0.010314335
0.010316455
0.010317638
0.010317943
0.010317437
0.010316189
0.010314267
0.010311736
0.010308659
0.010305094
0.010301088
0.010296682
0.01029191
0.010286795
0.010281352
0.010275587
0.010269501
0.01026309
0.010256354
0.010249294
0.010241914
0.010234213
0.010226185
0.010217812
0.010209064
0.010199906
0.010190303
0.010180226
0.010169644
0.010158517
0.010146796
0.010134428
0.010121351
0.010107459
0.010092607
0.010076665
0.010059479
0.010041239
0.010026786
0.010016025
0.010008607
0.010003996
0.010001276
0.0099992477
0.0099975629
0.0099969186
0.0099968413
0.0099942007
0.017992089
0.018612461
0.012224593
0.01133113
0.010751777
0.01056202
0.010379292
0.010304482
0.010246152
0.010213933
0.010194368
0.010184872
0.010182391
0.010185081
0.010191539
0.010200687
0.010211705
0.010223958
0.010236917
0.010250136
0.010263245
0.010275934
0.010287956
0.010299104
0.010309224
0.010318203
0.010325972
0.010332499
0.010337783
0.010341846
0.010344732
0.010346501
0.010347222
0.010346972
0.010345826
0.010343864
0.010341164
0.010337803
0.010333854
0.010329387
0.010324463
0.010319138
0.01031346
0.010307469
0.010301194
0.010294656
0.010287868
0.010280831
0.010273543
0.010265994
0.010258173
0.010250073
0.01024169
0.010233019
0.010224049
0.010214763
0.010205131
0.010195116
0.01018468
0.01017379
0.01016242
0.010150535
0.010138083
0.010125005
0.010111245
0.010096724
0.010081294
0.010064831
0.01004757
0.010030853
0.010018333
0.010009062
0.01000274
0.0099990163
0.0099971524
0.0099959605
0.0099949059
0.0099949551
0.0099959152
0.0099941664
0.017179838
0.017253963
0.011946896
0.011193482
0.010681965
0.01052016
0.010365364
0.010303086
0.010257601
0.01023432
0.010222587
0.010219622
0.010222705
0.010230098
0.010240479
0.010252821
0.010266328
0.010280379
0.010294463
0.01030816
0.010321139
0.010333137
0.010343964
0.010353484
0.010361613
0.010368313
0.010373586
0.010377466
0.010380012
0.010381302
0.01038142
0.010380464
0.010378531
0.010375717
0.010372114
0.01036781
0.010362886
0.01035742
0.010351482
0.010345136
0.010338439
0.010331441
0.010324184
0.010316702
0.01030902
0.010301156
0.010293116
0.010284899
0.010276496
0.010267893
0.010259071
0.010250013
0.010240704
0.010231134
0.010221288
0.010211149
0.010200691
0.010189874
0.010178659
0.010167006
0.010154889
0.010142279
0.01012913
0.010115374
0.010100948
0.010085806
0.01006986
0.010052987
0.010035601
0.010021638
0.010010886
0.010003
0.0099976924
0.0099947484
0.0099936127
0.0099932036
0.0099928215
0.0099934916
0.0099954247
0.0099954673
0.016449929
0.016398633
0.011712626
0.011077563
0.010629796
0.010493621
0.010365786
0.010315817
0.010282767
0.010268492
0.01026447
0.010267869
0.010276215
0.010287859
0.010301542
0.010316285
0.010331319
0.01034606
0.010360057
0.010372955
0.010384505
0.010394537
0.010402957
0.010409728
0.010414862
0.010418408
0.010420444
0.010421069
0.010420397
0.010418547
0.010415637
0.010411784
0.010407099
0.010401687
0.010395642
0.010389049
0.010381986
0.01037452
0.010366714
0.010358621
0.010350288
0.010341755
0.010333056
0.010324217
0.010315255
0.010306183
0.010297004
0.010287713
0.010278296
0.010268733
0.010259
0.010249071
0.010238923
0.010228534
0.010217888
0.010206964
0.010195739
0.010184179
0.010172241
0.010159882
0.010147066
0.010133769
0.010119955
0.010105563
0.010090514
0.010074757
0.010058309
0.01004138
0.010025458
0.010013479
0.010004385
0.0099977846
0.0099934389
0.0099912058
0.0099906556
0.0099908742
0.0099911714
0.0099924819
0.0099951657
0.0099962671
0.015794397
0.01539941
0.011512688
0.010983904
0.010596224
0.010484113
0.010382214
0.010344601
0.010323581
0.010318249
0.010321622
0.010330898
0.010343792
0.010358733
0.010374537
0.010390297
0.01040533
0.010419152
0.010431429
0.010441939
0.010450564
0.01045727
0.010462084
0.010465083
0.010466379
0.0104661
0.010464391
0.010461398
0.01045727
0.010452147
0.010446161
0.010439433
0.010432073
0.01042418
0.010415838
0.010407122
0.010398097
0.010388816
0.010379327
0.010369672
0.010359883
0.010349989
0.010340013
0.010329972
0.010319876
0.010309732
0.010299537
0.010289284
0.010278956
0.01026853
0.010257978
0.010247267
0.010236366
0.010225245
0.010213878
0.010202242
0.010190315
0.010178068
0.010165464
0.010152455
0.010138997
0.010125058
0.010110613
0.010095623
0.010080017
0.010063725
0.010046842
0.010029999
0.010016668
0.010006391
0.0099987544
0.0099933343
0.0099899125
0.0099883578
0.0099882841
0.0099889344
0.0099897917
0.0099916715
0.0099948489
0.0099977134
0.015207672
0.014725539
0.011349587
0.010913231
0.010582294
0.010493861
0.010416864
0.010391816
0.010382298
0.01038545
0.010395378
0.010409374
0.010425339
0.010441828
0.010457802
0.010472522
0.010485485
0.010496387
0.010505089
0.010511552
0.010515822
0.010518011
0.010518271
0.010516777
0.010513715
0.010509272
0.010503626
0.010496947
0.010489392
0.010481099
0.010472196
0.010462791
0.010452978
0.01044284
0.010432446
0.010421851
0.010411104
0.010400243
0.010389298
0.010378295
0.010367254
0.010356192
0.010345118
0.010334041
0.010322965
0.010311887
0.010300803
0.010289701
0.010278564
0.010267368
0.010256083
0.010244674
0.010233103
0.010221333
0.010209328
0.010197058
0.010184498
0.010171622
0.010158401
0.010144795
0.010130755
0.010116235
0.010101202
0.010085642
0.010069529
0.01005282
0.010035798
0.01002063
0.010009086
0.010000329
0.0099939415
0.0099895715
0.0099870172
0.0099861147
0.0099864599
0.0099874162
0.0099887245
0.009991224
0.0099947676
0.0099982633
0.01468418
0.013975698
0.011219972
0.010868207
0.010589814
0.010526241
0.010472815
0.010460202
0.010461022
0.01047125
0.010485839
0.010502297
0.010518806
0.010534182
0.010547667
0.010558809
0.010567382
0.010573336
0.010576756
0.010577796
0.010576657
0.010573571
0.010568775
0.010562503
0.010554978
0.010546401
0.010536956
0.010526804
0.010516085
0.010504922
0.010493417
0.010481657
0.010469713
0.010457644
0.010445498
0.010433313
0.010421116
0.01040893
0.010396769
0.010384644
0.010372561
0.010360524
0.010348533
0.010336587
0.010324682
0.010312809
0.01030096
0.010289121
0.010277274
0.010265395
0.010253456
0.010241421
0.010229253
0.010216907
0.010204342
0.010191518
0.010178401
0.010164961
0.010151174
0.010137012
0.01012244
0.010107409
0.010091863
0.010075776
0.010059195
0.010042292
0.010025662
0.010012749
0.010002725
0.009995251
0.0099899194
0.0099864471
0.0099846603
0.0099843507
0.0099850678
0.0099862514
0.0099878789
0.0099908751
0.0099948044
0.009998653
0.01422372
0.013398059
0.011128592
0.010853602
0.010622633
0.010585339
0.010553189
0.0105516
0.010560191
0.010574528
0.010590439
0.010605863
0.010619453
0.010630463
0.010638544
0.010643613
0.010645761
0.010645192
0.010642181
0.010637029
0.010630036
0.010621491
0.010611662
0.010600789
0.010589085
0.010576733
0.01056389
0.010550688
0.010537236
0.010523624
0.010509925
0.010496199
0.010482491
0.010468836
0.01045526
0.01044178
0.010428408
0.010415151
0.010402008
0.010388978
0.010376054
0.010363229
0.010350494
0.010337838
0.010325251
0.010312718
0.010300225
0.010287756
0.010275294
0.010262814
0.010250291
0.010237694
0.010224986
0.010212124
0.010199064
0.010185758
0.010172161
0.010158234
0.010143946
0.010129273
0.010114201
0.010098707
0.010082744
0.010066245
0.010049216
0.010032145
0.010017513
0.010006168
0.0099975009
0.0099911112
0.0099866667
0.0099839378
0.0099827782
0.0099829532
0.0099839911
0.0099854009
0.0099873162
0.0099906506
0.0099948864
0.0099988928
0.013831806
0.012938856
0.011077907
0.010874558
0.01070688
0.010674198
0.010659028
0.010664768
0.010676581
0.010690359
0.010703023
0.010713183
0.010720146
0.010723708
0.010723959
0.010721162
0.010715662
0.010707837
0.010698065
0.010686703
0.010674068
0.010660441
0.010646061
0.010631131
0.010615821
0.01060027
0.010584592
0.010568878
0.010553199
0.010537611
0.010522156
0.010506865
0.01049176
0.010476854
0.010462154
0.01044766
0.010433369
0.010419273
0.010405363
0.010391624
0.010378042
0.010364599
0.010351279
0.010338061
0.010324929
0.010311864
0.010298845
0.010285855
0.010272871
0.010259874
0.010246837
0.010233734
0.010220533
0.010207196
0.010193682
0.010179944
0.010165932
0.010151598
0.010136896
0.010121792
0.010106267
0.010090318
0.010073959
0.010057222
0.010040216
0.010023568
0.010010832
0.01000083
0.0099932922
0.0099878205
0.0099841233
0.0099820063
0.0099813312
0.0099818534
0.0099831291
0.0099847648
0.0099869855
0.009990573
0.0099950134
0.0099990331
0.013517738
0.012570068
0.011072015
0.010930866
0.010810367
0.010792048
0.010786557
0.010793415
0.010802227
0.010809857
0.010814472
0.0108155
0.010812915
0.010806992
0.010798152
0.010786861
0.010773581
0.010758732
0.010742685
0.01072576
0.010708222
0.010690287
0.010672134
0.010653901
0.0106357
0.010617618
0.010599719
0.010582054
0.010564657
0.010547553
0.010530755
0.010514273
0.010498105
0.010482249
0.010466695
0.010451432
0.010436443
0.010421713
0.01040722
0.010392943
0.010378861
0.010364948
0.010351181
0.010337535
0.010323986
0.010310509
0.010297079
0.010283675
0.010270271
0.010256844
0.010243371
0.010229826
0.01021618
0.010202404
0.010188462
0.010174313
0.010159915
0.010145221
0.010130182
0.010114755
0.010098899
0.010082581
0.010065798
0.010048646
0.010031624
0.01001692
0.010005458
0.009996597
0.0099899727
0.0099852529
0.0099821749
0.0099805614
0.0099802589
0.0099810135
0.0099824432
0.0099842713
0.0099867739
0.0099905417
0.0099950702
0.009999102
0.013298558
0.012303251
0.011113734
0.011029198
0.010944379
0.01093024
0.010925527
0.010926108
0.010925531
0.010922046
0.010915013
0.010904572
0.01089116
0.010875307
0.010857546
0.010838356
0.010818154
0.010797284
0.010776025
0.010754598
0.010733176
0.010711892
0.010690847
0.010670115
0.010649747
0.010629782
0.010610241
0.01059114
0.010572482
0.010554266
0.010536486
0.010519129
0.010502182
0.010485627
0.010469445
0.010453614
0.01043811
0.010422908
0.010407983
0.010393308
0.010378854
0.010364594
0.010350498
0.010336536
0.010322681
0.010308902
0.010295172
0.010281461
0.010267743
0.010253989
0.010240174
0.01022627
0.010212251
0.010198088
0.010183751
0.010169209
0.010154428
0.010139371
0.010124005
0.010108294
0.010092207
0.010075717
0.010058819
0.010041632
0.010024846
0.010011713
0.010001302
0.0099933362
0.0099874327
0.0099833028
0.0099807106
0.009979486
0.0099794605
0.0099803712
0.0099819111
0.0099839109
0.0099866533
0.0099905543
0.0099951217
0.0099990704
0.013172533
0.012137243
0.011209937
0.011158291
0.011093332
0.011075208
0.011061471
0.011049069
0.011034423
0.011017056
0.010997109
0.01097506
0.010951448
0.010926771
0.010901452
0.01087583
0.010850173
0.010824683
0.01079951
0.010774762
0.010750517
0.010726825
0.010703719
0.010681216
0.010659321
0.010638031
0.010617339
0.010597229
0.010577684
0.010558683
0.010540206
0.010522226
0.010504721
0.010487662
0.010471023
0.010454777
0.010438893
0.010423344
0.010408098
0.010393126
0.010378397
0.01036388
0.010349543
0.010335354
0.010321281
0.010307292
0.010293355
0.010279438
0.010265509
0.010251537
0.01023749
0.010223337
0.010209048
0.010194593
0.010179942
0.010165066
0.010149935
0.010134522
0.010118802
0.010102754
0.010086364
0.010069627
0.010052591
0.010035544
0.010019846
0.01000776
0.0099982032
0.0099909275
0.0099855884
0.0099819201
0.0099796945
0.0099787331
0.0099788703
0.0099798817
0.0099814869
0.0099836188
0.0099865138
0.0099904424
0.0099949732
0.0099988972
0.013109092
0.012066805
0.011370052
0.011301593
0.011240644
0.011208093
0.011178449
0.011149534
0.011119658
0.011088847
0.011057376
0.011025617
0.010993902
0.010962498
0.010931606
0.010901368
0.010871878
0.010843196
0.010815356
0.010788368
0.010762233
0.010736938
0.010712463
0.010688784
0.010665874
0.010643701
0.010622234
0.010601442
0.010581293
0.010561753
0.01054279
0.010524372
0.010506467
0.010489043
0.010472068
0.010455512
0.010439342
0.010423526
0.010408033
0.01039283
0.010377886
0.010363168
0.010348644
0.010334281
0.010320046
0.010305906
0.010291827
0.010277777
0.01026372
0.010249622
0.010235449
0.010221164
0.010206734
0.010192122
0.010177294
0.010162218
0.010146861
0.010131196
0.010115197
0.010098848
0.010082145
0.010065109
0.010047856
0.010030884
0.010016328
0.010004948
0.0099960308
0.0099892705
0.0099843616
0.0099810524
0.009979117
0.0099783701
0.0099784798
0.009979608
0.0099812334
0.0099834443
0.0099863795
0.0099901924
0.0099945535
0.0099985401
0.013120339
0.012027239
0.011525323
0.011435162
0.011362426
0.011311259
0.011264361
0.011220291
0.011177757
0.011136582
0.011096716
0.011058185
0.011021011
0.010985197
0.010950727
0.010917572
0.010885693
0.01085504
0.010825563
0.010797208
0.010769921
0.010743649
0.010718338
0.010693939
0.010670401
0.010647678
0.010625725
0.010604499
0.010583957
0.010564061
0.010544771
0.010526052
0.010507867
0.010490181
0.01047296
0.010456171
0.010439781
0.010423756
0.010408065
0.010392674
0.010377552
0.010362667
0.010347985
0.010333476
0.010319105
0.010304842
0.010290653
0.010276504
0.010262362
0.010248193
0.01023396
0.010219628
0.010205159
0.010190516
0.01017566
0.010160556
0.010145166
0.010129455
0.010113392
0.01009695
0.010080114
0.010062899
0.010045447
0.010028388
0.010014396
0.0100034
0.0099948386
0.0099883802
0.0099837219
0.0099806195
0.0099788589
0.009978259
0.0099782427
0.0099795697
0.0099812211
0.0099835231
0.0099864812
0.0099901514
0.0099942874
0.0099982794
0.013214548
0.012053609
0.011642168
0.011532159
0.011443881
0.011376666
0.011316776
0.011262317
0.011211651
0.011164127
0.011119301
0.011076878
0.01103663
0.010998371
0.010961942
0.010927204
0.010894035
0.010862323
0.010831968
0.010802879
0.010774972
0.010748172
0.010722408
0.010697613
0.010673728
0.010650696
0.010628465
0.010606985
0.01058621
0.010566097
0.010546603
0.01052769
0.01050932
0.010491456
0.010474063
0.010457107
0.010440553
0.010424368
0.01040852
0.010392976
0.010377705
0.010362674
0.010347851
0.010333206
0.010318706
0.01030432
0.010290016
0.010275763
0.010261528
0.010247278
0.010232978
0.010218595
0.010204093
0.010189436
0.010174588
0.010159515
0.010144183
0.010128562
0.010112623
0.010096341
0.010079701
0.010062719
0.010045514
0.010028641
0.010014444
0.010003386
0.0099947854
0.0099883237
0.0099836819
0.0099806014
0.009978849
0.0099782229
0.0099781544
0.0099795767
0.0099812536
0.009983627
0.0099866
0.0099901522
0.0099941069
0.0099981092
0.013340321
0.012110217
0.01170368
0.01158106
0.011482553
0.011406947
0.011340933
0.011281945
0.011227927
0.011177893
0.011131164
0.011087283
0.011045904
0.011006755
0.010969617
0.010934306
0.010900666
0.01086856
0.010837871
0.010808493
0.010780332
0.010753304
0.01072733
0.010702343
0.010678276
0.01065507
0.010632672
0.010611029
0.010590094
0.010569822
0.010550171
0.010531101
0.010512573
0.010494551
0.010476999
0.010459882
0.010443166
0.010426819
0.010410807
0.010395099
0.010379662
0.010364464
0.010349475
0.010334662
0.010319995
0.010305442
0.010290973
0.010276554
0.010262155
0.010247742
0.010233281
0.010218739
0.01020408
0.010189267
0.010174264
0.010159039
0.010143557
0.010127789
0.010111707
0.010095287
0.010078516
0.010061416
0.010044132
0.010027312
0.010013685
0.010002901
0.0099945144
0.0099881939
0.00998365
0.0099806282
0.0099788989
0.0099782774
0.0099783309
0.0099795093
0.009981262
0.0099836656
0.0099866438
0.0099901258
0.0099939814
0.0099980123
66.950595
364.26323
122.55956
14.788231
0.40851039
0.021532586
0.020196111
0.019882909
0.01960893
0.018545222
0.017198972
0.016008402
0.015104903
0.014529741
0.014121799
0.013734811
0.013357111
0.013022648
0.012742668
0.01250881
0.012310067
0.01213862
0.011989295
0.011858323
0.011742693
0.011639913
0.011547973
0.011465272
0.011390555
0.011322833
0.011261288
0.011205204
0.011153958
0.011107025
0.01106399
0.01102452
0.010988328
0.010955162
0.010924787
0.010896993
0.010871596
0.010848412
0.010827263
0.010807976
0.010790389
0.010774339
0.010759666
0.010746216
0.010733859
0.010722476
0.010711955
0.010702181