/*--------------------------------*- C++ -*----------------------------------*\
  =========                 |
  \\      /  F ield         | OpenFOAM: The Open Source CFD Toolbox
   \\    /   O peration     | Website:  https://openfoam.org
    \\  /    A nd           | Version:  12
     \\/     M anipulation  |
\*---------------------------------------------------------------------------*/
FoamFile
{
    format      ascii;
    class       volScalarField;
    location    "0.144";
    object      Ma;
}
// * * * * * * * * * * * * * * * * * * * * * * * * * * * * * * * * * * * * * //

dimensions      [];

internalField   nonuniform List<scalar> 
16000
(
0.62668922
0.74443064
0.6994518
0.72409457
0.70907597
0.71598093
0.71028781
0.71179285
0.70914763
0.70869684
0.70707193
0.70593293
0.70451541
0.70313159
0.70166555
0.70015296
0.69858262
0.69695608
0.69527213
0.69353027
0.69173012
0.68987154
0.68795462
0.68597974
0.68394759
0.68185921
0.67971598
0.67751968
0.67527248
0.67297697
0.67063619
0.66825356
0.66583298
0.66337872
0.66089547
0.65838828
0.65586254
0.65332392
0.65077832
0.64823183
0.64569062
0.64316093
0.64064895
0.63816073
0.63570216
0.63327887
0.63089614
0.62855888
0.62627156
0.62403819
0.62186223
0.61974665
0.61769385
0.61570568
0.61378341
0.61192775
0.61013882
0.60841621
0.6067589
0.60516523
0.60363285
0.60215911
0.6007409
0.5993743
0.59805445
0.59677546
0.59553053
0.59431244
0.59311429
0.59192958
0.59075146
0.58957119
0.5883782
0.58716321
0.58592326
0.58466016
0.58331617
0.5822242
0.58014639
0.58000702
0.63120071
0.74968564
0.70308191
0.72876875
0.71292762
0.72029805
0.71415891
0.71578387
0.71295669
0.7124343
0.7107222
0.70946785
0.70795902
0.70646104
0.7048863
0.70325698
0.70156724
0.69981697
0.69800558
0.69613265
0.69419804
0.69220189
0.69014464
0.68802707
0.68585034
0.68361597
0.68132592
0.67898256
0.67658873
0.67414772
0.67166327
0.6691396
0.66658135
0.66399359
0.66138179
0.65875175
0.65610957
0.6534616
0.65081435
0.6481744
0.64554839
0.64294283
0.64036411
0.63781839
0.63531147
0.63284882
0.63043542
0.62807579
0.62577389
0.62353314
0.62135637
0.61924583
0.61720321
0.61522959
0.61332553
0.61149101
0.60972548
0.60802787
0.60639658
0.60482945
0.6033237
0.60187622
0.6004836
0.59914176
0.59784578
0.59658975
0.59536677
0.59416944
0.59299053
0.59182336
0.59066105
0.58949503
0.58831465
0.58711016
0.58587617
0.58460818
0.58332064
0.58204852
0.58037544
0.57968976
0.63542559
0.75450244
0.70662543
0.7328602
0.71656296
0.72403555
0.71773736
0.71925143
0.71636876
0.71568951
0.71390892
0.7125165
0.71090304
0.70927796
0.70757836
0.70581769
0.70399268
0.70210295
0.70014817
0.69812825
0.69604338
0.69389411
0.69168135
0.68940637
0.68707091
0.68467711
0.68222761
0.67972554
0.67717451
0.67457866
0.67194263
0.66927152
0.66657091
0.6638468
0.66110555
0.65835384
0.65559858
0.65284685
0.65010577
0.64738247
0.64468393
0.64201693
0.63938792
0.636803
0.63426776
0.63178729
0.62936608
0.62700803
0.62471637
0.62249372
0.62034203
0.61826267
0.61625636
0.61432331
0.61246314
0.61067498
0.60895748
0.60730879
0.60572664
0.60420827
0.60275041
0.60134947
0.6000017
0.59870278
0.59744771
0.59623054
0.59504438
0.59388174
0.59273522
0.59159796
0.59046311
0.5893224
0.58816536
0.5869815
0.58576406
0.58451363
0.58324618
0.58191328
0.5804182
0.57949874
0.63929039
0.75890517
0.70969453
0.73644668
0.71974083
0.72731962
0.72085648
0.72223953
0.71929319
0.71843718
0.7165738
0.71502706
0.71329087
0.71152243
0.70968038
0.70777145
0.70579436
0.7037487
0.7016345
0.69945201
0.69720186
0.69488505
0.69250302
0.69005767
0.68755138
0.68498707
0.68236821
0.67969883
0.67698353
0.67422746
0.67143631
0.66861628
0.66577402
0.66291658
0.66005134
0.65718589
0.65432798
0.65148539
0.64866582
0.64587677
0.64312547
0.64041873
0.63776289
0.6351637
0.63262629
0.63015509
0.62775383
0.6254255
0.62317238
0.62099602
0.6188973
0.61687647
0.61493319
0.61306658
0.61127528
0.60955748
0.60791092
0.606333
0.60482073
0.60337078
0.60197933
0.60064241
0.59935591
0.59811532
0.59691558
0.59575077
0.59461406
0.59349793
0.59239484
0.59129778
0.59019999
0.58909355
0.58796815
0.58681253
0.58562001
0.584395
0.58314173
0.58180592
0.58042342
0.57933161
0.642778
0.76282302
0.71251705
0.73939773
0.72230495
0.7300405
0.72346017
0.72465305
0.72166124
0.72059403
0.71863708
0.7169183
0.71504081
0.71311333
0.71111175
0.70903844
0.70689312
0.70467556
0.70238608
0.70002532
0.69759437
0.69509481
0.69252877
0.68989892
0.68720856
0.6844616
0.6816626
0.67881675
0.6759299
0.67300846
0.67005942
0.66709027
0.66410889
0.66112352
0.65814261
0.65517472
0.65222837
0.64931196
0.6464336
0.64360101
0.64082138
0.6381013
0.63544664
0.63286254
0.63035329
0.62792236
0.62557237
0.62330513
0.62112164
0.61902219
0.61700635
0.6150731
0.61322087
0.61144763
0.60975092
0.60812794
0.60657557
0.60509039
0.60366875
0.60230673
0.60100007
0.5997444
0.59853533
0.59736821
0.59623794
0.5951387
0.59406381
0.5930058
0.59195708
0.59091052
0.58985948
0.58879646
0.58771131
0.58659242
0.58543407
0.58424104
0.58300755
0.58169535
0.5803829
0.57918395
0.64583948
0.76617288
0.71487789
0.74189286
0.7245241
0.73211979
0.7254118
0.72641396
0.7233818
0.72208763
0.72002475
0.7181229
0.71608802
0.71398839
0.71181192
0.70955857
0.70722852
0.70482192
0.70233954
0.69978263
0.69715302
0.69445317
0.6916862
0.68885593
0.68596691
0.68302438
0.68003435
0.67700352
0.67393925
0.67084951
0.66774281
0.6646281
0.66151465
0.65841191
0.6553294
0.65227655
0.64926252
0.64629611
0.64338555
0.64053842
0.63776154
0.63506085
0.63244138
0.62990717
0.62746132
0.62510593
0.62284217
0.62067033
0.61858991
0.61659966
0.61469771
0.61288162
0.61114853
0.60949517
0.60791802
0.6064133
0.60497703
0.60360509
0.6022932
0.60103695
0.59983171
0.59867282
0.59755566
0.59647551
0.59542731
0.59440543
0.59340338
0.5924139
0.59142937
0.59044263
0.58944719
0.58843594
0.58739893
0.58632479
0.5852087
0.58405334
0.5828477
0.5815752
0.58031977
0.57904196
0.64844583
0.76893711
0.71678791
0.74389375
0.72627822
0.73353791
0.72686147
0.72748714
0.72446717
0.72289667
0.72071342
0.7186174
0.71640521
0.71411496
0.71174219
0.70928637
0.70674824
0.70412876
0.70142952
0.69865279
0.69580155
0.69287954
0.68989128
0.68684214
0.68373829
0.68058674
0.67739529
0.67417246
0.67092745
0.66767003
0.6644104
0.66115909
0.65792675
0.65472401
0.6515613
0.64844868
0.64539564
0.64241097
0.63950261
0.63667751
0.63394159
0.63129964
0.62875531
0.62631109
0.62396838
0.62172754
0.61958792
0.61754802
0.61560558
0.61375768
0.61200086
0.61033125
0.60874465
0.60723664
0.60580265
0.60443803
0.60313806
0.60189799
0.60071307
0.5995785
0.59848941
0.59744094
0.59642838
0.59544702
0.59449191
0.59355767
0.59263816
0.59172634
0.59081473
0.58989619
0.58896436
0.58801247
0.58703095
0.58600921
0.58494286
0.58383076
0.58266083
0.58143949
0.58023647
0.57889965
0.65063784
0.77114565
0.71828756
0.74542858
0.72762346
0.73451653
0.72782064
0.72831373
0.72489234
0.72304288
0.72070366
0.71838731
0.71596354
0.71345086
0.71084901
0.70815817
0.70537982
0.70251603
0.6995696
0.69654414
0.69344417
0.69027512
0.68704336
0.68375621
0.68042191
0.67704962
0.67364931
0.67023167
0.66680798
0.66338997
0.65998962
0.656619
0.65329001
0.65001422
0.64680262
0.64366545
0.640612
0.63765048
0.63478789
0.63202993
0.62938095
0.62684395
0.6244206
0.62211132
0.61991537
0.61783093
0.61585527
0.61398487
0.61221558
0.61054272
0.60896126
0.60746593
0.6060513
0.6047119
0.60344228
0.60223705
0.60109093
0.59999872
0.59895534
0.5979558
0.59699508
0.5960683
0.59517076
0.59429785
0.59344486
0.59260672
0.5917777
0.59095115
0.59011979
0.58927656
0.58841525
0.58752931
0.5866098
0.58564742
0.58463739
0.58357372
0.58244722
0.58128702
0.58013458
0.57875241
0.65248248
0.77282666
0.71933426
0.74649543
0.72831259
0.73455761
0.72795345
0.72765514
0.72460677
0.72247305
0.71992867
0.71735596
0.7146786
0.71190424
0.70903437
0.70607041
0.70301491
0.69987131
0.69664403
0.69333852
0.6899613
0.68652
0.68302336
0.6794812
0.67590433
0.67230447
0.66869416
0.66508652
0.66149508
0.65793358
0.65441567
0.65095472
0.64756351
0.64425405
0.64103728
0.63792291
0.63491927
0.63203317
0.62926984
0.62663288
0.62412433
0.6217447
0.61949308
0.6173673
0.61536406
0.61347911
0.61170744
0.61004343
0.60848102
0.60701387
0.60563549
0.60433938
0.60311907
0.60196825
0.60088082
0.59985089
0.59887282
0.59794118
0.59705076
0.59619651
0.59537351
0.59457695
0.5938023
0.59304514
0.59230107
0.59156544
0.59083301
0.59009758
0.58935223
0.58859007
0.58780493
0.58699039
0.58613848
0.58524153
0.58429339
0.58328277
0.58220719
0.58111636
0.58001299
0.57859865
0.65397821
0.77395358
0.71985356
0.74689667
0.72827851
0.73405546
0.72748433
0.72679986
0.72355249
0.72106704
0.71826782
0.71540123
0.71242692
0.70934851
0.70616857
0.70289026
0.69951782
0.69605667
0.69251348
0.68889618
0.68521401
0.6814775
0.67769842
0.67388969
0.67006524
0.66623984
0.66242884
0.65864795
0.65491293
0.6512393
0.64764202
0.64413522
0.64073184
0.63744346
0.63428003
0.63124971
0.62835879
0.62561163
0.62301068
0.62055654
0.61824813
0.61608278
0.6140565
0.61216414
0.61039963
0.60875617
0.60722647
0.6058029
0.6044777
0.60324307
0.60209135
0.60101507
0.60000704
0.59906042
0.59816872
0.59732583
0.596526
0.5957638
0.59503412
0.59433205
0.59365289
0.59299209
0.59234538
0.59170868
0.59107795
0.59044903
0.58981721
0.58917689
0.5885216
0.58784472
0.58714
0.5864011
0.58562133
0.58479479
0.5839129
0.58295943
0.58194188
0.58092604
0.57986969
0.57843812
0.65506348
0.77442485
0.71976876
0.74577017
0.72747021
0.73270466
0.72622699
0.7249487
0.72156911
0.71870759
0.71559613
0.71239005
0.7090697
0.70563907
0.70210201
0.69846403
0.69473181
0.69091356
0.68701907
0.68305964
0.67904813
0.67499881
0.67092728
0.66685022
0.66278516
0.65875017
0.65476356
0.65084346
0.64700749
0.64327235
0.63965348
0.63616472
0.63281802
0.62962321
0.62658787
0.62371725
0.62101428
0.61847965
0.61611197
0.61390798
0.61186275
0.60997
0.60822233
0.60661151
0.6051287
0.60376473
0.60251028
0.60135603
0.60029286
0.59931192
0.59840475
0.59756332
0.59678009
0.59604803
0.59536059
0.59471174
0.59409588
0.59350783
0.59294276
0.59239612
0.59186355
0.59134091
0.59082433
0.5903101
0.58979466
0.58927435
0.58874508
0.5882019
0.58763895
0.5870499
0.58642835
0.58576804
0.58506384
0.58431137
0.58349877
0.58260624
0.58165352
0.58071541
0.57970187
0.57827107
0.65564817
0.77407488
0.71896767
0.74396906
0.72604107
0.73043425
0.72403268
0.72214716
0.71853509
0.71525706
0.71176952
0.70816903
0.70444662
0.70060895
0.69666215
0.69261492
0.68847752
0.68426213
0.67998285
0.67565554
0.67129775
0.66692847
0.66256783
0.65823679
0.65395673
0.649749
0.64563449
0.64163312
0.6377634
0.63404197
0.63048325
0.62709913
0.62389875
0.62088841
0.61807158
0.61544897
0.61301876
0.61077683
0.60871705
0.60683166
0.60511158
0.60354675
0.60212646
0.60083962
0.59967501
0.59862151
0.59766824
0.59680475
0.59602106
0.59530779
0.59465616
0.59405803
0.59350593
0.59299298
0.59251293
0.59206009
0.59162929
0.5912158
0.59081526
0.59042361
0.59003702
0.58965184
0.58926469
0.58887234
0.5884717
0.58805966
0.58763276
0.58718679
0.58671661
0.58621625
0.5856791
0.58509908
0.58447268
0.58379641
0.58305476
0.58222684
0.58134576
0.58048574
0.57950773
0.57809928
0.65566935
0.77282861
0.71731268
0.74143583
0.7237388
0.72714318
0.72077678
0.7182304
0.7143025
0.71055675
0.70662077
0.70255941
0.69836945
0.69406175
0.6896464
0.68513678
0.68054835
0.67589886
0.67120819
0.6664981
0.6617919
0.65711405
0.65248974
0.64794431
0.6435027
0.63918887
0.63502516
0.63103174
0.62722611
0.62362268
0.6202325
0.6170631
0.61411849
0.61139932
0.60890307
0.60662442
0.60455564
0.60268703
0.60100734
0.59950421
0.59816454
0.59697489
0.59592174
0.59499177
0.59417205
0.59345021
0.59281453
0.59225407
0.59175863
0.59131884
0.59092613
0.59057272
0.59025157
0.58995634
0.58968136
0.58942155
0.58917235
0.58892967
0.58868979
0.58844925
0.58820482
0.58795348
0.58769238
0.58741881
0.58713018
0.58682395
0.58649727
0.58614672
0.58576797
0.58535543
0.58490242
0.58440318
0.58385557
0.58325596
0.58258556
0.581826
0.58102301
0.58023911
0.57928741
0.57792643
0.65510728
0.77058802
0.71473299
0.73780828
0.72042353
0.72271784
0.71631008
0.71305146
0.70869706
0.70441215
0.69994247
0.69533964
0.69060566
0.68575735
0.68081108
0.67578702
0.6707078
0.66559851
0.66048634
0.65540006
0.65036959
0.64542524
0.6405971
0.6359142
0.63140376
0.62709043
0.62299555
0.61913669
0.6155272
0.61217604
0.60908775
0.60626266
0.60369722
0.60138442
0.59931434
0.59747467
0.59585137
0.5944291
0.59319179
0.59212307
0.5912066
0.59042642
0.58976714
0.58921416
0.58875375
0.58837315
0.5880606
0.58780536
0.58759768
0.58742875
0.58729069
0.58717647
0.58707985
0.58699532
0.586918
0.58684362
0.58676842
0.58668906
0.58660255
0.58650613
0.58639724
0.58627352
0.58613269
0.58597261
0.58579119
0.58558639
0.58535601
0.58509741
0.58480706
0.58447985
0.58410926
0.58369014
0.58322105
0.58269688
0.58209691
0.58140952
0.58069012
0.57997763
0.57904559
0.57775002
0.65390383
0.76718264
0.71117523
0.73300591
0.71593667
0.71698956
0.71043241
0.7063935
0.70148493
0.69656576
0.69146224
0.68622473
0.68086306
0.67540234
0.66986794
0.6642891
0.65869766
0.65312778
0.64761522
0.64219665
0.63690868
0.6317869
0.62686478
0.62217268
0.61773691
0.61357895
0.60971494
0.60615547
0.60290553
0.59996477
0.59732804
0.5949859
0.5929254
0.59113081
0.58958436
0.58826693
0.58715866
0.58623952
0.58548975
0.58489018
0.58442252
0.58406954
0.5838152
0.58364472
0.58354459
0.58350255
0.58350758
0.58354981
0.58362049
0.58371186
0.58381711
0.58393029
0.58404622
0.5841604
0.58426895
0.58436852
0.58445622
0.58452955
0.5845863
0.58462446
0.58464215
0.58463768
0.58460939
0.58455566
0.58447493
0.58436562
0.58422612
0.58405454
0.58384809
0.58360224
0.58331107
0.58297028
0.58257819
0.58212685
0.58159559
0.58098409
0.58035286
0.57970462
0.57878579
0.57757445
0.65200415
0.76237422
0.7066821
0.7268364
0.71007055
0.709733
0.70287444
0.69795908
0.69234719
0.68667594
0.68082745
0.6748578
0.66878843
0.66265525
0.6564954
0.65034969
0.64426133
0.63827505
0.63243598
0.62678824
0.62137353
0.61622965
0.61138927
0.60687887
0.60271803
0.59891909
0.59548727
0.592421
0.58971262
0.58734926
0.58531379
0.58358581
0.58214267
0.58096033
0.58001416
0.57927957
0.57873258
0.57835018
0.57811064
0.5779937
0.57798069
0.57805454
0.57819983
0.57840268
0.57865073
0.57893303
0.57923993
0.57956299
0.57989486
0.5802292
0.58056054
0.58088421
0.58119623
0.58149325
0.58177245
0.58203146
0.58226831
0.58248133
0.58266911
0.58283037
0.58296394
0.58306876
0.58314377
0.58318789
0.58320003
0.58317907
0.58312391
0.58303328
0.58290504
0.58273535
0.58251944
0.58225405
0.58193622
0.58155422
0.58108966
0.5805569
0.58001711
0.57942693
0.57851681
0.57740265
0.6493506
0.75577516
0.70114186
0.71903678
0.70251736
0.70060237
0.69324867
0.68733487
0.68086012
0.67430947
0.66760695
0.66081842
0.65398133
0.6471461
0.64036516
0.63369389
0.62718862
0.6209049
0.61489536
0.60920775
0.60388309
0.59895424
0.59444497
0.59036958
0.58673303
0.58353161
0.58075391
0.57838207
0.57639315
0.57476045
0.57345485
0.57244594
0.57170299
0.57119577
0.57089512
0.57077344
0.57080498
0.57096598
0.57123479
0.57159186
0.57201969
0.57250271
0.57302719
0.57358109
0.57415394
0.57473665
0.57532143
0.5759016
0.5764715
0.57702637
0.57756222
0.57807574
0.57856424
0.57902551
0.5794578
0.57985974
0.58023023
0.58056842
0.58087363
0.5811453
0.58138292
0.58158604
0.58175415
0.58188669
0.58198301
0.58204243
0.58206429
0.58204778
0.58199122
0.58189164
0.58174585
0.5815517
0.58130426
0.58098794
0.58058851
0.58013545
0.57968657
0.57915176
0.57825517
0.57722697
0.64580918
0.74671705
0.69393878
0.70915537
0.69282066
0.6891223
0.68104954
0.67400403
0.66650892
0.6589548
0.6513045
0.64363896
0.63601822
0.62851274
0.62119391
0.61413285
0.60739717
0.60104804
0.59513767
0.58970722
0.58478563
0.58038916
0.57652176
0.57317611
0.57033514
0.56797381
0.56606105
0.5645616
0.56343774
0.56265078
0.56216224
0.56193486
0.5619332
0.56212419
0.56247738
0.56296506
0.56356229
0.56424683
0.56499899
0.56580151
0.56663931
0.56749934
0.56837039
0.56924285
0.57010859
0.57096073
0.57179354
0.57260229
0.57338309
0.57413278
0.57484889
0.57552946
0.57617302
0.57677848
0.57734511
0.57787244
0.5783602
0.5788083
0.57921673
0.57958556
0.5799149
0.58020484
0.58045539
0.58066646
0.58083782
0.58096921
0.58106035
0.58111067
0.58111885
0.58108288
0.58100134
0.58087305
0.58069093
0.58043683
0.580102
0.57972753
0.57936263
0.57887997
0.57800876
0.5770572
0.64109226
0.73520176
0.68464438
0.69663079
0.68040081
0.67473146
0.66567561
0.65734684
0.64867891
0.6400143
0.63136338
0.62283092
0.61450626
0.60648284
0.59884895
0.5916844
0.58505657
0.5790176
0.57360282
0.56883028
0.56470159
0.56120357
0.5583106
0.55598723
0.554191
0.55287493
0.55198986
0.55148629
0.55131593
0.55143275
0.55179374
0.55235936
0.55309379
0.55396487
0.55494412
0.55600647
0.55713005
0.55829593
0.55948781
0.56069181
0.5618961
0.56309077
0.5642675
0.56541942
0.5665409
0.56762737
0.5686752
0.56968154
0.57064424
0.5715617
0.57243282
0.57325693
0.57403367
0.57476297
0.57544501
0.57608012
0.57666879
0.57721157
0.57770906
0.57816189
0.57857069
0.57893604
0.57925838
0.57953806
0.57977527
0.57997014
0.58012269
0.58023248
0.58029844
0.58031955
0.58029597
0.58022707
0.58010402
0.57990847
0.57963852
0.57934094
0.57904889
0.57860984
0.57777482
0.5769136
0.63483928
0.72225051
0.67269974
0.68087518
0.66453957
0.65670828
0.64635859
0.636576
0.62661789
0.61681007
0.60722276
0.59799009
0.58922779
0.58104233
0.57352203
0.56673384
0.56072102
0.55550296
0.55107668
0.54741959
0.54449314
0.54224679
0.54062195
0.53955556
0.53898308
0.53884099
0.53906845
0.53960863
0.54040942
0.54142374
0.54260966
0.54393022
0.54535319
0.54685066
0.54839868
0.54997686
0.55156791
0.55315732
0.554733
0.55628493
0.55780491
0.55928629
0.56072377
0.56211316
0.56345128
0.56473574
0.56596487
0.56713757
0.56825325
0.56931171
0.57031308
0.57125781
0.57214652
0.57298002
0.57375927
0.5744853
0.57515923
0.57578216
0.57635521
0.57687949
0.57735606
0.57778589
0.57816984
0.5785086
0.57880278
0.57905287
0.5792591
0.57942115
0.57953826
0.57961028
0.57963842
0.57962182
0.57955062
0.57940915
0.57920372
0.57898128
0.57875185
0.57834494
0.57755249
0.57680094
0.62672341
0.70529495
0.65727055
0.66100146
0.64419264
0.63399372
0.6220663
0.61072699
0.59950953
0.58873435
0.57852805
0.56904094
0.56038979
0.55266227
0.54591169
0.54015775
0.53538921
0.53156852
0.52863752
0.5265235
0.52514492
0.52441638
0.5242527
0.5245719
0.52529728
0.52635872
0.52769322
0.52924506
0.5309656
0.53281277
0.5347506
0.53674852
0.5387808
0.54082591
0.542866
0.54488634
0.54687493
0.54882206
0.55071997
0.55256258
0.55434518
0.55606425
0.55771727
0.55930253
0.56081902
0.5622663
0.5636444
0.56495376
0.56619511
0.56736943
0.56847794
0.56952197
0.57050299
0.57142255
0.57228223
0.57308367
0.57382847
0.5745182
0.57515443
0.57573863
0.57627222
0.5767565
0.57719264
0.57758168
0.57792455
0.57822206
0.57847462
0.57868209
0.57884415
0.57896145
0.57903547
0.5790643
0.57903767
0.57894497
0.57880145
0.57865075
0.57847669
0.57809543
0.57735149
0.57673022
0.61609859
0.6833603
0.63696139
0.63559304
0.61788505
0.60519966
0.59162588
0.57889494
0.56679007
0.55560814
0.54549062
0.53655826
0.52887673
0.52246454
0.51729616
0.51331021
0.51041849
0.50851532
0.507486
0.50721384
0.50758556
0.50849495
0.50984515
0.51154975
0.51353299
0.51572947
0.51808335
0.52054748
0.52308242
0.52565542
0.52823951
0.53081267
0.53335706
0.53585835
0.53830516
0.54068862
0.54300186
0.54523977
0.54739862
0.54947588
0.55146997
0.55338011
0.55520617
0.55694855
0.55860809
0.56018596
0.56168362
0.56310273
0.56444513
0.56571278
0.56690772
0.56803204
0.56908788
0.57007736
0.5710026
0.57186567
0.5726686
0.57341332
0.57410173
0.57473562
0.57531669
0.57584649
0.57632645
0.57675787
0.57714199
0.57747981
0.57777192
0.57801846
0.57821975
0.57837708
0.57849162
0.57855998
0.57857214
0.5785233
0.57843604
0.57834823
0.57822267
0.57787559
0.5771995
0.57668656
0.60181161
0.65434184
0.60985412
0.60289225
0.58400687
0.56894846
0.55414714
0.54072322
0.52864124
0.51811742
0.50922424
0.50197878
0.49633083
0.49218096
0.48939402
0.48781428
0.48727813
0.48762427
0.4887007
0.49036911
0.49250705
0.49500837
0.49778264
0.50075396
0.50385928
0.50704684
0.51027448
0.51350819
0.51672074
0.51989056
0.52300071
0.52603812
0.52899279
0.53185734
0.53462641
0.53729638
0.53986495
0.54233097
0.54469416
0.54695494
0.54911433
0.55117379
0.55313513
0.55500045
0.55677204
0.55845237
0.560044
0.56154959
0.56297181
0.56431337
0.56557699
0.56676531
0.567881
0.56892661
0.56990468
0.57081762
0.57166778
0.57245737
0.57318856
0.57386338
0.57448373
0.57505137
0.57556794
0.57603496
0.57645385
0.57682575
0.5771514
0.57743132
0.57766651
0.57785875
0.57800862
0.57811159
0.57815885
0.57815092
0.57811367
0.57807594
0.57798735
0.57768125
0.57709391
0.5766682
0.58189075
0.61589334
0.57375754
0.56109818
0.54153871
0.52454006
0.50966105
0.496967
0.48642555
0.47807947
0.47183129
0.46752123
0.46493803
0.46384749
0.46401158
0.46520354
0.46721707
0.46987095
0.47301024
0.47650531
0.48024947
0.48415616
0.48815597
0.4921938
0.49622635
0.50021992
0.50414859
0.50799268
0.5117375
0.51537233
0.51888963
0.52228437
0.52555347
0.52869544
0.53170999
0.53459783
0.53736036
0.53999959
0.54251796
0.54491824
0.54720344
0.54937674
0.55144145
0.55340095
0.55525865
0.55701797
0.55868232
0.56025508
0.56173956
0.56313902
0.56445666
0.56569558
0.56685879
0.56794921
0.56896964
0.56992278
0.57081118
0.57163731
0.57240352
0.57311201
0.57376484
0.57436395
0.57491114
0.57540808
0.57585632
0.57625707
0.57661122
0.5769197
0.57718405
0.57740619
0.57758609
0.57771899
0.57779858
0.57782998
0.57783851
0.57784102
0.57777783
0.57750677
0.57701228
0.5767173
0.55372242
0.56550864
0.52731244
0.50886105
0.48820522
0.47272063
0.45973372
0.44984426
0.44278759
0.43832062
0.43609693
0.43575292
0.43693075
0.43930388
0.44258757
0.44654254
0.4509731
0.45572259
0.46066768
0.46571267
0.47078416
0.47582654
0.48079824
0.48566858
0.49041539
0.49502306
0.499481
0.50378252
0.50792386
0.51190349
0.51572162
0.5193797
0.52288016
0.52622611
0.52942117
0.53246932
0.53537478
0.53814192
0.54077519
0.54327909
0.54565809
0.54791663
0.5500591
0.55208979
0.55401292
0.55583261
0.55755285
0.55917753
0.56071044
0.56215522
0.56351541
0.56479442
0.56599552
0.56712186
0.56817647
0.56916222
0.57008185
0.57093797
0.57173307
0.5724695
0.57314944
0.57377496
0.57434798
0.5748703
0.57534352
0.57576895
0.57614765
0.57648088
0.57677045
0.57701808
0.57722315
0.57738148
0.57748993
0.57755721
0.57760581
0.57764193
0.57760404
0.5773782
0.57697791
0.5767587
0.51319186
0.50064412
0.46341211
0.44550754
0.42808043
0.41587515
0.4075634
0.40292938
0.40131898
0.40214603
0.40484159
0.4089185
0.41397445
0.41969103
0.42582279
0.43218472
0.43863973
0.44508785
0.45145734
0.45769763
0.46377389
0.46966296
0.47535026
0.48082747
0.48609082
0.49113983
0.49597641
0.50060409
0.50502758
0.50925234
0.51328437
0.51712991
0.52079538
0.52428724
0.52761189
0.53077566
0.53378472
0.53664513
0.53936272
0.54194319
0.54439203
0.54671453
0.54891583
0.55100085
0.55297435
0.5548409
0.55660491
0.55827062
0.55984211
0.5613233
0.56271795
0.56402966
0.56526191
0.56641799
0.56750108
0.56851417
0.56946012
0.57034166
0.57116137
0.5719217
0.57262493
0.57327322
0.5738686
0.57441294
0.57490791
0.57535491
0.57575522
0.57611036
0.57642217
0.57669193
0.57691872
0.57709938
0.57723348
0.577331
0.57740974
0.57746806
0.57745048
0.5772748
0.57697767
0.57685906
0.45137771
0.41880715
0.38910502
0.37425735
0.36342092
0.35861995
0.35805455
0.36080574
0.36588209
0.37252378
0.38014533
0.38832212
0.3967537
0.40523294
0.41362019
0.42182367
0.42978505
0.43746916
0.44485678
0.45193949
0.45871619
0.46519064
0.47136971
0.47726227
0.48287833
0.4882285
0.49332361
0.49817446
0.50279164
0.50718546
0.51136582
0.51534225
0.51912384
0.52271927
0.5261368
0.5293843
0.53246925
0.53539875
0.5381796
0.54081824
0.54332081
0.54569317
0.54794091
0.55006937
0.55208364
0.5539886
0.5557889
0.557489
0.55909317
0.56060549
0.56202986
0.56337003
0.56462957
0.56581188
0.56692023
0.56795769
0.56892719
0.56983155
0.57067341
0.57145527
0.5721795
0.57284832
0.57346382
0.57402794
0.57454241
0.57500875
0.57542846
0.57580321
0.57613473
0.57642402
0.57667026
0.57687168
0.57702961
0.57715297
0.57725358
0.57732581
0.57732723
0.57720603
0.57700133
0.57692501
0.35562995
0.32215445
0.30454243
0.3000623
0.30144516
0.30771018
0.31687967
0.32768788
0.33926122
0.35104833
0.36271348
0.37406062
0.38498208
0.39542483
0.40536922
0.41481566
0.42377617
0.43226928
0.44031674
0.44794161
0.45516703
0.46201553
0.46850867
0.4746668
0.480509
0.4860531
0.49131568
0.49631214
0.50105682
0.50556303
0.50984313
0.51390868
0.5177704
0.52143834
0.52492188
0.52822983
0.53137045
0.53435149
0.53718029
0.53986374
0.54240837
0.54482038
0.54710562
0.54926965
0.55131778
0.55325503
0.55508622
0.55681591
0.55844849
0.55998813
0.56143881
0.56280434
0.56408837
0.56529434
0.56642558
0.5674852
0.56847619
0.56940139
0.57026351
0.57106506
0.57180846
0.57249597
0.57312972
0.57371169
0.57424366
0.57472729
0.57516423
0.57555618
0.57590473
0.57621072
0.57647389
0.5766938
0.57687265
0.57701708
0.57713363
0.57721612
0.57723722
0.5771694
0.57704331
0.57698915
0.21654446
0.21526389
0.22064705
0.23404163
0.25134255
0.26972319
0.28797949
0.30546135
0.32193974
0.33735069
0.35171932
0.36510596
0.3775843
0.38922959
0.40011354
0.41030218
0.4198552
0.4288261
0.43726261
0.44520726
0.45269793
0.45976844
0.46644904
0.47276684
0.47874623
0.48440921
0.48977567
0.49486369
0.49968972
0.50426879
0.50861467
0.51274003
0.51665655
0.52037501
0.52390545
0.52725718
0.53043889
0.53345869
0.53632421
0.5390426
0.5416206
0.54406455
0.54638046
0.54857403
0.55065064
0.55261542
0.55447324
0.55622874
0.55788635
0.55945028
0.56092456
0.56231303
0.56361936
0.56484704
0.5659994
0.5670796
0.56809064
0.56903536
0.5699165
0.57073661
0.5714981
0.57220326
0.57285423
0.57345299
0.57400139
0.57450117
0.57495406
0.57536173
0.57572558
0.57604648
0.57632472
0.57656092
0.57675738
0.5769183
0.5770464
0.57713661
0.57717506
0.57715486
0.57708451
0.57704044
0.091923709
0.12181751
0.15923029
0.19286845
0.22299157
0.24950949
0.27304224
0.29405551
0.31296526
0.33009752
0.3457151
0.36002849
0.37320856
0.38539511
0.39670381
0.40723118
0.41705854
0.42625493
0.43487946
0.44298306
0.45060994
0.45779871
0.46458325
0.47099352
0.4770561
0.48279471
0.4882306
0.49338293
0.49826899
0.50290451
0.50730381
0.51148
0.51544511
0.51921023
0.52278561
0.52618076
0.52940451
0.53246512
0.5353703
0.53812728
0.54074288
0.54322348
0.54557514
0.54780359
0.54991423
0.55191223
0.55380246
0.55558958
0.55727803
0.55887205
0.56037565
0.56179271
0.56312689
0.56438171
0.5655605
0.56666643
0.56770251
0.56867159
0.56957642
0.57041954
0.57120337
0.57193021
0.57260217
0.57322123
0.57378926
0.57430804
0.5747793
0.57520464
0.57558534
0.57592225
0.57621607
0.57646795
0.57667995
0.57685441
0.57699217
0.57709076
0.57714408
0.57714694
0.57711047
0.5770694
0.010934624
0.29686036
0.47154682
0.51948817
0.52923044
0.52974046
0.5294157
0.53055359
0.532036
0.53351947
0.53499845
0.53644215
0.5378626
0.53926862
0.54067098
0.54207966
0.54349623
0.54492122
0.54635435
0.54779466
0.54924071
0.55069072
0.5521427
0.55359455
0.55504411
0.55648918
0.55792759
0.55935721
0.56077596
0.56218178
0.5635727
0.56494678
0.5663021
0.56763679
0.56894902
0.57023695
0.57149878
0.57273269
0.57393688
0.57510955
0.5762489
0.57735312
0.5784204
0.57944892
0.58043687
0.58138245
0.58228389
0.58313943
0.58394737
0.58470605
0.5854139
0.5860694
0.58667117
0.58721792
0.58770852
0.58814201
0.58851764
0.58883483
0.5890933
0.58929275
0.58943267
0.58951295
0.58953382
0.58949543
0.58939704
0.58923776
0.58901352
0.58872493
0.58835965
0.58793616
0.58740804
0.5868654
0.5861185
0.58549186
0.58440928
0.58386196
0.58227408
0.58194543
0.57985333
0.57961867
0.06421743
0.3845966
0.5219822
0.54706219
0.54791479
0.54608546
0.54523091
0.54537325
0.54557761
0.5458817
0.54627222
0.54682771
0.54750356
0.54827015
0.54909897
0.54998685
0.55092721
0.5519155
0.55294635
0.55401459
0.55511549
0.5562446
0.55739773
0.55857088
0.55976027
0.56096229
0.56217349
0.56339058
0.56461037
0.56582983
0.56704599
0.56825603
0.56945717
0.57064673
0.57182211
0.57298076
0.57412018
0.57523793
0.57633162
0.57739891
0.57843746
0.57944501
0.58041931
0.58135817
0.58225942
0.58312095
0.5839407
0.5847167
0.58544702
0.58612985
0.58676347
0.58734628
0.58787683
0.58835379
0.58877604
0.58914262
0.58945285
0.58970623
0.58990258
0.59004167
0.59012312
0.59014693
0.59011349
0.59002299
0.58987481
0.58966799
0.58939883
0.58906731
0.58866274
0.58820058
0.58764059
0.58706107
0.58629307
0.58563062
0.58454152
0.58395094
0.58237006
0.58201226
0.57988924
0.5796987
0.14914299
0.46556888
0.54172251
0.55447424
0.55310314
0.55216136
0.55215388
0.55271081
0.55312532
0.5536465
0.55414933
0.55471382
0.5552991
0.55592614
0.55658644
0.55728471
0.55801714
0.55878394
0.55958358
0.56041436
0.56127449
0.56216201
0.5630748
0.56401061
0.56496705
0.56594163
0.56693178
0.56793484
0.56894808
0.56996877
0.57099409
0.57202123
0.57304737
0.57406966
0.57508526
0.57609136
0.57708514
0.57806382
0.57902463
0.57996483
0.58088173
0.58177267
0.58263503
0.58346625
0.58426383
0.58502534
0.58574843
0.58643086
0.58707047
0.58766526
0.58821332
0.58871293
0.58916253
0.58956073
0.58990636
0.59019846
0.59043636
0.59061963
0.59074814
0.59082173
0.59084009
0.59080335
0.59071196
0.59056617
0.59036544
0.59010875
0.58979264
0.58941668
0.58897122
0.58846975
0.58787607
0.58726036
0.58646835
0.58577369
0.58467184
0.58404457
0.58246165
0.58207979
0.57992664
0.57977264
0.23141613
0.51286339
0.55538333
0.56286115
0.56018351
0.56040214
0.56046688
0.56106193
0.56133535
0.56178588
0.56216147
0.56261618
0.56307435
0.5635641
0.56407111
0.56460344
0.56515844
0.56573821
0.56634261
0.56697159
0.56762484
0.56830186
0.5690019
0.56972399
0.57046692
0.57122929
0.57200947
0.57280567
0.5736159
0.57443801
0.57526974
0.57610865
0.57695221
0.5777978
0.57864269
0.57948411
0.58031921
0.58114513
0.58195895
0.58275777
0.58353868
0.58429877
0.58503518
0.58574509
0.58642573
0.58707441
0.58768855
0.58826567
0.58880341
0.58929957
0.58975209
0.59015911
0.59051897
0.59083022
0.59109163