/*--------------------------------*- C++ -*----------------------------------*\
  =========                 |
  \\      /  F ield         | OpenFOAM: The Open Source CFD Toolbox
   \\    /   O peration     | Website:  https://openfoam.org
    \\  /    A nd           | Version:  12
     \\/     M anipulation  |
\*---------------------------------------------------------------------------*/
FoamFile
{
    format      ascii;
    class       volScalarField;
    location    "0.144";
    object      T;
}
// * * * * * * * * * * * * * * * * * * * * * * * * * * * * * * * * * * * * * //

dimensions      [0 0 0 1 0 0 0];

internalField   nonuniform List<scalar> 
16000
(
294.54326
286.0833
289.37423
287.57255
288.67948
288.17185
288.59376
288.48301
288.67963
288.71351
288.83434
288.91908
289.02434
289.12702
289.23564
289.34758
289.46363
289.58367
289.70776
289.83592
289.96815
290.10444
290.24477
290.38907
290.53728
290.6893
290.84499
291.0042
291.16675
291.33243
291.501
291.67217
291.84565
292.02112
292.19822
292.37657
292.55577
292.73542
292.91509
293.09434
293.27275
293.44987
293.62528
293.79857
293.96935
294.13725
294.30192
294.46305
294.62037
294.77363
294.92262
295.06717
295.20716
295.34248
295.47309
295.59896
295.7201
295.83658
295.94849
296.05596
296.15921
296.25845
296.35393
296.44598
296.53496
296.6213
296.70545
296.78789
296.86908
296.94956
297.02994
297.11097
297.19332
297.27748
297.3637
297.45262
297.54954
297.63397
297.78849
297.83738
294.23644
285.67698
289.09797
287.21665
288.39091
287.84607
288.30337
288.18318
288.39425
288.43361
288.56143
288.65507
288.76751
288.87901
288.99607
289.11701
289.24224
289.37177
289.50559
289.64374
289.78619
289.9329
290.08382
290.23886
290.39791
290.56083
290.72745
290.89758
291.07097
291.24736
291.42645
291.60792
291.79142
291.97655
292.16291
292.35007
292.53759
292.72501
292.91186
293.09768
293.28201
293.4644
293.64442
293.82165
293.99571
294.16625
294.33295
294.49554
294.65377
294.80744
294.9564
295.10052
295.23974
295.374
295.50331
295.62768
295.7472
295.86196
295.97209
296.07776
296.17922
296.2767
296.37047
296.46088
296.54828
296.63312
296.71585
296.79696
296.87691
296.95626
297.0356
297.1157
297.19727
297.28082
297.36672
297.45599
297.54928
297.6467
297.77752
297.85606
293.94476
285.30159
288.82896
286.90439
288.11836
287.56342
288.0345
287.92208
288.13805
288.18924
288.32257
288.42679
288.54735
288.66863
288.79527
288.92627
289.06184
289.20198
289.3467
289.49597
289.64975
289.80797
289.97055
290.13734
290.30819
290.48293
290.66132
290.8431
291.02799
291.21566
291.40574
291.59785
291.79156
291.98642
292.18197
292.37772
292.57316
292.7678
292.96114
293.15267
293.34192
293.52842
293.71175
293.89151
294.06734
294.23891
294.40596
294.56824
294.72557
294.87782
295.0249
295.16674
295.30333
295.43471
295.56092
295.68205
295.79824
295.90962
296.01638
296.11874
296.21695
296.31129
296.40206
296.4896
296.57429
296.65656
296.73688
296.81572
296.89357
296.97096
297.0485
297.12694
297.20701
297.28926
297.37416
297.46231
297.55434
297.65558
297.77385
297.86794
293.67684
284.95753
288.60734
286.62915
287.87934
287.31427
287.79942
287.69641
287.91781
287.98237
288.12226
288.23828
288.3683
288.50055
288.63807
288.78036
288.92748
289.07942
289.23617
289.39766
289.56382
289.73455
289.9097
290.08911
290.27256
290.4598
290.65056
290.84451
291.04128
291.24047
291.44165
291.64434
291.84806
292.05228
292.25646
292.46006
292.66252
292.86331
293.06188
293.25772
293.45035
293.63931
293.82418
294.00461
294.18027
294.35089
294.51625
294.6762
294.83063
294.97945
295.12267
295.26031
295.39242
295.5191
295.64049
295.75673
295.86801
295.97452
296.0765
296.1742
296.26791
296.35794
296.4446
296.52823
296.60924
296.68803
296.76509
296.84088
296.91589
296.99064
297.06574
297.14192
297.21994
297.30041
297.38373
297.47025
297.56137
297.66289
297.77365
297.87795
293.43307
284.64952
288.39597
286.39991
287.68583
287.10715
287.60263
287.5136
287.73898
287.81955
287.96676
288.09591
288.23674
288.3811
288.53074
288.68547
288.84527
289.01014
289.18001
289.3548
289.53439
289.71864
289.90734
290.10027
290.29714
290.49764
290.7014
290.908
291.117
291.3279
291.54018
291.75328
291.96662
292.1796
292.39162
292.60207
292.81035
293.01588
293.21811
293.41653
293.61066
293.80007
293.98439
294.16332
294.33659
294.50401
294.66544
294.82082
294.97013
295.11338
295.25065
295.38205
295.50774
295.62788
295.74267
295.85234
295.95712
296.05728
296.15307
296.24479
296.33277
296.41732
296.49877
296.5775
296.65387
296.72832
296.80129
296.87325
296.9447
297.01614
297.08816
297.16147
297.23686
297.31499
297.39614
297.48057
297.57036
297.67022
297.77602
297.88625
293.2174
284.38509
288.2205
286.20912
287.51753
286.94844
287.45475
287.3799
287.60875
287.70653
287.86192
288.00498
288.15777
288.31516
288.47799
288.64625
288.81988
288.99884
289.18303
289.37232
289.56653
289.76544
289.96877
290.17622
290.3874
290.60189
290.81923
291.0389
291.26033
291.48292
291.70605
291.92905
292.15127
292.37202
292.59063
292.80646
293.01886
293.22725
293.43108
293.62986
293.82315
294.01059
294.19186
294.36675
294.5351
294.6968
294.85183
295.00023
295.14208
295.2775
295.40669
295.52983
295.64717
295.75895
295.86546
295.96697
296.06378
296.15619
296.24451
296.32907
296.41019
296.48823
296.56352
296.63643
296.70734
296.77665
296.84481
296.91227
296.9795
297.04701
297.11537
297.18526
297.2575
297.33275
297.41121
297.49317
297.58105
297.67811
297.77976
297.8938
293.03273
284.16583
288.07835
286.05516
287.38562
286.83988
287.3445
287.2982
287.52637
287.64507
287.80965
287.96741
288.13358
288.30529
288.48281
288.66617
288.85524
289.04993
289.25007
289.45544
289.66577
289.88076
290.10001
290.32309
290.54952
290.77873
291.01014
291.24309
291.47691
291.71085
291.9442
292.17618
292.40604
292.63305
292.85648
293.07565
293.28992
293.49873
293.70155
293.89796
294.0876
294.27019
294.44555
294.61354
294.77415
294.9274
295.07339
295.21227
295.34426
295.4696
295.58857
295.70146
295.80861
295.91033
296.00697
296.09887
296.18636
296.26979
296.34949
296.42582
296.49912
296.56975
296.63804
296.70437
296.76908
296.83258
296.89528
296.95763
297.02009
297.08312
297.14729
297.21326
297.28186
297.35372
297.429
297.50814
297.59354
297.68692
297.78461
297.90102
292.87694
283.98971
287.96671
285.93674
287.28358
286.76479
287.27189
287.23527
287.49389
287.63367
287.81003
287.98435
288.16636
288.35466
288.5492
288.74992
288.95666
289.16922
289.38734
289.6107
289.83891
290.07153
290.30804
290.54786
290.79035
291.03481
291.28048
291.52658
291.77227
292.01671
292.25905
292.49844
292.73406
292.96511
293.19086
293.41063
293.62384
293.82995
294.02856
294.21931
294.40199
294.57646
294.74265
294.90061
295.05046
295.19238
295.3266
295.45343
295.57319
295.68625
295.79298
295.89378
295.98905
296.07917
296.16455
296.24557
296.3226
296.396
296.46614
296.53337
296.59805
296.66053
296.72116
296.78026
296.8382
296.89533
296.95207
297.00881
297.066
297.12411
297.18364
297.24525
297.30977
297.37779
297.44946
297.52543
297.60779
297.69675
297.79048
297.90826
292.74505
283.85477
287.88902
285.85415
287.2315
286.7614
287.26155
287.28422
287.51516
287.67634
287.86807
288.06153
288.26239
288.47004
288.6843
288.90501
289.13193
289.36473
289.60303
289.84638
290.09422
290.34597
290.60091
290.85831
291.11733
291.3771
291.63669
291.89516
292.15153
292.40484
292.65414
292.89851
293.13709
293.36909
293.59382
293.81064
294.01906
294.21869
294.40922
294.59051
294.76247
294.92516
295.07871
295.22332
295.3593
295.48699
295.60678
295.71911
295.82442
295.92319
296.01588
296.10297
296.18492
296.26217
296.33514
296.40426
296.46992
296.53249
296.59234
296.64982
296.70529
296.75909
296.81153
296.86296
296.91368
296.96404
297.01441
297.06517
297.11673
297.16954
297.22407
297.28097
297.34103
297.40481
297.47252
297.54503
297.62382
297.70769
297.79744
297.91566
292.63633
283.76328
287.85092
285.82252
287.23413
286.79887
287.29677
287.3495
287.59452
287.78206
287.99272
288.20795
288.43068
288.6606
288.89744
289.1409
289.39059
289.64606
289.90673
290.17196
290.44102
290.71308
290.98725
291.26255
291.53794
291.81235
292.08468
292.35382
292.61866
292.87815
293.13127
293.3771
293.61479
293.84363
294.06299
294.27242
294.47155
294.66019
294.83826
295.0058
295.16298
295.31004
295.44735
295.57531
295.69439
295.80511
295.90801
296.00364
296.09257
296.17535
296.25252
296.32461
296.39212
296.45552
296.51526
296.57177
296.62543
296.67663
296.72572
296.77304
296.81893
296.8637
296.90766
296.95112
296.99436
297.03769
297.08144
297.12596
297.17164
297.21888
297.26815
297.32008
297.37537
297.43456
297.49803
297.56683
297.64156
297.71986
297.80564
297.92332
292.5545
283.72332
287.85834
285.90923
287.29559
286.90136
287.3918
287.4888
287.74393
287.95941
288.19307
288.43319
288.68115
288.93657
289.19909
289.46822
289.74339
290.02391
290.309
290.59776
290.88921
291.18224
291.47571
291.76839
292.05902
292.3463
292.62898
292.90579
293.17556
293.43718
293.68965
293.93211
294.16383
294.38423
294.59291
294.78961
294.97424
295.14686
295.30766
295.45696
295.59517
295.7228
295.84041
295.94862
296.04807
296.13944
296.22337
296.30053
296.37156
296.43707
296.49766
296.55386
296.60621
296.65517
296.7012
296.7447
296.78607
296.82565
296.86377
296.90076
296.93692
296.97255
297.00792
297.0433
297.07895
297.11514
297.15216
297.19032
297.22998
297.27151
297.31536
297.36212
297.41243
297.46677
297.52579
297.59066
297.66088
297.73334
297.8153
297.9313
292.50596
283.74783
287.91975
286.04753
287.40401
287.07357
287.55755
287.70021
287.97213
288.21829
288.47936
288.74807
289.02495
289.30944
289.60098
289.89883
290.20215
290.50998
290.82119
291.13459
291.44885
291.76258
292.07431
292.38256
292.68583
292.98265
293.27163
293.55144
293.82089
294.07895
294.32473
294.55756
294.77693
294.98254
295.17431
295.35229
295.51674
295.66804
295.80671
295.93335
296.04866
296.15336
296.24825
296.33411
296.41173
296.48188
296.54533
296.60279
296.65494
296.70242
296.74584
296.78574
296.82262
296.85695
296.88916
296.91962
296.94869
296.97669
297.00391
297.03065
297.05718
297.08375
297.1106
297.13797
297.16609
297.19519
297.22551
297.25732
297.29094
297.32672
297.3651
297.4066
297.45178
297.5011
297.55556
297.61629
297.68156
297.74807
297.82653
297.93963
292.49558
283.84295
288.04533
286.23866
287.57803
287.32288
287.80303
287.9949
288.28961
288.56978
288.86315
289.16479
289.47481
289.7923
290.1164
290.44603
290.77996
291.11683
291.45512
291.79323
292.12946
292.46207
292.78928
293.10938
293.42067
293.72158
294.01068
294.28672
294.54863
294.7956
295.02703
295.24258
295.44213
295.6258
295.7939
295.94692
296.08549
296.21037
296.3224
296.42247
296.51152
296.59049
296.66034
296.72197
296.77627
296.82408
296.8662
296.90337
296.93627
296.96552
296.99171
297.01535
297.03691
297.05683
297.07546
297.09317
297.11025
297.12698
297.14363
297.16043
297.17761
297.1954
297.21399
297.2336
297.2544
297.27658
297.30036
297.32596
297.35364
297.38374
297.41668
297.45294
297.49292
297.53717
297.587
297.64337
297.70334
297.76399
297.83948
297.94801
292.52534
284.0163
288.24019
286.51612
287.82783
287.65717
288.13876
288.38315
288.70833
289.02716
289.35839
289.69809
290.04594
290.4006
290.76073
291.12476
291.49097
291.85748
292.2223
292.58339
292.93863
293.28596
293.62335
293.94891
294.2609
294.55779
294.83832
295.10148
295.34657
295.57321
295.78128
295.97095
296.14264
296.29698
296.43475
296.55691
296.66448
296.75857
296.84029
296.9108
296.97121
297.02261
297.06603
297.10247
297.13282
297.15796
297.17865
297.19562
297.2095
297.22089
297.23029
297.23819
297.24499
297.25105
297.25671
297.26224
297.26791
297.27394
297.28055
297.28791
297.29624
297.30569
297.31645
297.32866
297.34248
297.35806
297.37558
297.3952
297.41715
297.44175
297.4694
297.50048
297.53531
297.57454
297.61974
297.6715
297.72591
297.78105
297.85391
297.95653
292.60016
284.28106
288.50767
286.88162
288.16526
288.08813
288.5786
288.87976
289.24407
289.60759
289.98297
290.36634
290.75681
291.15243
291.55121
291.95098
292.34938
292.74396
293.13222
293.51165
293.87979
294.23434
294.57316
294.89441
295.19652
295.47831
295.73894
295.97799
296.19536
296.39132
296.56643
296.7215
296.85756
296.97578
297.07745
297.16392
297.23656
297.29675
297.3458
297.38502
297.41562
297.43874
297.45544
297.46669
297.47337
297.4763
297.47619
297.47369
297.46938
297.46376
297.45729
297.45034
297.44328
297.43639
297.42993
297.42413
297.41919
297.41527
297.41255
297.41116
297.41126
297.41296
297.41641
297.42172
297.42902
297.43842
297.45004
297.46402
297.48055
297.49992
297.52249
297.54856
297.57837
297.61273
297.65333
297.70018
297.74887
297.79914
297.86961
297.96512
292.72437
284.65571
288.84398
287.3495
288.60427
288.6311
289.14087
289.50468
289.91787
290.33326
290.75928
291.19165
291.62863
292.06752
292.50556
292.93981
293.36723
293.78478
294.18942
294.57833
294.94886
295.29873
295.62606
295.92939
296.20777
296.46072
296.68822
296.89067
297.06886
297.22385
297.35698
297.46973
297.56371
297.64058
297.70202
297.74969
297.78516
297.80997
297.82554
297.83318
297.83411
297.82943
297.82016
297.80717
297.79128
297.7732
297.75355
297.73288
297.71167
297.69034
297.66924
297.64868
297.62893
297.61021
297.59271
297.57659
297.562
297.54905
297.53784
297.52849
297.52109
297.51573
297.51251
297.5115
297.51281
297.51651
297.52269
297.53145
297.54294
297.55741
297.57518
297.59645
297.62148
297.65124
297.68728
297.72891
297.77174
297.81795
297.88627
297.97344
292.90261
285.16993
289.25649
287.93769
289.16618
289.30941
289.85145
290.28501
290.75679
291.23113
291.71329
292.19834
292.68345
293.16497
293.63922
294.1024
294.55076
294.98075
295.38908
295.7729
296.1299
296.45832
296.75706
297.02562
297.26411
297.47316
297.65385
297.80763
297.93623
298.04154
298.1256
298.19046
298.23818
298.27074
298.29005
298.29788
298.2959
298.28564
298.26847
298.24564
298.21828
298.18738
298.15381
298.11835
298.08167
298.04436
298.00692
297.96979
297.93333
297.89787
297.86366
297.83092
297.79985
297.77058
297.74325
297.71794
297.69476
297.67376
297.65501
297.63856
297.62446
297.61278
297.60357
297.59688
297.59278
297.59132
297.59256
297.59656
297.60344
297.61342
297.62672
297.64347
297.66402
297.68948
297.72107
297.75721
297.7941
297.83687
297.90332
297.98124
293.14645
285.87064
289.78837
288.67741
289.88188
290.15433
290.74287
291.25308
291.79187
292.33082
292.87235
293.41061
293.94133
294.4597
294.96098
295.44063
295.8945
296.319
296.71123
297.0691
297.39134
297.67749
297.92788
298.14347
298.32579
298.47682
298.5988
298.69422
298.7656
298.81553
298.8465
298.86092
298.86104
298.84897
298.82661
298.79573
298.75788
298.71447
298.66673
298.61575
298.56248
298.50775
298.45228
298.39668
298.34148
298.28712
298.23397
298.18235
298.13251
298.08467
298.039
297.99564
297.95469
297.91623
297.88033
297.84703
297.81636
297.78834
297.76299
297.74033
297.72037
297.70314
297.68865
297.67694
297.66804
297.66199
297.6588
297.65853
297.66127
297.66718
297.67637
297.68895
297.70538
297.72686
297.75411
297.78477
297.81581
297.85524
297.9199
297.98876
293.48268
286.74193
290.46661
289.60583
290.78909
291.20064
291.85139
292.44492
293.05713
293.66352
294.26326
294.84916
295.41531
295.95579
296.46523
296.93905
297.37363
297.76642
298.11601
298.42209
298.68531
298.90718
299.08988
299.23608
299.34879
299.43119
299.48652
299.51797
299.52861
299.52132
299.49879
299.46346
299.41754
299.36302
299.30166
299.23501
299.16441
299.09106
299.01596
298.93999
298.86389
298.7883
298.71376
298.6407
298.5695
298.50046
298.43382
298.36979
298.30852
298.25012
298.19468
298.14225
298.09289
298.0466
298.00339
297.96326
297.92618
297.89216
297.86116
297.83316
297.80815
297.78612
297.76706
297.75098
297.7379
297.7278
297.72072
297.71667
297.71574
297.71801
297.7235
297.7323
297.74499
297.76279
297.78583
297.81122
297.83695
297.873
297.93511
297.99731
293.95151
287.72585
291.33344
290.75868
291.93184
292.49027
293.21996
293.90251
294.58975
295.25913
295.90611
296.52222
297.10052
297.63504
298.1212
298.55593
298.93771
299.26652
299.54358
299.7712
299.9525
300.09115
300.19116
300.25666
300.29178
300.30049
300.28653
300.25338
300.20419
300.1418
300.06875
299.98726
299.89929
299.80653
299.71044
299.61227
299.51309
299.4138
299.31518
299.21785
299.12234
299.0291
298.93846
298.85073
298.76611
298.6848
298.6069
298.53251
298.4617
298.3945
298.33091
298.27093
298.21454
298.16171
298.11239
298.06654
298.0241
297.98502
297.94925
297.91675
297.88746
297.86136
297.8384
297.81858
297.80187
297.78828
297.7778
297.77046
297.7663
297.76534
297.76754
297.77299
297.78239
297.79678
297.81573
297.83617
297.85742
297.89069
297.94959
298.00498
294.60873
288.99486
292.43679
292.18807
293.37096
294.08151
294.90123
295.67044
296.42125
297.13287
297.79808
298.4086
298.95865
299.44454
299.86474
300.21974
300.51172
300.74419
300.92164
301.04915
301.13207
301.17582
301.18563
301.16646
301.12287
301.059
300.97857
300.88484
300.78067
300.66854
300.55058
300.42863
300.30422
300.17866
300.05305
299.92831
299.80519
299.68432
299.56621
299.45126
299.3398
299.23208
299.12829
299.02857
298.93302
298.84169
298.75462
298.6718
298.59322
298.51884
298.44861
298.38246
298.32032
298.26212
298.20778
298.15722
298.11035
298.06709
298.02737
297.99111
297.95825
297.92872
297.90249
297.87949
297.85972
297.84313
297.82972
297.81951
297.81253
297.80874
297.80804
297.8106
297.81714
297.8284
297.84343
297.85929
297.87685
297.90796
297.96306
298.01061
295.51119
290.60962
293.86234
293.97354
295.18536
296.04172
296.94275
297.77429
298.5523
299.2599
299.89081
300.44034
300.90723
301.2929
301.60104
301.83702
302.00729
302.11893
302.17917
302.19507
302.17331
302.12007
302.04088
301.94067
301.82375
301.69384
301.55413
301.40734
301.25576
301.10132
300.94561
300.78997
300.6355
300.48309
300.33347
300.18722
300.04483
299.90663
299.77293
299.64392
299.51975
299.40051
299.28626
299.17702
299.07278
298.9735
298.87913
298.7896
298.70482
298.6247
298.54914
298.47804
298.41128
298.34876
298.29036
298.23597
298.18549
298.13882
298.09586
298.05651
298.02069
297.98833
297.95935
297.9337
297.91133
297.8922
297.87629
297.86363
297.85419
297.8479
297.84468
297.84476
297.84881
297.85721
297.86857
297.8804
297.89496
297.92393
297.97425
298.01385
296.64085
292.69462
295.71565
296.19873
297.44135
298.41455
299.35149
300.18497
300.92145
301.55226
302.07744
302.49991
302.82584
303.0634
303.22203
303.31161
303.34195
303.32234
303.26132
303.16653
303.04469
302.9016
302.74221
302.57069
302.39057
302.20474
302.01562
301.82519
301.63506
301.44654
301.26068
301.07833
300.90016
300.72669
300.55831
300.39533
300.23796
300.08634
299.94056
299.80067
299.66666
299.53851
299.41617
299.29955
299.18856
299.08309
298.98303
298.88825
298.79861
298.71399
298.63423
298.55921
298.48879
298.42282
298.36117
298.30371
298.25032
298.20088
298.15528
298.11341
298.07516
298.04046
298.00921
297.98134
297.9568
297.93553
297.91751
297.90273
297.89115
297.88267
297.87726
297.8752
297.87706
297.88283
297.89087
297.89932
297.91143
297.93793
297.98263
298.01505
298.17478
295.36233
298.09196
298.9167
300.13413
301.16855
302.05176
302.78928
303.39022
303.85851
304.20471
304.44132
304.58226
304.64155
304.63262
304.56776
304.45788
304.31247
304.13957
303.94597
303.73726
303.51806
303.29213
303.06252
302.83168
302.60156
302.37373
302.14942
301.9296
301.715
301.5062
301.30361
301.10755
300.91821
300.73572
300.56017
300.39155
300.22985
300.075
299.92692
299.78551
299.65063
299.52215
299.39993
299.2838
299.1736
299.06917
298.97035
298.87695
298.78883
298.7058
298.6277
298.55439
298.48568
298.42145
298.36154
298.30581
298.25413
298.20638
298.16244
298.1222
298.08556
298.05243
298.02272
297.99636
297.97329
297.95348
297.93689
297.92346
297.91308
297.90577
297.90185
297.90171
297.90503
297.91013
297.91587
297.92607
297.94998
297.98881
298.01511
300.15453
298.68262
300.98675
302.10171
303.28885
304.15577
304.86423
305.39276
305.76393
305.99631
306.11124
306.12896
306.06818
305.94529
305.77432
305.56696
305.33283
305.07967
304.81373
304.53995
304.26222
303.98362
303.70653
303.43279
303.16383
302.90072
302.64425
302.39503
302.15347
301.91985
301.69436
301.47707
301.26801
301.06716
300.87444
300.68974
300.51293
300.34387
300.18238
300.02828
299.8814
299.74154
299.60849
299.48207
299.36206
299.24829
299.14053
299.0386
298.94231
298.85146
298.76587
298.68536
298.60975
298.53887
298.47256
298.41066
298.35303
298.29953
298.25001
298.20437
298.16247
298.12422
298.08951
298.05824
298.03035
298.00576
297.98442
297.96629
297.95126
297.93925
297.93032
297.92474
297.92275
297.92379
297.92638
297.93009
297.93884
297.95994
297.99229
298.01177
302.60868
302.63942
304.64891
305.62458
306.52081
307.1335
307.54133
307.76569
307.84312
307.80338
307.67337
307.4753
307.22727
306.94366
306.63571
306.31216
305.97968
305.64337
305.30708
304.97372
304.64544
304.32382
304.01003
303.70489
303.40896
303.12261
302.84604
302.57937
302.32261
302.07568
301.8385
301.6109
301.39272
301.18374
300.98377
300.79256
300.6099
300.43553
300.26922
300.11074
299.95983
299.81625
299.67979
299.55019
299.42723
299.31069
299.20035
299.09599
298.9974
298.90438
298.81672
298.73425
298.65676
298.58408
298.51605
298.45249
298.39326
298.33821
298.28719
298.24009
298.19677
298.15712
298.12104
298.08844
298.05921
298.03331
298.01065
297.99116
297.97475
297.96134
297.95101
297.94397
297.94028
297.93928
297.93983
297.94201
297.94939
297.96733
297.99355
298.00859
305.6801
307.0746
308.4036
309.10658
309.58557
309.79606
309.82049
309.70075
309.47763
309.18149
308.83582
308.45806
308.06111
307.65439
307.2447
306.83696
306.43466
306.04026
305.65548
305.28146
304.91894
304.56837
304.22999
303.90385
303.58991
303.28804
302.99803
302.71966
302.45266
302.19674
301.9516
301.71693
301.49243
301.27779
301.0727
300.87686
300.68996
300.51172
300.34185
300.18006
300.02608
299.87965
299.7405
299.60839
299.48305
299.36427
299.25179
299.14539
299.04486
298.94998
298.86055
298.77636
298.69723
298.62296
298.55339
298.48835
298.42768
298.37123
298.31885
298.27042
298.22581
298.18491
298.1476
298.11378
298.08336
298.05627
298.03243
298.01174
297.99411
297.97949
297.96794
297.95959
297.95436
297.95168
297.95077
297.95198
297.95804
297.97234
297.99242
298.00458
309.6381
311.42427
311.96532
312.15242
312.09817
311.86425
311.51306
311.08703
310.61635
310.12172
309.6172
309.11226
308.6132
308.12415
307.64777
307.1857
306.73889
306.3078
305.89259
305.49319
305.10937
304.74081
304.38714
304.04793
303.72275
303.41113
303.11264
302.82683
302.55325
302.29149
302.04113
301.80176
301.573
301.35447
301.14582
300.94668
300.75674
300.57565
300.4031
300.2388
300.08245
299.93376
299.79247
299.6583
299.531
299.41033
299.29603
299.18789
299.08567
298.98916
298.89814
298.81242
298.7318
298.6561
298.58513
298.51872
298.45672
298.39898
298.34535
298.2957
298.24989
298.20783
298.16938
298.13446
298.10296
298.07481
298.04991
298.02816
298.00948
297.99382
297.98121
297.97169
297.96512
297.96107
297.95912
297.95966
297.96443
297.97522
297.99009
298.00067
314.60352
314.97412
314.70314
314.33389
313.81036
313.21628
312.58724
311.94883
311.31523
310.69506
310.09308
309.51188
308.95263
308.41567
307.90083
307.40763
306.93542
306.48345
306.05094
305.63709
305.24112
304.86226
304.49979
304.153
303.82123
303.50386
303.20029
302.90996
302.63233
302.36691
302.11321
301.87078
301.63919
301.41802
301.20689
301.00543
300.81327
300.63008
300.45552
300.28928
300.13107
299.98058
299.83754
299.70168
299.57273
299.45045
299.33459
299.22492
299.12121
299.02325
298.93081
298.84369
298.76171
298.68467
298.6124
298.54471
298.48147
298.4225
298.36767
298.31684
298.2699
298.22671
298.18718
298.15119
298.11866
298.08949
298.06358
298.04085
298.02121
298.00462
297.99107
297.98053
297.97285
297.96775
297.96507
297.9651
297.96875
297.97663
297.98757
297.99727
316.60266
316.76956
316.1933
315.42972
314.649
313.86728
313.10485
312.3693
311.66411
310.99023
310.34739
309.73461
309.15064
308.59406
308.06345
307.55741
307.07463
306.61383
306.17384
305.75359
305.35206
304.9683
304.60147
304.25074
303.91537
303.59467
303.28799
302.99473
302.71432
302.44623
302.18996
301.94504
301.71102
301.4875
301.27406
301.07032
300.87593
300.69054
300.51382
300.34546
300.18514
300.03259
299.88751
299.74964
299.61872
299.49449
299.37672
299.26517
299.15962
299.05983
298.96562
298.87676
298.79306
298.71435
298.64043
298.57114
298.50631
298.44581
298.38948
298.33718
298.28881
298.24423
298.20334
298.16604
298.13224
298.10183
298.07473
298.05085
298.03012
298.0125
297.99796
297.98642
297.97777
297.97184
297.96856
297.96809
297.97084
297.97709
297.98602
297.99545
310.40813
309.08367
305.39478
302.48192
301.19318
300.9035
300.83535
300.83257
300.72058
300.66384
300.56051
300.48921
300.4026
300.31576
300.22937
300.14257
300.05511
299.96696
299.87813
299.78868
299.6987
299.60829
299.51757
299.42669
299.33577
299.24495
299.15437
299.06417
298.97448
298.88544
298.79718
298.70982
298.6235
298.53834
298.45446
298.37199
298.29106
298.21178
298.13428
298.05868
297.98511
297.91369
297.84455
297.77782
297.71361
297.65207
297.59331
297.53746
297.48464
297.43498
297.38859
297.34559
297.30608
297.27016
297.23791
297.20938
297.18464
297.1637
297.14656
297.13324
297.12378
297.11819
297.11648
297.11866
297.12483
297.13513
297.14987
297.16903
297.19348
297.22188
297.25755
297.29415
297.34543
297.38793
297.46409
297.50093
297.61773
297.63958
297.80997
297.83996
309.60464
306.67962
302.47817
300.40241
299.82714
299.82821
299.92995
299.9412
299.93555
299.9094
299.88556
299.84815
299.80534
299.7577
299.70614
299.65077
299.59206
299.53029
299.46578
299.39883
299.32974
299.25877
299.18619
299.11223
299.03713
298.96111
298.88439
298.80716
298.72965
298.65202
298.57448
298.49721
298.42038
298.34417
298.26876
298.1943
298.12096
298.0489
297.97829
297.90928
297.84203
297.77668
297.7134
297.65233
297.59362
297.53741
297.48386
297.4331
297.38526
297.34048
297.29888
297.26059
297.2257
297.19433
297.16653
297.14239
297.12193
297.10518
297.09213
297.08279
297.07719
297.07534
297.07724
297.0829
297.09241
297.1059
297.12366
297.14573
297.17284
297.20387
297.24171
297.28084
297.33359
297.37859
297.45519
297.49497
297.61132
297.63521
297.80772
297.83478
308.19342
304.59688
301.4728
299.76398
299.43223
299.47274
299.50684
299.48097
299.45256
299.42005
299.38843
299.35354
299.317
299.27755
299.23594
299.19193
299.14574
299.09734
299.04683
298.99429
298.93984
298.8836
298.82568
298.76624
298.70541
298.64335
298.58022
298.51618
298.45141
298.38607
298.32035
298.25442
298.18847
298.12268
298.05723
297.99231
297.92809
297.86477
297.80252
297.74152
297.68195
297.62399
297.56782
297.5136
297.4615
297.4117
297.36434
297.31959
297.2776
297.23852
297.20246
297.16958
297.13997
297.11373
297.09095
297.07169
297.05598
297.04384
297.03527
297.03026
297.02883
297.03101
297.03676
297.04611
297.05914
297.07598
297.09691
297.12198
297.15186
297.18556
297.22569
297.26731
297.32171
297.36898
297.44642
297.48877
297.60518
297.63082
297.80534
297.83006
306.99821
303.14014
300.29906
299.00756
298.95629
298.97264
298.98978
298.95405
298.93564
298.9067
298.88276
298.85376
298.82455
298.79338
298.76112
298.72723
298.69188
298.65493
298.61638
298.57624
298.53453
298.49126
298.44648
298.40025
298.35264
298.30375
298.25366
298.20249
298.15037
298.09743
298.04381
297.98968
297.93518
297.88049
297.82579
297.77125
297.71706
297.66341
297.61048
297.55846
297.50755
297.45794
297.40982
297.36337
297.31878
297.27624
297.23591
297.19797
297.16258
297.1299
297.10006
297.07322
297.04947
297.02893
297.01168
296.99778
296.98726
296.98013
296.97639
296.97603
296.97909
296.98554
296.99538
297.00863
297.02535
297.0457
297.06992
297.0981
297.13083
297.16725
297.20976
297.25386
297.31003
297.35942
297.43793
297.48256
297.59928
297.62647
297.80294
297.82564
306.29446
301.92375
299.3337
298.37825
298.45551
298.4301
298.45605
298.41939
298.41252
298.38821
298.37283
298.35101
298.33052
298.30824
298.28539
298.26129
298.23614
298.20976
298.18214
298.15324
298.12302
298.09149
298.05863
298.02447
297.98902
297.95233
297.91446
297.87547
297.83545
297.7945
297.75272
297.71024
297.66718
297.62371
297.57997
297.53612
297.49234
297.44882
297.40572
297.36325
297.3216
297.28096
297.24154
297.20352
297.1671
297.13247
297.09981
297.06931
297.04113
297.01545
296.99241
296.97214
296.95478
296.94042
296.92914
296.92102
296.91608
296.91433
296.91575
296.92034
296.92813
296.93911
296.95325
296.97056
296.99114
297.01512
297.04275
297.07412
297.10978
297.14897
297.19392
297.24048
297.29851
297.34994
297.42965
297.47637
297.5936
297.6222
297.80056
297.82151
305.72592
300.73345
298.53066
297.77461
297.92314
297.86777
297.91361
297.87757
297.88555
297.86795
297.86354
297.85043
297.83966
297.82684
297.81367
297.79939
297.78416
297.76785
297.75045
297.73193
297.71227
297.69144
297.66944
297.64627
297.62192
297.59643
297.56982
297.54213
297.51341
297.48375
297.4532
297.42188
297.38989
297.35734
297.32438
297.29115
297.25779
297.22448
297.1914
297.15872
297.12662
297.09531
297.06498
297.03581
297.00801
296.98177
296.95727
296.9347
296.91423
296.89603
296.88025
296.86702
296.85648
296.84872
296.84383
296.84185
296.84284
296.84678
296.85366
296.86347
296.87624
296.89194
296.91056
296.93212
296.95669
296.98441
297.01553
297.05016
297.08881
297.1308
297.17823
297.22726
297.28718
297.34064
297.42158
297.47029
297.58814
297.61806
297.79823
297.81767
305.14708
299.68105
297.88014
297.22394
297.41957
297.33823
297.40367
297.36608
297.38646
297.37344
297.37803
297.3721
297.36926
297.36414
297.35894
297.35282
297.34593
297.33817
297.32954
297.31998
297.30948
297.298
297.28553
297.27205
297.25756
297.24207
297.22557
297.2081
297.18969
297.17038
297.15024
297.12933
297.10774
297.08558
297.06294
297.03995
297.01675
296.99349
296.97033
296.94743
296.92496
296.9031
296.88205
296.86198
296.84308
296.82554
296.80954
296.79525
296.78286
296.77252
296.76438
296.75857
296.75522
296.75441
296.75624
296.76074
296.76795
296.77786
296.79045
296.80571
296.82366
296.84428
296.86754
296.89347
296.92214
296.9537
296.98839
297.02634
297.06802
297.11284
297.16276
297.21423
297.27608
297.33158
297.41374
297.46439
297.5829
297.6141
297.79597
297.81415
304.66661
298.73091
297.3309