/*--------------------------------*- C++ -*----------------------------------*\
  =========                 |
  \\      /  F ield         | OpenFOAM: The Open Source CFD Toolbox
   \\    /   O peration     | Website:  https://openfoam.org
    \\  /    A nd           | Version:  12
     \\/     M anipulation  |
\*---------------------------------------------------------------------------*/
FoamFile
{
    format      ascii;
    class       volScalarField;
    location    "0.083";
    object      Ma;
}
// * * * * * * * * * * * * * * * * * * * * * * * * * * * * * * * * * * * * * //

dimensions      [];

internalField   nonuniform List<scalar> 
16000
(
0.62203662
0.73856703
0.69415378
0.7184542
0.7036178
0.71043257
0.7048096
0.70629061
0.70367371
0.70322433
0.70161429
0.70048413
0.69907816
0.6977055
0.69625127
0.69475099
0.69319354
0.69158054
0.68991083
0.68818396
0.6863996
0.68455762
0.68265815
0.68070158
0.67868863
0.67662032
0.67449803
0.67232354
0.670099
0.66782698
0.66551047
0.6631529
0.66075809
0.65833029
0.65587413
0.65339463
0.65089711
0.64838719
0.6458707
0.64335367
0.64084221
0.63834249
0.63586064
0.63340267
0.63097441
0.62858145
0.62622903
0.62392206
0.621665
0.61946186
0.61731618
0.61523101
0.61320889
0.61125189
0.60936157
0.60753909
0.6057852
0.60410029
0.60248449
0.60093745
0.59945854
0.59804723
0.59670314
0.59542595
0.59421553
0.59307165
0.59199338
0.59097809
0.5900204
0.58911156
0.58823937
0.58738811
0.5865389
0.58567122
0.58475702
0.58382557
0.58260521
0.58210856
0.57974505
0.58047963
0.62648613
0.74376893
0.69770878
0.72308458
0.70742713
0.71470834
0.70863875
0.71024266
0.70744258
0.70692404
0.705227
0.70398302
0.70248665
0.70100112
0.69943941
0.69782372
0.69614824
0.69441294
0.69261727
0.69076087
0.68884365
0.68686576
0.6848277
0.68273024
0.68057457
0.67836221
0.67609511
0.67377565
0.67140663
0.66899133
0.66653345
0.66403718
0.6615071
0.65894825
0.65636603
0.65376618
0.65115474
0.64853798
0.64592234
0.64331434
0.64072051
0.63814733
0.6356011
0.63308791
0.63061354
0.62818338
0.6258024
0.62347508
0.62120541
0.61899684
0.61685226
0.61477404
0.61276402
0.61082353
0.60895343
0.60715418
0.60542585
0.60376823
0.60218087
0.60066297
0.59921346
0.59783138
0.596516
0.59526673
0.59408315
0.59296485
0.59191064
0.59091756
0.58997977
0.58908799
0.58822939
0.58738761
0.58654371
0.58567835
0.58477024
0.58378691
0.58272079
0.58181366
0.58005227
0.58011633
0.63065733
0.74854075
0.70118958
0.72713979
0.71102708
0.71841061
0.71218246
0.71367717
0.71082156
0.7101479
0.70838303
0.70700246
0.70540262
0.70379139
0.70210626
0.70036073
0.69855156
0.69667845
0.69474112
0.69273951
0.69067388
0.68854479
0.68635319
0.68410037
0.68178808
0.67941848
0.67699419
0.67451833
0.67199451
0.66942683
0.66681987
0.66417872
0.6615089
0.65881632
0.6561073
0.65338843
0.65066655
0.64794863
0.64524173
0.64255287
0.63988895
0.63725668
0.63466242
0.63211221
0.62961157
0.62716556
0.62477863
0.62245467
0.62019694
0.61800811
0.61589023
0.61384478
0.61187271
0.60997443
0.60814997
0.60639892
0.60472059
0.60311405
0.60157818
0.60011165
0.59871291
0.59738056
0.5961135
0.59491083
0.59377191
0.59269605
0.59168176
0.59072566
0.58982137
0.58895901
0.58812508
0.58730282
0.58647376
0.58561924
0.58471528
0.58373364
0.58272075
0.58167153
0.58020501
0.57989134
0.6344737
0.75290563
0.70423859
0.73069891
0.71417419
0.72166528
0.71527234
0.71663897
0.71371974
0.71287168
0.71102495
0.70949197
0.7077709
0.70601804
0.70419218
0.70230017
0.70034074
0.69831357
0.69621873
0.69405653
0.69182764
0.68953311
0.6871744
0.68475343
0.68227261
0.67973488
0.67714368
0.67450304
0.67181753
0.66909227
0.66633289
0.66354555
0.66073682
0.65791367
0.6550834
0.6522535
0.64943162
0.64662544
0.64384254
0.64109033
0.63837594
0.63570609
0.63308702
0.63052441
0.62802334
0.6255882
0.6232227
0.62092983
0.6187119
0.61657056
0.61450681
0.61252105
0.61061316
0.60878255
0.60702825
0.60534895
0.60374313
0.60220908
0.60074501
0.59934905
0.59801915
0.59675349
0.59555062
0.59440936
0.59332882
0.59230809
0.59134544
0.59043713
0.58957634
0.58875263
0.58795201
0.5871576
0.5863515
0.5855147
0.58462257
0.58366012
0.58265976
0.58155234
0.58028523
0.57965351
0.63792246
0.75679438
0.70703319
0.73362601
0.71672003
0.72436715
0.71785697
0.71903618
0.71607234
0.71501485
0.71307561
0.71137253
0.70951179
0.70760164
0.70561804
0.70356348
0.70143771
0.69924059
0.69697249
0.69463412
0.69222662
0.68975161
0.68721124
0.68460824
0.68194589
0.67922813
0.67645949
0.67364516
0.67079093
0.66790317
0.66498881
0.66205525
0.65911029
0.65616208
0.65321894
0.65028932
0.64738162
0.64450412
0.6416648
0.63887126
0.63613058
0.63344924
0.63083303
0.62828701
0.62581541
0.62342168
0.62110843
0.61887751
0.61673
0.61466626
0.61268605
0.61078852
0.60897237
0.60723587
0.60557701
0.60399354
0.60248306
0.60104312
0.59967128
0.59836511
0.59712214
0.59594014
0.59481736
0.59375238
0.5927441
0.59179144
0.59089242
0.590043
0.58923596
0.58846035
0.58770178
0.58694357
0.58616823
0.58535635
0.58448575
0.58354991
0.58255817
0.58144155
0.58029013
0.57945979
0.64095599
0.76012404
0.70937792
0.73610699
0.71892354
0.72643877
0.71980228
0.72079112
0.71779147
0.71650558
0.71446136
0.71257701
0.71056045
0.7084799
0.70632322
0.70409054
0.70178207
0.69939806
0.69693932
0.69440717
0.69180348
0.68913077
0.68639218
0.68359155
0.68073342
0.67782305
0.67486641
0.67187017
0.66884162
0.66578867
0.66271975
0.6596437
0.65656967
0.65350699
0.65046505
0.64745312
0.64448023
0.64155502
0.63868559
0.63587939
0.6331431
0.63048256
0.62790272
0.62540755
0.6230001
0.62068247
0.61845585
0.61632061
0.61427633
0.61232191
0.61045567
0.60867541
0.60697854
0.60536218
0.60382325
0.60235859
0.60096497
0.59963926
0.5983784
0.59717951
0.59603975
0.59495659
0.59392803
0.59295245
0.59202862
0.59115531
0.59033039
0.58954956
0.58880523
0.58808607
0.58737746
0.58666301
0.58592557
0.58514597
0.58430575
0.58340126
0.58242385
0.58132501
0.58025065
0.5792679
0.64354193
0.76287641
0.71127907
0.73810052
0.72067176
0.72785857
0.72124468
0.72186433
0.71887542
0.71732059
0.71515706
0.71308044
0.71088845
0.70861932
0.70626854
0.70383572
0.70132165
0.69872734
0.69605446
0.69330533
0.69048297
0.68759114
0.68463441
0.68161813
0.67854848
0.67543244
0.67227775
0.66909289
0.66588698
0.66266968
0.65945109
0.65624159
0.65305168
0.64989186
0.64677238
0.64370312
0.64069341
0.63775187
0.63488629
0.63210349
0.62940924
0.62680825
0.62430407
0.62189917
0.61959493
0.6173917
0.61528894
0.61328522
0.61137843
0.60956583
0.6078442
0.60620994
0.60465917
0.60318789
0.60179204
0.60046759
0.59921062
0.59801739
0.5968844
0.59580837
0.59478623
0.59381524
0.59289324
0.59201851
0.59118975
0.59040564
0.58966394
0.58896019
0.58828651
0.58763123
0.5869797
0.58631591
0.58562307
0.58488296
0.58408074
0.5832117
0.58225647
0.58119362
0.58017225
0.5790788
0.64571917
0.76507987
0.71277401
0.73963335
0.72201641
0.72883247
0.72221474
0.72269339
0.7193156
0.71748035
0.71516278
0.71286836
0.71046735
0.70797849
0.70540146
0.70273655
0.69998532
0.69714988
0.69423308
0.6912386
0.68817099
0.68503568
0.68183907
0.67858846
0.67529208
0.67195902
0.66859918
0.66522316
0.66184214
0.65846771
0.6551117
0.651786
0.64850233
0.64527208
0.64210604
0.63901426
0.63600584
0.63308881
0.63027001
0.627555
0.62494802
0.62245198
0.62006851
0.61779802
0.61563977
0.61359202
0.61165215
0.60981678
0.60808194
0.6064432
0.60489579
0.60343475
0.60205503
0.60075161
0.59951958
0.59835422
0.59725106
0.59620595
0.59521506
0.59427491
0.59338228
0.59253439
0.59172901
0.5909644
0.59023926
0.58955228
0.58890118
0.58828141
0.58768488
0.58709971
0.58651134
0.58590419
0.585262
0.58456814
0.58381039
0.58298039
0.58205491
0.5810429
0.58006768
0.57887979
0.64755333
0.76676151
0.71382312
0.74070527
0.72271933
0.72890274
0.72236628
0.72206589
0.71904612
0.71693456
0.71441443
0.71186675
0.70921532
0.70646801
0.70362634
0.7006918
0.697667
0.69455544
0.6913616
0.68809096
0.68475006
0.68134655
0.67788915
0.67438763
0.67085275
0.66729616
0.66373027
0.66016807
0.65662295
0.65310845
0.64963804
0.64622487
0.64288153
0.63961978
0.63645033
0.63338271
0.63042505
0.62758397
0.62486454
0.62227026
0.61980308
0.61746346
0.61525048
0.61316201
0.61119483
0.60934479
0.60760704
0.60597616
0.60444632
0.60301146
0.60166539
0.60040198
0.59921516
0.59809913
0.59704835
0.59605761
0.59512213
0.59423752
0.59339983
0.59260553
0.59185144
0.59113482
0.59045353
0.58980589
0.58919068
0.58860665
0.58805161
0.58752098
0.58700656
0.58649641
0.5859761
0.58543045
0.58484409
0.58420242
0.58349442
0.58270663
0.58181875
0.58086983
0.57993808
0.57867647
0.6490461
0.76789876
0.71435529
0.74113407
0.72271113
0.72842413
0.72191704
0.72124398
0.71802646
0.71556616
0.7127943
0.70995616
0.70701132
0.70396366
0.70081573
0.6975708
0.69423314
0.69080825
0.68730282
0.68372481
0.68008344
0.67638922
0.67265388
0.66889026
0.66511219
0.66133428
0.65757175
0.6538401
0.65015491
0.64653145
0.64298445
0.63952777
0.63617413
0.63293485
0.62981963
0.62683645
0.62399139
0.62128867
0.61873061
0.61631775
0.61404895
0.61192156
0.60993165
0.60807414
0.60634311
0.60473192
0.6032335
0.60184046
0.60054531
0.59934057
0.59821892
0.59717329
0.59619694
0.59528355
0.59442721
0.59362254
0.59286464
0.59214913
0.59147213
0.59083026
0.59022051
0.58964034
0.58908778
0.58856132
0.58805988
0.58758237
0.58712673
0.58668849
0.58625948
0.58582776
0.58537905
0.58489856
0.58437214
0.58378748
0.58313335
0.58239074
0.58154799
0.58067089
0.57978188
0.57847099
0.65014002
0.76839588
0.71429698
0.74007358
0.72193933
0.72711663
0.72070201
0.71943817
0.71609155
0.71325933
0.71017878
0.70700498
0.70371815
0.70032246
0.6968218
0.69322174
0.689529
0.68575183
0.68190001
0.67798484
0.67401911
0.67001704
0.66599412
0.66196689
0.65795271
0.65396947
0.65003523
0.6461679
0.64238481
0.6387024
0.63513582
0.63169862
0.62840248
0.62525699
0.6222695
0.61944509
0.61678652
0.6142944
0.61196727
0.60980185
0.60779327
0.6059353
0.60422066
0.60264128
0.60118852
0.59985343
0.59862694
0.59750002
0.59646386
0.59550996
0.59463022
0.59381706
0.5930634
0.59236274
0.59170915
0.5910973
0.59052248
0.58998054
0.58946788
0.58898139
0.5885184
0.58807671
0.58765461
0.58725082
0.58686448
0.58649471
0.58613966
0.58579508
0.585453
0.5851016
0.58472665
0.58431369
0.5838501
0.58332602
0.58272892
0.58203514
0.58124553
0.58044548
0.57959712
0.57826237
0.65074464
0.76808669
0.71353628
0.7382982
0.72054654
0.72490255
0.71856237
0.71669834
0.71312152
0.70987712
0.70642478
0.70286108
0.69917694
0.69537916
0.69147389
0.68746988
0.68337738
0.67920857
0.67497749
0.67069996
0.66639339
0.66207664
0.65776967
0.65349322
0.64926843
0.64511638
0.64105765
0.63711186
0.63329719
0.62962996
0.62612428
0.62279174
0.61964125
0.61667889
0.61390793
0.611329
0.60894017
0.6067373
0.60471431
0.6028635
0.6011759
0.5996416
0.59825008
0.59699045
0.59585176
0.59482313
0.593894
0.59305421
0.59229414
0.59160476
0.59097769
0.59040525
0.58988042
0.58939688
0.588949
0.58853182
0.588141
0.58777284
0.5874242
0.58709241
0.58677526
0.58647095
0.58617813
0.58589583
0.58562344
0.58536031
0.58510489
0.58485328
0.58459788
0.5843271
0.58402669
0.58368244
0.58328345
0.58282212
0.58228434
0.58164446
0.58091778
0.58019658
0.57937971
0.57804811
0.65079554
0.76689467
0.71193556
0.73583534
0.71830549
0.72168151
0.71537628
0.71285805
0.70896928
0.70526232
0.70136677
0.69734762
0.69320159
0.68893964
0.68457183
0.68011155
0.67557419
0.67097745
0.66634108
0.6616867
0.65703741
0.65241746
0.64785175
0.64336532
0.63898279
0.63472774
0.63062215
0.62668583
0.6229359
0.61938646
0.61604826
0.61292859
0.61003128
0.60735682
0.60490262
0.60266334
0.60063129
0.59879683
0.59714884
0.5956751
0.59436273
0.5931985
0.59216912
0.59126155
0.59046314
0.5897618
0.58914614
0.58860554
0.58813015
0.58771099
0.58733989
0.5870095
0.58671328
0.58644543
0.58620088
0.58597527
0.58576488
0.58556661
0.58537791
0.58519668
0.58502122
0.58485027
0.58468286
0.58451835
0.5843564
0.58419665
0.58403788
0.58387667
0.58370599
0.58351461
0.58328825
0.58301292
0.58267925
0.58228134
0.58180398
0.58122389
0.58057073
0.57992618
0.57912501
0.57783361
0.65027317
0.76472458
0.70942287
0.732285
0.71506424
0.71734225
0.7109963
0.70777328
0.70346298
0.69922289
0.6947999
0.69024574
0.68556237
0.68076662
0.67587479
0.67090696
0.66588564
0.66083578
0.65578431
0.6507598
0.64579181
0.64091034
0.63614507
0.63152462
0.62707579
0.62282278
0.61878655
0.61498426
0.61142895
0.60812929
0.60508963
0.60231015
0.59978723
0.59751384
0.5954801
0.59367383
0.59208111
0.59068679
0.58947501
0.58842963
0.58753458
0.58677415
0.58613324
0.58559754
0.58515362
0.58478903
0.58449233
0.58425309
0.58406193
0.58391042
0.58379107
0.58369727
0.58362328
0.58356412
0.5835155
0.58347385
0.5834362
0.5834002
0.58336396
0.58332604
0.58328533
0.58324108
0.58319278
0.58314014
0.58308309
0.58302152
0.5829546
0.58287951
0.58278998
0.58267535
0.58252146
0.58231455
0.5820462
0.581711
0.58129364
0.58077829
0.58020779
0.57963734
0.57884244
0.57761565
0.64912128
0.76140886
0.7059433
0.72757859
0.71066858
0.71171797
0.70522465
0.7012295
0.69637147
0.6915043
0.6864549
0.68127362
0.67597025
0.67056979
0.66509747
0.65958235
0.65405606
0.64855244
0.64310691
0.63775573
0.63253506
0.62747998
0.62262346
0.61799538
0.61362153
0.60952297
0.60571548
0.60220933
0.59900929
0.59611489
0.59352089
0.59121788
0.58919299
0.58743064
0.58591323
0.58462186
0.58353692
0.58263867
0.58190759
0.58132483
0.58087237
0.58053329
0.58029185
0.58013355
0.58004518
0.58001478
0.58003163
0.5800862
0.58017006
0.58027583
0.58039706
0.58052824
0.58066463
0.58080226
0.58093782
0.58106864
0.58119259
0.5813081
0.58141403
0.5815096
0.58159432
0.58166798
0.58173051
0.58178197
0.58182254
0.58185236
0.58187098
0.58187629
0.58186294
0.58182111
0.58173715
0.58159768
0.58139429
0.58112036
0.5807613
0.58031337
0.57983137
0.57933441
0.57854643
0.57740142
0.64728449
0.75671173
0.70153358
0.72152264
0.70491277
0.70458599
0.69779502
0.6929327
0.68737925
0.68176836
0.67598251
0.67007768
0.66407514
0.65801066
0.65192107
0.64584686
0.63983082
0.63391721
0.6281506
0.62257453
0.61723006
0.61215441
0.60737969
0.60293186
0.59883006
0.59508633
0.59170563
0.58868628
0.58602059
0.58369574
0.58169473
0.57999736
0.57858122
0.57742254
0.576497
0.57578033
0.57524886
0.5748799
0.57465204
0.57454534
0.57454141
0.5746235
0.57477644
0.57498666
0.57524206
0.57553196
0.57584702
0.57617908
0.57652112
0.57686713
0.57721199
0.57755144
0.57788193
0.57820061
0.5785052
0.57879398
0.57906572
0.57931962
0.57955527
0.57977258
0.57997165
0.5801528
0.58031639
0.58046279
0.58059244
0.58070567
0.58080241
0.58088126
0.58093794
0.58096384
0.58094643
0.58087299
0.58073417
0.58052021
0.5802177
0.57983765
0.5794454
0.5790231
0.57825552
0.57717184
0.64470642
0.75025355
0.69610598
0.71385923
0.69749302
0.69560458
0.68832368
0.68247309
0.67606601
0.66958518
0.66295488
0.65624067
0.64947971
0.64272205
0.63601961
0.62942718
0.62300043
0.61679416
0.61086027
0.60524579
0.59999105
0.59512832
0.59068089
0.58666268
0.58307844
0.57992435
0.57718901
0.57485467
0.57289859
0.57129436
0.57001317
0.56902496
0.56829937
0.56780654
0.5675177
0.56740561
0.56744486
0.56761204
0.56788581
0.56824693
0.56867817
0.56916422
0.56969162
0.57024858
0.57082486
0.57141164
0.57200137
0.57258764
0.57316508
0.57372923
0.57427644
0.57480378
0.57530894
0.57579021
0.57624635
0.57667657
0.5770805
0.57745811
0.57780967
0.57813571
0.57843692
0.57871408
0.57896798
0.5791993
0.57940865
0.57959657
0.57976331
0.57990813
0.58002786
0.58011547
0.58016031
0.58015084
0.58007592
0.57992145
0.57967543
0.57936331
0.57905648
0.57870137
0.57796292
0.57695062
0.64125772
0.74136792
0.68903727
0.70414011
0.68795573
0.68430095
0.67630798
0.66933689
0.66192023
0.65444677
0.64687936
0.63929843
0.63176339
0.62434398
0.61711076
0.61013395
0.60348022
0.59720989
0.59137433
0.58601402
0.58115734
0.57682017
0.57300622
0.56970813
0.56690888
0.56458365
0.56270165
0.56122799
0.56012537
0.55935553
0.55888047
0.55866337
0.55866923
0.55886541
0.55922184
0.5597112
0.56030889
0.56099296
0.56174404
0.5625451
0.56338132
0.56423989
0.56510979
0.56598164
0.5668475
0.56770072
0.5685358
0.5693482
0.57013432
0.57089128
0.57161689
0.57230955
0.57296816
0.57359206
0.57418102
0.57473513
0.57525478
0.57574067
0.57619366
0.57661484
0.57700545
0.57736668
0.57769969
0.57800547
0.57828483
0.57853845
0.57876682
0.57896972
0.57914506
0.57928769
0.57938955
0.57944068
0.57942802
0.57933328
0.57914668
0.57890456
0.57867382
0.57836716
0.57766187
0.57676104
0.63665412
0.73000833
0.67990195
0.69180441
0.67572322
0.67011661
0.66115056
0.65290908
0.64433212
0.63576026
0.62720345
0.61876556
0.61053483
0.60260363
0.59505907
0.58797989
0.58143249
0.57546821
0.57012173
0.56541073
0.56133661
0.55788617
0.55503396
0.55274484
0.55097676
0.54968323
0.54881563
0.54832501
0.54816363
0.54828601
0.54864966
0.54921553
0.54994823
0.55081604
0.55179081
0.55284783
0.55396552
0.55512522
0.55631087
0.55750878
0.55870736
0.55989684
0.5610691
0.56221743
0.56333636
0.5644215
0.5654694
0.56647742
0.56744361
0.56836664
0.56924568
0.57008035
0.57087066
0.57161693
0.57231979
0.57298011
0.57359899
0.57417772
0.57471771
0.57522054
0.57568785
0.57612127
0.57652227
0.57689214
0.57723188
0.57754233
0.57782413
0.5780774
0.57830094
0.57849165
0.57864437
0.57875099
0.57879712
0.57876233
0.57864074
0.57847376
0.57831011
0.57803076
0.57735736
0.57661677
0.63053101
0.71726791
0.66814098
0.67627199
0.66008458
0.65233701
0.64209032
0.63240936
0.62255545
0.61285213
0.60336855
0.59423743
0.58557306
0.5774806
0.57004719
0.56333883
0.55739809
0.55224395
0.54787327
0.54426354
0.5413765
0.53916207
0.53756222
0.53651452
0.53595511
0.53582115
0.53605249
0.53659294
0.53739098
0.53840009
0.53957884
0.54089072
0.5423039
0.54379082
0.54532785
0.54689486
0.54847481
0.55005339
0.55161869
0.55316086
0.55467184
0.55614512
0.55757552
0.558959
0.56029248
0.56157372
0.56280121
0.56397401
0.5650917
0.56615432
0.56716224
0.56811617
0.56901705
0.56986608
0.57066461
0.5714142
0.5721165
0.57277331
0.57338651
0.57395808
0.57449001
0.57498427
0.57544264
0.57586669
0.57625766
0.57661656
0.57694412
0.57724059
0.5775055
0.5777376
0.57793444
0.57808983
0.57818927
0.5782134
0.57816203
0.57807602
0.57797704
0.57771921
0.57708
0.57649091
0.6225652
0.70055443
0.65293261
0.6566642
0.64000627
0.62991191
0.61810249
0.60687883
0.59577673
0.58511408
0.57501579
0.56563056
0.55707373
0.54943188
0.54275755
0.53707005
0.53235804
0.5285842
0.52569082
0.52360583
0.52224843
0.52153406
0.52137839
0.52170027
0.52242383
0.52347966
0.52480548
0.52634619
0.52805368
0.5298864
0.53180879
0.53379065
0.53580657
0.53783531
0.53985923
0.54186383
0.54383727
0.54576999
0.54765437
0.54948441
0.55125553
0.55296431
0.55460829
0.55618588
0.55769615
0.55913877
0.5605139
0.5618221
0.56306426
0.56424155
0.56535539
0.56640736
0.56739923
0.56833285
0.56921023
0.57003344
0.57080461
0.57152593
0.57219968
0.57282813
0.57341357
0.57395823
0.57446421
0.57493332
0.57536712
0.57576679
0.57613314
0.57646649
0.57676688
0.57703446
0.57726886
0.57746557
0.57761151
0.57769118
0.57771063
0.57770658
0.57767463
0.57745586
0.57688214
0.5763991
0.61212278
0.67891649
0.63289651
0.63157201
0.61402167
0.60146016
0.58801715
0.57541154
0.5634266
0.55235699
0.54234245
0.53350248
0.52590189
0.51955883
0.51444781
0.51050783
0.50765139
0.50577369
0.50476102
0.50449777
0.50487171
0.50577764
0.50711967
0.50881224
0.51078039
0.51295938
0.51529399
0.51773759
0.52025117
0.52280238
0.52536457
0.52791599
0.53043902
0.53291954
0.53534634
0.53771067
0.54000579
0.54222667
0.54436968
0.54643235
0.54841317
0.55031141
0.55212701
0.55386043
0.55551256
0.55708468
0.55857831
0.55999525
0.56133744
0.56260701
0.56380617
0.56493723
0.56600258
0.56700465
0.56794591
0.56882885
0.56965597
0.57042978
0.57115283
0.57182765
0.57245675
0.57304259
0.57358749
0.57409356
0.57456264
0.5749962
0.57539516
0.57575997
0.57609103
0.57638932
0.57665562
0.57688671
0.57707215
0.57720197
0.57728739
0.5773594
0.57739416
0.57723022
0.57674381
0.57635218
0.59805465
0.65025728
0.60612185
0.59924575
0.58052242
0.5656036
0.55093722
0.53763821
0.52566952
0.51524603
0.50643926
0.49926596
0.49367613
0.48957098
0.48681634
0.48525771
0.48473281
0.4850817
0.48615369
0.48781173
0.48993446
0.49241674
0.49516902
0.49811611
0.50119563
0.50435634
0.50755655
0.51076261
0.51394761
0.51709025
0.52017382
0.5231854
0.52611518
0.52895587
0.53170223
0.5343507
0.53689909
0.53934626
0.541692
0.54393677
0.54608161
0.54812803
0.55007787
0.55193327
0.55369656
0.55537027
0.55695703
0.55845956
0.55988067
0.56122318
0.56248994
0.56368381
0.56480766
0.56586433
0.56685666
0.56778745
0.56865948
0.5694755
0.57023826
0.57095048
0.57161484
0.57223396
0.57281036
0.57334642
0.57384426
0.57430563
0.57473174
0.57512332
0.57548111
0.57580642
0.5761002
0.57636005
0.57657892
0.57675321
0.57689761
0.577035
0.57712754
0.57702283
0.57663957
0.57639129
0.57840202
0.61223644
0.57041503
0.55787925
0.53846812
0.52162666
0.50687345
0.49428967
0.4838414
0.47557123
0.46938205
0.46511507
0.46256046
0.46148569
0.46165451
0.46284195
0.46484335
0.46747899
0.47059524
0.47406359
0.47777831
0.48165363
0.48562081
0.48962527
0.49362417
0.49758417
0.50147964
0.50529114
0.50900417
0.5126082
0.51609578
0.519462
0.52270386
0.52581995
0.52881003
0.53167482
0.53441579
0.53703497
0.53953481
0.5419181
0.54418786
0.5463473
0.54839973
0.55034856
0.55219723
0.55394919
0.55560791
0.55717681
0.5586593
0.56005875
0.56137847
0.56262171
0.5637917
0.56489158
0.56592444
0.56689333
0.56780121
0.568651
0.56944561
0.57018788
0.57088061
0.57152656
0.5721284
0.5726887
0.57320982
0.57369384
0.57414232
0.57455646
0.57493746
0.57528666
0.57560459
0.57588922
0.5761368
0.57634971
0.57654463
0.57673562
0.57687659
0.57683751
0.5765789
0.57647424
0.5505556
0.56235014
0.52438721
0.50610876
0.48560983
0.4702462
0.45736212
0.44755407
0.44055797
0.43613225
0.43393256
0.43359769
0.43477228
0.43713211
0.44039456
0.44432217
0.44872078
0.45343501
0.45834256
0.46334852
0.46838018
0.47338244
0.47831414
0.48314493
0.48785289
0.49242262
0.49684369
0.50110952
0.50521646
0.50916306
0.51294958
0.51657753
0.52004936
0.52336821
0.52653773
0.52956191
0.53244496
0.53519127
0.5378053
0.54029153
0.54265445
0.54489849
0.54702805
0.54904744
0.55096089
0.55277252
0.55448639
0.55610642
0.55763645
0.55908023
0.56044138
0.56172345
0.56292989
0.56406406
0.56512924
0.56612862
0.56706529
0.56794229
0.56876264
0.56952927
0.57024506
0.57091286
0.57153545
0.57211553
0.57265567
0.57315816
0.57362502
0.57405798
0.57445872
0.57482871
0.57516817
0.57547538
0.57574886
0.57599431
0.57622805
0.5764583
0.57664194
0.57668035
0.5765592
0.57655719
0.51041082
0.49800237
0.46101136
0.44324152
0.42593315
0.41381997
0.40557251
0.40097812
0.39938605
0.40021377
0.40289592
0.40694857
0.41197215
0.4176505
0.42373995
0.4300569
0.43646532
0.44286607
0.44918802
0.45538107
0.46141075
0.46725417
0.47289693
0.47833086
0.4835523
0.48856087
0.49335852
0.49794882
0.50233652
0.5065271
0.51052655
0.51434115
0.5179773
0.52144145
0.52474002
0.5278793
0.53086549
0.53370461
0.5364025
0.53896484
0.54139711
0.54370461
0.54589245
0.54796558
0.54992875
0.55178656
0.55354343
0.55520364
0.55677132
0.55825044
0.55964487
0.56095833
0.56219442
0.56335665
0.56444842
0.56547299
0.56643356
0.56733325
0.56817513
0.56896219
0.56969738
0.5703836
0.57102371
0.5716205
0.57217667
0.57269476
0.57317708
0.57362585
0.57404315
0.57443072
0.5747892
0.57511787
0.57541676
0.5756914
0.57595335
0.5762057
0.57641917
0.57653428
0.5765399
0.57670893
0.44909714
0.41673632
0.38720164
0.37246013
0.3616968
0.35693431
0.35637996
0.35912043
0.36416981
0.37077292
0.37834797
0.38647313
0.39484996
0.40327285
0.4116032
0.41974997
0.42765536
0.43528458
0.44261864
0.44964931
0.45637561
0.46280135
0.46893347
0.47478086
0.48035352
0.48566208
0.49071736
0.49553014
0.50011101
0.50447024
0.50861773
0.51256298
0.51631506
0.51988262
0.52327392
0.52649678
0.52955867
0.53246669
0.53522759
0.53784781
0.54033348
0.54269043
0.54492426
0.54704029
0.54904362
0.55093913
0.55273149
0.55442519
0.55602453
0.55753365
0.55895653
0.56029701
0.56155879
0.56274548
0.56386051
0.56490725
0.56588892
0.56680869
0.56766968
0.56847491
0.56922738
0.56993002
0.57058574
0.57119742
0.57176788
0.57229983
0.57279587
0.57325844
0.57368982
0.5740921
0.57446691
0.57481531
0.57513854
0.57543985
0.57572447
0.57599284
0.57623012
0.57641319
0.57656303
0.57681066
0.35395773
0.32064759
0.30313297
0.29869022
0.30007328
0.30631032
0.31543266
0.32618191
0.33768948
0.3494074
0.36100216
0.37227912
0.38313148
0.39350675
0.40338561
0.41276864
0.42166797
0.43010215
0.43809294
0.44566336
0.45283654
0.45963496
0.46608012
0.47219233
0.47799064
0.4834928
0.48871537
0.4936737
0.49838208
0.50285378
0.50710113
0.51113563
0.514968
0.51860822
0.52206565
0.52534907
0.52846669
0.53142627
0.53423508
0.53690001
0.53942757
0.54182391
0.54409489
0.54624606
0.5482827
0.55020986
0.55203234
0.55375475
0.55538148
0.55691675
0.55836462
0.55972898
0.5610136
0.56222211
0.56335801
0.56442468
0.56542539
0.56636334
0.56724167
0.56806343
0.56883164
0.56954926
0.57021925
0.57084454
0.57142805
0.57197269
0.5724812
0.57295612
0.57339977
0.57381461
0.57420335
0.57456861
0.57491207
0.57523409
0.57553522
0.57581826
0.57608788
0.5763482
0.57660726
0.5768907
0.21556955
0.21430238
0.21966632
0.23300147
0.25021904
0.26850705
0.28666795
0.30405544
0.3204422
0.33576505
0.35004935
0.36335546
0.37575696
0.38732894
0.39814296
0.40826484
0.41775413
0.42666418
0.43504257
0.4429317
0.45036934
0.45738921
0.46402146
0.47029312
0.4762285
0.48184953
0.48717604
0.49222604
0.49701593
0.50156068
0.50587403
0.50996858
0.51385597
0.51754696
0.52105151
0.52437892
0.52753782
0.5305363
0.53338196
0.5360819
0.53864283
0.54107108
0.54337264
0.54555317
0.54761804
0.54957239
0.55142108
0.55316875
0.55481986
0.55637866
0.55784922
0.55923547
0.56054119
0.56177003
0.56292549
0.56401099
0.56502979
0.56598512
0.56688013
0.56771789
0.56850143
0.56923372
0.56991772
0.57055639
0.57115277
0.57170986
0.57223048
0.57271716
0.57317231
0.5735988
0.57400036
0.57438061
0.57474055
0.5750773
0.57538865
0.57568324
0.57598487
0.57631472
0.57665588
0.57694337
0.09152367
0.12128336
0.1585285
0.19201053
0.22198934
0.24837591
0.27178828
0.29269062
0.3114975
0.32853383
0.34406153
0.35829039
0.37139068
0.38350176
0.39473889
0.40519828
0.41496096
0.42409577
0.43266161
0.44070925
0.44828276
0.45542061
0.46215659
0.46852056
0.474539
0.48023557
0.48563145
0.49074572
0.49559564
0.50019687
0.50456369
0.50870916
0.51264526
0.51638303
0.51993271
0.52330374
0.52650494
0.52954451
0.53243014
0.53516902
0.53776794
0.54023326
0.542571
0.54478687
0.54688627
0.54887433
0.55075592
0.5525357
0.55421811
0.55580739
0.5573076
0.55872266
0.56005632
0.56131221
0.56249382
0.56360452
0.56464758
0.5656262
0.56654351
0.56740258
0.56820643
0.568958
0.56966023
0.57031611
0.57092869
0.57150102
0.57203595
0.57253596
0.57300351
0.57344188
0.57385559
0.57424886
0.574622
0.57496995
0.5752894
0.5755938
0.57591902
0.57629465
0.57668563
0.57697125
0.010884706
0.29809232
0.46990365
0.51658728
0.5260119
0.52653519
0.52624599
0.52735666
0.52884498
0.53032169
0.53178969
0.53321859
0.53462669
0.53601779
0.53740885
0.53880779
0.54021498
0.54163086
0.54305524
0.54448706
0.54592479
0.54736653
0.54881024
0.55025372
0.55169473
0.55313102
0.55456035
0.55598055
0.55738946
0.55878501
0.56016518
0.56152798
0.5628715
0.56419383
0.56549311
0.5667675
0.56801517
0.56923429
0.57042304
0.5715796
0.57270213
0.57378879
0.57483773
0.57584709
0.576815
0.57773961
0.57861905
0.57945149
0.58023513
0.58096822
0.58164908
0.58227611
0.58284779
0.58336276
0.58381978
0.58421782
0.58455603
0.58483379
0.58505074
0.58520657
0.5853008
0.58533346
0.58530489
0.58521644
0.58506788
0.58486476
0.58460107
0.5843019
0.58392963
0.58358729
0.58310397
0.58282787
0.58218806
0.58219469
0.58120587
0.58167571
0.57994695
0.58089642
0.57846226
0.57986227
0.066896472
0.38547353
0.51933692
0.54357563
0.54434784
0.54259797
0.54177706
0.5419346
0.54213945
0.54244918
0.54284506
0.54340603
0.54408494
0.54485404
0.54568471
0.5465738
0.54751453
0.54850258
0.54953261
0.55059942
0.55169827
0.5528247
0.55397449
0.55514366
0.55632842
0.55752514
0.55873037
0.55994081
0.56115327
0.56236469
0.56357212
0.56477271
0.56596369
0.56714239
0.56830618
0.56945252
0.5705789
0.57168289
0.57276208
0.57381409
0.57483661
0.57582731
0.57678395
0.57770426
0.57858605
0.57942714
0.58022542
0.5809788
0.58168532
0.58234305
0.58295019
0.58350507
0.58400611
0.58445193
0.58484132
0.58517326
0.58544701
0.58566204
0.58581812
0.58591504
0.58595249
0.58593069
0.58585024
0.58571259
0.58551807
0.5852718
0.58496964
0.5846338
0.58423331
0.58385928
0.58336216
0.58305667
0.58241946
0.58238387
0.58140667
0.58182027
0.58009601
0.58101095
0.57850395
0.57996602
0.15379089
0.46556166
0.53832446
0.55083012
0.54944927
0.54858868
0.54859817
0.54916565
0.54958756
0.55012154
0.55063099
0.55120131
0.55179081
0.55242171
0.55308549
0.55378639
0.55452042
0.55528814
0.55608805
0.55691844
0.55777754
0.55866341
0.55957393
0.56050686
0.5614598
0.56243026
0.56341564
0.56441327
0.56542043
0.56643433
0.56745218
0.56847113
0.56948835
0.57050099
0.5715062
0.57250115
0.57348302
0.57444901
0.57539635
0.57632229
0.5772241
0.57809912
0.57894469
0.57975821
0.58053715
0.58127901
0.58198138
0.58264195
0.58325849
0.58382892
0.58435128
0.58482374
0.58524466
0.58561261
0.58592634
0.58618484
0.58638744
0.58653366
0.58662337
0.58665646
0.58663276
0.58655262
0.58641687
0.58622709
0.58598402
0.58569256
0.58534989
0.58497634
0.58454532
0.5841396
0.58362516
0.5832938
0.58265266
0.58257956
0.5816059
0.58196675
0.58023564
0.58112167
0.57856066
0.5800623
0.23528
0.51117792
0.55190931
0.55921663
0.55657944
0.55686168
0.55691428
0.55751727
0.55778789
0.55824302
0.55861592
0.55907036
0.55952651
0.56001466
0.56052021
0.56105072
0.56160351
0.562181
0.56278298
0.56340936
0.56405983
0.56473386
0.56543065
0.56614921
0.56688828
0.56764641
0.56842195
0.56921304
0.57001766
0.57083363
0.57165862
0.57249018
0.57332574
0.57416266
0.57499817
0.57582949
0.57665374
0.57746804
0.57826947
0.57905508
0.57982195
0.58056716
0.58128779
0.581981
0.58264396
0.58327395
0.58386831
0.5844245
0.5849401
0.58541283
0.5858406
0.58622145
0.58655366
0.58683572