/*--------------------------------*- C++ -*----------------------------------*\
  =========                 |
  \\      /  F ield         | OpenFOAM: The Open Source CFD Toolbox
   \\    /   O peration     | Website:  https://openfoam.org
    \\  /    A nd           | Version:  12
     \\/     M anipulation  |
\*---------------------------------------------------------------------------*/
FoamFile
{
    format      ascii;
    class       volScalarField;
    location    "0.083";
    object      p;
}
// * * * * * * * * * * * * * * * * * * * * * * * * * * * * * * * * * * * * * //

dimensions      [1 -1 -2 0 0 0 0];

internalField   nonuniform List<scalar> 
16000
(
89874.84
89999.465
90011.235
90144.13
90170.034
90295.957
90345.853
90461.208
90534.209
90643.958
90734.988
90844.655
90949.561
91063.488
91179.28
91300.447
91425.619
91555.391
91689.64
91828.452
91971.833
92119.789
92272.298
92429.318
92590.78
92756.589
92926.618
93100.71
93278.676
93460.295
93645.309
93833.429
94024.331
94217.658
94413.025
94610.015
94808.189
95007.085
95206.224
95405.114
95603.257
95800.151
95995.298
96188.21
96378.413
96565.455
96748.909
96928.38
97103.505
97273.957
97439.447
97599.721
97754.567
97903.812
98047.323
98185
98316.78
98442.63
98562.545
98676.553
98784.704
98887.066
98983.729
99074.801
99160.405
99240.675
99315.753
99385.789
99450.937
99511.349
99567.171
99618.565
99665.711
99708.673
99747.806
99781.254
99826.726
99809.969
99930.886
99808.647
89507.428
89648.763
89658.087
89802.893
89830.37
89967.074
90019.347
90145.863
90222.627
90342.387
90439.707
90558.201
90671.295
90793.953
90918.859
91049.358
91184.264
91324.055
91468.651
91618.104
91772.409
91931.544
92095.459
92264.078
92437.293
92614.965
92796.922
92982.956
93172.826
93366.251
93562.915
93762.467
93964.52
94168.656
94374.423
94581.348
94788.931
94996.658
95204
95410.426
95615.402
95818.401
96018.912
96216.44
96410.519
96600.713
96786.62
96967.879
97144.17
97315.214
97480.773
97640.655
97794.708
97942.82
98084.92
98220.968
98350.958
98474.909
98592.869
98704.906
98811.11
98911.581
99006.435
99095.8
99179.811
99258.611
99332.347
99401.168
99465.225
99524.661
99579.617
99630.277
99676.807
99719.164
99757.358
99793.682
99826.011
99837.04
99915.306
99833.387
89170.715
89327.358
89336.443
89494.46
89522.023
89672.301
89726.228
89864.916
89946.475
90076.608
90181.592
90309.538
90432.068
90564.452
90699.652
90840.666
90986.513
91137.549
91293.708
91455.003
91621.398
91792.835
91969.226
92150.451
92336.357
92526.754
92721.414
92920.072
93122.423
93328.119
93536.775
93747.969
93961.242
94176.103
94392.031
94608.486
94824.906
95040.721
95255.357
95468.243
95678.82
95886.545
96090.904
96291.413
96487.627
96679.141
96865.599
97046.69
97222.155
97391.778
97555.394
97712.883
97864.168
98009.212
98148.015
98280.606
98407.043
98527.407
98641.796
98750.33
98853.135
98950.35
99042.115
99128.58
99209.891
99286.197
99357.644
99424.377
99486.535
99544.246
99597.642
99646.903
99692.146
99733.297
99770.859
99806.247
99834.062
99857.798
99910.796
99853.378
88868.624
89035.87
89046.076
89219.176
89246.239
89412.532
89468.631
89621.434
89708.707
89850.73
89964.833
90103.571
90237.141
90380.698
90527.698
90680.687
90838.892
91002.545
91171.584
91345.982
91525.674
91710.564
91900.523
92095.385
92294.941
92498.942
92707.097
92919.067
93134.468
93352.875
93573.817
93796.786
94021.24
94246.602
94472.277
94697.649
94922.095
95144.991
95365.719
95583.682
95798.303
96009.044
96215.402
96416.923
96613.205
96803.897
96988.708
97167.4
97339.792
97505.755
97665.21
97818.126
97964.514
98104.422
98237.929
98365.141
98486.185
98601.205
98710.357
98813.806
98911.723
99004.277
99091.637
99173.969
99251.433
99324.18
99392.354
99456.092
99515.517
99570.74
99621.88
99669.083
99712.411
99751.896
99788.231
99821.481
99847.691
99875.363
99912.948
99872.135
88603.972
88785.94
88793.121
88984.713
89010.708
89195.257
89253.541
89422.323
89516.617
89671.953
89796.966
89947.716
90093.866
90249.865
90409.927
90576.106
90747.836
90925.26
91108.317
91296.95
91491.059
91690.505
91895.104
92104.627
92318.794
92537.277
92759.694
92985.615
93214.557
93445.992
93679.35
93914.019
94149.358
94384.702
94619.369
94852.672
95083.927
95312.465
95537.642
95758.846
95975.509
96187.114
96393.2
96593.368
96787.284
96974.681
97155.353
97329.163
97496.029
97655.925
97808.877
97954.956
98094.268
98226.955
98353.182
98473.133
98587.004
98695.003
98797.339
98894.223
98985.864
99072.463
99154.209
99231.284
99303.856
99372.077
99436.086
99496.006
99551.942
99603.985
99652.237
99696.794
99737.68
99775.038
99809.438
99840.2
99865.338
99892.956
99919.777
99893.72
88381.941
88581.398
88586.302
88798.792
88823.672
89028.439
89088.988
89275.443
89377.993
89547.473
89684.701
89848.033
90007.723
90177.019
90351.1
90531.54
90717.948
90910.384
91108.764
91312.975
91522.857
91738.198
91958.73
92184.13
92414.019
92647.958
92885.45
93125.944
93368.836
93613.474
93859.166
94105.188
94350.791
94595.215
94837.695
95077.481
95313.842
95546.082
95773.553
95995.658
96211.866
96421.716
96624.82
96820.868
97009.627
97190.939
97364.718
97530.946
97689.663
97840.965
97984.994
98121.93
98251.985
98375.394
98492.408
98603.287
98708.295
98807.695
98901.745
98990.696
99074.79
99154.249
99229.281
99300.078
99366.808
99429.625
99488.655
99544.006
99595.763
99643.994
99688.773
99730.151
99768.142
99802.928
99834.801
99862.859
99886.638
99911.866
99930.89
99918.232
88203.242
88423.314
88425.477
88662.3
88686.214
88914.844
88978.6
89184.31
89295.166
89478.154
89628.487
89804.981
89979.502
90163.556
90353.296
90549.797
90752.749
90962.109
91177.721
91399.39
91626.857
91859.806
92097.855
92340.557
92587.4
92837.805
93091.132
93346.685
93603.713
93861.425
94118.995
94375.576
94630.312
94882.355
95130.872
95375.069
95614.195
95847.561
96074.548
96294.616
96507.311
96712.269
96909.216
97097.971
97278.436
97450.595
97614.508
97770.299
97918.147
98058.28
98190.965
98316.496
98435.188
98547.367
98653.363
98753.504
98848.113
98937.501
99021.964
99101.784
99177.223
99248.521
99315.894
99379.536
99439.614
99496.272
99549.625
99599.761
99646.741
99690.611
99731.406
99769.142
99803.837
99835.641
99864.534
99889.732
99911.759
99933.238
99946.092
99945.449
88062.172
88306.476
88304.43
88570.536
88591.446
88846.608
88913.467
89138.054
89260.333
89459.134
89626.134
89818.533
90010.834
90212.502
90420.637
90635.895
90857.999
91086.803
91322.06
91563.464
91810.637
92063.127
92320.404
92581.864
92846.831
93114.555
93384.224
93654.971
93925.881
94196.01
94464.394
94730.07
94992.086
95249.525
95501.521
95747.268
95986.04
96217.202
96440.217
96654.652
96860.182
97056.591
97243.766
97421.693
97590.448
97750.186
97901.134
98043.573
98177.834
98304.281
98423.302
98535.302
98640.69
98739.871
98833.244
98921.193
99004.084
99082.263
99156.052
99225.749
99291.63
99353.938
99412.888
99468.67
99521.443
99571.336
99618.448
99662.845
99704.562
99743.615
99780.002
99813.711
99844.764
99873.214
99898.776
99921.006
99940.814
99957.52
99965.493
99975.939
87956.657
88229.021
88222.605
88524.886
88540.064
88823.652
88895.658
89141.934
89280.741
89497.864
89685.176
89896.385
90109.508
90331.867
90561.377
90798.348
91042.47
91293.473
91550.98
91814.538
92083.605
92357.554
92635.665
92917.137
93201.089
93486.567
93772.558
94058.003
94341.814
94622.891
94900.143
95172.51
95438.979
95698.608
95950.54
96194.023
96428.416
96653.202
96867.992
97072.526
97266.671
97450.41
97623.839
97787.151
97940.624
98084.606
98219.502
98345.759
98463.853
98574.279
98677.537
98774.126
98864.531
98949.223
99028.648
99103.228
99173.357
99239.398
99301.683
99360.516
99416.169
99468.879
99518.854
99566.267
99611.265
99653.956
99694.418
99732.691
99768.784
99802.68
99834.337
99863.724
99890.854
99915.629
99937.608
99956.826
99973.968
99985.217
99989.431
100009.99
87888.846
88193.958
88184.349
88523.606
88537.661
88853.085
88936.262
89207.513
89366.039
89603.465
89814.705
90047.906
90285.101
90531.53
90785.695
91047.598
91316.826
91592.94
91875.386
92163.512
92456.56
92753.673
93053.89
93356.162
93659.362
93962.299
94263.736
94562.415
94857.077
95146.487
95429.46
95704.886
95971.749
96229.15
96476.322
96712.646
96937.652
97151.027
97352.611
97542.386
97720.472
97887.106
98042.63
98187.472
98322.127
98447.141
98563.096
98670.592
98770.238
98862.638
98948.38
99028.034
99102.14
99171.207
99235.707
99296.08
99352.725
99406.007
99456.252
99503.752
99548.766
99591.515
99632.185
99670.933
99707.879
99743.112
99776.683
99808.605
99838.854
99867.376
99894.095
99918.968
99941.965
99962.814
99981.068
99997.279
100011.35
100016.82
100018.47
100047.86
87865.334
88209.341
88195.848
88575.116
88592.96
88944.435
89042.499
89340.645
89524.547
89785.146
90024.528
90283.644
90548.629
90822.913
91105.351
91395.665
91693.268
91997.496
92307.55
92622.51
92941.329
93262.85
93585.81
93908.862
94230.595
94549.56
94864.294
95173.354
95475.341
95768.94
96052.938
96326.258
96587.978
96837.348
97073.804
97296.967
97506.646
97702.826
97885.657
98055.435
98212.58
98357.62
98491.161
98613.87
98726.456
98829.647
98924.178
99010.777
99090.153
99162.988
99229.928
99291.58
99348.509
99401.236
99450.236
99495.94
99538.737
99578.971
99616.949
99652.939
99687.174
99719.847
99751.119
99781.119
99809.941
99837.647
99864.258
99889.759
99914.091
99937.158
99958.856
99979.127
99997.864
100014.63
100029.14
100042.38
100052.94
100052.38
100052.59
100090.32
87894.956
88285.244
88267.841
88694.559
88717.342
89108.067
89225.419
89552.306
89767.259
90054.304
90326.149
90615.617
90912.549
91218.887
91533.601
91856.098
92185.519
92520.881
92861.039
93204.706
93550.461
93896.771
94242.017
94584.515
94922.557
95254.44
95578.51
95893.19
96197.027
96488.721
96767.158
97031.43
97280.853
97514.975
97733.57
97936.632
98124.355
98297.112
98455.428
98599.955
98731.44
98850.7
98958.597
99056.015
99143.841
99222.949
99294.186
99358.363
99416.249
99468.561
99515.965
99559.073
99598.442
99634.576
99667.927
99698.898
99727.847
99755.085
99780.883
99805.473
99829.054
99851.785
99873.793
99895.175
99915.997
99936.288
99956.043
99975.212
99993.698
100011.37
100028.09
100043.78
100058.22
100070.86
100081.73
100092.05
100098.64
100092.1
100092.24
100137.71
87978.894
88424.251
88403.537
88884.382
88915.412
89349.143
89493.24
89851.413
90104.459
90422.663
90732.046
91057.247
91391.097
91734.35
92085.849
92444.588
92809.297
93178.541
93550.709
93924.047
94296.677
94666.636
95031.913
95390.486
95740.375
96079.684
96406.656
96719.711
97017.495
97298.905
97563.116
97809.587
98038.062
98248.552
98441.32
98616.843
98775.787
98918.965
99047.301
99161.803
99263.521
99353.529
99432.896
99502.668
99563.857
99617.421
99664.267
99705.236
99741.105
99772.585
99800.322
99824.896
99846.828
99866.58
99884.559
99901.122
99916.578
99931.193
99945.193
99958.766
99972.068
99985.219
99998.31
100011.4
100024.53
100037.69
100050.85
100063.92
100076.77
100089.23
100101.15
100112.38
100122.59
100131.21
100138.67
100146.09
100148.33
100136.41
100138.05
100189.58
88122.003
88632.741
88609.302
89151.61
89197.193
89677.856
89857.903
90250.692
90549.541
90905.16
91258.073
91625.399
92002.017
92387.63
92780.679
93179.58
93582.49
93987.386
94392.081
94794.269
95191.562
95581.543
95961.822
96330.098
96684.226
97022.274
97342.585
97643.817
97924.971
98185.411
98424.852
98643.349
98841.264
99019.223
99178.079
99318.859
99442.717
99550.897
99644.689
99725.396
99794.307
99852.675
99901.699
99942.513
99976.175
100003.67
100025.89
100043.65
100057.7
100068.7
100077.23
100083.81
100088.92
100092.93
100096.21
100099.04
100101.67
100104.33
100107.17
100110.35
100113.97
100118.1
100122.81
100128.11
100134.01
100140.47
100147.43
100154.77
100162.32
100169.88
100177.27
100184.28
100190.42
100195.26
100199.64
100204.16
100201.89
100185.72
100190.14
100244.71
88330.894
88919.835
88895.502
89507.682
89574.948
90106.567
90333.68
90766.201
91119.742
91521.157
91924.99
92341.857
92767.676
93201.106
93639.937
94081.849
94524.28
94964.504
95399.667
95826.851
96243.145
96645.727
97031.951
97399.434
97746.133
98070.406
98371.052
98647.325
98898.933
99126.007
99329.058
99508.927
99666.718
99803.744
99921.458
100021.41
100105.17
100174.35
100230.48
100275.08
100309.55
100335.23
100353.35
100365.04
100371.35
100373.19
100371.4
100366.73
100359.84
100351.31
100341.63
100331.25
100320.55
100309.85
100299.42
100289.49
100280.24
100271.83
100264.38
100257.98
100252.68
100248.53
100245.53
100243.68
100242.94
100243.25
100244.52
100246.6
100249.29
100252.36
100255.61
100258.7
100261.06
100262.49
100264.15
100265.78
100259.02
100239.98
100247.98
100301.84
88611.863
89294.241
89271.823
89963.332
90063.393
90651.738
90940.428
91421.12
91839.772
92297.17
92760.138
93234.004
93714.89
94200.385
94687.424
95172.785
95653.027
96124.593
96583.892
97027.419
97451.871
97854.275
98232.092
98583.303
98906.463
99200.719
99465.798
99701.966
99909.962
100090.93
100246.32
100377.82
100487.28
100576.64
100647.83
100702.81
100743.45
100771.52
100788.71
100796.57
100796.53
100789.88
100777.81
100761.36
100741.47
100718.95
100694.55
100668.89
100642.51
100615.9
100589.45
100563.5
100538.36
100514.24
100491.36
100469.85
100449.86
100431.46
100414.73
100399.7
100386.39
100374.79
100364.89
100356.62
100349.93
100344.74
100340.91
100338.27
100336.6
100335.68
100335.22
100334.78
100333.75
100332.24
100331.57
100330.28
100319.09
100298.32
100310.54
100361.33
88972.188
89766.17
89751.058
90536.785
90686.513
91341.544
91708.805
92248.419
92742.693
93266.34
93796.037
94333.048
94873.003
95412.232
95946.511
96471.45
96982.555
97475.398
97945.798
98389.993
98804.795
99187.712
99537.009
99851.736
100131.69
100377.37
100589.86
100770.72
100921.89
101045.57
101144.11
101219.93
101275.47
101313.07
101334.99
101343.35
101340.13
101327.13
101306
101278.21
101245.08
101207.78
101167.35
101124.7
101080.6
101035.74
100990.71
100945.99
100902.03
100859.16
100817.68
100777.83
100739.82
100703.79
100669.86
100638.13
100608.64
100581.44
100556.53
100533.92
100513.57
100495.45
100479.48
100465.6
100453.72
100443.71
100435.41
100428.65
100423.19
100418.79
100415.11
100411.58
100407.64
100403.76
100401.13
100396.88
100381.39
100359.94
100377.01
100423.95
89431.063
90362.46
90366.012
91265.761
91482.657
92214.564
92677.561
93287.145
93866.439
94465.747
95068.463
95672.457
96272.038
96861.797
97435.971
97988.872
98515.105
99009.84
99469.03
99889.578
100269.42
100607.53
100903.88
101159.34
101375.5
101554.53
101699.04
101811.91
101896.16
101954.84
101990.95
102007.37
102006.8
101991.76
101964.55
101927.26
101881.76
101829.71
101772.6
101711.71
101648.16
101582.93
101516.86
101450.66
101384.96
101320.25
101256.98
101195.5
101136.1
101079.01
101024.43
100972.49
100923.31
100876.96
100833.48
100792.91
100755.24
100720.45
100688.52
100659.4
100633.02
100609.31
100588.16
100569.49
100553.17
100539.05
100526.96
100516.69
100508.01
100500.67
100494.25
100488.09
100481.82
100476.17
100471.84
100464.58
100445.5
100424.72
100446.38
100488.55
90020.847
91127.056
91159.647
92191.914
92494.416
93310.889
93888.095
94580.98
95254.643
95937.909
96617.079
97286.553
97938.503
98565.521
99160.501
99717.14
100230.24
100695.92
101111.76
101476.72
101791.12
102056.4
102274.91
102449.72
102584.35
102682.58
102748.31
102785.39
102797.53
102788.23
102760.74
102718.02
102662.74
102597.29
102523.79
102444.08
102359.8
102272.34
102182.91
102092.54
102002.11
101912.36
101823.91
101737.28
101652.9
101571.11
101492.19
101416.37
101343.8
101274.61
101208.89
101146.7
101088.06
101032.99
100981.45
100933.43
100888.87
100847.71
100809.88
100775.3
100743.87
100715.49
100690.04
100667.38
100647.38
100629.85
100614.61
100601.43
100590.1
100580.33
100571.62
100563.34
100555.33
100548.43
100542.54
100532.33
100510.82
100492.29
100517.6
100552.53
90771.033
92087.92
92163.895
93347.072
93768.815
94681.676
95394.338
96186.867
96962.212
97731.58
98480.779
99200.707
99881.645
100515.25
101094.75
101615.27
102073.98
102470.01
102804.26
103079.08
103297.98
103465.28
103585.77
103664.46
103706.38
103716.38
103699.07
103658.69
103599.1
103523.77
103435.78
103337.84
103232.3
103121.2
103006.3
102889.09
102770.84
102652.62
102535.33
102419.72
102306.4
102195.87
102088.54
101984.73
101884.7
101788.63
101696.67
101608.9
101525.4
101446.17
101371.23
101300.56
101234.11
101171.83
101113.65
101059.49
101009.27
100962.88
100920.22
100881.18
100845.63
100813.45
100784.49
100758.6
100735.62
100715.35
100697.58
100682.07
100668.62
100656.88
100646.33
100636.41
100627.19
100619.42
100612.06
100599.21
100576.56
100561.45
100588.59
100614.16
91710.331
93290.464
93445.744
94797.404
95383.325
96408.392
97273.304
98175.772
99047.284
99886.012
100676.28
101407.27
102069.92
102658.11
103168.61
103600.93
103957
104240.64
104457.06
104612.37
104713.13
104766
104777.48
104753.71
104700.34
104622.51
104524.79
104411.2
104285.25
104149.97
104007.94
103861.37
103712.13
103561.76
103411.58
103262.67
103115.92
102972.06
102831.67
102695.21
102563.06
102435.5
102312.74
102194.92
102082.15
101974.48
101871.93
101774.49
101682.13
101594.79
101512.39
101434.87
101362.11
101294.02
101230.49
101171.4
101116.62
101066.04
101019.51
100976.9
100938.08
100902.88
100871.15
100842.72
100817.41
100794.99
100775.24
100757.94
100742.84
100729.57
100717.58
100706.44
100696.42
100688
100679.26
100664.4
100641.8
100630.12
100656.38
100672.39
92920.892
94833.755
95112.58
96653.245
97450.287
98596.215
99608.686
100606.17
101537.66
102394.67
103163.65
103837.02
104411.19
104886.54
105266.71
105557.83
105767.66
105904.91
105978.61
105997.62
105970.35
105904.55
105807.17
105684.37
105541.51
105383.2
105213.37
105035.36
104851.96
104665.5
104477.9
104290.76
104105.37
103922.79
103743.87
103569.28
103399.55
103235.1
103076.22
102923.14
102776
102634.91
102499.91
102370.99
102248.14
102131.29
102020.36
101915.27
101815.91
101722.15
101633.86
101550.93
101473.19
101400.52
101332.77
101269.79
101211.44
101157.56
101108.01
101062.63
101021.25
100983.72
100949.86
100919.49
100892.39
100868.35
100847.13
100828.5
100812.17
100797.75
100784.69
100772.73
100762.16
100753.14
100743.18
100726.94
100705.06
100696.33
100720.13
100726.68
94533.471
96857.485
97314.015
99042.188
100085.35
101337.9
102446.62
103473.83
104382.31
105165.91
105820.45
106348.06
106755.26
107051.78
107249.29
107360.29
107397.27
107372.1
107295.68
107177.74
107026.78
106850.12
106653.98
106443.57
106223.22
105996.52
105766.4
105535.26
105305.04
105077.28
104853.23
104633.87
104419.97
104212.1
104010.72
103816.13
103628.56
103448.15
103274.97
103109.04
102950.34
102798.81
102654.36
102516.88
102386.24
102262.29
102144.9
102033.89
101929.11
101830.38
101737.54
101650.4
101568.81
101492.6
101421.58
101355.6
101294.48
101238.07
101186.2
101138.7
101095.39
101056.09
101020.63
100988.8
100960.39
100935.17
100912.89
100893.32
100876.13
100860.9
100847.15
100834.69
100823.79
100814.2
100803.18
100786.23
100765.55
100759.05
100780.49
100778.69
96737
99522.05
100218.12
102085.78
103338.36
104637.83
105727.91
106659.15
107418.67
108012.21
108450.67
108749.66
108926.85
109000.45
108987.89
108905.16
108766.4
108583.81
108367.71
108126.7
107867.85
107596.94
107318.63
107036.66
106754.01
106473.06
106195.65
105923.23
105656.92
105397.55
105145.75
104901.98
104666.55
104439.65
104221.39
104011.8
103810.86
103618.49
103434.6
103259.05
103091.67
102932.3
102780.74
102636.81
102500.3
102370.99
102248.7
102133.2
102024.3
101921.79
101825.47
101735.13
101650.6
101571.67
101498.16
101429.89
101366.67
101308.34
101254.71
101205.6
101160.84
101120.24
101083.6
101050.71
101021.36
100995.31
100972.31
100952.1
100934.35
100918.62
100904.5
100891.88
100880.83
100870.77
100859.03
100842.31
100823.65
100817.88
100833.71
100826.56
99782.559
102941.65
103943.06
105876.26
107170.61
108325.67
109232.53
109915.78
110392.93
110690.34
110835.63
110855.99
110776.21
110618
110399.75
110136.7
109841.21
109523.21
109190.57
108849.49
108504.8
108160.24
107818.7
107482.38
107152.92
106831.56
106519.19
106216.44
105923.73
105641.34
105369.39
105107.93
104856.91
104616.24
104385.77
104165.32
103954.69
103753.66
103561.98
103379.4
103205.69
103040.56
102883.78
102735.08
102594.22
102460.93
102334.97
102216.11
102104.11
101998.75
101899.79
101807.03
101720.25
101639.26
101563.84
101493.82
101429
101369.2
101314.24
101263.92
101218.07
101176.49
101138.98
101105.33
101075.32
101048.7
101025.23
101004.63
100986.54
100970.57
100956.38
100943.81
100932.76
100922.4
100910.44
100894.81
100878.63
100872.5
100880.62
100869.06
103928.57
107300.29
108503.4
110177.78
111292.09
112114.63
112644.15
112934.83
113030.77
112974.6
112802.35
112543.93
112223.29
111859.26
111466.41
111055.88
110636.11
110213.44
109792.61
109377.11
108969.48
108571.57
108184.65
107809.61
107447.01
107097.18
106760.25
106436.25
106125.09
105826.59
105540.54
105266.67
105004.71
104754.35
104515.25
104287.1
104069.57
103862.31
103665.02
103477.36
103299
103129.66
102969
102816.75
102672.61
102536.3
102407.55
102286.11
102171.71
102064.11
101963.09
101868.41
101779.85
101697.21
101620.27
101548.84
101482.73
101421.75
101365.71
101314.42
101267.69
101225.33
101187.14
101152.9
101122.39
101095.37
101071.57
101050.73
101032.49
101016.48
101002.4
100990.01
100979.04
100968.6
100956.99
100943.09
100929.19
100921.72
100922.6
100906.02
109105.84
112441.98
113550.09
114667.29
115273.99
115556.66
115579.06
115413.82
115114.43
114722.83
114270.2
113779.49
113267.38
112745.84
112223.41
111706.1
111198.11
110702.31
110220.61
109754.22
109303.87
108869.92
108452.45
108051.4
107666.52
107297.53
106944.05
106605.66
106281.93
105972.41
105676.63
105394.15
105124.52
104867.28
104622.01
104388.27
104165.67
103953.8
103752.27
103560.72
103378.78
103206.11
103042.37
102887.25
102740.43
102601.62
102470.53
102346.89
102230.43
102120.91
102018.07
101921.69
101831.55
101747.42
101669.11
101596.4
101529.1
101467.03
101410
101357.8
101310.27
101267.19
101228.37
101193.59
101162.63
101135.25
101111.19
101090.16
101071.86
101055.95
101042.07
101029.89
101018.98
101008.66
100997.88
100986.01
100974.16
100965.09
100957.44
100936.67
115265.09
117755.53
118361.18
118641.25
118549.82
118226.44
117749.64
117179.34
116555.7
115905.92
115248.06
114593.99
113951.4
113325.18
112718.3
112132.48
111568.56
111026.82
110507.14
110009.16
109532.37
109076.14
108639.8
108222.63
107823.94
107443.01
107079.14
106731.68
106399.95
106083.35
105781.27
105493.13
105218.39
104956.51
104707.01
104469.4
104243.23
104028.05
103823.44
103629.02
103444.39
103269.2
103103.08
102945.72
102796.78
102655.95
102522.96
102397.52
102279.35
102168.2
102063.84
101966.01
101874.5
101789.09
101709.56
101635.72
101567.37
101504.33
101446.4
101393.38
101345.1
101301.36
101261.96
101226.68
101195.31
101167.59
101143.27
101122.09
101103.77
101087.98
101074.3
101062.27
101051.48
101041.61
101032.26
101022.74
101012.04
100999.35
100983.77
100962.66
121829.18
122267.65
122053.65
121512.36
120790.84
119978.07
119129.51
118276.6
117437.63
116622.72
115837.23
115083.67
114362.84
113674.54
113018.01
112392.13
111795.65
111227.25
110685.57
110169.33
109677.25
109208.16
108760.9
108334.43
107927.73
107539.87
107169.98
106817.22
106480.82
106160.06
105854.25
105562.75
105284.96
105020.31
104768.25
104528.27
104299.89
104082.65
103876.11
103679.87
103493.51
103316.68
103149
102990.14
102839.77
102697.58
102563.27
102436.55
102317.17
102204.85
102099.35
102000.44
101907.89
101821.47
101740.98
101666.22
101597
101533.12
101474.4
101420.65
101371.69
101327.31
101287.34
101251.55
101219.73
101191.64
101167.02
101145.64
101127.24
101111.5
101097.92
101085.97
101075.31
101066
101058.09
101050.44
101040.03
101023.71
101002.28
100982.43
125664.81
125047.15
124143.1
123103.93
122032.98
120973.8
119948.81
118967.2
118032.39
117144.61
116302.59
115504.3
114747.42
114029.53
113348.27
112701.39
112086.79
111502.5
110946.71
110417.77
109914.13
109434.38
108977.24
108541.5
108126.07
107729.93
107352.13
106991.81
106648.14
106320.38
106007.81
105709.77
105425.64
105154.83
104896.8
104651.03
104417.03
104194.32
103982.48
103781.08
103589.72
103408.03
103235.64
103072.22
102917.44
102770.97
102632.54
102501.84
102378.62
102262.6
102153.56
102051.24
101955.42
101865.89
101782.43
101704.85
101632.95
101566.55
101505.46
101449.49
101398.46
101352.19
101310.47
101273.11
101239.88
101210.53
101184.83
101162.55
101143.44
101127.16
101113.16
101100.84
101089.95
101080.81
101073.66
101066.95
101056.35
101037.5
101012.57
100993.73
103954.13
103928.16
103977.04
104025.8
104061.76
104071.76
104054.7
104025.62
103990.73
103946.46
103888.39
103817.21
103736.85
103652.14
103563.74
103471.71
103376.4
103278.3
103177.84
103075.42
102971.39
102866.11
102759.91
102653.06
102545.86
102438.55
102331.36
102224.52
102118.22
102012.65
101908
101804.43
101702.1
101601.17
101501.79
101404.1
101308.26
101214.39
101122.63
101033.13
100946.02
100861.42
100779.48
100700.32
100624.07
100550.87
100480.82
100414.04
100350.66
100290.77
100234.45
100181.81
100132.89
100087.76
100046.46
100008.99
99975.342
99945.495
99919.392
99896.949
99878.061
99862.589
99850.39
99841.238
99835.057
99831.291
99830.487
99830.573
99835.129
99835.964
99848.112
99843.899
99869.775
99846.711
99900.206
99843.18
99935.187
99837.236
99966.256
99829.965
103340.05
103333.74
103346.49
103361.27
103358.93
103350.37
103338.44
103320.02
103289.85
103254.05
103211.43
103163.82
103110.42
103052.39
102989.74
102923.18
102852.91
102779.28
102702.61
102623.19
102541.32
102457.3
102371.41
102283.91
102195.07
102105.15
102014.41
101923.08
101831.41
101739.63
101647.96
101556.61
101465.8
101375.74
101286.61
101198.63
101111.97
101026.82
100943.37
100861.79
100782.24
100704.91
100629.96
100557.54
100487.81
100420.92
100357.01
100296.23
100238.69
100184.51
100133.78
100086.61
100043.06
100003.19
99967.037
99934.605
99905.883
99880.836
99859.402
99841.489
99826.98
99815.728
99807.576
99802.297
99799.781
99799.527
99801.943
99805.229
99812.428
99816.388
99830.268
99829.167
99855.505
99836.426
99889.091
99836.403
99927.555
99831.295
99963.879
99822.737
102928.16
102911.88
102881.77
102850.19
102819.77
102791.39
102758.43
102726.29
102690.56
102654.46
102614.42
102573.15
102528.36
102481.59
102431.83
102379.63
102324.8
102267.5
102207.76
102145.7
102081.43
102015.08
101946.8
101876.74
101805.06
101731.95
101657.58
101582.15
101505.85
101428.9
101351.48
101273.83
101196.13
101118.62
101041.5
100964.98
100889.28
100814.6
100741.16
100669.15
100598.78
100530.24
100463.73
100399.43
100337.53
100278.2
100221.59
100167.88
100117.2
100069.67
100025.42
99984.546
99947.122
99913.21
99882.848
99856.046
99832.788
99813.034
99796.716
99783.736
99773.968
99767.258
99763.438
99762.282
99763.65
99767.084
99772.89
99779.468
99789.478
99796.53
99812.42
99814.161
99841.292
99825.646
99878.125
99829.339
99919.921
99825.513
99961.327
99815.983
102326.41
102303.6
102275.13
102243.63
102212.29
102184.48
102152.27
102123.04
102089.63
102058.26
102023.35
101989.27
101952.38
101915.18
101875.85
101835.26
101792.89
101748.9
101703.16
101655.68
101606.45
101555.47
101502.8
101448.47
101392.56
101335.16
101276.38
101216.33
101155.17
101093.04
101030.1
100966.54
100902.53
100838.28
100773.99
100709.85
100646.09
100582.92
100520.55
100459.2
100399.08
100340.42
100283.41
100228.27
100175.2
100124.39
100076.02
100030.27
99987.292
99947.227
99910.204
99876.331
99845.696
99818.362
99794.367
99773.725
99756.418
99742.403
99731.606
99723.925
99719.227
99717.352
99718.123
99721.313
99726.764
99734.046
99743.39
99753.354
99766.303
99776.432
99794.53
99798.978
99827.19
99814.668
99867.117
99822.113
99912.536
99819.903
99958.929
99809.883
101599.77
101584.29
101569.29
101551.46
101531.64
101516.04
101494.53
101477.4
101454.8
101435.52
101411.72
101389.79
101364.55
101339.86
101313.03
101285.38
101256.12
101225.56
101193.48
101159.89
101124.76
101088.06
101049.8
101010.01
100968.7
100925.92
100881.74
100836.24
100789.5
100741.65
100692.8
100643.1
100592.69
100541.76
100490.46
100439
100387.57
100336.37
100285.62
100235.53
100186.33
100138.22
100091.43
100046.18
100002.68
99961.122
99921.715
99884.635
99850.05
99818.112
99788.957
99762.7
99739.433
99719.223
99702.108
99688.102
99677.186
99669.313
99664.407
99662.358
99663.029
99666.255
99671.852
99679.593
99689.303
99700.582
99713.59
99727.03
99743.012
99756.23
99776.631
99783.75
99813.323
99803.924
99856.194
99814.842
99905.323
99814.47
99956.276
99804.336
100890.68
100885.03
100881.17
100876.42
100867.63
100863.98
100853.02
100847.97
100836
100828.65
100815.62
100805.42
100791.21
100778.21
100762.86
100747.02
100729.56
100710.98
100691.04
100669.79
100647.18
100623.19
100597.82
100571.05
100542.91
100513.4
100482.55
100450.42
100417.06
100382.55
100346.98
100310.46
100273.11
100235.06
100196.47
100157.5
100118.33
100079.15
100040.15
100001.54
99963.537
99926.346
99890.187
99855.277
99821.829
99790.047
99760.127
99732.256
99706.605
99683.329
99662.567
99644.436
99629.028
99616.409
99606.617
99599.662
99595.524
99594.152
99595.462
99599.341
99605.647
99614.21
99624.841
99637.312
99651.435
99666.839
99683.619
99700.617
99719.703
99736.012
99758.778
99768.599
99799.644
99793.611
99845.7
99807.623
99898.398
99809.224
99953.052
99799.171
100251.81
100252.25
100253.48
100256.92
100255.16
100260.01
100256.17
100259.94
100255.39
100257.05
100252.28
100251.84
100246.64
100242.84
100236.4
100230.02
100222.21
100213.62
100203.95
100193.22
100181.38
100168.4
100154.23
100138.88
100122.32
100104.55
100085.59
100065.46
100044.19
100021.84
99998.46
99974.143
99948.979
99923.081
99896.573
99869.595
99842.301
99814.857
99787.441
99760.239
99733.449
99707.271
99681.911
99657.574
99634.463
99612.776
99592.703
99574.425
99558.108
99543.906
99531.951
99522.358
99515.213
99510.576
99508.481
99508.933
99511.905
99517.341
99525.15
99535.213
99547.383
99561.485
99577.326
99594.678
99613.345
99632.978
99653.621
99674.244
99696.485
99715.886
99741.082
99753.651
99786.176
99783.529
99835.678
99800.568
99891.641
99804.191
99949.581
99794.33
99679.469
99684.743
99688.911
99697.163
99698.772
99709.063
99709.142
99718.785
99718.831
99726.808
99727.089