/*--------------------------------*- C++ -*----------------------------------*\
  =========                 |
  \\      /  F ield         | OpenFOAM: The Open Source CFD Toolbox
   \\    /   O peration     | Website:  https://openfoam.org
    \\  /    A nd           | Version:  12
     \\/     M anipulation  |
\*---------------------------------------------------------------------------*/
FoamFile
{
    format      ascii;
    class       volScalarField;
    location    "0.083";
    object      rho;
}
// * * * * * * * * * * * * * * * * * * * * * * * * * * * * * * * * * * * * * //

dimensions      [1 -3 0 0 0 0 0];

internalField   nonuniform List<scalar> 
16000
(
1.0578072
1.0900439
1.0779944
1.086231
1.0824516
1.0858331
1.0848728
1.0866634
1.0868109
1.0880005
1.0886432
1.0896426
1.0905081
1.0914908
1.0924731
1.0935067
1.0945723
1.0956774
1.0968201
1.0980014
1.0992212
1.1004795
1.1017761
1.1031106
1.1044822
1.1058903
1.1073335
1.1088105
1.1103197
1.111859
1.1134262
1.1150189
1.1166341
1.1182689
1.1199199
1.1215835
1.123256
1.1249334
1.1266117
1.1282867
1.1299542
1.1316098
1.1332495
1.1348691
1.1364645
1.1380321
1.1395682
1.1410695
1.1425329
1.1439558
1.1453358
1.1466707
1.1479588
1.1491988
1.1503897
1.1515307
1.1526214
1.153662
1.1546526
1.1555939
1.1564867
1.1573322
1.1581322
1.1588885
1.1596032
1.1602789
1.1609179
1.1615225
1.1620941
1.1626323
1.1631344
1.1635948
1.1640055
1.1643566
1.1646413
1.1648459
1.1651128
1.1648642
1.1657722
1.1645397
1.0545497
1.0873077
1.0747961
1.0834296
1.0794256
1.0830744
1.0820135
1.083975
1.0841155
1.0854071
1.0861009
1.087175
1.0881138
1.0891702
1.0902322
1.091346
1.0924957
1.0936871
1.0949191
1.0961921
1.0975061
1.0988607
1.1002555
1.1016898
1.1031627
1.1046727
1.1062185
1.1077982
1.1094096
1.1110503
1.1127175
1.1144082
1.1161191
1.1178466
1.1195867
1.1213354
1.1230885
1.1248416
1.1265902
1.1283297
1.1300557
1.1317636
1.1334493
1.1351084
1.1367372
1.1383319
1.1398892
1.1414061
1.1428798
1.1443082
1.1456892
1.1470213
1.1483033
1.1495344
1.150714
1.151842
1.1529186
1.1539442
1.1549195
1.1558455
1.1567234
1.1575547
1.1583413
1.1590852
1.1597887
1.1604541
1.1610839
1.1616802
1.1622439
1.1627747
1.1632693
1.1637224
1.1641258
1.164469
1.1647443
1.1649729
1.1651337
1.1650954
1.1656637
1.1647676
1.0515953
1.0848031
1.0718804
1.0808573
1.0767132
1.0805616
1.0794725
1.0815527
1.0817344
1.0831085
1.0838756
1.0850257
1.0860493
1.0871878
1.0883393
1.0895434
1.0907874
1.0920756
1.093407
1.0947818
1.0961995
1.0976596
1.0991613
1.1007035
1.1022848
1.1039035
1.1055576
1.1072448
1.1089624
1.1107074
1.1124765
1.1142661
1.1160721
1.1178905
1.1197166
1.121546
1.1233738
1.1251952
1.1270053
1.1287994
1.1305726
1.1323204
1.1340385
1.1357229
1.1373697
1.1389756
1.1405378
1.1420535
1.1435206
1.1449375
1.1463027
1.1476153
1.1488749
1.1500811
1.1512341
1.1523343
1.1533825
1.1543796
1.1553268
1.1562254
1.1570772
1.1578837
1.1586472
1.1593698
1.1600538
1.1607016
1.1613153
1.1618969
1.1624471
1.1629648
1.1634467
1.1638871
1.1642776
1.1646081
1.1648767
1.1650961
1.1652225
1.1653083
1.165649
1.1649729
1.048962
1.0825425
1.0692051
1.078545
1.0742654
1.0783437
1.0772311
1.0794479
1.0796798
1.081149
1.082003
1.0832407
1.0843634
1.0855969
1.0868511
1.0881583
1.0895091
1.0909059
1.0923481
1.0938353
1.0953671
1.0969424
1.0985602
1.1002188
1.1019166
1.1036514
1.1054205
1.107221
1.1090496
1.1109026
1.1127761
1.1146655
1.1165664
1.1184736
1.1203823
1.1222871
1.1241827
1.1260639
1.1279254
1.1297622
1.1315695
1.1333427
1.1350776
1.1367704
1.1384177
1.1400168
1.1415651
1.1430607
1.1445022
1.1458885
1.147219
1.1484937
1.1497126
1.1508764
1.1519857
1.1530418
1.1540459
1.1549995
1.1559043
1.156762
1.1575748
1.1583446
1.1590736
1.1597642
1.1604188
1.1610396
1.1616287
1.1621877
1.1627169
1.1632149
1.163678
1.1641002
1.1644727
1.1647871
1.1650445
1.1652462
1.1653636
1.1654903
1.1657069
1.1651662
1.0466833
1.0806487
1.0669304
1.0765505
1.0721331
1.0764815
1.0753591
1.0777181
1.0780213
1.0795929
1.0805524
1.0818873
1.0831224
1.0844617
1.0858289
1.0872494
1.0887162
1.090231
1.0917931
1.093402
1.0950568
1.0967562
1.0984987
1.1002822
1.1021042
1.103962
1.1058521
1.107771
1.1097144
1.1116777
1.1136562
1.1156445
1.1176372
1.1196286
1.1216129
1.1235844
1.1255372
1.1274656
1.1293643
1.131228
1.1330521
1.1348322
1.1365644
1.1382455
1.1398727
1.1414437
1.1429571
1.1444115
1.1458065
1.147142
1.1484181
1.1496357
1.1507957
1.1518994
1.1529485
1.1539447
1.1548898
1.1557858
1.1566351
1.1574397
1.1582019
1.1589241
1.1596087
1.160258
1.1608745
1.1614604
1.1620175
1.162547
1.1630489
1.1635214
1.1639605
1.1643598
1.1647103
1.1650053
1.1652459
1.165428
1.1655421
1.1656774
1.1658035
1.1653949
1.0448082
1.0791423
1.0650771
1.0750031
1.0704883
1.0750493
1.0739156
1.0764364
1.0768285
1.078507
1.0795841
1.0810199
1.0823744
1.083826
1.0853134
1.0868554
1.0884474
1.0900902
1.0917828
1.0935244
1.0953134
1.0971481
1.099026
1.1009443
1.1028997
1.1048885
1.1069063
1.1089484
1.1110097
1.1130845
1.1151669
1.1172508
1.1193297
1.1213973
1.1234471
1.1254727
1.1274679
1.1294269
1.1313442
1.1332149
1.1350345
1.1367992
1.1385057
1.1401516
1.1417349
1.1432543
1.1447094
1.1460998
1.1474262
1.1486894
1.1498907
1.1510318
1.1521145
1.1531409
1.1541135
1.1550344
1.1559063
1.1567317
1.1575131
1.158253
1.1589541
1.1596188
1.1602497
1.1608492
1.1614197
1.1619632
1.1624813
1.162975
1.1634438
1.1638855
1.1642957
1.1646678
1.1649929
1.1652655
1.165485
1.1656467
1.1657558
1.1658775
1.1659401
1.1656559
1.0433357
1.0780322
1.0636558
1.0739168
1.0693142
1.074075
1.0729821
1.075635
1.0761294
1.0778954
1.0790969
1.0806373
1.082121
1.0836973
1.0853185
1.0869974
1.0887305
1.0905175
1.0923568
1.0942469
1.0961854
1.0981696
1.100196
1.1022609
1.1043599
1.1064879
1.1086394
1.1108085
1.1129888
1.1151735
1.1173556
1.1195279
1.1216832
1.1238142
1.125914
1.1279758
1.1299933
1.1319608
1.1338731
1.1357256
1.1375147
1.1392373
1.1408911
1.1424749
1.1439877
1.1454297
1.1468013
1.1481037
1.1493385
1.1505078
1.1516139
1.1526594
1.1536471
1.1545799
1.1554608
1.1562927
1.1570785
1.1578214
1.158524
1.1591893
1.15982
1.1604187
1.160988
1.1615304
1.1620481
1.1625429
1.1630163
1.1634687
1.1638993
1.1643056
1.1646829
1.1650241
1.1653213
1.1655688
1.1657642
1.1659051
1.1660068
1.1661031
1.166115
1.1659512
1.0422062
1.0772631
1.062601
1.0732407
1.0685414
1.0735225
1.0724666
1.0753076
1.0758278
1.0777057
1.0790646
1.0807353
1.0823742
1.0841005
1.0858793
1.0877183
1.0896146
1.0915671
1.0935736
1.0956313
1.0977369
1.0998866
1.1020758
1.1042993
1.1065512
1.1088251
1.1111142
1.1134109
1.1157076
1.1179962
1.1202685
1.1225164
1.1247318
1.1269071
1.1290348
1.1311083
1.1331215
1.1350691
1.1369466
1.1387504
1.140478
1.1421275
1.1436981
1.1451898
1.1466034
1.1479402
1.1492023
1.1503921
1.1515126
1.1525669
1.1535583
1.1544905
1.1553669
1.1561913
1.1569671
1.1576977
1.1583866
1.1590369
1.1596518
1.1602342
1.160787
1.1613129
1.1618143
1.1622937
1.1627531
1.1631942
1.1636181
1.1640248
1.1644132
1.1647802
1.1651211
1.1654289
1.165696
1.1659164
1.1660858
1.1662059
1.1662962
1.1663574
1.1663307
1.1662838
1.0414134
1.0768206
1.0618954
1.0729919
1.0681129
1.0732628
1.072289
1.0751656
1.0759925
1.0780135
1.0795599
1.0813856
1.0832044
1.0851067
1.0870677
1.0890915
1.0911751
1.093316
1.0955112
1.0977565
1.1000474
1.1023784
1.1047433
1.1071353
1.1095469
1.1119699
1.1143957
1.1168153
1.1192195
1.1215989
1.1239445
1.1262471
1.1284983
1.1306903
1.1328157
1.1348684
1.1368429
1.1387351
1.1405418
1.1422608
1.1438911
1.1454327
1.1468866
1.1482544
1.1495386
1.1507423
1.151869
1.1529225
1.1539069
1.1548266
1.1556859
1.156489
1.1572403
1.1579438
1.1586035
1.1592232
1.1598064
1.1603566
1.1608769
1.1613703
1.1618397
1.1622877
1.1627166
1.1631288
1.1635261
1.1639099
1.1642808
1.1646386
1.1649817
1.1653067
1.1656088
1.1658811
1.1661168
1.1663088
1.1664515
1.1665515
1.1666262
1.166645
1.1665912
1.1666549
1.0409865
1.0767345
1.0615719
1.0730972
1.0680746
1.0734748
1.0726449
1.0757278
1.0767285
1.0788955
1.0806589
1.0826672
1.0846926
1.0867994
1.08897
1.0912054
1.0935018
1.0958553
1.0982613
1.100714
1.1032071
1.105733
1.1082838
1.1108503
1.113423
1.1159918
1.1185462
1.1210756
1.1235693
1.126017
1.1284086
1.1307348
1.1329872
1.1351581
1.1372413
1.1392315
1.141125
1.1429192
1.1446128
1.146206
1.1476997
1.1490961
1.1503982
1.1516097
1.152735
1.1537786
1.1547457
1.1556414
1.1564709
1.1572394
1.1579519
1.1586135
1.1592287
1.159802
1.1603376
1.1608394
1.1613111
1.161756
1.1621773
1.162578
1.1629607
1.1633278
1.1636817
1.1640242
1.1643571
1.1646814
1.1649974
1.1653044
1.1656004
1.1658818
1.1661435
1.1663795
1.166583
1.166746
1.1668626
1.1669437
1.1669989
1.1669713
1.1669019
1.1670678
1.0409922
1.0770747
1.0616842
1.0734026
1.0685175
1.074204
1.07358
1.0768147
1.0780891
1.0804298
1.0824445
1.0846694
1.0869321
1.0892749
1.091685
1.0941608
1.0966968
1.0992876
1.1019261
1.1046046
1.107314
1.1100446
1.1127856
1.1155256
1.1182526
1.1209543
1.1236184
1.1262328
1.1287857
1.1312659
1.1336634
1.1359692
1.1381755
1.1402762
1.1422666
1.1441436
1.1459058
1.1475532
1.1490872
1.1505104
1.1518265
1.15304
1.1541563
1.155181
1.1561202
1.1569801
1.157767
1.1584872
1.1591467
1.1597513
1.1603066
1.1608178
1.1612898
1.1617271
1.162134
1.1625143
1.1628716
1.1632091
1.1635297
1.1638362
1.1641311
1.1644166
1.1646947
1.164967
1.1652349
1.1654991
1.1657596
1.1660154
1.1662638
1.1665011
1.1667222
1.1669216
1.1670929
1.1672271
1.1673194
1.1673836
1.1674149
1.167337
1.1672628
1.1675317
1.0415129
1.0779146
1.0623307
1.0743379
1.0696199
1.0755484
1.0751784
1.0785903
1.0801724
1.0827144
1.0850141
1.0874932
1.0900269
1.0926404
1.095323
1.0980699
1.1008738
1.1037263
1.1066175
1.1095365
1.1124712
1.1154087
1.1183351
1.1212364
1.1240979
1.1269055
1.1296451
1.1323036
1.1348688
1.1373297
1.1396771
1.1419034
1.1440031
1.1459725
1.1478098
1.1495151
1.1510902
1.1525385
1.1538645
1.1550738
1.1561729
1.1571688
1.1580688
1.1588805
1.1596114
1.160269
1.1608605
1.1613928
1.1618723
1.1623054
1.1626975
1.1630542
1.16338
1.1636795
1.1639567
1.1642152
1.1644583
1.1646889
1.1649097
1.1651232
1.1653315
1.1655366
1.16574
1.1659433
1.1661473
1.1663525
1.1665585
1.1667638
1.1669656
1.1671595
1.1673408
1.1675043
1.1676438
1.1677502
1.1678214
1.167871
1.1678746
1.1677455
1.167679
1.1680498
1.0425449
1.0792619
1.0635116
1.0759386
1.0713745
1.0775422
1.0775053
1.0811075
1.0830599
1.085845
1.08847
1.0912488
1.0940943
1.0970187
1.1000108
1.1030623
1.1061623
1.1092985
1.1124573
1.1156239
1.1187822
1.1219158
1.1250076
1.1280406
1.1309982
1.1338645
1.1366246
1.1392655
1.1417757
1.1441462
1.1463701
1.148443
1.1503631
1.1521305
1.1537477
1.1552189
1.1565499
1.1577477
1.1588202
1.1597761
1.1606242
1.1613738
1.1620339
1.1626134
1.1631208
1.1635643
1.1639516
1.1642898
1.1645855
1.1648447
1.165073
1.1652755
1.1654566
1.1656203
1.1657703
1.1659099
1.166042
1.166169
1.1662935
1.1664173
1.1665423
1.1666701
1.1668019
1.1669389
1.1670817
1.1672303
1.1673841
1.1675411
1.1676982
1.1678509
1.1679942
1.1681235
1.1682323
1.1683127
1.1683667
1.1684044
1.1683779
1.1682028
1.1681587
1.168607
1.0441385
1.0811649
1.0652833
1.0781508
1.0738588
1.0802759
1.0806616
1.0844794
1.0868628
1.0899456
1.0929433
1.0960753
1.0992808
1.102561
1.1059016
1.1092895
1.1127088
1.1161424
1.1195718
1.1229776
1.1263396
1.1296375
1.1328512
1.1359614
1.13895
1.1418009
1.1445003
1.147037
1.1494027
1.1515924
1.1536039
1.1554379
1.1570976
1.1585886
1.1599182
1.1610954
1.1621299
1.1630324
1.1638139
1.1644854
1.1650579
1.1655419
1.1659476
1.1662845
1.1665616
1.1667872
1.1669688
1.1671134
1.1672273
1.1673161
1.1673849
1.167438
1.1674797
1.1675133
1.1675421
1.1675687
1.1675955
1.1676248
1.1676584
1.1676979
1.1677447
1.1678
1.1678649
1.1679399
1.1680253
1.1681211
1.1682261
1.1683381
1.1684537
1.1685682
1.1686766
1.1687741
1.1688539
1.1689108
1.1689515
1.1689797
1.1689244
1.1687145
1.1687024
1.1692054
1.0463544
1.0836832
1.067755
1.0811082
1.0771714
1.08385
1.0847617
1.0888366
1.0917213
1.0951752
1.0986053
1.1021527
1.1057711
1.1094517
1.1131749
1.1169214
1.1206693
1.1243959
1.128077
1.1316882
1.1352049
1.1386035
1.1418617
1.1449595
1.14788
1.1506095
1.153138
1.1554595
1.157572
1.1594768
1.1611784
1.1626844
1.1640041
1.165149
1.1661313
1.1669644
1.1676615
1.1682363
1.1687017
1.1690704
1.1693544
1.169565
1.1697123
1.1698061
1.169855
1.1698667
1.1698485
1.1698065
1.1697464
1.1696731
1.1695909
1.1695038
1.1694149
1.1693272
1.1692432
1.1691651
1.1690949
1.1690341
1.1689841
1.1689462
1.1689214
1.1689105
1.1689141
1.1689325
1.1689658
1.1690134
1.169074
1.1691452
1.1692234
1.1693038
1.1693813
1.1694502
1.1695037
1.16954
1.1695707
1.169591
1.1695111
1.1692834
1.1693097
1.1698245
1.04925
1.086849
1.0710516
1.0848801
1.0814331
1.0883982
1.0899673
1.0943728
1.097841
1.1017543
1.1056833
1.1097071
1.1137856
1.1178999
1.1220239
1.1261306
1.130191
1.1341753
1.1380534
1.1417957
1.1453745
1.1487648
1.1519455
1.1548998
1.1576158
1.1600867
1.1623105
1.1642898
1.1660314
1.167545
1.1688433
1.1699408
1.1708532
1.1715968
1.1721883
1.1726441
1.1729798
1.1732104
1.1733502
1.1734121
1.1734081
1.1733491
1.173245
1.1731045
1.1729354
1.1727448
1.1725388
1.1723227
1.1721012
1.1718783
1.1716575
1.171442
1.1712341
1.1710362
1.1708502
1.1706777
1.1705199
1.1703781
1.1702532
1.1701461
1.1700573
1.1699872
1.1699363
1.1699044
1.1698913
1.1698962
1.1699176
1.1699528
1.1699983
1.1700494
1.1701008
1.1701453
1.1701761
1.1701954
1.1702185
1.1702307
1.1701304
1.1699024
1.1699757
1.1704698
1.052893
1.0906696
1.0753004
1.0896118
1.0868438
1.0941608
1.0965357
1.1013655
1.1054972
1.1099562
1.1144435
1.1189926
1.1235617
1.1281213
1.1326358
1.1370683
1.1413811
1.1455369
1.1495006
1.1532405
1.15673
1.1599484
1.1628815
1.1655217
1.1678679
1.1699247
1.1717017
1.1732125
1.1744739
1.1755045
1.1763245
1.1769543
1.1774144
1.1777247
1.1779041
1.1779705
1.1779402
1.1778285
1.1776491
1.1774143
1.1771352
1.1768215
1.1764819
1.176124
1.1757543
1.1753786
1.1750018
1.1746282
1.1742614
1.1739045
1.17356
1.1732301
1.1729168
1.1726214
1.1723453
1.1720896
1.171855
1.1716422
1.1714517
1.1712841
1.1711396
1.1710182
1.1709199
1.1708445
1.1707914
1.1707595
1.1707471
1.1707517
1.1707696
1.1707965
1.1708265
1.1708515
1.1708648
1.170872
1.170889
1.170891
1.1707735
1.1705625
1.1706965
1.1711522
1.0574672
1.0952838
1.0807246
1.0956279
1.0937335
1.1014647
1.1047868
1.1101351
1.1149975
1.1200794
1.1251739
1.1302777
1.1353402
1.1403165
1.1451581
1.149817
1.1542477
1.1584098
1.1622693
1.1658006
1.1689867
1.1718198
1.1743002
1.1764359
1.1782409
1.1797341
1.1809379
1.1818767
1.1825762
1.1830622
1.1833598
1.1834934
1.1834854
1.1833571
1.1831275
1.1828142
1.1824327
1.1819968
1.1815189
1.1810097
1.1804786
1.1799336
1.1793818
1.1788292
1.178281
1.1777415
1.1772143
1.1767025
1.1762086
1.1757349
1.1752829
1.174854
1.1744495
1.1740701
1.1737165
1.1733894
1.1730889
1.1728154
1.1725691
1.1723501
1.1721582
1.1719933
1.1718551
1.1717431
1.1716565
1.1715939
1.1715536
1.1715328
1.1715284
1.1715361
1.1715497
1.1715604
1.1715625
1.1715636
1.1715756
1.1715634
1.171434
1.1712578
1.1714555
1.1718587
1.0632542
1.1012584
1.0877245
1.1032669
1.1024465
1.1106303
1.1150451
1.1210289
1.1266908
1.1324654
1.1381941
1.1438391
1.1493323
1.1546118
1.1596173
1.1642959
1.1686042
1.1725099
1.1759935
1.1790472
1.1816745
1.1838886
1.18571
1.1871651
1.1882842
1.1890993
1.1896433
1.1899488
1.1900467
1.1899664
1.189735
1.1893772
1.1889152
1.1883689
1.1877558
1.1870914
1.186389
1.1856603
1.1849153
1.1841626
1.1834095
1.1826622
1.1819259
1.1812049
1.1805029
1.1798228
1.179167
1.1785374
1.1779357
1.1773629
1.17682
1.1763076
1.1758262
1.1753762
1.1749577
1.1745707
1.1742152
1.1738912
1.1735985
1.1733369
1.1731059
1.1729053
1.1727345
1.1725927
1.1724789
1.1723916
1.1723289
1.1722882
1.1722665
1.1722597
1.1722613
1.1722628
1.1722604
1.1722617
1.1722698
1.1722404
1.1721049
1.1719796
1.1722414
1.1725657
1.0704471
1.1091422
1.0964992
1.1127442
1.1133423
1.1220672
1.1277407
1.1345089
1.1410263
1.1475125
1.1538198
1.1598771
1.1656008
1.1709211
1.1757812
1.1801411
1.183978
1.187286
1.1900739
1.1923629
1.1941836
1.1955729
1.1965718
1.1972227
1.1975678
1.1976479
1.1975015
1.1971638
1.1966671
1.1960401
1.1953083
1.1944941
1.1936171
1.1926941
1.1917395
1.1907658
1.1897835
1.1888015
1.1878272
1.1868667
1.1859253
1.1850072
1.1841157
1.1832537
1.1824232
1.1816261
1.1808635
1.1801363
1.1794453
1.1787907
1.1781729
1.1775918
1.1770474
1.1765395
1.1760678
1.1756321
1.1752319
1.1748669
1.1745366
1.1742406
1.1739784
1.1737493
1.1735525
1.1733873
1.1732523
1.173146
1.1730663
1.1730107
1.1729765
1.1729594
1.1729529
1.1729497
1.1729485
1.1729553
1.1729619
1.1729167
1.1727802
1.1727104
1.1730257
1.1732654
1.0791658
1.1187852
1.1076339
1.1246044
1.1270555
1.1364561
1.1435106
1.1511617
1.1584826
1.1655364
1.1721729
1.1783045
1.1838548
1.1887738
1.1930361
1.1966399
1.1996031
1.2019598
1.203755
1.205041
1.2058735
1.2063086
1.2064008
1.2062012
1.205757
1.2051108
1.2043003
1.2033588
1.2023153
1.2011946
1.2000182
1.1988042
1.197568
1.1963223
1.195078
1.1938441
1.1926279
1.1914354
1.1902715
1.1891401
1.1880444
1.1869867
1.1859689
1.1849923
1.1840577
1.1831658
1.1823169
1.1815111
1.1807481
1.1800278
1.1793498
1.1787136
1.1781187
1.1775645
1.1770505
1.1765759
1.1761403
1.1757429
1.1753831
1.1750603
1.1747737
1.1745226
1.1743061
1.1741231
1.1739723
1.1738521
1.1737602
1.1736945
1.173652
1.1736283
1.1736172
1.1736131
1.1736168
1.1736319
1.1736403
1.1735872
1.1734578
1.1734324
1.1737707
1.1739583
1.0901391
1.1310885
1.1220211
1.1397761
1.1445214
1.1546782
1.1630459
1.1714595
1.1792688
1.1864506
1.192882
1.1985035
1.2032873
1.2072401
1.2103953
1.2128068
1.2145416
1.2156738
1.2162796
1.2164335
1.2162054
1.2156597
1.214854
1.213839
1.2126589
1.2113517
1.2099495
1.2084799
1.2069655
1.2054257
1.2038762
1.2023301
1.2007981
1.1992889
1.1978096
1.1963656
1.1949615
1.1936007
1.1922857
1.1910185
1.1898004
1.1886323
1.1875146
1.1864475
1.1854309
1.1844644
1.1835476
1.1826798
1.1818603
1.1810884
1.1803632
1.1796838
1.1790495
1.1784592
1.1779122
1.1774075
1.1769444
1.1765221
1.1761398
1.1757966
1.1754917
1.1752243
1.1749932
1.1747975
1.1746356
1.1745058
1.1744061
1.1743342
1.1742871
1.1742602
1.1742478
1.1742459
1.1742563
1.1742797
1.1742921
1.1742404
1.1741277
1.1741362
1.174466
1.1746311
1.1049073
1.147137
1.1409182
1.1593152
1.1666955
1.1774969
1.1867042
1.1953205
1.202904
1.2094333
1.2148734
1.2192483
1.2226168
1.2250641
1.2266902
1.2276011
1.2279016
1.2276908
1.2270589
1.2260863
1.2248429
1.2233889
1.221775
1.2200439
1.218231
1.2163656
1.2144717
1.2125688
1.2106727
1.2087963
1.2069498
1.2051412
1.2033768
1.2016616
1.1999992
1.1983922
1.1968428
1.195352
1.1939205
1.1925488
1.1912366
1.1899836
1.1887892
1.1876526
1.1865729
1.1855491
1.1845801
1.1836647
1.1828018
1.1819903
1.1812288
1.1805164
1.1798518
1.1792339
1.1786618
1.1781343
1.1776505
1.1772095
1.1768104
1.1764522
1.176134
1.1758548
1.1756136
1.1754091
1.1752399
1.1751042
1.1750001
1.1749253
1.1748767
1.1748498
1.1748392
1.1748423
1.1748607
1.1748917
1.1749085
1.1748654
1.1747785
1.17482
1.1751395
1.1752628
1.1249453
1.168217
1.1657445
1.1842378
1.1939638
1.2048815
1.2139187
1.2216658
1.2279591
1.2328651
1.2364785
1.2389353
1.2403863
1.2409848
1.2408765
1.2401938
1.2390532
1.2375547
1.2357827
1.2338072
1.2316859
1.2294655
1.2271841
1.224872
1.2225535
1.2202479
1.2179703
1.2157325
1.2135438
1.211411
1.2093393
1.2073327
1.2053936
1.2035239
1.2017245
1.1999959
1.1983379
1.1967502
1.1952319
1.1937821
1.1923997
1.1910832
1.1898314
1.1886427
1.1875158
1.1864489
1.1854406
1.1844895
1.1835939
1.1827524
1.1819636
1.1812262
1.1805389
1.1799003
1.1793093
1.1787648
1.1782656
1.1778109
1.1773995
1.1770305
1.1767028
1.1764155
1.1761675
1.1759574
1.1757839
1.1756451
1.1755394
1.1754642
1.1754165
1.1753919
1.175386
1.1753967
1.1754242
1.1754625
1.1754855
1.1754589
1.1754067
1.1754712
1.1757509
1.1758346
1.1528181
1.1951188
1.1976031
1.215435
1.2255348
1.2352542
1.2427346
1.2483691
1.2522839
1.2547148
1.2558948
1.2560525
1.2553934
1.2540963
1.2523116
1.250163
1.2477511
1.2451559
1.2424413
1.2396571
1.2368424
1.2340276
1.231236
1.2284853
1.2257891
1.2231574
1.2205977
1.2181152
1.2157134
1.2133948
1.2111604
1.2090109
1.2069461
1.2049652
1.2030673
1.2012511
1.1995149
1.1978572
1.1962762
1.1947698
1.1933363
1.1919737
1.1906799
1.1894531
1.1882914
1.1871928
1.1861555
1.1851777
1.1842578
1.183394
1.1825848
1.1818288
1.1811244
1.1804703
1.1798652
1.179308
1.1787975
1.1783326
1.1779122
1.1775355
1.1772012
1.1769084
1.1766559
1.1764425
1.1762666
1.1761268
1.1760212
1.1759474
1.1759023
1.1758819
1.1758827
1.1759025
1.1759398
1.1759862
1.1760189
1.1760154
1.176002
1.1760798
1.1762993
1.1763491
1.1911107
1.229637
1.2353094
1.2504129
1.2594054
1.2662105
1.2705218
1.2728812
1.2736448
1.273173
1.2717614
1.2696543
1.2670454
1.2640867
1.2608952
1.2575602
1.2541495
1.2507138
1.2472912
1.2439097
1.24059
1.237347
1.2341911
1.2311296
1.2281673
1.225307
1.2225501
1.2198969
1.2173468
1.2148988
1.2125512
1.210302
1.2081493
1.2060906
1.2041234
1.2022453
1.2004538
1.1987463
1.1971202
1.1955732
1.1941026
1.1927062
1.1913816
1.1901265
1.1889388
1.1878163
1.186757
1.1857589
1.1848202
1.1839392
1.1831141
1.1823434
1.1816256
1.1809593
1.180343
1.1797757
1.1792561
1.1787831
1.1783557
1.1779729
1.1776334
1.1773364
1.1770807
1.176865
1.176688
1.1765481
1.1764435
1.1763718
1.1763303
1.1763155
1.176324
1.1763533
1.1764003
1.1764558
1.1765024
1.1765273
1.1765499
1.1766302
1.1767924
1.1767994
1.2380346
1.2701598
1.2772015
1.2868649
1.2916913
1.2939871
1.2941356
1.2927783
1.2903427
1.2871698
1.2835087
1.2795427
1.2754044
1.2711889
1.2669641
1.2627779
1.2586638
1.254645
1.2507367
1.2469492
1.2432883
1.2397573
1.2363571
1.2330875
1.229947
1.2269332
1.2240436
1.221275
1.2186242
1.2160877
1.213662
1.2113437
1.2091293
1.2070154
1.2049986
1.2030757
1.2012434
1.1994988
1.1978387
1.1962604
1.1947611
1.193338
1.1919887
1.1907107
1.1895015
1.1883591
1.1872811
1.1862656
1.1853107
1.1844145
1.1835752
1.1827913
1.1820613
1.1813836
1.180757
1.1801801
1.1796519
1.1791712
1.1787369
1.1783481
1.1780035
1.1777023
1.1774434
1.1772254
1.1770471
1.1769069
1.1768031
1.1767336
1.1766959
1.1766869
1.1767032
1.1767413
1.1767969
1.1768624
1.1769269
1.1769816
1.1770352
1.1771134
1.1772072
1.1771805
1.2913992
1.3117918
1.3162703
1.3186003
1.3178088
1.3151882
1.3113441
1.3067598
1.3017523
1.2965362
1.2912534
1.2859976
1.2808293
1.2757875
1.270896
1.2661686
1.2616125
1.2572302
1.2530215
1.2489839
1.2451135
1.241406
1.2378562
1.2344588
1.2312086
1.2281002
1.2251282
1.2222876
1.2195734
1.2169808
1.2145051
1.212142
1.2098872
1.2077366
1.2056864
1.2037329
1.2018724
1.2001017
1.1984174
1.1968165
1.195296
1.1938531
1.1924851
1.1911895
1.1899638
1.1888056
1.1877128
1.1866833
1.1857151
1.1848063
1.1839553
1.1831603
1.1824198
1.1817323
1.1810966
1.1805113
1.1799753
1.1794875
1.1790469
1.1786524
1.178303
1.1779976
1.1777353
1.1775148
1.1773349
1.1771941
1.1770906
1.1770227
1.1769882
1.1769844
1.1770073
1.1770526
1.1771159
1.1771932
1.1772796
1.1773666
1.177443
1.1774999
1.1775289
1.1775034
1.3435948
1.34685
1.3456347
1.3412234
1.3354601
1.3289634
1.3221915
1.3153827
1.3086813
1.3021654
1.2958773
1.2898368
1.2840507
1.2785181
1.2732334
1.2681887
1.2633744
1.2587807
1.2543976
1.2502151
1.2462237
1.2424144
1.2387785
1.235308
1.231995
1.2288325
1.2258137
1.2229322
1.2201821
1.2175578
1.2150539
1.2126656
1.2103881
1.208217
1.206148
1.2041773
1.202301
1.2005156
1.1988176
1.1972039
1.1956714
1.1942172
1.1928384
1.1915325
1.190297
1.1891295
1.1880278
1.1869897
1.1860132
1.1850965
1.1842378
1.1834355
1.1826879
1.1819936
1.1813513
1.1807598
1.1802178
1.1797244
1.1792784
1.1788789
1.1785249
1.1782154
1.1779494
1.177726
1.1775437
1.1774012
1.1772969
1.1772293
1.1771968
1.1771964
1.1772241
1.1772744
1.1773439
1.1774323
1.177539
1.177652
1.1777412
1.1777748
1.1777575
1.1777482
1.3772197
1.3697304
1.3622763
1.3541104
1.345627
1.3372359
1.3291009
1.3212953
1.3138471
1.3067594
1.3000238
1.2936256
1.287548
1.281773
1.2762831
1.2710616
1.2660925
1.2613613
1.2568542
1.2525586
1.2484629
1.2445565
1.2408295
1.2372727
1.2338778
1.230637
1.2275431
1.2245893
1.2217695
1.2190777
1.2165085
1.2140568
1.2117179
1.209487
1.2073601
1.2053331
1.2034021
1.2015636
1.1998141
1.1981505
1.1965695
1.1950683
1.1936441
1.1922942
1.1910162
1.1898077
1.1886664
1.1875903
1.1865772
1.1856253
1.1847329
1.1838983
1.1831198
1.1823962
1.181726
1.1811079
1.1805409
1.1800238
1.1795557
1.1791355
1.1787623
1.1784351
1.1781531
1.177915
1.1777198
1.1775658
1.1774518
1.1773764
1.177338
1.1773337
1.1773589
1.1774079
1.1774779
1.1775712
1.1776891
1.1778162
1.1779102
1.1779273
1.1778832
1.1778864
1.1634177
1.1676621
1.1819174
1.1934646
1.1988371
1.2000836
1.2001553
1.1998346
1.1998664
1.1995839
1.199328
1.198774
1.1981947
1.1975447
1.1968591
1.1961357
1.1953769
1.1945881
1.1937745
1.1929402
1.1920891
1.1912248
1.1903504
1.1894688
1.1885826
1.1876942
1.1868057
1.185919
1.1850359
1.1841581
1.1832872
1.1824245
1.1815716
1.1807296
1.1798998
1.1790835
1.1782818
1.1774959
1.1767269
1.1759759
1.1752441
1.1745323
1.1738418
1.1731735
1.1725284
1.1719074
1.1713116
1.1707417
1.1701986
1.1696829
1.1691953
1.1687363
1.1683062
1.1679053
1.1675337
1.1671912
1.1668775
1.1665921
1.1663343
1.1661031
1.1658974
1.1657155
1.1655562
1.1654175
1.1652991
1.1651966
1.165116
1.1650409
1.1650064
1.164944
1.1649943
1.1649179
1.1651356
1.1649516
1.165466
1.1650053
1.1658369
1.1648691
1.1659886
1.1644448
1.1592088
1.169925
1.1857197
1.1938105
1.1960074
1.1959064
1.1953768
1.1951216
1.1947944
1.1944816
1.1940799
1.193678
1.1932269
1.1927444
1.1922232
1.1916707
1.191088
1.1904783
1.1898438
1.1891868
1.1885096
1.1878143
1.1871033
1.1863785
1.1856423
1.1848966
1.1841436
1.1833852
1.1826234
1.18186
1.181097
1.1803361
1.1795791
1.1788276
1.1780833
1.1773478
1.1766227
1.1759095
1.1752096
1.1745246
1.1738557
1.1732044
1.172572
1.1719597
1.1713688
1.1708004
1.1702556
1.1697355
1.169241
1.1687728
1.1683317
1.1679183
1.1675329
1.1671759
1.1668473
1.1665469
1.1662745
1.1660294
1.165811
1.1656181
1.1654495
1.1653037
1.1651792
1.1650743
1.1649882
1.1649171
1.1648661
1.1648211
1.1648126
1.1647813
1.1648511
1.1648071
1.1650336
1.1648879
1.1653961
1.1649708
1.1657891
1.1648284
1.1659701
1.1643838
1.1597035
1.172799
1.1840902
1.1903554
1.1912814
1.1907965
1.190282
1.1900135
1.1897108
1.1894217
1.1890829
1.1887418
1.1883666
1.1879794
1.1875659
1.1871337
1.1866794
1.1862049
1.1857103
1.1851965
1.1846643
1.1841147
1.1835489
1.1829682
1.1823738
1.1817671
1.1811497
1.1805231
1.1798888
1.1792486
1.178604
1.1779569
1.177309
1.1766619
1.1760175
1.1753775
1.1747436
1.1741176
1.173501
1.1728957
1.1723032
1.1717252
1.171163
1.1706184
1.1700927
1.1695872
1.1691033
1.1686421
1.1682047
1.167792
1.1674049
1.167044
1.1667098
1.1664026
1.1661224
1.1658692
1.1656426
1.1654421
1.1652668
1.1651157
1.1649874
1.1648804
1.1647933
1.1647242
1.1646722
1.1646342
1.1646142
1.1646
1.1646188
1.1646182
1.1647097
1.1646956
1.164933
1.1648209
1.1653275
1.1649336
1.1657412
1.164789
1.1659501
1.1643259
1.157167
1.1711903
1.1816851
1.1862913
1.1860898
1.1857097
1.1852668
1.1850685
1.1847501
1.1844989
1.1841856
1.1839025
1.1835871
1.1832762
1.182945
1.1826055
1.182251
1.181884
1.181503
1.1811078
1.1806984
1.1802748
1.1798372
1.1793859
1.1789214
1.1784445
1.1779558
1.1774565
1.1769475
1.1764301
1.1759057
1.1753755
1.1748412
1.1743043
1.1737665
1.1732295
1.1726949
1.1721645
1.1716401
1.1711235
1.1706163
1.1701204
1.1696374
1.169169
1.1687168
1.1682823
1.167867
1.1674721
1.1670989
1.1667485
1.1664216
1.1661192
1.1658416
1.1655894
1.1653625
1.1651609
1.1649843
1.164832
1.1647033
1.164597
1.1645118
1.1644461
1.1643984
1.1643671
1.164351
1.1643474
1.1643596
1.1643771
1.1644243
1.1644542
1.164569
1.1645834
1.1648339
1.1647522
1.1652581
1.1648943
1.1656949
1.1647509
1.1659323
1.1642734
1.151413
1.1674961
1.1772047
1.1806897
1.180136
1.1800598
1.1797
1.1796434
1.1794022
1.1792713
1.1790508
1.1788784
1.1786621
1.1784596
1.1782347
1.1780054
1.1777615
1.1775074
1.1772407
1.1769615
1.1766695
1.1763646
1.1760467
1.1757159
1.1753725
1.1750167
1.1746492
1.1742704
1.1738811
1.1734821
1.1730746
1.1726595
1.1722382
1.1718119
1.1713822
1.1709505
1.1705184
1.1700877
1.16966
1.1692371
1.1688208
1.1684128
1.1680149
1.1676288
1.1672563
1.1668989
1.1665583
1.1662357
1.1659325
1.1656498
1.1653886
1.1651498
1.1649338
1.1647412
1.1645719
1.1644259
1.1643029
1.1642023
1.1641233
1.1640647
1.1640251
1.164003
1.1639968
1.1640049
1.1640263
1.1640583
1.1641039
1.1641538
1.1642302
1.1642907
1.1644294
1.1644719
1.1647378
1.164686
1.165189
1.1648541
1.1656476
1.1647141
1.1659123
1.1642267
1.1454391
1.163939
1.1722927
1.1751641
1.1744636
1.1746405
1.1743244
1.1744055
1.1742288
1.1742098
1.1740704
1.1739998
1.1738729
1.1737686
1.1736385
1.1735072
1.1733609
1.173206
1.1730398
1.1728627
1.1726744
1.1724747
1.1722635
1.1720408
1.1718065
1.1715607
1.1713038
1.171036
1.1707577
1.1704696
1.1701723
1.1698667
1.1695538
1.1692347
1.1689106
1.1685828
1.1682528
1.167922
1.1675921
1.1672648
1.1669417
1.1666246
1.1663152
1.1660154
1.1657267
1.1654507
1.1651892
1.1649434
1.1647148
1.1645044
1.1643133
1.1641423
1.1639921
1.1638629
1.163755
1.1636682
1.1636021
1.1635562
1.1635297
1.1635212
1.1635295
1.163553
1.1635901
1.1636392
1.1636993
1.1637681
1.1638479
1.163931
1.1640371
1.1641282
1.1642913
1.1643618
1.1646439
1.1646237
1.1651231
1.1648131
1.1655973
1.1646786
1.1658865
1.1641833
1.1402684
1.1605612
1.1674628
1.1700478
1.1692495
1.1696255
1.1693164
1.1695067
1.169368
1.1694365
1.1693582
1.1693735
1.1693203
1.1692931
1.1692356
1.1691826
1.169116
1.169044
1.1689629
1.1688732
1.1687744
1.1686661
1.168548
1.1684201
1.168282
1.1681339
1.1679757
1.1678075
1.1676297
1.1674426
1.1672467
1.1670426
1.1668311
1.1666131
1.1663894
1.1661614
1.1659302
1.1656972
1.1654637
1.1652314
1.1650017
1.1647764
1.164557
1.1643453
1.1641428
1.1639511
1.1637717
1.163606
1.1634553
1.1633207
1.1632032
1.1631036
1.1630225
1.1629602
1.1629167
1.1628921
1.1628858
1.1628972
1.1629254
1.1629694
1.1630275
1.1630982
1.1631802
1.1632717
1.1633717
1.1634781
1.163593
1.1637097
1.163846
1.1639675
1.1641555
1.1642542
1.1645522
1.164563
1.1650609
1.164771
1.1655486
1.1646443
1.1658578
1.1641427
1.1354624