/*--------------------------------*- C++ -*----------------------------------*\
  =========                 |
  \\      /  F ield         | OpenFOAM: The Open Source CFD Toolbox
   \\    /   O peration     | Website:  https://openfoam.org
    \\  /    A nd           | Version:  12
     \\/     M anipulation  |
\*---------------------------------------------------------------------------*/
FoamFile
{
    format      ascii;
    class       volScalarField;
    location    "0.108";
    object      k;
}
// * * * * * * * * * * * * * * * * * * * * * * * * * * * * * * * * * * * * * //

dimensions      [0 2 -2 0 0 0 0];

internalField   nonuniform List<scalar> 
16000
(
0.048419263
0.02162267
0.022383206
0.01645003
0.013966678
0.012650764
0.011866748
0.011399067
0.011081109
0.010867383
0.010709706
0.010592321
0.010500701
0.010428153
0.010369793
0.01032261
0.010284043
0.010252416
0.010226694
0.010205412
0.010188002
0.01017385
0.010162486
0.010153368
0.010146305
0.010140907
0.010137007
0.010134436
0.010133055
0.010132735
0.010133354
0.010134811
0.010137023
0.010139924
0.010143453
0.010147553
0.010152165
0.010157232
0.010162693
0.010168491
0.010174559
0.010180823
0.010187215
0.010193668
0.010200109
0.010206469
0.010212693
0.010218739
0.010224567
0.010230141
0.010235421
0.010240364
0.010244927
0.010249071
0.010252764
0.010255985
0.010258717
0.010260949
0.010262675
0.010263881
0.010264527
0.010264543
0.010263867
0.010262451
0.010260256
0.010257216
0.010253182
0.010247887
0.010240911
0.010231652
0.010219324
0.010202941
0.010180673
0.010149892
0.010122684
0.010099421
0.010080966
0.010085671
0.010062162
0.0100875
0.045486079
0.020450387
0.020951734
0.015906975
0.013623316
0.012446463
0.011704486
0.011281553
0.010980284
0.010783671
0.010636263
0.010527598
0.010442372
0.010375286
0.010321381
0.010278041
0.010242815
0.01021403
0.010190911
0.01017195
0.010156627
0.010144362
0.010134779
0.010127283
0.010121757
0.010117799
0.010115246
0.010113937
0.01011374
0.010114533
0.010116198
0.010118634
0.010121757
0.010125498
0.010129797
0.010134597
0.010139841
0.01014547
0.010151428
0.010157655
0.01016409
0.010170662
0.010177303
0.01018395
0.010190533
0.010196984
0.010203248
0.010209284
0.010215058
0.010220537
0.010225688
0.010230474
0.010234858
0.010238802
0.01024228
0.010245269
0.010247759
0.01024974
0.010251208
0.010252157
0.010252561
0.010252353
0.010251465
0.010249836
0.010247417
0.01024414
0.010239854
0.010234285
0.010227013
0.010217438
0.010204739
0.010187959
0.010165794
0.010136206
0.010110595
0.010088281
0.010072746
0.01007159
0.010060879
0.010086374
0.041416364
0.019617705
0.019630883
0.015348341
0.013272553
0.012220968
0.011536613
0.011155507
0.010877299
0.010698793
0.010562492
0.010462986
0.010384629
0.010323297
0.010274153
0.010234881
0.010203225
0.010177476
0.010157121
0.010140632
0.010127543
0.010117283
0.010109592
0.010103818
0.010099915
0.010097476
0.010096344
0.010096366
0.010097413
0.010099372
0.010102128
0.01010558
0.010109644
0.010114249
0.010119333
0.01012484
0.010130713
0.010136893
0.010143323
0.010149947
0.010156704
0.010163527
0.010170351
0.010177114
0.010183752
0.010190201
0.010196406
0.010202328
0.010207938
0.010213209
0.010218113
0.010222622
0.010226703
0.010230324
0.01023346
0.010236095
0.01023822
0.01023983
0.010240923
0.010241497
0.010241535
0.010240982
0.010239765
0.010237811
0.010235059
0.010231432
0.010226779
0.010220816
0.010213121
0.010203102
0.010189918
0.010172528
0.01015004
0.010121922
0.01009801
0.010077504
0.010063735
0.010060708
0.010058556
0.010083976
0.03871054
0.019053629
0.018487901
0.014847779
0.012954992
0.012016617
0.011382914
0.011040254
0.010782773
0.01062068
0.010494999
0.010403963
0.01033216
0.010276274
0.010231683
0.010196297
0.010168091
0.010145266
0.01012759
0.010113508
0.010102606
0.010094302
0.010088469
0.010084388
0.010082075
0.01008113
0.010081394
0.010082722
0.010084986
0.01008808
0.010091891
0.01009632
0.010101279
0.010106695
0.010112506
0.010118653
0.010125078
0.010131726
0.010138538
0.010145459
0.010152432
0.010159395
0.010166284
0.010173042
0.010179612
0.010185932
0.010191952
0.010197635
0.010202955
0.010207893
0.010212427
0.010216538
0.010220198
0.010223381
0.010226065
0.010228237
0.010229892
0.010231029
0.010231649
0.010231752
0.010231329
0.010230334
0.010228696
0.01022633
0.010223158
0.010219097
0.010213993
0.010207558
0.010199366
0.010188836
0.01017514
0.010157116
0.010134009
0.010107732
0.010085612
0.010067021
0.010054441
0.010050803
0.010053573
0.010075715
0.036132201
0.01873772
0.017500247
0.014383812
0.012659386
0.011823532
0.011238807
0.010931658
0.010694549
0.010547839
0.010432569
0.010349616
0.010284228
0.010233633
0.010193509
0.010161921
0.010137125
0.010117184
0.010102154
0.010090464
0.010081751
0.010075399
0.010071421
0.010069047
0.010068314
0.010068863
0.010070523
0.010073152
0.010076625
0.010080837
0.010085681
0.010091053
0.010096867
0.010103044
0.010109521
0.010116237
0.010123135
0.01013016
0.010137254
0.010144363
0.010151436
0.010158414
0.01016524
0.010171859
0.010178223
0.010184276
0.010189972
0.010195277
0.010200172
0.010204643
0.010208677
0.01021226
0.010215374
0.010217997
0.010220113
0.01022171
0.010222787
0.010223346
0.010223391
0.010222924
0.01022194
0.010220405
0.01021825
0.010215381
0.010211703
0.010207123
0.010201483
0.010194496
0.010185731
0.010174611
0.01016035
0.010141746
0.010117966
0.010093774
0.010073534
0.010056853
0.01004532
0.010041953
0.010048037
0.010063821
0.032717352
0.01866508
0.016757879
0.013958506
0.01238736
0.011643927
0.011105635
0.010831044
0.01061354
0.010481001
0.010375827
0.010300501
0.010241319
0.010195822
0.010160041
0.010132137
0.010110689
0.010093581
0.010081151
0.010071839
0.010065307
0.01006093
0.010058777
0.010058171
0.010058968
0.010061005
0.010064053
0.01006797
0.010072631
0.01007793
0.010083762
0.010090025
0.010096627
0.010103488
0.010110543
0.010117727
0.010124986
0.010132264
0.010139509
0.010146668
0.010153693
0.010160536
0.010167143
0.010173467
0.010179467
0.010185097
0.010190316
0.010195096
0.010199422
0.010203287
0.010206686
0.010209613
0.010212056
0.010214002
0.010215437
0.010216352
0.010216749
0.010216633
0.01021601
0.010214883
0.01021325
0.010211085
0.010208325
0.010204871
0.010200611
0.010195436
0.010189186
0.010181578
0.01017218
0.010160405
0.010145509
0.010126445
0.010102323
0.010080185
0.010061892
0.010047077
0.010036605
0.010033742
0.010042138
0.010053329
0.030540214
0.018762917
0.016234092
0.013568537
0.012136722
0.011477162
0.01098317
0.010738274
0.010539646
0.010420107
0.010324688
0.010256592
0.010203423
0.010162872
0.010131347
0.010107051
0.010088922
0.010074636
0.010064776
0.010057864
0.010053511
0.010051246
0.01005082
0.010052218
0.010054353
0.010057874
0.010062299
0.010067483
0.010073298
0.010079637
0.010086397
0.010093473
0.010100772
0.010108212
0.010115724
0.010123245
0.010130721
0.0101381
0.010145332
0.010152372
0.010159177
0.010165707
0.010171919
0.010177772
0.010183236
0.010188273
0.010192853
0.010196951
0.010200559
0.010203677
0.010206307
0.01020845
0.010210104
0.01021126
0.010211907
0.010212041
0.010211663
0.010210783
0.010209407
0.010207538
0.010205175
0.010202298
0.010198854
0.01019474
0.010189828
0.010183994
0.010177071
0.010168782
0.010158702
0.010146229
0.01013061
0.01011112
0.010087263
0.010067151
0.01005082
0.010037825
0.010028467
0.010026102
0.010035723
0.010043254
0.028879051
0.018944517
0.015809588
0.013211523
0.011906022
0.011323004
0.010870838
0.010653201
0.010472531
0.010365033
0.010279071
0.010217918
0.010170624
0.01013493
0.010107622
0.010086903
0.010072083
0.010060666
0.010053322
0.010048855
0.010046644
0.010046996
0.010047903
0.010050747
0.010054844
0.010059832
0.010065607
0.010072016
0.010078927
0.01008623
0.010093822
0.010101598
0.010109464
0.010117336
0.010125145
0.01013283
0.010140339
0.010147626
0.010154648
0.010161367
0.01016775
0.010173765
0.010179382
0.010184572
0.010189313
0.01019358
0.010197351
0.01020061
0.010203353
0.010205587
0.01020732
0.010208561
0.010209314
0.010209577
0.010209342
0.010208605
0.01020737
0.010205647
0.010203444
0.010200763
0.0101976
0.010193944
0.010189746
0.010184907
0.010179287
0.01017274
0.010165095
0.010156079
0.010145276
0.010132084
0.010115678
0.010095639
0.010072917
0.010054811
0.010040417
0.010029192
0.010021019
0.010019095
0.010028462
0.010034352
0.026609184
0.019129736
0.015318921
0.0128843
0.011693647
0.011180702
0.010767984
0.010575081
0.010412234
0.010316005
0.0102392
0.01018477
0.010143239
0.010112342
0.010089239
0.010072094
0.010060535
0.010052117
0.010047104
0.010045104
0.010044512
0.010047127
0.010050613
0.010055225
0.01006083
0.010067261
0.010074332
0.010081889
0.010089798
0.010097946
0.010106228
0.010114542
0.010122795
0.010130903
0.0101388
0.010146428
0.010153742
0.010160703
0.01016728
0.010173444
0.010179174
0.010184452
0.01018926
0.010193583
0.010197408
0.010200725
0.010203522
0.010205789
0.010207528
0.010208751
0.010209472
0.010209705
0.010209461
0.010208741
0.010207543
0.010205862
0.010203702
0.010201071
0.01019798
0.010194429
0.010190414
0.01018592
0.010180913
0.010175297
0.010168921
0.010161623
0.010153222
0.010143446
0.010131881
0.010117958
0.010100809
0.010080017
0.010059428
0.010043292
0.010030778
0.010021256
0.010014325
0.010012827
0.010021309
0.010026017
0.024998024
0.019300305
0.014654801
0.012584129
0.011499501
0.011050877
0.010675436
0.010504934
0.010359313
0.010273466
0.010205504
0.010157615
0.01012174
0.010095596
0.01007669
0.010063162
0.010054597
0.010049543
0.010046116
0.010045718
0.010050331
0.010054034
0.010059271
0.010065586
0.010072743
0.010080537
0.0100888
0.010097377
0.01010613
0.010114944
0.010123713
0.010132342
0.010140739
0.010148826
0.010156543
0.010163841
0.010170685
0.010177047
0.010182909
0.010188258
0.010193087
0.010197391
0.01020117
0.01020442
0.010207142
0.010209338
0.010211006
0.010212143
0.010212755
0.010212858
0.01021247
0.010211609
0.010210289
0.010208518
0.010206294
0.010203613
0.010200476
0.010196891
0.010192866
0.010188404
0.010183494
0.010178124
0.010172265
0.010165831
0.010158668
0.010150593
0.010141415
0.010130863
0.010118507
0.010103818
0.010086107
0.010064967
0.010046882
0.010032693
0.010021974
0.010014074
0.010008433
0.010007291
0.010014556
0.010018577
0.02349981
0.019440526
0.01412022
0.012308891
0.011324084
0.010932961
0.01059367
0.010443482
0.010313962
0.010237828
0.010178417
0.010136949
0.010106651
0.010085239
0.010070527
0.010060753
0.010054087
0.010053574
0.010054448
0.010057276
0.010061324
0.010067341
0.010074431
0.010082378
0.010090961
0.010099981
0.010109268
0.010118664
0.010128032
0.010137254
0.010146231
0.010154874
0.010163102
0.010170845
0.010178056
0.0101847
0.010190755
0.010196211
0.010201066
0.010205324
0.010208996
0.010212093
0.010214628
0.010216613
0.010218061
0.010218984
0.01021939
0.010219282
0.01021867
0.010217569
0.010216
0.010213982
0.010211533
0.010208663
0.010205372
0.010201655
0.010197509
0.01019294
0.010187954
0.010182554
0.010176726
0.010170455
0.010163716
0.010156437
0.010148466
0.010139601
0.010129637
0.010118306
0.010105164
0.010089659
0.010071501
0.010051239
0.010035355
0.010023089
0.010014059
0.010007671
0.010003343
0.010002561
0.010008391
0.010012566
0.02214167
0.019568081
0.013657931
0.012058855
0.011167391
0.010827296
0.010522559
0.010390478
0.010276527
0.010209576
0.010158445
0.010123329
0.010098561
0.010081895
0.010071364
0.010065655
0.010063839
0.010064423
0.010067696
0.010072947
0.010079798
0.010087711
0.010096524
0.010105958
0.010115787
0.01012581
0.010135857
0.010145776
0.01015543
0.01016471
0.010173523
0.010181796
0.010189464
0.010196477
0.010202803
0.010208426
0.010213347
0.010217573
0.010221124
0.010224021
0.010226292
0.010227965
0.010229067
0.010229623
0.010229656
0.010229187
0.01022823
0.010226794
0.01022489
0.010222532
0.010219739
0.010216531
0.010212925
0.010208932
0.010204555
0.010199787
0.010194622
0.010189058
0.010183101
0.010176752
0.010169999
0.010162817
0.010155186
0.010147046
0.010138256
0.010128602
0.010117852
0.010105746
0.010091863
0.010075604
0.010056836
0.010038728
0.010024932
0.010014517
0.010007066
0.010002054
0.0099990045
0.0099986923
0.010003059
0.010007039
0.020922095
0.019652606
0.01323152
0.01183402
0.011029
0.010734314
0.010462208
0.010346461
0.010247351
0.01018923
0.010146165
0.010117393
0.010098151
0.010086276
0.010079976
0.010077935
0.010079223
0.010083287
0.010089344
0.010096992
0.010105835
0.010115583
0.01012592
0.010136589
0.010147364
0.010158045
0.010168468
0.010178491
0.010187988
0.010196866
0.01020505
0.010212487
0.01021914
0.010224984
0.010230013
0.010234235
0.010237673
0.010240357
0.010242325
0.010243619
0.010244281
0.010244353
0.010243874
0.010242879
0.010241398
0.010239458
0.010237077
0.010234268
0.010231041
0.010227406
0.010223377
0.010218973
0.010214209
0.010209096
0.010203636
0.010197824
0.010191646
0.010185097
0.010178177
0.010170886
0.010163212
0.010155127
0.010146605
0.010137598
0.010127987
0.010117552
0.010106028
0.01009315
0.010078569
0.010061837
0.0100429
0.010027466
0.010015646
0.010006985
0.010001006
0.0099972207
0.009995331
0.0099956221
0.0099988187
0.01000184
0.019823298
0.019656647
0.012845386
0.01163237
0.010908088
0.010653409
0.01041273
0.010311795
0.010226907
0.010177446
0.010142314
0.010119926
0.010106247
0.010099216
0.010097202
0.010099002
0.010103723
0.010110673
0.010119334
0.010129238
0.010139998
0.010151276
0.010162794
0.010174294
0.01018556
0.010196402
0.010206669
0.010216239
0.010225015
0.010232927
0.010239932
0.01024601
0.010251156
0.01025538
0.010258703
0.010261161
0.0102628
0.010263671
0.01026383
0.010263333
0.010262234
0.010260585
0.010258433
0.010255818
0.010252775
0.010249332
0.01024551
0.010241323
0.010236777
0.010231878
0.010226633
0.010221057
0.01021516
0.010208951
0.010202434
0.010195602
0.010188438
0.010180929
0.01017307
0.010164858
0.010156282
0.010147313
0.010137916
0.010128047
0.010117612
0.010106406
0.010094136
0.010080516
0.01006525
0.010048269
0.010030711
0.010017449
0.0100075
0.010000471
0.0099958641
0.0099931652
0.0099922279
0.009993189
0.0099958696
0.0099980044
0.018833292
0.019426641
0.012496829
0.01145288
0.0108045
0.010585092
0.010374442
0.010287148
0.010215926
0.01017513
0.01014786
0.010131932
0.010123873
0.010121736
0.010124015
0.010129576
0.010137574
0.010147367
0.010158404
0.010170236
0.010182486
0.010194827
0.010206984
0.010218716
0.010229826
0.010240152
0.010249574
0.010258008
0.010265396
0.010271712
0.010276952
0.010281136
0.010284298
0.010286483
0.010287742
0.010288136
0.010287732
0.010286594
0.010284793
0.010282392
0.010279452
0.010276031
0.010272176
0.010267931
0.010263331
0.010258403
0.010253166
0.010247631
0.010241804
0.010235684
0.010229272
0.010222571
0.01021559
0.010208332
0.010200801
0.010192988
0.010184879
0.010176451
0.01016769
0.010158591
0.010149144
0.010139321
0.010129075
0.010118359
0.010107101
0.01009513
0.010082142
0.010067847
0.010052026
0.010034669
0.010019979
0.010008719
0.010000481
0.0099949344
0.0099915988
0.009989875
0.0099896504
0.0099912065
0.0099940486
0.0099957598
0.01793719
0.01855337
0.012183374
0.011294849
0.010718487
0.01052969
0.010347904
0.010273494
0.010215487
0.010183467
0.010164043
0.010154643
0.010152225
0.010154957
0.010161438
0.010170598
0.010181619
0.010193867
0.010206816
0.010220022
0.010233116
0.01024579
0.010257797
0.010268932
0.010279042
0.010288015
0.010295784
0.010302318
0.010307616
0.010311703
0.010314622
0.010316436
0.010317214
0.010317033
0.010315969
0.0103141
0.010311506
0.010308262
0.01030444
0.010300109
0.010295328
0.010290153
0.010284632
0.010278803
0.0102727
0.010266345
0.010259756
0.01025294
0.010245898
0.010238625
0.010231113
0.010223359
0.010215359
0.010207116
0.010198628
0.01018989
0.010180885
0.010171588
0.010161976
0.010152034
0.010141754
0.010131113
0.010120058
0.010108523
0.010096447
0.010083709
0.01007003
0.010055107
0.010039091
0.010022923
0.010010622
0.010001249
0.0099945581
0.0099903287
0.0099881394
0.0099873132
0.0099876327
0.0099895612
0.0099926523
0.0099948994
0.017127348
0.017197347
0.011907289
0.011158051
0.010649158
0.01048818
0.010334187
0.01027226
0.010227049
0.010203938
0.010192323
0.010189437
0.010192571
0.010199996
0.010210394
0.010222743
0.01023625
0.010250294
0.010264368
0.010278052
0.010291016
0.010303
0.010313814
0.010323324
0.010331445
0.010338143
0.010343419
0.010347309
0.010349873
0.01035119
0.010351346
0.010350439
0.010348567
0.010345827
0.01034231
0.010338105
0.010333293
0.010327949
0.010322144
0.01031594
0.010309392
0.010302549
0.010295452
0.010288135
0.010280624
0.010272939
0.01026509
0.010257083
0.010248912
0.010240571
0.010232044
0.010223317
0.010214381
0.010205229
0.010195855
0.010186253
0.01017641
0.0101663
0.010155893
0.010145163
0.010134097
0.010122678
0.010110858
0.010098553
0.010085679
0.010072167
0.010057849
0.010042417
0.010026128
0.010012838
0.0100026
0.0099949731
0.0099896847
0.0099866055
0.0099854032
0.0099853927
0.0099862141
0.0099884947
0.0099920786
0.0099954456
0.016399674
0.016346542
0.011674426
0.011042903
0.010597422
0.010461957
0.0103348
0.010285138
0.010252316
0.010238185
0.01023426
0.010237723
0.010246109
0.010257778
0.010271472
0.010286218
0.010301249
0.010315983
0.010329969
0.010342856
0.010354393
0.010364413
0.010372822
0.010379586
0.010384717
0.010388263
0.010390307
0.010390947
0.010390298
0.01038848
0.010385612
0.010381813
0.010377194
0.01037186
0.010365906
0.010359418
0.010352471
0.010345133
0.010337465
0.010329518
0.010321339
0.010312966
0.01030443
0.010295757
0.010286965
0.010278069
0.010269074
0.010259981
0.010250783
0.010241467
0.010232015
0.010222406
0.010212622
0.010202645
0.010192464
0.010182069
0.01017145
0.010160585
0.010149441
0.010137984
0.010126186
0.010114032
0.010101491
0.010088479
0.010074875
0.010060601
0.010045651
0.010030128
0.010015188
0.010004175
0.0099958381
0.0099897896
0.009985778
0.0099837094
0.0099833232
0.0099840091
0.0099853493
0.0099880229
0.009992126
0.0099960088
0.015746186
0.015349801
0.011475713
0.01094994
0.010564231
0.010452733
0.010351398
0.010314049
0.010293219
0.010288006
0.010291457
0.010300784
0.010313708
0.010328667
0.010344478
0.010360238
0.010375267
0.010389081
0.010401349
0.010411849
0.010420464
0.01042716
0.010431968
0.010434965
0.010436261
0.010435989
0.010434292
0.01043132
0.01042722
0.010422134
0.010416197
0.010409528
0.010402239
0.010394429
0.010386183
0.010377576
0.010368671
0.010359522
0.010350175
0.01034067
0.010331039
0.010321308
0.010311498
0.010301625
0.010291699
0.010281728
0.010271712
0.010261648
0.010251527
0.010241333
0.010231048
0.010220645
0.010210099
0.010199384
0.010188481
0.010177371
0.010166043
0.01015448
0.010142655
0.010130529
0.010118062
0.010105228
0.010092006
0.010078346
0.010064125
0.010049219
0.010033701
0.010018205
0.010006088
0.0099969068
0.0099902221
0.0099855707
0.0099827162
0.0099815536
0.0099818362
0.009983048
0.0099848539
0.0099878993
0.0099923186
0.0099967906
0.015161335
0.014679284
0.011313688
0.010879896
0.010550624
0.010462731
0.010386196
0.010361373
0.010352009
0.010355257
0.010365246
0.010379281
0.010395268
0.010411769
0.010427746
0.010442465
0.010455423
0.010466319
0.010475014
0.010481469
0.010485733
0.010487919
0.010488177
0.010486686
0.010483632
0.010479202
0.010473575
0.010466923
0.010459402
0.010451154
0.010442305
0.010432965
0.010423228
0.010413178
0.010402884
0.010392401
0.010381778
0.010371051
0.01036025
0.0103494
0.01033852
0.010327622
0.010316717
0.01030581
0.010294904
0.010284
0.010273092
0.010262174
0.010251235
0.010240259
0.010229226
0.01021811
0.010206883
0.010195513
0.01018397
0.010172228
0.010160265
0.010148066
0.01013561
0.010122867
0.010109793
0.010096344
0.010082494
0.010068225
0.01005348
0.010038155
0.010022478
0.010008733
0.0099985075
0.0099909613
0.009985649
0.0099821889
0.0099803536
0.0099800003
0.0099808423
0.0099824246
0.0099845909
0.0099880151
0.0099926323
0.0099974802
0.014639567
0.013931627
0.011185009
0.010835438
0.010558393
0.010495324
0.010442269
0.010429843
0.010430785
0.010441088
0.010455723
0.010472209
0.010488733
0.010504116
0.010517603
0.010528744
0.010537314
0.010543265
0.010546682
0.01054772
0.010546581
0.010543498
0.010538708
0.010532447
0.010524936
0.010516381
0.010506963
0.010496845
0.010486168
0.010475055
0.010463611
0.010451921
0.010440058
0.010428081
0.010416039
0.010403968
0.010391897
0.010379846
0.010367831
0.01035586
0.010343938
0.010332067
0.010320247
0.010308474
0.010296742
0.010285045
0.010273374
0.010261717
0.010250063
0.010238395
0.010226695
0.010214938
0.010203098
0.010191141
0.010179033
0.010166737
0.010154221
0.010141457
0.010128425
0.010115106
0.010101473
0.010087482
0.010073084
0.010058254
0.010043032
0.010027566
0.010012422
0.010001034
0.0099924139
0.0099862195
0.0099820335
0.0099795476
0.0099785641
0.0099788992
0.0099802136
0.0099820884
0.009984527
0.0099882718
0.009993068
0.009997959
0.014180698
0.013356414
0.011094427
0.010821339
0.010591352
0.010554591
0.010522734
0.010521294
0.010529978
0.01054437
0.010560315
0.010575759
0.01058936
0.010600377
0.010608461
0.010613532
0.010615682
0.010615114
0.010612108
0.010606961
0.010599976
0.010591443
0.010581629
0.010570775
0.010559095
0.010546772
0.010533965
0.010520805
0.010507402
0.010493847
0.010480215
0.010466565
0.010452942
0.010439382
0.010425911
0.010412548
0.010399302
0.010386181
0.010373183
0.010360306
0.010347543
0.010334886
0.010322322
0.010309842
0.010297433
0.01028508
0.01027277
0.010260489
0.010248221
0.01023595
0.010223659
0.010211325
0.010198927
0.010186435
0.010173816
0.01016103
0.010148035
0.010134789
0.010121256
0.010107413
0.010093252
0.010078762
0.010063909
0.010048635
0.010032951
0.010017358
0.010004552
0.0099948072
0.0099876161
0.0099825549
0.0099792935
0.0099775878
0.0099772757
0.0099781516
0.0099798417
0.0099819663
0.0099846464
0.0099886253
0.0099935593
0.009998375
0.013790244
0.012899132
0.011044395
0.010842739
0.010675975
0.010643567
0.010628622
0.010634476
0.010646359
0.010660177
0.010672867
0.010683043
0.010690018
0.010693589
0.010693848
0.010691059
0.010685569
0.010677754
0.010667996
0.010656649
0.010644032
0.010630426
0.01061607
0.010601169
0.010585893
0.01057038
0.010554746
0.010539082
0.01052346
0.010507936
0.010492553
0.010477342
0.010462326
0.010447518
0.010432925
0.010418548
0.010404382
0.010390422
0.010376655
0.010363068
0.010349646
0.010336369
0.010323221
0.010310182
0.010297233
0.010284354
0.010271527
0.010258733
0.010245953
0.01023317
0.010220365
0.01020752
0.010194615
0.010181627
0.01016853
0.010155288
0.010141863
0.010128203
0.010114257
0.010099981
0.010085352
0.010070375
0.010055078
0.010039519
0.010023881
0.010009079
0.009998185
0.0099898924
0.0099838981
0.0099798043
0.0099773215
0.0099762517
0.0099764489
0.0099777094
0.0099796673
0.0099820047
0.0099849004
0.0099889986
0.0099939428
0.0099985506
0.013477503
0.012532075
0.011038996
0.010899359
0.010779536
0.010761475
0.010756149
0.010763093
0.010771959
0.010779623
0.010784262
0.010785309
0.010782741
0.010776835
0.010768011
0.010756739
0.010743477
0.01072865
0.010712627
0.010695727
0.010678217
0.010660314
0.010642195
0.010624001
0.010605843
0.010587808
0.010569962
0.010552355
0.010535022
0.010517988
0.010501268
0.01048487
0.010468795
0.010453039
0.010437593
0.010422446
0.010407583
0.010392985
0.010378633
0.010364506
0.01035058
0.010336833
0.010323238
0.010309771
0.010296408
0.010283124
0.010269895
0.010256698
0.010243511
0.010230314
0.010217085
0.010203805
0.010190456
0.010177017
0.010163468
0.010149785
0.010135935
0.010121879
0.010107571
0.010092957
0.010077991
0.010062639
0.010046906
0.010030916
0.010015283
0.010002736
0.0099931532
0.0099860848
0.0099810789
0.0099777925
0.0099759627
0.0099754262
0.0099760239
0.0099775354
0.0099796534
0.0099821487
0.0099852378
0.0099894089
0.009994293
0.0099986966
0.013259559
0.012266729
0.01108103
0.010997901
0.010913595
0.010899656
0.010895069
0.01089572
0.010895192
0.010891742
0.010884739
0.010874326
0.01086094
0.010845115
0.010827381
0.010808221
0.010788049
0.010767211
0.010745986
0.010724595
0.010703212
0.01068197
0.01066097
0.010640285
0.01061997
0.01060006
0.010580581
0.010561545
0.010542958
0.010524819
0.010507121
0.010489853
0.010473002
0.010456549
0.010440476
0.01042476
0.01040938
0.010394309
0.010379522
0.010364993
0.010350693
0.010336595
0.010322669
0.010308886
0.010295218
0.010281637
0.010268114
0.010254622
0.010241135
0.010227628
0.010214077
0.010200459
0.010186753
0.010172938
0.010158995
0.0101449
0.010130632
0.010116162
0.010101463
0.010086502
0.010071251
0.010055691
0.010039843
0.010023908
0.010008875
0.0099978189
0.0099893642
0.0099832487
0.0099790393
0.0099764003
0.0099750681
0.0099749141
0.0099758835
0.0099775496
0.0099797536
0.0099823392
0.0099855501
0.0099897408
0.0099945198
0.0099987256
0.013134078
0.012101942
0.01117793
0.011127085
0.01106252
0.01104456
0.011030928
0.011018595
0.011004002
0.010986679
0.010966774
0.010944764
0.010921191
0.010896553
0.010871273
0.010845692
0.010820076
0.010794629
0.010769499
0.010744798
0.010720601
0.010696961
0.010673909
0.010651462
0.010629628
0.010608402
0.010587778
0.010567741
0.010548273
0.010529356
0.010510965
0.010493079
0.010475672
0.010458718
0.010442189
0.010426059
0.010410298
0.010394877
0.010379768
0.010364939
0.01035036
0.010336001
0.010321831
0.010307819
0.010293932
0.010280141
0.010266415
0.010252723
0.010239035
0.010225323
0.010211558
0.010197715
0.010183767
0.010169689
0.010155457
0.010141046
0.010126432
0.01011159
0.010096497
0.010081133
0.010065486
0.010049564
0.010033468
0.010017677
0.010004304
0.0099942094
0.0099866534
0.0099812621
0.0099776688
0.0099755598
0.0099746325
0.0099745435
0.0099758903
0.0099776454
0.0099799055
0.0099825453
0.0099857922
0.009989905
0.0099945493
0.0099986503
0.013071343
0.01203216
0.011338517
0.011270407
0.011209756
0.011177355
0.011147813
0.011118974
0.011089163
0.01105841
0.011026992
0.010995285
0.01096362
0.010932266
0.010901424
0.010871236
0.010841797
0.010813167
0.01078538
0.010758448
0.01073237
0.010707134
0.010682721
0.010659107
0.010636264
0.010614163
0.010592772
0.01057206
0.010551994
0.010532542
0.010513671
0.010495351
0.010477548
0.010460231
0.010443368
0.010426929
0.010410881
0.010395193
0.010379834
0.010364772
0.010349976
0.010335413
0.010321053
0.010306863
0.010292811
0.010278867
0.010264998
0.010251172
0.010237359
0.010223528
0.010209646
0.010195685
0.010181615
0.010167404
0.010153025
0.010138447
0.010123641
0.010108579
0.010093235
0.010077591
0.01006164
0.010045415
0.010029088
0.010013357
0.010001125
0.0099917598
0.0099848475
0.0099799626
0.0099767572
0.0099749539
0.0099743516
0.0099746797
0.0099759505
0.009977801
0.0099801164
0.0099828332
0.0099861006
0.0099900552
0.0099944326
0.0099984414
0.013083144
0.011993183
0.011493531
0.011403959
0.011331448
0.011280435
0.011233645
0.011189664
0.011147207
0.011106101
0.0110663
0.011027832
0.010990717
0.010954962
0.01092055
0.010887454
0.010855632
0.010825039
0.010795622
0.010767329
0.010740106
0.0107139
0.010688659
0.010664331
0.010640868
0.010618224
0.010596352
0.010575211
0.010554759
0.010534955
0.010515763
0.010497145
0.010479066
0.01046149
0.010444384
0.010427713
0.010411446
0.01039555
0.010379992
0.010364742
0.010349766
0.010335034
0.010320514
0.010306174
0.010291984
0.010277913
0.01026393
0.010250003
0.010236103
0.010222197
0.010208256
0.010194249
0.010180144
0.010165909
0.01015151
0.010136912
0.010122082
0.010106984
0.010091586
0.010075858
0.010059781
0.010043378
0.010026852
0.010011097
0.0099994543
0.0099904763
0.0099839093
0.0099793163
0.0099763671
0.0099747875
0.0099742964
0.0099748071
0.0099760885
0.0099779859
0.0099803414
0.0099831194
0.0099863882
0.0099901906
0.0099943248
0.0099982707
0.013177596
0.012020377
0.011610344
0.011500897
0.011412838
0.01134578
0.011286009
0.011231647
0.011181068
0.011133622
0.011088868
0.011046514
0.011006333
0.010968138
0.010931773
0.010897099
0.010863993
0.010832345
0.010802056
0.010773034
0.010745197
0.010718468
0.010692777
0.01066806
0.010644255
0.010621306
0.010599161
0.010577771
0.01055709
0.010537074
0.010517682
0.010498875
0.010480613
0.010462862
0.010445586
0.010428751
0.010412322
0.010396267
0.010380554
0.01036515
0.010350025
0.010335146
0.010320484
0.010306007
0.010291685
0.010277489
0.010263387
0.010249352
0.010235353
0.010221362
0.010207349
0.010193287
0.010179146
0.010164895
0.010150502
0.010135934
0.010121156
0.010106136
0.010090847
0.010075273
0.010059406
0.010043275
0.010027041
0.010011441
0.0099996338
0.0099906104
0.0099839928
0.0099793615
0.0099763936
0.0099748371
0.0099743762
0.0099749266
0.0099762267
0.0099781163
0.0099805043
0.0099833277
0.0099865933
0.009990278
0.0099942285
0.009998147
0.01330307
0.012076896
0.011671983
0.011549743
0.011451482
0.011376032
0.011310141
0.011251256
0.011197328
0.011147375
0.011100723
0.011056914
0.011015604
0.010976523
0.010939451
0.010904206
0.010870633
0.010838594
0.010807974
0.010778665
0.010750576
0.010723622
0.010697725
0.010672817
0.010648833
0.010625714
0.010603405
0.010581855
0.010561017
0.010540845
0.010521298
0.010502336
0.01048392
0.010466013
0.010448579
0.010431585
0.010414997
0.010398781
0.010382905
0.010367337
0.010352047
0.010337003
0.010322173
0.010307528
0.010293038
0.010278672
0.010264401
0.010250195
0.010236026
0.010221865
0.010207684
0.010193454
0.010179146
0.010164731
0.010150174
0.010135439
0.010120485
0.010105275
0.010089783
0.010074
0.010057935
0.010041647
0.010025381
0.010010195
0.0099988991
0.0099901718
0.0099837646
0.0099792544
0.0099763396
0.0099747724
0.0099742938
0.0099748887
0.0099763001
0.0099781212
0.0099805408
0.0099833818
0.0099866458
0.0099902686
0.0099941351
0.0099980754
66.703054
363.1841
122.0818
14.740375
0.40706604
0.02137686
0.020086146
0.019792768
0.019525849
0.018465931
0.01712536
0.015938859
0.015040257
0.014469769
0.014064725
0.013680535
0.013306276
0.012975015
0.012697477
0.012465431
0.012268103
0.012097858
0.011949627
0.011819642
0.011704869
0.011602834
0.011511564
0.011429481
0.011355342
0.011288165
0.01122714
0.011171558
0.011120801
0.011074351
0.011031797
0.010992808
0.0109571
0.010924421
0.010894538
0.010867243
0.01084235
0.01081968
0.010799053
0.0107803
0.01076326
0.010747772
0.010733672
0.010720808
0.010709048
0.010698277