/*--------------------------------*- C++ -*----------------------------------*\
  =========                 |
  \\      /  F ield         | OpenFOAM: The Open Source CFD Toolbox
   \\    /   O peration     | Website:  https://openfoam.org
    \\  /    A nd           | Version:  12
     \\/     M anipulation  |
\*---------------------------------------------------------------------------*/
FoamFile
{
    format      ascii;
    class       volScalarField;
    location    "0.108";
    object      nut;
}
// * * * * * * * * * * * * * * * * * * * * * * * * * * * * * * * * * * * * * //

dimensions      [0 2 -1 0 0 0 0];

internalField   nonuniform List<scalar> 
16000
(
4.5701379e-07
9.8571767e-06
1.7797077e-05
2.3697078e-05
1.8188033e-05
2.4898215e-05
1.7639846e-05
2.4108965e-05
1.8856536e-05
2.5925736e-05
2.186049e-05
2.5637964e-05
2.339141e-05
2.39996e-05
2.319077e-05
2.3054644e-05
2.2811964e-05
2.2743975e-05
2.2753251e-05
2.2859248e-05
2.3054853e-05
2.3339209e-05
2.3709811e-05
2.4166647e-05
2.4711827e-05
2.5351097e-05
2.6092269e-05
2.6947858e-05
2.7933101e-05
2.9064376e-05
3.0359631e-05
3.1842746e-05
3.354457e-05
3.5503123e-05
3.7765185e-05
4.0386541e-05
4.3433622e-05
4.6985621e-05
5.1140575e-05
5.601996e-05
6.1766261e-05
6.8547231e-05
7.6574426e-05
8.6106965e-05
9.7453077e-05
0.00011098226
0.00012715253
0.00014652168
0.00016976846
0.0001977195
0.00023138586
0.00027200657
0.00032109433
0.00038049988
0.00045248769
0.00053983846
0.00064597378
0.00077511781
0.00093251847
0.0010187228
0.0010186903
0.0010186206
0.0010185364
0.0010184029
0.0010182279
0.0010180089
0.0010177404
0.0010174098
0.0010169949
0.0010164615
0.0010157636
0.0010148372
0.0010135474
0.0010116994
0.0010099477
0.0010083345
0.0010069071
0.001006676
0.0010049605
0.0010059111
4.1770396e-07
9.3603468e-06
1.974572e-05
2.1281613e-05
1.6423378e-05
2.2372409e-05
1.5682109e-05
2.1163003e-05
1.6683706e-05
2.2947099e-05
1.9818663e-05
2.3152052e-05
2.1419523e-05
2.1777298e-05
2.1144356e-05
2.095869e-05
2.0756059e-05
2.0683709e-05
2.0694139e-05
2.079057e-05
2.0970827e-05
2.1233754e-05
2.1577454e-05
2.2001982e-05
2.2508998e-05
2.310388e-05
2.3793392e-05
2.4588813e-05
2.550456e-05
2.6556609e-05
2.776165e-05
2.9141486e-05
3.0724648e-05
3.2546324e-05
3.4650264e-05
3.7088909e-05
3.992512e-05
4.3233287e-05
4.7104692e-05
5.1654314e-05
5.7019057e-05
6.3356784e-05
7.086661e-05
7.9795466e-05
9.043923e-05
0.00010314884
0.00011836082
0.00013660867
0.00015854299
0.00018495664
0.00021681962
0.00025532384
0.00030192631
0.00035841256
0.00042696882
0.00051028206
0.00061166204
0.000735189
0.00088591455
0.0010179755
0.001017971
0.0010178826
0.0010177876
0.0010176433
0.0010174569
0.001017226
0.0010169446
0.0010165993
0.0010161675
0.0010156144
0.0010148908
0.0010139355
0.001012643
0.0010108395
0.0010091756
0.0010076141
0.0010063495
0.0010058205
0.0010047925
0.0010057483
3.7031334e-07
8.9737718e-06
1.8701976e-05
1.9471558e-05
1.4730199e-05
1.9728772e-05
1.398457e-05
1.8422136e-05
1.5023049e-05
2.0164333e-05
1.8094176e-05
2.0644567e-05
1.9426538e-05
1.9528084e-05
1.9040124e-05
1.8833738e-05
1.8662755e-05
1.8595694e-05
1.8609165e-05
1.8700319e-05
1.8868299e-05
1.9112325e-05
1.9430818e-05
1.9824066e-05
2.0293371e-05
2.0843916e-05
2.1481733e-05
2.2217027e-05
2.3063229e-05
2.4035908e-05
2.5150905e-05
2.6428374e-05
2.7894928e-05
2.9583301e-05
3.1534554e-05
3.3798037e-05
3.6433445e-05
3.951139e-05
4.3117456e-05
4.7360102e-05
5.2371624e-05
5.8302231e-05
6.5340322e-05
7.3721389e-05
8.3731395e-05
9.5706159e-05
0.00011006408
0.00012731814
0.00014809539
0.00017316106
0.00020345093
0.00024011769
0.00028457185
0.00033854487
0.00040415806
0.0004840199
0.00058134657
0.00070010567
0.00084519918
0.0010172754
0.0010173004
0.0010171894
0.0010170765
0.0010169151
0.0010167111
0.0010164618
0.0010161608
0.001015794
0.001015338
0.001014758
0.0010140015
0.0010130019
0.0010116806
0.0010099395
0.0010083699
0.0010069107
0.0010057454
0.0010051288
0.0010045389
0.0010055089
3.3791409e-07
8.6843389e-06
1.7776895e-05
1.8105226e-05
1.3260711e-05
1.7443897e-05
1.2479592e-05
1.6122739e-05
1.353966e-05
1.779934e-05
1.6536227e-05
1.8420142e-05
1.7582305e-05
1.7496894e-05
1.7116731e-05
1.6909466e-05
1.6766153e-05
1.6709185e-05
1.672828e-05
1.6817567e-05
1.6976745e-05
1.7205462e-05
1.7502473e-05
1.7868415e-05
1.8304355e-05
1.8815415e-05
1.9407143e-05
2.0088897e-05
2.0873175e-05
2.1775213e-05
2.2810302e-05
2.3997196e-05
2.5360953e-05
2.6932204e-05
2.8749731e-05
3.0860225e-05
3.3320638e-05
3.619862e-05
3.957522e-05
4.3552809e-05
4.8260132e-05
5.3841573e-05
6.0476905e-05
6.8391431e-05
7.786391e-05
8.9218469e-05
0.0001028591
0.00011928279
0.00013909831
0.00016305046
0.00019204886
0.00022721725
0.00026993177
0.00032188509
0.00038515259
0.00046228756
0.00055644075
0.00067150412
0.00081228622
0.00098473114
0.0010166747
0.0010165378
0.0010164015
0.0010162179
0.0010159911
0.001015718
0.0010153922
0.0010149986
0.0010145136
0.0010139024
0.0010131112
0.0010120627
0.0010106913
0.001009042
0.0010075737
0.0010062275
0.0010051314
0.0010044823
0.0010041801
0.0010049538
3.083665e-07
8.470236e-06
1.6964584e-05
1.8113739e-05
1.3220344e-05
1.5446399e-05
1.1153098e-05
1.4145008e-05
1.2259801e-05
1.5751672e-05
1.5144452e-05
1.6408592e-05
1.5854969e-05
1.5643462e-05
1.5343432e-05
1.5149361e-05
1.5029227e-05
1.4983187e-05
1.5006935e-05
1.509393e-05
1.5244055e-05
1.5457557e-05
1.5733578e-05
1.6073222e-05
1.6477452e-05
1.6951418e-05
1.7500324e-05
1.8132863e-05
1.8860609e-05
1.9698429e-05
2.066125e-05
2.1766669e-05
2.3038453e-05
2.4505416e-05
2.6204379e-05
2.8179712e-05
3.0485913e-05
3.3188227e-05
3.6364291e-05
4.0110682e-05
4.4553133e-05
4.983166e-05
5.611928e-05
6.3631729e-05
7.2642276e-05
8.3465921e-05
9.6494736e-05
0.00011221256
0.00013121295
0.00015422477
0.00018213602
0.00021604722
0.00025730648
0.00030757523
0.00036889228
0.00044376665
0.00053529671
0.00064731423
0.00078455478
0.00095286522
0.0010160923
0.0010159263
0.0010157608
0.0010155497
0.0010152949
0.0010149928
0.0010146367
0.0010142114
0.0010136923
0.001013045
0.0010122167
0.0010111213
0.00100969
0.0010081542
0.0010067927
0.0010055633
0.0010045355
0.0010038982
0.0010037719
0.0010042022
2.7331652e-07
8.3403017e-06
1.6310169e-05
1.7897509e-05
1.3018177e-05
1.369426e-05
1.0536661e-05
1.2506366e-05
1.134878e-05
1.4019541e-05
1.392176e-05
1.4637798e-05
1.4273875e-05
1.3988436e-05
1.3739306e-05
1.356065e-05
1.3455674e-05
1.3416555e-05
1.3441421e-05
1.3523975e-05
1.3664033e-05
1.3862366e-05
1.411835e-05
1.4433474e-05
1.4808686e-05
1.5249138e-05
1.5759754e-05
1.6348707e-05
1.7026674e-05
1.7808117e-05
1.8707771e-05
1.9742295e-05
2.0934436e-05
2.2311495e-05
2.3908685e-05
2.5768447e-05
2.7943203e-05
3.0496278e-05
3.3503121e-05
3.7055305e-05
4.1275811e-05
4.6301788e-05
5.2301884e-05
5.9483169e-05
6.8115285e-05
7.8507094e-05
9.1041718e-05
0.00010619346
0.00012454441
0.00014681303
0.00017387163
0.0002068048
0.00024694115
0.000295921
0.00035575942
0.00042893639
0.00051851589
0.00062829128
0.00076295528
0.0009282982
0.0010155468
0.0010153484
0.0010151484
0.0010149048
0.0010146172
0.0010142813
0.0010138902
0.0010134287
0.0010128719
0.0010121841
0.0010113147
0.0010101813
0.0010087081
0.0010072844
0.0010060338
0.0010049208
0.0010039691
0.0010033641
0.001003358
0.0010035371
2.499372e-07
8.2695635e-06
1.5801133e-05
1.6944242e-05
1.2917995e-05
1.210715e-05
1.0598854e-05
1.1526216e-05
1.0959003e-05
1.2522785e-05
1.2821272e-05
1.3070756e-05
1.2805785e-05
1.2488182e-05
1.2267905e-05
1.2104638e-05
1.2010781e-05
1.19773e-05
1.2002832e-05
1.2081679e-05
1.2213266e-05
1.2398821e-05
1.2637702e-05
1.2855547e-05
1.3196651e-05
1.3600341e-05
1.4070793e-05
1.4615466e-05
1.5243954e-05
1.5969979e-05
1.680805e-05
1.777391e-05
1.8889366e-05
2.0180273e-05
2.1680346e-05
2.3430259e-05
2.5480477e-05
2.7892438e-05
3.0740157e-05
3.4368707e-05
3.8408493e-05
4.3230006e-05
4.8999951e-05
5.5917942e-05
6.4251046e-05
7.4304911e-05
8.6456584e-05
0.00010117417
0.00011903137
0.00014074154
0.00016716641
0.00019938133
0.00023870297
0.00028675938
0.00034555301
0.00041754823
0.00050579013
0.00061405185
0.00074700714
0.00091042313
0.0010150332
0.0010147991
0.0010145597
0.0010142791
0.0010139545
0.0010135808
0.0010131506
0.0010126491
0.0010120514
0.0010113199
0.0010104033
0.0010092355
0.0010077571
0.0010064437
0.0010053048
0.0010043052
0.0010034352
0.0010028689
0.0010029194
0.0010029288
2.3167861e-07
8.2276809e-06
1.5365163e-05
1.5417315e-05
1.1836069e-05
1.0558665e-05
9.1609518e-06
1.0292046e-05
9.6254223e-06
1.1259434e-05
1.1711638e-05
1.1629038e-05
1.1402848e-05
1.1093198e-05
1.089645e-05
1.0752866e-05
1.0672443e-05
1.0647429e-05
1.0611553e-05
1.0673949e-05
1.0789103e-05
1.0957314e-05
1.1176355e-05
1.1446392e-05
1.1771558e-05
1.2154835e-05
1.2600697e-05
1.3116529e-05
1.3711382e-05
1.4398547e-05
1.5192722e-05
1.610916e-05
1.7169212e-05
1.8397808e-05
1.9827773e-05
2.1498651e-05
2.3459707e-05
2.577119e-05
2.8506565e-05
3.1755231e-05
3.5626109e-05
4.0257084e-05
4.5814743e-05
5.2935491e-05
6.1049993e-05
7.0861004e-05
8.2742719e-05
9.7160255e-05
0.00011468224
0.00013602238
0.00016203738
0.00019380028
0.00023262407
0.00028013391
0.00033833149
0.00040968005
0.00049722262
0.00060473179
0.0007368867
0.00089946573
0.0010145452
0.0010142722
0.0010139893
0.0010136676
0.0010133025
0.0010128876
0.0010124151
0.0010118706
0.0010112294
0.0010104527
0.0010094827
0.0010082728
0.0010068439
0.0010056408
0.0010046126
0.0010037217
0.0010029351
0.0010024084
0.0010024482
0.0010023606
2.0939263e-07
8.1870831e-06
1.4911129e-05
1.349628e-05
9.7320863e-06
9.3917632e-06
7.5546177e-06
8.7779162e-06
8.964463e-06
1.0128032e-05
1.0582623e-05
1.0285191e-05
1.0077029e-05
9.7988334e-06
9.6261349e-06
9.4380042e-06
9.3481751e-06
9.3186541e-06
9.3425063e-06
9.4167154e-06
9.5370442e-06
9.7051927e-06
9.9200204e-06
1.0181526e-05
1.0493826e-05
1.0860806e-05
1.128698e-05
1.1779768e-05
1.2347848e-05
1.3004061e-05
1.3763386e-05
1.4640816e-05
1.5657526e-05
1.6837797e-05
1.8213899e-05
1.9824679e-05
2.1718666e-05
2.3955435e-05
2.6607764e-05
2.9764159e-05
3.353375e-05
3.805225e-05
4.3488777e-05
5.0039201e-05
5.7954617e-05
6.7547203e-05
7.9891146e-05
9.4141976e-05
0.00011148657
0.00013264428
0.00015847262
0.00019004937
0.0002286922
0.00027603308
0.00033408486
0.00040532462
0.00049281083
0.0006003355
0.00073260695
0.00089544789
0.0010140764
0.0010137617
0.0010134318
0.0010130658
0.0010126574
0.0010121989
0.001011682
0.0010110921
0.0010104048
0.0010095817
0.0010085585
0.0010072919
0.0010059777
0.0010048836
0.0010039633
0.0010031769
0.0010024754
0.0010019884
0.0010019922
0.0010018187
1.9305939e-07
8.1456926e-06
1.3387978e-05
1.1761133e-05
7.8741001e-06
8.3382818e-06
6.7196904e-06
7.922833e-06
8.2962004e-06
9.0561755e-06
9.4609531e-06
9.0565185e-06
8.854726e-06
8.5299998e-06
8.3483452e-06
8.2301228e-06
8.1726645e-06
8.1672826e-06
8.2076253e-06
8.2921325e-06
8.4192928e-06
8.5877548e-06
8.7995775e-06
9.0547309e-06
9.3575493e-06
9.7123047e-06
1.0123665e-05
1.0599205e-05
1.1147367e-05
1.1780571e-05
1.2514133e-05
1.3363082e-05
1.4348637e-05
1.5494704e-05
1.6833305e-05
1.8402986e-05
2.0251965e-05
2.243966e-05
2.5039062e-05
2.8138976e-05
3.1848482e-05
3.630273e-05
4.1673752e-05
4.8157271e-05
5.6006339e-05
6.5534781e-05
7.7129197e-05
9.1242732e-05
0.00010944153
0.00013060613
0.00015647394
0.00018813446
0.00022691907
0.00027447669
0.00033284404
0.00040452792
0.00049262106
0.00060095674
0.0007342972
0.00089854217
0.0010136204
0.0010132614
0.0010128822
0.0010124695
0.0010120158
0.0010115123
0.0010109496
0.0010103127
0.0010095764
0.001008704
0.0010076383
0.0010063354
0.0010051634
0.0010041784
0.0010033618
0.0010026756
0.0010020633
0.0010016124
0.0010015566
0.0010013166
1.7820101e-07
8.0993936e-06
1.0629268e-05
9.7606274e-06
6.4660992e-06
7.4216243e-06
6.1227376e-06
7.1161433e-06
7.754147e-06
8.0800427e-06
8.3594761e-06
7.8516718e-06
7.6039197e-06
7.376277e-06
7.2403785e-06
7.1597993e-06
7.1295923e-06
7.1453844e-06
7.200991e-06
7.2956677e-06
7.4272098e-06
7.5976627e-06
7.8084664e-06
8.0600746e-06
8.3569107e-06
8.7036788e-06
9.105311e-06
9.5695888e-06
1.0104915e-05
1.072336e-05
1.1381776e-05
1.2203224e-05
1.3159278e-05
1.4273442e-05
1.5577485e-05
1.7109682e-05
1.8918007e-05
2.1061772e-05
2.3614303e-05
2.6664974e-05
3.0323824e-05
3.4999679e-05
4.0361378e-05
4.6845633e-05
5.4707585e-05
6.4263909e-05
7.5911703e-05
9.0114211e-05
0.00010745527
0.00012866194
0.00015603881
0.00018805738
0.0002273127
0.0002754814
0.0003346374
0.00040733437
0.0004967197
0.00060669185
0.00074209374
0.00090893447
0.0010131713
0.0010127657
0.0010123359
0.0010118748
0.0010113747
0.0010108255
0.0010102164
0.001009532
0.001008745
0.0010078182
0.0010067188
0.0010054539
0.0010044054
0.0010035297
0.0010028116
0.0010022189
0.0010016983
0.0010012876
0.0010011599
0.0010009386
1.649523e-07
8.052118e-06
8.3831894e-06
8.2993094e-06
5.6863385e-06
6.5751469e-06
5.6181639e-06
6.4084387e-06
7.2026299e-06
7.1683119e-06
7.1663276e-06
6.734136e-06
6.5309254e-06
6.3620721e-06
6.2650054e-06
6.2158355e-06
6.2099081e-06
6.2430326e-06
6.3118533e-06
6.41605e-06
6.5542527e-06
6.7281421e-06
6.9402067e-06
7.1913614e-06
7.4861126e-06
7.7957035e-06
8.1860283e-06
8.6383223e-06
9.160852e-06
9.7652511e-06
1.0465527e-05
1.1279921e-05
1.2228974e-05
1.3336255e-05
1.4633821e-05
1.6160334e-05
1.7964344e-05
2.0105921e-05
2.2659834e-05
2.5717315e-05
2.9390958e-05
3.382143e-05
3.9180996e-05
4.5676044e-05
5.3565771e-05
6.3721505e-05
7.5534875e-05
8.995852e-05
0.00010758598
0.00012916603
0.00015561201
0.00018981923
0.00022988211
0.000279067
0.00033949919
0.0004137978
0.00050518729
0.00061765818
0.00075616427
0.00092685595
0.0010127235
0.0010122697
0.0010117886
0.0010112783
0.0010107313
0.0010101363
0.0010094806
0.0010087483
0.0010079123
0.0010069318
0.0010057887
0.0010046403
0.0010037095
0.0010029406
0.0010023149
0.0010018064
0.0010013751
0.0010010183
0.0010008239
0.0010005989
1.5314685e-07
7.9942901e-06
6.6651033e-06
7.2809355e-06
5.063816e-06
5.8133559e-06
5.184121e-06
5.7819071e-06
6.5459169e-06
6.1343379e-06
6.0892647e-06
5.7557921e-06
5.5935616e-06
5.4722455e-06
5.4084414e-06
5.3862374e-06
5.4013366e-06
5.4512892e-06
5.5331637e-06
5.6474118e-06
5.7933347e-06
5.9728404e-06
6.1624952e-06
6.4107593e-06
6.7022453e-06
7.0410595e-06
7.4341764e-06
7.8890489e-06
8.4141585e-06
9.0213356e-06
9.724732e-06
1.0542361e-05
1.1495992e-05
1.2609543e-05
1.3915611e-05
1.5453604e-05
1.7273165e-05
1.9435625e-05
2.2017886e-05
2.5114037e-05
2.8839425e-05
3.3337768e-05
3.8790073e-05
4.5407768e-05
5.3457948e-05
6.3272708e-05
7.5264406e-05
8.9931009e-05
0.00010883542
0.00013098091
0.00015813885
0.00019147224
0.00023463002
0.00028524777
0.00034745881
0.00042396819
0.00051810231
0.00063397337
0.00077668223
0.00095255394
0.0010122723
0.0010117688
0.0010112369
0.0010106772
0.001010083
0.0010094425
0.0010087404
0.0010079598
0.001007077
0.0010060587
0.0010048937
0.0010038969
0.0010030783
0.0010024119
0.001001873
0.0010014385
0.0010010868
0.0010007958
0.0010005622
0.0010002825
1.425982e-07
7.9230846e-06
5.3424724e-06
6.3559518e-06
4.5091862e-06
5.1357171e-06
4.8123229e-06
5.1422233e-06
5.7219565e-06
5.2353916e-06
5.1436195e-06
4.8990864e-06
4.775443e-06
4.6938568e-06
4.659577e-06
4.6617141e-06
4.696551e-06
4.7626329e-06
4.8578876e-06
4.9643976e-06
5.113914e-06
5.2968721e-06
5.5155011e-06
5.7727197e-06
6.0727473e-06
6.4200738e-06
6.8215964e-06
7.2853947e-06
7.820173e-06
8.43792e-06
9.1529068e-06
9.9833673e-06
1.0901865e-05
1.2022615e-05
1.3338042e-05
1.4888273e-05
1.6724258e-05
1.8908643e-05
2.1520514e-05
2.4657329e-05
2.8438198e-05
3.3261805e-05
3.8858693e-05
4.566187e-05
5.3947451e-05
6.405682e-05
7.6421866e-05
9.1562331e-05
0.00011011412
0.00013408529
0.00016219012
0.00019670459
0.0002391089
0.00029402491
0.00035853244
0.00043788154
0.00053552912
0.00065574109
0.00080380867
0.00098627211
0.0010118137
0.0010112595
0.0010106776
0.0010100686
0.0010094272
0.0010087417
0.0010079941
0.0010071657
0.0010062368
0.0010051964
0.0010040993
0.0010032236
0.0010025124
0.0010019426
0.0010014863
0.0010011171
0.0010008281
0.0010006038
0.0010003787
0.0010000472
1.3318813e-07
7.7915762e-06
4.3334236e-06
5.532439e-06
4.0129525e-06
4.5316067e-06
4.4853395e-06
4.4469666e-06
4.8917493e-06
4.4333113e-06
4.3235541e-06
4.1522494e-06
4.0652971e-06
4.0180731e-06
4.0106372e-06
4.0352883e-06
4.0890194e-06
4.1544668e-06
4.2581916e-06
4.3917805e-06
4.5560707e-06
4.7525588e-06
4.9841625e-06
5.2540055e-06
5.5668739e-06
5.9275225e-06
6.3429143e-06
6.800933e-06
7.346139e-06
7.9750354e-06
8.7019356e-06
9.5450893e-06
1.0526806e-05
1.1675125e-05
1.3023486e-05
1.4613318e-05
1.6497857e-05
1.8742082e-05
2.1428185e-05
2.4658531e-05
2.8557658e-05
3.3282503e-05
3.902281e-05
4.6012265e-05
5.4538723e-05
6.5501686e-05
7.8347885e-05
9.409004e-05
0.00011339523
0.00013708543
0.00016773332
0.00020371349
0.00024793951
0.00030231111
0.00037270856
0.00045554298
0.00055749738
0.00068302606
0.00083765935
0.001011944
0.0010113441
0.0010107391
0.0010101085
0.0010094508
0.0010087617
0.0010080309
0.0010072391
0.0010063663
0.0010053974
0.0010043288
0.0010033878
0.0010026243
0.0010020118
0.0010015307
0.0010011527
0.0010008439
0.0010005993
0.0010004272
0.0010002597
0.00099992165
1.2483694e-07
7.4664732e-06
3.6376693e-06
4.8012399e-06
3.5705022e-06
3.995656e-06
3.9742596e-06
3.8172797e-06
4.0930396e-06
3.7241584e-06
3.6205237e-06
3.5076068e-06
3.4550347e-06
3.4381431e-06
3.4552739e-06
3.4880153e-06
3.553813e-06
3.6484693e-06
3.7711862e-06
3.9221975e-06
4.1029674e-06
4.3155128e-06
4.5631713e-06
4.8493544e-06
5.1673797e-06
5.5420983e-06
5.972021e-06
6.4651988e-06
7.031758e-06
7.6837574e-06
8.4358835e-06
9.3071278e-06
1.0320717e-05
1.1505757e-05
1.2898006e-05
1.4540415e-05
1.6489077e-05
1.8812042e-05
2.1594888e-05
2.4946093e-05
2.8995198e-05
3.3907078e-05
3.9883902e-05
4.7169883e-05
5.6069228e-05
6.6955049e-05
8.0999402e-05
9.7471408e-05
0.00011768156
0.00014250261
0.00017298437
0.00021244243
0.00025883385
0.00031589295
0.00038607682
0.00047690251
0.00058397322
0.00071582031
0.00087826012
0.0010114979
0.0010108603
0.001010206
0.0010095281
0.0010088226
0.0010080852
0.0010073082
0.0010064733
0.0010055594
0.0010045714
0.0010035621
0.0010027558
0.0010020987
0.001001576
0.0010011741
0.001000868
0.0010006171
0.0010004072
0.0010002629
0.0010001372
0.00099987523
1.1762453e-07
7.0609039e-06
3.1947421e-06
4.1522191e-06
3.1762957e-06
3.3714086e-06
3.5213683e-06
3.2403086e-06
3.3716291e-06
3.1082652e-06
3.0254571e-06
2.9586712e-06
2.9373182e-06
2.9475295e-06
2.9721798e-06
3.0335306e-06
3.1225653e-06
3.2380977e-06
3.380232e-06
3.5499294e-06
3.7491961e-06
3.980329e-06
4.2387931e-06
4.5418895e-06
4.888766e-06
5.2850728e-06
5.7376022e-06
6.2546936e-06
6.8466768e-06
7.526378e-06
8.3089508e-06
9.2141951e-06
1.0266395e-05
1.1496117e-05
1.2885715e-05
1.4577838e-05
1.6587278e-05
1.898568e-05
2.1994096e-05
2.5491455e-05
2.9721899e-05
3.4858247e-05
4.1116271e-05
4.875348e-05
5.8089821e-05
6.9521286e-05
8.353351e-05
0.00010072219
0.00012290712
0.00014903678
0.00018114292
0.00022060882
0.00027168709
0.00033184827
0.00040587277
0.00050182481
0.00061482121
0.00075399904
0.00092550037
0.0010110395
0.001010361
0.0010096599
0.0010089362
0.0010081845
0.0010073991
0.0010065743
0.0010056986
0.0010047513
0.0010037433
0.0010028923
0.0010022019
0.0010016445
0.0010012039
0.0010008706
0.0010006266
0.0010004299
0.0010002562
0.0010001392
0.0010000621
0.00099992353
1.1180785e-07
6.0808756e-06
2.815966e-06
3.5626718e-06
2.8342233e-06
2.7954878e-06
3.0709403e-06
2.718208e-06
2.7527165e-06
2.5822983e-06
2.5270078e-06
2.4976363e-06
2.4969365e-06
2.524635e-06
2.5835182e-06
2.6695469e-06
2.7808433e-06
2.9172349e-06
3.0795741e-06
3.2692613e-06
3.4835418e-06
3.7334238e-06
4.0189903e-06
4.3442719e-06
4.714084e-06
5.1342679e-06
5.6119272e-06
6.1557244e-06
6.7763124e-06
7.4705169e-06
8.2820862e-06
9.2192641e-06
1.0307334e-05
1.1577973e-05
1.3070798e-05
1.4835344e-05
1.6932853e-05
1.9439997e-05
2.2451914e-05
2.6086149e-05
3.0488657e-05
3.6097418e-05
4.2676708e-05
5.07151e-05
6.0549522e-05
7.259876e-05
8.7377781e-05
0.00010552031
0.00012897831
0.00015658143
0.00019051589
0.00023224478
0.0002863302
0.00034998385
0.00042834245
0.00052482824
0.00064976021
0.00079726451
0.00097907531
0.0010105677
0.0010098479
0.0010091024
0.0010083343
0.0010075388
0.0010067081
0.0010058356
0.0010049193
0.0010039625
0.0010030273
0.0010023054
0.0010017231
0.0010012565
0.0010008917
0.0010006181
0.0010004252
0.0010002757
0.001000143
0.0010000609
0.0010000285
0.00099994258
1.0694826e-07
4.2505163e-06
2.4719375e-06
3.0163745e-06
2.4049638e-06
2.3125268e-06
2.5998832e-06
2.2539736e-06
2.2379133e-06
2.1395639e-06
2.1146478e-06
2.1104604e-06
2.1375912e-06
2.1955162e-06
2.2802096e-06
2.389352e-06
2.5222766e-06
2.6794897e-06
2.8596222e-06
3.0687255e-06
3.3078007e-06
3.5796811e-06
3.8878138e-06
4.2363905e-06
4.6304642e-06
5.0761225e-06
5.5807523e-06
6.1440379e-06
6.7920921e-06
7.5321899e-06
8.3814219e-06
9.3610148e-06
1.0497722e-05
1.1825143e-05
1.3385401e-05
1.5231005e-05
1.7427225e-05
2.0055285e-05
2.3216251e-05
2.7035547e-05
3.1668607e-05
3.7307096e-05
4.4516863e-05
5.2998661e-05
6.3383492e-05
7.6114947e-05
9.1739099e-05
0.00011092939
0.00013451604
0.00016498907
0.00020093027
0.00024514702
0.00029956711
0.00037000795
0.00045313997
0.00055555362
0.00068831632
0.00084507917
0.0010108393
0.0010100844
0.0010093235
0.0010085368
0.0010077263
0.0010068894
0.001006019
0.0010051064
0.0010041536
0.0010031952
0.0010024191
0.0010018001
0.0010013129
0.0010009271
0.0010006292
0.0010004122
0.001000262
0.0010001492
0.0010000528
0.0010000036
0.0010000023
0.00099997143
1.0178691e-07
3.5063684e-06
2.1144085e-06
2.5141224e-06
2.0531466e-06
1.9087698e-06
2.1174674e-06
1.8474387e-06
1.8195298e-06
1.7758943e-06
1.777186e-06
1.8037539e-06
1.8624124e-06
1.9469288e-06
2.0549355e-06
2.1855559e-06
2.3390264e-06
2.5144939e-06
2.7167393e-06
2.9468668e-06
3.2073933e-06
3.5013698e-06
3.8324443e-06
4.2049717e-06
4.62418e-06
5.0963781e-06
5.6229231e-06
6.2230681e-06
6.9041047e-06
7.6803542e-06
8.5698304e-06
9.5950212e-06
1.0784213e-05
1.2172973e-05
1.3806072e-05
1.5739579e-05
1.8043116e-05
2.0802997e-05
2.412659e-05
2.8146636e-05
3.3027944e-05
3.9256464e-05
4.6579631e-05
5.5537459e-05
6.6513088e-05
7.9976453e-05
9.6506606e-05
0.00011681773
0.00014310447
0.00017406506
0.00021215165
0.00025903061
0.00031675538
0.00039150932
0.00047977888
0.0005885902
0.0007297724
0.00089659374
0.0010103717
0.0010095913
0.0010087922
0.0010079684
0.0010071185
0.0010062425
0.0010053375
0.0010043969
0.0010034322
0.00100257
0.0010019003
0.0010013725
0.0010009638
0.0010006545
0.0010004109
0.0010002448
0.0010001317
0.0010000463
0.00099997851
0.00099996231
0.0009999876
0.00099999786
9.7998472e-08
2.7998111e-06
1.8047629e-06
2.0103155e-06
1.7622527e-06
1.5634003e-06
1.6729253e-06
1.5033797e-06
1.4903854e-06
1.4900785e-06
1.5180069e-06
1.5774857e-06
1.6626122e-06
1.7699123e-06
1.8984662e-06
2.0484835e-06
2.2198949e-06
2.4158259e-06
2.6378371e-06
2.8882396e-06
3.1697969e-06
3.48574e-06
3.8398531e-06
4.2366129e-06
4.6813849e-06
5.1770992e-06
5.7370138e-06
6.3685421e-06
7.0836541e-06
7.8973681e-06
8.8287464e-06
9.9016094e-06
1.1145948e-05
1.2599424e-05
1.4309417e-05
1.6335522e-05
1.8752261e-05
2.1651154e-05
2.5146521e-05
2.9379154e-05
3.4750794e-05
4.1073182e-05
4.8796973e-05
5.8252191e-05
6.984362e-05
8.4070069e-05
0.00010154535
0.00012302724
0.00015079717
0.0001835568
0.00022387776
0.00027353124
0.00033470781
0.00041392566
0.00050758261
0.00062312462
0.00077312589
0.00095059315
0.0010099024
0.0010090932
0.0010082595
0.0010074028
0.0010065192
0.0010056078
0.0010046712
0.0010037178
0.0010027795
0.001002049
0.00100147
0.0010010181
0.0010006677
0.0010004205
0.0010002291
0.0010001064
0.0010000262
0.00099996451
0.00099992027
0.00099993254
0.00099998236
0.0010000128
9.5786536e-08
2.1838976e-06
1.5355446e-06
1.5312987e-06
1.4940333e-06
1.2682542e-06
1.3114771e-06
1.2289808e-06
1.243521e-06
1.2739086e-06
1.3350853e-06
1.4204336e-06
1.5269178e-06
1.6532005e-06
1.7995263e-06
1.9668954e-06
2.1561458e-06
2.3702589e-06
2.6110477e-06
2.8810465e-06
3.1831633e-06
3.5207476e-06
3.8976871e-06
4.3185575e-06
4.7888308e-06
5.3151587e-06
5.90574e-06
6.5707645e-06
7.3145181e-06
8.1662171e-06
9.1401842e-06
1.0261661e-05
1.1562467e-05
1.3082559e-05
1.4871977e-05
1.7062601e-05
1.9614409e-05
2.2678423e-05
2.6376565e-05
3.0859303e-05
3.6312051e-05
4.2962941e-05
5.1093951e-05
6.1052388e-05
7.326629e-05
8.82636e-05
0.00010669444
0.00013049073
0.00015858506
0.00019315965
0.000235735
0.00028819188
0.00035619977
0.000436547
0.00053568468
0.00065810342
0.0008170661
0.0010054843
0.0010094397
0.0010086005
0.0010077344
0.001006847
0.0010059355
0.0010049968
0.0010040314
0.0010030674
0.0010022565
0.0010016154
0.0010011164
0.001000733
0.0010004426
0.0010002214
0.0010000795
0.00099999152
0.00099993907
0.00099989915
0.00099987723
0.0009999129
0.00099998367
0.0010000268
9.5934025e-08
1.6588301e-06
1.308369e-06
1.1646766e-06
1.2246481e-06
1.0213009e-06
1.0462686e-06
1.0262658e-06
1.0691599e-06
1.1289068e-06
1.2141085e-06
1.3189957e-06
1.4424731e-06
1.5846704e-06
1.7466316e-06
1.9298451e-06
2.1358225e-06
2.3671314e-06
2.6259319e-06
2.9148698e-06
3.2369394e-06
3.595569e-06
3.994732e-06
4.4391055e-06
4.9342892e-06
5.4871022e-06
6.1059789e-06
6.8014662e-06
7.5868415e-06
8.4788974e-06
9.4988649e-06
1.0673642e-05
1.2037137e-05
1.3632006e-05
1.5511674e-05
1.7742823e-05
2.0408469e-05
2.3611948e-05
2.7481199e-05
3.2174678e-05
3.7888203e-05
4.4862804e-05
5.3393463e-05
6.3845871e-05
7.6669618e-05
9.3184575e-05
0.00011269083
0.00013667619
0.00016619031
0.00020253168
0.00024730548
0.00030533929
0.00037391951
0.00045854624
0.00056306311
0.0006989841
0.00085999205
0.0010098519
0.0010089927
0.0010081249
0.0010072302
0.0010063125
0.0010053735
0.0010044169
0.0010034524
0.0010025314
0.0010018267
0.0010012639
0.0010008269
0.0010004949
0.0010002605
0.0010000714
0.00099996043
0.00099989894
0.00099986762
0.00099984723
0.00099984631
0.00099989885
0.00099998227
0.0010000285
9.9240115e-08
1.2303302e-06
1.1202823e-06
8.9658387e-07
1.067652e-06
8.1760228e-07
8.6423047e-07
8.8887744e-07
9.5451643e-07
1.0373305e-06
1.139915e-06
1.2597985e-06
1.3973366e-06
1.553509e-06
1.7297735e-06
1.9278381e-06
2.1496442e-06
2.3972099e-06
2.6731614e-06
2.9801227e-06
3.3211525e-06
3.6997522e-06
4.1199837e-06
4.5866348e-06
5.1054475e-06
5.6834257e-06
6.3292516e-06
7.0538529e-06
7.8710304e-06
8.798316e-06
9.8579013e-06
1.1077974e-05
1.2494104e-05
1.4151069e-05
1.6104966e-05
1.8425844e-05
2.1200832e-05
2.453801e-05
2.8571135e-05
3.3465482e-05
3.9694221e-05
4.7029952e-05
5.6002578e-05
6.6996432e-05
8.048444e-05
9.7049884e-05
0.00011741287
0.00014246293
0.0001732965
0.00021325078
0.0002604139
0.00031856371
0.00039031756
0.00047893512
0.00059422354
0.0007307804
0.00089989194
0.0010094415
0.0010085657
0.0010076759
0.0010067601
0.0010058186
0.0010048522
0.001003869
0.0010029037
0.0010021093
0.0010014784
0.0010009852
0.0010006041
0.0010003153
0.0010001016
0.0009999593
0.00099987188
0.00099982876
0.00099981153
0.00099980638
0.0009998241
0.00099989013
0.00099998144
0.0010000295
1.0581307e-07
9.5280094e-07
9.5627307e-07
7.5805789e-07
7.6125929e-07
6.9738845e-07
7.423408e-07
8.0202682e-07
8.8489798e-07
9.8381341e-07
1.0994533e-06
1.2317112e-06
1.3816337e-06
1.5505272e-06
1.7399746e-06
1.9517429e-06
2.187806e-06
2.4503625e-06
2.741874e-06
3.0651101e-06
3.4232139e-06
3.81979e-06
4.259029e-06
4.7458832e-06
5.2863113e-06
5.8855012e-06
6.5555063e-06
7.3062914e-06
8.159479e-06
9.1219053e-06
1.022178e-05
1.1488698e-05
1.2959977e-05
1.4682535e-05
1.671511e-05
1.9130951e-05
2.2021098e-05
2.5498411e-05
2.9702473e-05
3.4805688e-05
4.1020778e-05
4.8610073e-05
5.7896802e-05
6.9277515e-05
8.3243005e-05
0.00010039804
0.00012257093
0.00014872249
0.00018091071
0.00022056078
0.00026943974
0.0003297456
0.0004042143
0.00050097645
0.00061569302
0.00075776271
0.00093394128
0.00100907
0.0010081745
0.0010072629
0.0010063296
0.0010053745
0.0010043996
0.0010034171
0.0010024837
0.0010017722
0.0010012042
0.0010007638
0.0010004254
0.0010001834
0.00099999032
0.00099987024
0.00099980914
0.00099977757
0.0009997695
0.00099977467
0.00099980575
0.000999881
0.00099997628
0.0010000249
1.2033211e-07
9.5578002e-07
7.9799535e-07
5.6215151e-07
6.0501119e-07
6.0790123e-07
6.710962e-07
7.4951809e-07
8.4587452e-07
9.5692539e-07
1.083644e-06
1.2268458e-06
1.3878127e-06
1.567946e-06
1.7688543e-06
1.9923287e-06
2.2403716e-06
2.5152225e-06
2.819394e-06
3.1557164e-06
3.5273987e-06
3.938115e-06
4.3921277e-06
4.8944643e-06
5.4511681e-06
6.0696419e-06
6.7591048e-06
7.5311782e-06
8.4006303e-06
9.3862659e-06
1.0511999e-05
1.1808196e-05
1.3313203e-05
1.5075245e-05
1.7154679e-05
1.9626745e-05
2.2584915e-05
2.6144964e-05
3.0449974e-05
3.5676498e-05
4.2042261e-05
5.0172509e-05
5.9758504e-05
7.1503383e-05
8.5913517e-05
0.00010361278
0.00012537249
0.00015214705
0.00018511882
0.00022575286
0.00027587343
0.00034086855
0.00041788442
0.00051312902
0.00063106862
0.00077731664
0.00095893326
0.0010087697
0.0010078534
0.0010069175
0.0010059609
0.0010049844
0.0010039945
0.0010030191
0.0010021776
0.0010015189
0.0010010007
0.0010006017
0.0010003003
0.0010001007
0.00099991818
0.00099979496
0.0009997639
0.00099973907
0.00099973755
0.00099974999
0.00099978835
0.00099986583
0.00099996213
0.0010000153
1.1032594e-07
6.1678059e-07
6.3284203e-07
4.6556272e-07
5.0769015e-07
5.5322956e-07
6.3153373e-07
7.2354913e-07
8.3055215e-07
9.5187276e-07
1.0885758e-06
1.2417054e-06
1.4125706e-06
1.6026269e-06
1.8135159e-06
2.0470753e-06
2.3053622e-06
2.5906468e-06
2.9055534e-06
3.2529625e-06
3.6361535e-06
4.0588723e-06
4.525455e-06
5.0410067e-06
5.611656e-06
6.2449056e-06
6.9500983e-06
7.7390207e-06
8.6337115e-06
9.642376e-06
1.0794264e-05
1.2120525e-05
1.366044e-05
1.5463371e-05
1.759104e-05
2.0120353e-05
2.3146794e-05
2.6788606e-05
3.1191926e-05
3.6537089e-05
4.304639e-05
5.0993574e-05
6.0715558e-05
7.2628766e-05
8.7246347e-05
0.00010520244
0.00012728143
0.00015581015
0.0001895273
0.00023108089
0.00028234339
0.00034564693
0.00042390705
0.00052077775
0.00064085197
0.00078991962
0.00097528285
0.0010085664
0.0010076368
0.0010066846
0.0010057108
0.001004717
0.0010037136
0.0010027412
0.0010019635
0.0010013452
0.0010008628