/*--------------------------------*- C++ -*----------------------------------*\
  =========                 |
  \\      /  F ield         | OpenFOAM: The Open Source CFD Toolbox
   \\    /   O peration     | Website:  https://openfoam.org
    \\  /    A nd           | Version:  12
     \\/     M anipulation  |
\*---------------------------------------------------------------------------*/
FoamFile
{
    format      ascii;
    class       volScalarField;
    location    "0.108";
    object      omega;
}
// * * * * * * * * * * * * * * * * * * * * * * * * * * * * * * * * * * * * * //

dimensions      [0 0 -1 0 0 0 0];

internalField   nonuniform List<scalar> 
16000
(
1090.8814
2193.5967
1072.5019
643.7304
454.20919
315.91674
239.68027
180.96514
145.78603
118.04559
100.31105
85.86398
75.157497
66.210526
58.910587
52.759502
47.56683
43.137749
39.331903
36.037298
33.169862
30.658691
28.445438
26.483576
24.735608
23.172361
21.76968
20.508908
19.374233
18.35122
17.426813
16.590711
15.834708
15.151859
14.536234
13.982322
13.484938
13.039185
12.640972
12.286847
11.972932
11.695146
11.450522
11.236362
11.049602
10.88712
10.746494
10.625424
10.521703
10.433242
10.358175
10.294865
10.241783
10.197583
10.161096
10.131433
10.107993
10.090521
10.079354
10.075243
10.0762
10.076905
10.077074
10.077006
10.076581
10.075762
10.074457
10.072526
10.069776
10.065951
10.06073
10.053772
10.044595
10.032517
10.022978
10.015943
10.011813
10.018785
10.012495
10.028222
1132.6357
2184.7895
1061.0773
644.02373
454.32667
318.73769
240.72759
182.74337
146.60818
119.0659
100.84726
86.42145
75.51345
66.519144
59.133426
52.932349
47.693
43.229242
39.396226
36.080049
33.195863
30.672475
28.450591
26.482972
24.731083
23.165381
21.76101
20.498963
19.363506
18.340454
17.416482
16.580934
15.82546
15.143004
14.527669
13.974013
13.476959
13.031551
12.633508
12.2795
11.965943
11.688535
11.444154
11.230222
11.043852
10.881772
10.741516
10.620802
10.517449
10.429363
10.354644
10.29167
10.238909
10.195014
10.158788
10.129304
10.105925
10.088293
10.076477
10.071124
10.071564
10.072235
10.072303
10.072131
10.071598
10.070663
10.069235
10.067177
10.064298
10.060352
10.055012
10.047936
10.038872
10.027513
10.018668
10.012048
10.009192
10.013307
10.012892
10.028726
1172.7873
2186.1159
1049.6689
640.48285
450.97299
318.98368
239.63095
182.92953
146.1606
119.21942
100.69189
86.430022
75.408803
66.419457
59.001009
52.788469
47.538431
43.06961
39.235502
35.920494
33.039352
30.520994
28.305567
26.345605
24.601781
23.044469
21.648351
20.394144
19.266143
18.250518
17.33388
16.505307
15.756375
15.079936
14.470139
13.921591
13.429349
12.988506
12.594599
12.244276
11.934331
11.660348
11.419021
11.207798
11.024044
10.86438
10.726294
10.607522
10.505919
10.419419
10.346098
10.284362
10.232691
10.189757
10.154361
10.125556
10.102689
10.085383
10.073565
10.067576
10.067366
10.06792
10.067842
10.067518
10.066831
10.065733
10.064134
10.061899
10.058839
10.054715
10.049214
10.041963
10.032851
10.022306
10.014192
10.008339
10.006245
10.009372
10.013107
10.028729
1211.1501
2194.0218
1039.9961
637.02833
447.20714
319.01797
238.2363
182.95239
145.57275
119.27225
100.4854
86.376903
75.263234
66.272848
58.828567
52.606283
47.348788
42.8773
39.044527
35.732969
32.856872
30.345412
28.138134
26.18748
24.453253
22.905795
21.51935
20.274345
19.155007
18.147912
17.239689
16.419125
15.677736
15.008258
14.404887
13.862261
13.375567
12.939999
12.550946
12.204896
11.899087
11.629049
11.391286
11.183168
11.002387
10.845473
10.709853
10.593274
10.493626
10.408893
10.337119
10.276745
10.22626
10.184365
10.149866
10.121794
10.099478
10.082523
10.070792
10.064467
10.063522
10.063899
10.063637
10.063127
10.062252
10.060959
10.059161
10.056721
10.053455
10.04913
10.043458
10.036054
10.026809
10.017158
10.009801
10.004717
10.003111
10.005953
10.011723
10.026048
1247.5431
2212.184
1031.5753
633.3005
442.68764
318.31113
236.16213
182.48994
144.60869
119.04785
100.09186
86.14796
74.979321
65.994698
58.541709
52.320572
47.06648
42.601288
38.777852
35.476888
32.612052
30.112999
27.918713
25.981745
24.261092
22.727137
21.353758
20.121136
19.013335
18.017367
17.120006
16.309752
15.578089
14.917618
14.322595
13.787673
13.308147
12.879368
12.496659
12.156189
11.855672
11.590662
11.357514
11.153379
10.976344
10.822884
10.690354
10.576515
10.479279
10.396714
10.326824
10.268097
10.219033
10.178371
10.144932
10.117736
10.096096
10.079608
10.06809
10.061595
10.06005
10.060183
10.059701
10.058967
10.05787
10.056351
10.054321
10.051648
10.048148
10.043592
10.037722
10.030197
10.020864
10.012133
10.005569
10.001213
9.9999652
10.00296
10.010279
10.021708
1281.8192
2237.9383
1027.4498
630.30995
438.67651
316.98017
233.61049
181.62121
143.3709
118.58446
99.555445
85.765354
74.576416
65.602166
58.154868
51.944486
46.702975
42.251772
38.44443
35.16018
32.311944
29.830065
27.652991
25.733411
24.029827
22.512605
21.155304
19.937924
18.844271
17.861781
16.977514
16.179664
15.459723
14.810132
14.225215
13.699632
13.228765
12.808129
12.43312
12.099466
11.80528
11.54624
11.318654
11.119289
10.946668
10.79727
10.668369
10.55774
10.463295
10.383231
10.315504
10.258657
10.211204
10.171925
10.139675
10.113466
10.092594
10.076651
10.065436
10.058906
10.056897
10.05673
10.055993
10.055003
10.053655
10.051882
10.049595
10.046663
10.042909
10.0381
10.032
10.024384
10.015111
10.007288
10.001545
9.9978792
9.9969264
10.0001
10.008529
10.017894
1313.9339
2268.9126
1027.4005
627.48132
434.7401
315.01262
230.9549
180.38126
141.95078
117.88444
98.88488
85.227753
74.050683
65.093094
57.664827
51.475047
46.255197
41.825791
38.041181
34.779875
31.953727
29.493957
27.338598
25.439805
23.75698
22.259939
20.921935
19.722872
18.646206
17.679746
16.810993
16.027813
15.321757
14.685071
14.112154
13.597677
13.137082
12.726027
12.360127
12.034765
11.748006
11.495883
11.274825
11.081066
10.913527
10.768791
10.644046
10.537091
10.445803
10.368559
10.303255
10.248505
10.20284
10.165084
10.134136
10.109014
10.088998
10.073669
10.06283
10.056373
10.05403
10.053515
10.052493
10.051218
10.049591
10.047541
10.044974
10.041763
10.037734
10.03266
10.026303
10.018593
10.009618
10.002697
9.997783
9.9947952
9.9941356
9.9974209
10.00651
10.013925
1343.9961
2302.5342
1028.9242
624.34134
430.87434
312.40003
228.31891
178.90966
140.44377
116.97025
98.097002
84.54371
73.40332
64.46958
57.071729
50.911723
45.722055
41.322148
37.566011
34.333778
31.535275
29.102608
26.973826
25.097313
23.439078
21.965901
20.650662
19.473267
18.416728
17.469126
16.618569
15.852571
15.162795
14.541254
13.982431
13.480999
13.032463
12.632573
12.277216
11.962374
11.684194
11.43991
11.22632
11.039118
10.877295
10.737775
10.617687
10.514838
10.427033
10.352889
10.290236
10.237771
10.194044
10.157926
10.128372
10.104418
10.085329
10.070674
10.060261
10.05396
10.051401
10.0505
10.049166
10.047581
10.045655
10.043306
10.040442
10.036935
10.032615
10.027272
10.020655
10.012805
10.004447
9.9984113
9.9943179
9.992004
9.9916925
9.9950232
10.00397
10.010721
1372.1062
2336.5753
1027.3482
620.42903
426.10231
309.09124
224.79489
177.04579
138.60738
115.87175
97.18773
83.712442
72.627418
63.726951
56.370562
50.24877
45.097825
40.735688
37.010834
33.813755
31.048792
28.648565
26.552104
24.706689
23.077444
21.632253
20.343534
19.19134
18.158209
17.232351
16.402676
15.656347
14.98521
14.380993
13.838276
13.351737
12.916941
12.529729
12.186051
11.881871
11.613586
11.378148
11.172959
10.993799
10.838318
10.704514
10.58962
10.491275
10.407244
10.336439
10.276626
10.226597
10.18493
10.150538
10.122445
10.099719
10.081615
10.067683
10.05773
10.051638
10.04896
10.047648
10.045978
10.044063
10.041818
10.039156
10.035982
10.032169
10.027547
10.021932
10.015095
10.007046
9.9996535
9.994482
9.9911807
9.9895204
9.9895963
9.9929579
10.001384
10.007816
1398.3642
2369.3878
1018.7973
615.43558
419.62404
305.34524
220.44227
174.71056
136.71841
114.59236
96.146705
82.728637
71.714835
62.857097
55.553167
49.473198
44.368495
40.052957
36.373951
33.22061
30.496759
28.135396
26.076848
24.266954
22.671389
21.258455
20.000178
18.876889
17.870648
16.969593
16.163556
15.439496
14.789469
14.204853
13.680329
13.210582
12.791229
12.418207
12.087625
11.79551
11.538177
11.31244
11.116223
10.94501
10.796584
10.668965
10.560138
10.466661
10.386717
10.319438
10.262617
10.215138
10.175618
10.143012
10.11642
10.094959
10.077879
10.064707
10.055239
10.04938
10.046654
10.044915
10.042891
10.04063
10.038053
10.035066
10.031573
10.027452
10.022528
10.016633
10.00965
10.001603
9.995273
9.9909477
9.9883956
9.9873519
9.9878251
9.9911813
9.9989914
10.005403
1422.8755
2400.2446
1009.904
609.37399
411.49655
301.18367
215.83732
172.182
134.73095
113.13218
94.96069
81.584913
70.653677
61.839277
54.596833
48.580001
43.535332
39.277901
35.653355
32.552402
29.877229
27.561359
25.54684
23.778188
22.221243
20.844998
19.6213
18.53081
17.555138
16.682152
15.902289
15.203156
14.576776
14.014081
13.509862
13.058802
12.656579
12.299201
11.982951
11.703947
11.458595
11.243499
11.056966
10.894441
10.753552
10.632286
10.529192
10.440946
10.365684
10.302072
10.248405
10.203553
10.166237
10.135445
10.110366
10.09018
10.074144
10.061759
10.052791
10.047166
10.044428
10.042258
10.039866
10.037247
10.034328
10.03101
10.027196
10.02277
10.017561
10.011388
10.004284
9.9967183
9.9913399
9.9878344
9.9859828
9.9855135
9.9863835
9.9896986
9.9967956
10.003177
1445.7634
2430.1781
996.49569
601.77607
401.97221
296.61798
211.05905
169.39795
132.71733
111.49631
93.60248
80.250786
69.406107
60.666977
53.505072
47.565792
42.594528
38.407027
34.84736
31.807927
29.189848
26.926503
24.962276
23.240727
21.727758
20.392459
19.207691
18.154098
17.212857
16.371552
15.619116
14.9476
14.347468
13.809081
13.327324
12.89687
12.513476
12.173192
11.872515
11.607676
11.375209
11.172295
10.995946
10.842527
10.709626
10.595098
10.49797
10.414993
10.344092
10.284283
10.234124
10.191991
10.156909
10.127936
10.104349
10.085422
10.070427
10.058844
10.050392
10.044981
10.042227
10.039634
10.036865
10.03388
10.030615
10.026966
10.02283
10.018104
10.012641
10.006242
9.9989556
9.9923601
9.9878823
9.9851542
9.9839545
9.9840181
9.9852737
9.9885207
9.9948244
10.001049
1467.3416
2458.3303
979.17379
593.27505
391.94792
291.65346
206.20959
166.41448
130.65211
109.66317
92.007207
78.709662
67.977226
59.33414
52.271326
46.426736
41.543198
37.438543
33.954806
30.986492
28.434357
26.231222
24.323387
22.655177
21.192139
19.900373
18.759024
17.74663
16.843793
16.038341
15.319171
14.6779
14.106454
13.594594
13.137241
12.729035
12.365866
12.043796
11.759572
11.509634
11.290424
11.099044
10.933395
10.789477
10.664926
10.557867
10.466701
10.38912
10.322816
10.266707
10.219671
10.180536
10.14774
10.120578
10.098441
10.080726
10.066745
10.055961
10.048044
10.042827
10.039998
10.037004
10.033856
10.030501
10.026886
10.02291
10.018463
10.013445
10.007744
10.001242
9.9939923
9.988542
9.9849095
9.9829069
9.9823088
9.9828603
9.9844801
9.9876741
9.9932002
9.999015
1487.8447
2480.9337
957.68958
584.21678
381.47654
286.32894
201.37665
163.24077
128.46401
107.53773
90.159039
76.950609
66.354124
57.832406
50.889379
45.15796
40.378078
36.370054
32.974555
30.087091
27.61055
25.476283
23.62871
22.020189
20.613882
19.375166
18.282346
17.315799
16.455529
15.68945
15.006267
14.39779
13.856862
13.373434
12.942153
12.557549
12.215746
11.912769
11.645608
11.411058
11.205648
11.026354
10.871451
10.737107
10.62085
10.520626
10.43544
10.363212
10.301919
10.249633
10.2056
10.169051
10.138768
10.113445
10.092706
10.076133
10.063114
10.053099
10.045739
10.040722
10.0377
10.034332
10.03081
10.027087
10.023122
10.018825
10.014083
10.008795
10.002864
9.9963241
9.9897606
9.9852605
9.9824205
9.9810815
9.9810298
9.9820143
9.9839598
9.9871588
9.9920855
9.9975328
1507.5306
2493.2876
932.09303
574.51168
370.6294
280.6829
196.6334
159.79636
126.03267
105.12697
88.03049
74.955702
64.524188
56.151537
49.351765
43.754302
39.096161
35.199184
31.905884
29.10654
26.71551
24.660036
22.886713
21.345655
20.0028
18.822646
17.783548
16.866895
16.053056
15.329791
14.685598
14.112209
13.601831
13.148204
12.744262
12.384232
12.064612
11.781372
11.531644
11.312719
11.121247
10.954937
10.810702
10.685838
10.577979
10.484785
10.405372
10.338117
10.281216
10.233153
10.192141
10.157977
10.129829
10.106553
10.0872
10.071683
10.059558
10.050251
10.04344
10.038689
10.035303
10.03159
10.02771
10.023628
10.019315
10.014703
10.009681
10.004158
9.9980622
9.9914184
9.9861484
9.9825224
9.9804023
9.9796586
9.9800943
9.9814517
9.9836667
9.9869396
9.9914539
9.9965431
1526.6195
2484.8907
902.77064
564.20678
359.45215
274.71913
191.97355
155.95418
123.28095
102.38593
85.591737
72.702118
62.471284
54.280344
47.651021
42.210169
37.694672
33.919946
30.744332
28.053602
25.761715
23.795954
22.10545
20.639857
19.366859
18.251431
17.271104
16.406253
15.641938
14.964174
14.3611
13.825048
13.348474
12.925184
12.549181
12.214085
11.916878
11.653555
11.421175
11.217753
11.039667
10.884972
10.751307
10.635698
10.536088
10.450448
10.376743
10.314279
10.261372
10.217004
10.179353
10.147501
10.121243
10.099726
10.081935
10.067414
10.056102
10.047422
10.041086
10.036634
10.032795
10.02876
10.024543
10.02012
10.015469
10.01055
10.005263
9.9995163
9.9934073
9.9873471
9.9831103
9.9803033
9.9788317
9.9786133
9.979477
9.9811542
9.9835673
9.9869357
9.9912812
9.9961466
1545.2787
2435.573
871.19999
553.33554
348.00179
268.35077
187.08656
151.686
120.09552
99.266663
82.80896
70.165081
60.179454
52.209148
45.78051
40.516037
36.16611
32.544013
29.506262
26.939413
24.760698
22.89614
21.297661
19.915387
18.71584
17.669932
16.753105
15.945979
15.233323
14.602903
14.042188
13.544053
13.101285
12.708183
12.359781
12.049406
11.774309
11.530767
11.315494
11.127227
10.962319
10.818836
10.695184
10.588367
10.496297
10.417311
10.349715
10.291884
10.242703
10.201669
10.166967
10.137679
10.113148
10.093187
10.076759
10.063344
10.052769
10.04465
10.038655
10.034388
10.030174
10.025829
10.021306
10.016572
10.011603
10.006382
10.000858
9.9949283
9.9887369
9.9839606
9.9806232
9.9785631
9.9776727
9.9779184
9.97915
9.9811019
9.9836558
9.987105
9.9914577
9.9962101
1563.371
2400.1885
839.35782
541.84021
336.28055
261.03613
182.04584
146.88854
116.36265
95.71109
79.646975
67.320414
57.63327
49.929636
43.727761
38.683583
34.532079
31.086865
28.208355
25.782595
23.730371
21.978174
20.476847
19.185025
18.067175
17.094433
16.243549
15.495567
14.835339
14.25244
13.734234
13.273902
12.864683
12.50097
12.177979
11.891578
11.637772
11.413455
11.215765
11.041982
10.889818
10.756984
10.642653
10.544151
10.459207
10.386279
10.323885
10.27066
10.225365
10.187344
10.155321
10.128291
10.105615
10.087009
10.071825
10.059447
10.049561
10.041975
10.03623
10.031969
10.027437
10.022801
10.017998
10.012993
10.007743
10.002232
9.9964759
9.9905403
9.9849609
9.9811641
9.9786434
9.9772534
9.9768813
9.9775422
9.9790797
9.9812572
9.9839218
9.9874142
9.9918412
9.9965829
1580.4391
2357.9572
806.59517
529.38643
324.18525
252.54102
176.65781
141.44644
111.97368
91.657947
76.072113
64.147218
54.814006
47.427381
41.518226
36.735394
32.816713
29.575085
26.876083
24.607508
22.689841
21.059958
19.666554
18.469276
17.435311
16.537298
15.752939
15.064236
14.455854
13.917921
13.441143
13.017416
12.640605
12.305647
12.00822
11.744397
11.510641
11.30393
11.1217
10.961664
10.821748
10.699904
10.594194
10.503349
10.42503
10.357754
10.300159
10.251052
10.20936
10.174111
10.144513
10.119575
10.098648
10.081235
10.067117
10.055609
10.046448
10.039386
10.033895
10.029389
10.024598
10.019691
10.01463
10.009387
10.003912
9.9981642
9.992197
9.9862965
9.9819399
9.9789441
9.9771229
9.9763219
9.9764385
9.9774404
9.9792215
9.9815592
9.9843268
9.9878631
9.992296
9.9970762
1595.8191
2290.1109
772.1757
515.47753
310.94873
242.7161
170.6078
135.21978
106.82784
87.048179
72.058413
60.626239
51.739151
44.75048
39.188506
34.710471
31.058315
28.043875
25.537488
23.43935
21.670061
20.168102
18.885532
17.784464
16.83443
16.010155
15.290445
14.657695
14.100095
13.606748
13.169235
12.780212
12.433898
12.125649
11.851717
11.608808
11.393718
11.203517
11.035805
10.888337
10.759264
10.646971
10.550057
10.466148
10.393873
10.331766
10.278539
10.233078
10.194425
10.162032
10.134565
10.111456
10.09207
10.07592
10.062739
10.051977
10.0434
10.036795
10.031566
10.026697
10.02168
10.016529
10.011229
10.005763
10.000105
9.9942109
9.9881958
9.983076
9.9795438
9.9772676
9.9760339
9.9756599
9.9762546
9.9775576
9.9795278
9.9819622
9.9848055
9.9883916
9.9927562
9.9975016
1608.4143
2221.0717
735.19954
499.53251
296.92861
231.36497
163.42536
128.04095
100.84807
81.85179
67.600134
56.798745
48.470955
41.958293
36.798528
32.662069
29.303415
26.530566
24.233377
22.312868
20.695226
19.322995
18.151204
17.144697
16.275754
15.521805
14.862389
14.284078
13.773867
13.321794
12.920709
12.563837
12.245836
11.962343
11.709915
11.485843
11.287654
11.112387
10.957946
10.822152
10.703146
10.59997
10.510231
10.432651
10.36579
10.30835
10.259109
10.217039
10.181282
10.1511
10.125559
10.104056
10.086039
10.071033
10.058696
10.04859
10.040475
10.034173
10.029113
10.023956
10.018722
10.013355
10.007841
10.002163
9.9963366
9.9904233
9.9846697
9.9805842
9.9777471
9.9760624
9.9753728
9.9753529
9.9762782
9.9778374
9.979952
9.9824427
9.9853231
9.9889456
9.9932443
9.9978308
1615.4183
2137.3952
695.43007
479.8542
281.85419
218.16786
154.63573
119.77213
94.034125
76.116569
62.781798
52.773549
45.106909
39.137799
34.422809
30.651827
27.597859
25.081773
22.997044
21.254946
19.787176
18.541371
17.476507
16.560385
15.767633
15.078149
14.475697
13.94666
13.480008
13.065549
12.6974
12.369568
12.077236
11.816371
11.583615
11.37635
11.193198
11.031147
10.888419
10.763174
10.653606
10.557979
10.474862
10.402893
10.340812
10.287483
10.241805
10.202659
10.169573
10.141394
10.117524
10.097392
10.080539
10.066576
10.054985
10.045478
10.037779
10.031655
10.026608
10.021226
10.015786
10.010221
10.004527
9.9986734
9.9926658
9.986724
9.9820275
9.978688
9.976478
9.9752435
9.9748782
9.9753794
9.976483
9.9782362
9.9804498
9.9829731
9.9858724
9.9894953
9.9937225
9.9981067
1611.6544
2034.7145
652.35316
454.14441
265.54624
202.77338
143.99807
110.43815
86.537763
69.97159
57.790486
48.699254
41.76723
36.384951
32.139058
28.743971
25.995241
23.734622
21.858036
20.287704
18.962296
17.835208
16.869966
16.037845
15.316078
14.686603
14.135009
13.649494
13.220283
12.83946
12.500481
12.198255
11.928516
11.68776
11.473019
11.281745
11.111753
10.961227
10.828426
10.711798
10.609863
10.521105
10.443842
10.376889
10.319019
10.269207
10.226781
10.190385
10.159309
10.132907
10.110529
10.091581
10.075788
10.06256
10.0516
10.042607
10.035342
10.029394
10.024113
10.018581
10.012956
10.007204
10.001335
9.9953712
9.9893934
9.9838061
9.9799548
9.9772819
9.9756497
9.974868
9.974723
9.9755397
9.9768437
9.9787179
9.9809887
9.9835298
9.9864352
9.990009
9.99412
9.9982661
1590.9701
1903.3387
606.17739
421.72754
248.00997
184.97295
131.73542
100.36635
78.710407
63.744152
52.848547
44.742124
38.575732
33.79323
30.019003
26.994737
24.539149
22.521243
20.839867
19.428317
18.232987
17.213244
16.337364
15.580243
14.92176
14.345734
13.83932
13.3926
12.996899
12.645248
12.331632
12.051552
11.801193
11.577438
11.377662
11.199615
11.041318
10.900988
10.777004
10.667866
10.572267
10.489379
10.41719
10.354629
10.300583
10.25404
10.214088
10.179894
10.150599
10.125642
10.104613
10.086765
10.071711
10.059103
10.048632
10.040062
10.033032
10.027208
10.021728
10.016075
10.010321
10.004428
9.9983911
9.9922557
9.9862858
9.9816822
9.9784011
9.9762561
9.9750533
9.9746473
9.9749488
9.9758323
9.9773023
9.9792442
9.9815345
9.9840819
9.9869946
9.9905066
9.9944786
9.9984015
1544.5175
1743.1232
558.0655
383.39592
230.1527
165.03871
118.53513
90.183519
71.010856
57.759605
48.181155
41.062425
35.649258
31.447263
28.123751
25.450827
23.269443
21.466668
19.960549
18.689798
17.608774
16.682511
15.883804
15.191124
14.587124
14.057507
13.58978
13.175976
12.808384
12.481539
12.189441
11.928149
11.694243
11.484925
11.297833
11.130937
10.982451
10.850767
10.734406
10.63199
10.542227
10.463893
10.395808
10.336686
10.285549
10.241431
10.203518
10.171257
10.143587
10.11997
10.099866
10.082827
10.06843
10.05631
10.046268
10.037917
10.031032
10.025233
10.019558
10.013773
10.007905
10.001935
9.9958651
9.9897716
9.9840778
9.9801317
9.9773498
9.9756293
9.9747959
9.9745706
9.9751647
9.9762086
9.9777878
9.9797693
9.9820544
9.9845891
9.9874902
9.9909298
9.9947569
9.9984771
1464.1435
1580.7926
509.00604
343.90334
206.18099
145.72898
105.33969
80.579761
63.896256
52.331881
44.003765
37.815167
33.09829
29.422775
26.501584
24.139432
22.200353
20.58777
19.231891
18.081534
17.097501
16.249955
15.515526
14.875684
14.315498
13.822801
13.387576
13.001523
12.657907
12.351124
12.076526
11.830459
11.609855
11.412178
11.235284
11.077318
10.936636
10.811741
10.701241
10.603824
10.518264
10.44348
10.378761
10.322498
10.273832
10.231847
10.195733
10.164753
10.138243
10.115557
10.096215
10.079784
10.065978
10.054303
10.044503
10.036325
10.029512
10.023685
10.017823
10.011876
10.005842
9.9997212
9.9935483
9.987524
9.9825661
9.9790526
9.9766696
9.9752601
9.9746739
9.974555
9.9754487
9.9765891
9.9782461
9.9802496
9.9825254
9.9850416
9.9879062
9.9912456
9.9949279
9.9984969
1351.683
1492.3237
462.87256
296.53349
182.32969
127.59234
93.410463
72.076244
57.740051
47.753923
40.534007
35.15144
31.026315
27.789895
25.199191
23.089599
21.346508
19.887968
18.653183
17.599837
16.694165
15.910444
15.228368
14.631704
14.107288
13.644362
13.234025
12.868949
12.543188
12.252264
11.991252
11.75696
11.546577
11.357795
11.188655
11.037459
10.902702
10.783008
10.6771
10.583759
10.501815
10.430121
10.367554
10.313181
10.266055
10.225332
10.190242
10.16012
10.1345
10.112547
10.093826
10.077893
10.06438
10.052964
10.043359
10.035312
10.028563
10.02272
10.016739
10.010673
10.004506
9.9982539
9.9919815
9.9859834
9.9815263
9.9783372
9.97624
9.9750627
9.9746801
9.9749035
9.9757097
9.9769647
9.9786568
9.9806711
9.9829437
9.9854539
9.988276
9.9914855
9.9949845
9.9984423
1218.6922
1250.3727
422.69076
254.26933
160.14769
112.46622
83.53933
65.209213
52.874221
44.225376
37.924915
33.184844
29.518448
26.615875
24.272455
22.348934
20.74789
19.399502
18.252604
17.268895
16.419269
15.681077
15.036384
14.470708
13.972157
13.530841
13.138722
12.789049
12.476253
12.195734
11.943724
11.717082
11.513224
11.329987
11.165534
11.018272
10.88678
10.769763
10.666012
10.574397
10.493898
10.423781
10.362492
10.309193
10.262968
10.222997
10.188522
10.158863
10.133408
10.111623
10.093023
10.077188
10.06375
10.052389
10.042827
10.034813
10.028089
10.022259
10.016264
10.010165
10.003944
9.9976135
9.9912591
9.9852584
9.9810696
9.9780711
9.9761557
9.9751274
9.9748037
9.9751224
9.975971
9.9772891
9.9789902
9.9810045
9.9832732
9.9857807
9.9885674
9.9916692
9.9950152
9.9983938
1099.1367
1112.6817
390.0152
223.55595
143.55343
101.33786
76.227466
60.206766
49.395191
41.748819
36.12188
31.847731
28.510933
25.846655
23.678731
21.886494
20.384934
19.112732
18.024696
17.086864
16.27321
15.563411
14.941306
14.393915
13.911105
13.482544
13.100977
12.760024
12.454449
12.179892
11.932761
11.710094
11.509441
11.328755
11.166302
11.020577
10.890237
10.774056
10.670881
10.579614
10.499203
10.428632
10.36694
10.313195
10.266526
10.226121
10.191237
10.161195
10.135384
10.113262
10.094348
10.078218
10.064503
10.052884
10.043081
10.034844
10.027926
10.02197
10.016079
10.01006
10.003949
9.9977417
9.9915088
9.9855698
9.9813071
9.9782816
9.9763389
9.9753018
9.9749835
9.97532
9.9761825
9.9775018
9.9791996
9.9812061
9.9834733
9.9859823
9.9887466
9.9917745
9.9950133
9.9983528
1044.2097
1071.4572
365.75368
206.46716
132.67933
93.780937
70.776468
56.229294
46.43005
39.489826
34.366687
30.457262
27.392
24.934291
22.926683
21.260939
19.860572
18.670244
17.649077
16.766307
15.998351
15.326777
14.736894
14.216747
13.756439
13.347685
12.983464
12.657868
12.365926
12.103494
11.867136
11.654012
11.461775
11.288474
11.132458
10.992309
10.866768
10.754688
10.654998
10.566675
10.488736
10.420229
10.360241
10.307896
10.262371
10.222896
10.18876
10.159315
10.133976
10.11222
10.093581
10.077653
10.064076
10.052541
10.042776
10.034541
10.027592
10.021579
10.015602
10.009508
10.003321
9.9970491
9.990796
9.9850211
9.9809611
9.978058
9.9762168
9.9752599
9.9749725
9.9753759
9.9762379
9.977557
9.9792509
9.9812471
9.9835122
9.9860247
9.9887831
9.9917783
9.9949771
9.998323
31470.416
79266.839
37045.763
10718.45
1410.5825
611.58418
434.31473
350.71995
290.55706
236.33028
192.52435
159.26212
134.6798
116.43583
102.39152
90.908026
81.189863
72.899607
65.800882
59.67818
54.353395
49.691044
45.586374
41.954037
38.728677
35.845805
33.26006
30.931458
28.828135
26.924942
25.200422
23.63544
22.213291
20.919273
19.741845
18.671296
17.698879
16.816841
16.018106
15.296236
14.64562
14.06069
13.536379
13.06812
12.651426
12.282066
11.95621
11.669832
11.419253
11.201123
11.012172
10.849282
10.709475
10.590221
10.488997
10.40358
10.333584
10.278831
10.239224
10.21736
10.21001
10.207975
10.205949
10.203201
10.20016
10.196964
10.193064
10.187267
10.179313
10.17156
10.159879
10.15354
10.133537
10.124846
10.092804
10.09705
10.03262
10.053951
9.9916449
10.011573
20029.685
59503.557
24610.805
5087.4844
973.79474
529.02857
397.96974
321.56599
264.14547
212.78281
174.47952
145.66699
124.62168
108.83493
96.36735
85.906907
76.99093
69.37604
62.832699
57.160016
52.203481
47.84711
43.998834
40.582621
37.536551
34.807563
32.354252
30.13921
28.13432
26.316966
24.667342
23.167715
21.802701
20.55877
19.4256
18.394203
17.456415
16.605036
15.833428
15.135569
14.506217
13.940037
13.432271
12.978592
12.57469
12.216535
11.900472
11.62258
11.379356
11.167579
10.984079
10.825844
10.690001
10.574124
10.475778
10.392721
10.32421
10.270762
10.232367
10.21175
10.205033
10.203186
10.201208
10.198553
10.195641
10.192584
10.189219
10.184148
10.176882
10.169544
10.158399
10.152147
10.13263
10.123875
10.091662
10.096062
10.031891
10.053396
9.9921696
10.012023
28341.178
35358.396
13495.646
2549.0496
837.26866
499.06337
387.92597
306.27485
250.7122
201.19952
166.71295
139.58249
120.05902
105.15952
93.268872
83.217736
74.678694
67.387033
61.109816
55.658613
50.890213
46.695504
42.986589
39.690718
36.747066
34.108409
31.734621
29.589237
27.6462
25.883817
24.282979
22.826639
21.5001
20.290428
19.187997
18.18413
17.270992
16.441696
15.689844
15.009662
14.396125
13.844021
13.348798
12.906273
12.51224
12.162807
11.85443
11.583251
11.345896
11.13923
10.960152
10.805725
10.673167
10.560146
10.464149
10.383116
10.315851
10.263412
10.225952
10.206296
10.200053
10.198374
10.196465
10.19392
10.19114
10.188218
10.185185
10.180879
10.174326
10.167418
10.156825
10.150574
10.131648
10.122741
10.090406
10.094818
10.031162
10.052806
9.992695
10.012501
35856.238
23993.206
8348.7237
1546.8645
755.19714
475.78915
375.53587
290.33358
239.48046
190.5261
159.68925
133.67786
115.72608
101.62462
90.308768
80.662013
72.488028
65.498013
59.470073
54.22736
49.635853
45.592788
42.014471
38.831453
35.986201
33.430896
31.131666
29.052157
27.167906
25.457921
23.903773
22.489034
21.199632
20.023176
18.950695
17.97375
17.084819
16.277297
15.544997
14.882375
14.284602
13.74657
13.263931
12.832625
12.448545
12.10793
11.80734
11.542976
11.311594
11.110137
10.935571
10.78504
10.655918
10.545731
10.452158
10.373193
10.307379
10.255974
10.219482
10.200806
10.195044
10.19354
10.191705
10.189276
10.186634
10.183851
10.180942
10.177381
10.171567
10.165105
10.155081
10.148786
10.130482
10.121431
10.089047
10.093355
10.030433
10.052188
9.9932244
10.013006
40356.867
20454.867
5880.0432
1229.733
720.80251
458.24071
365.8742
277.8901
231.30699
182.3891
154.71605
129.09017
112.45648
98.817847
87.929503
78.581802
70.692476
63.933589
58.098944
53.019708
48.568481
44.646878
41.174105
38.083099
35.318291
32.834474
30.595798
28.571831
26.737608
25.072549
23.558737
22.180205
20.923372
19.776264
18.730453
17.777619
16.910512
16.122744
15.408285
14.761782
14.178558
13.653576
13.182673
12.761877
12.387162
12.054882
11.761682
11.50381
11.278141
11.081684
10.911469
10.764721
10.638896
10.53148
10.440273
10.363332
10.299064
10.248636
10.213077
10.195219
10.190022
10.18869
10.186937
10.184631
10.182129
10.179486
10.176718
10.173672
10.168622
10.162622
10.153183
10.146849
10.129128
10.119957
10.087582
10.091756
10.029705
10.051541
9.9937591
10.013532
43148.612
19093.076
4527.0625
1157.8354
700.32083
439.93702
358.38977
268.09171
225.07459
175.8874
150.81197
125.20766
109.75465
96.3983
85.879934
76.776765
69.126626
62.559286
56.887212
51.946536
47.615008
43.797595
40.415811
37.404527
34.709913
32.288124
30.103352
28.128506
26.338671
24.713734
23.236137
21.890286
20.663011
19.542684
18.521349
17.590736
16.743853
15.974478
15.276709
14.64536
14.075873
13.563265
13.10354
12.692792
12.327064
12.002816
11.716758
11.465181
11.245075
11.053503
10.887565
10.744596
10.621929
10.51724
10.428376
10.353442
10.290838
10.241352
10.206709
10.18964
10.185004
10.183828
10.182164
10.179988
10.177628
10.175126
10.172492
10.169747
10.16548
10.159958
10.151118
10.144748
10.127562
10.11836
10.086014
10.090051
10.028978
10.050867
9.9943012
10.014078
45364.894
17179.026
3637.7229
1107.0598
684.99711
427.33748
352.46066
260.22847
220.23995
170.71252
147.70454
121.94033
107.51371
94.311239
84.113135
75.207953
67.757984
61.349713
55.814416
50.991105
46.761684
43.033668
39.730395
36.788279
34.154869
31.787578
29.651908
27.719314
25.968738
24.379635
22.934571
21.618233
20.417787
19.321895
18.323016
17.412869
16.584711
15.832442
15.150268
14.533144
13.976606
13.475709
13.026615
12.625454
12.268336
11.95181
11.672643
11.42716
11.212463
11.025672
10.863992
10.724595
10.605044
10.503046
10.416495
10.34355
10.282692
10.234132
10.200389
10.184169
10.179993
10.178959
10.177393
10.175351
10.173134
10.170772
10.168274
10.165648
10.162139
10.157112
10.148883
10.142484
10.125797
10.116635
10.084341
10.088233
10.028254
10.050165
9.9948529
10.014637
47002.29
14533.093
3067.2781
1075.5857
673.31484
417.15145
347.33435