/*--------------------------------*- C++ -*----------------------------------*\
  =========                 |
  \\      /  F ield         | OpenFOAM: The Open Source CFD Toolbox
   \\    /   O peration     | Website:  https://openfoam.org
    \\  /    A nd           | Version:  12
     \\/     M anipulation  |
\*---------------------------------------------------------------------------*/
FoamFile
{
    format      ascii;
    class       volScalarField;
    location    "0.108";
    object      p;
}
// * * * * * * * * * * * * * * * * * * * * * * * * * * * * * * * * * * * * * //

dimensions      [1 -1 -2 0 0 0 0];

internalField   nonuniform List<scalar> 
16000
(
89506.01
89632.362
89644.272
89779.064
89805.21
89932.955
89983.464
90100.48
90174.441
90285.746
90378.017
90489.22
90595.582
90711.103
90828.52
90951.393
91078.338
91209.957
91346.128
91486.938
91632.397
91782.511
91937.261
92096.607
92260.48
92428.788
92601.404
92778.173
92958.907
93143.383
93331.344
93522.498
93716.518
93913.047
94111.693
94312.036
94513.63
94716.006
94918.678
95121.146
95322.901
95523.432
95722.234
95918.807
96112.67
96303.36
96490.44
96673.504
96852.18
97026.134
97195.068
97358.729
97516.902
97669.415
97816.134
97956.965
98091.854
98220.777
98343.745
98460.8
98572.014
98677.476
98777.304
98871.635
98960.628
99044.458
99123.32
99197.426
99267.008
99332.316
99393.614
99451.207
99505.438
99556.522
99604.545
99650.444
99700.896
99709.892
99840.229
99717.036
89131.912
89275.225
89284.513
89431.5
89459.311
89598.024
89650.974
89779.325
89857.13
89978.595
90077.266
90197.427
90312.109
90436.493
90563.164
90695.514
90832.343
90974.137
91120.819
91272.442
91429.004
91590.485
91756.837
91927.986
92103.826
92284.219
92468.994
92657.942
92850.822
93047.352
93247.215
93450.057
93655.487
93863.081
94072.385
94282.917
94494.17
94705.62
94916.731
95126.96
95335.763
95542.604
95746.959
95948.323
96146.218
96340.196
96529.845
96714.791
96894.706
97069.301
97238.335
97401.612
97558.977
97710.319
97855.568
97994.689
98127.683
98254.582
98375.446
98490.362
98599.438
98702.798
98800.589
98892.97
98980.116
99062.216
99139.472
99212.101
99280.333
99344.412
99404.601
99461.198
99514.513
99564.715
99612.194
99658.813
99700.897
99733.03
99824.911
99735.901
88789.731
88948.556
88957.704
89117.998
89145.79
89298.257
89352.822
89493.487
89576.125
89708.083
89814.512
89944.245
90068.493
90202.741
90339.858
90482.881
90630.822
90784.041
90942.475
91106.137
91274.995
91448.994
91628.046
91812.033
92000.803
92194.167
92391.897
92593.728
92799.352
93008.42
93220.546
93435.301
93652.222
93870.812
94090.543
94310.864
94531.207
94750.989
94969.626
95186.535
95401.143
95612.897
95821.268
96025.76
96225.914
96421.314
96611.59
96796.421
96975.536
97148.715
97315.787
97476.627
97631.158
97779.341
97921.179
98056.705
98185.986
98309.113
98426.198
98537.376
98642.796
98742.619
98837.018
98926.175
99010.283
99089.542
99164.161
99234.359
99300.362
99362.407
99420.751
99475.677
99527.447
99576.274
99622.831
99667.922
99707.385
99748.119
99817.033
99752.145
88482.557
88652.185
88662.382
88838.035
88865.287
89033.996
89090.775
89245.753
89334.202
89478.22
89593.915
89734.603
89870.066
90015.663
90164.768
90319.961
90480.46
90646.505
90818.033
90995.022
91177.408
91365.099
91557.965
91755.842
91958.523
92165.76
92377.258
92592.679
92811.638
93033.704
93258.403
93485.221
93713.608
93942.98
94172.73
94402.234
94630.854
94857.955
95082.907
95305.095
95523.931
95738.861
95949.367
96154.981
96355.286
96549.92
96738.577
96921.009
97097.027
97266.495
97429.33
97585.498
97735.008
97877.909
98014.282
98144.239
98267.913
98385.461
98497.05
98602.862
98703.088
98797.925
98887.569
98972.226
99052.101
99127.404
99198.348
99265.151
99328.032
99387.22
99442.956
99495.493
99545.065
99591.953
99636.822
99679.641
99717.932
99760.687
99814.718
99767.671
88213.889
88398.477
88405.39
88599.843
88626.044
88813.241
88872.244
89043.426
89139.013
89296.542
89423.325
89576.203
89724.44
89882.669
90045.036
90213.623
90387.861
90567.897
90753.673
90945.136
91142.187
91344.689
91552.462
91765.275
91982.852
92204.86
92430.92
92660.595
92893.4
93128.802
93366.223
93605.043
93844.612
94084.252
94323.271
94560.965
94796.639
95029.606
95259.206
95484.811
95705.837
95921.749
96132.073
96336.392
96534.36
96725.693
96910.178
97087.665
97258.067
97421.353
97577.545
97726.711
97868.959
98004.431
98133.295
98255.74
98371.972
98482.207
98586.669
98685.583
98779.179
98867.683
98951.316
99030.297
99104.843
99175.17
99241.49
99304.015
99362.955
99418.526
99470.949
99520.444
99567.23
99611.623
99654.116
99694.311
99731.335
99773.49
99816.735
99782.992
87988.764
88191.022
88195.813
88411.377
88436.476
88644.178
88705.496
88894.584
88998.545
89170.394
89309.558
89475.185
89637.149
89808.864
89985.456
90168.519
90357.661
90552.949
90754.298
90961.602
91174.702
91393.386
91617.389
91846.389
92080.005
92317.794
92559.258
92803.839
93050.927
93299.862
93549.943
93800.433
94050.57
94299.578
94546.68
94791.104
95032.105
95268.968
95501.025
95727.663
95948.331
96162.55
96369.918
96570.109
96762.875
96948.048
97125.532
97295.301
97457.391
97611.894
97758.95
97898.74
98031.476
98157.396
98276.755
98389.819
98496.861
98598.153
98693.967
98784.568
98870.217
98951.162
99027.641
99099.884
99168.114
99232.543
99293.38
99350.825
99405.078
99456.337
99504.796
99550.644
99594.093
99635.44
99674.958
99712.196
99747.454
99787.491
99822.202
99799.024
87807.949
88031.13
88033.121
88273.39
88297.459
88529.398
88593.954
88802.542
88914.913
89100.432
89252.894
89431.87
89608.881
89795.575
89988.063
90187.437
90393.388
90605.879
90824.756
91049.826
91280.833
91517.461
91759.327
92005.984
92256.914
92511.536
92769.202
93029.208
93290.794
93553.155
93815.453
94076.824
94336.397
94593.301
94846.689
95095.742
95339.691
95577.825
95809.506
96034.173
96251.354
96460.668
96661.826
96854.63
97038.974
97214.833
97382.258
97541.369
97692.344
97835.411
97970.835
98098.913
98219.961
98334.311
98442.297
98544.255
98640.516
98731.4
98817.217
98898.261
98974.813
99047.138
99115.481
99180.075
99241.14
99298.883
99353.5
99405.177
99454.097
99500.436
99544.358
99586.026
99625.645
99663.441
99699.478
99733.468
99766.428
99803.041
99830.763
99817.018
87665.604
87913.355
87911.029
88181.026
88201.909
88460.647
88528.397
88756.152
88880.164
89081.723
89251.104
89446.22
89641.277
89845.856
90057.032
90275.471
90500.901
90733.177
90972.057
91217.234
91468.33
91724.893
91986.389
92252.211
92521.676
92794.025
93068.438
93344.033
93619.883
93895.025
94168.478
94439.257
94706.391
94968.939
95226.012
95476.781
95720.496
95956.501
96184.236
96403.249
96613.2
96813.854
97005.086
97186.872
97359.279
97522.458
97676.631
97822.081
97959.138
98088.168
98209.563
98323.729
98431.081
98532.029
98626.979
98716.321
98800.431
98879.663
98954.351
99024.806
99091.32
99154.16
99213.572
99269.781
99322.999
99373.418
99421.217
99466.566
99509.624
99550.541
99589.445
99626.485
99661.847
99695.643
99727.787
99758.316
99788.549
99820.626
99842.415
99837.682
87559.343
87835.54
87828.838
88135.717
88150.855
88438.497
88511.368
88760.979
88901.761
89121.862
89311.842
89526.055
89742.267
89967.882
90200.801
90441.338
90689.187
90944.077
91205.634
91473.404
91746.843
92025.317
92308.106
92594.397
92883.3
93173.848
93465.013
93755.718
94044.855
94331.302
94613.944
94891.697
95163.52
95428.446
95685.593
95934.18
96173.544
96403.145
96622.575
96831.556
97029.938
97217.696
97394.915
97561.782
97718.573
97865.634
98003.373
98132.239
98252.713
98365.293
98470.485
98568.793
98660.708
98746.706
98827.242
98902.744
98973.613
99040.222
99102.914
99162.002
99217.775
99270.493
99320.39
99367.678
99412.55
99455.18
99495.724
99534.329
99571.129
99606.238
99639.757
99671.821
99702.576
99731.994
99759.937
99786.868
99813.939
99840.647
99857.509
99861.487
87491.388
87800.791
87790.923
88134.973
88149.25
88469.119
88553.501
88828.43
88989.289
89230.065
89444.393
89680.996
89921.705
90171.823
90429.842
90695.77
90969.196
91249.681
91536.671
91829.511
92127.438
92429.588
92734.988
93042.579
93351.216
93659.689
93966.739
94271.085
94571.44
94866.543
95155.179
95436.206
95708.579
95971.37
96223.786
96465.179
96695.058
96913.089
97119.095
97313.048
97495.057
97665.352
97824.274
97972.25
98109.778
98237.409
98355.731
98465.35
98566.881
98660.935
98748.109
98828.976
98904.085
98973.95
99039.052
99099.835
99156.706
99210.038
99260.164
99307.388
99351.983
99394.188
99434.218
99472.262
99508.489
99543.047
99576.067
99607.669
99637.956
99667.005
99694.894
99721.744
99747.635
99772.389
99795.945
99819.19
99842.599
99863.316
99876.415
99888.852
87469.069
87817.938
87804.067
88188.695
88206.773
88563.054
88662.741
88965.067
89151.736
89416.082
89659.017
89921.976
90190.949
90469.407
90756.204
91051.065
91353.403
91662.554
91977.713
92297.953
92622.218
92949.336
93278.028
93606.925
93934.595
94259.56
94580.328
94895.424
95203.418
95502.957
95792.795
96071.821
96339.081
96593.796
96835.373
97063.413
97277.706
97478.222
97665.103
97838.637
97999.245
98147.455
98283.878
98409.188
98524.1
98629.354
98725.694
98813.856
98894.559
98968.492
99036.31
99098.626
99156.013
99208.996
99258.056
99303.631
99346.113
99385.853
99423.164
99458.324
99491.577
99523.135
99553.182
99581.88
99609.365
99635.758
99661.16
99685.66
99709.327
99732.204
99754.35
99775.869
99796.735
99816.658
99835.784
99855.308
99874.561
99888.904
99899.358
99919.938
87501.352
87897.195
87879.42
88312.206
88335.327
88731.467
88850.618
89182.072
89400.249
89691.449
89967.355
90261.168
90562.629
90873.706
91193.367
91521.017
91855.796
92196.711
92542.609
92892.187
93244.006
93596.512
93948.058
94296.932
94641.393
94979.702
95310.164
95631.166
95941.212
96238.963
96523.267
96793.183
97047.996
97287.227
97510.632
97718.188
97910.08
98086.676
98248.502
98396.212
98530.56
98652.375
98762.527
98861.915
98951.438
99031.982
99104.407
99169.536
99228.144
99280.961
99328.657
99371.852
99411.109
99446.935
99479.787
99510.071
99538.148
99564.331
99588.898
99612.088
99634.109
99655.136
99675.318
99694.781
99713.629
99731.947
99749.809
99767.269
99784.358
99801.092
99817.519
99833.705
99849.499
99864.564
99879.366
99895.19
99909.883
99917.828
99926.664
99954.721
87589.041
88040.731
88019.617
88507.252
88538.848
88978.595
89124.973
89488.189
89745.065
90067.949
90382.012
90712.177
91051.21
91399.878
91757.018
92121.619
92492.4
92867.909
93246.519
93626.448
94005.792
94382.555
94754.687
95120.125
95476.846
95822.907
96156.502
96476.006
96780.021
97067.403
97337.293
97589.12
97822.605
98037.744
98234.79
98414.219
98576.696
98723.042
98854.193
98971.167
99075.032
99166.877
99247.789
99318.83
99381.028
99435.356
99482.732
99524.01
99559.976
99591.347
99618.777
99642.851
99664.093
99682.965
99699.878
99715.189
99729.208
99742.201
99754.396
99765.988
99777.141
99787.988
99798.638
99809.179
99819.678
99830.188
99840.748
99851.379
99862.076
99872.835
99883.697
99894.664
99905.454
99915.791
99926.516
99938.695
99948.551
99950.539
99958.892
99993.354
87737.33
88255.316
88231.502
88781.441
88827.871
89315.199
89498.107
89896.481
90199.882
90560.824
90919.157
91292.197
91674.778
92066.602
92466.098
92871.668
93281.446
93693.383
94105.263
94514.741
94919.387
95316.737
95704.347
96079.864
96441.083
96786.021
97112.968
97420.532
97707.677
97973.731
98218.388
98441.684
98643.973
98825.882
98988.267
99132.167
99258.751
99369.282
99465.069
99547.436
99617.695
99677.119
99726.928
99768.274
99802.231
99829.795
99851.877
99869.304
99882.822
99893.098
99900.727
99906.232
99910.069
99912.639
99914.284
99915.299
99915.934
99916.397
99916.862
99917.473
99918.346
99919.569
99921.208
99923.314
99925.916
99929.034
99932.676
99936.825
99941.446
99946.527
99952.096
99958.061
99964.039
99969.937
99976.946
99985.543
99990.388
99987.167
99996.289
100036.18
87952.821
88550.093
88525.49
89146.196
89214.723
89753.714
89984.472
90423.253
90782.239
91189.788
91599.933
92023.409
92456.1
92896.654
93342.837
93792.302
94242.454
94690.524
95133.611
95568.74
95992.939
96403.319
96797.169
97172.039
97525.825
97856.828
98163.801
98445.961
98702.991
98935.004
99142.506
99326.341
99487.624
99627.682
99747.991
99850.12
99935.682
100006.29
100063.53
100108.91
100143.9
100169.83
100187.96
100199.45
100205.34
100206.57
100204
100198.36
100190.33
100180.48
100169.33
100157.3
100144.78
100132.07
100119.46
100107.16
100095.36
100084.19
100073.79
100064.23
100055.59
100047.91
100041.22
100035.52
100030.81
100027.08
100024.3
100022.43
100021.41
100021.22
100021.86
100023.14
100024.62
100026.51
100030.23
100035.3
100035.14
100027.89
100039.07
100082.58
88241.81
88933.806
88911.284
89612.4
89714.429
90311.017
90604.371
91092.165
91517.324
91981.825
92452.132
92933.632
93422.414
93916.043
94411.414
94905.26
95394.083
95874.259
96342.125
96794.094
97226.783
97637.138
98022.548
98380.927
98710.778
99011.206
99281.912
99523.145
99735.645
99920.559
100079.36
100213.76
100325.63
100416.94
100489.68
100545.81
100587.24
100615.8
100633.17
100640.95
100640.6
100633.42
100620.62
100603.25
100582.27
100558.5
100532.69
100505.46
100477.37
100448.88
100420.41
100392.27
100364.77
100338.12
100312.52
100288.11
100265.01
100243.3
100223.04
100204.28
100187.03
100171.29
100157.04
100144.27
100132.93
100122.99
100114.39
100107.05
100100.9
100095.93
100092.1
100089.08
100086.5
100084.92
100085.79
100087.34
100082.4
100072.69
100087.04
100131.64
88611.888
89417.054
89402.255
90198.963
90351.565
91015.836
91388.952
91936.639
92438.624
92970.497
93508.7
94054.502
94603.491
95151.942
95695.566
96229.891
96750.332
97252.365
97731.706
98184.498
98607.464
98998.035
99354.416
99675.611
99961.397
100212.25
100429.26
100614.01
100768.46
100894.84
100995.55
101073.05
101129.8
101168.21
101190.57
101199.04
101195.62
101182.17
101160.34
101131.64
101097.42
101058.86
101017.01
100972.78
100926.97
100880.27
100833.25
100786.43
100740.21
100694.95
100650.93
100608.39
100567.51
100528.44
100491.28
100456.11
100422.99
100391.92
100362.93
100336.01
100311.12
100288.23
100267.29
100248.25
100231.03
100215.58
100201.8
100189.59
100178.91
100169.71
100161.89
100155.04
100148.93
100144.49
100142.88
100140.96
100131.64
100121.08
100139.51
100182.57
89082.995
90027.698
90032
90943.986
91164.784
91907.024
92377.288
92996.103
93584.508
94193.376
94805.935
95420.014
96029.835
96629.892
97214.309
97777.275
98313.271
98817.347
99285.351
99714.095
100101.44
100446.33
100748.7
101009.41
101230.07
101412.88
101560.48
101675.8
101761.91
101821.91
101858.85
101875.67
101875.11
101859.74
101831.9
101793.72
101747.1
101693.73
101635.12
101572.57
101507.23
101440.07
101371.96
101303.61
101235.64
101168.55
101102.79
101038.7
100976.56
100916.6
100859
100803.9
100751.37
100701.5
100654.3
100609.79
100567.96
100528.78
100492.21
100458.2
100426.69
100397.6
100370.85
100346.36
100324.04
100303.79
100285.51
100269.09
100254.49
100241.64
100230.34
100220.18
100211.15
100204.43
100200.64
100195.43
100182.38
100172.23
100195.21
100234.65
89687.561
90809.45
90843.095
91888.984
92196.836
93025.068
93611.345
94314.916
94999.333
95693.707
96384.178
97065.035
97728.306
98366.426
98972.135
99538.982
100061.64
100536.13
100959.93
101331.99
101652.59
101923.16
102146.1
102324.52
102461.97
102562.32
102629.52
102667.49
102680.01
102670.62
102642.65
102599.1
102542.7
102475.87
102400.77
102319.29
102233.06
102143.52
102051.89
101959.21
101866.37
101774.13
101683.1
101593.81
101506.67
101422.03
101340.17
101261.29
101185.54
101113.05
101043.88
100978.08
100915.65
100856.59
100800.86
100748.41
100699.19
100653.11
100610.11
100570.08
100532.93
100498.57
100466.88
100437.76
100411.1
100386.79
100364.69
100344.71
100326.8
100310.87
100296.63
100283.71
100272.38
100263.9
100258.15
100249.97
100234.35
100225.49
100252.45
100287.91
90454.581
91789.929
91867.628
93067.198
93495.932
94422.171
95146.09
95951.056
96738.946
97521.004
98282.813
99015.084
99707.9
100352.73
100942.65
101472.67
101939.86
102343.31
102683.91
102964.03
103187.23
103357.89
103480.86
103561.25
103604.17
103614.55
103597.07
103556.04
103495.41
103418.69
103329.02
103229.16
103121.5
103008.12
102890.79
102771.03
102650.15
102529.21
102409.13
102290.66
102174.42
102060.92
101950.56
101843.65
101740.44
101641.12
101545.81
101454.6
101367.52
101284.6
101205.8
101131.11
101060.44
100993.74
100930.92
100871.87
100816.5
100764.68
100716.32
100671.28
100629.44
100590.69
100554.88
100521.91
100491.64
100463.94
100438.69
100415.78
100395.17
100376.69
100360.03
100344.91
100331.88
100322.09
100314.55
100303.78
100286.95
100280.37
100310.17
100341.5
91414.224
93016.301
93174.779
94545.277
95140.744
96181.035
97059.668
97976.46
98862.128
99714.707
100518.23
101261.67
101935.76
102534.24
103053.78
103493.86
103856.42
104145.32
104365.83
104524.17
104626.98
104681.03
104692.94
104668.92
104614.75
104535.64
104436.24
104320.64
104192.4
104054.61
103909.89
103760.48
103608.29
103454.89
103301.6
103149.54
102999.58
102852.48
102708.82
102569.06
102433.58
102302.65
102176.47
102055.19
101938.89
101827.62
101721.37
101620.13
101523.84
101432.44
101345.82
101263.89
101186.53
101113.61
101045
100980.57
100920.17
100863.67
100810.93
100761.8
100716.13
100673.78
100634.62
100598.51
100565.3
100534.86
100507.05
100481.8
100459.01
100438.49
100419.9
100403.15
100388.96
100378.17
100369.03
100356.15
100339.14
100335.74
100367.25
100393.39
92650.043
94589.138
94873.37
96435.442
97245.213
98408.221
99436.601
100449.84
101396.27
102267.2
103048.84
103733.43
104317.29
104800.77
105187.56
105483.82
105697.46
105837.3
105912.5
105932.07
105904.55
105837.8
105738.89
105614.09
105468.83
105307.8
105135.02
104953.85
104767.14
104577.25
104386.15
104195.45
104006.46
103820.26
103637.71
103459.48
103286.11
103118.01
102955.49
102798.75
102647.95
102503.16
102364.43
102231.74
102105.05
101984.3
101869.37
101760.17
101656.57
101558.42
101465.57
101377.87
101295.15
101217.26
101144.03
101075.29
101010.86
100950.61
100894.35
100841.92
100793.18
100747.95
100706.1
100667.47
100631.92
100599.29
100569.47
100542.37
100517.89
100495.76
100475.7
100457.8
100442.84
100431.26
100420.68
100406.4
100390.17
100389.89
100421.38
100441.52
94294.24
96649.671
97114.798
98866.674
99925.949
101196.91
102322.54
103365.58
104288.23
105084.19
105749.19
106285.37
106699.27
107000.78
107201.71
107314.75
107352.56
107327.19
107249.71
107129.99
106976.68
106797.21
106597.88
106383.99
106159.94
105929.39
105695.3
105460.11
105225.8
104993.93
104765.76
104542.3
104324.31
104112.39
103906.97
103708.38
103516.84
103332.47
103155.35
102985.49
102822.86
102667.37
102518.94
102377.43
102242.7
102114.59
101992.93
101877.54
101768.23
101664.81
101567.08
101474.86
101387.94
101306.14
101229.25
101157.1
101089.5
101026.26
100967.21
100912.18
100861
100813.49
100769.51
100728.9
100691.5
100657.16
100625.78
100597.27
100571.45
100548.08
100526.94
100508.27
100492.81
100480.49
100468.68
100453.68
100438.95
100440.91
100470.02
100484.77
96537.769
99359.444
100067.91
101960.45
103231.47
104549.8
105655.83
106600.87
107371.84
107974.46
108419.75
108723.49
108903.62
108978.56
108966.02
108882.19
108741.42
108556.11
108336.71
108091.96
107829.05
107553.82
107271.02
106984.45
106697.13
106411.47
106129.35
105852.25
105581.28
105317.3
105060.95
104812.69
104572.82
104341.55
104118.97
103905.11
103699.95
103503.4
103315.35
103135.65
102964.12
102800.59
102644.84
102496.67
102355.85
102222.16
102095.36
101975.24
101861.55
101754.07
101652.58
101556.86
101466.67
101381.82
101302.08
101227.26
101157.16
101091.58
101030.34
100973.26
100920.16
100870.86
100825.21
100783.04
100744.2
100708.54
100675.96
100646.35
100619.5
100595.18
100573.26
100554.08
100538.2
100525.15
100512.28
100497.06
100484.02
100487.38
100513.01
100523.01
99634.293
102833.33
103849.34
105808.66
107121
108292.16
109211.96
109905.08
110389.25
110691.15
110838.75
110859.6
110778.81
110618.42
110397.06
110130.17
109830.31
109507.55
109169.86
108823.55
108473.51
108123.55
107776.6
107434.87
107100.06
106773.4
106455.81
106147.93
105850.19
105562.85
105286.05
105019.83
104764.14
104518.87
104283.89
104058.98
103843.96
103638.56
103442.56
103255.67
103077.64
102908.19
102747.05
102593.93
102448.58
102310.7
102180.05
102056.34
101939.33
101828.76
101724.38
101625.95
101533.24
101446.01
101364.05
101287.13
101215.07
101147.65
101084.68
101025.97
100971.35
100920.63
100873.66
100830.26
100790.29
100753.6
100720.08
100689.59
100661.93
100636.87
100614.4
100594.84
100578.54
100564.73
100551.03
100536.03
100524.69
100528.6
100549.92
100555.61
103841.2
107254.88
108474.36
110170.38
111299.85
112133.58
112670.49
112965.33
113062.78
113005.99
112831.48
112569.55
112244.46
111875.3
111476.85
111060.39
110634.5
110205.6
109778.49
109356.72
108942.88
108538.83
108145.87
107764.91
107396.5
107040.99
106698.52
106369.11
106052.65
105748.99
105457.89
105179.09
104912.3
104657.19
104413.44
104180.71
103958.65
103746.91
103545.17
103353.07
103170.28
102996.47
102831.31
102674.5
102525.72
102384.67
102251.05
102124.57
102004.97
101891.96
101785.29
101684.71
101589.96
101500.82
101417.05
101338.43
101264.75
101195.81
101131.41
101071.36
101015.47
100963.58
100915.5
100871.08
100830.16
100792.61
100758.3
100727.07
100698.71
100673.05
100650.12
100630.19
100613.39
100598.8
100584.53
100570.1
100560.22
100563.58
100579.67
100581.76
109088.03
112464.58
113587.67
114718.95
115333.71
115620.24
115643.12
115475.86
115172.62
114775.87
114317.18
113819.83
113300.7
112771.92
112242.16
111717.52
111202.25
110699.26
110210.49
109737.19
109280.08
108839.53
108415.65
108008.35
107617.4
107242.5
106883.27
106539.29
106210.13
105895.3
105594.37
105306.84
105032.27
104770.2
104520.18
104281.77
104054.56
103838.12
103632.05
103435.97
103249.49
103072.26
102903.92
102744.13
102592.55
102448.86
102312.76
102183.94
102062.11
101947
101838.34
101735.86
101639.31
101548.45
101463.05
101382.89
101307.75
101237.43
101171.72
101110.44
101053.39
101000.41
100951.32
100905.95
100864.16
100825.8
100790.74
100758.8
100729.79
100703.58
100680.2
100659.83
100642.4
100627.08
100612.55
100598.92
100589.97
100591.42
100601.74
100602.46
115325.54
117844.52
118458.46
118742.13
118649.78
118322.49
117839.76
117262.24
116630.59
115972.36
115305.83
114643.04
113991.79
113357.02
112741.77
112147.77
111575.88
111026.4
110499.2
109993.94
109510.08
109047.01
108604.04
108180.45
107775.54
107388.57
107018.85
106665.7
106328.46
106006.48
105699.16
105405.92
105126.18
104859.42
104605.11
104362.77
104131.92
103912.12
103702.91
103503.89
103314.66
103134.83
102964.03
102801.9
102648.11
102502.31
102364.19
102233.46
102109.79
101992.93
101882.58
101778.5
101680.41
101588.09
101501.29
101419.79
101343.38
101271.84
101204.99
101142.62
101084.55
101030.61
100980.61
100934.4
100891.83
100852.75
100817
100784.41
100754.8
100728.07
100704.25
100683.38
100665.29
100649.32
100634.7
100621.83
100613.25
100612.25
100617.47
100617.79
121967.82
122411.15
122194.8
121647.1
120916.89
120094.19
119235.15
118371.54
117521.94
116696.56
115900.87
115137.39
114406.95
113709.37
113043.88
112409.35
111804.54
111228.08
110678.65
110154.91
109655.61
109179.53
108725.53
108292.54
107879.53
107485.57
107109.76
106751.25
106409.28
106083.1
105772.01
105475.36
105192.53
104922.94
104666.03
104421.28
104188.18
103966.26
103755.08
103554.18
103363.17
103181.65
103009.23
102845.55
102690.26
102543.03
102403.53
102271.45
102146.5
102028.39
101916.84
101811.58
101712.37
101618.95
101531.1
101448.59
101371.19
101298.72
101230.96
101167.72
101108.82
101054.08
101003.33
100956.41
100913.16
100873.43
100837.06
100803.87
100773.7
100746.47
100722.16
100700.73
100681.96
100665.4
100650.72
100638.26
100629.49
100626.3
100627.72
100628.1
125847.82
125223.01
124308.37
123256.91
122173.15
121101.15
120063.61
119069.83
118123.29
117224.22
116371.37
115562.68
114795.81
114068.33
113377.86
112722.13
112099.01
111506.53
110942.86
110406.31
109895.34
109408.53
108944.56
108502.23
108080.43
107678.11
107294.34
106928.22
106578.93
106245.7
105927.81
105624.58
105335.37
105059.6
104796.7
104546.13
104307.38
104079.98
103863.48
103657.42
103461.4
103275.01
103097.89
102929.65
102769.95
102618.46
102474.84
102338.79
102210
102088.2
101973.1
101864.43
101761.95
101665.39
101574.54
101489.16
101409.03
101333.95
101263.72
101198.15
101137.03
101080.21
101027.51
100978.75
100933.8
100892.49
100854.64
100820.09
100788.68
100760.31
100734.94
100712.47
100692.68
100675.31
100660.16
100647.53
100638.4
100633.74
100632.99
100633.63
103868.31
103841.42
103890.18
103938.9
103975.03
103985.1
103967.81
103938.32
103902.79
103857.93
103799.38
103727.64
103646.51
103560.88
103471.54
103378.56
103282.26
103183.14
103081.61
102978.06
102872.87
102766.38
102658.92
102550.77
102442.22
102333.52
102224.91
102116.61
102008.81
101901.72
101795.52
101690.37
101586.44
101483.9
101382.88
101283.54
101186.04
101090.49
100997.06
100905.87
100817.07
100730.79
100647.16
100566.33
100488.41
100413.53
100341.84
100273.43
100208.44
100146.96
100089.1
100034.95
99984.579
99938.052
99895.414
99856.694
99821.897
99791.013
99764.008
99740.826
99721.388
99705.591
99693.314
99684.405
99678.736
99676.041
99676.381
99678.952
99685
99691.144
99703.977
99709.59
99733.819
99729.612
99778.092
99743.926
99836.884
99752.664
99904.973
99757.833
103225.67
103219.43
103233.44
103249.75
103248.43
103240.93
103229.87
103212.1
103182.62
103147.39
103105.21
103057.88
103004.65
102946.67
102883.96
102817.21
102746.64
102672.62
102595.44
102515.42
102432.87
102348.07
102261.32
102172.88
102083.04
101992.05
101900.17
101807.65
101714.74
101621.67
101528.66
101435.93
101343.71
101252.2
101161.61
101072.12
100983.94
100897.25
100812.24
100729.09
100647.97
100569.05
100492.5
100418.5
100347.18
100278.71
100213.23
100150.89
100091.81
100036.12
99983.929
99935.325
99890.394
99849.2
99811.789
99778.186
99748.393
99722.393
99700.146
99681.586
99666.624
99655.149
99647.03
99642.109
99640.242
99641.175
99644.918
99650.768
99659.75
99668.911
99684.012
99692.676
99718.145
99717.228
99765.618
99735.562
99828.197
99745.397
99902.653
99748.78
102806.23
102790.47
102761.53
102731.12
102701.47
102673.79
102641.49
102609.9
102574.64
102538.89
102499.13
102458.03
102413.33
102366.54
102316.68
102264.3
102209.2
102151.55
102091.39
102028.83
101963.98
101896.99
101828
101757.15
101684.64
101610.62
101535.3
101458.86
101381.5
101303.44
101224.87
101146.02
101067.09
100988.3
100909.87
100832.01
100754.94
100678.87
100604.01
100530.57
100458.75
100388.75
100320.77
100255
100191.62
100130.82
100072.75
100017.58
99965.458
99916.523
99870.895
99828.68
99789.968
99754.827
99723.305
99695.429
99671.199
99650.593
99633.564
99620.043
99609.933
99603.115
99599.451
99598.778
99600.942
99605.697
99613.018
99622.273
99634.33
99646.548
99664.085
99675.701
99702.729
99704.758
99753.538
99726.958
99819.748
99738.284
99899.845
99740.361
102207.17
102184.32
102155.49
102123.7
102092.15
102064.13
102031.69
102002.2
101968.54
101936.88
101901.69
101867.28
101830.05
101792.48
101752.76
101711.74
101668.92
101624.44
101578.18
101530.14
101480.31
101428.71
101375.35
101320.31
101263.65
101205.45
101145.83
101084.91
101022.83
100959.74
100895.81
100831.21
100766.13
100700.77
100635.33
100570.02
100505.05
100440.64
100377.01
100314.38
100252.96
100192.98
100134.65
100078.17
100023.75
99971.599
99921.89
99874.806
99830.51
99789.153
99750.868
99715.773
99683.962
99655.512
99630.473
99608.871
99590.707
99575.955
99564.565
99556.463
99551.545
99549.688
99550.748
99554.558
99560.957
99569.707
99580.756
99593.531
99608.776
99624.099
99644.2
99658.688
99687.484
99692.269
99741.775
99718.22
99811.522
99731.346
99896.671
99732.53
101475.66
101459.62
101444
101425.5
101405.05
101388.9
101366.83
101349.16
101326.03
101306.23
101281.91
101259.45
101233.72
101208.51
101181.16
101153
101123.21
101092.11
101059.49
101025.33
100989.62
100952.33
100913.45
100873.01
100831.04
100787.57
100742.66
100696.41
100648.89
100600.22
100550.52
100499.93
100448.61
100396.73
100344.45
100291.97
100239.5
100187.23
100135.39
100084.18
100033.83
99984.569
99936.608
99890.17
99845.47
99802.717
99762.111
99723.839
99688.076
99654.983
99624.701
99597.354
99573.043
99551.847
99533.817
99518.982
99507.339
99498.86
99493.491
99491.153
99491.739
99495.119
99501.147
99509.654
99520.472
99533.372
99548.28
99564.679
99583.201
99601.683
99624.422
99641.734
99672.44
99679.909
99730.303
99709.536
99803.494
99724.621
99893.243
99725.243
100755.46
100749.28
100745
100739.77
100730.48
100726.41
100714.97
100709.47
100697.04
100689.23
100675.72
100665.05
100650.41
100636.93
100621.12
100604.82
100586.9
100567.85
100547.45
100525.71
100502.61
100478.12
100452.23
100424.93
100396.22
100366.14
100334.69
100301.94
100267.94
100232.75
100196.48
100159.23
100121.12
100082.28
100042.87
100003.05
99963.009
99922.924
99883
99843.441
99804.461
99766.278
99729.109
99693.175
99658.69
99625.867
99594.905
99565.998
99539.323
99515.043
99493.304
99474.231
99457.926
99444.468
99433.907
99426.268
99421.547
99419.712
99420.704
99424.438
99430.803
99439.667
99450.878
99464.268
99479.664
99496.848
99515.726
99535.834
99557.704
99579.392
99604.81
99624.928
99657.628
99667.749
99719.096
99700.998
99795.659
99718.145
99889.657
99718.462
100103.92
100104.06
100105.08
100108.22
100106.06
100110.65
100106.45
100109.94
100105.07
100106.43
100101.34
100100.6
100095.09
100090.95
100084.19
100077.49
100069.35
100060.43
100050.41
100039.32
100027.11
100013.73
99999.174
99983.407
99966.419
99948.21
99928.787
99908.172
99886.4
99863.518
99839.59
99814.695
99788.928
99762.398
99735.232
99707.569
99679.565
99651.386
99623.211
99595.229
99567.636
99540.635
99514.434
99489.241
99465.263
99442.702
99421.755
99402.608
99385.434
99370.392
99357.623
99347.25
99339.369
99334.053
99331.349
99331.275
99333.821
99338.95
99346.596
99356.668
99369.052
99383.611
99400.191
99418.621
99438.73
99460.307
99483.245
99507.127
99532.399
99557.324
99585.44
99608.382
99643.092
99655.832
99708.157
99692.673
99788.023
99711.951
99885.976
99712.163
99518.561
99523.694
99527.737
99535.981
99537.442
99547.705
99547.625