/*--------------------------------*- C++ -*----------------------------------*\
  =========                 |
  \\      /  F ield         | OpenFOAM: The Open Source CFD Toolbox
   \\    /   O peration     | Website:  https://openfoam.org
    \\  /    A nd           | Version:  12
     \\/     M anipulation  |
\*---------------------------------------------------------------------------*/
FoamFile
{
    format      ascii;
    class       volScalarField;
    location    "0.108";
    object      T;
}
// * * * * * * * * * * * * * * * * * * * * * * * * * * * * * * * * * * * * * //

dimensions      [0 0 0 1 0 0 0];

internalField   nonuniform List<scalar> 
16000
(
294.39332
285.91489
289.19171
287.40797
288.51619
288.00863
288.43042
288.31963
288.51645
288.55042
288.67137
288.75624
288.86165
288.96447
289.07325
289.18535
289.30157
289.42179
289.54606
289.67441
289.80683
289.94334
290.08387
290.2284
290.37684
290.5291
290.68505
290.84453
291.00736
291.17334
291.34221
291.51372
291.68755
291.86338
292.04086
292.21961
292.39924
292.57933
292.75946
292.9392
293.11811
293.29577
293.47175
293.64563
293.81703
293.98558
294.15094
294.3128
294.47089
294.62497
294.77486
294.92039
295.06146
295.19801
295.33001
295.45749
295.58051
295.69919
295.81368
295.92419
296.03102
296.13444
296.2348
296.33244
296.42777
296.52117
296.61307
296.70388
296.79407
296.88405
296.97418
297.06463
297.1553
297.24578
297.33578
297.42573
297.52553
297.59844
297.78123
297.80268
294.08438
285.50772
288.92336
287.04961
288.22529
287.68049
288.13779
288.01744
288.2288
288.26823
288.39619
288.48998
288.60257
288.71424
288.83145
288.95258
289.07799
289.20771
289.34174
289.48009
289.62275
289.76969
289.92085
290.07614
290.23544
290.39864
290.56555
290.73597
290.90968
291.0864
291.26584
291.44769
291.63157
291.81711
292.00389
292.1915
292.37949
292.56739
292.75476
292.94112
293.12601
293.30899
293.48963
293.66751
293.84225
294.01351
294.18097
294.34435
294.50342
294.65799
294.80793
294.95312
295.09351
295.22909
295.3599
295.48599
295.6075
295.72457
295.8374
295.94624
296.05139
296.15318
296.25196
296.34809
296.44198
296.53401
296.62459
296.71413
296.80306
296.89179
296.98069
297.06995
297.15953
297.24903
297.33835
297.4291
297.52203
297.61387
297.76135
297.82869
293.79016
285.13075
288.67183
286.73483
287.95038
287.39563
287.8667
287.75418
287.97044
288.02175
288.15524
288.25963
288.38037
288.50183
288.62866
288.75987
288.89564
289.036
289.18094
289.33044
289.48447
289.64295
289.80578
289.97286
290.14401
290.31905
290.49776
290.67988
290.86513
291.05317
291.24364
291.43616
291.63031
291.82562
292.02164
292.21789
292.41385
292.60903
292.80293
292.99505
293.18491
293.37207
293.55607
293.73654
293.91311
294.08546
294.25332
294.41646
294.57471
294.72794
294.87606
295.01905
295.15692
295.28971
295.41752
295.54048
295.65877
295.77258
295.88218
295.98783
296.08987
296.18867
296.28458
296.37799
296.4693
296.55889
296.64716
296.73449
296.82127
296.90792
296.99476
297.08204
297.1697
297.25747
297.34542
297.43476
297.52555
297.62506
297.75627
297.84248
293.5198
284.78395
288.43723
286.45749
287.70947
287.14458
287.62979
287.52664
287.74837
287.81306
287.95311
288.06933
288.19953
288.33199
288.46972
288.61224
288.75958
288.91178
289.06877
289.23053
289.39697
289.56799
289.74344
289.92316
290.10694
290.29454
290.48566
290.67999
290.87716
291.07677
291.27839
291.48154
291.68574
291.89045
292.09516
292.2993
292.50233
292.70371
292.90289
293.09938
293.29268
293.48234
293.66794
293.84913
294.02558
294.19703
294.36327
294.52414
294.67954
294.82941
294.97376
295.11261
295.24607
295.37426
295.49734
295.6155
295.72898
295.83804
295.94296
296.04408
296.14174
296.23634
296.32826
296.41789
296.50562
296.59185
296.67693
296.76124
296.84514
296.929
297.01315
297.09783
297.18303
297.26859
297.35463
297.44191
297.53168
297.63301
297.75369
297.85401
293.27393
284.47422
288.22587
286.22648
287.5141
286.93575
287.43131
287.34218
287.5679
287.64863
287.79603
287.9254
288.06644
288.21104
288.36092
288.51591
288.67597
288.84112
289.01128
289.18637
289.36628
289.55085
289.7399
289.93319
290.13043
290.33132
290.53549
290.74252
290.95196
291.16333
291.3761
291.5897
291.80357
292.0171
292.22969
292.44073
292.64963
292.8558
293.05871
293.25782
293.45267
293.64283
293.82793
294.00766
294.18178
294.35008
294.51244
294.6688
294.81913
294.96349
295.10195
295.23464
295.36175
295.48347
295.60004
295.71173
295.81881
295.92161
296.02045
296.1157
296.20774
296.29698
296.38381
296.46862
296.55182
296.63377
296.71483
296.79533
296.8756
296.95598
297.03678
297.11823
297.20039
297.28317
297.36666
297.45145
297.54003
297.64089
297.75485
297.8628
293.05629
284.20811
288.04939
286.0345
287.34402
286.77554
287.28189
287.2071
287.43624
287.53427
287.68989
287.83321
287.98625
288.14391
288.30701
288.47557
288.6495
288.82878
289.01329
289.20293
289.39748
289.59676
289.80048
290.00833
290.21993
290.43486
290.65265
290.87279
291.09471
291.31782
291.54148
291.76505
291.98784
292.20919
292.42843
292.6449
292.85797
293.06706
293.27161
293.47113
293.66518
293.85341
294.03551
294.21126
294.38049
294.54312
294.69912
294.84855
294.99148
295.12806
295.25849
295.38299
295.50182
295.61526
295.72362
295.82724
295.92644
296.0216
296.11307
296.20125
296.28655
296.36937
296.45013
296.52922
296.60703
296.6839
296.76017
296.83614
296.91212
296.98839
297.06524
297.14291
297.22149
297.30097
297.38138
297.46332
297.55014
297.64927
297.75781
297.87086
292.86997
283.98745
287.90576
285.87947
287.21131
286.66582
287.17025
287.12443
287.35292
287.47184
287.63668
287.79472
287.96117
288.13319
288.31102
288.4947
288.6841
288.87915
289.07964
289.28539
289.49611
289.71151
289.93119
290.15472
290.38161
290.61131
290.84323
291.07671
291.31107
291.54558
291.77951
292.01211
292.24261
292.47027
292.69437
292.91423
293.12922
293.33877
293.54235
293.73954
293.92999
294.11342
294.28963
294.45852
294.62005
294.77427
294.92127
295.06122
295.19434
295.32089
295.44115
295.55546
295.66417
295.76762
295.86619
295.96028
296.05026
296.13653
296.21948
296.29954
296.37711
296.45262
296.52646
296.59903
296.67068
296.74177
296.8126
296.88343
296.95452
297.02613
297.09849
297.17185
297.24636
297.32206
297.39891
297.47765
297.56209
297.65843
297.7623
297.8785
292.71297
283.81036
287.7933
285.7603
287.10836
286.58986
287.09746
287.06096
287.31978
287.45978
287.63643
287.81105
287.99336
288.18199
288.37685
288.57794
288.78504
288.99799
289.21651
289.44029
289.66894
289.90203
290.13902
290.37934
290.62235
290.86735
291.11359
291.36027
291.60657
291.85164
292.09462
292.33468
292.57097
292.80273
293.0292
293.24972
293.46368
293.67057
293.86997
294.06155
294.24507
294.42039
294.58748
294.74636
294.89717
295.04008
295.17535
295.30328
295.42422
295.53853
295.64661
295.74889
295.84577
295.9377
296.0251
296.10838
296.18799
296.26433
296.33782
296.40888
296.47793
296.54537
296.6116
296.677
296.74191
296.80664
296.87147
296.93664
297.00236
297.06882
297.13625
297.20486
297.27487
297.34634
297.41921
297.49445
297.57596
297.66851
297.76805
297.88631
292.58021
283.67471
287.71509
285.67721
287.05599
286.58657
287.08658
287.10852
287.34055
287.50199
287.69402
287.88781
288.08899
288.29701
288.51164
288.73276
288.96008
289.19333
289.43208
289.67591
289.92426
290.17653
290.43202
290.68999
290.94959
291.20997
291.47019
291.7293
291.98634
292.24033
292.49033
292.73541
292.97473
293.20748
293.43297
293.65057
293.85978
294.06021
294.25158
294.4337
294.60653
294.7701
294.92456
295.07012
295.20708
295.33579
295.45666
295.57012
295.67664
295.7767
295.8708
295.95942
296.04305
296.12217
296.19725
296.26873
296.33705
296.40266
296.46596
296.52737
296.58729
296.64612
296.70424
296.76199
296.81969
296.87763
296.93606
296.99517
297.05513
297.11608
297.1782
297.24171
297.30685
297.3737
297.44227
297.51375
297.5918
297.67971
297.77504
297.89444
292.47056
283.5824
287.67638
285.64507
287.05814
286.58845
287.12018
287.17452
287.41949
287.60734
287.81835
288.03397
288.25709
288.48745
288.72472
288.96865
289.21883
289.4748
289.736
290.00179
290.27142
290.54408
290.81886
291.09479
291.37084
291.64593
291.91895
292.18879
292.45436
292.71458
292.96845
293.21505
293.45351
293.68313
293.90329
294.11352
294.31347
294.50293
294.68184
294.85023
295.00828
295.15625
295.29447
295.42338
295.54346
295.65522
295.75922
295.85602
295.94619
296.03031
296.10894
296.18262
296.25188
296.31723
296.37915
296.43811
296.49455
296.54888
296.60152
296.65287
296.70329
296.75317
296.80285
296.85264
296.90285
296.95373
297.00548
297.05826
297.11219
297.16738
297.22393
297.28208
297.34207
297.40398
297.46799
297.53548
297.60953
297.69206
297.78331
297.903
292.38769
283.5417
287.68316
285.73054
287.11959
286.7324
287.21607
287.31299
287.56869
287.78459
288.01868
288.25927
288.50769
288.76363
289.02665
289.29634
289.57206
289.85317
290.13886
290.42826
290.72035
291.01406
291.30822
291.60161
291.89295
292.18098
292.46441
292.74198
293.01253
293.27493
293.52819
293.77145
294.00397
294.22518
294.43466
294.63217
294.81762
294.99107
295.15271
295.30286
295.44195
295.57047
295.68901
295.79818
295.89864
295.99105
296.0761
296.15446
296.22676
296.29366
296.35575
296.41361
296.46778
296.51878
296.56708
296.61314
296.65737
296.70019
296.74197
296.78308
296.82387
296.86466
296.90578
296.94751
296.99011
297.03379
297.07873
297.12506
297.17283
297.2221
297.27295
297.32557
297.3802
297.43695
297.49623
297.55956
297.62906
297.70563
297.79287
297.91195
292.33845
283.56585
287.74441
285.8692
287.22767
286.89516
287.3817
287.52473
287.79714
288.04378
288.30535
288.5746
288.85202
289.13709
289.42921
289.72769
290.03165
290.34014
290.65204
290.96616
291.28114
291.59562
291.90811
292.21714
292.5212
292.81882
293.1086
293.38922
293.65949
293.91837
294.16496
294.3986
294.61878
294.8252
295.01777
295.19656
295.36182
295.51393
295.65343
295.78091
295.89707
296.00267
296.09847
296.18529
296.26392
296.33514
296.39973
296.45841
296.51187
296.56079
296.60577
296.64739
296.68618
296.72263
296.75721
296.79032
296.82237
296.85372
296.8847
296.91566
296.94689
296.9787
297.01133
297.04506
297.08009
297.11661
297.15476
297.19462
297.23622
297.27955
297.32466
297.3717
297.42086
297.47233
297.5268
297.58582
297.65034
297.72057
297.80377
297.92115
292.32775
283.66099
287.87017
286.06065
287.40205
287.14712
287.62769
287.81994
288.11521
288.39593
288.68987
288.99212
289.30276
289.62091
289.94568
290.27603
290.61068
290.94831
291.28737
291.62627
291.96331
292.29674
292.62479
292.94572
293.25786
293.55962
293.84957
294.12644
294.38919
294.63698
294.86923
295.08558
295.28593
295.47038
295.63927
295.79306
295.93242
296.05808
296.1709
296.27179
296.36168
296.44153
296.51228
296.57487
296.63019
296.67908
296.72236
296.76078
296.79504
296.82578
296.85359
296.87903
296.90259
296.92471
296.94582
296.96629
296.98646
297.00666
297.02718
297.04829
297.07027
297.09335
297.11776
297.14371
297.17137
297.2009
297.23241
297.26594
297.30146
297.33895
297.3784
297.41991
297.4636
297.50976
297.55943
297.61401
297.67322
297.73704
297.81621
297.9306
292.35741
283.83467
288.06545
286.33867
287.65253
287.4816
287.96413
288.20902
288.53483
288.8543
289.18618
289.52659
289.87515
290.23056
290.59146
290.9563
291.32332
291.69068
292.05636
292.41832
292.77445
293.12267
293.46095
293.7874
294.10027
294.39804
294.67942
294.94342
295.18934
295.41678
295.62564
295.81609
295.98854
296.14362
296.28213
296.40502
296.51333
296.60817
296.69066
296.76195
296.82318
296.87543
296.91975
296.95714
296.98852
297.01476
297.03664
297.05489
297.07019
297.08311
297.09422
297.104
297.11288
297.12126
297.1295
297.13791
297.14679
297.1564
297.16699
297.17877
297.19197
297.20678
297.22338
297.24192
297.26256
297.2854
297.31053
297.33795
297.36762
297.39946
297.43344
297.46957
297.50789
297.54886
297.59379
297.64379
297.69745
297.75511
297.83043
297.94025
292.43237
284.1001
288.33356
286.70505
287.99078
287.91369
288.40503
288.70679
289.07182
289.43609
289.81222
290.1964
290.58769
290.98416
291.38382
291.78448
292.18379
292.57931
292.96851
293.34889
293.71798
294.07346
294.41321
294.73537
295.03837
295.32102
295.5825
295.82235
296.04051
296.23723
296.41307
296.56886
296.70562
296.82453
296.92688
297.01403
297.08736
297.14824
297.19803
297.238
297.26939
297.29335
297.31094
297.32315
297.33087
297.33492
297.33603
297.33487
297.33202
297.32802
297.32332
297.31835
297.31347
297.309
297.30523
297.30243
297.30082
297.30061
297.30198
297.30511
297.31017
297.31729
297.3266
297.33824
297.35229
297.36886
297.38797
297.40962
297.43374
297.46023
297.489
297.51997
297.55314
297.58912
297.62944
297.67471
297.72269
297.77463
297.84654
297.9498
292.55693
284.47576
288.67057
287.17408
288.43094
288.45796
288.96869
289.33324
289.74725
290.16351
290.59039
291.02368
291.46159
291.90145
292.34046
292.77571
293.20414
293.62269
294.02834
294.41824
294.78975
295.14058
295.46883
295.77306
296.0523
296.30607
296.53435
296.73755
296.91645
297.07213
297.20591
297.3193
297.4139
297.49139
297.55345
297.60173
297.63785
297.66332
297.67957
297.68794
297.68964
297.6858
297.67741
297.6654
297.65057
297.63364
297.61526
297.59598
297.5763
297.55665
297.53742
297.51893
297.50146
297.48528
297.47059
297.45759
297.44646
297.43732
297.43034
297.42561
297.42325
297.42337
297.42603
297.43134
297.43935
297.45011
297.46365
297.47993
297.49887
297.52036
297.54426
297.57039
297.59871
297.63003
297.66587
297.70625
297.74853
297.79541
297.86411
297.95916
292.73576
284.99145
289.08428
287.76379
288.99434
289.13798
289.68105
290.11549
290.58821
291.06354
291.54669
292.03278
292.51894
293.00154
293.47685
293.94112
294.39055
294.8216
295.23097
295.6158
295.97376
296.30311
296.60273
296.87212
297.1114
297.32118
297.50257
297.657
297.78621
297.89211
297.97674
298.04215
298.09041
298.12351
298.14337
298.15177
298.15038
298.14073
298.12422
298.10211
298.07551
298.04543
298.01277
297.9783
297.94271
297.9066
297.87047
297.83479
297.79994
297.76624
297.73399
297.70342
297.67474
297.64813
297.62373
297.60167
297.58207
297.56501
297.55059
297.53886
297.5299
297.52375
297.52046
297.52007
297.52261
297.52811
297.53656
297.54792
297.5621
297.579
297.59841
297.62006
297.64395
297.671
297.7025
297.73782
297.77449
297.81704
297.8825
297.96816
292.98047
285.69411
289.61769
288.5054
289.71191
289.985
290.57466
291.08591
291.62577
292.16585
292.7085
293.24792
293.7798
294.29933
294.80176
295.28255
295.73752
296.16308
296.55633
296.91516
297.2383
297.5253
297.77647
297.99278
298.17578
298.32742
298.44998
298.54593
298.61782
298.66823
298.69968
298.71456
298.71514
298.70354
298.68168
298.65132
298.61402
298.5712
298.5241
298.47382
298.42132
298.36743
298.31289
298.25831
298.20423
298.15111
298.09934
298.04924
298.00108
297.9551
297.91149
297.8704
297.83196
297.79627
297.76343
297.73349
297.70652
297.68256
297.66165
297.64381
297.62907
297.61743
297.60889
297.60347
297.60117
297.60197
297.60584
297.61275
297.62262
297.63534
297.65065
297.66824
297.68817
297.71136
297.73871
297.7689
297.80009
297.83898
297.90117
297.9764
293.31792
286.56729
290.29788
289.43611
290.62139
291.03382
291.68582
292.28055
292.89398
293.50163
294.10263
294.68979
295.25718
295.79888
296.3095
296.78445
297.22009
297.61388
297.9644
298.27133
298.53534
298.75792
298.94126
299.08804
299.20128
299.28417
299.33994
299.37181
299.38284
299.37594
299.35379
299.31884
299.27332
299.21922
299.15831
299.09214
299.02207
298.9493
298.87483
298.79956
298.72425
298.64952
298.57593
298.50393
298.43391
298.36617
298.30097
298.23854
298.17902
298.12257
298.06928
298.01924
297.97249
297.92909
297.88906
297.85242
297.81917
297.78932
297.76286
297.73978
297.72006
297.70369
297.69062
297.68083
297.67429
297.67095
297.67078
297.67373
297.67974
297.68869
297.70029
297.71424
297.73069
297.75046
297.77386
297.79905
297.82511
297.86073
297.91952
297.98393
293.78834
287.55375
291.16691
290.59168
291.76686
292.32643
293.05751
293.74144
294.43005
295.10081
295.74914
296.36657
296.94613
297.48186
297.96914
298.40491
298.78765
299.11732
299.39516
299.62347
299.80538
299.94457
300.04506
300.11099
300.14649
300.15555
300.14191
300.10906
300.06017
299.99808
299.92534
299.84418
299.75656
299.66417
299.5685
299.47079
299.37213
299.27342
299.17544
299.07883
298.98412
298.89177
298.80213
298.71551
298.63212
298.55216
298.47577
298.40306
298.3341
298.26893
298.2076
298.1501
298.09645
298.04661
298.00059
297.95834
297.91984
297.88504
297.85392
297.82642
297.8025
297.7821
297.76517
297.75165
297.74146
297.73455
297.73086
297.73033
297.73292
297.73849
297.74675
297.75747
297.77088
297.78762
297.80733
297.82787
297.84939
297.88193
297.93708
297.99126
294.44761
288.82575
292.27296
292.0243
293.20925
293.92119
294.74246
295.51319
296.26547
296.97854
297.64512
298.25693
298.80817
299.29515
299.71633
300.0722
300.36495
300.59809
300.77612
300.90412
300.98747
301.03158
301.0417
301.0228
300.97946
300.91582
300.8356
300.74208
300.63813
300.52623
300.40853
300.28686
300.16277
300.03756
299.91236
299.78808
299.66548
299.5452
299.42775
299.31354
299.20292
299.09613
298.99338
298.89482
298.80055
298.71066
298.62517
298.5441
298.46745
298.3952
298.32731
298.26374
298.20444
298.14936
298.09842
298.05157
298.00874
297.96987
297.93488
297.90371
297.87628
297.85252
297.83234
297.81567
297.8024
297.79244
297.78573
297.7822
297.78179
297.78434
297.78961
297.79746
297.80822
297.82222
297.83854
297.85492
297.87264
297.90226
297.95304
297.99926
295.35249
290.44415
293.7018
293.81361
295.02751
295.88548
296.78818
297.62131
298.40081
299.10981
299.74199
300.29266
300.76056
301.14712
301.45601
301.69263
301.86344
301.97552
302.03612
302.05231
302.0308
301.97775
301.89873
301.79866
301.68187
301.55209
301.41251
301.26587
301.11445
300.9602
300.80471
300.64933
300.49516
300.3431
300.19388
300.04811
299.90625
299.76866
299.63565
299.50741
299.38411
299.26585
299.1527
299.04467
298.94177
298.84399
298.75127
298.66356
298.58079
298.50289
298.42977
298.36135
298.29753
298.23821
298.18332
298.13274
298.0864
298.0442
298.00605
297.97186
297.94154
297.91499
297.89211
297.87281
297.85695
297.84444
297.83518
297.82909
297.82608
297.82597
297.82857
297.83388
297.84224
297.8537
297.86688
297.87976
297.89454
297.92157
297.96718
298.00497
296.48459
292.53351
295.55904
296.04325
297.28794
298.26289
299.20149
300.0365
300.77434
301.40636
301.93259
302.35595
302.68262
302.9208
303.07991
303.16987
303.20051
303.18112
303.12026
303.02559
302.90383
302.7608
302.60145
302.42998
302.24991
302.06414
301.8751
301.68477
301.49476
301.30641
301.12075
300.93866
300.76079
300.58767
300.41971
300.25721
300.1004
299.94942
299.80436
299.66529
299.5322
299.40507
299.28387
299.16851
299.05893
298.95502
298.85668
298.76379
298.67625
298.59392
298.51669
298.44443
298.37702
298.31435
298.25629
298.20274
298.15356
298.10867
298.06795
298.0313
297.9986
297.96975
297.94464
297.92315
297.90514
297.8905
297.87911
297.87087
297.86563
297.86322
297.86349
297.86653
297.87266
297.88164
297.8919
297.90185
297.91436
297.93871
297.97838
298.0082
298.02184
295.20629
297.93984
298.76613
299.98541
301.02169
301.90639
302.64521
303.24724
303.71645
304.06338
304.30056
304.44193
304.50155
304.49284
304.42811
304.31832
304.17293
304.00003
303.8064
303.59765
303.37842
303.15245
302.92281
302.69196
302.46185
302.23407
302.00984
301.79013
301.57569
301.36709
301.16476
300.969
300.78003
300.59799
300.42294
300.25491
300.09388
299.93979
299.79257
299.65212
299.51831
299.39103
299.27012
299.15546
299.04688
298.94423
298.84737
298.75613
298.67037
298.58993
298.51467
298.44445
298.37912
298.31855
298.26261
298.21116
298.16409
298.12128
298.08261
298.04795
298.0172
297.99023
297.96691
297.94711
297.93069
297.91753
297.90748
297.90037
297.896
297.89427
297.89531
297.89935
297.9059
297.91342
297.92084
297.93138
297.95289
297.98654
298.00951
300.00497
298.53226
300.83929
301.95624
303.1452
304.01353
304.72316
305.25263
305.62453
305.85745
305.97276
305.99073
305.93009
305.80725
305.63627
305.42886
305.19463
304.94136
304.6753
304.40138
304.12354
303.84483
303.56765
303.29384
303.02484
302.76172
302.50528
302.25613
302.01468
301.78122
301.55594
301.33892
301.13019
300.92973
300.73747
300.55331
300.37713
300.20877
300.04808
299.89488
299.749
299.61025
299.47845
299.35339
299.23491
299.1228
299.01688
298.91697
298.82289
298.73446
298.65152
298.5739
298.50144
298.43399
298.37141
298.31353
298.26024
298.21139
298.16685
298.1265
298.09021
298.05786
298.02931
298.00445
297.98312
297.96519
297.95052
297.93895
297.93026
297.92425
297.92084
297.92016
297.92226
297.92653
297.93156
297.93684
297.9456
297.96407
297.99172
298.00904
302.46295
302.49466
304.50689
305.48407
306.38163
306.99534
307.40392
307.6288
307.70655
307.66698
307.53702
307.33891
307.09078
306.80701
306.49888
306.17512
305.84243
305.50591
305.16942
304.83587
304.50741
304.18565
303.87174
303.56651
303.27053
302.98416
302.70762
302.44102
302.18437
301.93762
301.70066
301.47335
301.25552
301.04696
300.84748
300.65684
300.47483
300.3012
300.13573
299.97817
299.8283
299.68589
299.55071
299.42253
299.30113
299.1863
299.07784
298.97554
298.8792
298.78864
298.70368
298.62413
298.54984
298.48063
298.41636
298.35686
298.302
298.25163
298.20562
298.16382
298.12611
298.09237
298.06245
298.03622
298.01354
297.99428
297.97828
297.96537
297.95532
297.94793
297.94312
297.94095
297.94131
297.94355
297.94653
297.95019
297.95744
297.97278
297.9945
298.00691
305.53861
306.9355
308.26627
308.97038
309.45019
309.66118
309.68588
309.56623
309.34307
309.04679
308.70091
308.3229
307.92568
307.51866
307.10868
306.70064
306.29805
305.90339
305.51836
305.14411
304.78139
304.43066
304.09214
303.76591
303.45191
303.15002
302.86005
302.58176
302.31488
302.05915
301.81425
301.57989
301.35576
301.14156
300.93699
300.74174
300.55552
300.37805
300.20904
300.04822
299.89532
299.75008
299.61225
299.48159
299.35785
299.24081
299.13024
299.02593
298.92769
298.83529
298.74857
298.66734
298.59142
298.52064
298.45485
298.39388
298.3376
298.28584
298.23848
298.19536
298.15636
298.12133
298.09014
298.06266
298.03875
298.01826
298.00104
297.9869
297.97563
297.96704
297.96103
297.95755
297.95638
297.95688
297.95825
297.96069
297.96649
297.97849
297.9947
298.00408
309.50179
311.28998
311.83198
312.0196
311.96557
311.73166
311.38033
310.95405
310.48305
309.98807
309.48318
308.97785
308.47841
307.98899
307.51225
307.04983
306.60269
306.17131
305.75583
305.35619
304.97216
304.60343
304.24962
303.91032
303.58508
303.27346
302.97501
302.68928
302.41585
302.15428
301.90417
301.66513
301.43675
301.21868
301.01056
300.81205
300.6228
300.4425
300.27085
300.10754
299.95229
299.80482
299.66487
299.53217
299.40649
299.28759
299.17522
299.06919
298.96926
298.87524
298.78695
298.70418
298.62677
298.55455
298.48735
298.42502
298.36741
298.31436
298.26573
298.22138
298.18117
298.14495
298.11259
298.08396
298.0589
298.03729
298.01895
298.00369
297.99133
297.98167
297.97461
297.97
297.96757
297.96673
297.96694
297.96841
297.97269
297.98145
297.99319
298.00108
314.47193
314.84338
314.57258
314.20326
313.67948
313.08504
312.45558
311.8167
311.18264
310.56198
309.95954
309.37788
308.81819
308.28081
307.76558
307.27201
306.79947
306.34719
305.91441
305.50031
305.10413
304.7251
304.36249
304.01561
303.6838
303.36642
303.0629
302.77266
302.49519
302.22997
301.97654
301.73444
301.50324
301.28255
301.07196
300.87113
300.67968
300.49729
300.32364
300.15841
300.00131
299.85205
299.71037
299.57599
299.44867
299.32817
299.21425
299.10669
299.00527
298.90979
298.82005
298.73588
298.65709
298.58351
298.51498
298.45135
298.39246
298.33817
298.28833
298.24279
298.20141
298.16405
298.13056
298.10082
298.07469
298.05201
298.03262
298.01634
298.00295
297.99231
297.98428
297.97868
297.97522
297.97344
297.97292
297.97371
297.97674
297.98293
297.99124
297.99838
316.47314
316.64043
316.06414
315.30009
314.51888
313.73662
312.97363
312.23754
311.53181
310.85741
310.21406
309.60081
309.01638
308.45937
307.92836
307.42195
306.93882
306.47771
306.03746
305.61696
305.21522
304.8313
304.46433
304.11352
303.77811
303.45741
303.15078
302.85762
302.57736
302.30948
302.05348
301.8089
301.57529
301.35224
301.13934
300.93624
300.74257
300.55799
300.38217
300.21482
300.05562
299.9043
299.76057
299.62419
299.49489
299.37244
299.25659
299.14713
299.04385
298.94653
298.85499
298.76904
298.6885
298.61321
298.543
298.47772
298.41723
298.36138
298.31001
298.26298
298.22015
298.18139
298.14654
298.11548
298.08808
298.06418
298.04361
298.02619
298.01172
298.00005
297.99102
297.98443
297.97995
297.97719
297.9759
297.97625
297.97873
297.98356
297.99025
297.99698
310.29392
308.99004
305.30162
302.39574
301.10898
300.81943
300.75101
300.74812
300.63602
300.57922
300.47585
300.40451
300.31783
300.23088
300.14437
300.05742
299.9698
299.88147
299.79245
299.7028
299.6126
299.52196
299.43102
299.33989
299.24872
299.15765
299.06681
298.97635
298.88639
298.79707
298.70853
298.62088
298.53426
298.44878
298.36457
298.28176
298.20046
298.1208
298.0429
297.96687
297.89285
297.82096
297.75132
297.68405
297.61928
297.55713
297.49772
297.44118
297.38762
297.33716
297.2899
297.24593
297.20536
297.16824
297.13467
297.10467
297.0783
297.05559
297.03656
297.02126
297.00978
297.00223
296.99875
296.99951
297.00478
297.0148
297.03008
297.05054
297.07768
297.10983
297.15266
297.19713
297.26281
297.31563
297.41523
297.45942
297.60571
297.62133
297.81387
297.81894
309.51693
306.58263
302.38896
300.31698
299.74328
299.74433
299.84591
299.85684
299.85108
299.82476
299.8008
299.76318
299.72016
299.67231
299.62052
299.56492
299.50597
299.44395
299.37918
299.31198
299.24263
299.1714
299.09855
299.02433
298.94896
298.87267
298.79568
298.71818
298.64039
298.56248
298.48466
298.40709
298.32995
298.25342
298.17767
298.10285
298.02915
297.9567
297.88568
297.81623
297.74852
297.68269
297.61889
297.55727
297.49798
297.44116
297.38695
297.33548
297.28689
297.24129
297.1988
297.15952
297.12354
297.09096
297.06182
297.03619
297.0141
296.99558
296.98066
296.96938
296.96184
296.95814
296.95842
296.96283
296.97166
296.98512
297.00368
297.02735
297.05745
297.09264
297.13798
297.18548
297.25275
297.30842
297.40808
297.45498
297.60045
297.61617
297.8128
297.81103
308.10418
304.50128
301.38877
299.67834
299.3486
299.38889
299.42255
299.39606
299.36738
299.33451
299.3026
299.26738
299.23056
299.19081
299.14891
299.10461
299.05815
299.00948
298.95869
298.90589
298.85118
298.79467
298.7365
298.6768
298.61571
298.5534
298.49001
298.42571
298.36067
298.29506
298.22906
298.16285
298.09659
298.03049
297.96471
297.89944
297.83486
297.77114
297.70848
297.64705
297.58702
297.52857
297.47188
297.41711
297.36443
297.314
297.26597
297.22051
297.17776
297.13784
297.10088
297.067
297.03628
297.00883
296.98469
296.96394
296.94661
296.93273
296.92232
296.91543
296.91216
296.9126
296.91689
296.9252
296.93776
296.95483
296.97682
297.00379
297.03698
297.07523
297.12319
297.17362
297.24271
297.3009
297.40103
297.45016
297.59535
297.6111
297.81103
297.80395
306.91209
303.05074
300.20798
298.91799
298.87005
298.88551
298.90247
298.86615
298.84762
298.81837
298.79427
298.76501
298.73558
298.70419
298.67171
298.6376
298.60204
298.56487
298.52611
298.48576
298.44383
298.40034
298.35535
298.3089
298.26108
298.21196
298.16164
298.11024
298.05788
298.00469
297.95082
297.89641
297.84163
297.78665
297.73163
297.67675
297.62221
297.56817
297.51484
297.46239
297.41103
297.36093
297.31229
297.26529
297.22012
297.17695
297.13595
297.0973
297.06114
297.02762
296.99687
296.96902
296.94416
296.9224
296.90379
296.8884
296.87628
296.86744
296.86192
296.85976
296.86107
296.86594
296.8745
296.88691
296.90341
296.92424
296.9498
296.98018
297.01655
297.05791
297.10859
297.16186
297.23291
297.29343
297.39425
297.44525
297.59033
297.6061
297.80885
297.79742
306.21352
301.8318
299.24255
298.2863
298.36525
298.33862
298.36495
298.32781
298.32103
298.29653
298.28113
298.25917
298.23859
298.2162
298.19322
298.169
298.14371
298.1172
298.08944
298.06039
298.03002
297.99833
297.96531
297.93098
297.89536
297.85849
297.82043
297.78124
297.74102
297.69984
297.65783
297.6151
297.57179
297.52803
297.48399
297.43982
297.3957
297.35181
297.30832
297.26543
297.22334
297.18222
297.14228
297.10372
297.06672
297.03146
296.99814
296.96693
296.93798
296.91146
296.8875
296.86623
296.84776
296.83217
296.81955
296.80996
296.80344
296.80002
296.79973
296.80262
296.80879
296.81834
296.83138
296.84809
296.86869
296.89342
296.92267
296.95656
296.99618
297.0407
297.09414
297.1502
297.22329
297.28603
297.38764
297.44021
297.5854
297.60122
297.80638
297.79141
305.64411
300.6368
298.43768
297.6794
297.82938
297.77279
297.81929
297.78275
297.79097
297.7732
297.76887
297.75566
297.74489
297.73202
297.71879
297.70445
297.68914
297.67275
297.65526
297.63665
297.61688
297.59594
297.57382
297.55052
297.52604
297.5004
297.47363
297.44577
297.41688
297.38702
297.35627
297.32473
297.29249
297.25969
297.22644
297.1929
297.15922
297.12557
297.0921
297.05902
297.02649
296.99471
296.96387
296.93417
296.9058
296.87894
296.85379
296.83051
296.80927
296.79024
296.77354
296.75932
296.74767
296.7387
296.73247
296.72906
296.72851
296.73084
296.73608
296.7443
296.75558
296.77003
296.78777
296.80895
296.8338
296.86255
296.89558
296.93305
296.97598
297.02369
297.07992
297.13873
297.21388
297.27878
297.3812
297.43523
297.58053
297.59647
297.8037
297.78588
305.06414
299.58385
297.78372
297.12535
297.3234
297.2406
297.30685
297.26863
297.28933
297.27608
297.28081
297.27476
297.27195
297.26679
297.26155
297.25539
297.24844
297.24063
297.23192
297.22229
297.2117
297.20014
297.18757
297.17399
297.15939
297.14377
297.12714
297.10953
297.09096
297.07148
297.05115
297.03004
297.00823
296.98582
296.96292
296.93965
296.91615
296.89255
296.86903
296.84573
296.82284
296.80053
296.77898
296.75839
296.73893
296.72078
296.70414
296.68916
296.67601
296.66484
296.6558
296.649
296.64456
296.64256
296.64307
296.64617
296.6519
296.66027
296.67132
296.68511
296.70172
296.72127
296.74387
296.76966
296.79888
296.83175
296.86865
296.90976
296.95605
297.00696
297.06598
297.12752
297.20471
297.27172
297.37491
297.43035
297.57572
297.5919
297.8009
297.78083
304.58348
298.62914