/*--------------------------------*- C++ -*----------------------------------*\
  =========                 |
  \\      /  F ield         | OpenFOAM: The Open Source CFD Toolbox
   \\    /   O peration     | Website:  https://openfoam.org
    \\  /    A nd           | Version:  12
     \\/     M anipulation  |
\*---------------------------------------------------------------------------*/
FoamFile
{
    format      ascii;
    class       volScalarField;
    location    "0.076";
    object      alphat;
}
// * * * * * * * * * * * * * * * * * * * * * * * * * * * * * * * * * * * * * //

dimensions      [1 -1 -1 0 0 0 0];

internalField   nonuniform List<scalar> 
16000
(
5.0350857e-07
1.0713168e-05
2.1763755e-05
2.5685093e-05
1.9806987e-05
2.7251343e-05
1.927083e-05
2.6394415e-05
2.0647786e-05
2.8376033e-05
2.3985654e-05
2.8115544e-05
2.5698386e-05
2.6377388e-05
2.5521622e-05
2.5395248e-05
2.515601e-05
2.5108039e-05
2.5146257e-05
2.529202e-05
2.5538061e-05
2.5883507e-05
2.6326126e-05
2.6866358e-05
2.7506893e-05
2.8254627e-05
2.9118757e-05
3.0113739e-05
3.1257127e-05
3.256781e-05
3.4066606e-05
3.5781127e-05
3.7746961e-05
4.0007951e-05
4.2618012e-05
4.5641501e-05
4.9155115e-05
5.3250404e-05
5.804072e-05
6.3666414e-05
7.0292215e-05
7.8112362e-05
8.7371612e-05
9.8369439e-05
0.00011146202
0.00012707657
0.0001457424
0.00016810392
0.000194945
0.00022721977
0.00026609403
0.00031299489
0.00036966424
0.0004382333
0.00052130895
0.00062209079
0.00074451908
0.00089346795
0.001074998
0.0011768589
0.0011775028
0.0011780507
0.001178522
0.001178895
0.0011791875
0.0011794095
0.0011795669
0.0011796532
0.0011796472
0.0011795079
0.0011791508
0.001178395
0.0011768934
0.0011742242
0.0011711645
0.0011684536
0.0011667005
0.0011662364
0.0011655563
0.0011649922
4.4785434e-07
1.0160152e-05
2.1250741e-05
2.3211215e-05
1.7861293e-05
2.4418554e-05
1.7095415e-05
2.3099684e-05
1.8227913e-05
2.5044531e-05
2.1693652e-05
2.5323018e-05
2.3473567e-05
2.3876086e-05
2.321267e-05
2.3031784e-05
2.2835701e-05
2.2782354e-05
2.2820995e-05
2.2955266e-05
2.3183338e-05
2.350396e-05
2.3915507e-05
2.4418498e-05
2.5015073e-05
2.5711663e-05
2.6516275e-05
2.7441946e-05
2.8505293e-05
2.9724712e-05
3.1119562e-05
3.2715071e-05
3.4544167e-05
3.6647443e-05
3.9075332e-05
4.1888329e-05
4.5158976e-05
4.8973213e-05
5.3436537e-05
5.8681711e-05
6.4866833e-05
7.2174568e-05
8.0835263e-05
9.1134324e-05
0.00010341357
0.00011807871
0.00013563416
0.00015669605
0.00018201547
0.00021250738
0.00024929044
0.00029373798
0.00034752857
0.00041271991
0.00049183178
0.00058796048
0.00070492384
0.00084744171
0.0010213697
0.001176304
0.0011769548
0.0011774621
0.0011779028
0.0011782481
0.0011785145
0.00117871
0.0011788372
0.0011788865
0.0011788321
0.0011786273
0.0011781829
0.0011773246
0.0011757526
0.0011731082
0.0011702717
0.0011678018
0.0011663235
0.0011658374
0.0011651252
0.0011645802
4.0049967e-07
9.7392842e-06
2.007242e-05
2.1246135e-05
1.5988195e-05
2.149289e-05
1.5209869e-05
2.0067772e-05
1.637742e-05
2.1963296e-05
1.9761394e-05
2.2532676e-05
2.1242598e-05
2.1365807e-05
2.0859749e-05
2.0656328e-05
2.0494327e-05
2.0446361e-05
2.0487735e-05
2.0615445e-05
2.0829135e-05
2.1127927e-05
2.1510491e-05
2.1977616e-05
2.2531025e-05
2.31769e-05
2.3922425e-05
2.4779422e-05
2.5763397e-05
2.6892279e-05
2.8184449e-05
2.9663265e-05
3.1359468e-05
3.3310869e-05
3.5564831e-05
3.8178322e-05
4.1220247e-05
4.477219e-05
4.8933097e-05
5.3828276e-05
5.9610528e-05
6.6453735e-05
7.4576033e-05
8.4249901e-05
9.5805943e-05
0.00010963268
0.00012621393
0.00014614257
0.000170143
0.00019909911
0.00023409144
0.00027645005
0.00032780235
0.00039014702
0.00046593424
0.00055817745
0.00067059595
0.00080779188
0.00097546773
0.0011759253
0.0011765738
0.0011770256
0.0011774179
0.0011777186
0.0011779425
0.0011780951
0.0011781753
0.0011781703
0.0011780509
0.0011777659
0.0011772214
0.0011762414
0.0011745685
0.0011719905
0.0011693786
0.0011672066
0.0011659417
0.0011655699
0.0011649378
0.0011644166
3.5936922e-07
9.4140906e-06
1.9034133e-05
1.9899325e-05
1.4371493e-05
1.8966727e-05
1.3543043e-05
1.7527601e-05
1.4730302e-05
1.9347311e-05
1.802041e-05
2.0064305e-05
1.9187683e-05
1.9109535e-05
1.8721122e-05
1.8517756e-05
1.8386124e-05
1.8349258e-05
1.8396547e-05
1.8521701e-05
1.8725036e-05
1.9006159e-05
1.9364077e-05
1.9799996e-05
2.0315386e-05
2.0916346e-05
2.1609517e-05
2.2405772e-05
2.3319576e-05
2.4368483e-05
2.5570244e-05
2.6946636e-05
2.8526634e-05
3.034567e-05
3.2448522e-05
3.4889135e-05
3.7733303e-05
4.1059235e-05
4.4960718e-05
4.9556187e-05
5.4994476e-05
6.1442901e-05
6.910987e-05
7.8256479e-05
8.9205372e-05
0.00010233197
0.00011810399
0.00013709655
0.00016001387
0.00018771749
0.00022125956
0.0002619392
0.00031134719
0.00037144134
0.00044462458
0.00053385479
0.00064278498
0.00077593966
0.0009389273
0.0011386821
0.0011763922
0.0011767734
0.0011770997
0.0011773382
0.0011775016
0.0011775932
0.0011776085
0.0011775315
0.0011773311
0.0011769531
0.0011763012
0.0011751985
0.0011734116
0.0011709698
0.0011685893
0.0011666914
0.001165673
0.0011653565
0.0011648064
0.0011642151
3.2168938e-07
9.1753967e-06
1.8157391e-05
1.9853118e-05
1.4526133e-05
1.6766993e-05
1.2085229e-05
1.5350281e-05
1.3318008e-05
1.7099338e-05
1.6477962e-05
1.7849007e-05
1.7280434e-05
1.7067071e-05
1.6765422e-05
1.6576663e-05
1.6469863e-05
1.6444418e-05
1.6496119e-05
1.6617929e-05
1.6810447e-05
1.707395e-05
1.7407838e-05
1.7813833e-05
1.8293314e-05
1.8852379e-05
1.9497271e-05
2.0238125e-05
2.108837e-05
2.2065148e-05
2.3185797e-05
2.4470786e-05
2.5947636e-05
2.7649731e-05
2.9619642e-05
3.1908707e-05
3.4579975e-05
3.7708971e-05
4.1385671e-05
4.5722034e-05
5.0863644e-05
5.6972997e-05
6.4250977e-05
7.2948071e-05
8.3381064e-05
9.5915369e-05
0.00011100566
0.00012921283
0.00015122481
0.00017788627
0.00021022659
0.00024952091
0.0002973312
0.00035558378
0.00042664561
0.00051343203
0.00061954508
0.00074944838
0.00090867666
0.0011040677
0.0011763886
0.0011766848
0.0011769283
0.0011770878
0.0011771739
0.0011771882
0.0011771227
0.0011769588
0.0011766643
0.0011761829
0.0011754177
0.0011741991
0.0011723036
0.0011700448
0.0011679013
0.0011662593
0.0011654219
0.0011651911
0.0011647184
0.0011640984
2.9827084e-07
9.0287919e-06
1.7455304e-05
1.950271e-05
1.4176492e-05
1.4846915e-05
1.1582005e-05
1.3558114e-05
1.2655082e-05
1.5231704e-05
1.5136117e-05
1.5913278e-05
1.5548608e-05
1.5255489e-05
1.5007731e-05
1.4835132e-05
1.4743902e-05
1.4725169e-05
1.47773e-05
1.4893437e-05
1.5074161e-05
1.532032e-05
1.5631539e-05
1.6009899e-05
1.645684e-05
1.6978417e-05
1.7580489e-05
1.8272679e-05
1.9067392e-05
1.9981327e-05
2.1031607e-05
2.2237651e-05
2.362584e-05
2.5227873e-05
2.7084535e-05
2.9245031e-05
3.1770128e-05
3.4733277e-05
3.822208e-05
4.2342958e-05
4.7238601e-05
5.3068464e-05
6.0028686e-05
6.8360215e-05
7.8376235e-05
9.0435724e-05
0.00010498388
0.00012257176
0.00014387548
0.00016972955
0.00020114754
0.00023938939
0.00028599856
0.00034288192
0.00041238547
0.00049739962
0.00060149623
0.00072910261
0.00088571225
0.0010781113
0.0011765497
0.001176747
0.0011768921
0.0011769571
0.0011769504
0.0011768723
0.0011767124
0.0011764493
0.0011760503
0.001175458
0.0011745743
0.0011732523
0.0011713044
0.0011692302
0.0011673233
0.0011659168
0.0011652228
0.0011650619
0.0011646145
0.0011640262
2.6827779e-07
8.9454782e-06
1.6905664e-05
1.8381847e-05
1.4056139e-05
1.3112222e-05
1.1540799e-05
1.253895e-05
1.1875943e-05
1.3571849e-05
1.3933713e-05
1.4207595e-05
1.3946627e-05
1.3619173e-05
1.3401516e-05
1.3245258e-05
1.3165572e-05
1.3152515e-05
1.3204978e-05
1.3316628e-05
1.3487664e-05
1.3719424e-05
1.4011592e-05
1.4282245e-05
1.469117e-05
1.517169e-05
1.5728971e-05
1.6371754e-05
1.7111279e-05
1.7963438e-05
1.8945108e-05
2.0074695e-05
2.1377539e-05
2.2883739e-05
2.4632437e-05
2.6670906e-05
2.9057789e-05
3.1864518e-05
3.5177216e-05
3.9392724e-05
4.4090618e-05
4.9697303e-05
5.6407001e-05
6.4452523e-05
7.414477e-05
8.5839761e-05
9.9976635e-05
0.00011710056
0.0001378796
0.0001631443
0.00019389856
0.00023139498
0.00027716754
0.00033311414
0.00040157269
0.00048542398
0.00058822775
0.0007143962
0.00086940811
0.0010600358
0.0011768568
0.0011769421
0.0011769747
0.0011769317
0.0011768189
0.0011766357
0.0011763701
0.0011759987
0.0011754877
0.0011747804
0.0011737754
0.001172352
0.0011704253
0.0011685363
0.0011668577
0.0011656606
0.0011650874
0.0011649811
0.0011645551
0.0011639639
2.4140327e-07
8.8988128e-06
1.6433521e-05
1.6688224e-05
1.2716063e-05
1.1427183e-05
9.8612046e-06
1.1143348e-05
1.0367418e-05
1.2211628e-05
1.2720881e-05
1.2640673e-05
1.2419605e-05
1.2102022e-05
1.1909642e-05
1.1774897e-05
1.1709724e-05
1.1705733e-05
1.1690879e-05
1.178417e-05
1.1936728e-05
1.2148916e-05
1.241885e-05
1.2746877e-05
1.3137941e-05
1.3595807e-05
1.4125849e-05
1.4736747e-05
1.5439129e-05
1.6248425e-05
1.7181747e-05
1.825697e-05
1.9498951e-05
2.0936793e-05
2.2608702e-05
2.4560757e-05
2.685036e-05
2.9547744e-05
3.273859e-05
3.6527223e-05
4.1040802e-05
4.6440223e-05
5.2919945e-05
6.1218139e-05
7.0680332e-05
8.2121805e-05
9.5979423e-05
0.00011279625
0.00013323617
0.00015813226
0.0001884852
0.00022554845
0.00027085616
0.00032630831
0.00039424818
0.00047756345
0.00057982149
0.00070544299
0.00085992024
0.0010500513
0.0011772886
0.0011772502
0.0011771588
0.0011769967
0.0011767672
0.0011764687
0.0011760889
0.0011756026
0.0011749749
0.001174151
0.0011730278
0.0011714947
0.0011696743
0.0011679696
0.0011665028
0.0011654747
0.0011650247
0.001164892
0.0011646434
0.0011640222
2.2305851e-07
8.8530301e-06
1.5934467e-05
1.4613797e-05
1.0459592e-05
1.0158868e-05
8.141822e-06
9.5050689e-06
9.7172248e-06
1.097626e-05
1.1496868e-05
1.1186463e-05
1.0983964e-05
1.0701084e-05
1.0534485e-05
1.0351036e-05
1.0275159e-05
1.0265702e-05
1.031558e-05
1.0421578e-05
1.0579102e-05
1.079119e-05
1.1056151e-05
1.1374593e-05
1.1751407e-05
1.219128e-05
1.2699659e-05
1.3285261e-05
1.3958302e-05
1.4733736e-05
1.5629023e-05
1.6661771e-05
1.7856685e-05
1.9242192e-05
2.0855952e-05
2.2743358e-05
2.4961108e-05
2.7578834e-05
3.0681628e-05
3.4373032e-05
3.8780727e-05
4.406348e-05
5.0419111e-05
5.8077071e-05
6.733129e-05
7.8547084e-05
9.2976826e-05
0.00010964194
0.00012992675
0.00015467309
0.00018488522
0.00022182565
0.00026703844
0.00032243679
0.00039038312
0.00047378894
0.00057624987
0.00070221974
0.00085723295
0.0010481521
0.0011778216
0.00117765
0.0011774253
0.001177136
0.0011767824
0.0011763616
0.0011758614
0.0011752565
0.0011745098
0.0011735686
0.00117234
0.0011707105
0.0011690571
0.0011675316
0.0011662547
0.0011653615
0.0011650293
0.0011648542
0.0011648248
0.0011641601
2.0449427e-07
8.8086558e-06
1.4340511e-05
1.2754364e-05
8.4652333e-06
9.026027e-06
7.2630324e-06
8.5781386e-06
8.9962347e-06
9.8235584e-06
1.0289718e-05
9.8644923e-06
9.6672874e-06
9.3334649e-06
9.1561423e-06
9.0480001e-06
9.0067194e-06
9.023002e-06
9.0901378e-06
9.2081966e-06
9.3721201e-06
9.5840702e-06
9.8455908e-06
1.0156966e-05
1.0523339e-05
1.0949843e-05
1.1442089e-05
1.2008977e-05
1.2660471e-05
1.3411079e-05
1.4278683e-05
1.5280967e-05
1.6442746e-05
1.7792084e-05
1.9366459e-05
2.1211036e-05
2.3382305e-05
2.5949897e-05
2.8999368e-05
3.2634853e-05
3.6984284e-05
4.2206164e-05
4.8502164e-05
5.6102092e-05
6.530287e-05
7.6472676e-05
9.0064951e-05
0.00010661155
0.00012794574
0.00015276281
0.00018309748
0.00022022933
0.00026572276
0.00032151593
0.00039000493
0.00047414327
0.00057757695
0.00070482024
0.00086148059
0.0010545236
0.0011784309
0.001178119
0.0011777549
0.0011773328
0.0011768509
0.0011763042
0.0011756802
0.001174955
0.0011740902
0.0011730313
0.0011717123
0.0011700796
0.0011685738
0.0011672194
0.0011661119
0.0011653425
0.0011651064
0.0011649254
0.0011650137
0.001164396
1.8864813e-07
8.7630719e-06
1.1397073e-05
1.056986e-05
6.9643875e-06
8.0364852e-06
6.6238085e-06
7.7104288e-06
8.4200258e-06
8.77898e-06
9.1084112e-06
8.57151e-06
8.3224773e-06
8.09331e-06
7.9647863e-06
7.8969032e-06
7.8847225e-06
7.9236104e-06
8.0071478e-06
8.1345393e-06
8.3042934e-06
8.5182864e-06
8.7786241e-06
9.0861378e-06
9.4460692e-06
9.8640325e-06
1.0345938e-05
1.0900934e-05
1.1538953e-05
1.2274145e-05
1.30577e-05
1.4030447e-05
1.5160761e-05
1.6476317e-05
1.8014404e-05
1.9819995e-05
2.1949447e-05
2.447245e-05
2.747516e-05
3.1062628e-05
3.5364208e-05
4.0858035e-05
4.7159654e-05
5.4780178e-05
6.401967e-05
7.5250536e-05
8.8939588e-05
0.00010563173
0.00012601363
0.00015094046
0.00018311941
0.00022076163
0.0002669178
0.00032356342
0.00039314376
0.00047867393
0.00058387407
0.00071334884
0.00087281311
0.0010693735
0.0011790908
0.0011786345
0.0011781279
0.0011775703
0.0011769586
0.0011762854
0.001175537
0.0011746914
0.0011737125
0.001172542
0.0011711298
0.0011695874
0.0011682241
0.0011670273
0.0011660684
0.0011654153
0.0011652173
0.0011650444
0.0011652221
0.0011647261
1.747124e-07
8.7203767e-06
9.0043457e-06
9.0110718e-06
6.1336518e-06
7.1255433e-06
6.0865088e-06
6.95492e-06
7.835647e-06
7.8066012e-06
7.8291253e-06
7.3740119e-06
7.1716859e-06
7.0056855e-06
6.9186146e-06
6.8843214e-06
6.8980656e-06
6.9554905e-06
7.0531655e-06
7.1910113e-06
7.3676789e-06
7.5854227e-06
7.8472384e-06
8.1544567e-06
8.5124186e-06
8.8889103e-06
9.3586163e-06
9.9007953e-06
1.0525247e-05
1.1245659e-05
1.2078525e-05
1.3045275e-05
1.4170102e-05
1.5480826e-05
1.7015181e-05
1.8818712e-05
2.0948592e-05
2.347558e-05
2.6487734e-05
3.0092526e-05
3.4422607e-05
3.9643669e-05
4.5958639e-05
5.3610774e-05
6.2905534e-05
7.4867641e-05
8.8784264e-05
0.00010577598
0.00012654238
0.00015196601
0.00018312372
0.00022342628
0.00027063602
0.00032860354
0.00039983968
0.00048744259
0.00059523229
0.00072793664
0.0008914175
0.0010929607
0.0011797754
0.0011791735
0.0011785245
0.0011778313
0.0011770906
0.0011762929
0.0011754224
0.0011744582
0.0011733697
0.0011721055
0.0011706161
0.0011692285
0.0011680021
0.0011669477
0.0011661116
0.0011655694
0.001165322
0.0011652258
0.0011654583
0.0011650974
1.6230271e-07
8.6697326e-06
7.1730774e-06
7.9150639e-06
5.4709367e-06
6.3111027e-06
5.6276288e-06
6.2884322e-06
7.1406207e-06
6.7026564e-06
6.6758945e-06
6.3275331e-06
6.1683501e-06
6.0533515e-06
6.0018135e-06
5.9963924e-06
6.0326746e-06
6.1081842e-06
6.2199439e-06
6.3686868e-06
6.5539142e-06
6.7779782e-06
7.0147356e-06
7.3189074e-06
7.6735253e-06
8.0835446e-06
8.5571926e-06
9.1032985e-06
9.7319274e-06
1.0457032e-05
1.1295318e-05
1.2268027e-05
1.3400839e-05
1.4722052e-05
1.6270133e-05
1.8091616e-05
2.0245104e-05
2.2803004e-05
2.5856085e-05
2.9515418e-05
3.3917177e-05
3.9231007e-05
4.5670513e-05
5.3485352e-05
6.2990861e-05
7.457912e-05
8.8736907e-05
0.00010605212
0.00012836881
0.00015451284
0.00018657465
0.00022592836
0.00027688317
0.00033665448
0.00041012707
0.00050050575
0.00061173848
0.0007487112
0.00091747956
0.0011255504
0.0011804596
0.0011797138
0.0011789257
0.0011780993
0.0011772318
0.0011763131
0.0011753254
0.0011742477
0.0011730536
0.0011717155
0.0011702527
0.0011689913
0.0011678959
0.0011669703
0.0011662312
0.0011657564
0.0011655094
0.0011655015
0.0011657031
0.0011654844
1.5130334e-07
8.6074036e-06
5.7606551e-06
6.9229064e-06
4.8822086e-06
5.5881382e-06
5.2386647e-06
5.6096963e-06
6.2649933e-06
5.7446879e-06
5.6645196e-06
5.4123306e-06
5.2939676e-06
5.2215862e-06
5.2016761e-06
5.2224255e-06
5.2800076e-06
5.373035e-06
5.4994478e-06
5.6393649e-06
5.8285361e-06
6.0565279e-06
6.3260967e-06
6.6407981e-06
7.0056776e-06
7.426126e-06
7.9103066e-06
8.4677862e-06
9.1089086e-06
9.8478501e-06
1.0701504e-05
1.169143e-05
1.2785885e-05
1.4118603e-05
1.5681312e-05
1.7521506e-05
1.9699452e-05
2.2289274e-05
2.5384507e-05
2.9100416e-05
3.3577881e-05
3.9287839e-05
4.5912675e-05
5.3963881e-05
6.3767942e-05
7.5728548e-05
9.0356305e-05
0.00010826572
0.00013020865
0.00015855949
0.00019179821
0.00023261649
0.00028276637
0.00034771723
0.00042402182
0.00051789889
0.00063345647
0.00077577414
0.00095115476
0.0011673809
0.0011811195
0.0011802341
0.0011793129
0.0011783585
0.0011773682
0.0011763326
0.0011752341
0.0011740519
0.0011727626
0.0011713489
0.0011700068
0.0011688647
0.0011678871
0.001167073
0.0011664312
0.0011660063
0.0011657626
0.0011658245
0.0011659321
0.0011658409
1.4156767e-07
8.492837e-06
4.6825477e-06
6.0410051e-06
4.3576147e-06
4.9457047e-06
4.9009339e-06
4.8711849e-06
5.3813697e-06
4.89039e-06
4.7881038e-06
4.6151224e-06
4.5358232e-06
4.5004046e-06
4.5094299e-06
4.5545852e-06
4.6327823e-06
4.7247606e-06
4.8604517e-06
5.0306813e-06
5.236618e-06
5.4801778e-06
5.764891e-06
6.0945431e-06
6.474831e-06
6.9114516e-06
7.4126645e-06
7.9645818e-06
8.6191615e-06
9.3726708e-06
1.0242094e-05
1.1249065e-05
1.242004e-05
1.3788255e-05
1.539337e-05
1.7284517e-05
1.9524792e-05
2.2191219e-05
2.5381192e-05
2.921598e-05
3.3843122e-05
3.9448467e-05
4.6256698e-05
5.4544513e-05
6.46527e-05
7.7646876e-05
9.2870658e-05
0.00011152341
0.00013439463
0.00016245705
0.00019875775
0.00024136912
0.00029374268
0.00035813023
0.00044150146
0.0005396129
0.00066039776
0.00080916606
0.00099252282
0.0011827338
0.0011817334
0.0011807158
0.0011796696
0.0011785948
0.001177488
0.0011763408
0.0011751377
0.00117386
0.0011724984
0.0011710758
0.0011698647
0.0011688339
0.0011679607
0.0011672347
0.0011666888
0.0011663272
0.0011661414
0.0011661213
0.0011661706
0.0011661462
1.3300734e-07
8.1763732e-06
3.936483e-06
5.2590249e-06
3.8918447e-06
4.3776985e-06
4.3641123e-06
4.2037244e-06
4.5291004e-06
4.1348494e-06
4.0371188e-06
3.9273859e-06
3.8849936e-06
3.8824102e-06
3.9181627e-06
3.9718451e-06
4.0632016e-06
4.1877663e-06
4.3448598e-06
4.5349557e-06
4.7599134e-06
5.022226e-06
5.3258996e-06
5.675044e-06
6.0620451e-06
6.5158746e-06
7.0350278e-06
7.6290807e-06
8.3100633e-06
9.0923076e-06
9.9932728e-06
1.1035517e-05
1.2246637e-05
1.3661207e-05
1.5321702e-05
1.7279155e-05
1.9600162e-05
2.2365517e-05
2.5676796e-05
2.9662695e-05
3.4476891e-05
4.0314895e-05
4.7416367e-05
5.607077e-05
6.6638588e-05
7.9561868e-05
9.6231386e-05
0.00011577672
0.00013975206
0.0001691906
0.00020533513
0.00025211666
0.00030710627
0.00037473284
0.00045791151
0.00056556205
0.00069248264
0.000848821
0.001041531
0.0011834
0.0011822832
0.0011811434
0.0011799812
0.0011787956
0.0011775816
0.0011763303
0.0011750295
0.0011736658
0.0011722413
0.0011709135
0.0011698107
0.0011688826
0.0011681081
0.0011674698
0.0011670029
0.0011666838
0.0011665107
0.0011664441
0.0011664817
0.0011665104
1.2569917e-07
7.7546761e-06
3.4700848e-06
4.5662652e-06
3.4786709e-06
3.7125468e-06
3.8909018e-06
3.5924082e-06
3.7576963e-06
3.4783647e-06
3.4018323e-06
3.3422143e-06
3.3336392e-06
3.3606606e-06
3.4042699e-06
3.4897391e-06
3.6071624e-06
3.7554078e-06
3.9347838e-06
4.1465631e-06
4.3932073e-06
4.677515e-06
4.9943234e-06
5.3638533e-06
5.7852741e-06
6.2653187e-06
6.8120761e-06
7.4354731e-06
8.1478035e-06
8.9643295e-06
9.9030961e-06
1.0987667e-05
1.2246948e-05
1.3717318e-05
1.5377708e-05
1.7397938e-05
1.9795547e-05
2.2655714e-05
2.6241651e-05
3.0408524e-05
3.5446755e-05
4.1561486e-05
4.9008728e-05
5.8093904e-05
6.9196366e-05
8.2785461e-05
9.9436585e-05
0.00011985532
0.00014620227
0.00017722081
0.0002153212
0.00026214017
0.0003227215
0.00039405144
0.0004818025
0.00059554504
0.00072949023
0.00089450654
0.0010979375
0.0011839826
0.0011827568
0.0011815061
0.0011802371
0.00117895
0.0011776397
0.0011762951
0.0011749046
0.0011734725
0.0011720374
0.0011708365
0.0011698319
0.0011689938
0.0011683
0.0011677589
0.0011673417
0.0011670574
0.0011668858
0.0011667959
0.0011668344
0.0011669014
1.1994147e-07
6.7920978e-06
3.0730204e-06
3.9378096e-06
3.1228194e-06
3.0984849e-06
3.4196333e-06
3.0388146e-06
3.0950888e-06
2.917536e-06
2.8701077e-06
2.8513441e-06
2.8651113e-06
2.9112237e-06
2.9931316e-06
3.106487e-06
3.2493593e-06
3.4217239e-06
3.6247098e-06
3.8600653e-06
4.1246726e-06
4.4314462e-06
4.7805954e-06
5.1769299e-06
5.6261899e-06
6.1353345e-06
6.7128264e-06
7.3689877e-06
8.1165157e-06
8.9516104e-06
9.9264277e-06
1.1050808e-05
1.2354898e-05
1.387646e-05
1.5662711e-05
1.7772665e-05
2.0279255e-05
2.3273745e-05
2.6869323e-05
3.1205761e-05
3.645652e-05
4.314365e-05
5.0983616e-05
6.0557965e-05
7.226623e-05
8.6604755e-05
0.00010418354
0.00012575284
0.00015363149
0.00018641657
0.00022670188
0.00027621624
0.00034036954
0.00041582984
0.00050868789
0.00062299694
0.00077100182
0.0009457474
0.0011612108
0.0011844732
0.001183147
0.0011817976
0.0011804316
0.0011790509
0.0011776529
0.0011762279
0.0011747617
0.0011732682
0.0011719339
0.0011708293
0.0011699131
0.0011691562
0.0011685319
0.0011680413
0.0011676837
0.00116743
0.0011672557
0.0011671557
0.0011671971
0.0011672726
1.1533791e-07
4.7500178e-06
2.7154936e-06
3.354694e-06
2.6711234e-06
2.5845063e-06
2.9228398e-06
2.5457726e-06
2.5434981e-06
2.4452806e-06
2.4307012e-06
2.4394613e-06
2.4840968e-06
2.5642439e-06
2.6755608e-06
2.8155757e-06
2.9836751e-06
3.1805675e-06
3.4047364e-06
3.6633252e-06
3.9575823e-06
4.2908939e-06
4.6673701e-06
5.092004e-06
5.5708152e-06
6.1110586e-06
6.7215428e-06
7.4018463e-06
8.1831894e-06
9.074243e-06
1.0095418e-05
1.1272068e-05
1.2636142e-05
1.4227754e-05
1.6097176e-05
1.8307042e-05
2.0935164e-05
2.4078313e-05
2.7856825e-05
3.241994e-05
3.7952474e-05
4.4682158e-05
5.3283928e-05
6.339638e-05
7.5770794e-05
9.0932628e-05
0.0001095282
0.00013235396
0.00016039091
0.00019659491
0.00023925996
0.00029171252
0.00035622422
0.00043968367
0.00053810243
0.00065928397
0.00081633923
0.0010017383
0.0011862873
0.0011848682
0.0011834509
0.0011820155
0.0011805636
0.0011790975
0.0011776169
0.0011761184
0.0011746064
0.0011731181
0.0011718967
0.0011708778
0.0011700358
0.0011693401
0.001168793
0.0011683411
0.0011680068
0.0011677776
0.0011676032
0.0011675041
0.0011675443
0.0011676015
1.1046263e-07
3.9450334e-06
2.3403535e-06
2.8177513e-06
2.3037497e-06
2.1556133e-06
2.4081582e-06
2.1127724e-06
2.0950356e-06
2.0575115e-06
2.0716688e-06
2.1148475e-06
2.1952873e-06
2.3060181e-06
2.4444824e-06
2.6097862e-06
2.802298e-06
3.021067e-06
3.2717645e-06
3.5557305e-06
3.875965e-06
4.2360992e-06
4.6404743e-06
5.0942761e-06
5.6037355e-06
6.1763784e-06
6.8137587e-06
7.5389706e-06
8.3606978e-06
9.2960687e-06
1.0366632e-05
1.1599285e-05
1.3027856e-05
1.4694862e-05
1.6653794e-05
1.8971599e-05
2.1731346e-05
2.5035936e-05
2.9013271e-05
3.3821345e-05
3.9656153e-05
4.709828e-05
5.584131e-05
6.6528957e-05
7.9615082e-05
9.565574e-05
0.00011533532
0.00013949696
0.00017074678
0.00020751331
0.0002527007
0.00030826693
0.00037662228
0.00046507377
0.00056939497
0.00069787918
0.0008644978
0.0010612453
0.0011866596
0.001185168
0.0011836704
0.0011821604
0.0011806349
0.0011790949
0.0011775418
0.0011759733
0.0011744101
0.00117305
0.0011719103
0.0011709636
0.0011701849
0.0011695402
0.0011690124
0.0011686211
0.0011683046
0.0011680807
0.0011679089
0.001167813
0.0011678462
0.001167869
1.0716856e-07
3.1769584e-06
2.0176901e-06
2.2765107e-06
2.001975e-06
1.788431e-06
1.9294502e-06
1.7453001e-06
1.7427673e-06
1.7539302e-06
1.797999e-06
1.8789153e-06
1.9900968e-06
2.1276185e-06
2.2904989e-06
2.4790415e-06
2.693188e-06
2.9366619e-06
3.2113225e-06
3.5199166e-06
3.8657278e-06
4.2525973e-06
4.6850285e-06
5.1683549e-06
5.708977e-06
6.310334e-06
6.9883593e-06
7.751892e-06
8.6152632e-06
9.5964613e-06
1.0718322e-05
1.2009374e-05
1.3505524e-05
1.5251839e-05
1.7304972e-05
1.9736135e-05
2.2634294e-05
2.6108595e-05
3.0295251e-05
3.536183e-05
4.1789031e-05
4.9347015e-05
5.857351e-05
6.9859486e-05
8.3683809e-05
0.00010063573
0.00012143922
0.00014698662
0.00017998407
0.00021885696
0.00026664428
0.00032541718
0.00039773277
0.00049126945
0.00060167
0.00073768275
0.00091409296
0.0011225489
0.0011869391
0.0011853813
0.0011838129
0.0011822372
0.0011806488
0.0011790459
0.0011774348
0.0011758348
0.0011742918
0.0011730263
0.0011719598
0.0011710685
0.0011703318
0.0011697396
0.0011692373
0.0011688437
0.001168554
0.0011683255
0.0011681525
0.0011680549
0.0011680659
0.00116805
1.0575743e-07
2.5032818e-06
1.7386247e-06
1.7568369e-06
1.724011e-06
1.4743534e-06
1.5384174e-06
1.4523173e-06
1.4803164e-06
1.5264563e-06
1.6090012e-06
1.7202623e-06
1.8567949e-06
2.0170629e-06
2.2013824e-06
2.4109477e-06
2.6467431e-06
2.912324e-06
3.2098358e-06
3.542287e-06
3.9131325e-06
4.3263557e-06
4.7865856e-06
5.2992776e-06
5.8709652e-06
6.5096018e-06
7.2250026e-06
8.029378e-06
8.9277142e-06
9.9552948e-06
1.1129193e-05
1.2479672e-05
1.4044862e-05
1.5872611e-05
1.8022788e-05
2.0654047e-05
2.3716604e-05
2.7391568e-05
3.1824187e-05
3.719349e-05
4.3719789e-05
5.1673769e-05
6.1389519e-05
7.3277866e-05
8.7844259e-05
0.00010571095
0.00012764262
0.00015593073
0.00018927408
0.00023024853
0.00028062542
0.00034258994
0.00042280563
0.00051736268
0.00063380206
0.00077729906
0.00096334953
0.0011834286
0.0011871379
0.0011855218
0.0011838921
0.0011822573
0.0011806148
0.0011789606
0.0011772933
0.00117565
0.0011742334
0.0011730337
0.0011720248
0.0011711777
0.0011704679
0.0011698903
0.0011694208
0.0011690247
0.0011687374
0.0011685
0.0011683171
0.0011682099
0.0011682012
0.0011681447
1.0728866e-07
1.9266449e-06
1.5059239e-06
1.3586219e-06
1.4405187e-06
1.2110085e-06
1.2520936e-06
1.2375414e-06
1.2980732e-06
1.3785128e-06
1.4894955e-06
1.6241443e-06
1.7811781e-06
1.9607399e-06
2.1640649e-06
2.392915e-06
2.6490724e-06
2.9355976e-06
3.2550488e-06
3.6105682e-06
4.0057147e-06
4.444567e-06
4.931859e-06
5.4731704e-06
6.0751926e-06
6.7460858e-06
7.4959576e-06
8.3374594e-06
9.2865284e-06
1.0363326e-05
1.1593338e-05
1.3008841e-05
1.4650495e-05
1.6569405e-05
1.8829511e-05
2.151053e-05
2.4711583e-05
2.8555897e-05
3.3195822e-05
3.8819773e-05
4.5660226e-05
5.4002838e-05
6.4196539e-05
7.6673076e-05
9.1962075e-05
0.00011163205
0.00013482545
0.00016330077
0.00019828093
0.00024127373
0.0002941361
0.00036253013
0.00044312859
0.00054232978
0.00066451188
0.00082303666
0.0010101982
0.0011889415
0.0011872685
0.0011856043
0.0011839257
0.0011822381
0.0011805447
0.0011788515
0.0011771692
0.0011755478
0.0011742059
0.0011730581
0.0011720864
0.0011712698
0.0011705869
0.0011700132
0.0011695506
0.0011691556
0.0011688529
0.0011686021
0.001168405
0.0011682778
0.001168227
0.0011681336
1.1291866e-07
1.4532574e-06
1.3168744e-06
1.0678647e-06
1.285461e-06
9.9249015e-07
1.0576919e-06
1.0952859e-06
1.1825963e-06
1.2905761e-06
1.4225024e-06
1.575326e-06
1.7494512e-06
1.9460243e-06
2.1667713e-06
2.4137164e-06
2.689163e-06
2.9954995e-06
3.3358526e-06
3.7133358e-06
4.1315857e-06
4.5947695e-06
5.1077285e-06
5.6761781e-06
6.3069837e-06
7.0085334e-06
7.7912395e-06
8.668222e-06
9.6560603e-06
1.0775821e-05
1.2054161e-05
1.3524927e-05
1.5230788e-05
1.7225408e-05
1.9575937e-05
2.2366114e-05
2.5699951e-05
2.9706271e-05
3.4544248e-05
4.0410226e-05
4.7870725e-05
5.6645279e-05
6.7365433e-05
8.0483884e-05
9.6556162e-05
0.00011626537
0.00014045207
0.00017015071
0.0002066311
0.00025381442
0.00030934719
0.00037762517
0.00046161646
0.00056499593
0.00069907737
0.00085717927
0.0010521971
0.0011890451
0.0011873406
0.0011856413
0.0011839288
0.0011822031
0.0011804644
0.0011787222
0.0011770143
0.0011754952
0.0011742013
0.0011730932
0.0011721462
0.001171343
0.0011706713
0.0011700996
0.0011696261
0.001169226
0.0011689025
0.001168633
0.001168417
0.0011682652
0.0011681746
0.0011680618
1.2328446e-07
1.1448925e-06
1.1540758e-06
9.275468e-07
9.3972304e-07
8.6770965e-07
9.2988591e-07
1.0094897e-06
1.1175173e-06
1.2449988e-06
1.3927773e-06
1.5606507e-06
1.7498516e-06
1.9619207e-06
2.198734e-06
2.4623853e-06
2.7552158e-06
3.079834e-06
3.4391625e-06
3.8364928e-06
4.2755635e-06
4.7606682e-06
5.296805e-06
5.8898906e-06
6.5470559e-06
7.2744501e-06
8.0866393e-06
8.9955539e-06
1.002737e-05
1.1190007e-05
1.25175e-05
1.4045397e-05
1.5818474e-05
1.7892961e-05
2.0339162e-05
2.3244616e-05
2.6717951e-05
3.0893596e-05
3.5937508e-05
4.2054253e-05
4.9495703e-05
5.8571727e-05
6.9663129e-05
8.3235682e-05
9.986402e-05
0.0001202536
0.00014656518
0.00017751698
0.00021551942
0.0002622022
0.00031957238
0.00039010804
0.000476869
0.00058918961
0.00072162401
0.00088479688
0.0010860569
0.0011891161
0.0011873795
0.0011856485
0.0011839104
0.001182163
0.0011804044
0.0011786426
0.0011769255
0.0011754697
0.0011742118
0.0011731304
0.0011721988
0.0011713995
0.0011707251
0.0011701456
0.0011696564
0.0011692426
0.0011688969
0.0011686062
0.0011683705
0.0011681956
0.0011680754
0.0011679587
1.4468818e-07
1.1848194e-06
9.9290103e-07
7.0703495e-07
7.6722233e-07
7.7527275e-07
8.5917361e-07
9.6153846e-07
1.0859593e-06
1.2282205e-06
1.3894899e-06
1.570699e-06
1.7733646e-06
1.9991408e-06
2.249932e-06
2.5278604e-06
2.8353007e-06
3.1749116e-06
3.5496783e-06
3.962967e-06
4.4185975e-06
4.9209483e-06
5.4751057e-06
6.087078e-06
6.7640993e-06
7.5150457e-06
8.3509865e-06
9.2858895e-06
1.0337514e-05
1.1528475e-05
1.2887519e-05
1.4451123e-05
1.6265294e-05
1.838782e-05
2.0890916e-05
2.3864454e-05
2.741988e-05
3.1694965e-05
3.6859617e-05
4.3123007e-05
5.074245e-05
6.0464371e-05
7.1905824e-05
8.5900736e-05
0.00010303974
0.00012404729
0.00014981467
0.0001814385
0.00022026864
0.00026796527
0.00032657837
0.00040231464
0.00049156913
0.00060135683
0.00073649649
0.00090298603
0.0011082987
0.0011892019
0.0011874317
0.0011856664
0.0011838984
0.0011821266
0.0011803511
0.0011785844
0.0011768938
0.0011754725
0.0011742355
0.0011731664
0.0011722401
0.0011714406
0.0011707526
0.0011701595
0.0011696531
0.0011692196
0.0011688523
0.0011685418
0.0011682891
0.0011680974
0.0011679605
0.0011678517
1.3786943e-07
7.8786538e-07
8.1345947e-07
6.025252e-07
6.6018359e-07
7.2090316e-07
8.2326174e-07
9.4237495e-07
1.0798634e-06
1.234742e-06
1.4082716e-06
1.6016679e-06
1.8164764e-06
2.0544175e-06
2.317436e-06
2.6077124e-06
2.9276909e-06
3.2800685e-06
3.6679712e-06
4.0948276e-06
4.5645456e-06
5.0815928e-06
5.6511469e-06
6.2793115e-06
6.9734261e-06
7.7424896e-06
8.5977231e-06
9.5532975e-06
1.0635918e-05
1.1855133e-05
1.3246252e-05
1.4846696e-05
1.6703593e-05
1.8876084e-05
2.1438e-05
2.448116e-05
2.8119344e-05
3.2493149e-05
3.7775937e-05
4.4181097e-05
5.1970933e-05
6.1467458e-05
7.3065596e-05
8.7251588e-05
0.00010462192
0.00012591002
0.00015201787
0.00018567041
0.00022529005
0.00027393304
0.00033368188
0.00040710034
0.00049735346
0.00060835622
0.00074496462
0.00091321964
0.0011206347
0.0011893499
0.0011875522
0.0011857561
0.001183956
0.0011821522
0.0011803489
0.0011785692
0.0011769159
0.001175507
0.0011742771
0.0011732086
0.001172279
0.0011714702
0.001170766
0.0011701534
0.0011696279
0.0011691761