/*--------------------------------*- C++ -*----------------------------------*\
  =========                 |
  \\      /  F ield         | OpenFOAM: The Open Source CFD Toolbox
   \\    /   O peration     | Website:  https://openfoam.org
    \\  /    A nd           | Version:  12
     \\/     M anipulation  |
\*---------------------------------------------------------------------------*/
FoamFile
{
    format      ascii;
    class       surfaceScalarField;
    location    "0.076";
    object      phi;
}
// * * * * * * * * * * * * * * * * * * * * * * * * * * * * * * * * * * * * * //

dimensions      [1 0 -1 0 0 0 0];

internalField   nonuniform List<scalar> 
31760
(
-0.00064241906
-0.050682953
0.051326876
-0.0016036469
-0.063992926
0.064956372
-0.0026007846
-0.062661331
0.063665155
-0.0036184389
-0.06828511
0.069304837
-0.0046920108
-0.069964107
0.071039708
-0.0057932293
-0.074198417
0.075301783
-0.0069655711
-0.077118171
0.078293035
-0.0081763242
-0.08110047
0.0823139
-0.0094481612
-0.084708648
0.085983323
-0.010778551
-0.088804037
0.09013744
-0.012164989
-0.092918279
0.094307907
-0.013618859
-0.097307738
0.098764984
-0.015134992
-0.10186103
0.10338073
-0.016721569
-0.10663944
0.10822979
-0.018378228
-0.11163198
0.11329263
-0.02010971
-0.11685514
0.11859083
-0.021918698
-0.12231693
0.12413036
-0.023808407
-0.12802871
0.12992312
-0.025782092
-0.13400141
0.13598006
-0.027843166
-0.14024624
0.14231256
-0.02999508
-0.14677549
0.14893296
-0.032241614
-0.15360107
0.15585347
-0.034586381
-0.16073647
0.16308744
-0.037033308
-0.16819531
0.1706488
-0.039585393
-0.17599201
0.17855104
-0.042247237
-0.18414061
0.1868098
-0.045022755
-0.19265724
0.19544053
-0.047915397
-0.20155839
0.20445926
-0.050928679
-0.2108609
0.21388288
-0.054066663
-0.22058272
0.22372992
-0.057332677
-0.23074267
0.23401844
-0.060730067
-0.24136046
0.24476818
-0.064261663
-0.25245745
0.25599999
-0.067930524
-0.26405464
0.26773511
-0.071738655
-0.276176
0.27999643
-0.07568773
-0.28884566
0.29280779
-0.079779094
-0.30208923
0.30619443
-0.084013236
-0.31593426
0.32018309
-0.088389988
-0.33040862
0.33480094
-0.092908052
-0.34554361
0.35007816
-0.097565443
-0.36137083
0.36604569
-0.10235875
-0.37792392
0.38273573
-0.10728339
-0.39523875
0.40018298
-0.11233358
-0.41335301
0.41842394
-0.11750162
-0.43230686
0.43749686
-0.12277842
-0.45214175
0.45744178
-0.12815248
-0.47290234
0.47830097
-0.13361097
-0.49463475
0.5001192
-0.13913848
-0.51738876
0.52294368
-0.14471685
-0.5412158
0.54682307
-0.15032518
-0.56616988
0.57180868
-0.15594011
-0.59230854
0.59795559
-0.16153444
-0.61969155
0.62531973
-0.16707741
-0.64838183
0.65396047
-0.17253474
-0.67844513
0.68394007
-0.17786674
-0.70995115
0.71532282
-0.18302956
-0.74297199
0.74817672
-0.18797409
-0.77758325
0.78257207
-0.19264424
-0.81386432
0.81858137
-0.19697823
-0.85189766
0.85628134
-0.20090645
-0.89176911
0.89574999
-0.20435163
-0.93356782
0.93706879
-0.20722721
-0.97738699
0.98032161
-0.20943694
-1.0233233
1.0255953
-0.21087348
-1.0714752
1.0729772
-0.21141775
-1.1219453
1.1225581
-0.21093538
-1.1748376
1.1744268
-0.20928215
-1.2302568
1.2286782
-0.20629163
-1.288314
1.2854013
-0.20177542
-1.3491191
1.3446841
-0.19552837
-1.4127853
1.4066219
-0.18732545
-1.4794407
1.4713211
-0.17690451
-1.5492662
1.5389221
-0.16399156
-1.6225199
1.6096677
-0.14819349
-1.6995985
1.6838355
-0.12951324
-1.7808539
1.7621811
-0.10651335
-1.8664926
1.8434742
-0.081259969
-1.9579416
1.9326679
-0.049408369
-2.051238
2.0193474
-2.1550457
2.1203411
-0.0006380186
-0.050043685
-0.0015051703
-0.063124131
-0.0023974088
-0.06176787
-0.0033568998
-0.067323768
-0.0043278441
-0.068991344
-0.0053754534
-0.073148876
-0.006438777
-0.076052635
-0.0075818875
-0.079955031
-0.0087512008
-0.083536865
-0.0099947528
-0.087557867
-0.011281649
-0.091628612
-0.012636056
-0.095950399
-0.014048183
-0.1004458
-0.015527043
-0.1051573
-0.017072885
-0.11008267
-0.018689874
-0.11523448
-0.020380232
-0.12062269
-0.022147756
-0.12625708
-0.023995695
-0.13214913
-0.025927663
-0.13830967
-0.027947349
-0.14475094
-0.030058042
-0.15148523
-0.032263878
-0.15852519
-0.034568579
-0.16588484
-0.036976971
-0.17357752
-0.039491903
-0.18161922
-0.042118095
-0.19002421
-0.044859316
-0.19880993
-0.047719876
-0.20799266
-0.050703378
-0.21759107
-0.05381393
-0.22762348
-0.057054896
-0.23811032
-0.06042961
-0.24907299
-0.06394109
-0.26053281
-0.067591796
-0.27251429
-0.071384085
-0.28504168
-0.07531917
-0.29814172
-0.079398598
-0.31184165
-0.083621763
-0.32617145
-0.087988311
-0.34116219
-0.092496689
-0.35684667
-0.097143853
-0.37325999
-0.1019255
-0.39043929
-0.10683663
-0.40842297
-0.11187026
-0.42725317
-0.11701792
-0.44697281
-0.12226949
-0.4676282
-0.1276125
-0.48926786
-0.13303279
-0.51194319
-0.13851395
-0.5357079
-0.14403681
-0.56061877
-0.14957949
-0.58673602
-0.15511697
-0.61412254
-0.16062116
-0.64284433
-0.16606021
-0.67297088
-0.17139807
-0.70457608
-0.17659453
-0.73773613
-0.18160435
-0.77253167
-0.18637657
-0.80904779
-0.19085477
-0.84737241
-0.19497543
-0.88759845
-0.19866784
-0.92982231
-0.20185276
-0.97414578
-0.20444313
-1.0206734
-0.20634079
-1.0695148
-0.20743811
-1.1207823
-0.20761111
-1.174596
-0.20672561
-1.2310707
-0.20463073
-1.2903342
-0.20115594
-1.3525161
-0.19611332
-1.417748
-0.1892902
-1.4861848
-0.18045139
-1.5580331
-0.16932516
-1.633591
-0.15563826
-1.7132557
-0.13910191
-1.7973882
-0.11913101
-1.8864833
-0.096283324
-1.9808206
-0.068361122
-2.0791945
-2.1861956
-0.00057629709
-0.049466183
-0.0013850905
-0.062313759
-0.0021927102
-0.06095926
-0.003096242
-0.066418483
-0.0039891043
-0.068096743
-0.0049672918
-0.072168814
-0.0059475799
-0.07507037
-0.0070109764
-0.078889561
-0.0080940423
-0.082451623
-0.0092496766
-0.086399936
-0.010445464
-0.090430402
-0.011705234
-0.094688073
-0.013020147
-0.099128192
-0.014398429
-0.10377617
-0.015840803
-0.10863729
-0.017350876
-0.11372122
-0.018932023
-0.11903818
-0.020587219
-0.12459833
-0.022320757
-0.13041183
-0.024135487
-0.13649096
-0.026035918
-0.1428463
-0.028025595
-0.1494911
-0.030108421
-0.15643764
-0.032289197
-0.16369907
-0.034571218
-0.1712902
-0.03695971
-0.17922511
-0.039458145
-0.18751981
-0.042071605
-0.19619014
-0.044803667
-0.20525387
-0.047659492
-0.2147281
-0.05064221
-0.22463316
-0.053756165
-0.23498828
-0.057005177
-0.24581537
-0.060391955
-0.25713687
-0.063920107
-0.26897639
-0.067591826
-0.28135959
-0.071409378
-0.29431313
-0.075373314
-0.30786596
-0.079484683
-0.32204758
-0.08374301
-0.33689056
-0.088146557
-0.35242896
-0.092693262
-0.3686982
-0.097379816
-0.38573667
-0.10220085
-0.40358483
-0.10715049
-0.42228534
-0.11222089
-0.44188306
-0.11740299
-0.46242556
-0.12268505
-0.48396399
-0.12805474
-0.50655038
-0.13349663
-0.5302415
-0.13899282
-0.55509662
-0.14452417
-0.58117717
-0.15006767
-0.60854992
-0.15559775
-0.63728342
-0.16108555
-0.66745043
-0.16649852
-0.6991285
-0.17180046
-0.73239748
-0.17694964
-0.76734349
-0.18190106
-0.80405492
-0.1866028
-0.84262657
-0.19099802
-0.88315628
-0.19502242
-0.92574793
-0.19860532
-0.9705098
-0.20166698
-1.0175555
-0.20411887
-1.0670037
-0.20586145
-1.1189775
-0.20678795
-1.1736045
-0.20677316
-1.2310176
-0.20567705
-1.2913595
-0.20334924
-1.3547703
-0.1996122
-1.4214098
-0.19427749
-1.4914461
-0.18712342
-1.5651223
-0.1779099
-1.6427571
-0.16638438
-1.7247588
-0.15223617
-1.8115409
-0.13516487
-1.9035812
-0.11511
-2.000911
-0.090982591
-2.1033553
-2.2136273
-0.00051977026
-0.048945428
-0.0012680303
-0.061564153
-0.0020031762
-0.060222574
-0.0028524758
-0.065567725
-0.003680073
-0.067267626
-0.0045913952
-0.071255833
-0.0054950417
-0.074165065
-0.0064850977
-0.077897756
-0.0074885246
-0.081446358
-0.0085635374
-0.08532298
-0.0096755332
-0.089316353
-0.010848627
-0.093512811
-0.012074976
-0.09789955
-0.013361852
-0.10248687
-0.014710972
-0.1072856
-0.01612613
-0.11230336
-0.017610647
-0.11755079
-0.019167926
-0.12303801
-0.020801464
-0.12877508
-0.022515627
-0.1347734
-0.024313612
-0.14104471
-0.026200498
-0.14760039
-0.028180218
-0.15445387
-0.030256783
-0.1616182
-0.032435369
-0.16910704
-0.03471995
-0.17693567
-0.037115585
-0.18511901
-0.039626634
-0.19367359
-0.042258563
-0.20261609
-0.04501475
-0.21196568
-0.047900336
-0.22174093
-0.050919694
-0.23196184
-0.05407653
-0.24265099
-0.057374734
-0.25383062
-0.060817723
-0.26552483
-0.064407967
-0.2777602
-0.068147693
-0.29056366
-0.072038829
-0.30396444
-0.076081745
-0.31799359
-0.080276511
-0.33268398
-0.084622555
-0.3480703
-0.089117258
-0.36419002
-0.093757886
-0.38108166
-0.098540174
-0.39878718
-0.10345832
-0.41735082
-0.10850598
-0.43681796
-0.11367365
-0.45723934
-0.11895259
-0.47866531
-0.12433026
-0.50115174
-0.12979326
-0.52475621
-0.13532623
-0.54953999
-0.14091087
-0.57556743
-0.14652725
-0.6029069
-0.15215286
-0.63162955
-0.15776099
-0.66181231
-0.16332366
-0.69353399
-0.1688078
-0.72687948
-0.17417703
-0.76193826
-0.17939067
-0.79880294
-0.18440287
-0.83757351
-0.1891626
-0.87835299
-0.19361276
-0.92125136
-0.19769005
-0.96638313
-0.20132328
-1.01387
-0.20443329
-1.0638385
-0.20693357
-1.1164193
-0.20872002
-1.1717573
-0.20968723
-1.229987
-0.20970604
-1.2912745
-0.20864143
-1.3557663
-0.20633571
-1.4236459
-0.20260569
-1.4951093
-0.19726357
-1.5704073
-0.19008544
-1.6498961
-0.18084251
-1.7339871
-0.16926153
-1.8231329
-0.1551043
-1.9177708
-0.1381469
-2.0179106
-0.11775891
-2.1237783
-2.2371467
-0.00046450276
-0.04848012
-0.0011654867
-0.060862059
-0.001823704
-0.059563307
-0.0026155043
-0.064774724
-0.0033675755
-0.066514235
-0.0042213095
-0.07040067
-0.0050589167
-0.073326073
-0.0059831956
-0.076972012
-0.0069163047
-0.080511707
-0.0079183134
-0.084319343
-0.0089561719
-0.088276773
-0.010052734
-0.092414429
-0.011202242
-0.096748119
-0.01241086
-0.10127622
-0.01368099
-0.10601332
-0.015015748
-0.11096632
-0.016418903
-0.11614522
-0.017894249
-0.1215601
-0.019445499
-0.12722111
-0.021076706
-0.13313931
-0.022792604
-0.13932575
-0.02459657
-0.14579317
-0.026494136
-0.15255284
-0.028489914
-0.15961874
-0.030588449
-0.16700459
-0.032795039
-0.17472491
-0.035114914
-0.18279469
-0.037553034
-0.19123073
-0.040114345
-0.20004973
-0.042804069
-0.20927056
-0.045627102
-0.21891214
-0.048587942
-0.22899485
-0.051690967
-0.2395414
-0.054940559
-0.25057403
-0.058339908
-0.262118
-0.061892131
-0.2742
-0.065599767
-0.2868475
-0.069464756
-0.30009034
-0.073487897
-0.3139607
-0.077669631
-0.32849181
-0.082008978
-0.34371978
-0.086504842
-0.3596822
-0.09115404
-0.37641966
-0.095953011
-0.39397453
-0.10089743
-0.41239179
-0.10598047
-0.43171933
-0.1111951
-0.45200809
-0.11653237
-0.47331034
-0.12198177
-0.49568348
-0.127532
-0.51918592
-0.13316881
-0.54388184
-0.13887703
-0.56983653
-0.14463889
-0.59712093
-0.15043436
-0.62580846
-0.15624139
-0.65597805
-0.16203451
-0.6877119
-0.16778488
-0.7210983
-0.17346153
-0.75622878
-0.17902828
-0.79320122
-0.18444564
-0.83211883
-0.18966847
-0.87309035
-0.19464697
-0.9162304
-0.19932504
-0.96165989
-0.20364049
-1.0095066
-0.20752358
-1.0599048
-0.21089485
-1.1129948
-0.21366992
-1.1689265
-0.21574324
-1.2278554
-0.21701309
-1.2899438
-0.21734334
-1.3553732
-0.21660091
-1.4243253
-0.21462462
-1.4970266
-0.2112376
-1.573746
-0.20624647
-1.6548574
-0.19943904
-1.7407886
-0.19058075
-1.8320106
-0.17946753
-1.9289248
-0.16583426
-2.0315928
-0.14925702
-2.1403922
-2.2565419
-0.00041515242
-0.048064319
-0.0010758673
-0.060200423
-0.0016719203
-0.058966382
-0.0024063245
-0.064039336
-0.003081875
-0.065837679
-0.003884076
-0.069597304
-0.004654036
-0.072554978
-0.0055181583
-0.076106688
-0.0063867696
-0.079641821
-0.0073276365
-0.083377134
-0.0083056583
-0.087297331
-0.0093402869
-0.091378296
-0.010427992
-0.095658818
-0.011573444
-0.10012908
-0.012779491
-0.10480548
-0.014050011
-0.10969389
-0.01538853
-0.11480468
-0.016798946
-0.12014754
-0.018285776
-0.125732
-0.019853035
-0.13156962
-0.021505834
-0.13767037
-0.023249002
-0.14404725
-0.025087693
-0.15071122
-0.027027025
-0.15767629
-0.029072617
-0.16495567
-0.031230285
-0.17256369
-0.03350477
-0.18051641
-0.035902373
-0.18882907
-0.038428393
-0.19751937
-0.041088204
-0.20660612
-0.043887389
-0.216108
-0.046830524
-0.22604643
-0.049922996
-0.23644327
-0.053168108
-0.24732286
-0.056570368
-0.25870927
-0.060133121
-0.27063032
-0.063858588
-0.28311462
-0.067748784
-0.2961922
-0.071805298
-0.30989567
-0.07602826
-0.3242597
-0.080417643
-0.33932058
-0.084971555
-0.35511775
-0.089688398
-0.37169153
-0.094565078
-0.38908577
-0.099596713
-0.40734724
-0.10477841
-0.42652383
-0.11010463
-0.44666715
-0.11556676
-0.4678325
-0.12115708
-0.4900764
-0.1268645
-0.51346066
-0.13267866
-0.53804868
-0.1385859
-0.56390906
-0.1445715
-0.59111381
-0.15061871
-0.61973836
-0.15670856
-0.64986384
-0.16281967
-0.68157487
-0.16892874
-0.71496161
-0.17500818
-0.75011992
-0.18102805
-0.78714997
-0.18695391
-0.82615949
-0.19274825
-0.86726028
-0.1983679
-0.91057267
-0.20376496
-0.9562223
-0.20888536
-1.0043432
-0.21366847
-1.0550763
-0.21804598
-1.1085696
-0.22194109
-1.1649814
-0.22526945
-1.2244746
-0.2279277
-1.2872309
-0.22981174
-1.3534331
-0.23079196
-1.4232897
-0.23072941
-1.4970388
-0.22946779
-1.574969
-0.22683425
-1.6574711
-0.22264149
-1.7449852
-0.21669189
-1.8379893
-0.20879395
-1.936873
-0.19870305
-2.0417386
-0.18609847
-2.1530315
-2.2715947
-0.00037234872
-0.047691454
-0.0010021467
-0.05956987
-0.0015438013
-0.058424019
-0.002231248
-0.063351092
-0.0028491897
-0.065218917
-0.0036025853
-0.068843
-0.0043171597
-0.071839494
-0.0051204434
-0.075302436
-0.0059473379
-0.078813892
-0.0068420112
-0.082481361
-0.0077738382
-0.086364336
-0.0087586839
-0.090392211
-0.009796249
-0.094619937
-0.010890604
-0.099033323
-0.012045833
-0.10364876
-0.013265446
-0.1084727
-0.014554321
-0.11351413
-0.015916572
-0.1187835
-0.017357013
-0.12428965
-0.018881051
-0.13004355
-0.020493301
-0.13605595
-0.022199973
-0.14233827
-0.024006286
-0.14890244
-0.025917935
-0.155762
-0.02794127
-0.16292952
-0.030081927
-0.17042002
-0.032346783
-0.17824833
-0.034741388
-0.18643102
-0.037271465
-0.19498561
-0.039943603
-0.20393003
-0.042762798
-0.21328458
-0.045734628
-0.22307007
-0.048863763
-0.23330929
-0.052155315
-0.24402612
-0.055612346
-0.25524668
-0.059238533
-0.26699816
-0.063037006
-0.27930973
-0.067009478
-0.29221284
-0.071157115
-0.30574062
-0.075480624
-0.31992822
-0.079980041
-0.33481259
-0.084654217
-0.35043438
-0.089501714
-0.36683417
-0.09451952
-0.38405741
-0.099704877
-0.40215059
-0.10505342
-0.42116322
-0.11055989
-0.44114778
-0.11621899
-0.46215963
-0.12202301
-0.4842577
-0.12796477
-0.50750325
-0.13403454
-0.53196225
-0.14022224
-0.55770362
-0.14651651
-0.58480066
-0.15290356
-0.61333123
-0.1593686
-0.64337743
-0.1658942
-0.67502651
-0.17246151
-0.70837008
-0.17904858
-0.74350704
-0.1856306
-0.78054044
-0.19218016
-0.81958059
-0.19866529
-0.86074384
-0.20505093
-0.90415367
-0.21129673
-0.94994106
-0.21735769
-0.99824471
-0.22318281
-1.0492116
-0.2287137
-1.102997
-0.233885
-1.1597663
-0.23862341
-1.2196904
-0.24284192
-1.2829647
-0.24644495
-1.3497815
-0.24932771
-1.4203601
-0.25136432
-1.4949616
-0.25241673
-1.5738886
-0.25234216
-1.6575368
-0.25097249
-1.7463695
-0.24813886
-1.840863
-0.24368102
-1.9413914
-0.23736435
-2.0481158
-0.22894968
-2.1614773
-2.2820626
-0.00032860917
-0.047362441
-0.00093252508
-0.058965339
-0.0014247908
-0.057931184
-0.0020667438
-0.062708497
-0.0026404966
-0.064644505
-0.0033672902
-0.068115511
-0.0040488345
-0.071157196
-0.0048388492
-0.074511637
-0.0056258969
-0.078025993
-0.0064738321
-0.081632527
-0.0073629221
-0.085474292
-0.0083045496
-0.08944957
-0.0093012389
-0.09362217
-0.010356426
-0.097976991
-0.011474557
-0.10252941
-0.012660214
-0.10728574
-0.013917366
-0.11225559
-0.015251991
-0.1174474
-0.016668924
-0.12287114
-0.018173842
-0.12853695
-0.019772582
-0.13445541
-0.021471141
-0.14063779
-0.023275819
-0.1470957
-0.02519384
-0.15384178
-0.027230664
-0.16089033
-0.02939375
-0.1682544
-0.031689216
-0.17595015
-0.034123862
-0.18399347
-0.036704164
-0.1924022
-0.039436149
-0.20119471
-0.042325517
-0.21039163
-0.045377974
-0.22001378
-0.048598617
-0.23008453
-0.051991478
-0.24062884
-0.055560776
-0.25167262
-0.059310008
-0.26324381
-0.063241366
-0.27537286
-0.067357135
-0.28809112
-0.071658702
-0.30143264
-0.076146715
-0.31543331
-0.08082112
-0.33013078
-0.085682036
-0.34556551
-0.09072754
-0.36178014
-0.09595624
-0.37881958
-0.10136584
-0.39673123
-0.10695323
-0.41556541
-0.11271503
-0.43537485
-0.1186472
-0.45621559
-0.12474479
-0.47814745
-0.1310023
-0.50123227
-0.13741362
-0.52553659
-0.14397096
-0.55113104
-0.15066622
-0.5780892
-0.15748965
-0.60649059
-0.16443052
-0.63641827
-0.17147641
-0.66796119
-0.17861254
-0.70121329
-0.18582267
-0.73627494
-0.19308815
-0.77325156
-0.20038747
-0.81225635
-0.20769616
-0.85340861
-0.21498635
-0.89683526
-0.22222595
-0.94267152
-0.22937908
-0.99105996
-0.23640367
-1.0421537
-0.24325295
-1.0961128
-0.24987232
-1.1531103
-0.25619861
-1.2133257
-0.26216273
-1.2769608
-0.26768707
-1.3442173
-0.27267059
-1.4153393
-0.27701721
-1.490585
-0.28060485
-1.5702845
-0.28331166
-1.6548329
-0.28500111
-1.7447066
-0.28553405
-1.8403818
-0.28476786
-1.9422282
-0.28248961
-2.0504589
-0.27853421
-2.1654599
-2.2876667
-0.00028672354
-0.047075406
-0.00087181499
-0.058379747
-0.0013238937
-0.057478653
-0.0019433834
-0.062088495
-0.0024944796
-0.064092882
-0.0031978085
-0.067411674
-0.0038511926
-0.070503206
-0.0046164398
-0.073745749
-0.0053731791
-0.077268575
-0.0061890674
-0.080815917
-0.0070513591
-0.084611232
-0.0079667517
-0.088533361
-0.0089401251
-0.092647926
-0.0099749106
-0.096941278
-0.01107619
-0.10142714
-0.012248797
-0.10611208
-0.0134984
-0.11100486
-0.014830412
-0.11611418
-0.016250837
-0.12144942
-0.017766438
-0.12701997
-0.01938324
-0.13283713
-0.021108749
-0.13891069
-0.022949314
-0.14525343
-0.024912292
-0.15187697
-0.027005223
-0.15879544
-0.029234845
-0.16602268
-0.031608639
-0.1735741
-0.034133413
-0.18146627
-0.03681555
-0.18971745
-0.03966179
-0.19834567
-0.042678132
-0.20737227
-0.045869578
-0.21681908
-0.049240956
-0.22670965
-0.052797025
-0.237069
-0.056541433
-0.24792414
-0.060476933
-0.25930392
-0.064606424
-0.27123863
-0.068931817
-0.28376062
-0.073454224
-0.29690474
-0.078174822
-0.3107068
-0.083093738
-0.32520551
-0.088210796
-0.34044164
-0.093525888
-0.35645777
-0.099038541
-0.37329915
-0.10474728
-0.39101418
-0.1106509
-0.40965293
-0.11674756
-0.42926875
-0.12303533
-0.44991778
-0.12951198
-0.47166013
-0.13617427
-0.49455865
-0.14301921
-0.51867964
-0.15004284
-0.54409469
-0.15724025
-0.57087832
-0.16460629
-0.59911029
-0.17213415
-0.62887532
-0.1798163
-0.66026307
-0.18764303
-0.69336965
-0.19560435
-0.7282957
-0.20368712
-0.76514977
-0.21187644
-0.80404682
-0.2201554
-0.84510821
-0.2285038
-0.88846415
-0.23689832
-0.93425302
-0.24531122
-0.98262183
-0.25371179
-1.0337267
-0.26206279
-1.0877341
-0.27032277
-1.1448212
-0.27844025
-1.2051779
-0.28636075
-1.2690094
-0.29401535
-1.3365325
-0.30133287
-1.4079951
-0.308226
-1.4836735
-0.31460053
-1.5639057
-0.32035109
-1.6490978
-0.32537091
-1.7397258
-0.32954977
-1.8362666
-0.33276346
-1.9390939
-0.33483468
-2.0484557
-0.33563717
-2.1646835
-2.2880779
-0.00024799023
-0.046827188
-0.00082165419
-0.057805685
-0.0012429278
-0.05705703
-0.0018884628
-0.061442547
-0.0024242289
-0.063556701
-0.0031042589
-0.066731182
-0.00373498
-0.069872019
-0.0044572507
-0.073022944
-0.0052011801
-0.076524112
-0.0060015726
-0.080014957
-0.0068541047
-0.083758094
-0.007761617
-0.087625202
-0.0087312463
-0.091677605
-0.0097669315
-0.095904853
-0.010874433
-0.10031885
-0.012059509
-0.10492615
-0.013328392
-0.10973506
-0.014687754
-0.11475384
-0.01614437
-0.11999176
-0.017704932
-0.12545828
-0.019378022
-0.13116283
-0.021170058
-0.13711735
-0.023089849
-0.14333224
-0.025144621
-0.14982069
-0.027342134
-0.15659631
-0.029690403
-0.16367266
-0.032196744
-0.17106588
-0.034868042
-0.17879294
-0.037711601
-0.1868717
-0.040733307
-0.1953216
-0.043938665
-0.20416437
-0.047333243
-0.21342175
-0.050921399
-0.22311852
-0.054707275
-0.23327991
-0.058694117
-0.24393383
-0.062884723
-0.25510956
-0.067281338
-0.26683797
-0.071885698
-0.2791519
-0.076699604
-0.29208614
-0.081723812
-0.30567756
-0.086959331
-0.31996461
-0.092407039
-0.33498819
-0.098067529
-0.35079115
-0.10394094
-0.36741921
-0.11002826
-0.38491993
-0.11633013
-0.40334369
-0.1228467
-0.42274437
-0.12957859
-0.44317762
-0.13652621
-0.46470378
-0.14369
-0.48738567
-0.15106947
-0.51129048
-0.15866512
-0.53648886
-0.1664758
-0.56305694
-0.17450037
-0.59107449
-0.1827372
-0.62062671
-0.19118345
-0.65180446
-0.19983572
-0.68470439
-0.20868888
-0.71942886
-0.21773698
-0.75608727
-0.22697224
-0.79479636
-0.23638433
-0.83568011
-0.24596168
-0.87886999
-0.25568949
-0.9245076
-0.26555035
-0.97274262
-0.27552252
-1.0237354
-0.28558047
-1.0776563
-0.2956934
-1.1346877
-0.30582629
-1.1950238
-0.31593492
-1.2588796
-0.32597093
-1.3264768
-0.33587903
-1.3980719
-0.34558568
-1.4739607
-0.35502236
-1.5544775
-0.36410988
-1.6400382
-0.37276946
-1.7311174
-0.38091197
-1.8281989
-0.38843933
-1.9316538
-0.39519455
-2.041773
-0.40110385
-2.1588034
-2.2829038
-0.0002142265
-0.046612806
-0.00078868343
-0.057230919
-0.0011870212
-0.056658433
-0.0018472657
-0.060781968
-0.0023605615
-0.063043093
-0.003033686
-0.066057708
-0.0036577946
-0.069247554
-0.0043758953
-0.072304468
-0.0051222575
-0.075777342
-0.0059229951
-0.079213782
-0.0067832926
-0.082897328
-0.0077032867
-0.086704705
-0.0086914401
-0.090688911
-0.0097525624
-0.09484315
-0.010893314
-0.099177471
-0.012120395
-0.1036984
-0.013440961
-0.10841377
-0.014862319
-0.1133317
-0.016392858
-0.11846038
-0.018040454
-0.12380977
-0.019813318
-0.12938898
-0.021720293
-0.13520931
-0.023769443
-0.14128195
-0.025969389
-0.14761951
-0.02832875
-0.1542356
-0.03085483
-0.16114513
-0.033555364
-0.16836377
-0.036437539
-0.17590906
-0.039508014
-0.18379938
-0.042771934
-0.19205568
-0.046235637
-0.2006985
-0.049902911
-0.20975213
-0.053778471
-0.21924042
-0.057865055
-0.22919058
-0.062165458
-0.23963046
-0.066682607
-0.25058921
-0.07141844
-0.26209869
-0.076374526
-0.27419212
-0.081552656
-0.28690406
-0.086954703
-0.3002713
-0.092582267
-0.31433256
-0.098437236
-0.32912845
-0.10452138
-0.34470195
-0.11083742
-0.36109783
-0.11738782
-0.37836389
-0.12417509
-0.39655048
-0.13120304
-0.41571019
-0.13847433
-0.43589981
-0.14599314
-0.45717816
-0.15376301
-0.47960871
-0.161788
-0.50325813
-0.17007127
-0.52819796
-0.17861695
-0.55450339
-0.18742865
-0.58225466
-0.19650926
-0.61153773
-0.2058616
-0.6424435
-0.21548812
-0.67506896
-0.22538999
-0.7095178
-0.2355677
-0.74590003
-0.24602036
-0.78433383
-0.2567468
-0.82494346
-0.26774265
-0.86786362
-0.2790026
-0.91323688
-0.29051879
-0.96121545
-0.30228044
-1.0119626
-0.31427349
-1.0656519
-0.32648024
-1.1224695
-0.33887656
-1.1826162
-0.35143801
-1.2463076
-0.36413008
-1.3137767
-0.37690888
-1.3852903
-0.38973606
-1.4611402
-0.40255257
-1.5416821
-0.41530578
-1.6273249
-0.4279428
-1.7185424
-0.44041709
-1.8158088
-0.45263658
-1.9195292
-0.46447587
-2.0300118
-0.47587499
-2.1474304
-2.271725
-0.00019327229
-0.046419439
-0.00078723923
-0.056636718
-0.0011820166
-0.056263472
-0.0018339494
-0.060129811
-0.0023406162
-0.062536202
-0.0030171931
-0.065380881
-0.0036565123
-0.068607971
-0.0043812078
-0.071579485
-0.0051494132
-0.07500883
-0.0059716085
-0.078391257
-0.0068614176
-0.082007162
-0.0078180771
-0.085747661
-0.0088511425
-0.08965543
-0.0099666695
-0.093727173
-0.011172357
-0.097971296
-0.012476064
-0.10239417
-0.013886196
-0.10700307
-0.015411532
-0.11180574
-0.017060645
-0.11681059
-0.018843402
-0.12202628
-0.020768524
-0.12746306
-0.022845576
-0.13313139
-0.025083275
-0.1390433
-0.027490602
-0.14521115
-0.03007595
-0.15164913
-0.032847252
-0.1583726
-0.035811393
-0.16539829
-0.038975377
-0.17274363
-0.042344543
-0.18042864
-0.045924774
-0.18847373
-0.049719788
-0.19690162
-0.05373365
-0.20573626
-0.057969616
-0.21500228
-0.062430228
-0.22472761
-0.067117943
-0.2349402
-0.072034999
-0.24566943
-0.077183114
-0.25694766
-0.082564788
-0.26880734
-0.088182019
-0.28128353
-0.094037602
-0.29441222
-0.10013451
-0.30823196
-0.10647622
-0.32278288
-0.11306697
-0.33810713
-0.11991115
-0.35424941
-0.12701372
-0.3712569
-0.13438078
-0.38917885
-0.14201829
-0.40806797
-0.14993306
-0.42798021
-0.15813201
-0.44897429
-0.16662283
-0.4711129
-0.17541328
-0.49446265
-0.18451209
-0.51909413
-0.19392723
-0.54508325
-0.20366737
-0.57250959
-0.2137406
-0.60145965
-0.22415609
-0.63202326
-0.23492144
-0.66429898
-0.24604476
-0.69838996
-0.2575337
-0.73440671
-0.26939538
-0.77246791
-0.28163566
-0.81269912
-0.29425991
-0.85523556
-0.30727205
-0.90022128
-0.3206743
-0.94781015
-0.33446724
-0.99816707
-0.34864862
-1.0514684
-0.3632132
-1.1079034
-0.37815229
-1.1676765
-0.39345732
-1.2310037
-0.40910613
-1.2981322
-0.42508291
-1.3693237
-0.44135654
-1.4448864
-0.45790125
-1.525171
-0.4746911
-1.6105859
-0.49169879
-1.7016061
-0.50890201
-1.7986981
-0.52624267
-1.9022911
-0.5436223
-2.0127136
-0.56097828
-2.1300917
-2.2541176
-0.0001745683
-0.046244823
-0.00079673158
-0.056014379
-0.0011976526
-0.055862426
-0.0018616114
-0.059465681
-0.0023807576
-0.062016898
-0.0030721673
-0.064689291
-0.0037416547
-0.067938295
-0.0044898092
-0.070831125
-0.0052978511
-0.074200565
-0.0061637376
-0.077525128
-0.0071070306
-0.081063605
-0.0081276908
-0.084726712
-0.009236013
-0.088546792
-0.010439681
-0.09252316
-0.011747704
-0.096662894
-0.013169358
-0.1009721
-0.014714334
-0.10545763
-0.016392665
-0.11012691
-0.018214543
-0.11498816
-0.020189811
-0.12005041
-0.022328778
-0.12532342
-0.024640939
-0.1308185
-0.027135374
-0.13654806
-0.029821148
-0.14252449
-0.032705917
-0.14876339
-0.035796852
-0.15528061
-0.039101037
-0.16209295
-0.042623231
-0.16922017
-0.046368561
-0.17668193
-0.050340872
-0.18449993
-0.054543521
-0.19269735
-0.058979512
-0.20129851
-0.063650202
-0.21032969
-0.068558835
-0.21981694
-0.073706886
-0.22978998
-0.079096368
-0.24027764
-0.08473025
-0.25131134
-0.09061091
-0.2629241
-0.096742641
-0.27514909
-0.10312934
-0.28802269
-0.10977579
-0.30158257
-0.11668768
-0.31586795
-0.12387185
-0.33091983
-0.13133539
-0.34678269
-0.13908651
-0.36350255
-0.14713435
-0.38112777
-0.15548843
-0.39971067
-0.16415911
-0.41930638
-0.17315778
-0.43997257
-0.1824959
-0.46177189
-0.1921861
-0.48476978
-0.20224055
-0.50903729
-0.21267345
-0.5346483
-0.22349799
-0.5616834
-0.23472886
-0.59022757
-0.24637987
-0.62037153
-0.25846633
-0.65221235
-0.27100275
-0.68585394
-0.28400389
-0.72140659
-0.29748532
-0.75898819
-0.31146103
-0.79872589
-0.32594567
-0.84075427
-0.34095328
-0.88521802
-0.35649683
-0.93227201
-0.37258785
-0.98208262
-0.3892371
-1.0348269
-0.4064535
-1.0906961
-0.42424459
-1.1498963
-0.44261187
-1.2126498
-0.46155838
-1.2792031
-0.48108179
-1.349824
-0.50117958
-1.4248219
-0.52184537
-1.5045511
-0.54307312
-1.5894195
-0.56487705
-1.6798822
-0.58725723
-1.7764188
-0.61019895
-1.8794597
-0.63362507
-1.9893708
-0.65749112
-2.1062435
-2.2296219
-0.00016054813
-0.046084266
-0.00082436933
-0.05535043
-0.0012388532
-0.055447867
-0.0019325951
-0.058771826
-0.0024818007
-0.061467591
-0.0032017183
-0.063969251
-0.0039218578
-0.067218027
-0.00471458
-0.070038259
-0.0055854302
-0.073329556
-0.0065221171
-0.076588266
-0.0075481364
-0.08003739
-0.0086656115
-0.08360902
-0.0098858911
-0.08732627
-0.011218709
-0.091190072
-0.012674585
-0.095206716
-0.014264525
-0.099381819
-0.015999585
-0.1037222
-0.017890905
-0.10823517
-0.019949502
-0.11292909
-0.022186062
-0.11781333
-0.024610564
-0.12289835
-0.027232799
-0.12819562
-0.03006181
-0.13371834
-0.033104982
-0.13948054
-0.0363697
-0.14549781
-0.039861806
-0.15178755
-0.043586062
-0.15836766
-0.047546716
-0.16525839
-0.051746851
-0.17248057
-0.056188787
-0.18005666
-0.060874288
-0.18801041
-0.065805471
-0.19636578
-0.070983842
-0.20514967
-0.076411233
-0.2143878
-0.082090215
-0.22410915
-0.08802356
-0.23434235
-0.094214847
-0.24511802
-0.10066928
-0.25646757
-0.10739136
-0.26842484
-0.11438829
-0.28102355
-0.1216671
-0.29430152
-0.12923725
-0.30829555
-0.13710734
-0.32304751
-0.14528834
-0.33859951
-0.15379239
-0.35499642
-0.16263133
-0.37228689
-0.17181903
-0.39052122
-0.18137017
-0.40975375
-0.19129968
-0.4300419
-0.20162416
-0.45144665
-0.21236017
-0.47403349
-0.22352632
-0.49787144
-0.2351404
-0.52303518
-0.24722193
-0.54960358
-0.2597914
-0.57766064
-0.27286938
-0.60729701
-0.28647706
-0.63860914
-0.30063727
-0.67169928
-0.31537247
-0.70667812
-0.33070543
-0.74366323
-0.34666014
-0.7827806
-0.36326093
-0.82416445
-0.38053191
-0.86795971
-0.39849683
-0.91432158
-0.41718074
-0.96341511
-0.43660699
-1.0154191
-0.45679845
-1.0705253
-0.47777733
-1.1289407
-0.49956351
-1.1908903
-0.5221797
-1.2566182
-0.54564333
-1.3263983
-0.56997125
-1.400541
-0.59518373
-1.4793973
-0.62130893
-1.5633667
-0.64837952
-1.6529018
-0.67643739
-1.7484718
-0.70549418
-1.8505214
-0.73553062
-1.9594234
-0.76651771
-2.0752904
-2.1976533
-0.00015248447
-0.0459318
-0.00087666122
-0.054626165
-0.0013100065
-0.055014485
-0.0020473951
-0.058034364
-0.002647367
-0.060867559
-0.0034138119
-0.063202727
-0.0042075656
-0.066424189
-0.0050696023
-0.069176125
-0.0060288266
-0.07237022
-0.0070675117
-0.075549452
-0.0082112377
-0.078893517
-0.0094656617
-0.082354428
-0.010843614
-0.085948124
-0.012356847
-0.089676619
-0.014017657
-0.093545655
-0.015838291
-0.097560899
-0.017830951
-0.10172921
-0.020007395
-0.10605836
-0.022379
-0.11055707
-0.02495636
-0.1152355
-0.027749361
-0.12010482
-0.030766522
-0.12517788
-0.034015309
-0.1304689
-0.037502377
-0.13599275
-0.04123232
-0.14176707
-0.045209397
-0.1478096
-0.049435757
-0.15414034
-0.053913544
-0.16077956
-0.058644183
-0.1677488
-0.063628418
-0.17507121
-0.06886756
-0.18276998
-0.074362533
-0.19086944
-0.080115574
-0.19939519
-0.086128964
-0.2083729
-0.092406642
-0.2178299
-0.09895264
-0.22779473
-0.10577328
-0.23829573
-0.11287485
-0.24936433
-0.12026645
-0.26103158
-0.12795663
-0.27333173
-0.13595719
-0.28629937
-0.14427885
-0.29997239
-0.15293544
-0.31438955
-0.16194151
-0.32959226
-0.17131199
-0.34562498
-0.18106363
-0.3625346
-0.19121415
-0.38037043
-0.20178225
-0.39918584
-0.21278802
-0.41903687
-0.22425195