/*--------------------------------*- C++ -*----------------------------------*\
  =========                 |
  \\      /  F ield         | OpenFOAM: The Open Source CFD Toolbox
   \\    /   O peration     | Website:  https://openfoam.org
    \\  /    A nd           | Version:  12
     \\/     M anipulation  |
\*---------------------------------------------------------------------------*/
FoamFile
{
    format      ascii;
    class       volScalarField;
    location    "0.076";
    object      rho;
}
// * * * * * * * * * * * * * * * * * * * * * * * * * * * * * * * * * * * * * //

dimensions      [1 -3 0 0 0 0 0];

internalField   nonuniform List<scalar> 
16000
(
1.0579106
1.0901219
1.0781352
1.0862782
1.0825006
1.0858743
1.0849182
1.0867047
1.0868557
1.088044
1.088688
1.0896886
1.0905558
1.0915403
1.0925246
1.0935604
1.0946283
1.0957357
1.0968808
1.0980644
1.0992866
1.1005472
1.101846
1.1031826
1.1045562
1.1059661
1.1074109
1.1088894
1.1103998
1.11194
1.113508
1.115101
1.1167164
1.1183509
1.1200012
1.1216638
1.1233347
1.1250101
1.1266857
1.1283574
1.1300207
1.1316714
1.1333052
1.1349179
1.1365054
1.1380638
1.1395893
1.1410785
1.1425283
1.1439356
1.1452979
1.1466129
1.1478786
1.1490933
1.1502557
1.1513646
1.1524191
1.1534187
1.1543628
1.1552511
1.1560834
1.1568595
1.1575795
1.1582433
1.1588507
1.159402
1.159897
1.1603362
1.1607201
1.1610501
1.1613287
1.1615627
1.1617665
1.1619631
1.1621824
1.1624501
1.1629274
1.1628308
1.1645234
1.1626745
1.0547087
1.0874369
1.074845
1.0835323
1.0795305
1.08317
1.0821091
1.0840652
1.0842083
1.0854977
1.086192
1.0872668
1.0882068
1.0892647
1.0903284
1.0914441
1.092596
1.0937898
1.0950241
1.0962995
1.0976158
1.0989727
1.1003698
1.1018062
1.1032809
1.1047927
1.1063401
1.107921
1.1095334
1.1111749
1.1128426
1.1145335
1.1162441
1.117971
1.1197101
1.1214573
1.1232084
1.1249588
1.1267041
1.1284396
1.1301607
1.1318629
1.1335418
1.1351931
1.1368129
1.1383973
1.1399428
1.1414463
1.1429049
1.144316
1.1456776
1.1469878
1.1482453
1.1494487
1.1505972
1.1516902
1.1527274
1.1537084
1.1546334
1.1555022
1.156315
1.1570719
1.1577731
1.1584189
1.1590094
1.1595448
1.1600254
1.1604518
1.160825
1.1611462
1.1614184
1.1616489
1.1618521
1.1620496
1.1622717
1.162578
1.1629234
1.1631245
1.1643333
1.1629478
1.0517916
1.084977
1.0720325
1.0809952
1.0768564
1.0806971
1.0796066
1.0816817
1.0818665
1.0832386
1.0840063
1.0851572
1.0861822
1.0873223
1.0884757
1.089682
1.0909284
1.092219
1.0935529
1.0949301
1.0963502
1.0978126
1.0993164
1.1008606
1.1024436
1.1040639
1.1057194
1.1074076
1.109126
1.1108715
1.1126408
1.1144301
1.1162355
1.1180528
1.1198775
1.1217049
1.1235301
1.1253482
1.1271544
1.1289436
1.1307112
1.1324524
1.1341629
1.1358384
1.1374752
1.1390697
1.1406188
1.1421197
1.1435701
1.1449681
1.146312
1.1476008
1.1488335
1.1500095
1.1511287
1.1521908
1.1531962
1.154145
1.1550375
1.1558743
1.1566558
1.1573824
1.1580545
1.1586725
1.1592369
1.1597481
1.1602065
1.1606129
1.1609686
1.1612751
1.1615358
1.1617585
1.1619575
1.1621542
1.1623849
1.1626929
1.1629977
1.1633345
1.1642472
1.1631632
1.0491926
1.0827531
1.0694003
1.0787095
1.0744388
1.078514
1.077401
1.0796132
1.0798484
1.0813163
1.0821711
1.0834099
1.0845342
1.0857696
1.0870258
1.0883353
1.0896883
1.0910874
1.0925319
1.0940214
1.0955553
1.0971327
1.0987523
1.1004127
1.102112
1.103848
1.105618
1.1074193
1.1092484
1.1111015
1.1129747
1.1148636
1.1167634
1.1186692
1.1205758
1.122478
1.1243704
1.1262477
1.1281045
1.1299358
1.1317366
1.1335023
1.1352287
1.1369117
1.138548
1.1401345
1.1416685
1.1431479
1.1445712
1.1459369
1.1472444
1.1484932
1.149683
1.1508142
1.1518869
1.1529019
1.1538598
1.1547613
1.1556074
1.1563987
1.1571362
1.1578205
1.1584523
1.1590323
1.1595609
1.1600389
1.1604667
1.1608456
1.1611768
1.1614623
1.1617057
1.161915
1.1621042
1.1622956
1.162527
1.1628222
1.1631163
1.16351
1.164239
1.1633248
1.0469533
1.080901
1.0671573
1.0767589
1.0723279
1.0766889
1.0755654
1.0779205
1.0782251
1.0797972
1.0807575
1.0820935
1.08333
1.0846708
1.0860397
1.0874618
1.0889304
1.0904469
1.0920108
1.0936214
1.0952779
1.0969789
1.0987229
1.1005076
1.1023308
1.1041894
1.1060802
1.1079994
1.1099428
1.1119059
1.1138837
1.1158709
1.1178621
1.1198514
1.1218332
1.1238014
1.1257503
1.1276741
1.1295673
1.1314247
1.1332416
1.1350133
1.1367361
1.1384065
1.1400215
1.1415788
1.1430765
1.1445134
1.1458886
1.1472019
1.1484531
1.1496428
1.1507715
1.1518401
1.1528499
1.1538018
1.1546973
1.1555375
1.1563238
1.1570573
1.1577392
1.1583704
1.1589519
1.1594844
1.1599686
1.1604054
1.1607954
1.1611399
1.1614404
1.1616991
1.1619201
1.1621113
1.1622864
1.1624686
1.1626938
1.1629726
1.163261
1.1636789
1.1642719
1.1634713
1.0451149
1.0794352
1.0653474
1.0752594
1.0707444
1.0752932
1.0741553
1.0766783
1.0770634
1.0787473
1.0798241
1.0812596
1.0826143
1.0840664
1.0855544
1.0870974
1.0886905
1.0903344
1.0920283
1.0937712
1.0955615
1.0973973
1.0992762
1.1011955
1.1031516
1.1051409
1.107159
1.1092011
1.111262
1.113336
1.1154173
1.1174996
1.1195764
1.1216413
1.1236878
1.1257095
1.1277001
1.1296537
1.1315648
1.1334283
1.1352398
1.1369952
1.1386913
1.1403254
1.1418954
1.1433998
1.1448379
1.1462094
1.1475145
1.1487538
1.1499283
1.1510394
1.1520885
1.1530773
1.1540077
1.1548813
1.1557001
1.1564657
1.1571798
1.157844
1.1584596
1.1590278
1.1595497
1.1600263
1.1604583
1.1608465
1.161192
1.1614961
1.1617603
1.1619872
1.1621811
1.1623498
1.1625065
1.162675
1.1628875
1.1631469
1.1634288
1.1638527
1.1643288
1.163616
1.0436674
1.0783539
1.0639538
1.0742085
1.0695965
1.0743508
1.0732549
1.0759127
1.0763987
1.0781606
1.0793608
1.0809003
1.0823837
1.0839601
1.0855817
1.0872612
1.0889951
1.090783
1.0926234
1.0945145
1.096454
1.0984391
1.1004664
1.1025319
1.1046312
1.1067593
1.1089107
1.1110794
1.1132588
1.1154422
1.1176226
1.1197927
1.1219452
1.1240729
1.1261686
1.1282258
1.1302379
1.1321991
1.1341043
1.1359488
1.1377289
1.1394412
1.1410836
1.1426544
1.1441527
1.1455783
1.1469316
1.1482135
1.1494254
1.150569
1.1516464
1.1526598
1.1536115
1.154504
1.1553398
1.1561211
1.1568502
1.1575293
1.1581603
1.158745
1.159285
1.1597816
1.1602361
1.1606494
1.1610225
1.1613562
1.1616516
1.1619099
1.1621331
1.1623237
1.1624864
1.1626287
1.1627635
1.1629141
1.1631088
1.1633463
1.1636195
1.1640358
1.1644049
1.1637692
1.0425529
1.0776025
1.0629148
1.073555
1.0688417
1.0738292
1.0727532
1.075605
1.0761047
1.0779846
1.0793429
1.0810133
1.0826522
1.0843789
1.0861581
1.0879978
1.0898949
1.0918482
1.0938556
1.0959141
1.0980205
1.1001709
1.1023605
1.1045842
1.1068361
1.1091098
1.1113982
1.1136939
1.1159892
1.1182759
1.1205459
1.1227908
1.1250028
1.1271739
1.1292968
1.1313648
1.1333718
1.1353122
1.1371817
1.1389766
1.1406941
1.1423323
1.1438902
1.1453678
1.1467655
1.1480846
1.1493268
1.1504945
1.1515903
1.152617
1.1535776
1.1544754
1.1553133
1.1560946
1.1568222
1.1574988
1.1581272
1.1587096
1.1592482
1.1597451
1.1602019
1.16062
1.1610007
1.161345
1.1616537
1.161928
1.1621687
1.1623773
1.1625555
1.1627063
1.1628344
1.1629469
1.1630567
1.163186
1.1633586
1.1635718
1.1638336
1.1642308
1.1645031
1.1639391
1.0417695
1.0771713
1.062218
1.0733204
1.0684205
1.0735399
1.0725844
1.0754482
1.0762855
1.0783042
1.07985
1.0816753
1.0834941
1.0853965
1.0873579
1.0893822
1.0914663
1.0936079
1.0958036
1.0980495
1.1003408
1.102672
1.105037
1.1074288
1.1098398
1.112262
1.1146866
1.1171046
1.1195067
1.1218836
1.124226
1.126525
1.1287719
1.1309589
1.1330787
1.135125
1.1370923
1.1389765
1.1407741
1.1424831
1.1441022
1.1456313
1.1470712
1.1484235
1.1496904
1.1508748
1.15198
1.1530096
1.1539675
1.1548576
1.1556838
1.1564501
1.1571601
1.1578176
1.1584257
1.1589877
1.1595064
1.1599842
1.1604235
1.1608263
1.1611942
1.1615286
1.1618309
1.1621019
1.1623425
1.1625538
1.1627366
1.1628924
1.163023
1.1631313
1.163222
1.1633023
1.1633846
1.1634897
1.1636369
1.1638241
1.1640707
1.1644392
1.1646294
1.1641345
1.0413473
1.0770911
1.0618967
1.0734254
1.0683845
1.0738707
1.0729517
1.0760361
1.0770287
1.0791947
1.0809572
1.082965
1.0849902
1.0870968
1.0892675
1.0915031
1.0937997
1.0961535
1.0985597
1.1010125
1.1035055
1.1060312
1.1085814
1.1111471
1.1137187
1.116286
1.1188386
1.1213656
1.1238566
1.1263009
1.1286885
1.1310103
1.1332574
1.1354225
1.1374991
1.139482
1.1413673
1.1431524
1.1448359
1.1464178
1.147899
1.1492816
1.1505683
1.1517629
1.1528693
1.153892
1.1548359
1.1557058
1.1565066
1.1572432
1.1579202
1.1585422
1.1591132
1.1596371
1.1601176
1.1605578
1.1609606
1.1613286
1.1616639
1.1619685
1.162244
1.1624917
1.1627127
1.1629079
1.1630782
1.1632244
1.1633475
1.1634487
1.16353
1.1635941
1.1636457
1.1636919
1.1637452
1.1638241
1.1639434
1.1641033
1.16433
1.1646617
1.1647928
1.1643599
1.0413609
1.0774383
1.0620139
1.0737072
1.0688305
1.074499
1.07389
1.0771217
1.0783956
1.0807348
1.0827483
1.0849722
1.0872342
1.0895765
1.0919863
1.0944617
1.0969975
1.0995879
1.1022261
1.104904
1.1076128
1.1103426
1.1130824
1.115821
1.1185461
1.1212457
1.1239072
1.1265184
1.1290676
1.1315437
1.1339364
1.1362368
1.138437
1.1405309
1.1425137
1.1443823
1.1461352
1.1477723
1.1492949
1.1507055
1.1520078
1.1532061
1.1543054
1.1553115
1.1562301
1.1570673
1.1578291
1.1585214
1.1591499
1.1597202
1.1602372
1.1607058
1.1611303
1.1615147
1.1618625
1.162177
1.1624607
1.1627162
1.1629455
1.1631504
1.1633321
1.163492
1.1636309
1.1637497
1.1638489
1.1639295
1.1639924
1.1640387
1.1640701
1.1640894
1.1641011
1.1641125
1.1641357
1.164187
1.164277
1.164409
1.1646126
1.1649026
1.1649883
1.164614
1.0418881
1.0782828
1.0626667
1.0746773
1.0699424
1.0758736
1.0754937
1.0789031
1.0804821
1.083022
1.0853198
1.0877974
1.0903299
1.0929423
1.095624
1.0983701
1.1011731
1.1040247
1.1069149
1.1098328
1.1127663
1.1157022
1.1186268
1.1215258
1.1243849
1.1271894
1.1299256
1.1325802
1.1351408
1.1375966
1.1399383
1.1421583
1.1442509
1.1462123
1.1480409
1.1497367
1.1513013
1.152738
1.1540513
1.1552466
1.1563304
1.1573094
1.1581909
1.1589822
1.1596907
1.1603236
1.1608877
1.1613897
1.1618358
1.1622317
1.1625826
1.1628933
1.163168
1.1634107
1.1636245
1.1638125
1.163977
1.1641204
1.1642442
1.16435
1.164439
1.164512
1.1645698
1.1646131
1.1646423
1.1646582
1.1646617
1.1646537
1.164636
1.164611
1.164583
1.1645596
1.1645524
1.1645751
1.1646353
1.16474
1.1649185
1.1651626
1.165209
1.1649037
1.0429201
1.0796278
1.0638453
1.0762718
1.0716955
1.0778612
1.0778199
1.0814191
1.0833684
1.0861512
1.0887739
1.0915507
1.0943946
1.0973174
1.100308
1.1033581
1.1064566
1.1095914
1.1127486
1.1159134
1.1190697
1.122201
1.1252902
1.1283203
1.1312745
1.134137
1.1368928
1.1395288
1.1420336
1.144398
1.1466152
1.1486807
1.1505926
1.152351
1.1539583
1.1554187
1.1567379
1.1579227
1.1589811
1.1599215
1.1607527
1.1614837
1.1621235
1.1626807
1.1631636
1.1635801
1.1639377
1.164243
1.1645024
1.1647214
1.164905
1.1650579
1.1651839
1.1652864
1.1653684
1.1654325
1.1654807
1.1655147
1.1655361
1.1655459
1.165545
1.165534
1.1655135
1.1654838
1.1654454
1.1653989
1.165345
1.1652847
1.1652195
1.1651516
1.1650853
1.165028
1.1649907
1.1649843
1.1650152
1.1650942
1.1652455
1.16544
1.1654608
1.1652445
1.0445116
1.0815271
1.0656143
1.0784835
1.0741792
1.0805939
1.0809734
1.0847879
1.0871676
1.0902476
1.0932425
1.0963721
1.0995754
1.1028535
1.1061921
1.1095779
1.1129951
1.1164266
1.1198537
1.123257
1.1266163
1.1299111
1.1331214
1.1362278
1.1392122
1.1420584
1.1447526
1.1472835
1.1496428
1.1518254
1.1538291
1.1556546
1.1573049
1.1587857
1.1601042
1.1612692
1.1622906
1.1631787
1.1639445
1.1645989
1.1651527
1.1656163
1.1659997
1.1663122
1.1665626
1.1667587
1.166908
1.1670169
1.1670913
1.1671364
1.1671567
1.1671563
1.1671385
1.1671062
1.1670618
1.1670074
1.1669446
1.1668748
1.1667988
1.1667175
1.1666315
1.1665409
1.1664462
1.1663476
1.1662453
1.1661399
1.1660318
1.165922
1.1658118
1.1657035
1.165601
1.1655116
1.165445
1.1654099
1.1654133
1.1654683
1.1655895
1.1657349
1.1657534
1.1656315
1.0467229
1.0840385
1.0680819
1.0814361
1.0774866
1.0841625
1.0850679
1.0891392
1.0920198
1.0954704
1.0988974
1.1024419
1.1060576
1.1097354
1.113456
1.1171998
1.1209451
1.1246688
1.1283469
1.1319548
1.135468
1.1388627
1.1421167
1.1452099
1.1481252
1.150849
1.1533714
1.1556861
1.1577911
1.1596878
1.1613806
1.1628768
1.164186
1.1653194
1.1662893
1.1671089
1.1677913
1.1683501
1.1687982
1.1691481
1.1694116
1.1695998
1.1697228
1.1697898
1.1698094
1.1697891
1.1697355
1.1696546
1.1695515
1.1694307
1.1692961
1.1691508
1.1689977
1.1688389
1.1686763
1.1685114
1.1683453
1.1681787
1.1680123
1.1678465
1.1676814
1.1675171
1.1673536
1.1671911
1.1670296
1.1668694
1.1667112
1.1665555
1.1664037
1.1662579
1.1661221
1.166003
1.1659087
1.1658464
1.1658247
1.1658565
1.1659453
1.1660488
1.166085
1.1660408
1.0496119
1.0871946
1.0713731
1.0852012
1.0817415
1.0887037
1.0902661
1.0946677
1.0981315
1.102041
1.1059664
1.1099868
1.1140619
1.1181729
1.1222936
1.1263969
1.1304539
1.1344347
1.1383089
1.1420471
1.1456216
1.1490073
1.1521829
1.1551316
1.1578415
1.1603058
1.1625224
1.1644939
1.1662269
1.1677313
1.1690196
1.1701063
1.1710069
1.1717378
1.1723155
1.1727563
1.1730758
1.1732889
1.1734096
1.1734509
1.1734244
1.1733409
1.17321
1.1730403
1.1728392
1.1726135
1.1723689
1.1721103
1.171842
1.1715675
1.1712898
1.1710113
1.170734
1.1704595
1.170189
1.1699233
1.1696629
1.1694083
1.1691597
1.1689169
1.1686799
1.1684485
1.1682225
1.1680018
1.1677865
1.1675766
1.1673727
1.1671753
1.1669857
1.1668059
1.1666399
1.1664937
1.1663739
1.166287
1.1662424
1.166251
1.1663069
1.1663783
1.1664411
1.1664586
1.0532471
1.0910028
1.0756135
1.0899254
1.0871443
1.0944582
1.0968261
1.1016515
1.1057783
1.1102329
1.1147161
1.1192611
1.1238262
1.1283819
1.1328924
1.1373209
1.1416295
1.1457809
1.1497399
1.1534749
1.1569592
1.160172
1.1630991
1.1657328
1.168072
1.1701212
1.17189
1.173392
1.1746438
1.1756641
1.1764729
1.1770907
1.1775378
1.177834
1.1779982
1.1780481
1.1780001
1.1778692
1.1776689
1.1774115
1.1771077
1.1767672
1.1763984
1.1760085
1.1756038
1.1751897
1.1747708
1.1743509
1.1739331
1.1735201
1.1731138
1.1727158
1.1723274
1.1719495
1.1715825
1.1712268
1.1708824
1.1705493
1.1702272
1.1699158
1.1696146
1.1693232
1.1690414
1.1687688
1.1685053
1.1682511
1.1680063
1.1677716
1.1675481
1.167338
1.167145
1.1669743
1.1668313
1.1667224
1.1666569
1.166642
1.1666667
1.1667147
1.1668025
1.1668697
1.0578136
1.0956071
1.0810302
1.0959334
1.0940255
1.1017529
1.1050676
1.1104109
1.1152678
1.1203449
1.1254345
1.1305337
1.1355915
1.1405632
1.1454001
1.1500542
1.15448
1.1586369
1.162491
1.1660165
1.1691965
1.1720231
1.1744965
1.1766248
1.1784218
1.1799064
1.181101
1.1820299
1.1827188
1.1831934
1.1834787
1.183599
1.1835768
1.1834331
1.183187
1.1828557
1.1824547
1.1819979
1.1814972
1.1809632
1.1804051
1.1798308
1.1792471
1.1786596
1.1780731
1.1774917
1.1769185
1.1763563
1.175807
1.1752723
1.1747533
1.1742507
1.1737652
1.1732968
1.1728455
1.1724111
1.1719933
1.1715914
1.171205
1.1708333
1.1704758
1.1701319
1.1698009
1.1694827
1.1691768
1.1688834
1.1686025
1.1683348
1.1680815
1.1678445
1.1676273
1.1674343
1.1672702
1.1671413
1.1670561
1.1670177
1.1670144
1.1670458
1.1671509
1.1672458
1.0635915
1.1015832
1.0880211
1.1035629
1.1027288
1.1109081
1.1153151
1.1212933
1.1269493
1.1327185
1.1384418
1.1440815
1.1495695
1.1548436
1.1598438
1.1645168
1.1688192
1.172719
1.1761962
1.1792433
1.1818636
1.1840702
1.1858837
1.1873305
1.1884406
1.1892462
1.1897801
1.1900746
1.1901609
1.1900682
1.1898234
1.1894512
1.1889737
1.1884106
1.1877795
1.1870955
1.186372
1.1856204
1.1848506
1.1840709
1.1832884
1.1825092
1.181738
1.1809789
1.1802351
1.1795094
1.1788035
1.1781191
1.1774571
1.1768182
1.1762027
1.1756107
1.175042
1.1744961
1.1739726
1.1734708
1.1729898
1.1725288
1.1720869
1.1716633
1.1712571
1.1708676
1.1704941
1.1701361
1.1697933
1.1694655
1.169153
1.1688562
1.1685764
1.1683156
1.1680767
1.1678632
1.1676793
1.1675313
1.1674265
1.1673648
1.1673366
1.1673552
1.1674655
1.1675669
1.0707728
1.1094541
1.0967862
1.1130289
1.1136138
1.1223336
1.1279992
1.1347613
1.1412724
1.1477526
1.154054
1.1601053
1.1658231
1.1711373
1.1759912
1.1803447
1.184175
1.187476
1.1902567
1.1925382
1.1943509
1.195732
1.1967221
1.1973637
1.197699
1.1977687
1.1976112
1.1972617
1.1967524
1.1961118
1.1953655
1.1945358
1.1936419
1.1927008
1.1917267
1.1907319
1.1897267
1.1887198
1.1877185
1.1867287
1.1857554
1.1848025
1.183873
1.1829695
1.1820937
1.1812469
1.18043
1.1796433
1.178887
1.1781609
1.1774646
1.1767976
1.1761591
1.1755482
1.1749639
1.1744051
1.1738707
1.1733596
1.1728706
1.1724027
1.1719548
1.1715262
1.1711161
1.1707238
1.1703489
1.1699911
1.1696507
1.1693281
1.1690246
1.1687421
1.168483
1.1682502
1.1680473
1.1678803
1.1677549
1.1676693
1.1676177
1.1676229
1.167726
1.1678162
1.0794799
1.1190872
1.1079106
1.1248783
1.127316
1.136711
1.1437575
1.1514019
1.158716
1.1657633
1.1723932
1.1785181
1.1840617
1.1889738
1.1932291
1.1968256
1.1997813
1.2021301
1.2039173
1.2051949
1.2060187
1.2064447
1.2065272
1.2063176
1.2058627
1.2052052
1.2043828
1.2034286
1.2023714
1.2012362
1.2000442
1.1988134
1.197559
1.1962939
1.1950285
1.1937718
1.1925308
1.1913114
1.1901184
1.1889553
1.187825
1.1867296
1.1856706
1.184649
1.1836653
1.1827197
1.1818119
1.1809417
1.1801082
1.1793107
1.1785482
1.1778195
1.1771235
1.1764588
1.1758241
1.175218
1.174639
1.1740858
1.1735571
1.1730517
1.1725685
1.1721065
1.1716649
1.1712429
1.17084
1.1704558
1.1700904
1.1697445
1.1694192
1.1691161
1.1688374
1.1685855
1.1683638
1.1681772
1.1680295
1.1679188
1.1678438
1.16783
1.1679094
1.1679834
1.0904434
1.1313799
1.1222875
1.1400391
1.1447712
1.1549216
1.1632812
1.1716875
1.1794895
1.1866641
1.1930882
1.1987023
1.2034785
1.2074235
1.2105708
1.2129742
1.2147006
1.2158243
1.2164212
1.2165659
1.2163283
1.2157728
1.2149567
1.2139309
1.2127394
1.21142
1.2100051
1.2085218
1.2069929
1.2054375
1.2038713
1.2023072
1.2007558
1.1992256
1.1977236
1.1962551
1.1948244
1.1934347
1.1920883
1.1907868
1.1895315
1.1883227
1.1871606
1.186045
1.1849753
1.1839509
1.1829707
1.1820336
1.1811382
1.1802833
1.1794674
1.1786889
1.1779461
1.1772376
1.1765615
1.1759163
1.1753004
1.1747121
1.1741502
1.1736132
1.1730999
1.1726094
1.1721406
1.1716926
1.1712649
1.1708571
1.1704692
1.1701017
1.1697556
1.1694325
1.1691342
1.1688627
1.1686213
1.1684137
1.1682419
1.1681044
1.1680042
1.1679661
1.1680171
1.168061
1.1052064
1.1474181
1.1411747
1.1595676
1.1669352
1.1777293
1.1869283
1.1955366
1.2031122
1.2096335
1.2150654
1.2194321
1.2227922
1.2252309
1.2268483
1.2277503
1.2280417
1.2278215
1.2271801
1.2261977
1.2249442
1.2234796
1.2218546
1.220112
1.2182869
1.2164086
1.214501
1.2125836
1.210672
1.208779
1.2069147
1.2050868
1.2033018
1.2015642
1.1998775
1.1982444
1.1966664
1.1951447
1.1936796
1.1922711
1.190919
1.1896223
1.1883803
1.1871917
1.1860552
1.1849692
1.1839323
1.1829426
1.1819985
1.1810982
1.1802397
1.1794213
1.178641
1.177897
1.1771873
1.1765101
1.1758636
1.1752462
1.1746564
1.1740926
1.1735537
1.1730384
1.1725457
1.1720748
1.1716248
1.1711954
1.1707866
1.1703986
1.1700326
1.1696896
1.1693714
1.1690799
1.1688176
1.1685874
1.1683909
1.1682276
1.1681026
1.1680365
1.1680451
1.1680537
1.1252351
1.1684886
1.1659921
1.1844803
1.1941944
1.2051037
1.2141321
1.2218705
1.228155
1.2330521
1.2366565
1.2391042
1.240546
1.2411352
1.2410175
1.2403253
1.2391749
1.2376665
1.2358844
1.2338985
1.2317663
1.2295348
1.2272417
1.2249173
1.2225859
1.2202667
1.2179746
1.2157214
1.2135162
1.2113657
1.2092752
1.2072481
1.205287
1.2033936
1.2015684
1.1998119
1.1981236
1.1965029
1.1949488
1.1934599
1.1920349
1.1906719
1.1893694
1.1881253
1.1869377
1.1858047
1.1847241
1.1836938
1.1827118
1.1817759
1.180884
1.180034
1.1792237
1.1784511
1.1777141
1.1770107
1.1763389
1.1756972
1.1750838
1.1744972
1.1739361
1.1733992
1.1728854
1.1723937
1.1719234
1.171474
1.1710453
1.1706378
1.1702521
1.1698894
1.169551
1.1692388
1.1689551
1.1687021
1.1684807
1.1682917
1.1681413
1.1680456
1.1680129
1.1679941
1.1531015
1.1953823
1.1978437
1.215669
1.2257572
1.2354671
1.2429379
1.2485628
1.2524679
1.2548891
1.2560593
1.2562072
1.2555383
1.2542313
1.2524365
1.2502779
1.2478557
1.2452501
1.2425248
1.2397296
1.2369036
1.234077
1.231273
1.2285093
1.2257995
1.2231534
1.2205783
1.2180795
1.2156603
1.213323
1.2110686
1.2088975
1.2068094
1.2048033
1.2028782
1.2010324
1.1992642
1.1975717
1.1959527
1.194405
1.1929264
1.1915146
1.1901672
1.1888818
1.187656
1.1864874
1.1853737
1.1843124
1.1833011
1.1823376
1.1814195
1.1805445
1.1797103
1.1789147
1.1781555
1.1774306
1.1767379
1.1760757
1.1754423
1.1748361
1.1742557
1.1736997
1.173167
1.1726564
1.1721673
1.1716991
1.1712517
1.1708253
1.1704204
1.1700381
1.1696796
1.1693469
1.1690421
1.1687668
1.1685218
1.1683091
1.1681352
1.1680125
1.1679456
1.1679068
1.191391
1.2298941
1.2355454
1.2506397
1.2596206
1.2664151
1.2707158
1.2730647
1.2738177
1.2733355
1.2719135
1.269796
1.2671768
1.2642078
1.2610058
1.2576604
1.254239
1.2507924
1.2473587
1.2439657
1.2406341
1.2373786
1.2342097
1.2311346
1.228158
1.2252825
1.2225094
1.2198389
1.2172705
1.2148028
1.212434
1.2101622
1.2079849
1.2058997
1.2039039
1.2019948
1.2001696
1.1984254
1.1967595
1.1951691
1.1936513
1.1922034
1.1908225
1.189506
1.1882512
1.1870555
1.1859161
1.1848306
1.1837963
1.1828109
1.1818718
1.1809766
1.1801228
1.1793082
1.1785304
1.1777873
1.1770767
1.1763969
1.1757461
1.1751225
1.1745248
1.1739516
1.1734015
1.1728735
1.1723668
1.1718809
1.1714155
1.1709709
1.1705474
1.170146
1.169768
1.1694156
1.1690906
1.1687947
1.1685288
1.1682957
1.1681023
1.1679582
1.1678668
1.1678162
1.2383146
1.2704142
1.2774351
1.2870866
1.2919004
1.2941844
1.2943214
1.2929527
1.2905061
1.2873223
1.2836504
1.2796738
1.2755248
1.2712987
1.2670633
1.2628663
1.2587413
1.2547112
1.2507914
1.2469919
1.2433187
1.2397747
1.2363611
1.2330773
1.2299217
1.2268921
1.2239856
1.2211991
1.2185291
1.215972
1.2135243
1.2111823
1.2089424
1.2068009
1.2047542
1.202799
1.2009317
1.199149
1.1974476
1.1958243
1.194276
1.1927995
1.1913919
1.1900502
1.1887716
1.1875533
1.1863924
1.1852863
1.1842324
1.183228
1.1822705
1.1813575
1.1804864
1.1796548
1.1788603
1.1781006
1.1773737
1.1766777
1.1760107
1.1753711
1.1747572
1.1741676
1.1736011
1.1730565
1.1725331
1.1720302
1.1715478
1.1710857
1.1706443
1.1702247
1.1698284
1.1694575
1.1691143
1.1688002
1.1685168
1.1682677
1.1680599
1.1679012
1.1677945
1.1677388
1.2916826
1.3120452
1.3165024
1.318818
1.3180127
1.3153793
1.311523
1.306927
1.3019081
1.2966809
1.2913872
1.2861206
1.2809417
1.2758892
1.2709868
1.2662485
1.2616812
1.2572875
1.253067
1.2490171
1.2451341
1.2414132
1.2378495
1.2344375
1.2311718
1.2280469
1.2250575
1.2221983
1.2194642
1.2168502
1.2143517
1.211964
1.2096828
1.2075036
1.2054226
1.2034356
1.201539
1.1997289
1.198002
1.1963547
1.1947837
1.1932858
1.1918578
1.1904967
1.1891995
1.1879634
1.1867854
1.1856628
1.1845929
1.1835731
1.1826005
1.1816728
1.1807873
1.1799416
1.1791331
1.1783596
1.177619
1.1769093
1.1762286
1.1755752
1.1749475
1.174344
1.1737635
1.1732047
1.1726669
1.1721496
1.1716523
1.1711751
1.1707182
1.1702828
1.1698705
1.169484
1.1691254
1.1687966
1.1684995
1.1682387
1.1680213
1.1678538
1.1677396
1.1676839
1.3438827
1.3471048
1.3458652
1.3414386
1.3356604
1.3291504
1.3223659
1.3155451
1.3088323
1.3023053
1.2960062
1.2899549
1.284158
1.2786146
1.273319
1.2682631
1.2634375
1.2588322
1.2544369
1.2502419
1.2462375
1.2424144
1.2387641
1.2352783
1.2319493
1.2287697
1.2257327
1.2228318
1.220061
1.2174144
1.2148867
1.2124728
1.2101677
1.2079668
1.2058657
1.2038603
1.2019464
1.2001202
1.1983781
1.1967164
1.1951318
1.1936208
1.1921804
1.1908073
1.1894986
1.1882512
1.1870625
1.1859294
1.1848494
1.1838196
1.1828374
1.1819003
1.1810055
1.1801506
1.1793331
1.1785507
1.1778012
1.1770825
1.1763928
1.1757304
1.1750935
1.1744806
1.1738905
1.173322
1.1727742
1.1722464
1.1717384
1.1712498
1.170781
1.1703332
1.1699084
1.1695093
1.1691385
1.1687977
1.1684899
1.1682202
1.167996
1.1678235
1.167706
1.1676521
1.3775011
1.369993
1.3625069
1.3543256
1.3458269
1.3374224
1.3292748
1.3214574
1.3139979
1.3068993
1.300153
1.2937444
1.2876562
1.2818708
1.2763704
1.2711381
1.2661582
1.2614157
1.256897
1.2525894
1.2484812
1.2445616
1.2408208
1.2372494
1.2338391
1.230582
1.2274706
1.2244983
1.2216585
1.2189454
1.2163533
1.213877
1.2115115
1.209252
1.2070941
1.2050335
1.2030662
1.2011882
1.1993958
1.1976855
1.1960538
1.1944973
1.1930129
1.1915973
1.1902476
1.1889608
1.1877339
1.1865643
1.185449
1.1843854
1.1833708
1.1824025
1.1814778
1.1805941
1.179749
1.1789399
1.1781648
1.1774213
1.1767077
1.1760221
1.1753628
1.1747282
1.174117
1.1735278
1.1729599
1.1724124
1.1718848
1.171377
1.1708892
1.1704229
1.1699804
1.1695647
1.1691783
1.1688231
1.1685024
1.1682222
1.1679903
1.1678126
1.1676923
1.1676392
1.163095
1.1675735
1.1820346
1.1939444
1.1994681
1.2007385
1.2008038
1.200473
1.2005023
1.2002126
1.1999631
1.1994023
1.1988163
1.1981644
1.1974749
1.1967471
1.1959836
1.1951902
1.1943715
1.1935318
1.1926748
1.1918042
1.190923
1.1900341
1.1891401
1.1882434
1.1873461
1.1864501
1.1855574
1.1846696
1.1837883
1.1829149
1.1820509
1.1811976
1.1803562
1.179528
1.1787143
1.1779161
1.1771346
1.1763709
1.1756261
1.1749013
1.1741976
1.1735159
1.1728574
1.1722229
1.1716134
1.1710298
1.1704728
1.1699433
1.1694417
1.1689688
1.1685248
1.16811
1.1677246
1.1673684
1.1670414
1.166743
1.1664728
1.1662299
1.1660134
1.1658219
1.1656545
1.1655092
1.1653854
1.1652781
1.1651916
1.1651062
1.1650524
1.1649505
1.1649361
1.1647303
1.164791
1.1643047
1.1645456
1.1635612
1.1642162
1.1627608
1.1645082
1.1622179
1.1587732
1.1694778
1.1857735
1.1941373
1.1964177
1.1963281
1.1958052
1.1955575
1.1952425
1.1949423
1.1945489
1.1941567
1.1937147
1.1932388
1.1927228
1.1921744
1.1915947
1.1909867
1.1903528
1.1896953
1.1890166
1.1883188
1.1876042
1.1868752
1.1861338
1.1853823
1.1846227
1.1838571
1.1830876
1.1823159
1.1815441
1.180774
1.1800073
1.1792458
1.1784911
1.1777449
1.1770087
1.1762842
1.1755728
1.1748759
1.174195
1.1735315
1.1728867
1.1722618
1.1716582
1.171077
1.1705192
1.169986
1.1694783
1.1689968
1.1685424
1.1681155
1.1677168
1.1673464
1.1670045
1.1666909
1.1664056
1.166148
1.1659175
1.1657133
1.1655343
1.1653792
1.1652468
1.165135
1.1650431
1.1649662
1.1649074
1.1648489
1.1648165
1.164739
1.1647361
1.1645524
1.1646135
1.1641563
1.164391
1.1634335
1.1641167
1.1626604
1.1644934
1.1621597
1.1591922
1.1725139
1.1842705
1.1906622
1.1916557
1.1911877
1.1906741
1.1904129
1.1901197
1.1898381
1.1895063
1.1891716
1.1888016
1.1884188
1.1880087
1.1875791
1.1871262
1.1866524
1.1861577
1.1856429
1.1851089
1.1845569
1.183988
1.1834033
1.1828044
1.1821927
1.1815695
1.1809366
1.1802956
1.1796481
1.1789959
1.1783407
1.1776842
1.1770282
1.1763745
1.1757249
1.1750811
1.1744448
1.1738177
1.1732016
1.172598
1.1720087
1.1714351
1.1708788
1.1703412
1.1698237
1.1693276
1.1688541
1.1684042
1.167979
1.1675793
1.1672056
1.1668587
1.1665387
1.1662458
1.16598
1.1657411
1.1655285
1.1653417
1.1651797
1.1650413
1.1649252
1.1648301
1.164754
1.1646957
1.1646505
1.1646205
1.1645895
1.1645798
1.1645263
1.164537
1.1643737
1.1644381
1.1640058
1.1642388
1.1633081
1.1640195
1.1625679
1.164476
1.1621072
1.1570329
1.1713002
1.1819476
1.1866881
1.1865299
1.1861349
1.1856844
1.185484
1.185164
1.1849108
1.1845955
1.1843114
1.1839947
1.1836824
1.1833494
1.1830081
1.1826515
1.1822822
1.1818985
1.1815003
1.1810876
1.1806604
1.1802187
1.179763
1.1792938
1.1788117
1.1783175
1.1778123
1.1772971
1.1767731
1.1762416
1.1757042
1.1751623
1.1746174
1.1740714
1.1735257
1.1729822
1.1724427
1.1719088
1.1713824
1.1708653
1.1703591
1.1698657
1.1693866
1.1689235
1.168478
1.1680514
1.1676451
1.1672603
1.166898
1.1665594
1.166245
1.1659554
1.1656911
1.1654522
1.1652387
1.1650503
1.1648865
1.1647467
1.16463
1.164535
1.1644605
1.1644048
1.1643662
1.1643429
1.1643307
1.1643306
1.1643277
1.1643414
1.1643115
1.1643372
1.1641938
1.1642636
1.1638538
1.1640886
1.1631839
1.1639246
1.1624827
1.1644565
1.162061
1.1514568
1.1677115
1.1775595
1.1811158
1.1805618
1.1804689
1.180099
1.1800362
1.1797882
1.1796513
1.179425
1.1792483
1.1790274
1.1788208
1.1785914
1.178358
1.1781101
1.1778519
1.1775812
1.1772978
1.1770016
1.1766923
1.1763699
1.1760344
1.1756861
1.1753252
1.1749523
1.174568
1.1741729
1.173768
1.1733542
1.1729326
1.1725046
1.1720713
1.1716342
1.1711949
1.170755
1.1703162
1.1698801
1.1694485
1.1690232
1.1686061
1.1681988
1.1678032
1.1674208
1.1670534
1.1667025
1.1663694
1.1660556
1.1657621
1.16549
1.16524
1.1650129
1.1648089
1.1646284
1.1644712
1.1643371
1.1642256
1.164136
1.1640673
1.1640183
1.1639874
1.1639732
1.1639735
1.1639867
1.1640084
1.164039
1.1640648
1.1641024
1.1640959
1.164138
1.1640144
1.1640904
1.1637028
1.1639409
1.1630626
1.1638319
1.1624042
1.1644364
1.1620189
1.1454561
1.1641303
1.1726159
1.1755301
1.1748193
1.1749855
1.1746599
1.1747363
1.1745524
1.1745282
1.1743829
1.1743083
1.1741766
1.1740683
1.1739338
1.1737984
1.1736481
1.1734892
1.173319
1.1731378
1.1729454
1.1727415
1.172526
1.1722988
1.1720599
1.1718095
1.1715478
1.171275
1.1709916
1.1706981
1.1703954
1.1700842
1.1697654
1.1694402
1.1691098
1.1687754
1.1684386
1.1681008
1.1677636
1.1674287
1.1670978
1.1667727
1.1664551
1.1661467
1.1658492
1.1655643
1.1652935
1.1650383
1.1648
1.1645798
1.1643787
1.1641976
1.164037
1.1638974
1.163779
1.1636817
1.1636052
1.163549
1.1635124
1.1634943
1.1634933
1.1635081
1.1635369
1.1635776
1.1636283
1.1636849
1.1637469
1.1638018
1.1638635
1.1638806
1.1639393
1.1638361
1.1639189
1.1635532
1.1637959
1.1629446
1.1637422
1.1623315
1.1644163
1.1619784
1.1402347
1.1607232
1.1677179
1.1703314
1.1695182
1.1698892
1.1695714
1.1697595
1.1696146
1.1696799
1.169597
1.1696096
1.1695524
1.1695226
1.169462
1.169406
1.1693362
1.1692611
1.1691768
1.1690837
1.1689815
1.1688697
1.168748
1.1686164
1.1684745
1.1683225
1.1681602
1.1679879
1.1678058
1.1676143
1.1674138
1.167205
1.1669886
1.1667654
1.1665365
1.1663029
1.1660659
1.1658269
1.1655872
1.1653484
1.1651121
1.1648799
1.1646534
1.1644343
1.1642241
1.1640245
1.163837
1.1636629
1.1635036
1.1633602
1.1632336
1.1631248
1.1630343
1.1629624
1.1629093
1.1628749
1.1628588
1.1628605
1.1628792
1.1629138
1.1629629
1.1630249
1.1630981
1.1631804
1.1632695
1.1633615
1.1634554
1.1635397
1.1636257
1.1636667
1.1637418
1.1636593
1.1637499
1.163406
1.1636542
1.1628306
1.1636557
1.1622645
1.1643969
1.1619399
1.1353765
1.1576617
1.1631266
1.1656222