/*--------------------------------*- C++ -*----------------------------------*\
  =========                 |
  \\      /  F ield         | OpenFOAM: The Open Source CFD Toolbox
   \\    /   O peration     | Website:  https://openfoam.org
    \\  /    A nd           | Version:  12
     \\/     M anipulation  |
\*---------------------------------------------------------------------------*/
FoamFile
{
    format      ascii;
    class       volScalarField;
    location    "0.076";
    object      T;
}
// * * * * * * * * * * * * * * * * * * * * * * * * * * * * * * * * * * * * * //

dimensions      [0 0 0 1 0 0 0];

internalField   nonuniform List<scalar> 
16000
(
294.65608
286.34756
289.56847
287.82401
288.91257
288.41829
288.83327
288.72766
288.92173
288.95709
289.07734
289.16205
289.2669
289.36913
289.47718
289.58846
289.70376
289.82296
289.94614
290.07332
290.2045
290.33969
290.47885
290.62194
290.76888
290.91957
291.07389
291.23168
291.39277
291.55695
291.72398
291.89358
292.06547
292.23932
292.41479
292.5915
292.76907
292.9471
293.12515
293.30282
293.47968
293.65529
293.82926
294.00117
294.17065
294.33734
294.5009
294.66104
294.8175
294.97003
295.11847
295.26265
295.40249
295.53793
295.66895
295.79559
295.91794
296.03612
296.15032
296.2608
296.36787
296.47188
296.57325
296.67244
296.76996
296.86637
296.96228
297.05835
297.15527
297.25376
297.35429
297.45651
297.55826
297.65462
297.73877
297.80087
297.85921
297.84066
297.96461
297.82438
294.37287
285.96561
289.34615
287.49106
288.64566
288.11441
288.5653
288.45025
288.65876
288.69947
288.82676
288.9203
289.03231
289.14332
289.25976
289.37999
289.50443
289.63307
289.76595
289.90306
290.04441
290.18995
290.33964
290.4934
290.65111
290.81263
290.97781
291.14644
291.31829
291.4931
291.67058
291.85042
292.03225
292.2157
292.40037
292.58584
292.77167
292.95742
293.14262
293.32682
293.50958
293.69045
293.86902
294.04487
294.21765
294.38701
294.55263
294.71427
294.87167
295.02468
295.17313
295.31695
295.45607
295.5905
295.72028
295.84548
295.96625
296.08275
296.1952
296.3039
296.40916
296.51138
296.61097
296.70839
296.80416
296.89881
296.99293
297.08715
297.18215
297.2786
297.37691
297.47661
297.57531
297.66784
297.74725
297.80934
297.8514
297.85868
297.93715
297.85078
294.1035
285.61033
289.089
287.20026
288.3937
287.85218
288.31717
288.20982
288.42325
288.47565
288.60849
288.71253
288.83264
288.95337
289.07936
289.20959
289.34431
289.48351
289.62719
289.77536
289.92796
290.08494
290.24619
290.41161
290.58103
290.75427
290.93112
291.11131
291.29457
291.48057
291.66895
291.85934
292.05131
292.24442
292.43822
292.63221
292.82592
293.01885
293.21051
293.40041
293.58809
293.77309
293.955
294.13343
294.30803
294.47849
294.64455
294.80597
294.96259
295.11429
295.26098
295.40264
295.53928
295.67095
295.79777
295.91987
296.03743
296.15068
296.25989
296.36536
296.46746
296.56659
296.66318
296.75768
296.85061
296.94248
297.03386
297.12535
297.21758
297.31117
297.40641
297.50268
297.59731
297.68497
297.75936
297.81641
297.85047
297.86898
297.9226
297.86424
293.85627
285.28546
288.88108
286.94601
288.17478
287.62215
288.10114
288.00301
288.22198
288.28752
288.42694
288.54268
288.67219
288.80381
288.94061
289.08205
289.22822
289.37912
289.53473
289.69501
289.85988
290.02924
290.20296
290.38087
290.56276
290.7484
290.9375
291.12974
291.32477
291.52218
291.72156
291.92244
292.12433
292.32672
292.52908
292.73087
292.93156
293.13061
293.3275
293.52172
293.7128
293.90031
294.08383
294.26302
294.43756
294.60719
294.7717
294.93094
295.08481
295.23326
295.37629
295.51393
295.64628
295.77346
295.89565
296.01304
296.12588
296.23445
296.33904
296.44
296.53771
296.63261
296.72511
296.81568
296.9048
296.99299
297.08078
297.16874
297.25744
297.34742
297.43887
297.531
297.62092
297.70339
297.77265
297.82421
297.85338
297.87382
297.9137
297.8743
293.63183
284.99538
288.68967
286.73388
288.00348
287.43277
287.92194
287.83722
288.06059
288.14162
288.28835
288.41708
288.55731
288.70093
288.84971
289.00346
289.16219
289.32587
289.49447
289.6679
289.84606
290.02879
290.21591
290.4072
290.60237
290.80112
291.00308
291.20784
291.41497
291.62398
291.83434
292.04552
292.25694
292.46802
292.67815
292.88675
293.09322
293.29702
293.49758
293.69442
293.88707
294.07512
294.25821
294.43603
294.60834
294.77495
294.93573
295.09061
295.23959
295.3827
295.52002
295.65169
295.77787
295.89877
296.01462
296.1257
296.23229
296.33472
296.43333
296.5285
296.62063
296.71016
296.79751
296.88315
296.96754
297.05116
297.13454
297.21817
297.3026
297.38824
297.47517
297.5624
297.64697
297.72381
297.78751
297.83328
297.85826
297.87738
297.9085
297.88105
293.43409
284.74717
288.52902
286.5562
287.84601
287.28986
287.79087
287.71835
287.94701
288.0436
288.19841
288.34087
288.49291
288.64939
288.8112
288.97832
289.15071
289.32832
289.51107
289.69883
289.89144
290.08866
290.29025
290.49588
290.7052
290.91777
291.13315
291.35083
291.57024
291.7908
292.01189
292.23286
292.45307
292.67184
292.88852
293.10246
293.31306
293.51974
293.72196
293.91925
294.11118
294.2974
294.47761
294.65159
294.81919
294.98031
295.13495
295.28313
295.42494
295.56053
295.69007
295.81379
295.93194
296.0448
296.15267
296.2559
296.3548
296.44976
296.54115
296.62936
296.71482
296.79795
296.8792
296.95901
297.03781
297.11608
297.19428
297.27289
297.35235
297.43298
297.51469
297.59637
297.67503
297.7459
297.80374
297.84368
297.86436
297.88079
297.90502
297.88658
293.26562
284.54214
288.40084
286.41405
287.72759
287.19395
287.69431
287.64778
287.87597
287.99487
288.15874
288.3157
288.48095
288.65158
288.82791
289.00995
289.19761
289.39077
289.58928
289.79293
290.00147
290.21458
290.43188
290.65296
290.87732
291.10443
291.3337
291.56449
291.79612
292.02789
292.25907
292.48891
292.71669
292.94166
293.16312
293.38042
293.59293
293.80009
294.00142
294.19648
294.38493
294.56651
294.74102
294.90837
295.06852
295.2215
295.36741
295.50642
295.63872
295.76458
295.88427
295.99811
296.10644
296.2096
296.30796
296.40191
296.49182
296.57809
296.66113
296.74135
296.81916
296.89501
296.96932
297.0425
297.11498
297.18719
297.25954
297.33247
297.40634
297.48135
297.55724
297.63277
297.70504
297.76961
297.82135
297.85534
297.87154
297.88465
297.90289
297.89171
293.1239
284.37803
288.30149
286.30546
287.63634
287.12543
287.63061
287.59308
287.85498
287.99378
288.16935
288.34271
288.52364
288.71069
288.90385
289.10306
289.30817
289.519
289.73527
289.95669
290.18288
290.41339
290.64772
290.88531
291.12551
291.36765
291.61098
291.85473
292.09808
292.3402
292.58025
292.81742
293.05088
293.27987
293.50367
293.72163
293.93317
294.13778
294.33505
294.52467
294.7064
294.88013
295.04579
295.20344
295.35318
295.4952
295.62973
295.75708
295.87757
295.99156
296.09944
296.20159
296.29845
296.3904
296.47789
296.56132
296.6411
296.71766
296.79141
296.86276
296.93214
296.99996
297.06662
297.13252
297.19806
297.2636
297.32955
297.39626
297.464
297.53285
297.60241
297.67132
297.73681
297.79476
297.84017
297.86816
297.87979
297.88924
297.90212
297.89707
293.00419
284.25339
288.23471
286.23116
287.59383
287.13963
287.62951
287.65883
287.88403
288.04473
288.2355
288.4278
288.62736
288.83354
289.04618
289.26514
289.49017
289.72097
289.95716
290.1983
290.44385
290.69321
290.94572
291.20062
291.45711
291.71433
291.97137
292.2273
292.48117
292.73203
292.97894
293.22103
293.45745
293.68743
293.91029
294.12542
294.33234
294.53067
294.72013
294.90057
295.07192
295.23423
295.38762
295.53233
295.66863
295.79686
295.91741
296.03071
296.13721
296.23737
296.33166
296.42055
296.50451
296.584
296.65948
296.73138
296.80014
296.86617
296.92989
296.99171
297.05203
297.11125
297.16974
297.22785
297.28596
297.34439
297.40347
297.4635
297.52468
297.58696
297.64979
297.71172
297.77011
297.82118
297.86007
297.88213
297.88926
297.89481
297.90324
297.90313
292.9059
284.17024
288.20533
286.2074
287.60494
287.15593
287.67234
287.72329
287.97015
288.15666
288.36612
288.57992
288.80107
289.02923
289.26416
289.50556
289.75306
290.0062
290.26444
290.52715
290.79359
291.06297
291.3344
291.60692
291.87952
292.15115
292.42072
292.68715
292.94935
293.2063
293.45701
293.70057
293.93616
294.16309
294.38075
294.5887
294.7866
294.97426
295.1516
295.31868
295.47565
295.62278
295.7604
295.88893
296.00882
296.12058
296.22474
296.32185
296.41245
296.4971
296.57634
296.65069
296.72065
296.78671
296.84935
296.90899
296.96608
297.02103
297.07423
297.12607
297.17693
297.22716
297.27712
297.32711
297.37745
297.42843
297.48033
297.53337
297.58766
297.64306
297.69889
297.75361
297.80471
297.8487
297.88101
297.8974
297.90023
297.90179
297.90646
297.91021
292.83278
284.13693
288.21975
286.3077
287.67321
287.29147
287.7728
287.87081
288.12382
288.33802
288.57017
288.80854
289.05457
289.30788
289.56813
289.83484
290.10744
290.38528
290.66757
290.95344
291.24191
291.53193
291.82234
292.11196
292.39954
292.68382
292.96356
293.23754
293.5046
293.76367
294.01378
294.25407
294.48386
294.70257
294.90983
295.10539
295.28916
295.46122
295.62176
295.77108
295.9096
296.03781
296.15628
296.26559
296.3664
296.45934
296.54507
296.62423
296.69745
296.76533
296.82845
296.88736
296.94258
296.9946
297.04388
297.09086
297.13594
297.17951
297.22194
297.26359
297.30478
297.34586
297.3871
297.42879
297.4712
297.51456
297.55908
297.60492
297.65212
297.70045
297.74913
297.79657
297.84033
297.87721
297.90307
297.91423
297.9131
297.91044
297.91149
297.91834
292.79158
284.16675
288.2862
286.44352
287.78572
287.46026
287.94149
288.08374
288.35419
288.59863
288.85781
289.12436
289.39891
289.68087
289.9697
290.2647
290.56503
290.86974
291.17774
291.48785
291.79877
292.10913
292.4175
292.72242
293.02242
293.31608
293.60202
293.87896
294.14574
294.40135
294.64493
294.87583
295.09357
295.29787
295.48863
295.66594
295.83004
295.98132
296.12028
296.24752
296.36372
296.46961
296.56594
296.6535
296.73305
296.80535
296.87114
296.93112
296.98596
297.03629
297.0827
297.12572
297.16588
297.20363
297.23941
297.27362
297.30664
297.33882
297.37048
297.40195
297.4335
297.46543
297.49797
297.53135
297.5658
297.6015
297.63859
297.67717
297.71721
297.75839
297.79989
297.84009
297.87667
297.90664
297.92639
297.93288
297.9281
297.92085
297.91791
297.92767
292.78694
284.26501
288.41494
286.63641
287.96178
287.7117
288.18779
288.37876
288.67143
288.94943
289.24043
289.53944
289.84663
290.1611
290.48201
290.80829
291.13875
291.47204
291.80668
292.14109
292.47361
292.80253
293.12611
293.44267
293.75056
294.04825
294.33434
294.60761
294.86703
295.11181
295.34138
295.5554
295.7538
295.93667
296.10433
296.25727
296.39612
296.52162
296.63459
296.73592
296.82652
296.90732
296.97924
297.04317
297.09999
297.15051
297.19551
297.23571
297.27177
297.30431
297.3339
297.36105
297.38622
297.40985
297.43233
297.454
297.4752
297.49623
297.51737
297.53888
297.56101
297.58397
297.60798
297.63321
297.65982
297.68796
297.7177
297.74908
297.782
297.81609
297.85049
297.88365
297.91336
297.93686
297.95103
297.95337
297.94517
297.93312
297.92615
297.9391
292.8209
284.43919
288.61068
286.91289
288.21063
288.0441
288.52192
288.76468
289.08741
289.40353
289.73183
290.06834
290.41281
290.76388
291.12026
291.48041
291.84263
292.20508
292.56582
292.92282
293.27403
293.61742
293.95101
294.27296
294.58156
294.87533
295.15304
295.41373
295.65671
295.88162
296.08836
296.27711
296.44828
296.60249
296.74054
296.86334
296.97192
297.06734
297.15073
297.2232
297.28584
297.33972
297.38585
297.42519
297.45863
297.48701
297.51108
297.53153
297.54901
297.56407
297.57723
297.58895
297.59963
297.60964
297.61932
297.62896
297.63883
297.64919
297.66025
297.67222
297.6853
297.69966
297.71545
297.7328
297.75184
297.77263
297.79522
297.81957
297.84554
297.87271
297.90024
297.92667
297.94995
297.96758
297.97683
297.9755
297.96405
297.9476
297.93729
297.95238
292.89818
284.70246
288.87702
287.27531
288.54562
288.47125
288.95772
289.25649
289.61775
289.97793
290.34972
290.72926
291.11571
291.50711
291.90155
292.29687
292.69077
293.08084
293.46463
293.83968
294.20358
294.55409
294.88912
295.20686
295.50582
295.78483
296.04309
296.28019
296.49607
296.69098
296.8655
297.02042
297.15675
297.27567
297.37842
297.46634
297.54078
297.60307
297.65453
297.69642
297.72992
297.75616
297.77616
297.79088
297.80117
297.80782
297.81153
297.81292
297.81256
297.81094
297.80849
297.8056
297.80261
297.79981
297.79747
297.79582
297.79507
297.79542
297.79702
297.80002
297.80458
297.81081
297.81881
297.82868
297.84049
297.85426
297.87
297.88761
297.90689
297.92743
297.94841
297.9685
297.98587
297.99829
298.00331
297.9988
297.98447
297.96466
297.95177
297.96568
293.02316
285.07317
289.21059
287.73775
288.97962
289.0078
289.51325
289.87384
290.28325
290.69457
291.11627
291.54409
291.97635
292.41037
292.84346
293.27273
293.6952
294.10787
294.5078
294.89219
295.25848
295.60445
295.92826
296.22849
296.50424
296.75504
296.98088
297.18219
297.35972
297.51456
297.648
297.76151
297.85668
297.93513
297.99853
298.04849
298.08656
298.11425
298.13294
298.14392
298.14839
298.14742
298.14199
298.13297
298.12114
298.10719
298.09172
298.07527
298.05829
298.04118
298.0243
298.00794
297.99236
297.97779
297.9644
297.95238
297.94187
297.933
297.92587
297.9206
297.91725
297.91592
297.91666
297.91952
297.92453
297.93168
297.94093
297.95216
297.96514
297.97943
297.99429
298.00851
298.02049
298.02832
298.02978
298.0226
298.00594
297.98397
297.96905
297.97923
293.20045
285.58056
289.61794
288.31792
289.5339
289.67694
290.21415
290.64358
291.11074
291.58019
292.05722
292.53695
293.01663
293.49265
293.9614
294.41916
294.86227
295.28723
295.69084
296.07032
296.42341
296.7484
297.04424
297.31045
297.54715
297.75497
297.93499
298.08864
298.21762
298.32381
298.4092
298.47582
298.52569
298.56075
298.58288
298.59383
298.59522
298.58855
298.57517
298.5563
298.53304
298.50635
298.47709
298.44601
298.41376
298.3809
298.34792
298.31523
298.28319
298.2521
298.2222
298.19371
298.16681
298.14164
298.11832
298.09696
298.07763
298.06042
298.04538
298.03256
298.02199
298.01372
298.00777
298.00414
298.00284
298.00383
298.00702
298.01229
298.01938
298.02789
298.0371
298.04597
298.05311
298.05693
298.05541
298.04609
298.0278
298.00474
297.98833
297.99067
293.44129
286.27035
290.14195
289.04674
290.23906
290.50965
291.09271
291.59778
292.13101
292.66416
293.19971
293.73189
294.25651
294.76884
295.26426
295.73831
296.18693
296.6066
296.99451
297.34862
297.6677
297.95131
298.19979
298.41412
298.59579
298.74676
298.86925
298.9657
299.03861
299.09052
299.12388
299.14105
299.14426
299.13556
299.11685
299.08983
299.05604
299.01686
298.97348
298.92698
298.87828
298.82819
298.77739
298.72649
298.67599
298.6263
298.57779
298.53075
298.48542
298.442
298.40065
298.36149
298.32461
298.2901
298.258
298.22837
298.20122
298.17658
298.15446
298.13486
298.11778
298.10322
298.09117
298.08161
298.0745
298.06979
298.06737
298.06711
298.06878
298.07196
298.07603
298.08009
298.08299
298.08333
298.07923
298.06825
298.04916
298.02573
298.00736
298.0011
293.77209
287.12645
290.80928
289.96121
291.1326
291.54047
292.18484
292.77212
293.37773
293.97739
294.57034
295.14951
295.70911
296.24332
296.74692
297.21539
297.6452
298.03388
298.38005
298.68343
298.94467
299.16528
299.3474
299.49367
299.60707
299.69073
299.74784
299.78154
299.79485
299.79062
299.77147
299.73983
299.69785
299.6475
299.59049
299.52835
299.46241
299.3938
299.32354
299.25246
299.1813
299.11066
299.04106
298.97292
298.90659
298.84236
298.78045
298.72105
298.66428
298.61025
298.55903
298.51066
298.46517
298.42257
298.38285
298.34601
298.31201
298.28084
298.25245
298.22682
298.20392
298.1837
298.16614
298.15118
298.13877
298.12883
298.12125
298.1159
298.11256
298.11087
298.11027
298.11004
298.10924
298.10658
298.10018
298.08789
298.06872
298.0455
298.02506
298.01009
294.23289
288.09476
291.66261
291.09644
292.25795
292.81079
293.53297
294.20813
294.88778
295.54961
296.18925
296.79834
297.37011
297.8987
298.37961
298.80986
299.18798
299.51394
299.78899
300.0154
300.19625
300.33517
300.43612
300.50317
300.54039
300.55169
300.54075
300.511
300.46555
300.4072
300.33843
300.26143
300.17813
300.09019
299.99904
299.90591
299.81184
299.71772
299.62429
299.53216
299.44185
299.35377
299.26825
299.18556
299.1059
299.02944
298.95626
298.88646
298.82006
298.75709
298.69753
298.64137
298.58856
298.53907
298.49283
298.44977
298.40984
298.37297
298.33909
298.30814
298.28006
298.25479
298.23226
298.21241
298.19517
298.18044
298.16813
298.15809
298.15013
298.14397
298.13913
298.13502
298.13086
298.12549
298.11708
298.10379
298.08489
298.06223
298.03995
298.01716
294.87872
289.34352
292.74861
292.50395
293.67515
294.3783
295.18934
295.95013
296.69266
297.39639
298.05429
298.6582
299.20248
299.68349
300.09977
300.45182
300.74179
300.97317
301.15038
301.27843
301.36262
301.40828
301.42058
301.4044
301.36424
301.30419
301.2279
301.13859
301.03907
300.9318
300.81886
300.70206
300.58291
300.46269
300.34248
300.22318
300.10552
299.99011
299.87743
299.76789
299.66178
299.55935
299.46075
299.36612
299.27552
299.18901
299.10658
299.02821
298.95387
298.8835
298.81703
298.75437
298.69544
298.64013
298.58835
298.54
298.49497
298.45317
298.41449
298.37886
298.34618
298.31639
298.28939
298.26511
298.24347
298.22435
298.20767
298.1933
298.18109
298.17081
298.16208
298.15438
298.14701
298.139
298.12885
298.11489
298.09631
298.07423
298.05053
298.02192
295.76583
290.93291
294.1518
294.26274
295.46252
296.30995
297.20148
298.02413
298.7939
299.49412
300.11865
300.66287
301.12559
301.50822
301.81441
302.04946
302.21977
302.33231
302.39422
302.41247
302.39368
302.3439
302.26862
302.1727
302.06037
301.93532
301.80069
301.65915
301.51296
301.36402
301.21391
301.06392
300.91515
300.76846
300.62457
300.48405
300.34734
300.2148
300.08669
299.9632
299.84445
299.73054
299.62148
299.51729
299.41793
299.32335
299.23346
299.14818
299.0674
298.99101
298.91887
298.85086
298.78685
298.72669
298.67025
298.6174
298.568
298.52192
298.47906
298.4393
298.40255
298.3687
298.33767
298.30936
298.28368
298.26053
298.23981
298.22144
298.20527
298.19115
298.17877
298.16769
298.15728
298.14674
298.13493
298.12032
298.10193
298.08037
298.05613
298.02419
296.87764
292.98637
295.97715
296.45595
297.68652
298.64981
299.57737
300.40255
301.13194
301.75695
302.27768
302.69703
303.0211
303.25798
303.41699
303.50791
303.54042
303.5237
303.46618
303.37542
303.25803
303.11975
302.96546
302.79929
302.62469
302.44455
302.26123
302.07668
301.8925
301.70996
301.53012
301.35379
301.18163
301.01414
300.85171
300.69462
300.54308
300.39722
300.2571
300.12277
299.99419
299.87134
299.75412
299.64245
299.5362
299.43526
299.33947
299.24869
299.16276
299.0815
299.00477
298.93239
298.86418
298.79998
298.73963
298.68295
298.6298
298.58003
298.53351
298.4901
298.44971
298.41222
298.37752
298.34552
298.31612
298.28923
298.26478
298.24268
298.22282
298.20506
298.18916
298.17482
298.16157
298.14873
298.13525
298.11989
298.10176
298.08084
298.05645
298.02373
298.38826
295.61617
298.32027
299.13744
300.34441
301.36828
302.24357
302.97471
303.57088
304.03597
304.38044
304.61667
304.75843
304.81959
304.81342
304.75206
304.64632
304.50555
304.33771
304.1495
303.94645
303.73311
303.51321
303.28974
303.06512
302.84129
302.61979
302.40182
302.18833
301.98006
301.77756
301.58123
301.39137
301.20818
301.03178
300.86221
300.69949
300.54358
300.39441
300.25186
300.11583
299.98616
299.8627
299.74528
299.63371
299.52782
299.42742
299.3323
299.24226
299.15712
299.07667
299.00071
298.92905
298.86148
298.79782
298.73789
298.68151
298.62852
298.57877
298.53214
298.48848
298.44769
298.40966
298.37427
298.34144
298.31109
298.28315
298.25755
298.23423
298.21305
298.19387
298.17643
298.16042
298.14528
298.13017
298.11405
298.09608
298.07587
298.05225
298.02135
300.34242
298.89261
301.17931
302.28335
303.46046
304.32051
305.02377
305.54898
305.91859
306.15096
306.26724
306.28746
306.23012
306.11145
305.94533
305.74332
305.51491
305.26778
305.00809
304.74073
304.46955
304.19758
303.92717
303.66014
303.39789
303.14148
302.89169
302.64912
302.41416
302.18709
301.96807
301.75719
301.55446
301.35985
301.17327
300.9946
300.82371
300.66042
300.50457
300.35595
300.21435
300.07958
299.95141
299.82961
299.71397
299.60426
299.50024
299.4017
299.30841
299.22014
299.13666
299.05777
298.98323
298.91283
298.84637
298.78363
298.72445
298.66864
298.61604
298.56651
298.51993
298.47615
298.43507
298.39658
298.3606
298.32704
298.29586
298.26701
298.24044
298.21607
298.19379
298.17345
298.15483
298.13751
298.12082
298.10395
298.08618
298.06697
298.04512
298.01786
302.76667
302.80436
304.79847
305.76718
306.65756
307.2667
307.67312
307.89793
307.97736
307.94088
307.81514
307.62213
307.37976
307.10226
306.80078
306.48394
306.15835
305.82905
305.49985
305.17361
304.85247
304.53799
304.23131
303.93325
303.64434
303.36496
303.09531
302.83548
302.58548
302.34524
302.11465
301.89355
301.68176
301.47907
301.28526
301.10009
300.92332
300.7547
300.59397
300.44087
300.29515
300.15654
300.02479
299.89964
299.78083
299.66812
299.56124
299.45995
299.36401
299.27316
299.18717
299.1058
299.02881
298.95598
298.88708
298.8219
298.76024
298.70192
298.64677
298.59464
298.5454
298.49891
298.45505
298.41372
298.37484
298.33833
298.30417
298.27232
298.24275
298.21542
298.19029
298.16729
298.14627
298.12695
298.10882
298.09131
298.07388
298.05599
298.03664
298.01402
305.80385
307.19287
308.51482
309.21438
309.69219
309.90376
309.93105
309.81554
309.5977
309.3076
308.96853
308.59777
308.20809
307.80881
307.40668
307.00655
306.61189
306.22512
305.84794
305.48148
305.12647
304.78335
304.45235
304.13351
303.82679
303.53205
303.2491
302.97769
302.71755
302.4684
302.22992
302.00181
301.78374
301.57541
301.3765
301.18669
301.00567
300.83314
300.66879
300.51232
300.36344
300.22187
300.0873
299.95948
299.83811
299.72293
299.61367
299.51007
299.41186
299.31879
299.23062
299.14708
299.06793
298.99293
298.92185
298.85446
298.79056
298.72997
298.6725
298.618
298.56633
298.51736
298.47097
298.42706
298.38554
298.34636
298.3095
298.27493
298.24265
298.21265
298.18496
298.15957
298.13643
298.11536
298.09602
298.07804
298.06108
298.04471
298.02817
298.01043
309.71877
311.50144
312.04331
312.23256
312.18253
311.95419
311.60961
311.19085
310.7279
310.24127
309.74491
309.24821
308.75741
308.2766
307.80841
307.35447
306.91571
306.4926
306.08528
305.69367
305.31756
304.95661
304.61045
304.27866
303.9608
303.65642
303.36505
303.08627
302.81962
302.56467
302.32101
302.08823
301.86593
301.65374
301.45127
301.25818
301.0741
300.8987
300.73165
300.57263
300.42132
300.27741
300.14061
300.01062
299.88716
299.76993
299.65867
299.5531
299.45296
299.35797
299.26788
299.18244
299.10139
299.02447
298.95145
298.88211
298.81623
298.75362
298.69409
298.6375
298.58368
298.53252
298.48389
298.4377
298.39389
298.35239
298.31318
298.27626
298.24163
298.20933
298.17943
298.152
298.12709
298.1046
298.0843
298.06599
298.04954
298.03465
298.0208
298.00739
314.64218
315.01966
314.75786
314.39592
313.88097
313.2958
312.67591
312.04671
311.4223
310.81124
310.21828
309.64597
309.09548
308.56714
308.0608
307.57597
307.112
306.66815
306.24364
305.83767
305.44947
305.07827
304.72336
304.38402
304.05961
303.74948
303.45306
303.16977
302.89908
302.64049
302.3935
302.15766
301.93254
301.71772
301.51278
301.31736
301.13107
300.95357
300.78449
300.62352
300.47033
300.3246
300.18602
300.05429
299.92912
299.81021
299.6973
299.5901
299.48834
299.39175
299.30006
299.21302
299.13036
299.05183
298.9772
298.90623
298.83869
298.7744
298.71317
298.65483
298.59923
298.54624
298.49576
298.4477
298.40199
298.35857
298.31743
298.27856
298.24197
298.20772
298.17596
298.14683
298.12046
298.09678
298.07567
298.05702
298.04087
298.0271
298.01534
298.00519
316.62862
316.79891
316.23634
315.48331
314.71345
313.94223
313.19007
312.46453
311.76909
311.10474
310.4712
309.86752
309.29244
308.74459
308.22253
307.7249
307.25036
306.79768
306.36569
305.9533
305.55951
305.18339
304.82408
304.48077
304.15272
303.83924
303.53968
303.25343
302.97993
302.71865
302.46907
302.23073
302.00318
301.78599
301.57875
301.38106
301.19256
301.01289
300.84168
300.67862
300.52338
300.37563
300.23507
300.10141
299.97434
299.85358
299.73884
299.62985
299.52634
299.42802
299.33465
299.24595
299.16166
299.08154
299.00532
298.93278
298.86369
298.79784
298.73505
298.67513
298.61793
298.56332
298.5112
298.46147
298.41407
298.36895
298.32607
298.28543
298.24706
298.21105
298.17758
298.14686
298.11906
298.09417
298.07212
298.05291
298.03664
298.02322
298.01242
298.00404
309.91366
308.64472
305.00883
302.10532
300.81704
300.52721
300.4608
300.4583
300.34814
300.29105
300.1847
300.11827
300.03102
299.9471
299.86193
299.77591
299.68921
299.60181
299.51373
299.42502
299.33577
299.2461
299.15613
299.06599
298.97584
298.88582
298.79606
298.70671
298.61792
298.52982
298.44255
298.35626
298.27106
298.18711
298.10453
298.02345
297.94402
297.86635
297.7906
297.7169
297.64538
297.57618
297.50946
297.44536
297.38402
297.32559
297.27022
297.21807
297.16928
297.124
297.08238
297.04455
297.01065
296.9808
296.95512
296.93371
296.91664
296.904
296.8958
296.89208
296.89287
296.89815
296.90787
296.92193
296.94039
296.96305
296.99064
297.02226
297.06142
297.1035
297.16175
297.21721
297.31089
297.38005
297.53448
297.60893
297.83358
297.851
298.0268
297.90919
309.12147
306.27417
302.10771
300.04071
299.46564
299.46707
299.56737
299.57964
299.57522
299.55037
299.52858
299.49151
299.44971
299.40256
299.35161
299.29696
299.23899
299.17792
299.1141
299.04783
298.97941
298.90912
298.83722
298.76396
298.68957
298.61429
298.53833
298.46191
298.38524
298.30851
298.23193
298.15567
298.07994
298.0049
297.93074
297.85764
297.78577
297.71531
297.64642
297.57927
297.51404
297.4509
297.39001
297.33154
297.27567
297.22256
297.17237
297.12528
297.08144
297.04101
297.00414
296.97097
296.94164
296.91628
296.895
296.87789
296.86503
296.85648
296.85225
296.85237
296.85686
296.86568
296.87879
296.8961
296.91766
296.94334
296.97384
297.00846
297.05041
297.09582
297.15665
297.21575
297.31141
297.38473
297.53976
297.61553
297.8378
297.8477
298.02767
297.9005
307.75788
304.21629
301.11447
299.41255
299.08056
299.12128
299.15835
299.13385
299.10678
299.07526
299.04456
299.01059
298.97488
298.93626
298.8954
298.85206
298.80652
298.75874
298.70882
298.65688
298.60302
298.54736
298.49005
298.43122
298.37103
298.30963
298.2472
298.18389
298.1199
298.0554
297.99058
297.92562
297.86071
297.79604
297.7318
297.66819
297.60541
297.54363
297.48306
297.42388
297.3663
297.31051
297.25669
297.20503
297.15574
297.10899
297.06496
297.02384
296.98581
296.95102
296.91964
296.89183
296.86771
296.84742
296.83108
296.81877
296.81056
296.8065
296.80661
296.8109
296.81939
296.83203
296.84877
296.86955
296.89442
296.92331
296.95689
296.99465
297.03958
297.08829
297.15193
297.21443
297.31235
297.3892
297.54515
297.62167
297.84138
297.84473
298.02789
297.89221
306.57568
302.77472
299.96282
298.67232
298.62074
298.63875
298.65818
298.62298
298.6058
298.57761
298.5547
298.52629
298.49776
298.46718
298.43546
298.40209
298.36726
298.33081
298.29275
298.2531
298.21187
298.16909
298.12482
298.07913
298.03207
297.98376
297.9343
297.8838
297.8324
297.78023
297.72745
297.67422
297.6207
297.56709
297.51355
297.46027
297.40746
297.3553
297.30401
297.25377
297.2048
297.15731
297.1115
297.06758
297.02574
296.98621
296.94916
296.9148
296.88331
296.85488
296.82966
296.80781
296.78949
296.77482
296.76392
296.75687
296.75373
296.75456
296.75936
296.76814
296.7809
296.79761
296.81822
296.84267
296.87104
296.90332
296.94014
296.98114
297.02917
297.08121
297.14779
297.2136
297.31384
297.39384
297.55076
297.62771
297.84459
297.84187
298.02747
297.8843
305.88748
301.58177
299.01283
298.05741
298.13677
298.11225
298.1405
298.10405
298.09853
298.07472
298.06026
298.0389
298.01904
297.99726
297.97486
297.95121
297.92649
297.90053
297.87331
297.84481
297.81501
297.7839
297.75148
297.71778
297.68282
297.64665
297.60934
297.57096
297.53159
297.49135
297.45035
297.40871
297.36659
297.32413
297.28149
297.23886
297.19641
297.15433
297.11281
297.07208
297.03232
296.99375
296.95658
296.92104
296.88732
296.85564
296.82622
296.79924
296.7749
296.7534
296.7349
296.71956
296.70754
296.69896
296.69393
296.69255
296.69487
296.70093
296.71073
296.72427
296.74157
296.76258
296.78727
296.81559
296.84763
296.88343
296.92363
296.96799
297.01921
297.07458
297.1442
297.21326
297.31581
297.39864
297.55653
297.63359
297.84753
297.83906
298.0265
297.87662
305.3275
300.41106
298.22373
297.46818
297.62027
297.56546
297.61379
297.57767
297.58719
297.56991
297.5665
297.55373
297.54361
297.53125
297.5185
297.50461
297.48976
297.47382
297.45678
297.43862
297.41932
297.39887
297.37725
297.35449
297.33058
297.30556
297.27945
297.25232
297.22421
297.1952
297.16538
297.13486
297.10374
297.07216
297.04025
297.00817
296.97609
296.94417
296.91262
296.88161
296.85135
296.82206
296.79393
296.76719
296.74203
296.71869
296.69736
296.67824
296.66154
296.64745
296.63613
296.62775
296.62246
296.62037
296.62161
296.62626
296.63437
296.64596
296.66104
296.67961
296.70167
296.72719
296.75614
296.78849
296.82435
296.86382
296.9075
296.95531
297.00978
297.06851
297.14118
297.21348
297.31826
297.40376
297.56244
297.63938
297.85021
297.8363
298.02506
297.86875
304.7574
299.37846
297.58775
296.93224
297.1323
297.05122
297.11939
297.08159
297.10374
297.09092
297.0966
297.09093
297.08878
297.08411
297.07933
297.07361
297.06708
297.05967
297.05137
297.04215
297.03198
297.02085
297.00874
296.99564
296.98155
296.96648
296.95046
296.9335
296.91565
296.89696
296.8775
296.85734
296.83658
296.81533
296.79369
296.77181
296.74983
296.72792
296.70623
296.68494
296.66426
296.64436
296.62545
296.60774
296.59143
296.57672
296.56382
296.55292
296.54423
296.53791
296.53415
296.53309
296.53488
296.53964
296.54747
296.55845
296.57263
296.59002
296.61063
296.63444
296.66146
296.69167
296.72504
296.76157
296.80138
296.84462
296.89189
296.9432
297.00097
297.06309
297.13875
297.21427
297.32122
297.4092
297.56847
297.64509
297.85267
297.83358
298.02325
297.86148
304.28816
298.446
297.05562
296.44379
296.68244
296.57609
296.66319