/*--------------------------------*- C++ -*----------------------------------*\
  =========                 |
  \\      /  F ield         | OpenFOAM: The Open Source CFD Toolbox
   \\    /   O peration     | Website:  https://openfoam.org
    \\  /    A nd           | Version:  12
     \\/     M anipulation  |
\*---------------------------------------------------------------------------*/
FoamFile
{
    format      ascii;
    class       volVectorField;
    location    "0.076";
    object      U;
}
// * * * * * * * * * * * * * * * * * * * * * * * * * * * * * * * * * * * * * //

dimensions      [0 1 -1 0 0 0 0];

internalField   nonuniform List<vector> 
16000
(
(214.64299 -3.1412975e-17 -8.3122111)
(251.26323 0 5.3348725)
(237.44536 0 -7.5022795)
(245.08209 4.9739657e-17 3.7539895)
(240.4444 -4.9092406e-17 -5.8904333)
(242.62082 0 1.7377555)
(240.84743 0 -4.2721882)
(241.3425 8.4033562e-17 -0.024972753)
(240.51313 -7.9837457e-17 -3.1136816)
(240.38827 0 -1.2461423)
(239.87829 7.2138075e-17 -2.5232813)
(239.53236 -2.0552121e-16 -1.9488829)
(239.09145 1.3008205e-16 -2.378911)
(238.66522 -1.2373548e-16 -2.3141288)
(238.21122 1.1740115e-16 -2.470044)
(237.74348 -3.4827154e-18 -2.5376387)
(237.25729 -3.308401e-18 -2.6361466)
(236.75355 -9.7617749e-17 -2.7237655)
(236.23169 1.9125382e-16 -2.8128704)
(235.69158 -9.0742272e-17 -2.8995075)
(235.13307 1.72599e-16 -2.9840539)
(234.55608 -1.636104e-16 -3.065807)
(233.96061 0 -3.1442636)
(233.34677 1.5228873e-16 -3.2188372)
(232.71473 -4.1248105e-18 -3.2889326)
(232.06481 -2.6578635e-16 -3.3539238)
(231.39741 1.2597314e-16 -3.4131776)
(230.71306 0 -3.4660492)
(230.01244 0 -3.5118978)
(229.29633 2.1875898e-16 -3.5500923)
(228.56566 -2.0382701e-16 -3.580024)
(227.8215 0 -3.6011159)
(227.06506 0 -3.6128336)
(226.29765 0 -3.6146993)
(225.52074 5.1421422e-18 -3.6063016)
(224.73591 1.5604196e-16 -3.5873072)
(223.94483 -1.4284542e-16 -3.5574714)
(223.14928 -1.3989963e-16 -3.516646)
(222.35112 1.2387453e-16 -3.4647884)
(221.55224 0 -3.4019689)
(220.7546 -1.1855131e-16 -3.3283723)
(219.96014 1.1190144e-16 -3.2443026)
(219.17082 -2.1206345e-16 -3.1501789)
(218.38854 2.0008087e-16 -3.0465322)
(217.61515 -1.95399e-16 -2.9339973)
(216.85244 3.5774609e-16 -2.8133018)
(216.10207 5.5987019e-18 -2.6852547)
(215.3656 2.9137663e-19 -2.5507318)
(214.64445 -1.5057749e-16 -2.4106595)
(213.9399 1.4240618e-16 -2.2659986)
(213.25305 -1.2579224e-16 -2.1177283)
(212.58485 0 -1.9668281)
(211.93607 7.4762748e-18 -1.8142625)
(211.30729 0 -1.6609636)
(210.69893 6.6528966e-18 -1.5078168)
(210.11123 2.0714986e-16 -1.3556488)
(209.54423 -3.7862624e-16 -1.2052164)
(208.99782 1.093999e-17 -1.0571941)
(208.4717 1.6825387e-16 -0.91216184)
(207.96536 -1.4892395e-16 -0.77060819)
(207.47808 1.4028466e-16 -0.63290083)
(207.00898 -8.827531e-18 -0.49932547)
(206.55706 0 -0.37004186)
(206.12105 0 -0.2450687)
(205.69941 -1.1124817e-16 -0.12429685)
(205.29031 1.1193589e-16 -0.0074904156)
(204.8916 -9.918716e-17 0.10565711)
(204.50079 1.9362254e-16 0.21543361)
(204.11504 -1.8897188e-16 0.32201807)
(203.73103 8.3781739e-17 0.42539647)
(203.34542 5.291052e-18 0.52517048)
(202.95593 0 0.61989968)
(202.56438 4.7579306e-18 0.70653759)
(202.18047 -4.5197437e-18 0.7806278)
(201.81988 0 0.83616489)
(201.51558 -3.379976e-17 0.86266045)
(201.16703 6.2538212e-17 0.85219629)
(201.19166 -3.1774096e-17 0.98679556)
(200.47881 0 0.48803887)
(201.07746 0 1.7448569)
(215.90871 0 -11.119048)
(252.85968 -3.7309125e-18 3.2998399)
(238.38981 -1.1987651e-16 -10.41552)
(246.50096 1.1053876e-16 1.6730413)
(241.50854 0 -8.7429961)
(243.91704 1.0169685e-16 -0.41244664)
(241.93879 -1.8778817e-16 -7.0084623)
(242.52291 -1.0128778e-19 -2.2962189)
(241.60214 8.4629048e-17 -5.6949472)
(241.47843 0 -3.634106)
(240.92753 -1.5286685e-16 -4.989577)
(240.55292 1.4953345e-16 -4.3817522)
(240.0801 1.4221763e-16 -4.7986391)
(239.61971 -2.6180169e-16 -4.7341387)
(239.1314 1.2035116e-16 -4.8701298)
(238.62752 1.1064425e-17 -4.9302621)
(238.10423 1.1569544e-16 -5.0132341)
(237.56211 -1.0304015e-16 -5.0871235)
(237.00076 0 -5.1602047)
(236.42008 0 -5.2297779)
(235.81999 5.6858965e-18 -5.2957201)
(235.2005 -1.783598e-16 -5.3573174)
(234.56174 3.3820263e-16 -5.4139324)
(233.90392 -3.1602051e-16 -5.4648791)
(233.22739 1.4283774e-16 -5.5094577)
(232.53261 0 -5.5469558)
(231.82016 1.2457383e-16 -5.576653)
(231.09077 -1.3358265e-16 -5.597837)
(230.34533 0 -5.6098105)
(229.58482 3.5304134e-18 -5.6119029)
(228.81043 -1.3389708e-17 -5.6034814)
(228.02345 0 -5.5839668)
(227.22533 0 -5.5528409)
(226.41763 -1.7083998e-16 -5.5096666)
(225.60207 3.3923133e-16 -5.4540953)
(224.78044 -1.6289611e-16 -5.3858805)
(223.95466 -1.5928793e-16 -5.3048904)
(223.1267 1.4579254e-16 -5.2111136)
(222.2986 -1.1228681e-16 -5.1046694)
(221.47241 -2.8149807e-19 -4.9858122)
(220.6502 -2.6321304e-19 -4.854933)
(219.83402 2.3306029e-16 -4.7125585)
(219.02586 -1.0996139e-16 -4.5593447)
(218.22764 0 -4.3960681)
(217.44119 2.0259841e-16 -4.2236145)
(216.66822 1.1943483e-17 -4.0429642)
(215.91029 -5.1299314e-18 -3.8551753)
(215.16884 -1.6471924e-16 -3.6613669)
(214.44512 0 -3.462699)
(213.74021 -1.4670916e-16 -3.2603532)
(213.05502 -8.8628244e-18 -3.0555132)
(212.39026 2.6038545e-16 -2.849344)
(211.74646 -1.3022591e-16 -2.6429746)
(211.124 0 -2.4374807)
(210.52303 -2.0403792e-17 -2.2338692)
(209.94358 -2.1142017e-16 -2.0330679)
(209.38549 3.616412e-16 -1.8359126)
(208.84842 -2.1549649e-16 -1.6431369)
(208.33191 0 -1.4553602)
(207.83528 -1.7096738e-16 -1.2730924)
(207.35768 1.7966795e-16 -1.096706)
(206.89808 2.6713253e-17 -0.92646534)
(206.45538 0 -0.76250963)
(206.0282 -1.4203531e-16 -0.60481728)
(205.61494 7.3334448e-18 -0.4532366)
(205.21371 1.1183139e-16 -0.30749684)
(204.82232 -1.9758681e-17 -0.1672705)
(204.43831 9.3105634e-17 -0.032275655)
(204.05888 -1.0525038e-16 0.097625399)
(203.68093 5.515377e-18 0.22235452)
(203.30129 -5.2044626e-18 0.34137642)
(202.91796 0 0.45303681)
(202.53316 -4.6443755e-18 0.55427971)
(202.15728 4.3930751e-18 0.64126732)
(201.80699 8.3201844e-18 0.70698379)
(201.49136 9.8574136e-19 0.73645377)
(201.21955 0 0.76293708)
(201.07428 3.0259336e-17 0.8348474)
(200.60223 -5.7583744e-17 0.45658564)
(200.97118 2.586604e-17 1.5872371)
(217.04128 0 -13.996686)
(254.30641 -1.2272695e-16 1.0645727)
(239.32218 2.5021209e-16 -13.410566)
(247.71941 -2.2349744e-16 -0.56937244)
(242.46797 1.10369e-16 -11.665639)
(245.0127 -3.2681181e-18 -2.7492048)
(242.90768 9.9473053e-17 -9.7881137)
(243.51717 -9.4212877e-17 -4.7612418)
(242.54012 -5.5928752e-18 -8.3370863)
(242.39326 -5.3104082e-18 -6.1851611)
(241.80715 -1.0087781e-17 -7.5519315)
(241.39677 1.3916869e-16 -6.9492319)
(240.88867 -1.4106764e-16 -7.3353023)
(240.38999 1.3844679e-16 -7.2774783)
(239.8628 -1.1893414e-16 -7.3922552)
(239.31841 -1.5587681e-17 -7.444247)
(238.75335 0 -7.5116009)
(238.16822 -1.1710536e-20 -7.5705997)
(237.5627 -2.2670884e-16 -7.626559)
(236.93679 -3.6327032e-19 -7.6774459)
(236.29053 1.7376473e-16 -7.7228234)
(235.62406 1.7068258e-17 -7.7618946)
(234.93766 -2.1588436e-17 -7.7939035)
(234.2317 0 -7.8180617)
(233.50672 6.5421829e-21 -7.8335759)
(232.76337 -1.657155e-16 -7.8396504)
(232.00247 1.480486e-16 -7.8354991)
(231.22496 8.2624207e-18 -7.8203528)
(230.43198 0 -7.7934789)
(229.6248 -7.4122564e-18 -7.7541871)
(228.80485 -2.1635629e-21 -7.7018506)
(227.97374 -1.9952266e-16 -7.635917)
(227.13317 2.0094772e-16 -7.5559241)
(226.28503 1.1907839e-17 -7.4615185)
(225.43128 -1.8024811e-16 -7.3524632)
(224.574 1.4876172e-16 -7.2286552)
(223.71534 -1.8125663e-16 -7.0901336)
(222.85749 1.5192746e-16 -6.9370893)
(222.00268 -1.4384306e-16 -6.7698673)
(221.1531 1.3556855e-16 -6.5889726)
(220.31092 1.6029212e-17 -6.3950656)
(219.47825 0 -6.1889538)
(218.65709 1.9993683e-16 -5.9715835)
(217.84933 -2.4200891e-16 -5.7440232)
(217.05671 0 -5.5074471)
(216.28081 1.7960473e-16 -5.2631174)
(215.52304 -1.5761134e-16 -5.0123614)
(214.78462 1.7004567e-16 -4.7565508)
(214.06656 -1.7986633e-16 -4.4970783)
(213.3697 0 -4.2353351)
(212.69465 1.7735175e-16 -3.9726889)
(212.04185 -1.3328881e-16 -3.7104614)
(211.41153 0 -3.4499112)
(210.80378 0 -3.1922174)
(210.21849 1.2487846e-16 -2.9384644)
(209.6554 -2.0855629e-16 -2.6896338)
(209.11409 1.2242735e-16 -2.4465922)
(208.594 1.8424165e-16 -2.2100833)
(208.09445 1.9232755e-19 -1.9807187)
(207.6146 1.7078242e-19 -1.7589822)
(207.1534 -3.2430052e-16 -1.5452148)
(206.70971 8.9502897e-17 -1.339623)
(206.28227 0 -1.1422956)
(205.86965 1.4224844e-16 -0.95315401)
(205.47014 -1.6318059e-16 -0.77199266)
(205.08183 1.1153302e-16 -0.59850492)
(204.70251 1.3161168e-17 -0.43235129)
(204.32977 -8.607119e-17 -0.27326527)
(203.96092 1.1558506e-17 -0.12114496)
(203.59304 2.1738306e-17 0.023869925)
(203.22326 -1.0223252e-16 0.16110344)
(202.85002 9.6156015e-17 0.28876729)
(202.47632 -7.2453162e-17 0.40398421)
(202.1129 1.3648107e-16 0.5028618)
(201.77394 -5.6276204e-17 0.5764719)
(201.4678 -6.0712741e-17 0.61624716)
(201.22216 5.0149265e-17 0.66296515)
(201.02079 0 0.6936631)
(200.66231 3.2077099e-18 0.41917124)
(200.89556 -1.2165187e-17 1.4199419)
(218.01965 0 -16.942506)
(255.60678 0 -1.3051194)
(240.04318 0 -16.53853)
(248.76034 1.0682143e-16 -2.9166761)
(243.24683 -1.2402236e-16 -14.717117)
(245.94745 -2.2089493e-16 -5.203041)
(243.7006 2.1008377e-16 -12.685027)
(244.3384 -1.2443689e-17 -7.3525151)
(243.29708 5.9247593e-18 -11.088991)
(243.12329 -1.7423314e-16 -8.8664448)
(242.49726 1.7057192e-16 -10.224753)
(242.04557 1.0136582e-17 -9.6409604)
(241.49727 -1.5392779e-16 -9.9882926)
(240.95499 1.3673891e-16 -9.9386431)
(240.38383 -1.3072487e-20 -10.030863)
(239.79383 -8.2013016e-18 -10.072684)
(239.18208 0 -10.122733)
(238.54913 -7.402215e-18 -10.164317)
(237.89481 -2.1071163e-16 -10.200436)
(237.21923 2.127622e-16 -10.229505)
(236.52256 1.2628522e-17 -10.250864)
(235.8051 -1.1972768e-17 -10.263631)
(235.06729 2.1575254e-16 -10.266952)
(234.30971 -1.7185907e-16 -10.259949)
(233.5331 1.0191101e-17 -10.241742)
(232.73836 1.9323971e-16 -10.211464)
(231.92656 -1.2782928e-16 -10.168267)
(231.09896 0 -10.111344)
(230.25698 1.4769648e-16 -10.03994)
(229.40222 -1.2397451e-16 -9.9533743)
(228.53644 2.4984255e-16 -9.8510515)
(227.66157 -1.3352206e-17 -9.7324879)
(226.77967 -2.0986167e-16 -9.5973223)
(225.89292 1.7405369e-16 -9.4453359)
(225.0036 -1.8750282e-16 -9.2764629)
(224.11406 -3.0477959e-20 -9.0908058)
(223.2267 2.0959692e-16 -8.8886419)
(222.34392 -3.1631487e-16 -8.6704279)
(221.46807 9.3098153e-17 -8.4368021)
(220.60149 3.5245632e-17 -8.1885791)
(219.74637 -4.9837326e-17 -7.9267432)
(218.90481 0 -7.6524314)
(218.07877 -8.8674349e-17 -7.3669183)
(217.26999 1.388828e-16 -7.071593)
(216.48007 -2.0969074e-16 -6.7679378)
(215.71037 1.9702874e-16 -6.4575053)
(214.96203 -2.0896858e-16 -6.1418896)
(214.23599 3.9293113e-16 -5.822703)
(213.53294 -3.0792549e-16 -5.5015495)
(212.85339 3.087754e-16 -5.179999)
(212.1976 -1.4492881e-16 -4.8595649)
(211.56568 1.3641773e-16 -4.5416839)
(210.95752 -9.590167e-17 -4.2276972)
(210.37287 3.0071135e-17 -3.9188388)
(209.8113 0 -3.6162212)
(209.27228 0 -3.3208299)
(208.75512 0 -3.0335138)
(208.25901 2.3276302e-17 -2.7549806)
(207.78305 0 -2.4857915)
(207.3262 -1.6382242e-16 -2.2263674)
(206.88729 1.9178609e-16 -1.9769827)
(206.46503 -1.0794494e-16 -1.7377639)
(206.05805 -1.1215827e-19 -1.5087242)
(205.66483 2.5255583e-16 -1.2897196)
(205.28363 2.9658469e-17 -1.080487)
(204.91251 -1.3852794e-16 -0.8806863)
(204.5493 5.1948403e-17 -0.68997349)
(204.19164 -1.459525e-16 -0.50810134)
(203.83697 -4.5607001e-17 -0.3349975)
(203.48262 -6.4113223e-17 -0.17086293)
(203.12599 -6.0125341e-17 -0.016494966)
(202.76603 5.6348889e-17 0.12628952)
(202.40637 0 0.25479491)
(202.05748 0 0.36464528)
(201.7318 -1.5531743e-17 0.44649697)
(201.4415 0 0.49881743)
(201.20843 6.8585424e-18 0.55552502)
(200.98272 5.1641016e-17 0.56432327)
(200.69008 -7.2892502e-17 0.37391922)
(200.84075 -2.1416135e-20 1.2487562)
(218.82386 0 -20.08401)
(256.73807 -8.8327189e-18 -3.7505112)
(240.63792 2.6707955e-16 -19.801914)
(249.59511 -2.4951577e-16 -5.3879926)
(243.78942 2.5458629e-16 -17.883237)
(246.68241 -2.3293482e-16 -7.809552)
(244.29604 -2.2203621e-16 -15.68748)
(244.95214 2.1019002e-16 -10.10108)
(243.84786 0 -13.943584)
(243.6378 0 -11.696849)
(242.96973 1.8012753e-16 -13.011138)
(242.47009 -1.7064755e-16 -12.464504)
(241.87701 -1.0137127e-17 -12.763276)
(241.28611 2.88341e-17 -12.720967)
(240.66621 -9.1243969e-18 -12.788437)
(240.02592 3.4607114e-17 -12.816275)
(239.36289 0 -12.846003)
(238.67761 0 -12.866377)
(237.97005 -2.3633153e-16 -12.878802)
(237.24041 2.0959414e-16 -12.881919)
(236.48905 0 -12.874879)
(235.71645 0 -12.856699)
(234.92327 -1.9068898e-16 -12.826394)
(234.11034 3.6087448e-16 -12.782982)
(233.27869 -1.7068086e-16 -12.725482)
(232.42955 -2.0219562e-17 -12.652946)
(231.56432 -3.8295539e-17 -12.564475)
(230.68464 -1.4510314e-16 -12.459234)
(229.7923 1.1980675e-16 -12.336478)
(228.88932 0 -12.195568)
(227.97784 -3.0683041e-17 -12.035997)
(227.06018 0 -11.857409)
(226.13879 0 -11.659611)
(225.21619 2.0711684e-16 -11.442598)
(224.29499 -2.1953052e-16 -11.206557)
(223.3778 2.3027897e-17 -10.95188)
(222.46725 -2.1727763e-17 -10.679168)
(221.5659 -4.1076488e-17 -10.389225)
(220.6762 -8.54108e-20 -10.083061)
(219.80052 8.1086057e-20 -9.7618681)
(218.94102 -7.6489902e-20 -9.4270135)
(218.09971 0 -9.0800094)
(217.27835 -1.2192508e-16 -8.7224944)
(216.47851 1.1449539e-16 -8.3562)
(215.70147 0 -7.9829244)
(214.94828 -5.0744556e-17 -7.6045062)
(214.21974 1.90719e-16 -7.222789)
(213.51639 -2.2358059e-16 -6.8395966)
(212.83854 -2.1033832e-16 -6.4567042)
(212.18626 1.5770206e-16 -6.0758131)
(211.55945 1.1121923e-16 -5.6985293)
(210.95779 -1.3883161e-16 -5.326346)
(210.3808 -3.2548145e-17 -4.9606275)
(209.82788 -2.1381906e-16 -4.6026024)
(209.29828 1.1436069e-16 -4.2533509)
(208.79115 -1.0725477e-16 -3.913804)
(208.30553 1.0032338e-16 -3.5847386)
(207.84038 2.3505304e-16 -3.2667757)
(207.39458 -1.7580487e-16 -2.9603811)
(206.96693 0 -2.6658741)
(206.5561 -3.8471501e-17 -2.383425)
(206.1607 -7.2011922e-17 -2.1130577)
(205.77927 1.3456647e-16 -1.8546873)
(205.41022 1.2589819e-16 -1.6080925)
(205.0518 -2.3528274e-16 -1.3729483)
(204.70208 8.240696e-17 -1.1488816)
(204.35895 5.1370371e-17 -0.935544)
(204.02013 9.6041884e-17 -0.73270465)
(203.68325 1.3464864e-16 -0.54031531)
(203.34583 2.3080229e-20 -0.35863189)
(203.00566 0 -0.18853186)
(202.66221 0 -0.031784442)
(202.31963 -3.4274708e-17 0.10898907)
(201.98788 9.6166649e-17 0.22884393)
(201.67865 -8.9935645e-17 0.3192159)
(201.40603 -8.4177427e-17 0.38368703)
(201.18268 5.2515155e-17 0.44634454)
(200.95246 0 0.44367199)
(200.7001 4.6084303e-17 0.32240503)
(200.7976 3.8914331e-20 1.0813569)
(219.43243 0 -23.396192)
(257.67319 1.8354585e-20 -6.273074)
(241.04104 9.0892238e-18 -23.162183)
(250.26424 2.8901912e-16 -7.9953992)
(244.19074 3.3049519e-19 -21.150128)
(247.18994 -5.0692935e-16 -10.563504)
(244.64743 -3.2093407e-19 -18.782572)
(245.33029 4.5719954e-16 -13.009593)
(244.15809 -2.1035653e-16 -16.897555)
(243.91001 -1.2477786e-17 -14.675179)
(243.19872 1.1850218e-17 -15.909362)
(242.64631 -1.7994113e-16 -15.412327)
(242.00495 1.9170681e-16 -15.654482)
(241.36136 -1.8214673e-16 -15.615479)
(240.68851 3.0682933e-16 -15.655889)
(239.99349 -3.0913621e-16 -15.665312)
(239.27452 1.3777842e-16 -15.671349)
(238.53207 0 -15.666558)
(237.76629 0 -15.651206)
(236.97762 1.4675142e-17 -15.623942)
(236.16663 -2.7826095e-17 -15.583701)
(235.3341 0 -15.529339)
(234.48103 1.9980749e-16 -15.459718)
(233.60861 4.6719678e-19 -15.373734)
(232.71827 -3.5758166e-16 -15.270312)
(231.81165 1.6895837e-16 -15.148441)
(230.89063 1.9990191e-17 -15.007205)
(229.9573 0 -14.84579)
(229.01393 -1.7906712e-16 -14.66352)
(228.063 1.3502883e-16 -14.459878)
(227.10713 -2.2390264e-16 -14.234525)
(226.14907 2.1075205e-16 -13.987326)
(225.19167 -2.2807754e-16 -13.718359)
(224.23781 2.1468808e-16 -13.427937)
(223.2904 7.6102206e-17 -13.116605)
(222.3523 0 -12.78515)
(221.42627 0 -12.434593)
(220.51496 4.2413291e-17 -12.066182)
(219.62084 3.9947088e-17 -11.68137)
(218.74618 -3.7608737e-17 -11.281796)
(217.89301 3.5392415e-17 -10.869258)
(217.06308 6.6770805e-17 -10.445678)
(216.25788 -6.2712541e-17 -10.013074)
(215.47859 3.5357902e-16 -9.5735217)
(214.72612 -2.7658171e-16 -9.1291199)
(214.00108 5.1911014e-17 -8.6819621)
(213.30379 -4.8843786e-17 -8.2340989)
(212.63431 0 -7.7875113)
(211.99249 2.1467582e-16 -7.3440827)
(211.37793 -1.6079825e-16 -6.9055779)
(210.79005 0 -6.4736231)
(210.22814 0 -6.0496957)
(209.6913 1.3230284e-16 -5.6351114)
(209.17857 -6.1840473e-17 -5.2310224)
(208.68887 0 -4.8384116)
(208.22106 -1.6247567e-16 -4.4580938)
(207.77392 1.0114008e-16 -4.0907181)
(207.34621 1.4195825e-16 -3.7367702)
(206.93661 -1.7659079e-16 -3.3965778)
(206.54378 1.6505587e-16 -3.0703232)
(206.16627 -1.5396796e-16 -2.7580436)
(205.8026 6.6097314e-20 -2.4596377)
(205.45126 0 -2.1749071)
(205.11064 6.2582803e-17 -1.9035434)
(204.779 -2.9180157e-16 -1.6451561)
(204.45445 1.6320347e-16 -1.3993383)
(204.13496 0 -1.1657365)
(203.81838 -1.4190653e-16 -0.94412843)
(203.50252 8.8156044e-17 -0.73448509)
(203.18516 1.2333003e-16 -0.53710757)
(202.86446 3.3009566e-20 -0.35291034)
(202.54044 -7.138846e-17 -0.18358047)
(202.21759 9.9842374e-17 -0.031775005)
(201.90529 -1.550994e-16 0.097136087)
(201.61505 8.6739687e-17 0.19603015)
(201.36128 2.6942016e-17 0.2715843)
(201.1486 5.0276827e-17 0.33773358)
(200.92239 0 0.33088463)
(200.70165 -4.3751882e-17 0.26729901)
(200.75838 2.0390061e-17 0.92033385)
(219.83136 0 -26.877054)
(258.40684 9.8301949e-18 -8.8985905)
(241.24833 -3.0647669e-16 -26.644966)
(250.75267 2.5028688e-16 -10.745151)
(244.39492 2.5706216e-16 -24.515733)
(247.46189 -5.0140456e-16 -13.470767)
(244.8138 2.3062751e-16 -21.960228)
(245.46152 2.3348867e-16 -16.078473)
(244.24825 -2.2128261e-16 -19.935188)
(243.93067 3.9387349e-17 -17.786921)
(243.17547 0 -18.906367)
(242.56486 0 -18.468331)
(241.87025 -2.2400051e-17 -18.650468)
(241.16814 -1.7006339e-16 -18.610838)
(240.43599 1.4074152e-16 -18.623644)
(239.67959 1.9091776e-17 -18.611282)
(238.89778 -3.6189705e-17 -18.590754)
(238.0912 3.0875765e-16 -18.556986)
(237.26033 -2.2689592e-16 -18.509448)
(236.40591 2.4626054e-16 -18.446683)
(235.5289 -2.0350393e-16 -18.367423)
(234.63051 2.7590542e-17 -18.27037)
(233.71216 1.5674474e-16 -18.154262)
(232.77556 -1.9714778e-16 -18.017908)
(231.82265 0 -17.860187)
(230.85562 0 -17.680096)
(229.8769 0 -17.476769)
(228.88913 -1.9743265e-16 -17.249508)
(227.89516 1.8598452e-16 -16.997808)
(226.89799 -3.5238909e-17 -16.72138)
(225.90075 0 -16.420179)
(224.90664 -2.8247517e-16 -16.094421)
(223.9189 2.3609422e-16 -15.744584)
(222.94074 -5.583877e-17 -15.371425)
(221.9753 1.5790884e-16 -14.975983)
(221.02558 -4.9076135e-17 -14.559549)
(220.09439 -1.8612974e-16 -14.123676)
(219.18434 2.1956229e-16 -13.670137)
(218.29774 -1.6483725e-16 -13.200902)
(217.43664 7.7748735e-17 -12.718107)
(216.60272 -7.2955078e-17 -12.224009)
(215.79737 1.3713898e-16 -11.720948)
(215.0216 -6.426044e-17 -11.21131)
(214.2761 -2.4184573e-16 -10.697483)
(213.56122 5.0996613e-16 -10.18182)
(212.87702 -2.1239476e-16 -9.6666059)
(212.22325 -1.4966564e-16 -9.1540255)
(211.59942 9.3057841e-17 -8.6461337)
(211.00482 8.7530024e-17 -8.1448359)
(210.43856 -1.637447e-16 -7.6518701)
(209.89958 1.529935e-16 -7.1687957)
(209.38671 0 -6.696988)
(208.89869 1.3390679e-16 -6.2376336)
(208.43419 -1.8756282e-16 -5.7917332)
(207.99183 5.8449292e-17 -5.3601038)
(207.5702 5.4473229e-17 -4.9433839)
(207.16789 0 -4.5420425)
(206.78346 0 -4.1563857)
(206.41545 0 -3.7865664)
(206.06241 0 -3.4326004)
(205.72283 0 -3.0943687)
(205.39517 -7.1570325e-17 -2.7716299)
(205.0779 0 -2.4640623)
(204.76944 -5.3349569e-20 -2.1712631)
(204.46808 2.3111509e-16 -1.8927749)
(204.17201 -2.1500529e-16 -1.6281556)
(203.8793 -1.0008487e-16 -1.3770411)
(203.58797 -1.8610181e-16 -1.1392109)
(203.29603 2.5943066e-16 -0.91464846)
(203.00153 4.2875327e-20 -0.70368864)
(202.70304 7.4727683e-17 -0.50724477)
(202.40109 0 -0.32692184)
(202.10034 0 -0.16549923)
(201.80966 0 -0.028554743)
(201.54055 -1.1153034e-16 0.078493165)
(201.30676 0 0.16376057)
(201.10624 -9.632523e-17 0.23202499)
(200.88943 1.3423756e-16 0.22623084)
(200.69461 8.3166673e-17 0.21100448)
(200.71914 -1.9302546e-17 0.76717386)
(220.0268 0 -30.533478)
(258.94624 0 -11.632575)
(241.26635 3.2248235e-16 -30.259402)
(251.06472 1.9345134e-17 -13.65212)
(244.41677 -2.6987853e-16 -27.992032)
(247.56606 0 -16.554902)
(244.7735 1.6170011e-17 -25.215698)
(245.46886 -3.0651369e-17 -19.299183)
(244.08653 0 -23.036516)
(243.7032 1.9320876e-16 -21.016692)
(242.89669 -4.1829305e-16 -21.999787)
(242.2172 1.9806832e-16 -21.628635)
(241.45944 2.3508617e-17 -21.752765)
(240.68886 0 -21.708037)
(239.8875 2.1093548e-17 -21.692333)
(239.06002 -3.4024714e-16 -21.653804)
(238.20594 7.5017021e-17 -21.60214)
(237.32617 2.5074643e-16 -21.53368)
(236.42158 2.381184e-16 -21.447401)
(235.49339 -2.5684562e-16 -21.341738)
(234.54302 0 -21.215258)
(233.57224 -2.8817356e-16 -21.06656)
(232.58305 2.4467956e-16 -20.894308)
(231.57778 -2.062239e-16 -20.697288)
(230.559 1.9437235e-16 -20.474423)
(229.52957 -1.841955e-16 -20.224801)
(228.49258 3.4747548e-16 -19.947733)
(227.45132 -1.6397149e-16 -19.642754)
(226.40926 1.5506949e-16 -19.309675)
(225.36996 -2.9235123e-16 -18.948589)
(224.33706 1.3759877e-16 -18.559903)
(223.31419 1.2994566e-16 -18.144341)
(222.3049 -2.4516646e-16 -17.702942)
(221.31263 5.6928476e-17 -17.237063)
(220.34063 -5.6647837e-19 -16.748361)
(219.39187 2.5506074e-16 -16.238758)
(218.46906 0 -15.710428)
(217.57455 1.9106918e-19 -15.165745)
(216.71031 0 -14.607239)
(215.87793 -7.9609802e-17 -14.037558)
(215.07859 -1.4960875e-16 -13.459413)
(214.31306 7.0241893e-17 -12.87553)
(213.58173 0 -12.288608)
(212.88463 -6.1893531e-17 -11.701274)
(212.22143 2.8969477e-16 -11.116046)
(211.5915 -3.2523766e-16 -10.5353)
(210.99397 -3.047345e-16 -9.9612472)
(210.42773 2.8453332e-16 -9.3959052)
(209.8915 -1.7756226e-16 -8.8410905)
(209.38385 0 -8.298409)
(208.90327 0 -7.7692529)
(208.44817 7.2466203e-17 -7.2548024)
(208.01693 6.7627835e-17 -6.7560322)
(207.60792 1.2603659e-16 -6.2737176)
(207.2195 -5.8772446e-17 -5.8084454)
(206.85007 -1.0948052e-16 -5.3606246)
(206.49805 -2.041543e-16 -4.9304995)
(206.16186 -9.5237052e-17 -4.5181615)
(205.83997 1.7683141e-16 -4.1235615)
(205.53086 0 -3.7465285)
(205.233 -7.6591185e-17 -3.3867734)
(204.94486 -1.4236885e-16 -3.0439069)
(204.66493 1.3228157e-16 -2.7174815)
(204.39167 6.1360861e-17 -2.4069979)
(204.12346 5.7068486e-17 -2.1119329)
(203.8586 0 -1.8318071)
(203.59529 1.9674966e-16 -1.5662404)
(203.33174 1.825735e-16 -1.3150063)
(203.06616 -2.5406569e-16 -1.0780971)
(202.79692 7.8578094e-17 -0.8558675)
(202.52299 -7.2840654e-17 -0.6492041)
(202.24537 -4.3420706e-20 -0.45966008)
(201.96875 2.5036623e-16 -0.29018854)
(201.70153 -2.3203131e-16 -0.14632912)
(201.4553 5.3711783e-17 -0.031792205)
(201.24252 1.4938296e-16 0.061645237)
(201.05567 -4.6133149e-17 0.13134986)
(200.85192 -4.272309e-17 0.13031117)
(200.68021 0 0.15514183)
(200.67682 3.6621362e-17 0.62272919)
(220.02833 3.9211721e-16 -34.375297)
(259.29466 5.384527e-19 -14.481763)
(241.07212 -3.5948555e-16 -34.019254)
(251.19277 0 -16.719729)
(244.18049 0 -31.541686)
(247.32046 -2.6822711e-16 -19.809099)
(244.43772 2.7134167e-16 -28.525719)
(244.95815 6.4355191e-17 -22.680815)
(243.66626 -2.4425714e-16 -26.239989)
(243.20133 2.3103725e-16 -24.393044)
(242.33318 -2.4691803e-16 -25.217951)
(241.57212 2.0753785e-16 -24.909061)
(240.73926 -4.9233777e-17 -24.97437)
(239.88866 -4.6686593e-17 -24.91486)
(239.00671 -1.769094e-16 -24.865501)
(238.09722 1.6709637e-16 -24.792994)
(237.1604 -3.5682577e-16 -24.702199)
(236.19754 5.9979863e-16 -24.590154)
(235.21007 -2.8339605e-16 -24.455446)
(234.19979 -2.6888266e-16 -24.296372)
(233.16878 2.535626e-16 -24.111372)
(232.11949 -3.0192921e-17 -23.898979)
(231.05469 -2.2728409e-16 -23.657858)
(229.97745 2.1410652e-16 -23.386873)
(228.89115 2.5361769e-16 -23.085098)
(227.79942 -1.4301236e-16 -22.751867)
(226.7061 0 -22.386818)
(225.6152 2.5573626e-16 -21.989904)
(224.53082 -3.2121057e-16 -21.561441)
(223.45707 1.130255e-16 -21.102103)
(222.39804 -2.8573063e-16 -20.612944)
(221.35767 2.0131294e-16 -20.095387)
(220.3397 -6.342794e-17 -19.55121)
(219.34762 2.3836058e-16 -18.982517)
(218.38454 -2.2359075e-16 -18.391718)
(217.45323 -2.1071902e-16 -17.781465)
(216.55599 1.9750502e-16 -17.154615)
(215.69466 -4.6323092e-17 -16.514175)
(214.87062 0 -15.863237)
(214.08475 8.1964728e-17 -15.204926)
(213.33747 -7.6506194e-17 -14.542344)
(212.62878 0 -13.878513)
(211.95823 1.3470676e-16 -13.216337)
(211.32505 -6.3013918e-17 -12.558557)
(210.72813 -1.7668767e-16 -11.907719)
(210.1661 5.5112173e-16 -11.266152)
(209.6374 -2.0634065e-16 -10.63595)
(209.1403 9.6240363e-17 -10.018962)
(208.67294 -2.6985135e-16 -9.4167906)
(208.23343 -1.7995002e-19 -8.8307929)
(207.81983 1.5646405e-16 -8.262091)
(207.4302 -1.4596029e-16 -7.7115807)
(207.06262 -6.7927998e-17 -7.179946)
(206.71524 -6.3273955e-17 -6.6676732)
(206.38624 -1.1813869e-16 -6.1750661)
(206.07388 2.1940552e-16 -5.7022632)
(205.77649 0 -5.249253)
(205.49243 9.4815602e-17 -4.8158892)
(205.22016 -3.5280369e-16 -4.4019056)
(204.95814 2.4555335e-16 -4.0069362)
(204.70488 7.5992824e-17 -3.6305172)
(204.45889 1.4117166e-16 -3.2721131)
(204.21874 1.3116128e-16 -2.9311549)
(203.98298 -1.2137767e-16 -2.60705)
(203.7501 -1.1248207e-16 -2.2992135)
(203.51854 -3.1289062e-16 -2.0071284)
(203.28666 -3.696265e-20 -1.7303938)
(203.05285 -8.9426826e-17 -1.468772)
(202.81559 0 -1.2222611)
(202.57354 -2.2990574e-16 -0.99122345)
(202.3261 7.089619e-17 -0.77650794)
(202.07466 0 -0.57966521)
(201.82378 1.2129438e-16 -0.40382729)
(201.58153 0 -0.25424801)
(201.35948 1.0361182e-16 -0.13313446)
(201.16847 -1.4355791e-16 -0.033177516)
(200.99703 1.3262574e-16 0.037833871)
(200.8095 -8.1660773e-17 0.043714122)
(200.65707 7.5391897e-17 0.099837056)
(200.62874 0 0.48807429)
(219.82282 -4.1197794e-16 -38.410559)
(259.44026 3.6413975e-16 -17.464489)
(240.63364 -3.3353406e-16 -37.953616)
(251.06554 3.3170779e-16 -19.961166)
(243.66613 3.1761864e-16 -35.153733)
(246.86013 -1.8060866e-17 -23.24907)
(243.8667 -2.8439766e-16 -31.918429)
(244.33141 -2.6996765e-16 -26.25374)
(242.9513 2.8734911e-16 -29.562183)
(242.38034 0 -27.915318)
(241.44026 2.8671032e-17 -28.56676)
(240.58525 0 -28.308226)
(239.66482 -1.2894804e-16 -28.314188)
(238.72211 2.4347451e-16 -28.228357)
(237.74756 0 -28.13757)
(236.74455 0 -28.02084)
(235.71408 0 -27.879995)
(234.65806 3.920724e-17 -27.712357)
(233.57867 0 -27.516228)
(232.47848 -2.4520841e-16 -27.289814)
(231.36046 3.3037933e-16 -27.031495)
(230.22795 1.2500586e-16 -26.739853)
(229.08464 1.7724803e-16 -26.41368)
(227.93456 -2.7840746e-16 -26.052074)
(226.78202 -5.2464485e-17 -25.654455)
(225.63152 -2.4827186e-16 -25.220613)
(224.48772 1.8685792e-16 -24.750741)
(223.35534 -2.2068839e-16 -24.245465)
(222.23908 8.2575898e-17 -23.705845)
(221.14349 7.8065339e-17 -23.133382)
(220.07294 0 -22.530005)
(219.03148 2.7769499e-16 -21.898036)
(218.02279 -2.6081242e-16 -21.240164)
(217.0501 0 -20.559383)
(216.11611 -2.305609e-16 -19.858943)
(215.223 2.1595866e-16 -19.142281)
(214.37235 -1.0176445e-16 -18.412947)
(213.56519 1.9052934e-16 -17.674545)
(212.80197 -2.6770962e-16 -16.930655)
(212.08262 1.2614433e-19 -16.184768)
(211.40657 -1.5641584e-16 -15.44024)
(210.77282 -7.320192e-17 -14.700232)
(210.17999 -1.3738142e-16 -13.967677)
(209.6264 2.561152e-16 -13.245251)
(209.11011 -1.1951869e-16 -12.535351)
(208.629 0 -11.840086)
(208.18084 -3.7474468e-19 -11.161276)
(207.76332 9.7228186e-17 -10.500454)
(207.3741 0 -9.8588795)
(207.01089 8.4566823e-17 -9.2375514)
(206.6714 7.906579e-17 -8.6372276)
(206.35346 -7.3416411e-17 -8.0584429)
(206.05495 2.7333212e-16 -7.5015295)
(205.77388 -2.5410188e-16 -6.9666373)
(205.50835 -1.1817688e-16 -6.4537535)
(205.25657 -1.0978571e-16 -5.962722)
(205.01685 1.0194064e-16 -5.4932611)
(204.78759 1.8910174e-16 -5.0449796)
(204.56726 -3.5078178e-16 -4.6173931)
(204.35439 4.0653662e-16 -4.209944)
(204.14757 -1.5063915e-16 -3.822001)
(203.94542 1.3963129e-16 -3.4528914)
(203.74663 -1.2925821e-16 -3.1019367)
(203.54985 2.3938845e-16 -2.7684596)
(203.35372 -3.3232314e-16 -2.4518208)
(203.15684 2.0486989e-16 -2.151468)
(202.95776 -7.5846215e-20 -1.8669773)
(202.75509 8.757034e-17 -1.5980992)
(202.54754 0 -1.3448351)
(202.3341 0 -1.1075439)
(202.11459 0 -0.88704519)
(201.89067 -1.2727967e-16 -0.68493794)
(201.66672 1.2260674e-20 -0.50448014)
(201.45051 0 -0.35041945)
(201.25345 0 -0.22382309)
(201.0846 9.2020422e-17 -0.11900387)
(200.93046 -1.6952792e-16 -0.046393698)
(200.76221 0 -0.032337116)
(200.62385 0 0.042169665)
(200.57321 -1.3201884e-16 0.36441742)
(219.37648 2.7802044e-17 -42.647687)
(259.34523 -7.8846414e-16 -20.600463)
(239.92204 3.4898303e-16 -42.030324)
(250.41821 -2.1805515e-17 -23.387126)
(242.84284 3.7440461e-16 -38.886207)
(246.06822 -3.5309303e-16 -26.912809)
(242.98738 0 -35.428131)
(243.32168 -3.1803663e-16 -30.017964)
(241.89079 2.338024e-16 -32.998655)
(241.19648 2.2205675e-16 -31.576488)
(240.17112 -2.3969516e-16 -32.049009)
(239.20819 0 -31.822122)
(238.18591 1.8839944e-19 -31.76648)
(237.13765 0 -31.640499)
(236.05747 3.8605221e-16 -31.496879)
(234.94876 -7.2928286e-16 -31.322269)
(233.81348 3.442968e-16 -31.116672)
(232.65443 -4.0670428e-17 -30.877521)
(231.47476 -3.8642583e-17 -30.602944)
(230.27814 3.6723103e-17 -30.291147)
(229.06864 -6.8585917e-17 -29.940608)
(227.85076 -3.2488451e-16 -29.550112)
(226.62933 3.0577567e-16 -29.118817)
(225.40949 5.7642182e-17 -28.646309)
(224.19658 -2.7314502e-16 -28.132631)
(222.99601 -6.895405e-19 -27.578343)
(221.81325 2.9010603e-16 -26.984514)
(220.65361 -1.8207887e-16 -26.352743)
(219.52221 -6.043297e-19 -25.68514)
(218.42381 0 -24.984297)
(217.36276 0 -24.253249)
(216.34286 -7.1635555e-17 -23.495409)
(215.36732 1.3411624e-16 -22.71451)
(214.4387 0 -21.914515)
(213.55885 -1.1852966e-16 -21.099541)
(212.72894 2.2179135e-16 -20.273769)
(211.94945 -1.0390658e-16 -19.441356)
(211.22022 -1.9472202e-16 -18.606364)
(210.54048 9.0499321e-17 -17.77268)