/*--------------------------------*- C++ -*----------------------------------*\
  =========                 |
  \\      /  F ield         | OpenFOAM: The Open Source CFD Toolbox
   \\    /   O peration     | Website:  https://openfoam.org
    \\  /    A nd           | Version:  12
     \\/     M anipulation  |
\*---------------------------------------------------------------------------*/
FoamFile
{
    format      ascii;
    class       volScalarField;
    location    "0.044";
    object      k;
}
// * * * * * * * * * * * * * * * * * * * * * * * * * * * * * * * * * * * * * //

dimensions      [0 2 -2 0 0 0 0];

internalField   nonuniform List<scalar> 
16000
(
0.050113113
0.022068775
0.023158139
0.017078241
0.014437789
0.013037861
0.012223123
0.011728006
0.011396867
0.011172418
0.011007021
0.010883999
0.010787998
0.010712003
0.010650906
0.010601582
0.010561277
0.01052816
0.010501197
0.010478941
0.010460934
0.010446132
0.010434246
0.010424866
0.010417523
0.010412012
0.01040807
0.010405541
0.01040428
0.010404154
0.010405034
0.010406817
0.010409416
0.010412762
0.01041679
0.010421443
0.010426659
0.01043238
0.010438552
0.01044512
0.01045203
0.010459219
0.010466634
0.010474216
0.010481892
0.010489575
0.010497168
0.010504548
0.010511552
0.010517953
0.010523452
0.010527681
0.010530197
0.010530459
0.010527897
0.010522101
0.010512812
0.010499975
0.010483899
0.01046528
0.010445216
0.010425266
0.010407459
0.010394248
0.01038819
0.010391234
0.010403862
0.010424393
0.010448442
0.010468013
0.010470198
0.010436734
0.010351151
0.01022952
0.010126757
0.010055936
0.01001657
0.0099989412
0.010020893
0.010135115
0.047241807
0.020874906
0.021651241
0.016508242
0.014083737
0.01284069
0.012058985
0.011615172
0.011297013
0.011090739
0.010935867
0.010821923
0.01073258
0.010662263
0.010605779
0.010560437
0.010523613
0.010493457
0.010469193
0.010449277
0.010433463
0.010420643
0.010410553
0.010402874
0.010397111
0.010393087
0.01039054
0.010389319
0.010389287
0.010390319
0.010392291
0.010395099
0.010398656
0.010402889
0.010407735
0.010413134
0.010419026
0.010425351
0.010432052
0.010439075
0.010446364
0.010453856
0.010461496
0.010469223
0.010476968
0.010484641
0.01049214
0.010499338
0.010506066
0.010512091
0.01051711
0.010520756
0.010522592
0.010522077
0.010518692
0.010512094
0.010502053
0.010488579
0.01047204
0.010453188
0.01043318
0.01041361
0.010396483
0.010384128
0.010378901
0.010382498
0.010395077
0.010414548
0.010436102
0.010451438
0.010447578
0.010407082
0.010315726
0.010199188
0.010105597
0.010044347
0.010011678
0.0099983246
0.010022276
0.010120146
0.043660856
0.020033913
0.020271078
0.01592289
0.013720068
0.012611245
0.011888286
0.011487523
0.011194563
0.011007161
0.01086395
0.010759563
0.010677383
0.01061306
0.010561519
0.010520394
0.010487292
0.010460295
0.010438921
0.010421504
0.010408022
0.010397323
0.010389148
0.01038327
0.010379183
0.010376729
0.010375656
0.010375815
0.010377076
0.010379321
0.010382432
0.010386305
0.010390851
0.010395995
0.010401674
0.010407825
0.010414389
0.010421304
0.010428511
0.010435954
0.010443575
0.010451313
0.010459107
0.010466897
0.010474613
0.010482162
0.010489437
0.010496305
0.010502587
0.010508043
0.010512364
0.010515185
0.010516068
0.01051447
0.010509959
0.010502241
0.010491145
0.010476773
0.010459568
0.010440354
0.010420355
0.010401203
0.010384883
0.010373594
0.010369426
0.010373713
0.010386196
0.010404352
0.010422935
0.010433313
0.010422491
0.010374018
0.010277525
0.010168286
0.01008459
0.010033435
0.010008307
0.0099981246
0.010023075
0.010108402
0.039756718
0.019467198
0.019085573
0.015397865
0.01339089
0.012401159
0.011732008
0.011371813
0.011100396
0.010930201
0.010798102
0.01070256
0.010627218
0.010568574
0.010521765
0.010484667
0.010455162
0.010431206
0.010412649
0.010397657
0.010386446
0.01037783
0.010371537
0.010367421
0.010364987
0.010364069
0.010364444
0.010365956
0.010368481
0.010371906
0.010376117
0.01038101
0.010386495
0.010392494
0.010398941
0.010405772
0.010412926
0.010420341
0.010427956
0.010435712
0.010443552
0.010451413
0.010459234
0.010466951
0.010474495
0.01048177
0.010488666
0.010495041
0.01050071
0.010505426
0.01050888
0.010510714
0.010510477
0.01050766
0.010501921
0.010492992
0.01048078
0.010465477
0.010447595
0.01042802
0.010408029
0.010389266
0.010373668
0.010363275
0.010359895
0.010364476
0.010376333
0.010392532
0.010407505
0.010412513
0.010394976
0.010339909
0.010240592
0.010140271
0.010066427
0.010024646
0.010006927
0.009999035
0.010023685
0.010097427
0.03672414
0.01913789
0.018072538
0.014911304
0.013084195
0.01220274
0.011585178
0.011262257
0.01101233
0.010858242
0.01073706
0.010649965
0.010581323
0.010528203
0.010486044
0.010452884
0.01042694
0.010405974
0.010390221
0.010377639
0.010368686
0.010362151
0.010357765
0.010355391
0.010354631
0.010355233
0.010357052
0.010359912
0.010363689
0.010368275
0.01037356
0.010379437
0.010385816
0.010392615
0.010399765
0.0104072
0.010414858
0.010422677
0.010430593
0.010438546
0.010446479
0.010454331
0.010462037
0.010469533
0.010476748
0.010483588
0.010489934
0.01049564
0.010500515
0.010504306
0.010506705
0.010507369
0.010505821
0.010501638
0.010494526
0.01048426
0.01047084
0.010454538
0.010435937
0.010415979
0.010395976
0.010377571
0.010362626
0.010352998
0.010350187
0.010354736
0.010365529
0.010379252
0.010390097
0.01038941
0.010365366
0.010304906
0.010205569
0.010114915
0.010051032
0.010017904
0.010007106
0.010003933
0.010023704
0.010085706
0.03458311
0.019057095
0.017320842
0.01446534
0.012801719
0.012017769
0.011449298
0.011160575
0.010931313
0.01079207
0.010681486
0.010602372
0.010540217
0.010492426
0.010454797
0.010425458
0.010403016
0.010384973
0.010371996
0.010361808
0.010355092
0.010350619
0.01034823
0.010347526
0.010348502
0.010350553
0.010353804
0.010357995
0.010363
0.010368712
0.010375023
0.010381827
0.010389029
0.010396545
0.010404304
0.010412237
0.01042028
0.010428372
0.01043645
0.010444453
0.010452324
0.010460003
0.010467426
0.010474528
0.010481237
0.010487459
0.010493071
0.010497922
0.010501815
0.010504495
0.010505659
0.010504971
0.01050195
0.01049628
0.010487674
0.010475984
0.010461302
0.010443971
0.010424638
0.010404292
0.010384266
0.010366174
0.01035178
0.010342732
0.010340199
0.010344321
0.010353573
0.010364324
0.010370642
0.01036412
0.01033387
0.010269034
0.010173537
0.010092879
0.010038636
0.010013965
0.010007937
0.010008828
0.010023374
0.01007212
0.032137241
0.019150872
0.016792282
0.014056352
0.012541268
0.011845759
0.011324156
0.011066612
0.010857291
0.010731684
0.010631348
0.010559802
0.010503935
0.010461312
0.010428124
0.01040252
0.010383554
0.010368402
0.01035818
0.010350413
0.010345933
0.010343482
0.010343448
0.010344153
0.010346642
0.01035035
0.010355017
0.010360514
0.01036671
0.010373497
0.010380768
0.010388416
0.010396345
0.010404468
0.01041271
0.010421002
0.010429281
0.010437485
0.010445553
0.010453427
0.010461052
0.010468369
0.010475317
0.010481831
0.010487839
0.010493246
0.010497928
0.010501729
0.010504449
0.010505836
0.010505586
0.01050336
0.010498747
0.010491465
0.010481265
0.010468093
0.010452113
0.010433739
0.010413674
0.01039294
0.010372872
0.010355035
0.010341066
0.01033238
0.01032981
0.010333097
0.01034036
0.010347748
0.010349354
0.010337152
0.010301277
0.010233467
0.010145274
0.010074508
0.010029347
0.01001219
0.010009485
0.01001358
0.010023324
0.010057563
0.029486117
0.019345618
0.016372286
0.013681897
0.012301421
0.011686526
0.011209299
0.010980328
0.010790021
0.01067701
0.010586597
0.010522309
0.010472577
0.010435019
0.010406228
0.010384314
0.010368815
0.01035658
0.010349034
0.010343817
0.010341535
0.010340999
0.010342582
0.010345609
0.010349783
0.01035498
0.010361037
0.010367794
0.010375118
0.010382899
0.010391031
0.010399406
0.010407927
0.010416504
0.010425063
0.010433534
0.010441857
0.010449972
0.010457823
0.010465356
0.010472518
0.010479257
0.010485515
0.010491227
0.010496323
0.010500708
0.010504258
0.010506812
0.010508169
0.010508083
0.010506253
0.010502339
0.010496028
0.010487025
0.010475169
0.01046048
0.010443191
0.010423781
0.010402998
0.010381882
0.010361749
0.010344093
0.010330397
0.010321828
0.010318882
0.010320935
0.010325816
0.010329583
0.010326529
0.010309198
0.010268886
0.01020008
0.010121007
0.010059877
0.010022949
0.01001157
0.010011543
0.010018367
0.010025012
0.010043755
0.027598249
0.019549788
0.015906598
0.013338706
0.012080499
0.011539393
0.011103998
0.010901018
0.010729458
0.01062825
0.01054744
0.010490174
0.010446451
0.010413888
0.010389476
0.010371238
0.010359126
0.010349963
0.010344709
0.010342505
0.010340601
0.010344335
0.010347662
0.010352356
0.010358153
0.010364833
0.010372218
0.010380155
0.010388506
0.010397158
0.010406004
0.010414939
0.010423866
0.010432696
0.010441355
0.010449779
0.010457909
0.010465692
0.010473081
0.010480026
0.010486482
0.010492403
0.010497737
0.010502421
0.010506385
0.010509538
0.010511753
0.010512869
0.010512685
0.010510957
0.010507399
0.010501704
0.010493574
0.010482783
0.010469238
0.010453022
0.010434438
0.010414017
0.01039254
0.010371047
0.010350818
0.01033325
0.010319655
0.010310941
0.010307284
0.01030774
0.010309939
0.010309984
0.010302565
0.010281029
0.010237986
0.010170247
0.010100598
0.010048388
0.010019042
0.010011413
0.010013541
0.010023323
0.010030155
0.010028514
0.02591309
0.019733169
0.015226349
0.013023909
0.011878265
0.011404839
0.011008987
0.010829609
0.010676153
0.010585841
0.010514294
0.010463856
0.010426026
0.010398403
0.01037836
0.010363839
0.010354689
0.010349153
0.010344572
0.010347076
0.010349533
0.010353021
0.010358374
0.010364838
0.010372207
0.010380282
0.01038889
0.010397875
0.010407095
0.010416435
0.010425789
0.010435056
0.010444142
0.010452963
0.01046145
0.010469545
0.010477198
0.010484366
0.010491011
0.010497095
0.01050258
0.010507428
0.010511594
0.010515018
0.010517634
0.01051935
0.010520041
0.010519544
0.010517659
0.01051415
0.010508746
0.010501166
0.010491158
0.01047855
0.010463308
0.010445584
0.010425738
0.010404345
0.010382202
0.010360336
0.010339967
0.01032238
0.010308699
0.010299577
0.010294896
0.010293461
0.010292798
0.010289186
0.010277875
0.010253214
0.010209178
0.010144216
0.010083693
0.010039563
0.01001644
0.010011082
0.010015461
0.010028446
0.010038028
0.010015554
0.024331176
0.01988661
0.014653599
0.012735162
0.011695229
0.011282604
0.010924865
0.010766818
0.010630355
0.010550205
0.010487607
0.010443863
0.010411836
0.010389123
0.010373434
0.010362809
0.010354841
0.010354857
0.010355545
0.010357635
0.010362084
0.01036817
0.010375364
0.010383494
0.010392327
0.010401659
0.010411317
0.010421146
0.010431002
0.010440771
0.010450349
0.010459644
0.010468571
0.010477055
0.010485037
0.010492471
0.010499321
0.010505556
0.010511151
0.010516081
0.010520321
0.010523839
0.010526598
0.010528544
0.010529609
0.010529702
0.010528699
0.010526439
0.010522723
0.010517323
0.010509988
0.010500469
0.010488554
0.010474126
0.010457212
0.010438022
0.010416966
0.010394649
0.010371871
0.010349627
0.010329063
0.010311335
0.010297374
0.010287592
0.010281619
0.010278085
0.010274521
0.010267471
0.010252809
0.010225957
0.010182315
0.010121588
0.010069594
0.01003261
0.010014128
0.010010289
0.010016905
0.010031481
0.01004524
0.010008193
0.022929021
0.02002577
0.014158042
0.012472367
0.011531411
0.011172892
0.01085151
0.010712468
0.010592394
0.01052185
0.010467903
0.010430771
0.010404486
0.010386688
0.010375312
0.01036902
0.010366894
0.010366978
0.010370072
0.01037535
0.010382107
0.010390096
0.010399065
0.010408716
0.010418825
0.010429187
0.010439632
0.010450005
0.010460169
0.010470012
0.010479441
0.010488378
0.010496752
0.010504506
0.010511598
0.010517997
0.010523687
0.010528652
0.010532883
0.01053637
0.010539099
0.010541047
0.010542181
0.010542453
0.010541793
0.010540111
0.01053728
0.010533142
0.0105275
0.010520139
0.010510828
0.010499349
0.010485536
0.010469322
0.010450788
0.010430197
0.010407995
0.010384806
0.010361419
0.010338783
0.010317956
0.010299954
0.010285522
0.010274851
0.010267376
0.01026164
0.010255266
0.010245116
0.01022763
0.010199195
0.010156692
0.010101792
0.010057404
0.010026531
0.010011623
0.01000903
0.010017258
0.010031802
0.010047025
0.01000267
0.021660527
0.020127654
0.01371181
0.012235652
0.011386447
0.011075805
0.010789016
0.010667119
0.010562638
0.010501311
0.010455773
0.010425231
0.010404672
0.010391824
0.010384809
0.010382239
0.010383145
0.01038702
0.01039295
0.010400546
0.010409461
0.010419331
0.010429857
0.010440776
0.010451861
0.010462907
0.010473753
0.010484252
0.010494279
0.010503738
0.010512551
0.010520661
0.010528024
0.010534605
0.010540386
0.010545358
0.010549525
0.010552891
0.010555462
0.010557242
0.010558225
0.010558397
0.010557729
0.010556172
0.010553656
0.010550086
0.010545336
0.010539247
0.01053163
0.010522279
0.010510986
0.010497568
0.010481901
0.010463965
0.01044389
0.010421977
0.010398701
0.010374691
0.010350715
0.010327663
0.010306491
0.010288078
0.01027299
0.01026124
0.010252127
0.010244184
0.010235192
0.010222342
0.010202556
0.010172963
0.010131884
0.010084023
0.010046366
0.010020803
0.01000845
0.010007366
0.010016486
0.010031568
0.010047009
0.0099992398
0.020518231
0.020146839
0.013305198
0.012023233
0.011259542
0.010991147
0.010737498
0.01063112
0.010541557
0.010489251
0.010451965
0.010428036
0.010413225
0.010405368
0.01040276
0.010404145
0.010408594
0.010415375
0.010423975
0.010433903
0.010444753
0.010456193
0.010467935
0.010479719
0.010491325
0.010502561
0.010513277
0.010523348
0.010532675
0.010541186
0.010548833
0.01055559
0.010561443
0.010566391
0.010570441
0.010573611
0.010575923
0.010577398
0.010578059
0.010577917
0.010576975
0.010575221
0.010572626
0.010569139
0.010564686
0.010559168
0.010552454
0.010544389
0.01053479
0.010523464
0.010510226
0.010494926
0.010477482
0.010457915
0.010436394
0.010413249
0.010388972
0.010364189
0.010339634
0.010316129
0.010294524
0.01027556
0.010259653
0.010246681
0.010235871
0.010225794
0.010214418
0.010199272
0.01017775
0.010147622
0.010108461
0.010067622
0.010035929
0.010015002
0.010005027
0.010005098
0.010014142
0.010029767
0.010044709
0.0099986224
0.019489427
0.019974916
0.012938266
0.011833791
0.011150443
0.010919229
0.01069726
0.01060515
0.010529886
0.010486584
0.010457452
0.010440198
0.010431179
0.010428354
0.01043015
0.010435385
0.010443183
0.010452883
0.010463913
0.010475814
0.010488204
0.010500748
0.010513168
0.010525219
0.010536705
0.010547459
0.01055736
0.010566322
0.010574284
0.010581216
0.010587107
0.010591969
0.010595827
0.010598712
0.010600659
0.010601708
0.010601897
0.010601264
0.010599835
0.010597631
0.010594652
0.010590888
0.010586305
0.010580846
0.010574431
0.010566955
0.010558284
0.010548263
0.010536719
0.010523473
0.010508364
0.010491272
0.010472154
0.010451067
0.010428207
0.010403927
0.01037872
0.010353201
0.010328066
0.010304061
0.010281928
0.010262285
0.010245427
0.010231143
0.010218634
0.010206539
0.010193017
0.01017594
0.010153243
0.010123371
0.010086649
0.010052197
0.010025914
0.010009155
0.010001671
0.010002296
0.010010515
0.010026346
0.010037587
0.010000239
0.018558492
0.019190626
0.012607744
0.011666627
0.011059413
0.010860436
0.010668847
0.010590179
0.010528703
0.010494501
0.010473485
0.010462962
0.010459746
0.010461918
0.010468022
0.010476944
0.010487839
0.010500056
0.010513056
0.010526383
0.010539664
0.010552587
0.010564902
0.0105764
0.010586927
0.010596367
0.01060465
0.01061174
0.010617635
0.01062235
0.010625922
0.010628404
0.010629853
0.01063033
0.010629894
0.0106286
0.010626498
0.010623628
0.010620023
0.010615697
0.010610649
0.010604862
0.010598293
0.010590879
0.010582531
0.010573138
0.010562562
0.010550649
0.010537236
0.01052216
0.010505283
0.010486515
0.010465845
0.01044336
0.010419278
0.010393955
0.010367884
0.010341655
0.010315925
0.010291364
0.010268615
0.010248183
0.010230275
0.010214628
0.010200447
0.01018646
0.010171031
0.01015237
0.010128936
0.010099946
0.010066441
0.010037755
0.010016417
0.010003465
0.0099983454
0.009999305
0.010005911
0.010021925
0.010034654
0.010002035
0.01771633
0.017815788
0.012315287
0.011521398
0.010985446
0.010815701
0.010653315
0.010587644
0.010539485
0.0105145
0.010501546
0.010497729
0.010500215
0.010507202
0.010517321
0.010529517
0.010542972
0.010557052
0.010571238
0.010585103
0.010598312
0.010610601
0.010621777
0.0106317
0.010640285
0.010647491
0.010653316
0.010657789
0.010660965
0.010662913
0.010663711
0.010663445
0.0106622
0.010660056
0.010657085
0.010653347
0.010648896
0.010643769
0.010637991
0.010631571
0.010624497
0.01061674
0.010608249
0.01059895
0.010588745
0.010577516
0.010565125
0.01055142
0.010536245
0.010519456
0.010500938
0.010480628
0.01045854
0.010434787
0.010409596
0.010383321
0.010356439
0.010329515
0.010303163
0.010277988
0.01025454
0.010233231
0.010214198
0.010197158
0.01018135
0.010165619
0.010148553
0.010128687
0.010104871
0.010077029
0.010048007
0.010024512
0.010007631
0.0099980833
0.0099951639
0.0099966503
0.010001625
0.01001668
0.01002809
0.010004127
0.016958764
0.016908236
0.012067883
0.011398489
0.010929457
0.010786444
0.010652193
0.010599262
0.010563963
0.01054825
0.01054322
0.010545929
0.010553808
0.010565155
0.01057867
0.01059335
0.01060841
0.010623256
0.010637428
0.010650566
0.010662417
0.010672808
0.010681639
0.010688872
0.010694514
0.010698607
0.010701227
0.010702466
0.01070243
0.01070123
0.010698975
0.01069577
0.010691713
0.010686888
0.01068137
0.010675216
0.01066847
0.010661162
0.010653302
0.010644887
0.010635893
0.010626277
0.010615975
0.010604903
0.010592955
0.010580007
0.010565921
0.010550548
0.010533743
0.010515377
0.010495358
0.010473648
0.010450282
0.010425389
0.010399199
0.010372055
0.010344408
0.010316793
0.010289784
0.010263935
0.010239717
0.01021746
0.01019725
0.010178815
0.010161475
0.010144214
0.010125843
0.010105189
0.010081473
0.010055215
0.010031593
0.010012737
0.009999803
0.0099932265
0.0099921662
0.0099941493
0.0099979256
0.010010454
0.010020586
0.010005407
0.016278177
0.01588293
0.011856472
0.011298417
0.010892428
0.010774398
0.010667148
0.010626974
0.010604088
0.010597567
0.01060013
0.010608872
0.01062143
0.010636186
0.010651925
0.010667719
0.010682872
0.010696888
0.010709427
0.010720261
0.010729265
0.010736401
0.010741691
0.010745208
0.010747055
0.010747356
0.010746249
0.010743875
0.010740371
0.010735871
0.010730495
0.010724351
0.010717533
0.01071012
0.010702174
0.010693742
0.010684851
0.010675516
0.010665732
0.010655478
0.010644717
0.010633391
0.010621423
0.01060872
0.010595169
0.010580641
0.010564999
0.010548101
0.010529811
0.010510017
0.010488644
0.010465677
0.010441169
0.010415258
0.010388172
0.010360234
0.010331864
0.010303559
0.010275859
0.010249277
0.01022423
0.010200981
0.010179583
0.010159809
0.010141103
0.010122605
0.010103305
0.010082268
0.010059178
0.010036425
0.010017348
0.010002682
0.0099932253
0.0099891795
0.0099894988
0.0099917273
0.0099949275
0.010004381
0.010012199
0.010004109
0.015668623
0.015170198
0.011683124
0.011221792
0.010875434
0.010781783
0.010700387
0.010673163
0.010662129
0.010664333
0.010673646
0.01068727
0.01070304
0.010719473
0.010735501
0.010750368
0.010763557
0.010774755
0.010783814
0.010790686
0.010795413
0.010798099
0.01079889
0.010797955
0.010795474
0.010791627
0.010786584
0.010780508
0.010773545
0.010765827
0.010757466
0.010748557
0.010739178
0.01072939
0.010719236
0.010708745
0.010697925
0.010686772
0.010675264
0.010663363
0.010651016
0.010638153
0.010624685
0.01061051
0.01059551
0.010579555
0.010562508
0.010544235
0.010524612
0.010503539
0.010480961
0.010456876
0.010431353
0.010404537
0.010376647
0.010347986
0.010318934
0.010289947
0.010261528
0.010234163
0.010208241
0.01018399
0.01016145
0.010140454
0.01012057
0.010101086
0.010081177
0.010060285
0.010038737
0.010020488
0.010005503
0.0099945605
0.0099881889
0.0099863371
0.0099877841
0.0099902079
0.0099929188
0.010000017
0.01000654
0.010002799
0.015124214
0.014398085
0.011544516
0.011171255
0.010880439
0.010811981
0.010755004
0.010740598
0.010740236
0.010749763
0.010763943
0.010780207
0.010796679
0.010812143
0.010825815
0.010837226
0.010846137
0.010852487
0.010856353
0.010857878
0.01085726
0.010854722
0.010850494
0.010844805
0.010837869
0.010829883
0.010821021
0.010811436
0.010801259
0.010790599
0.010779549
0.010768178
0.010756539
0.010744669
0.010732589
0.010720306
0.010707809
0.010695074
0.010682063
0.010668722
0.010654983
0.010640764
0.010625969
0.010610488
0.010594199
0.010576973
0.010558677
0.010539183
0.010518378
0.010496175
0.010472533
0.010447463
0.010421043
0.01039342
0.010364808
0.010335487
0.010305799
0.010276152
0.010247005
0.010218821
0.010191987
0.010166739
0.010143128
0.010121022
0.010100081
0.01007974
0.010059395
0.01003911
0.010021889
0.010007424
0.009996125
0.0099884854
0.009984845
0.0099849241
0.0099874712
0.0099903713
0.0099930565
0.0099986702
0.010003379
0.010002569
0.014644366
0.013791862
0.011445205
0.011151517
0.010911532
0.010869128
0.01083419
0.0108312
0.010838946
0.010852842
0.010868564
0.010883984
0.010897704
0.01090895
0.010917349
0.010922802
0.010925387
0.010925297
0.010922801
0.010918191
0.01091176
0.010903792
0.010894546
0.010884257
0.010873131
0.010861344
0.010849045
0.010836356
0.010823376
0.010810183
0.010796835
0.010783376
0.01076983
0.010756208
0.010742509
0.010728716
0.010714803
0.010700727
0.010686435
0.01067186
0.010656922
0.010641529
0.010625579
0.010608956
0.010591538
0.010573197
0.010553806
0.010533242
0.010511404
0.010488216
0.010463645
0.010437713
0.010410502
0.010382159
0.010352893
0.010322963
0.010292682
0.010262411
0.010232558
0.010203553
0.010175788
0.010149534
0.010124885
0.01010174
0.010079833
0.010058841
0.010038803
0.010021928
0.010008102
0.0099971185
0.0099890822
0.009984306
0.009982919
0.0099845077
0.0099879741
0.0099915928
0.0099947663
0.0099992052
0.010001974
0.01000248
0.014234421
0.013311927
0.011387802
0.01116775
0.01099166
0.010956372
0.010939114
0.010943863
0.010955166
0.010968764
0.010981457
0.010991793
0.010999041
0.011002967
0.011003644
0.01100132
0.01099633
0.010989042
0.010979828
0.010969038
0.010956983
0.010943937
0.010930134
0.010915771
0.01090101
0.010885983
0.010870795
0.010855527
0.010840239
0.010824973
0.010809756
0.0107946
0.010779506
0.010764461
0.010749442
0.010734415
0.010719336
0.010704148
0.010688786
0.010673173
0.01065722
0.010640827
0.010623887
0.010606283
0.010587892
0.010568589
0.010548252
0.010526767
0.010504039
0.010480003
0.010454633
0.010427955
0.010400053
0.010371068
0.0103412
0.010310696
0.010279848
0.010248987
0.010218479
0.010188708
0.010160051
0.010132814
0.010107175
0.010083135
0.010060564
0.010039531
0.010021792
0.010007954
0.0099972397
0.0099892853
0.0099840243
0.0099815377
0.0099817931
0.0099843667
0.0099883329
0.0099923502
0.0099956825
0.0099993703
0.010001844
0.010002707
0.013903669
0.012923756
0.011376513
0.011220402
0.01109373
0.011073054
0.011066157
0.011072422
0.011081031
0.011088713
0.011093541
0.011094892
0.011092708
0.011087242
0.011078899
0.011068137
0.011055406
0.011041122
0.01102565
0.011009303
0.01099234
0.010974974
0.010957376
0.010939679
0.010921986
0.010904376
0.010886906
0.010869614
0.010852521
0.010835639
0.010818964
0.010802483
0.010786175
0.010770009
0.010753944
0.010737931
0.010721913
0.010705823
0.010689585
0.010673114
0.010656316
0.010639086
0.010621314
0.010602881
0.010583667
0.010563551
0.010542414
0.010520151
0.010496674
0.010471924
0.01044588
0.010418568
0.010390069
0.010360517
0.010330095
0.010299039
0.01026763
0.01023619
0.010205072
0.01017464
0.010145242
0.010117178
0.010090697
0.010065987
0.010043229
0.010023076
0.010008168
0.0099969948
0.0099889294
0.0099835095
0.0099804743
0.0099796893
0.009980995
0.0099840203
0.0099881366
0.0099924837
0.0099961084
0.0099994836
0.010001886
0.010003147
0.013668426
0.012640412
0.011414363
0.011315921
0.011226533
0.011210743
0.011205169
0.011205489
0.011204948
0.011201687
0.011194993
0.011184969
0.011172026
0.01115668
0.011139451
0.011120812
0.011101173
0.011080871
0.011060183
0.011039322
0.011018459
0.01099772
0.010977199
0.010956963
0.010937058
0.010917511
0.010898336
0.010879534
0.010861096
0.010843005
0.010825236
0.010807756
0.010790526
0.0107735
0.010756625
0.010739843
0.010723085
0.010706277
0.010689336
0.010672172
0.010654685
0.01063677
0.010618314
0.010599199
0.010579308
0.010558522
0.01053673
0.01051383
0.010489741
0.010464408
0.010437813
0.010409981
0.010380984
0.010350943
0.010320028
0.010288455
0.010256495
0.010224473
0.010192755
0.010161723
0.010131728
0.01010305
0.010075904
0.010050526
0.01002761
0.010010278
0.0099975609
0.0099886751
0.0099828208
0.0099794308
0.0099780767
0.0099784564
0.009980369
0.0099835835
0.0099876764
0.0099920895
0.0099960109
0.0099992784
0.010001599
0.010001961
0.013534733
0.012460446
0.011503043
0.011443307
0.011375047
0.011355817
0.011341627
0.011329199
0.011314743
0.011297698
0.011278156
0.011256565
0.011233447
0.011209291
0.01118451
0.011159438
0.011134337
0.011109405
0.011084787
0.011060587
0.011036877
0.011013702
0.010991087
0.010969043
0.010947566
0.010926645
0.010906259
0.010886381
0.01086698
0.010848018
0.010829454
0.010811241
0.010793327
0.010775658
0.010758171
0.010740799
0.010723469
0.010706101
0.010688607
0.010670894
0.010652861
0.0106344
0.0106154
0.010595744
0.010575316
0.010554002
0.010531693
0.010508295
0.010483729
0.010457943
0.01043092
0.01040268
0.01037329
0.010342857
0.010311534
0.010279523
0.010247081
0.010214522
0.010182216
0.010150555
0.010119914
0.010090626
0.010063007
0.010037545
0.010015811
0.010000408
0.0099895727
0.0099825588
0.0099784895
0.0099766753
0.009976575
0.0099778086
0.0099801213
0.0099833133
0.0099870953
0.0099909558
0.0099945079
0.0099979776
0.010000719
0.010001569
0.013461135
0.012382058
0.011656966
0.011585688
0.011522538
0.011489262
0.011459426
0.011430612
0.011400997
0.011370545
0.011339493
0.011308196
0.011276972
0.011246081
0.011215717
0.011186016
0.011157069
0.011128929
0.011101626
0.011075167
0.011049544
0.011024741
0.011000729
0.010977477
0.010954948
0.010933101
0.010911895
0.010891283
0.010871217
0.010851647
0.01083252
0.010813781
0.010795372
0.010777229
0.010759285
0.01074147
0.010723706
0.010705911
0.010687994
0.01066986
0.010651408
0.010632531
0.010613116
0.01059305
0.010572219
0.010550512
0.010527824
0.010504061
0.01047915
0.010453037
0.010425706
0.010397172
0.010367497
0.01033678
0.010305166
0.010272842
0.010240052
0.010207095
0.010174329
0.010142138
0.010110902
0.010080981
0.010052789
0.010027198
0.010007237
0.0099931664
0.009983755
0.0099781422
0.0099754151
0.0099747875
0.0099756214
0.0099774921
0.0099800747
0.0099830581
0.0099861774
0.009989337
0.0099926284
0.0099959447
0.0099987524
0.010000267
0.013463819
0.012335818
0.011813783
0.011718865
0.011644878
0.011593187
0.011546217
0.011502293
0.011460033
0.011419213
0.011379757
0.011341675
0.011304978
0.011269662
0.011235705
0.011203073
0.011171721
0.011141595
0.011112641
0.011084798
0.011058007
0.011032208
0.01100734
0.010983346
0.010960166
0.010937742
0.010916018
0.010894936
0.010874439
0.010854469
0.010834966
0.010815871
0.01079712
0.010778646
0.010760382
0.010742252
0.010724178
0.010706076
0.010687856
0.010669424
0.010650677
0.010631509
0.01061181
0.010591469
0.010570371
0.010548409
0.010525479
0.01050149
0.010476365
0.010450054
0.010422533
0.010393818
0.010363965
0.010333073
0.010301283
0.010268779
0.01023579
0.010202604
0.010169561
0.010137042
0.010105434
0.01007511
0.010046528
0.010020762
0.010001743
0.009988466
0.0099798867
0.0099751104
0.0099732105
0.0099733619
0.0099748238
0.0099770042
0.0099795724
0.0099823101
0.0099851124
0.0099879585
0.009990889
0.0099939324
0.0099969156
0.0099993493
0.013552505
0.012354221
0.011930474
0.011816133
0.011726879
0.011659252
0.011599324
0.011545014
0.011494612
0.011447429
0.011402995
0.011361004
0.011321218
0.011283442
0.011247512
0.011213285
0.011180631
0.011149435
0.011119591
0.011091004
0.011063582
0.011037245
0.011011912
0.010987511
0.010963971
0.010941226
0.010919209
0.010897858
0.01087711
0.010856905
0.010837178
0.010817867
0.010798907
0.01078023
0.010761767
0.010743442
0.010725176
0.010706886
0.010688483
0.010669873
0.010650954
0.010631622
0.010611769
0.010591284
0.010570055
0.010547975
0.01052494
0.010500859
0.010475653
0.010449268
0.010421674
0.010392882
0.01036294
0.010331942
0.010300026
0.010267375
0.010234221
0.010200855
0.010167631
0.010134955
0.01010324
0.01007288
0.010044338
0.010018661
0.0099996438
0.0099865419
0.009978091
0.009973479
0.0099717054
0.0099720181
0.0099739773
0.0099765082
0.0099790713
0.0099815914
0.0099840671
0.0099865784
0.0099892958
0.0099923156
0.0099955433
0.0099986267
0.013679256
0.012411372
0.011990711
0.01186543
0.011765826
0.011689877
0.01162382
0.011564978
0.011511215
0.011461509
0.011415162
0.011371702
0.011330772
0.011292097
0.011255448
0.011220638
0.011187505
0.011155907
0.011125723
0.01109684
0.011069158
0.011042587
0.011017042
0.010992444
0.01096872
0.010945799
0.010923614
0.010902101
0.010881196
0.010860835
0.010840955
0.010821494
0.010802386
0.010783563
0.010764955
0.010746489
0.010728087
0.010709665
0.010691135
0.010672405
0.010653375
0.010633942
0.010613999
0.010593437
0.010572143
0.010550012
0.010526938
0.010502829
0.010477602
0.010451199
0.010423584
0.010394755
0.010364747
0.010333636
0.010301542
0.010268633
0.010235138
0.010201362
0.010167683
0.010134525
0.010102283
0.010071268
0.010041975
0.01001643
0.0099988826
0.0099863662
0.0099779965
0.0099732144
0.0099711868
0.009970768
0.0099730173
0.0099761616
0.0099785973
0.0099809025
0.0099831992
0.0099855394
0.0099882066
0.009991284
0.0099947347
0.0099983006
63.369707
346.75457
120.20301
15.149633
0.42139211
0.020999789
0.020050354
0.019834627
0.019610191
0.018560415
0.017257732
0.016058373
0.015150733
0.014566324
0.01414588
0.013778405
0.01343565
0.013120508
0.012843197
0.012607462
0.012407948
0.012236758
0.012087934
0.011957495
0.011842401
0.011740138
0.011648695
0.011566485
0.011492265
0.011425053
0.01136403
0.011308483
0.011257808
0.011211503
0.011169185
0.011130546
0.011095324
0.011063283
0.0110342
0.011007873
0.010984114
0.010962729
0.010943521
0.010926301
0.010910886
0.010897094
0.010884741
0.010873655
0.01086368
0.010854674
0.010846489
0.010838976
0.010831967
0.010825261
0.010818601
0.010811658