/*--------------------------------*- C++ -*----------------------------------*\
  =========                 |
  \\      /  F ield         | OpenFOAM: The Open Source CFD Toolbox
   \\    /   O peration     | Website:  https://openfoam.org
    \\  /    A nd           | Version:  12
     \\/     M anipulation  |
\*---------------------------------------------------------------------------*/
FoamFile
{
    format      ascii;
    class       volScalarField;
    location    "0.044";
    object      omega;
}
// * * * * * * * * * * * * * * * * * * * * * * * * * * * * * * * * * * * * * //

dimensions      [0 0 -1 0 0 0 0];

internalField   nonuniform List<scalar> 
16000
(
1083.6937
2180.8002
1079.4275
650.86255
459.09127
318.82511
242.09033
182.59105
147.11038
119.01331
101.10726
86.494806
75.696594
66.664155
59.302807
53.099796
47.8655
43.401835
39.56731
36.248657
33.360992
30.832601
28.604611
26.630133
24.871307
23.298715
21.887991
20.620298
19.479656
18.451486
17.52263
16.68271
15.92346
15.237885
14.620001
14.064255
13.565422
13.118582
12.719617
12.365055
12.051009
11.773415
11.529303
11.315957
11.130291
10.969166
10.830122
10.710814
10.609
10.522546
10.449488
10.388006
10.336336
10.292917
10.256433
10.225908
10.20084
10.181543
10.168979
10.161542
10.153582
10.145374
10.138283
10.133219
10.131203
10.132957
10.138731
10.148047
10.159187
10.168621
10.170708
10.157703
10.122304
10.071287
10.028431
9.9998291
9.9855202
9.9797719
9.9944903
10.049752
1124.9932
2171.6379
1070.0153
651.08679
459.28405
321.97111
243.19655
184.51992
147.9659
120.07547
101.66495
87.074343
76.068029
66.987461
59.537556
53.283269
48.000954
43.501663
39.639187
36.298337
33.393433
30.85246
28.615535
26.635056
24.872118
23.296912
21.884368
20.615293
19.473791
18.44552
17.517049
16.677637
15.918873
15.233647
14.61601
14.060474
13.561924
13.115376
12.716527
12.362017
12.048249
11.770937
11.526961
11.313728
11.128325
10.967466
10.828646
10.709532
10.607894
10.521589
10.448629
10.387217
10.335581
10.292145
10.255568
10.22484
10.199341
10.179112
10.165057
10.156975
10.149132
10.141057
10.134218
10.129484
10.127828
10.129903
10.13578
10.144689
10.15472
10.162312
10.161819
10.145706
10.107767
10.058869
10.019891
9.9954273
9.9841589
9.9798702
9.996028
10.043372
1164.7088
2172.6998
1057.6068
647.56359
455.92694
322.33151
242.12108
184.7374
147.53775
120.25616
101.52303
87.098783
75.974076
66.898168
59.413599
53.14696
47.853096
43.348144
39.484119
36.144086
33.241958
30.705844
28.475252
26.502336
24.747407
23.180553
21.776241
20.514997
19.380954
18.360125
17.439006
16.606588
15.854381
15.175184
14.56309
14.012662
13.518918
13.076919
12.682181
12.331324
12.021119
11.747163
11.506157
11.295534
11.112632
10.954057
10.817257
10.699912
10.599817
10.51485
10.442997
10.382498
10.331592
10.288717
10.25253
10.222021
10.19655
10.176009
10.161045
10.152125
10.144363
10.136457
10.129942
10.125643
10.124439
10.126853
10.132773
10.141188
10.149951
10.1554
10.1519
10.132306
10.09206
10.04622
10.011457
9.9913431
9.9834188
9.9804225
9.9973075
10.039583
1202.652
2180.6212
1047.8326
644.10857
452.14129
322.43706
240.73855
184.8067
146.95894
120.33215
101.32561
87.058819
75.837003
66.759992
59.248025
52.970935
47.668965
43.160911
39.29791
35.961107
33.06386
30.534566
28.312087
26.348457
24.603135
23.046157
21.651552
20.399549
19.274215
18.261967
17.349316
16.524959
15.780339
15.108138
14.502499
13.958013
13.469825
13.033099
12.643203
12.296595
11.990485
11.72041
11.482885
11.275267
11.095217
10.939249
10.804749
10.689406
10.591038
10.507564
10.436939
10.377443
10.327335
10.285075
10.249326
10.219079
10.193679
10.17293
10.157343
10.147495
10.139804
10.132063
10.125847
10.121922
10.12106
10.12363
10.129334
10.136961
10.144196
10.147329
10.140915
10.118431
10.076872
10.034804
10.004308
9.9883481
9.9833481
9.9820274
9.9984171
10.035767
1238.6599
2198.3588
1039.5088
640.28022
447.56177
321.79495
238.65566
184.37398
145.99179
120.12319
100.93641
86.839127
75.558903
66.487723
58.966024
52.689627
47.390695
42.888721
39.034938
35.70868
32.822671
30.305822
28.096413
26.146542
24.414886
22.871508
21.490067
20.250541
19.136841
18.135813
17.234114
16.420149
15.685327
15.022195
14.424952
13.888205
13.40721
12.977282
12.593724
12.252681
11.951826
11.686719
11.453724
11.249985
11.073551
10.920882
10.789291
10.676475
10.580268
10.49866
10.429567
10.371324
10.322211
10.280727
10.245553
10.215694
10.190496
10.169689
10.153636
10.143006
10.135358
10.127778
10.121839
10.118238
10.117622
10.120198
10.125483
10.132088
10.137575
10.138256
10.129017
10.104153
10.062487
10.024537
9.9984504
9.9866722
9.9837018
9.9851816
9.9991747
10.030714
1272.5892
2223.5337
1035.7183
637.25535
443.43452
320.5107
236.06977
183.52405
144.73406
119.6675
100.40048
86.462086
75.159289
66.0986
58.582056
52.316235
47.029797
42.541832
38.704222
35.394819
32.525534
30.026022
27.834015
25.901702
24.187287
22.660807
21.295601
20.071465
18.972049
17.984627
17.096139
16.294686
15.571677
14.919503
14.332425
13.805064
13.332757
12.910984
12.53512
12.200875
11.906313
11.647112
11.419585
11.220503
11.04834
10.899562
10.771396
10.661553
10.567861
10.488425
10.421113
10.364322
10.316361
10.27578
10.241295
10.211924
10.18703
10.1663
10.149956
10.138678
10.13105
10.123617
10.117914
10.114559
10.114064
10.116471
10.121123
10.126484
10.130048
10.12822
10.116285
10.089472
10.049367
10.01571
9.9939748
9.9861264
9.9849188
9.9881269
9.9996252
10.025199
1304.3894
2253.8725
1036.1376
634.43941
439.42621
318.575
233.32206
182.28939
143.25234
118.9663
99.726592
85.926115
74.634137
65.590393
58.092883
51.847832
46.583287
42.117405
38.302819
35.016691
32.169777
29.69266
27.522654
25.6114
23.917983
22.411912
21.06621
19.860578
18.778318
17.807081
16.934242
16.147582
15.43856
14.799374
14.224362
13.70815
13.246142
12.833959
12.467188
12.141204
11.854022
11.601663
11.380558
11.186953
11.019711
10.875402
10.751166
10.644731
10.55389
10.476916
10.411616
10.356465
10.309806
10.270248
10.236554
10.207771
10.183278
10.162745
10.146276
10.134505
10.126864
10.119555
10.114036
10.110836
10.110325
10.112386
10.116207
10.120153
10.121711
10.117441
10.103057
10.0749
10.037864
10.008468
9.9909724
9.9860668
9.9865037
9.9910502
10.000144
10.020466
1334.1628
2286.9766
1038.2621
631.35454
435.51491
315.98345
230.65861
180.80303
141.75061
118.0462
98.932384
85.239968
73.984955
64.965581
57.498996
51.284232
46.050392
41.614535
37.828901
34.572346
31.753492
29.303878
27.160798
25.272207
23.603678
22.12174
20.799049
19.615299
18.553357
17.601143
16.746643
15.977288
15.284647
14.660684
14.099821
13.59669
13.146753
12.745729
12.389471
12.073942
11.79527
11.550661
11.336898
11.149695
10.987987
10.848674
10.728842
10.626219
10.538526
10.464264
10.401177
10.347826
10.302597
10.264163
10.231354
10.203244
10.17924
10.159012
10.142578
10.130489
10.122777
10.115563
10.110165
10.107017
10.106347
10.107889
10.110709
10.113124
10.112696
10.106218
10.089896
10.06125
10.028091
10.0029
9.989356
9.9861325
9.9882415
9.9940875
10.001321
10.014909
1362.0139
2320.6393
1037.9371
627.51498
430.84278
312.67588
227.16911
178.9298
139.92807
116.93329
98.015411
84.403892
73.205471
64.220108
56.795859
50.620102
45.425737
41.028376
37.274678
34.053909
31.269139
28.852475
26.742126
24.885012
23.245823
21.79217
20.496264
19.337941
18.299601
17.369298
16.535814
15.78624
15.112324
14.505748
13.961027
13.472802
13.036596
12.648219
12.30359
11.998652
11.729783
11.493905
11.288391
11.109035
10.95346
10.819616
10.704692
10.606247
10.521963
10.450625
10.389914
10.338496
10.294802
10.257573
10.225721
10.198361
10.174921
10.155091
10.13884
10.126634
10.118756
10.1116
10.106251
10.103047
10.102078
10.102946
10.104633
10.10547
10.103178
10.094886
10.077361
10.049127
10.020018
9.9987874
9.9885216
9.9865231
9.9899441
9.9971889
10.003883
10.008834
1388.0544
2353.2006
1029.81
622.57098
424.42377
308.908
222.79402
176.5609
137.99713
115.64054
96.965666
83.413247
72.287826
63.346198
55.975585
49.842719
44.69559
40.345751
36.638704
33.462375
30.719408
28.34212
26.270179
24.449016
22.843875
21.42279
20.157593
19.028397
18.017131
17.111781
16.302047
15.574831
14.922082
14.335138
13.808617
13.337165
12.916362
12.542113
12.210497
11.917519
11.659477
11.433157
11.236442
11.064828
10.916068
10.788134
10.678946
10.585012
10.50442
10.436168
10.377967
10.328578
10.286497
10.250534
10.219693
10.193143
10.170332
10.150973
10.135018
10.122862
10.114759
10.107619
10.102241
10.09887
10.097473
10.097542
10.098016
10.097297
10.093339
10.083694
10.065716
10.038649
10.013499
9.9958105
9.9880497
9.9869446
9.9915549
10.00048
10.008081
10.003296
1412.4096
2383.8257
1021.1229
616.5479
416.34135
304.70985
218.10453
173.99811
135.98133
114.16231
95.769795
82.260745
71.220139
62.323239
55.015655
48.947314
43.861467
39.570826
35.919229
32.795981
30.102482
27.771319
25.743915
23.964436
22.398291
21.0142
19.783834
18.687634
17.707091
16.829926
16.046448
15.344205
14.715119
14.150086
13.643834
13.191011
12.787258
12.428553
12.111149
11.831145
11.584924
11.369069
11.181834
11.018671
10.877179
10.7553
10.651505
10.562416
10.486071
10.421026
10.365479
10.318191
10.277776
10.243114
10.213315
10.187616
10.165483
10.14665
10.131056
10.119006
10.110739
10.103559
10.098073
10.094432
10.092493
10.091674
10.090915
10.088728
10.08333
10.072731
10.054901
10.02965
10.008218
9.9936535
9.9877781
9.9871128
9.9928317
10.003069
10.012453
9.9999399
1435.1961
2413.4659
1007.9369
609.057
406.77766
300.10559
213.24802
171.17215
133.93683
112.50629
94.400027
80.915976
69.964662
61.144999
53.919895
47.930801
42.91988
38.70038
35.114744
32.053967
29.418278
27.140275
25.163685
23.431742
21.909925
20.567062
19.375839
18.316691
17.370681
16.525259
15.769264
15.09463
14.491751
13.950963
13.467088
13.034765
12.649715
12.307963
12.005976
11.739962
11.506433
11.302536
11.125255
10.970936
10.837135
10.721665
10.623468
10.539242
10.466821
10.405102
10.352544
10.307445
10.268735
10.235391
10.206639
10.181812
10.16039
10.14212
10.126927
10.115025
10.106637
10.099358
10.093682
10.089674
10.087105
10.085353
10.083397
10.079882
10.073265
10.06197
10.044613
10.021877
10.003784
9.9919276
9.9874469
9.9871251
9.9935429
10.004176
10.013817
9.9976845
1456.7157
2441.745
990.77798
600.45477
396.58401
295.08389
208.31426
168.14099
131.84305
110.65028
92.791127
79.362759
68.527002
59.805891
52.682196
46.789747
41.868209
37.732966
34.224415
31.235684
28.666713
26.449545
24.529848
22.851633
21.380045
20.080979
18.933327
17.915462
17.007889
16.198305
15.475519
14.831056
14.256762
13.742381
13.282773
12.872546
12.507555
12.183837
11.898113
11.646795
11.426305
11.233712
11.066872
10.921769
10.795999
10.687635
10.595014
10.515757
10.447475
10.388974
10.339033
10.296403
10.259463
10.227448
10.199726
10.175764
10.155068
10.137379
10.122615
10.110887
10.102385
10.094948
10.089005
10.084549
10.081289
10.078599
10.075523
10.070848
10.063235
10.051425
10.034661
10.014974
9.9998461
9.9903134
9.9867759
9.9871316
9.9937361
10.004452
10.014232
9.996477
1477.2152
2465.0739
969.38514
591.34042
385.94612
289.68915
203.39664
164.91371
129.62809
108.4998
90.927733
77.590918
66.894916
58.298153
51.296861
45.519748
40.703657
36.666483
33.24734
30.340399
27.847735
25.699995
23.841043
22.22283
20.808177
19.562275
18.463206
17.49118
16.62612
15.855815
15.168893
14.557084
14.013151
13.52703
13.093311
12.706494
12.362669
12.057836
11.788956
11.552795
11.345861
11.165098
11.008729
10.872897
10.755089
10.653197
10.566155
10.491813
10.428066
10.372902
10.325466
10.284919
10.249994
10.219362
10.192647
10.169513
10.149537
10.132426
10.118105
10.106566
10.097919
10.090265
10.083985
10.079018
10.075039
10.071439
10.067341
10.061676
10.053306
10.041248
10.02529
10.008641
9.9961155
9.9885672
9.9859759
9.9871382
9.9934431
10.004091
10.014312
9.9965163
1496.9505
2478.995
943.77314
581.5491
374.91993
283.96176
198.57134
161.41202
127.17103
106.06305
88.782938
75.583249
65.056457
56.612117
49.756907
44.116024
39.423489
35.498806
32.182969
29.36506
26.958535
24.890027
23.105602
21.555031
20.203912
19.016576
17.971177
17.048944
16.230175
15.502514
14.854392
14.277472
13.763908
13.307376
12.90078
12.538318
12.216451
11.931125
11.679442
11.45866
11.265403
11.097342
10.951352
10.824686
10.714931
10.619695
10.538019
10.468213
10.408392
10.356962
10.312062
10.273421
10.240172
10.211161
10.18547
10.163108
10.143817
10.127264
10.113378
10.102043
10.093183
10.085258
10.078582
10.073062
10.068362
10.063898
10.058876
10.052374
10.043487
10.031519
10.016594
10.002702
9.9925155
9.9868148
9.9852772
9.9871942
9.9929935
10.003175
10.011761
9.9976488
1516.1394
2474.2823
914.26198
571.14486
363.55282
277.90473
193.83485
157.50853
124.394
103.29576
86.327615
73.3176
62.9961
54.737094
48.055269
42.573297
38.025153
34.224126
31.026941
28.318299
26.011346
24.032805
22.33132
20.856237
19.574926
18.452202
17.465418
16.59483
15.825378
15.142996
14.535761
13.995941
13.51594
13.089516
12.71063
12.372871
12.073187
11.80754
11.572962
11.36743
11.187295
11.030572
10.894855
10.777125
10.67527
10.587206
10.510833
10.445383
10.3891
10.340896
10.298886
10.262105
10.230325
10.202693
10.178234
10.156604
10.13794
10.121901
10.108414
10.097313
10.088135
10.079891
10.072774
10.066677
10.061263
10.055985
10.050138
10.042945
10.033725
10.022121
10.008571
9.9971827
9.9891728
9.9851051
9.9846942
9.9871451
9.9923288
10.001804
10.009841
9.9987754
1534.9596
2430.5087
882.1448
560.15142
351.90655
271.43247
188.87696
153.1781
121.18248
100.1507
83.528682
70.769825
60.698444
52.663829
46.185611
40.882274
36.50126
32.853895
29.795249
27.210891
25.017302
23.14001
21.530496
20.13861
18.930611
17.877208
16.953702
16.140598
15.422568
14.787288
14.222172
13.72003
13.273602
12.877138
12.525626
12.212364
11.934561
11.688462
11.470749
11.280121
11.112898
10.967106
10.841105
10.731849
10.637192
10.555412
10.484749
10.42351
10.370513
10.325195
10.285692
10.251051
10.220611
10.194201
10.170821
10.150059
10.131947
10.116364
10.103199
10.092277
10.082755
10.074148
10.066556
10.059865
10.053752
10.04772
10.041161
10.033436
10.024035
10.012911
10.001306
9.9921978
9.986171
9.983652
9.9842175
9.986961
9.9914397
9.9998368
10.007277
9.9999129
1553.2975
2392.577
849.76937
548.52644
339.98665
263.99973
183.77427
148.31815
117.42185
96.570301
80.351771
67.916421
58.148589
50.384304
44.13563
39.054361
34.872876
31.403044
28.50397
26.060812
23.993686
22.228628
20.716107
19.414459
18.287925
17.30746
16.449668
15.695479
15.029652
14.441674
13.91885
13.454296
13.041204
12.673919
12.347616
12.058118
11.801392
11.574295
11.37393
11.197542
11.042803
10.907383
10.79041
10.689156
10.601292
10.525212
10.459372
10.402339
10.352811
10.310086
10.272848
10.240076
10.21114
10.18579
10.16342
10.143497
10.12589
10.110698
10.097756
10.086926
10.077042
10.068037
10.059943
10.052654
10.045879
10.039183
10.032051
10.023971
10.014599
10.004155
9.9949179
9.9878756
9.9836184
9.9823881
9.9837761
9.9866123
9.9903394
9.9973817
10.003924
10.000564
1570.6902
2353.3247
816.50394
535.92722
327.69245
255.36925
178.33244
142.8139
113.004
92.494436
76.764317
64.737153
55.32814
47.884082
41.930073
37.111305
33.163234
29.897225
27.177693
24.891625
22.958908
21.315961
19.91114
18.703823
17.660972
16.755046
15.963598
15.268511
14.654356
14.11118
13.629613
13.201494
12.820633
12.481923
12.181
11.913892
11.677023
11.467327
11.282205
11.11933
10.97659
10.851894
10.743255
10.649357
10.567796
10.497028
10.435628
10.38234
10.336036
10.295697
10.260506
10.22947
10.201965
10.177542
10.156044
10.136844
10.119814
10.104963
10.092142
10.08128
10.071026
10.061598
10.052994
10.045127
10.037759
10.030522
10.022978
10.014719
10.005609
9.9966971
9.9894733
9.9843119
9.9816107
9.9814397
9.9833778
9.9861311
9.9892528
9.99501
10.000533
10.000033
1586.4552
2285.7573
781.57264
521.82684
314.2696
245.39391
172.23559
136.52789
107.83003
87.865372
72.74107
61.212798
52.253835
45.209872
39.604169
35.090742
31.409397
28.370565
25.843554
23.72779
21.943302
20.428137
19.134016
18.022783
17.06375
16.231462
15.504567
14.865338
14.301866
13.803171
13.360759
12.967226
12.616733
12.30459
12.027007
11.78065
11.562273
11.3689
11.198095
11.047569
10.915433
10.800033
10.699921
10.612667
10.536844
10.470925
10.413561
10.363578
10.319967
10.282147
10.248752
10.219224
10.192969
10.169565
10.148829
10.130271
10.113747
10.09922
10.086466
10.075395
10.064768
10.054908
10.045811
10.037413
10.029532
10.02186
10.014042
10.005838
9.9973958
9.9904632
9.985055
9.9815571
9.9802251
9.9809028
9.9832241
9.9859356
9.9887595
9.9936102
9.9985151
9.9995462
1599.5442
2218.2753
744.04391
505.66794
300.04042
233.88598
165.00953
129.29483
101.82425
82.653125
68.275556
57.382899
48.985772
42.419016
37.216057
33.044466
29.656757
26.859534
24.541732
22.603611
20.970793
19.585382
18.402064
17.38541
16.507482
15.745531
15.078929
14.494135
13.978033
13.520573
13.11454
12.753089
12.430825
12.143334
11.887131
11.659468
11.457837
11.279229
11.121508
10.982454
10.860162
10.753642
10.660444
10.579242
10.508543
10.446993
10.393311
10.346413
10.305397
10.269491
10.237735
10.20954
10.184396
10.161909
10.141834
10.123827
10.107738
10.09352
10.080882
10.069368
10.058363
10.048069
10.038507
10.029624
10.021278
10.013228
10.005213
9.997268
9.990719
9.9854505
9.9816654
9.9795879
9.9793423
9.9808731
9.9835409
9.986445
9.9893598
9.9936312
9.9975146
9.9991784
1607.214
2136.0634
703.70543
485.73247
284.77771
220.52556
156.17465
120.97692
94.985677
76.903259
63.44937
53.353081
45.618779
39.596469
34.838849
31.033173
27.950552
25.410435
23.305397
21.545969
20.063281
18.804533
17.728351
16.802261
16.000668
15.303292
14.69375
14.158301
13.685808
13.265982
12.89288
12.560445
12.263802
11.99887
11.762245
11.551269
11.364538
11.198989
11.052808
10.924115
10.81106
10.71186
10.62504
10.549189
10.482999
10.425282
10.374885
10.330635
10.292031
10.257873
10.227552
10.200506
10.176316
10.154673
10.135155
10.117602
10.101868
10.087856
10.075269
10.063341
10.05194
10.041206
10.031189
10.021851
10.013079
10.004739
9.9968535
9.9903993
9.985338
9.9815921
9.979228
9.9783855
9.9790145
9.9811655
9.9841798
9.9873646
9.9904681
9.9942479
9.9973199
9.9992814
1604.3822
2035.4107
660.03499
459.68793
268.30082
204.96544
145.48547
111.59675
87.462926
70.740771
58.445556
49.269019
42.271223
36.837196
32.549855
29.121062
26.344539
24.060659
22.164408
20.577307
19.23747
18.097864
17.121673
16.279898
15.549552
14.912396
14.353875
13.86207
13.427105
13.040979
12.697079
12.390252
12.116183
11.871317
11.652643
11.457573
11.283881
11.129716
10.993299
10.873039
10.767419
10.67488
10.593687
10.522613
10.460383
10.405925
10.358534
10.316791
10.279957
10.24736
10.218338
10.192302
10.169024
10.147963
10.128916
10.111705
10.096254
10.082354
10.069758
10.057452
10.045667
10.0345
10.024047
10.014314
10.005248
9.9968874
9.9900068
9.9848823
9.9811829
9.9787542
9.9775695
9.9776682
9.9790495
9.9815402
9.9847644
9.9881427
9.9913391
9.9947636
9.9975937
9.9994795
1584.8429
1906.4712
613.25634
426.8558
250.60681
187.0013
133.15992
101.47656
79.60298
64.488515
53.484027
45.296029
39.066905
34.235138
30.421472
27.365108
24.883029
22.842988
21.142872
19.715327
18.50622
17.474512
16.588153
15.821777
15.155048
14.571612
14.058484
13.605641
13.204311
12.847448
12.528966
12.24431
11.989616
11.761721
11.557957
11.376037
11.213941
11.069852
10.942107
10.829171
10.7297
10.642837
10.566513
10.499614
10.440987
10.389573
10.344421
10.30466
10.269393
10.238045
10.210211
10.185141
10.162483
10.141944
10.123293
10.106403
10.091054
10.077165
10.064467
10.051851
10.039739
10.028205
10.01738
10.007348
9.9981982
9.9902216
9.9845823
9.9806262
9.9780852
9.9767607
9.9765405
9.977368
9.9791825
9.9818416
9.9850984
9.9885978
9.9919083
9.9951601
9.9978634
9.9996556
1539.8543
1748.9466
564.55477
388.03031
232.70324
166.91728
119.88225
91.237335
71.862019
58.471159
48.790851
41.595953
36.12432
31.876405
28.51608
25.813126
23.60688
21.783265
20.259489
18.973631
17.879565
16.941946
16.133269
15.431759
14.819873
14.283144
13.808936
13.389189
13.016101
12.684148
12.387251
12.12142
11.883188
11.669713
11.478593
11.307761
11.155394
11.019848
10.899606
10.793256
10.699468
10.616981
10.544575
10.480916
10.424991
10.375791
10.332467
10.294444
10.260621
10.230446
10.203379
10.178988
10.156885
10.136754
10.118478
10.101752
10.08649
10.072551
10.059567
10.046695
10.034313
10.022503
10.011378
10.001048
9.9918263
9.9850872
9.9804127
9.9774624
9.9758895
9.9754522
9.9759686
9.9773085
9.9793842
9.982097
9.9852698
9.9886774
9.9919922
9.9951475
9.99799
9.9997299
1461.0738
1587.8042
514.9128
348.15017
208.53846
147.44942
106.59918
81.568244
64.699409
53.006491
44.585179
38.32686
33.55633
29.838537
26.883342
24.493363
22.531172
20.899144
19.526725
18.362169
17.365833
16.507535
15.76363
15.115361
14.547615
14.048076
13.606602
13.214792
12.865829
12.554037
12.274711
12.024147
11.79923
11.597388
11.416436
11.254483
11.109851
10.981007
10.866522
10.765048
10.675323
10.59623
10.527034
10.466072
10.412447
10.36521
10.323515
10.286595
10.253765
10.224365
10.197916
10.174009
10.152398
10.132629
10.114519
10.097907
10.082667
10.068649
10.055382
10.042238
10.029566
10.017479
10.006134
9.995756
9.987046
9.9811551
9.9773139
9.9751918
9.9744024
9.9746503
9.9757129
9.9774266
9.9796748
9.9823689
9.9853891
9.9885261
9.9916249
9.9947786
9.9976425
9.9995508
1350.1215
1505.4367
468.31957
300.2144
184.50734
129.16332
94.578706
72.998589
58.495646
48.39346
41.089082
35.643045
31.468815
28.1935
25.571367
23.435948
21.671329
20.194615
18.944295
17.877568
16.960264
16.166342
15.475243
14.870525
14.338854
13.869332
13.452941
13.08226
12.751268
12.455431
12.189756
11.951007
11.73633
11.54338
11.370162
11.214943
11.076185
10.952479
10.842512
10.745034
10.658835
10.582733
10.515564
10.456361
10.40414
10.358021
10.317203
10.280998
10.248929
10.220136
10.194191
10.170672
10.149243
10.129639
10.111641
10.09509
10.079855
10.065763
10.052288
10.038919
10.025984
10.013607
10.001993
9.9915391
9.9835908
9.9782785
9.9750652
9.9735684
9.9733774
9.9741383
9.975599
9.9775828
9.9799381
9.9825292
9.9852452
9.9880475
9.9909779
9.9939883
9.9968338
9.9991294
1218.3899
1266.7487
427.76185
257.49451
162.14112
113.90438
84.623666
66.073703
53.589762
44.836348
38.459158
33.660951
29.949244
27.010539
24.63774
22.68994
21.068552
19.702916
18.541243
17.544761
16.684
15.936018
15.282645
14.709203
14.203639
13.755926
13.357919
13.002776
12.684855
12.399493
12.142871
11.911803
11.703665
11.516256
11.347706
11.196388
11.060848
10.939759
10.831879
10.736045
10.651204
10.576602
10.510628
10.452414
10.401006
10.35555
10.315258
10.279422
10.247412
10.218683
10.192756
10.16923
10.147777
10.128132
10.110091
10.093495
10.078214
10.064065
10.050491
10.036992
10.0239
10.011339
9.9995315
9.9889668
9.9813942
9.9763973
9.9735311
9.9724028
9.9725998
9.9737398
9.9754695
9.9775754
9.9799042
9.9823671
9.9849229
9.9875665
9.9903231
9.9932077
9.9961247
9.9988142
1099.7115
1124.6356
394.72667
226.46922
145.39704
102.67413
77.246944
61.028175
50.081611
42.339594
36.641813
32.313568
28.934304
26.235943
24.040143
22.224746
20.703686
19.414877
18.312563
17.362346
16.537864
15.818524
15.187942
14.632958
14.143295
13.708471
13.321128
12.974799
12.664173
12.384834
12.133135
11.906072
11.701155
11.516302
11.349744
11.199944
11.065529
10.945238
10.837889
10.742351
10.657538
10.582402
10.515947
10.457207
10.405277
10.359313
10.318538
10.282248
10.249812
10.220677
10.194363
10.170467
10.148658
10.128671
10.110301
10.093392
10.077821
10.063443
10.049861
10.036317
10.023205
10.010635
9.9988266
9.9882517
9.9806024
9.9756025
9.9727514
9.9716615
9.9718611
9.9732866
9.9752926
9.9774884
9.9797888
9.982151
9.9845583
9.9870426
9.989682
9.9925243
9.995532
9.9985529
1045.1922
1085.1832
370.19383
209.23077
134.41797
95.046089
71.744379
57.013227
47.088213
40.058749
34.869329
30.909114
27.803851
25.313934
23.279903
21.59214
20.17318
18.966974
17.932118
17.03745
16.25907
15.578301
14.980241
14.452765
13.985829
13.571025
13.20123
12.870446
12.573635
12.306592
12.06583
11.848465
11.652114
11.474789
11.314807
11.170718
11.041231
10.925168
10.821428
10.728954
10.646731
10.573774
10.509135
10.451905
10.401226
10.356294
10.316367
10.280771
10.248899
10.220216
10.194257
10.170629
10.149009
10.129137
10.110814
10.093888
10.078244
10.063743
10.049992
10.03628
10.02298
10.010154
9.9980215
9.9874686
9.9803849
9.9755316
9.9725966
9.9713719
9.971116
9.9726535
9.9751686
9.977346
9.9795686
9.9818464
9.984179
9.9865884
9.9892042
9.9920712
9.9951766
9.9984091
30694.112
77840.322
36537.853
10731.967
1446.6917
603.12614
428.26683
345.30919
285.98392
232.74925
190.14936
157.55067
133.36483
115.17824
101.09714
89.756602
80.271659
72.142606
65.126635
59.06182
53.793208
49.184609
45.128449
41.539306
38.352578
35.504466
32.950179
30.650274
28.573371
26.69465
24.992792
23.448746
22.045988
20.77009
19.60978
18.555493
17.598548
16.731213
15.946432
15.237839
14.599875
14.026933
13.513935
13.056364
12.64975
12.289806
11.972659
11.694287
11.451034
11.239561
11.056621
10.899127
10.764108
10.649024
10.551355
10.469082
10.401503
10.347517
10.306683
10.281264
10.269159
10.261962
10.253891
10.244226
10.233562
10.22209
10.209849
10.19725
10.185561
10.177269
10.174319
10.179786
10.190772
10.21656
10.226572
10.234075
10.111484
10.109068
10.025051
10.026119
20059.364
57803.38
23940.694
4986.6228
953.40868
521.38935
392.47638
316.53337
260.18967
209.7884
172.64442
144.21532
123.47892
107.64582
95.182272
84.936485
76.237613
68.731275
62.243574
56.621977
51.716927
47.40772
43.601223
40.222237
37.209572
34.510708
32.084736
29.894727
27.912969
26.117089
24.487365
23.00614
21.658217
20.430324
19.31236
18.295443
17.371457
16.533212
15.774094
15.088153
14.470183
13.914804
13.417256
12.973264
12.578523
12.228942
11.920826
11.650264
11.413768
11.208126
11.030191
10.876974
10.745601
10.63363
10.538623
10.45833
10.392058
10.339201
10.299497
10.27553
10.264461
10.25753
10.249475
10.239875
10.229285
10.217835
10.205591
10.193117
10.181827
10.174306
10.17326
10.179683
10.19241
10.219377
10.228428
10.233859
10.109104
10.101508
10.021685
10.022447
28872.473
33494.295
12875.65
2484.6858
826.54049
492.47169
382.81769
301.50752
247.22261
198.54791
165.17406
138.22058
119.04689
104.04193
92.212526
82.392774
74.0307
66.817391
60.589388
55.186664
50.464438
46.311094
42.638874
39.375763
36.461499
33.849344
31.499633
29.376333
27.453732
25.710332
24.127087
22.687022
21.375627
20.180203
19.091311
18.100359
17.199548
16.382
15.64134
14.971866
14.368577
13.826216
13.340236
12.906505
12.520814
12.179205
11.878103
11.61366
11.38251
11.181524
11.007624
10.857891
10.729535
10.620201
10.527375
10.44894
10.383689
10.331709
10.292931
10.270232
10.260027
10.253302
10.245271
10.235731
10.225184
10.213726
10.201471
10.189152
10.178355
10.171591
10.172485
10.179951
10.194377
10.22158
10.229305
10.232704
10.105774
10.091469
10.018428
10.020947
36396.742
23177.848
8027.4138
1503.974
744.60383
469.42801
370.83988
285.81734
236.53299
188.232
158.42824
132.41019
114.8614
100.58081
89.387901
79.967292
71.933246
65.000846
59.016572
53.817821
49.266958
45.259999
41.713681
38.559207
35.73955
33.207344
30.929128
28.868928
27.002577
25.309235
23.770509
22.370046
21.093958
19.930066
18.869554
17.904048
17.026056
16.228975
15.506646
14.853594
14.265002
13.735717
13.261404
12.838053
12.461543
12.12805
11.834106
11.575922
11.350256
11.154056
10.984312
10.83818
10.713014
10.606323
10.515774
10.439308
10.375327
10.324266
10.286479
10.265106
10.255753
10.249203
10.241181
10.231677
10.221144
10.209653
10.197392
10.185271
10.175107
10.169103
10.171384
10.180517
10.196652
10.223349
10.229359
10.230407
10.101571
10.078875
10.015323
10.017292
40619.489
20145.238
5687.154
1206.7634
712.92803
451.73851
361.70482
273.73224
228.87086
180.38076
153.6855
127.9166
111.73682
97.856296
87.147629
77.999016
70.217491
63.502845
57.707678
52.667542
48.251592
44.361235
40.916162
37.84986
35.107202
32.643386
30.422938
28.415753
26.597116
24.946562
23.446191
22.080115
20.834925
19.698839
18.663553
17.720804
16.86336
16.084832
15.379223
14.741243
14.166217
13.649069
13.18565
12.772038
12.404187
12.078386
11.791259
11.53906
11.318665
11.127086
10.961374
10.818762
10.696682
10.592599
10.504296
10.429766
10.36725
10.317072
10.280284
10.26023
10.251667
10.245252
10.237225
10.227735
10.217184
10.20564
10.193386
10.181516
10.172139
10.166904
10.170126
10.181352
10.199136
10.224874
10.229041
10.226946
10.096662
10.066798
10.012107
10.013057
43289.755
18832.77
4392.5622
1140.1725
693.5806
434.08341
354.81911
264.36656
223.16023
174.16972
149.98283
124.14297
109.17207
95.529132
85.231844
76.290828
68.724362
62.19181
56.554539
51.647645
47.346233
43.555528
40.197427
37.207263
34.531598
32.12694
29.957809
27.997403
26.221014
24.608606
23.142624
21.807553
20.590383
19.479656
18.467516
17.545739
16.707344
15.946105
15.256156
14.632365
14.070174
13.56456
13.111549
12.70728
12.347769
12.029413
11.748907
11.502545
11.287313
11.100278
10.938562
10.799499
10.680397
10.578905
10.492852
10.420268
10.359395
10.310095
10.274329
10.255592
10.247759
10.241438
10.233387
10.223887
10.213291
10.20168
10.189459
10.177897
10.169453
10.165043
10.169188
10.182468
10.201723
10.225938
10.227459
10.222328
10.091399
10.05644
10.009138
10.010388
45351.851
16845.169
3552.3655
1094.0306
679.46178
422.22424
349.29849
256.97981
218.76014
169.26246
147.04925
121.00058
107.05443
93.543746
83.588453
74.806885
67.422675
61.041799
55.536382
50.741552
46.537382
42.831827
39.548481
36.624145
34.006708
31.653885
29.531458
27.611131
25.872016
24.293614
22.858482
21.551381
20.359628
19.272027
18.281119
17.378662
16.557914
15.812771
15.137474
14.527028
13.976962
13.482293
13.039211
12.643888
12.292399
11.981235
11.70715
11.46647
11.25629
11.073734
10.916028
10.780341
10.664204
10.565295
10.481487
10.410852
10.351694
10.303353
10.268628
10.251194
10.244021
10.237751
10.229657
10.220122
10.209455
10.197774
10.185623
10.17444
10.167024
10.163619
10.168799
10.18392
10.204332
10.226525
10.224827
10.216748
10.086178
10.048765
10.006662
10.008764
46864.632
14221.358
3018.9025
1065.8696
668.76227
412.76836