/*--------------------------------*- C++ -*----------------------------------*\
  =========                 |
  \\      /  F ield         | OpenFOAM: The Open Source CFD Toolbox
   \\    /   O peration     | Website:  https://openfoam.org
    \\  /    A nd           | Version:  12
     \\/     M anipulation  |
\*---------------------------------------------------------------------------*/
FoamFile
{
    format      ascii;
    class       volScalarField;
    location    "0.044";
    object      rho;
}
// * * * * * * * * * * * * * * * * * * * * * * * * * * * * * * * * * * * * * //

dimensions      [1 -3 0 0 0 0 0];

internalField   nonuniform List<scalar> 
16000
(
1.0637967
1.095763
1.0838395
1.0919959
1.0882537
1.0916074
1.0906533
1.092432
1.0925753
1.0937556
1.0943905
1.0953797
1.0962348
1.0972056
1.0981748
1.099194
1.1002438
1.1013316
1.1024554
1.103616
1.1048133
1.1060473
1.1073176
1.1086236
1.1099647
1.1113398
1.1127478
1.1141869
1.1156556
1.1171516
1.1186725
1.1202157
1.1217781
1.1233566
1.1249475
1.1265471
1.1281514
1.1297562
1.1313573
1.1329503
1.1345308
1.1360943
1.1376364
1.139153
1.1406399
1.1420933
1.1435097
1.1448857
1.1462184
1.1475054
1.1487445
1.1499339
1.1510725
1.1521594
1.1531941
1.1541768
1.1551076
1.1559872
1.1568159
1.157594
1.1583206
1.158994
1.1596107
1.160165
1.160649
1.1610529
1.1613657
1.1615785
1.1616891
1.1617106
1.1616777
1.1616487
1.1616973
1.1619054
1.1623505
1.1631103
1.1644193
1.1658906
1.166261
1.167037
1.0606327
1.0931244
1.0807509
1.0892943
1.0853322
1.0889495
1.0878985
1.0898457
1.0899838
1.0912648
1.0919514
1.0930151
1.0939434
1.0949877
1.0960366
1.0971357
1.0982695
1.0994434
1.1006562
1.1019082
1.1031994
1.1045294
1.1058976
1.1073033
1.1087452
1.1102221
1.1117324
1.113274
1.1148448
1.116442
1.1180629
1.1197042
1.1213624
1.1230337
1.1247141
1.1263993
1.1280848
1.129766
1.1314382
1.1330968
1.1347369
1.136354
1.1379436
1.1395014
1.1410233
1.1425056
1.1439448
1.1453381
1.1466828
1.1479767
1.149218
1.1504055
1.1515382
1.1526155
1.1536375
1.1546043
1.1555164
1.1563744
1.1571789
1.15793
1.1586274
1.1592696
1.1598539
1.160376
1.1608295
1.1612062
1.1614968
1.1616935
1.1617956
1.1618169
1.1617936
1.1617842
1.1618627
1.1621054
1.1625914
1.1634631
1.1647699
1.1661608
1.1664647
1.1671787
1.0577689
1.0907151
1.0779197
1.0868226
1.0827195
1.0865355
1.0854562
1.0875223
1.0877009
1.0890643
1.0898236
1.0909629
1.0919756
1.0931016
1.0942394
1.0954284
1.096656
1.0979261
1.0992378
1.1005911
1.1019857
1.1034207
1.1048954
1.1064086
1.1079587
1.109544
1.1111624
1.1128115
1.1144884
1.11619
1.1179128
1.1196531
1.1214068
1.1231694
1.1249364
1.126703
1.1284641
1.1302148
1.1319499
1.1336646
1.1353537
1.1370127
1.138637
1.1402223
1.1417648
1.1432611
1.144708
1.146103
1.1474439
1.1487289
1.1499569
1.151127
1.1522388
1.1532921
1.1542873
1.1552249
1.1561055
1.1569298
1.1576985
1.1584118
1.1590693
1.1596699
1.1602113
1.1606901
1.1611014
1.1614389
1.1616954
1.1618654
1.1619505
1.1619669
1.1619521
1.1619651
1.162079
1.1623535
1.1628667
1.163848
1.1651521
1.1664587
1.16669
1.1673275
1.0552167
1.0885409
1.0753399
1.0846033
1.0803629
1.0844058
1.083304
1.0855061
1.0857344
1.0871924
1.0880378
1.0892642
1.0903752
1.0915955
1.0928353
1.0941268
1.0954605
1.0968387
1.0982607
1.0997262
1.1012344
1.1027843
1.1043748
1.1060042
1.1076706
1.1093718
1.111105
1.1128672
1.114655
1.1164646
1.1182919
1.1201324
1.1219812
1.1238333
1.1256834
1.1275263
1.1293564
1.1311682
1.1329564
1.1347157
1.1364411
1.1381278
1.1397715
1.1413683
1.1429145
1.1444071
1.1458437
1.1472221
1.1485407
1.1497986
1.150995
1.1521298
1.1532031
1.1542154
1.1551673
1.1560598
1.1568939
1.1576704
1.15839
1.1590531
1.1596594
1.1602079
1.1606968
1.1611234
1.1614841
1.1617743
1.1619892
1.1621261
1.1621891
1.1621971
1.1621884
1.1622203
1.1623646
1.1626677
1.1631984
1.1642654
1.1655547
1.1667715
1.1669366
1.1674827
1.0530049
1.0867173
1.073139
1.0826812
1.0783091
1.082617
1.0815079
1.083851
1.0841508
1.0857098
1.0866596
1.0879826
1.0892055
1.0905311
1.0918837
1.0932882
1.0947376
1.0962336
1.0977754
1.0993622
1.1009933
1.1026671
1.104382
1.1061359
1.1079263
1.1097501
1.1116042
1.1134845
1.1153869
1.1173068
1.1192392
1.1211787
1.1231197
1.1250566
1.1269833
1.1288939
1.1307824
1.1326432
1.1344705
1.136259
1.1380038
1.1397004
1.1413448
1.1429334
1.1444632
1.1459319
1.1473377
1.1486791
1.1499556
1.1511667
1.1523126
1.1533937
1.154411
1.1553654
1.1562582
1.1570907
1.157864
1.1585795
1.1592379
1.1598397
1.1603846
1.1608718
1.1612997
1.1616665
1.1619693
1.1622052
1.1623717
1.1624689
1.1625044
1.1624999
1.1624944
1.1625418
1.1627074
1.1630429
1.1636508
1.1647119
1.1659806
1.1670923
1.167183
1.1676618
1.0511825
1.0852644
1.071344
1.081189
1.0767242
1.0812424
1.0801266
1.0826268
1.0830182
1.0846819
1.0857495
1.0871737
1.0885161
1.0899543
1.0914271
1.0929531
1.0945277
1.0961514
1.0978233
1.0995425
1.1013073
1.1031157
1.1049655
1.1068537
1.1087769
1.1107312
1.1127124
1.1147157
1.1167357
1.1187669
1.1208032
1.1228385
1.1248663
1.12688
1.1288731
1.1308391
1.1327717
1.134665
1.1365134
1.1383116
1.1400551
1.1417398
1.1433623
1.1449199
1.1464103
1.1478322
1.1491845
1.150467
1.1516798
1.1528235
1.1538991
1.1549079
1.1558514
1.1567312
1.1575491
1.1583069
1.159006
1.1596479
1.1602336
1.1607635
1.1612376
1.1616552
1.162015
1.1623155
1.1625548
1.1627315
1.1628448
1.162898
1.1629021
1.1628816
1.1628764
1.1629379
1.1631201
1.1634836
1.1641766
1.1651971
1.1664267
1.167413
1.1674223
1.167899
1.0497567
1.0842008
1.069973
1.0801479
1.0755943
1.0803136
1.0792421
1.0818705
1.082365
1.0841214
1.0853135
1.0868424
1.0883138
1.0898762
1.0914822
1.0931444
1.0948591
1.0966261
1.0984438
1.1003105
1.1022238
1.1041808
1.1061782
1.108212
1.1102778
1.1123706
1.1144849
1.1166145
1.1187532
1.1208941
1.1230301
1.1251541
1.1272587
1.1293367
1.1313811
1.1333849
1.1353419
1.1372461
1.1390923
1.1408757
1.1425924
1.1442391
1.1458135
1.1473139
1.148739
1.1500888
1.1513633
1.1525634
1.1536903
1.1547456
1.1557312
1.1566492
1.1575018
1.1582913
1.1590198
1.1596894
1.1603021
1.1608592
1.161362
1.161811
1.1622063
1.1625472
1.1628328
1.163062
1.1632338
1.1633476
1.1634049
1.1634113
1.1633816
1.1633428
1.1633344
1.1634068
1.1636016
1.1639757
1.1647287
1.1657209
1.1668935
1.1677387
1.1676983
1.1681945
1.0486724
1.0834758
1.0689663
1.0795135
1.0748696
1.0797973
1.0787715
1.0815844
1.0821153
1.0839787
1.0853265
1.086984
1.0886089
1.0903197
1.0920816
1.0939022
1.0957788
1.0977098
1.0996932
1.101726
1.1038051
1.1059263
1.1080851
1.1102763
1.112494
1.1147318
1.1169827
1.1192394
1.121494
1.1237386
1.125965
1.1281649
1.1303305
1.1324539
1.1345279
1.1365455
1.1385007
1.140388
1.1422029
1.1439415
1.1456011
1.1471797
1.1486761
1.15009
1.1514218
1.1526725
1.1538438
1.1549376
1.1559563
1.1569026
1.1577793
1.1585892
1.1593352
1.16002
1.1606462
1.1612162
1.1617319
1.1621949
1.1626065
1.1629673
1.1632772
1.1635359
1.1637428
1.1638971
1.1639986
1.1640477
1.1640475
1.1640063
1.163942
1.1638834
1.163868
1.1639441
1.1641452
1.1645654
1.1653193
1.166284
1.1673829
1.1680776
1.1680158
1.1685461
1.0479177
1.0830701
1.0683031
1.0793005
1.0744877
1.079584
1.0786359
1.0815053
1.082312
1.0843195
1.0858526
1.0876631
1.089466
1.091351
1.0932933
1.0952971
1.0973591
1.0994769
1.1016473
1.1038662
1.1061288
1.1084297
1.1107628
1.1131212
1.1154973
1.117883
1.1202698
1.1226487
1.1250105
1.1273459
1.1296458
1.1319013
1.134104
1.1362458
1.1383196
1.1403191
1.1422389
1.1440745
1.1458228
1.1474813
1.1490489
1.1505252
1.1519108
1.1532071
1.1544161
1.1555404
1.1565831
1.1575474
1.1584369
1.1592551
1.1600058
1.1606923
1.1613181
1.1618862
1.1623995
1.1628605
1.1632711
1.163633
1.1639473
1.1642146
1.1644348
1.1646078
1.1647331
1.1648106
1.1648405
1.1648245
1.1647669
1.1646786
1.1645801
1.1645015
1.1644782
1.164549
1.1647528
1.1652342
1.1659491
1.1668842
1.1678974
1.1684336
1.1683791
1.1689535
1.0475152
1.083007
1.0680103
1.0794337
1.0744786
1.0798997
1.0790122
1.0820698
1.0830648
1.0852163
1.0869649
1.0889565
1.0909644
1.0930521
1.0952024
1.0974159
1.0996888
1.1020174
1.1043967
1.1068211
1.109284
1.1117782
1.1142954
1.1168267
1.1193626
1.1218931
1.1244077
1.1268959
1.1293471
1.1317511
1.1340979
1.1363783
1.1385838
1.1407071
1.1427416
1.1446822
1.146525
1.1482673
1.1499076
1.1514459
1.1528828
1.1542203
1.1554608
1.1566078
1.1576649
1.1586365
1.1595269
1.1603406
1.1610821
1.161756
1.1623663
1.1629171
1.163412
1.1638544
1.1642471
1.1645925
1.1648928
1.1651491
1.1653626
1.1655336
1.1656621
1.165748
1.1657911
1.1657916
1.1657505
1.1656703
1.1655572
1.1654239
1.1652927
1.1651941
1.1651606
1.1652207
1.1654416
1.1659277
1.1666184
1.1675205
1.1684424
1.1688086
1.1687914
1.1694265
1.0475266
1.0833529
1.0681342
1.0797838
1.0749281
1.080555
1.0799487
1.0831637
1.084426
1.0867502
1.0887484
1.0909549
1.0931981
1.0955198
1.0979075
1.1003591
1.1028695
1.105433
1.1080426
1.1106905
1.1133677
1.1160645
1.1187702
1.1214735
1.1241624
1.1268248
1.1294486
1.1320217
1.1345325
1.13697
1.1393243
1.1415864
1.1437487
1.145805
1.1477507
1.1495826
1.1512992
1.1529003
1.154387
1.1557618
1.1570279
1.1581896
1.1592515
1.1602191
1.1610977
1.1618931
1.1626109
1.1632565
1.1638352
1.164352
1.1648115
1.165218
1.165575
1.165886
1.1661537
1.1663804
1.1665678
1.1667171
1.1668289
1.1669035
1.1669407
1.1669405
1.1669028
1.1668284
1.1667187
1.1665775
1.1664124
1.1662377
1.1660762
1.1659568
1.1659116
1.1659667
1.1662201
1.1666686
1.1673287
1.1682017
1.1690204
1.1692011
1.1692771
1.1699844
1.0480408
1.0841874
1.0687778
1.080692
1.07602
1.0819069
1.0815384
1.0849282
1.0864968
1.08902
1.091301
1.0937592
1.0962709
1.0988607
1.1015182
1.1042384
1.1070139
1.1098364
1.1126961
1.115582
1.1184822
1.1213838
1.1242732
1.1271363
1.1299588
1.1327266
1.1354259
1.1380437
1.140568
1.1429882
1.1452949
1.1474809
1.1495405
1.1514701
1.1532678
1.1549337
1.1564694
1.1578779
1.1591636
1.1603317
1.1613882
1.1623397
1.1631931
1.1639554
1.1646335
1.1652343
1.1657641
1.1662291
1.1666351
1.1669871
1.1672899
1.1675476
1.1677638
1.1679416
1.1680835
1.1681914
1.1682667
1.1683102
1.1683222
1.1683027
1.1682516
1.1681687
1.1680541
1.1679089
1.1677353
1.1675381
1.1673262
1.1671151
1.1669263
1.1667863
1.1667281
1.1667981
1.1670387
1.1674619
1.1680894
1.1689177
1.1696239
1.1696414
1.1698461
1.1706399
1.0490582
1.0855226
1.0699499
1.0822729
1.0777592
1.0838794
1.0838428
1.087421
1.0893567
1.0921204
1.0947236
1.0974786
1.100299
1.1031966
1.1061603
1.1091819
1.1122503
1.1153536
1.118478
1.1216089
1.1247304
1.1278262
1.1308794
1.1338734
1.1367916
1.1396184
1.1423392
1.1449412
1.1474131
1.1497461
1.1519333
1.1539706
1.1558559
1.1575895
1.1591735
1.1606122
1.1619108
1.1630763
1.1641161
1.1650384
1.1658517
1.1665648
1.1671861
1.1677239
1.1681862
1.1685804
1.1689133
1.1691914
1.1694202
1.1696049
1.16975
1.1698591
1.1699357
1.1699822
1.1700009
1.1699932
1.16996
1.1699017
1.1698184
1.1697098
1.1695754
1.1694153
1.1692298
1.1690201
1.1687892
1.1685429
1.1682912
1.1680495
1.1678376
1.1676812
1.1676168
1.1676874
1.1679163
1.1683088
1.1689005
1.169674
1.1702539
1.170177
1.1704994
1.1714011
1.0506245
1.087401
1.0716971
1.0844563
1.0802085
1.0865791
1.0869613
1.0907527
1.0931161
1.0961743
1.0991465
1.1022512
1.1054278
1.1086774
1.1119859
1.1153402
1.1187245
1.1221219
1.1255141
1.1288817
1.132205
1.1354637
1.1386381
1.1417091
1.1446592
1.1474723
1.1501349
1.152636
1.1549677
1.1571249
1.1591054
1.16091
1.1625417
1.164006
1.16531
1.1664623
1.1674724
1.1683505
1.1691072
1.1697531
1.1702986
1.1707538
1.1711284
1.1714311
1.1716704
1.1718538
1.171988
1.1720791
1.1721325
1.1721528
1.1721438
1.172109
1.172051
1.1719719
1.1718732
1.1717559
1.1716205
1.1714669
1.1712948
1.1711037
1.1708933
1.1706634
1.1704145
1.1701483
1.1698684
1.1695813
1.1692975
1.1690318
1.168803
1.168637
1.16857
1.1686371
1.1688485
1.1692111
1.1697695
1.1704731
1.1709209
1.1708192
1.1712461
1.1722667
1.0528013
1.0898847
1.0741279
1.0873707
1.0834753
1.0901052
1.0910087
1.0950538
1.0979141
1.1013391
1.1047394
1.108255
1.1118402
1.115486
1.1191731
1.1228822
1.1265918
1.1302791
1.1339205
1.1374916
1.1409684
1.1443274
1.1475469
1.1506073
1.1534918
1.156187
1.1586833
1.1609747
1.1630593
1.1649383
1.1666164
1.1681006
1.1694004
1.1705267
1.1714917
1.1723081
1.172989
1.1735473
1.1739959
1.1743468
1.1746114
1.1748006
1.174924
1.1749906
1.1750084
1.1749845
1.174925
1.1748356
1.1747207
1.1745842
1.1744295
1.1742591
1.1740751
1.1738788
1.1736712
1.1734528
1.1732235
1.1729829
1.1727303
1.1724652
1.1721871
1.1718961
1.1715927
1.1712792
1.1709595
1.1706405
1.1703326
1.1700501
1.1698118
1.1696431
1.1695763
1.1696364
1.1698276
1.1701659
1.1706968
1.1713282
1.1716523
1.1715387
1.172129
1.1732765
1.0556479
1.0930094
1.0773671
1.0910879
1.0876755
1.094589
1.0961437
1.1005151
1.1039536
1.1078333
1.1117276
1.1157151
1.1197557
1.1238309
1.1279147
1.1319804
1.1359993
1.1399419
1.1437785
1.1474801
1.1510194
1.1543719
1.1575167
1.1604374
1.1631224
1.165565
1.1677634
1.1697202
1.1714418
1.1729381
1.1742215
1.175306
1.1762072
1.176941
1.1775236
1.177971
1.1782984
1.1785205
1.178651
1.1787022
1.1786859
1.1786122
1.1784906
1.1783291
1.178135
1.1779144
1.1776727
1.1774143
1.177143
1.1768617
1.1765729
1.1762784
1.1759794
1.1756769
1.1753709
1.1750616
1.1747482
1.1744302
1.1741067
1.1737768
1.1734404
1.1730974
1.172749
1.1723975
1.1720473
1.1717052
1.1713812
1.1710891
1.1708475
1.170681
1.1706153
1.1706662
1.170839
1.1711603
1.1716674
1.1722278
1.1724528
1.1723768
1.1731374
1.1744072
1.0592281
1.0967816
1.0815489
1.0957456
1.0930049
1.1002668
1.102621
1.1074125
1.111509
1.1159295
1.1203771
1.1248847
1.1294113
1.1339273
1.1383978
1.1427861
1.1470552
1.1511683
1.1550908
1.1587917
1.1622447
1.1654296
1.1683325
1.1709459
1.1732687
1.1753057
1.1770662
1.1785637
1.1798146
1.1808374
1.1816518
1.1822778
1.1827356
1.1830446
1.1832233
1.1832891
1.1832581
1.183145
1.182963
1.182724
1.1824387
1.1821162
1.1817647
1.1813912
1.1810015
1.1806007
1.1801928
1.1797813
1.1793688
1.1789575
1.1785488
1.1781437
1.1777428
1.1773462
1.1769536
1.1765644
1.1761778
1.1757927
1.1754081
1.1750233
1.1746378
1.1742522
1.1738677
1.1734871
1.1731148
1.1727574
1.1724245
1.1721289
1.1718883
1.1717248
1.1716585
1.1717
1.1718583
1.1721672
1.1726486
1.1731375
1.1732895
1.1732938
1.1742578
1.1755206
1.0637191
1.1013206
1.0868789
1.1016674
1.0997934
1.1074673
1.1107616
1.1160671
1.1208881
1.1259259
1.1309747
1.1360318
1.1410468
1.1459757
1.1507704
1.1553836
1.1597708
1.163892
1.1677138
1.1712111
1.1743672
1.1771745
1.1796334
1.1817517
1.1835434
1.185027
1.1862246
1.1871604
1.1878595
1.1883473
1.1886487
1.1887873
1.1887855
1.1886638
1.188441
1.1881342
1.1877585
1.1873274
1.1868527
1.1863448
1.1858126
1.1852638
1.1847047
1.1841409
1.1835767
1.1830159
1.1824613
1.1819152
1.181379
1.1808541
1.180341
1.1798399
1.1793508
1.1788731
1.1784061
1.1779486
1.1774996
1.1770577
1.1766219
1.1761915
1.1757661
1.1753464
1.174934
1.1745317
1.174144
1.1737775
1.1734407
1.1731451
1.1729065
1.172744
1.1726741
1.1727056
1.1728513
1.1731475
1.1735977
1.1740198
1.1741332
1.1742414
1.1753512
1.1765169
1.06941
1.1071635
1.0937706
1.1091996
1.108389
1.1165117
1.1208897
1.1268245
1.1324377
1.1381615
1.1438385
1.1494317
1.1548739
1.1601039
1.1650625
1.1696976
1.1739662
1.1778369
1.1812904
1.184319
1.1869263
1.1891253
1.1909364
1.1923856
1.1935027
1.1943194
1.1948681
1.1951807
1.1952881
1.1952189
1.1949998
1.1946551
1.1942067
1.1936739
1.193074
1.192422
1.1917309
1.1910121
1.1902751
1.1895281
1.1887782
1.1880308
1.1872909
1.186562
1.1858472
1.1851488
1.1844683
1.183807
1.1831654
1.1825439
1.1819422
1.1813599
1.1807964
1.1802504
1.1797208
1.1792063
1.1787052
1.1782163
1.1777385
1.1772711
1.1768138
1.1763674
1.1759336
1.1755153
1.1751169
1.1747444
1.1744055
1.1741103
1.1738725
1.1737083
1.1736304
1.1736473
1.1737769
1.174054
1.174464
1.1748243
1.1749254
1.1751278
1.1763133
1.1773437
1.076503
1.114945
1.1024242
1.1185501
1.1191455
1.1278042
1.1334302
1.140142
1.146603
1.1530322
1.1592834
1.1652864
1.170959
1.1762322
1.1810502
1.1853735
1.1891797
1.192463
1.1952323
1.1975086
1.1993219
1.2007089
1.2017099
1.2023669
1.2027216
1.2028142
1.2026826
1.2023616
1.2018831
1.2012752
1.2005632
1.1997689
1.1989117
1.1980079
1.1970717
1.1961152
1.1951486
1.1941804
1.1932178
1.1922665
1.1913313
1.1904161
1.1895236
1.1886561
1.1878151
1.1870016
1.1862163
1.1854591
1.1847299
1.1840282
1.1833532
1.1827038
1.1820787
1.1814765
1.1808955
1.1803341
1.1797905
1.1792634
1.1787515
1.1782543
1.1777716
1.1773042
1.1768537
1.176423
1.1760161
1.1756381
1.1752958
1.1749986
1.1747582
1.1745869
1.1744941
1.1744894
1.1745948
1.1748402
1.1751958
1.1754938
1.1755973
1.1758778
1.1770494
1.1779766
1.0851026
1.124454
1.1134104
1.1302585
1.132691
1.1420198
1.1490156
1.1566032
1.1638621
1.1708559
1.1774361
1.1835164
1.1890214
1.1939018
1.1981326
1.2017119
1.2046579
1.2070039
1.2087947
1.210082
1.2109208
1.2113666
1.2114732
1.2112911
1.2108671
1.2102429
1.2094561
1.2085394
1.2075214
1.2064265
1.2052758
1.2040872
1.2028755
1.2016535
1.2004316
1.1992185
1.1980213
1.1968456
1.1956962
1.1945765
1.1934892
1.1924364
1.1914193
1.1904387
1.189495
1.188588
1.1877174
1.1868824
1.1860821
1.1853155
1.184581
1.1838772
1.1832024
1.1825547
1.1819321
1.1813328
1.1807549
1.1801968
1.1796575
1.1791362
1.1786329
1.1781481
1.1776836
1.1772417
1.176826
1.1764408
1.1760921
1.1757879
1.1755379
1.1753511
1.1752351
1.1752011
1.1752724
1.1754714
1.1757589
1.1759912
1.1760958
1.1764388
1.1775432
1.1783714
1.0959221
1.1365977
1.1276157
1.1452462
1.1499551
1.1600357
1.1683365
1.176683
1.1844303
1.1915557
1.1979381
1.2035184
1.2082696
1.2121981
1.2153373
1.2177404
1.2194739
1.2206111
1.2212274
1.2213965
1.2211877
1.2206645
1.219884
1.2188964
1.2177452
1.216468
1.2150966
1.2136581
1.2121749
1.2106659
1.2091467
1.20763
1.2061263
1.204644
1.2031899
1.2017694
1.2003866
1.1990447
1.1977461
1.1964922
1.195284
1.1941219
1.193006
1.1919357
1.1909105
1.1899293
1.1889911
1.1880943
1.1872376
1.1864193
1.1856376
1.1848905
1.184176
1.1834919
1.182836
1.1822062
1.1816006
1.1810175
1.1804557
1.1799143
1.1793933
1.1788931
1.178415
1.1779611
1.1775341
1.1771378
1.1767771
1.1764589
1.1761908
1.1759796
1.1758319
1.1757607
1.1757876
1.1759249
1.1761307
1.1762932
1.1763957
1.1767783
1.1777929
1.1784459
1.1104795
1.1524538
1.146292
1.1645664
1.1718925
1.182618
1.1917583
1.2003121
1.2078422
1.2143275
1.2197336
1.2240844
1.2274382
1.2298795
1.2315075
1.2324273
1.2327427
1.2325517
1.2319439
1.2309987
1.2297856
1.2283638
1.2267838
1.2250877
1.2233105
1.2214811
1.2196232
1.217756
1.2158952
1.2140534
1.2122403
1.210464
1.2087305
1.2070444
1.2054093
1.2038277
1.2023011
1.2008307
1.1994167
1.1980593
1.1967577
1.1955113
1.194319
1.1931794
1.1920911
1.1910524
1.1900615
1.1891167
1.1882159
1.1873571
1.1865383
1.185757
1.1850111
1.184298
1.1836155
1.1829611
1.1823329
1.1817289
1.181148
1.180589
1.1800517
1.1795363
1.1790438
1.1785756
1.1781337
1.1777211
1.1773418
1.1770014
1.1767058
1.1764607
1.176273
1.1761552
1.1761235
1.1761852
1.176302
1.1763968
1.1764886
1.1768652
1.1777388
1.1782259
1.1302861
1.1733108
1.1708619
1.1892436
1.1989027
1.2097512
1.2187319
1.2264321
1.2326899
1.2375718
1.241172
1.2436255
1.245082
1.2456936
1.2456047
1.2449467
1.243835
1.2423689
1.2406319
1.2386934
1.2366106
1.2344298
1.2321885
1.2299168
1.2276387
1.2253733
1.2231353
1.2209365
1.2187858
1.21669
1.214654
1.2126815
1.210775
1.208936
1.2071653
1.205463
1.203829
1.2022624
1.2007623
1.1993272
1.1979557
1.1966459
1.195396
1.194204
1.1930678
1.1919853
1.1909542
1.1899725
1.1890377
1.1881476
1.1872998
1.1864917
1.1857209
1.1849847
1.1842805
1.183606
1.1829588
1.182337
1.181739
1.1811637
1.1806105
1.1800793
1.1795706
1.1790851
1.1786243
1.1781901
1.1777857
1.1774151
1.1770831
1.176795
1.1765574
1.1763823
1.1762859
1.1762707
1.1762988
1.176318
1.1763764
1.1767086
1.1773928
1.1777395
1.1578625
1.1999638
1.2024438
1.220174
1.2302204
1.2398867
1.2473289
1.252939
1.2568422
1.2592728
1.2604624
1.2606378
1.2600032
1.2587359
1.2569852
1.254874
1.2525018
1.2499482
1.2472764
1.2445359
1.2417654
1.2389949
1.2362475
1.2335407
1.2308879
1.228299
1.2257812
1.2233396
1.2209776
1.2186974
1.2165
1.2143858
1.2123545
1.2104052
1.2085367
1.2067475
1.2050358
1.2033996
1.201837
1.2003455
1.1989228
1.1975666
1.1962743
1.1950435
1.1938716
1.1927563
1.1916949
1.1906851
1.1897244
1.1888101
1.1879397
1.1871106
1.1863199
1.1855649
1.184843
1.1841515
1.1834879
1.1828502
1.1822365
1.1816454
1.181076
1.180528
1.1800012
1.1794958
1.1790125
1.1785525
1.1781178
1.1777112
1.1773367
1.1769995
1.1767064
1.1764669
1.1762964
1.1762019
1.1761403
1.1760786
1.1760911
1.1763346
1.1768366
1.1770513
1.1958381
1.2342046
1.2398705
1.2549007
1.2638528
1.2706331
1.2749351
1.2772983
1.2780765
1.2776282
1.2762469
1.2741753
1.2716061
1.2686899
1.265543
1.2622541
1.2588904
1.2555024
1.2521276
1.2487939
1.2455218
1.2423259
1.2392166
1.2362011
1.2332839
1.2304678
1.227754
1.2251427
1.2226332
1.2202244
1.2179144
1.2157012
1.2135825
1.2115557
1.2096183
1.2077676
1.2060008
1.204315
1.2027073
1.201175
1.1997151
1.1983247
1.197001
1.1957412
1.1945424
1.1934021
1.1923175
1.1912859
1.1903047
1.1893712
1.1884825
1.187636
1.1868288
1.1860579
1.1853206
1.184614
1.1839355
1.1832828
1.1826538
1.1820468
1.1814606
1.1808944
1.1803477
1.1798202
1.1793117
1.1788229
1.1783546
1.1779089
1.1774889
1.1771001
1.1767507
1.1764499
1.1762051
1.1760152
1.1758605
1.1757264
1.1756775
1.1758155
1.1761202
1.1762178
1.2424427
1.2744551
1.2814886
1.291124
1.2959459
1.298251
1.2984213
1.2970946
1.2946966
1.2915661
1.287951
1.2840333
1.2799449
1.2757802
1.2716067
1.2674721
1.2634094
1.2594417
1.2555841
1.2518467
1.2482353
1.2447529
1.2414007
1.238178
1.2350834
1.2321145
1.2292686
1.2265425
1.2239327
1.2214358
1.2190482
1.2167661
1.214586
1.2125044
1.2105176
1.2086222
1.2068148
1.205092
1.2034504
1.2018868
1.2003979
1.1989806
1.1976318
1.1963484
1.1951276
1.1939664
1.192862
1.1918116
1.1908125
1.1898618
1.1889567
1.1880943
1.1872716
1.1864857
1.1857335
1.1850122
1.1843189
1.1836511
1.1830064
1.1823829
1.1817789
1.1811933
1.1806251
1.1800736
1.1795385
1.1790195
1.1785169
1.1780317
1.1775665
1.1771266
1.1767208
1.1763587
1.1760449
1.1757743
1.1755327
1.1753192
1.1751864
1.1751959
1.1753199
1.1753424
1.2954882
1.3158504
1.3203435
1.322692
1.3219331
1.3193533
1.3155562
1.3110229
1.306069
1.3009078
1.2956808
1.2904809
1.2853686
1.2803823
1.2755457
1.2708727
1.2663702
1.2620409
1.2578842
1.2538976
1.2500775
1.2464192
1.2429177
1.2395676
1.2363635
1.2333001
1.2303719
1.2275738
1.2249006
1.2223475
1.2199097
1.2175827
1.2153621
1.2132436
1.2112233
1.2092971
1.2074613
1.2057122
1.2040461
1.2024596
1.2009492
1.1995116
1.1981435
1.1968419
1.1956036
1.1944258
1.1933055
1.1922399
1.191226
1.1902611
1.1893422
1.1884664
1.1876306
1.1868318
1.186067
1.1853331
1.1846271
1.1839463
1.1832879
1.1826498
1.1820297
1.1814261
1.1808377
1.1802639
1.1797041
1.1791575
1.1786241
1.1781042
1.1775997
1.1771151
1.1766581
1.1762373
1.175857
1.1755122
1.1751934
1.1749076
1.1746918
1.1745852
1.1745699
1.1745341
1.34741
1.3507262
1.3495694
1.3452137
1.3395118
1.3330778
1.3263693
1.3196237
1.3129851
1.3065312
1.3003041
1.2943235
1.2885962
1.2831213
1.2778932
1.272904
1.2681441
1.2636038
1.2592728
1.2551415
1.2512002
1.2474398
1.2438518
1.2404279
1.2371604
1.2340421
1.2310663
1.2282263
1.2255163
1.2229305
1.2204635
1.2181102
1.2158658
1.2137256
1.2116854
1.2097409
1.2078882
1.2061232
1.2044424
1.202842
1.2013185
1.1998685
1.1984887
1.1971759
1.195927
1.194739
1.1936091
1.1925342
1.1915115
1.1905381
1.1896111
1.1887275
1.1878841
1.1870781
1.1863062
1.1855654
1.1848525
1.1841643
1.183498
1.1828507
1.1822199
1.1816035
1.1810008
1.1804104
1.1798301
1.1792603
1.1787022
1.1781554
1.1776213
1.1771038
1.1766094
1.1761436
1.1757079
1.1752988
1.1749162
1.1745656
1.1742793
1.1740863
1.1739755
1.1739005
1.380905
1.3734891
1.3661419
1.3580493
1.3496418
1.3413233
1.3332589
1.325522
1.3181406
1.3111181
1.3044461
1.2981102
1.2920933
1.2863779
1.2809464
1.275782
1.270869
1.2661927
1.2617394
1.2574967
1.2534528
1.2495971
1.2459197
1.2424116
1.2390642
1.2358697
1.2328208
1.2299109
1.2271334
1.2244825
1.2219526
1.2195386
1.2172353
1.2150382
1.2129428
1.2109449
1.2090403
1.2072253
1.2054959
1.2038486
1.2022797
1.2007858
1.1993636
1.1980099
1.1967214
1.1954953
1.1943285
1.193218
1.192161
1.1911546
1.1901956
1.1892812
1.1884081
1.1875734
1.1867738
1.1860061
1.185267
1.1845531
1.1838612
1.1831881
1.1825312
1.1818881
1.1812562
1.1806338
1.1800225
1.1794223
1.1788316
1.1782513
1.177684
1.1771362
1.1766149
1.1761207
1.1756625
1.1751938
1.174771
1.1743769
1.1740386
1.1737923
1.1736317
1.1735415
1.1706068
1.1738105
1.1867517
1.1977143
1.2029038
1.2041499
1.2042301
1.203929
1.2039187
1.2036505
1.2033257
1.2028456
1.202281
1.2016351
1.200952
1.2002321
1.1994767
1.1986914
1.1978811
1.19705
1.1962021
1.1953407
1.1944691
1.1935902
1.1927064
1.1918203
1.1909338
1.1900488
1.1891672
1.1882905
1.1874201
1.1865574
1.1857037
1.1848601
1.1840278
1.1832079
1.1824012
1.1816089
1.1808319
1.1800709
1.179327
1.178601
1.1778935
1.1772055
1.1765377
1.1758906
1.1752651
1.1746615
1.1740805
1.1735224
1.1729874
1.1724756
1.1719871
1.1715217
1.1710791
1.170659
1.1702609
1.1698843
1.169529
1.1691948
1.1688817
1.1685903
1.1683226
1.1680807
1.1678702
1.1676931
1.1675599
1.1674592
1.1674067
1.1673388
1.1672827
1.1670563
1.1668
1.1660867
1.1654248
1.164116
1.1635106
1.1625118
1.1634613
1.1645512
1.1667978
1.1756036
1.1903067
1.1979328
1.2000358
1.1999485
1.1994746
1.1992181
1.1988879
1.1985668
1.1981744
1.1977602
1.1973012
1.1968158
1.1962924
1.1957383
1.1951538
1.1945425
1.1939064
1.1932481
1.1925697
1.1918734
1.1911614
1.190436
1.1896992
1.188953
1.1881996
1.1874407
1.1866783
1.1859142
1.1851502
1.1843878
1.1836288
1.1828746
1.1821268
1.1813868
1.1806559
1.1799355
1.1792269
1.1785312
1.1778497
1.1771834
1.1765333
1.1759005
1.1752858
1.1746903
1.1741145
1.1735594
1.1730255
1.1725131
1.1720228
1.1715546
1.1711086
1.1706847
1.1702828
1.1699026
1.1695437
1.1692057
1.1688885
1.1685921
1.1683165
1.1680627
1.1678325
1.1676284
1.1674553
1.1673154
1.167217
1.1671493
1.1671216
1.1670757
1.1670247
1.166811
1.166529
1.1658263
1.1651486
1.1638981
1.1633395
1.1624577
1.1634568
1.1646081
1.1660941
1.1781208
1.1886104
1.1945665
1.1954489
1.1949789
1.1944374
1.1941492
1.1938262
1.1935253
1.1931714
1.1928234
1.1924396
1.1920443
1.1916225
1.1911833
1.190722
1.1902412
1.1897409
1.1892218
1.1886848
1.188131
1.1875613
1.186977
1.1863794
1.1857698
1.1851497
1.1845205
1.1838836
1.1832408
1.1825935
1.1819433
1.1812918
1.1806407
1.1799914
1.1793456
1.1787047
1.1780704
1.1774439
1.1768269
1.1762205
1.1756261
1.1750451
1.1744785
1.1739275
1.1733932
1.1728765
1.1723784
1.1718995
1.1714404
1.1710016
1.1705833
1.1701858
1.169809
1.1694529
1.1691173
1.1688019
1.1685065
1.168231
1.1679757
1.1677407
1.167527
1.1673367
1.1671724
1.1670383
1.1669368
1.166874
1.1668391
1.1668362
1.1668107
1.1667662
1.1665685
1.1662582
1.1655609
1.1648758
1.1636894
1.163189
1.1624293
1.1634625
1.1646591
1.1633173
1.1763749
1.1861445
1.1905001
1.1902429
1.1898583
1.189396
1.1891849
1.1888455
1.188582
1.1882552
1.1879626
1.1876352
1.1873148
1.1869741
1.1866264
1.1862637
1.1858893
1.1855011
1.1850993
1.1846838
1.1842544
1.1838114
1.183355
1.1828857
1.1824042
1.1819112
1.1814076
1.1808945
1.1803729
1.1798441
1.1793093
1.17877
1.1782275
1.1776833
1.177139
1.176596
1.1760559
1.1755201
1.1749902
1.1744676
1.1739537
1.17345
1.1729578
1.1724783
1.1720129
1.1715625
1.1711283
1.170711
1.1703114
1.16993
1.1695672
1.1692234
1.1688986
1.1685928
1.168306
1.168038
1.1677888
1.1675584
1.1673472
1.1671556
1.1669847
1.1668366
1.1667139
1.1666206
1.1665586
1.1665321
1.1665301
1.1665519
1.1665448
1.1665049
1.1663161
1.1659855
1.1652937
1.1646052
1.1634872
1.1630564
1.162414
1.1634814
1.1647092
1.1571314
1.1723644
1.1815004
1.1848225
1.1842248
1.1841568
1.1837758
1.1837104
1.1834506
1.1833122
1.1830802
1.1829015
1.1826752
1.1824653
1.1822322
1.1819955
1.1817443
1.1814833
1.1812098
1.180924
1.1806257
1.1803145
1.1799906
1.179654
1.1793049
1.1789436
1.1785705
1.1781863
1.1777915
1.1773871
1.1769738
1.1765527
1.1761248
1.1756915
1.1752538
1.1748133
1.1743713
1.1739291
1.1734883
1.1730503
1.1726166
1.1721886
1.1717679
1.1713557
1.1709536
1.1705628
1.1701844
1.1698197
1.1694694
1.1691345
1.1688155
1.168513
1.1682273
1.1679588
1.1677074
1.1674732
1.1672562
1.1670566
1.1668744
1.1667101
1.1665645
1.1664386
1.1663346
1.1662552
1.1662039
1.1661822
1.1661924
1.1662229
1.1662689
1.1662786
1.1662423
1.1660569
1.1657123
1.1650282
1.1643416
1.1632923
1.1629357
1.162401
1.1635116
1.1647662
1.1510493
1.1685834
1.1764519
1.17923
1.1784993
1.1786861
1.1783507
1.1784276
1.1782358
1.1782133
1.1780652
1.177991
1.1778559
1.1777465
1.1776101
1.1774728
1.1773202
1.1771594
1.176987
1.1768036
1.1766091
1.1764032
1.1761858
1.1759568
1.1757163
1.1754643
1.1752011
1.1749269
1.1746421
1.1743473
1.174043
1.17373
1.1734092
1.1730815
1.172748
1.1724097
1.172068
1.1717239
1.171379
1.1710346
1.1706919
1.1703526
1.170018
1.1696894
1.1693684
1.1690562
1.1687539
1.1684628
1.1681838
1.1679176
1.1676652
1.167427
1.1672034
1.1669949
1.1668014
1.1666233
1.1664605
1.1663133
1.1661821
1.1660673
1.1659698
1.1658909
1.1658328
1.165798
1.1657898
1.1658088
1.1658559
1.1659184
1.1659878
1.1660127
1.1659864
1.1657856
1.1654394
1.1647647
1.1640857
1.1631066
1.1628258
1.1623807
1.1635601
1.1648279
1.1456838
1.1650315
1.171541
1.1740711
1.1732542
1.1736403
1.1733148
1.1735027
1.1733515
1.1734186
1.173333
1.1733457
1.1732859
1.1732556
1.1731934
1.1731351
1.1730624
1.1729847
1.1728977
1.1728019
1.172697
1.1725824
1.172458
1.1723235
1.1721788
1.1720238
1.1718586
1.1716832
1.1714979
1.171303
1.171099
1.1708862
1.1706654
1.1704372
1.1702026
1.1699624
1.1697177
1.1694694
1.1692189
1.1689672
1.1687157
1.1684656
1.1682183
1.1679751
1.1677373
1.1675062
1.1672828
1.1670683
1.1668635
1.1666695
1.1664868
1.1663161
1.1661579
1.1660125
1.1658801
1.1657608
1.165655
1.1655629
1.165485
1.1654219
1.1653745
1.1653442
1.1653334
1.1653444
1.1653798
1.1654399
1.1655235
1.1656173
1.1657094
1.1657484
1.1657301
1.1655164
1.1651683
1.1645042
1.1638378
1.1629321
1.1627254
1.162369
1.1636367
1.1648924
1.1407642
1.1619983
1.1670281
1.1694491
1.1685257
1.1690684
1.1687171