/*--------------------------------*- C++ -*----------------------------------*\
  =========                 |
  \\      /  F ield         | OpenFOAM: The Open Source CFD Toolbox
   \\    /   O peration     | Website:  https://openfoam.org
    \\  /    A nd           | Version:  12
     \\/     M anipulation  |
\*---------------------------------------------------------------------------*/
FoamFile
{
    format      ascii;
    class       volScalarField;
    location    "550";
    object      nut;
}
// * * * * * * * * * * * * * * * * * * * * * * * * * * * * * * * * * * * * * //

dimensions      [0 2 -1 0 0 0 0];

internalField   nonuniform List<scalar> 
16200
(
0.0005095748395
0.00173200416
0.002881708018
0.003777833329
0.004058968948
0.003573630679
0.002615264358
0.00141647569
0.0007140180056
0.0002111123462
6.537938564e-06
2.712319999e-06
2.456128085e-06
2.415571393e-06
1.896436842e-06
1.631270019e-06
1.420487486e-06
1.271960211e-06
1.175626364e-06
1.113369807e-06
1.077133956e-06
1.063593699e-06
1.069355392e-06
1.092211272e-06
1.131357998e-06
1.187633458e-06
1.263868378e-06
1.365504486e-06
1.501874378e-06
1.688728888e-06
1.952873194e-06
2.340897135e-06
2.93613368e-06
3.893958634e-06
5.521010802e-06
8.454770541e-06
1.407112631e-05
2.540456503e-05
4.924129784e-05
0.0001009322307
0.0002156092869
0.0004744481978
0.001002168567
0.001002261625
0.001001736637
0.001000656342
0.0009994078328
0.0009988865897
0.0009986835583
0.0009986150001
0.0009986015869
0.0009986105372
0.0009986296217
0.0009986558681
0.0009986905847
0.0009987382868
0.0009988052361
0.0009989035618
0.0009990482111
0.0009992765237
0.0005025973184
0.001694501192
0.002788129149
0.003585984271
0.003696971375
0.003084681455
0.002137529884
0.001042725234
0.0005701839537
4.653357233e-05
2.81132039e-06
2.283503234e-06
2.07768295e-06
2.040808096e-06
1.697858227e-06
1.456736159e-06
1.264890643e-06
1.129841774e-06
1.044019524e-06
9.898027559e-07
9.594567093e-07
9.49581213e-07
9.568694523e-07
9.791219773e-07
1.015532543e-06
1.066852253e-06
1.135748621e-06
1.227413784e-06
1.350750224e-06
1.520580157e-06
1.761636034e-06
2.116230785e-06
2.659519703e-06
3.531313138e-06
5.007171803e-06
7.659412671e-06
1.272268191e-05
2.291986381e-05
4.433708155e-05
9.073565716e-05
0.000193591702
0.0004256225228
0.0009562521758
0.001002137245
0.001001660676
0.001000685619
0.0009994230408
0.0009988948743
0.0009986894561
0.0009986207
0.0009986079761
0.0009986178411
0.0009986377665
0.0009986645947
0.0009986996335
0.0009987471931
0.000998813826
0.0009989114924
0.0009990562418
0.000999288216
0.0004963190954
0.001657336584
0.002693856516
0.00339008323
0.003331795024
0.002619854683
0.001661706257
0.0007661046129
0.0003901293096
1.487915665e-05
2.171112656e-06
1.923620911e-06
1.755381163e-06
1.71948033e-06
1.506708932e-06
1.289771351e-06
1.117428833e-06
9.961779566e-07
9.207446196e-07
8.74206364e-07
8.491982208e-07
8.422374209e-07
8.500945961e-07
8.706115726e-07
9.030569785e-07
9.482509132e-07
1.008922871e-06
1.090297455e-06
1.201162065e-06
1.355743816e-06
1.577082671e-06
1.903748438e-06
2.403654596e-06
3.20298489e-06
4.550441823e-06
6.962093378e-06
1.154980773e-05
2.076164221e-05
4.005610434e-05
8.174224217e-05
0.0001738931238
0.0003812100266
0.0008541058983
0.001002042812
0.001001592915
0.00100070614
0.0009994388503
0.0009989063339
0.0009986986297
0.0009986290152
0.0009986162133
0.0009986263435
0.000998646622
0.0009986737171
0.0009987088743
0.0009987562425
0.0009988225136
0.0009989195861
0.00099906431
0.0009992992967
0.0004916836701
0.001621158581
0.002596539237
0.003154651956
0.002952271857
0.002189702961
0.001187337563
0.0005664824907
0.0001981336757
5.676569432e-06
1.815474445e-06
1.633509274e-06
1.495459115e-06
1.460927337e-06
1.336724615e-06
1.140988957e-06
9.859887986e-07
8.771944624e-07
8.109944292e-07
7.711834982e-07
7.506920916e-07
7.459639558e-07
7.538876768e-07
7.724884749e-07
8.012829375e-07
8.413511173e-07
8.956703231e-07
9.696824088e-07
1.072248009e-06
1.217232188e-06
1.426415755e-06
1.735569173e-06
2.207334919e-06
2.958335877e-06
4.219005021e-06
6.467823634e-06
1.073549914e-05
1.928964396e-05
3.717961477e-05
7.577118784e-05
0.0001609366139
0.0003522025423
0.0007877445876
0.00100196417
0.0010015245
0.001000701907
0.0009994455515
0.0009989148882
0.0009987071552
0.0009986373557
0.0009986245672
0.0009986348827
0.0009986554148
0.0009986827221
0.0009987179835
0.0009987652224
0.000998831207
0.0009989278122
0.0009990725612
0.0009993104058
0.000487184287
0.001584991526
0.002497293274
0.002911297232
0.002575707382
0.001811400033
0.0008483855063
0.000434247862
4.87680725e-05
2.146583549e-06
1.534370757e-06
1.388274679e-06
1.275477837e-06
1.243375758e-06
1.179162761e-06
1.003733848e-06
8.654006162e-07
7.686168526e-07
7.110348508e-07
6.772604426e-07
6.606108652e-07
6.575947106e-07
6.65360511e-07
6.822616999e-07
7.081521708e-07
7.444349016e-07
7.943959317e-07
8.637445148e-07
9.614292695e-07
1.100973497e-06
1.303063805e-06
1.601165772e-06
2.053687897e-06
2.769721231e-06
3.965556215e-06
6.090781394e-06
1.011340393e-05
1.816022925e-05
3.495783169e-05
7.111951861e-05
0.0001507449486
0.0003291531493
0.0007344890514
0.001001903652
0.001001460436
0.001000682258
0.0009994475113
0.0009989226963
0.0009987161816
0.0009986463841
0.0009986334495
0.000998643728
0.000998664328
0.0009986917332
0.0009987270471
0.0009987741851
0.0009988399386
0.0009989361835
0.0009990809836
0.0009993214233
0.0004824957746
0.001548144726
0.002394076371
0.0026602905
0.002203449968
0.001426176868
0.0006279136014
0.000304143629
1.77570827e-05
1.595315383e-06
1.303954856e-06
1.184445557e-06
1.092033659e-06
1.062216575e-06
1.036160317e-06
8.79087442e-07
7.559070395e-07
6.701758989e-07
6.203643034e-07
5.919753656e-07
5.787774254e-07
5.774287249e-07
5.85379561e-07
6.013300688e-07
6.254770332e-07
6.595893087e-07
7.073290032e-07
7.747026543e-07
8.707305398e-07
1.008638683e-06
1.208288264e-06
1.501483115e-06
1.943596469e-06
2.638406965e-06
3.79252695e-06
5.836161737e-06
9.695251325e-06
1.740124543e-05
3.345933166e-05
6.795991295e-05
0.0001437555982
0.0003131711378
0.0006971416546
0.001001857686
0.001001400573
0.001000646288
0.0009994437078
0.0009989289464
0.000998725135
0.0009986557181
0.0009986426157
0.0009986527283
0.0009986732734
0.0009987007003
0.0009987360416
0.0009987831168
0.0009988487088
0.0009989447031
0.0009990896064
0.000999332431
0.0004770631358
0.001509794421
0.00228523345
0.002392175328
0.0018455624
0.00103909575
0.0004698690869
0.0001827190955
6.425175023e-06
1.319583593e-06
1.11066513e-06
1.011581911e-06
9.353687083e-07
9.078179912e-07
9.042659517e-07
7.644788918e-07
6.557112821e-07
5.807894362e-07
5.385743684e-07
5.155228287e-07
5.058595629e-07
5.064202071e-07
5.149842163e-07
5.306522087e-07
5.540393496e-07
5.871701858e-07
6.344676066e-07
7.019921196e-07
7.987570544e-07
9.377127555e-07
1.138624575e-06
1.431418783e-06
1.869680933e-06
2.553488874e-06
3.682982878e-06
5.675816759e-06
9.430626932e-06
1.69157065e-05
3.248591239e-05
6.586814994e-05
0.0001390298271
0.0003021312646
0.0006708127507
0.001001823937
0.001001345682
0.001000597648
0.000999435381
0.0009989339908
0.0009987340736
0.0009986653389
0.0009986520419
0.0009986618728
0.0009986822536
0.0009987096341
0.0009987449824
0.0009987920303
0.00099885753
0.0009989533781
0.0009990984374
0.0009993434292
0.0004700692739
0.001468221645
0.002167771993
0.002113034407
0.001520254334
0.0007480150771
0.0003626339543
6.317362554e-05
2.468420342e-06
1.110480443e-06
9.450722523e-07
8.628231927e-07
8.001376437e-07
7.753897693e-07
7.838009019e-07
6.607011948e-07
5.658770519e-07
5.015868786e-07
4.667743102e-07
4.488814692e-07
4.426134251e-07
4.450550177e-07
4.544025322e-07
4.702546362e-07
4.935477164e-07
5.272879956e-07
5.756511801e-07
6.450280257e-07
7.444219866e-07
8.86644891e-07
1.090663267e-06
1.387198101e-06
1.827192067e-06
2.508825656e-06
3.628541854e-06
5.597405859e-06
9.299728634e-06
1.666905354e-05
3.19727834e-05
6.471568974e-05
0.0001363015888
0.0002954656143
0.0006542628976
0.001001799346
0.001001295485
0.001000539509
0.0009994231159
0.0009989378301
0.0009987428513
0.0009986751025
0.0009986616244
0.0009986710989
0.0009986912377
0.0009987185242
0.0009987538717
0.0009988009313
0.0009988664106
0.0009989622142
0.0009991074882
0.0009993544398
0.0004615565821
0.001421345616
0.002018698339
0.001828560468
0.001216808833
0.0005503846944
0.0002751575778
3.467269957e-05
1.49883096e-06
9.382509839e-07
8.065152358e-07
7.375697093e-07
6.859422206e-07
6.639891058e-07
6.771244733e-07
5.693341299e-07
4.873326601e-07
4.329158154e-07
4.048516649e-07
3.915796688e-07
3.883295989e-07
3.925214894e-07
4.026263663e-07
4.192005683e-07
4.435922947e-07
4.787882506e-07
5.293710478e-07
6.018225546e-07
7.051689977e-07
8.522280332e-07
1.061940514e-06
1.364681255e-06
1.810929613e-06
2.497574081e-06
3.61960117e-06
5.586337524e-06
9.278350418e-06
1.661754595e-05
3.183489826e-05
6.432747435e-05
0.0001351953797
0.0002923449995
0.0006456238426
0.001001781166
0.001001249406
0.00100047859
0.0009994078302
0.0009989406483
0.0009987514223
0.0009986849198
0.0009986712904
0.0009986803623
0.000998700206
0.0009987273675
0.0009987627163
0.0009988098291
0.0009988753606
0.0009989712181
0.0009991167655
0.0009993654727
0.00045142122
0.001369074637
0.001846911434
0.001547326603
0.0008919537186
0.0004106750156
0.0001939833607
1.826298345e-05
1.146996954e-06
7.953571551e-07
6.896639892e-07
6.316198039e-07
5.889493592e-07
5.697035807e-07
5.829621942e-07
4.890855419e-07
4.187781701e-07
3.734558827e-07
3.515058571e-07
3.423840403e-07
3.418810813e-07
3.47594431e-07
3.591991135e-07
3.770297583e-07
4.030229455e-07
4.404708877e-07
4.941106213e-07
5.705039555e-07
6.787707908e-07
8.318808094e-07
1.048965503e-06
1.360400096e-06
1.816702937e-06
2.514429312e-06
3.649021453e-06
5.632231739e-06
9.349994305e-06
1.673247673e-05
3.201812946e-05
6.459468931e-05
0.0001354818339
0.0002922692826
0.0006437790617
0.001001766893
0.001001206215
0.001000414383
0.00099939032
0.0009989425988
0.000998759735
0.0009986947011
0.0009986809669
0.0009986896174
0.000998709137
0.0009987361596
0.0009987715221
0.0009988187327
0.0009988843897
0.0009989803969
0.0009991262753
0.0009993765382
0.0004396998585
0.001311527882
0.001661328526
0.001279878279
0.0006381326562
0.0003126077502
0.0001269339559
1.213064077e-05
9.355320088e-07
6.748526351e-07
5.901229831e-07
5.409826339e-07
5.055751381e-07
4.888126606e-07
4.99442271e-07
4.183487815e-07
3.588864297e-07
3.220949791e-07
3.058140607e-07
3.005174082e-07
3.023133714e-07
3.100704551e-07
3.232002664e-07
3.426794119e-07
3.707930858e-07
4.110490457e-07
4.683144826e-07
5.492599485e-07
6.631725403e-07
8.232955654e-07
1.049125017e-06
1.371320633e-06
1.84084818e-06
2.554748894e-06
3.71056145e-06
5.726051433e-06
9.500375117e-06
1.698910097e-05
3.247592203e-05
6.542374566e-05
0.0001369633757
0.0002948065636
0.0006477613236
0.001001754469
0.001001164873
0.001000346449
0.0009993713456
0.0009989438567
0.0009987677661
0.0009987043786
0.0009986905946
0.000998698827
0.0009987180141
0.0009987448986
0.000998780296
0.0009988276522
0.0009988935082
0.0009989897577
0.0009991360211
0.000999387643
0.00042619968
0.001248121909
0.001470376001
0.001016256557
0.0004747638129
0.0002433106505
6.037472026e-05
6.613724764e-06
7.569774354e-07
5.738947527e-07
5.052461454e-07
4.634341176e-07
4.338495273e-07
4.193958805e-07
4.26019571e-07
3.566669534e-07
3.072484098e-07
2.783844383e-07
2.672688314e-07
2.651447458e-07
2.695370197e-07
2.790536721e-07
2.937997905e-07
3.152064871e-07
3.458041714e-07
3.89247541e-07
4.505283359e-07
5.364693062e-07
6.565915058e-07
8.245067481e-07
1.06021605e-06
1.394899947e-06
1.880317513e-06
2.614713561e-06
3.799172933e-06
5.860650179e-06
9.71847574e-06
1.73687772e-05
3.317386653e-05
6.674642974e-05
0.0001394973322
0.0002996466952
0.0006568780462
0.001001742247
0.001001124519
0.001000274428
0.0009993515522
0.000998944582
0.0009987755043
0.0009987138987
0.000998700125
0.0009987079605
0.0009987268242
0.0009987535843
0.0009987890455
0.0009988365976
0.000998902726
0.0009989993065
0.0009991460053
0.0009993987924
0.0004106646433
0.001176735451
0.00127390957
0.0007620975938
0.0003634976156
0.0001870079944
3.026504712e-05
3.314026266e-06
6.123896889e-07
4.885204766e-07
4.326724106e-07
3.972726869e-07
3.726275757e-07
3.604476916e-07
3.626488181e-07
3.038871717e-07
2.635526828e-07
2.417992073e-07
2.3516523e-07
2.359650057e-07
2.424970113e-07
2.536571646e-07
2.701179412e-07
2.936600271e-07
3.269987862e-07
3.73897824e-07
4.394713144e-07
5.307366358e-07
6.575111747e-07
8.338496433e-07
1.080371969e-06
1.428978769e-06
1.932523063e-06
2.691091938e-06
3.910622305e-06
6.030118979e-06
9.99534096e-06
1.785660172e-05
3.408482396e-05
6.850946993e-05
0.0001429729999
0.0003065499104
0.0006705946519
0.001001728965
0.001001084472
0.00100020227
0.0009993314745
0.0009989449197
0.0009987829502
0.0009987232232
0.0009987095215
0.0009987169947
0.0009987355581
0.0009987622184
0.000998797779
0.0009988455795
0.0009989120528
0.000999009047
0.000999156229
0.0009994099897
0.0003935542621
0.001096546982
0.001076514183
0.0005636354362
0.0002827371666
0.0001394261892
1.834304201e-05
1.820820806e-06
5.020109336e-07
4.161125455e-07
3.717190943e-07
3.415635681e-07
3.208847208e-07
3.106522586e-07
3.084215473e-07
2.59078852e-07
2.268902874e-07
2.114195206e-07
2.08259933e-07
2.119289852e-07
2.202568028e-07
2.330299838e-07
2.513302092e-07
2.771812905e-07
3.134446806e-07
3.639849212e-07
4.340467918e-07
5.308771984e-07
6.646467198e-07
8.499135238e-07
1.108077067e-06
1.471725566e-06
1.995277945e-06
2.781175173e-06
4.041409093e-06
6.229668027e-06
1.032388214e-05
1.844105577e-05
3.518824843e-05
7.067317361e-05
0.0001473088028
0.0003153407302
0.000688521307
0.001001713685
0.00100104393
0.001000131887
0.0009993115316
0.0009989449936
0.0009987901122
0.0009987323268
0.000998718758
0.0009987259134
0.0009987442107
0.0009987708047
0.0009988065055
0.0009988546083
0.0009989214979
0.0009990189823
0.0009991666923
0.0009994212367
0.000376062174
0.001010642021
0.0008663710029
0.0004294719949
0.0002280417301
0.000100763042
1.280182273e-05
1.051505725e-06
4.153652644e-07
3.543350679e-07
3.18959712e-07
2.937501686e-07
2.763050428e-07
2.678450173e-07
2.617179604e-07
2.209828033e-07
1.962277781e-07
1.863049445e-07
1.863942956e-07
1.921762709e-07
2.020840732e-07
2.164786927e-07
2.367379636e-07
2.650406131e-07
3.043505564e-07
3.58641855e-07
4.33318047e-07
5.358825771e-07
6.769039685e-07
8.714951505e-07
1.14182715e-06
1.521579578e-06
2.066727198e-06
2.882684364e-06
4.188627211e-06
6.455396567e-06
1.069846264e-05
1.911320762e-05
3.646856897e-05
7.32080087e-05
0.0001524448489
0.0003258914055
0.0007103755243
0.00100169576
0.001001002146
0.001000064044
0.0009992920397
0.0009989449059
0.0009987970037
0.0009987411946
0.0009987278173
0.0009987347064
0.0009987527803
0.0009987793482
0.0009988152344
0.0009988636947
0.0009989310703
0.0009990291154
0.0009991773939
0.0009994325333
0.000358883694
0.0009174262534
0.000696897322
0.0003490274476
0.0001915031295
5.601388973e-05
8.180649567e-06
6.579608417e-07
3.459669877e-07
3.010085886e-07
2.725779518e-07
2.519340442e-07
2.376523192e-07
2.309518034e-07
2.217622196e-07
1.889205471e-07
1.708842656e-07
1.654032026e-07
1.685179671e-07
1.76023413e-07
1.874062358e-07
2.034570218e-07
2.257638322e-07
2.56608718e-07
2.990268637e-07
3.571150232e-07
4.364734774e-07
5.448838241e-07
6.933418413e-07
8.975606338e-07
1.180553802e-06
1.577211286e-06
2.145303322e-06
2.993714796e-06
4.349885776e-06
6.704166375e-06
1.11146757e-05
1.98662935e-05
3.791435214e-05
7.609285203e-05
0.0001583391397
0.0003381135111
0.0007359632078
0.001001674777
0.001000958494
0.0009999992426
0.0009992732256
0.0009989447388
0.0009988036417
0.0009987498206
0.0009987366902
0.0009987433691
0.0009987612684
0.0009987878557
0.0009988239754
0.0009988728491
0.000998940778
0.0009990394495
0.0009991883292
0.000999443878
0.0003446186648
0.0008163328397
0.0005619451241
0.0002908663599
0.0001598827367
3.097484682e-05
3.913195633e-06
4.500541552e-07
2.905428696e-07
2.561021987e-07
2.331594794e-07
2.160605323e-07
2.045929376e-07
1.995268911e-07
1.880312588e-07
1.622986273e-07
1.502005654e-07
1.487249212e-07
1.539538626e-07
1.629294763e-07
1.757525771e-07
1.935040495e-07
2.179112309e-07
2.513215707e-07
2.96856181e-07
3.587450917e-07
4.428104818e-07
5.571322593e-07
7.131521284e-07
9.272310362e-07
1.223270087e-06
1.63749768e-06
2.229694796e-06
3.112691896e-06
4.5232419e-06
6.973490648e-06
1.156914706e-05
2.069534402e-05
3.951755497e-05
7.931342666e-05
0.0001649641849
0.0003519504128
0.000765161574
0.001001650504
0.001000912467
0.0009999377781
0.0009992552438
0.0009989445565
0.0009988100449
0.0009987582054
0.0009987453738
0.0009987519008
0.0009987696787
0.0009987963348
0.0009988327382
0.0009988820813
0.0009989506282
0.0009990499869
0.0009991994906
0.0009994552675
0.0003363763193
0.0007109369238
0.0004617950614
0.0002424273589
0.0001295479162
1.848566272e-05
1.880169657e-06
3.28805652e-07
2.454709327e-07
2.183146704e-07
1.9960932e-07
1.854007363e-07
1.760593916e-07
1.726188676e-07
1.596921899e-07
1.404248445e-07
1.332241495e-07
1.35279939e-07
1.421727806e-07
1.524701116e-07
1.667198831e-07
1.861932089e-07
2.127088291e-07
2.48657974e-07
2.97282325e-07
3.629526909e-07
4.517186417e-07
5.719795415e-07
7.356399144e-07
9.597358094e-07
1.269141338e-06
1.701499468e-06
2.318817812e-06
3.238332994e-06
4.707144561e-06
7.261444316e-06
1.205937967e-05
2.159689528e-05
4.127295287e-05
8.286110978e-05
0.0001723044242
0.0003673715452
0.0007979062374
0.001001622842
0.001000863669
0.0009998797908
0.0009992381911
0.0009989444085
0.0009988162328
0.0009987663549
0.0009987538701
0.0009987603047
0.0009987780171
0.0009988047937
0.0009988415327
0.0009988914005
0.0009989606271
0.0009990607287
0.0009992108702
0.0009994666976
0.0003370330414
0.0006065536953
0.0003739599305
0.000207064118
0.0001021137319
1.215580764e-05
9.168868208e-07
2.542389905e-07
2.076412132e-07
1.858632018e-07
1.706065079e-07
1.589296974e-07
1.514923286e-07
1.495237727e-07
1.361973167e-07
1.228152214e-07
1.200573461e-07
1.245282318e-07
1.327564987e-07
1.44279254e-07
1.599381504e-07
1.811228768e-07
2.097112962e-07
2.481571837e-07
2.998254619e-07
3.692397361e-07
4.626756537e-07
5.888720417e-07
7.602132302e-07
9.944480905e-07
1.317473502e-06
1.768444413e-06
2.411792248e-06
3.369612705e-06
4.900383676e-06
7.566585563e-06
1.258362448e-05
2.256876043e-05
4.317770732e-05
8.673206549e-05
0.0001803544009
0.0003843684305
0.0008341823542
0.00100159179
0.001000811798
0.0009998253074
0.000999222121
0.0009989443318
0.0009988222251
0.0009987742788
0.0009987621848
0.0009987685865
0.0009987862906
0.0009988132413
0.0009988503682
0.0009989008153
0.0009989707809
0.0009990716759
0.0009992224598
0.0009994781628
0.000347534711
0.0005112224184
0.0003164998499
0.0001842921791
5.931942556e-05
8.338256186e-06
4.756456846e-07
2.043732993e-07
1.758166655e-07
1.582280985e-07
1.458638e-07
1.364249907e-07
1.306993895e-07
1.300893284e-07
1.171803256e-07
1.090028748e-07
1.09801129e-07
1.159904669e-07
1.253278274e-07
1.380092623e-07
1.550528726e-07
1.779158897e-07
2.08523282e-07
2.494199014e-07
3.040720318e-07
3.771741127e-07
4.752313149e-07
6.073374066e-07
7.863763543e-07
1.030840434e-06
1.367699899e-06
1.837711745e-06
2.507921897e-06
3.505736229e-06
5.102051635e-06
7.887895748e-06
1.314077839e-05
2.360984094e-05
4.52309909e-05
9.092645594e-05
0.0001891170436
0.0004029508494
0.0008740161967
0.001001557415
0.001000756631
0.0009997742752
0.0009992070545
0.0009989443541
0.0009988280412
0.000998781989
0.0009987703265
0.0009987767538
0.0009987945074
0.0009988216864
0.0009988592537
0.0009989103334
0.0009989810951
0.0009990828295
0.000999234249
0.0009994896572
0.0003654340598
0.0004742243042
0.0002762072919
0.0001658136403
3.170427697e-05
3.447364759e-06
2.761188664e-07
1.68986413e-07
1.495953246e-07
1.352521864e-07
1.252163611e-07
1.176511317e-07
1.134647358e-07
1.13878451e-07
1.021231348e-07
9.824024016e-08
1.018098288e-07
1.09232364e-07
1.195499724e-07
1.333508753e-07
1.517501945e-07
1.762472793e-07
2.088183781e-07
2.521040992e-07
3.096685486e-07
3.863873241e-07
4.890052859e-07
6.269820313e-07
8.137213564e-07
1.06848691e-06
1.419370441e-06
1.908816684e-06
2.606673158e-06
3.646110467e-06
5.311503688e-06
8.224722532e-06
1.373029638e-05
2.471997926e-05
4.743371868e-05
9.544791691e-05
0.000198602576
0.0004231444823
0.000917469947
0.001001519832
0.001000697996
0.0009997265888
0.0009991929899
0.0009989444954
0.0009988337
0.0009987894995
0.0009987783055
0.0009987848156
0.0009988026762
0.0009988301378
0.0009988681975
0.0009989199617
0.0009989915743
0.0009990941884
0.0009992462232
0.0009995011737
0.0003869142529
0.0004126213218
0.0002476858366
0.0001470751853
1.71803814e-05
1.316267183e-06
1.85474683e-07
1.422804128e-07
1.279806586e-07
1.161738037e-07
1.079750209e-07
1.020303273e-07
9.913739327e-08
9.963601518e-08
9.039989797e-08
9.016758168e-08
9.55325366e-08
1.039071743e-07
1.151454638e-07
1.300409487e-07
1.497597279e-07
1.758395546e-07
2.103137556e-07
2.559111031e-07
3.163094868e-07
3.965666286e-07
5.036789344e-07
6.474813711e-07
8.419167578e-07
1.107046747e-06
1.472130606e-06
1.981383528e-06
2.707640567e-06
3.790299437e-06
5.528298428e-06
8.576696351e-06
1.435206545e-05
2.589975231e-05
4.978818253e-05
0.0001003028651
0.0002088271348
0.0004449879918
0.0009646345247
0.001001479187
0.001000635761
0.0009996821103
0.0009991799097
0.00099894477
0.000998839219
0.0009987968248
0.0009987861332
0.0009987927814
0.000998810806
0.0009988386042
0.0009988772073
0.0009989297063
0.000999002221
0.0009991057462
0.0009992583659
0.000999512703
0.0004128972599
0.0003787235941
0.000234083693
0.0001264075232
9.991422811e-06
4.735141031e-07
1.42372826e-07
1.209360091e-07
1.098082453e-07
1.000706716e-07
9.347819515e-08
8.892300146e-08
8.705831175e-08
8.639041915e-08
8.143870245e-08
8.401580652e-08
9.057858105e-08
9.976534849e-08
1.11893575e-07
1.278542224e-07
1.488459541e-07
1.764487088e-07
2.127561197e-07
2.605840086e-07
3.237352527e-07
4.074520246e-07
5.189919426e-07
6.685753111e-07
8.707024003e-07
1.146258368e-06
1.525714594e-06
2.055137732e-06
2.810537425e-06
3.938012594e-06
5.752182225e-06
8.943707512e-06
1.500636681e-05
2.715040112e-05
5.229790671e-05
0.0001055001798
0.000219812041
0.0004685312949
0.001002134151
0.001001435652
0.001000569805
0.0009996406834
0.0009991677856
0.0009989451876
0.0009988446151
0.0009988039799
0.0009987938219
0.0009988006614
0.0009988189055
0.0009988470933
0.0009988862897
0.000998939572
0.0009990130366
0.0009991174926
0.0009992706688
0.0009995242331
0.0004405269846
0.0003652127897
0.0002291692795
8.496184766e-05
4.943715948e-06
1.926995814e-07
1.17538341e-07
1.032207094e-07
9.432899892e-08
8.655315796e-08
8.118549454e-08
7.780158846e-08
7.693821959e-08
7.603102306e-08
7.472705816e-08
7.923332791e-08
8.668846635e-08
9.661750064e-08
1.096056472e-07
1.265903493e-07
1.487995594e-07
1.778597635e-07
2.159267005e-07
2.659059411e-07
3.317308201e-07
4.188324321e-07
5.34737935e-07
6.900630829e-07
8.998833521e-07
1.185932264e-06
1.57993697e-06
2.129895996e-06
2.915183683e-06
4.089089355e-06
5.983068391e-06
9.325875627e-06
1.569382643e-05
2.847374149e-05
5.496746946e-05
0.0001110508247
0.000231582962
0.0004938337061
0.001002105865
0.001001389419
0.001000499998
0.0009996021437
0.0009991565833
0.0009989457548
0.0009988499038
0.0009988109794
0.0009988013835
0.0009988084654
0.0009988269832
0.0009988556125
0.0009988954505
0.0009989495625
0.0009990240206
0.000999129418
0.0009992831321
0.0009995357501
0.0004845968585
0.0003671130913
0.0002291472116
4.133291842e-05
1.334406586e-06
1.191639852e-07
9.970059982e-08
8.866032137e-08
8.144727242e-08
7.505824404e-08
7.079628672e-08
6.852219334e-08
6.862559286e-08
6.821195864e-08
6.976699237e-08
7.553627515e-08
8.367951298e-08
9.430508198e-08
1.081146756e-07
1.260732768e-07
1.494401937e-07
1.798903759e-07
2.196439361e-07
2.716981213e-07
3.401214537e-07
4.305383664e-07
5.507537701e-07
7.117886882e-07
9.293107676e-07
1.225926658e-06
1.634662316e-06
2.205528859e-06
3.02145987e-06
4.243441832e-06
6.220963827e-06
9.723450841e-06
1.641527234e-05
2.987194147e-05
5.78021326e-05
0.0001169671928
0.0002441686993
0.0005209616022
0.001002074108
0.001001340703
0.001000426185
0.0009995663262
0.0009991462645
0.0009989464754
0.000998855099
0.0009988178377
0.0009988088301
0.0009988162031
0.0009988350471
0.0009988641684
0.0009989046942
0.0009989596802
0.0009990351709
0.000999141513
0.000999295749
0.0009995472405
0.000525852142
0.0003608814645
0.0002236230207
1.934325226e-05
3.206004521e-07
9.605800361e-08
8.570372273e-08
7.667444683e-08
7.064015198e-08
6.542444408e-08
6.217373168e-08
6.093980844e-08
6.195106599e-08
6.250790102e-08
6.608743049e-08
7.267378931e-08
8.140110343e-08
9.268320165e-08
1.07269456e-07
1.26147792e-07
1.506129451e-07
1.823867632e-07
2.237570581e-07
2.77814614e-07
3.487674214e-07
4.424372307e-07
5.669148841e-07
7.336363646e-07
9.588775913e-07
1.266143387e-06
1.689801287e-06
2.28195672e-06
3.129302638e-06
4.401048973e-06
6.465960038e-06
1.013679833e-05
1.717170464e-05
3.134745878e-05
6.080770124e-05
0.000123262782
0.0002576004284
0.0005499867029
0.001002039094
0.001001289742
0.001000348158
0.0009995330694
0.0009991367892
0.000998947351
0.0009988602138
0.000998824568
0.0009988161728
0.0009988238837
0.0009988431045
0.0009988727663
0.0009989140242
0.0009989699264
0.0009990464838
0.0009991537676
0.0009993085065
0.0009995586902
0.0005648608766
0.0003505139318
0.0002099118671
9.613139856e-06
1.2581359e-07
8.213708863e-08
7.414184827e-08
6.672974713e-08
6.16369459e-08
5.741673269e-08
5.510899993e-08
5.485419269e-08
5.669758581e-08
5.842494316e-08
6.331003155e-08
7.04680466e-08
7.972317911e-08
9.162160342e-08
1.069374604e-07
1.266819192e-07
1.521878684e-07
1.852228331e-07
2.28144868e-07
2.841410654e-07
3.575626021e-07
4.544327871e-07
5.831354822e-07
7.55531794e-07
9.885215327e-07
1.306533067e-06
1.745318569e-06
2.359160928e-06
3.238719564e-06
4.561975533e-06
6.718256919e-06
1.05664277e-05
1.796433098e-05
3.29030779e-05
6.399054407e-05
0.0001299521383
0.0002719113933
0.0005809850223
0.001002001025
0.001001236814
0.001000268767
0.0009995022176
0.000999128117
0.0009989483817
0.0009988652594
0.000998831183
0.0009988234224
0.0009988315154
0.0009988511616
0.0009988814106
0.0009989234426
0.0009989803006
0.0009990579536
0.0009991661705
0.00099932139
0.0009995700821
0.0005833227686
0.0003395186269
0.0001859038922
5.635982283e-06
9.369680625e-08
7.096707092e-08
6.455363508e-08
5.843034792e-08
5.411866862e-08
5.078608262e-08
4.939091259e-08
5.00524729e-08
5.26320212e-08
5.549038986e-08
6.117930445e-08
6.879041952e-08
7.853366147e-08
9.100811948e-08
1.070069298e-07
1.275665311e-07
1.54057947e-07
1.882960523e-07
2.327099176e-07
2.905868604e-07
3.664238241e-07
4.664507038e-07
5.993502077e-07
7.774190611e-07
1.0181967e-06
1.34706043e-06
1.801190575e-06
2.437132237e-06
3.349725896e-06
4.726293126e-06
6.978060438e-06
1.101285217e-05
1.879435802e-05
3.454157735e-05
6.735702612e-05
0.0001370498399
0.0002871350067
0.0006140331805
0.001001960088
0.001001182117
0.001000195032
0.0009994736235
0.0009991202076
0.0009989495664
0.0009988702459
0.000998837694
0.0009988305885
0.0009988391058
0.0009988592241
0.0009988901048
0.0009989329502
0.0009989908009
0.0009990695724
0.0009991787088
0.0009993343839
0.0009995813972
0.0005706425497
0.0003341992892
0.0001535358458
2.179607389e-06
7.642809392e-08
6.179094518e-08
5.655549375e-08
5.146914636e-08
4.783465757e-08
4.53355077e-08
4.483333579e-08
4.632235783e-08
4.952236208e-08
5.332917673e-08
5.953250026e-08
6.753792216e-08
7.773449524e-08
9.074588106e-08
1.073837787e-07
1.287116418e-07
1.561370401e-07
1.915261992e-07
2.373790783e-07
2.970870342e-07
3.752948258e-07
4.784440466e-07
6.15521983e-07
7.992710737e-07
1.047886718e-06
1.387720475e-06
1.857424955e-06
2.515894111e-06
3.462371981e-06
4.894112158e-06
7.245619789e-06
1.147663206e-05
1.966304046e-05
3.626577807e-05
7.091353038e-05
0.0001445704067
0.0003033044253
0.000649207047
0.001001916462
0.001001125585
0.001000126571
0.0009994471478
0.0009991130219
0.0009989509025
0.0009988751822
0.0009988441113
0.0009988376799
0.0009988466614
0.0009988672961
0.0009988988506
0.0009989425465
0.0009990014241
0.0009990813307
0.0009991913684
0.0009993474703
0.0009995926157
0.0005542588778
0.0003316788323
8.210207518e-05
7.366514635e-07
6.485611401e-08
5.426066101e-08
4.990037624e-08
4.564594484e-08
4.261733071e-08
4.092318892e-08
4.126876294e-08
4.346182919e-08
4.699233076e-08
5.169277627e-08
5.826491687e-08
6.662770252e-08
7.724438491e-08
9.075527939e-08
1.079914303e-07
1.300441203e-07
1.583561342e-07
1.948495139e-07
2.420950961e-07
3.035909038e-07
3.841322223e-07
4.903764263e-07
6.316219712e-07
8.210664378e-07
1.077577881e-06
1.428507456e-06
1.914024578e-06
2.595460521e-06
3.576693104e-06
5.065520251e-06
7.521147121e-06
1.195826113e-05
2.057150571e-05
3.807824838e-05
7.466592857e-05
0.0001525273031
0.0003204505922
0.0006865777726
0.001001870331
0.001001067147
0.001000063028
0.0009994226603
0.000999106522
0.0009989523868
0.0009988800757
0.000998850444
0.0009988447044
0.0009988541878
0.0009988753811
0.0009989076489
0.0009989522292
0.0009990121648
0.0009990932163
0.0009992041334
0.0009993606296
0.0009996037175
0.0005336241296
0.0003264507702
4.485605383e-05
2.766345436e-07
5.629301526e-08
4.805966695e-08
4.434983266e-08
4.077118935e-08
3.831600794e-08
3.741130297e-08
3.852053653e-08
4.127787413e-08
4.518276345e-08
5.042809943e-08
5.729842548e-08
6.598881792e-08
7.699416306e-08
9.096985682e-08
1.087669639e-07
1.315044969e-07
1.6066199e-07
1.982187312e-07
2.468176631e-07
3.100648607e-07
3.9291005e-07
5.022292799e-07
6.476392768e-07
8.428022197e-07
1.107275388e-06
1.46943522e-06
1.971012688e-06
2.675866784e-06
3.69274691e-06
5.240627177e-06
7.804871522e-06
1.245823178e-05
2.152083084e-05
3.998138575e-05
7.861962923e-05
0.0001609328279
0.0003386016052
0.0007262097016
0.00100182188
0.001001006704
0.001000004077
0.0009994000386
0.0009991006709
0.0009989540153
0.0009988849326
0.0009988567001
0.0009988516684
0.0009988616893
0.0009988834811
0.0009989164989
0.000998961995