/*--------------------------------*- C++ -*----------------------------------*\
  =========                 |
  \\      /  F ield         | OpenFOAM: The Open Source CFD Toolbox
   \\    /   O peration     | Website:  https://openfoam.org
    \\  /    A nd           | Version:  12
     \\/     M anipulation  |
\*---------------------------------------------------------------------------*/
FoamFile
{
    format      ascii;
    class       volScalarField;
    location    "550";
    object      omega;
}
// * * * * * * * * * * * * * * * * * * * * * * * * * * * * * * * * * * * * * //

dimensions      [0 0 -1 0 0 0 0];

internalField   nonuniform List<scalar> 
16200
(
708816.4663
280159.9601
158376.0996
109570.5475
85140.84136
69295.80035
54741.41111
33708.28725
8028.110777
801.4594435
317.4926964
198.8862927
128.8849032
86.49449762
61.91136708
46.34374808
34.82784956
26.40511554
20.29361989
15.72555786
12.275882
9.666835267
7.685986365
6.173296767
5.00991032
4.107511211
3.401622506
2.845447399
2.405292666
2.057401312
1.784560251
1.572782972
1.409291795
1.283127413
1.186684323
1.115091993
1.06460738
1.0313001
1.010831063
0.9990613263
0.9926968762
0.9894880764
0.9880708929
0.9876644703
0.9872282533
0.986362502
0.9853688227
0.9849422926
0.9847705543
0.9847170027
0.9847282087
0.9847901184
0.984909279
0.9851060745
0.9854138971
0.9858831894
0.9865887586
0.987649175
0.9892603656
0.9918113289
743358.6052
294801.9217
166651.3417
115428.6539
89604.19028
72004.39202
54495.17798
27310.83767
4251.160841
604.0255914
321.1648153
202.788074
131.4041558
87.96545294
62.6074982
46.79117091
35.07273484
26.50503609
20.31793543
15.70920151
12.23740962
9.61888733
7.6362708
6.126099251
4.967481832
4.070779043
3.370725559
2.820037171
2.384668401
2.040746831
1.771254655
1.562582375
1.402113051
1.278646849
1.184285583
1.114044857
1.064285854
1.03128868
1.010910443
0.9991392354
0.9927439799
0.9894984205
0.9880386851
0.987608695
0.9872148441
0.9864358359
0.9854369758
0.9850112835
0.9848442135
0.9847971381
0.9848153357
0.9848838517
0.9850084984
0.9852089069
0.9855178115
0.9859849585
0.9866854018
0.9877393379
0.9893506802
0.9919391164
776459.1941
309139.6251
174848.1698
121277.1921
93793.81675
74190.50376
52439.3322
19761.30448
2233.570964
548.074901
326.1136967
206.2594622
133.611183
89.23735843
63.18592864
47.14294945
35.24053802
26.54265299
20.29171672
15.65293613
12.16785418
9.546870595
7.567870228
6.064236719
4.913375924
4.024615768
3.332139846
2.788362825
2.358998205
2.020087905
1.754790618
1.54988253
1.392970782
1.272668459
1.180804675
1.112272435
1.063521947
1.031037398
1.010879453
0.9991805276
0.992792022
0.9895274696
0.9880381576
0.9875731126
0.9872045067
0.9864988553
0.9855017646
0.9850786243
0.9849160584
0.9848747701
0.9848992886
0.9849739765
0.9851039953
0.9853082843
0.9856189157
0.9860849848
0.9867816039
0.9878304042
0.9894422661
0.9920651899
807399.0367
322719.224
182833.4673
127040.5334
97433.86005
75910.23625
47794.78962
12483.17971
1342.581505
535.5968217
330.0104182
208.9707855
135.3339084
90.21774668
63.60142551
47.36855644
35.3108446
26.50400319
20.20590853
15.55031065
12.06251059
9.447195083
7.477888821
5.985252567
4.845439001
3.967115116
3.284195278
2.749001132
2.327125505
1.99454805
1.734558541
1.534290796
1.38161954
1.265030551
1.176121434
1.10967522
1.062229887
1.030473453
1.010678511
0.9991381934
0.9928047774
0.9895469253
0.9880413809
0.9875470488
0.9871906899
0.9865394895
0.9855560114
0.9851399686
0.9849834272
0.9849482769
0.9849791067
0.9850599562
0.9851955021
0.9854040939
0.9857171843
0.9861832667
0.9868774125
0.9879224829
0.9895354974
0.9921903917
836060.7759
335622.5537
190510.0569
132613.2591
100816.4655
75810.10952
39225.28506
6927.892029
1024.912565
535.4912138
332.8447295
210.9482957
136.5771697
90.90050707
63.85247531
47.46451431
35.28005455
26.38613857
20.05881449
15.40012191
11.92054321
9.319225302
7.365782813
5.888668857
4.763279007
3.898006107
3.226769083
2.701988689
2.289241645
1.964451944
1.710975372
1.516257305
1.368482415
1.256087214
1.170504607
1.106440824
1.060531322
1.029670701
1.010350068
0.9990356397
0.9927947642
0.989563297
0.988051748
0.9875325758
0.9871775538
0.9865652673
0.9856034219
0.9851973325
0.9850475693
0.9850185399
0.9850554774
0.9851423566
0.9852834929
0.9854967233
0.9858129229
0.9862800242
0.986972982
0.9880157065
0.9896305771
0.9923149135
862074.4102
347820.2121
197855.1142
137754.2431
103640.5689
73188.19404
30101.80447
4014.178859
929.6895507
537.3367079
334.4746284
212.1265231
137.299924
91.25769699
63.92469737
47.41936227
35.1396096
26.18331848
19.846618
15.19958007
11.7398265
9.161257076
7.230158544
5.773378555
4.666074631
3.816751828
3.159596801
2.647304637
2.245521635
1.930107995
1.684415084
1.496156571
1.353883515
1.246084839
1.1641198
1.102667478
1.058476597
1.028649836
1.00989885
0.9988703332
0.9927569472
0.9895712416
0.9880645584
0.9875271682
0.9871652442
0.9865757622
0.9856435046
0.985250408
0.9851083779
0.9850856123
0.9851285641
0.9852214072
0.9853682266
0.9855864279
0.9859063603
0.986375437
0.98706845
0.9881101918
0.9897276994
0.9924390548
885099.997
359429.6816
205005.277
142189.6259
106067.2239
67528.77485
21398.34516
2626.24051
899.0165533
537.5489864
334.8724758
212.4973677
137.4970566
91.28210951
63.81388061
47.22812022
34.88466959
25.89183985
19.5665831
14.94654882
11.51875674
8.972127844
7.070224703
5.63892018
4.553662522
3.72346613
3.083045265
2.585519175
2.196659489
1.892244145
1.655565146
1.474586215
1.338304877
1.235384391
1.157217701
1.098516571
1.056161756
1.027463319
1.009350786
0.9986534597
0.9926950134
0.9895709235
0.9880784355
0.9875292393
0.9871545997
0.9865740584
0.9856774991
0.9852997678
0.9851662156
0.9851498102
0.9851986856
0.9852974338
0.9854500253
0.9856735085
0.9859977595
0.9864697134
0.9871639696
0.988206053
0.989827008
0.99256301
904759.1102
370605.3906
212102.311
146383.0202
106651.864
57156.83047
13881.00546
2001.943134
883.9232304
536.1857134
334.1122834
212.0891938
137.1767859
90.97119028
63.51439737
46.88369638
34.50850165
25.50699115
19.21579491
14.63937074
11.25655265
8.751579617
6.886029322
5.485565782
4.426526747
3.618466334
2.997664261
2.517363535
2.143459978
1.851631117
1.62520073
1.452159569
1.322208107
1.224315579
1.150020112
1.094127636
1.053668214
1.026154647
1.008726637
0.9983933138
0.9926110356
0.9895615905
0.9880914255
0.9875366217
0.9871456262
0.9865628487
0.9857061178
0.9853456918
0.9852212666
0.9852113336
0.9852660814
0.9853707086
0.9855291758
0.9857582449
0.9860873736
0.9865630601
0.9872596946
0.9883033977
0.9899286205
0.9926869538
920792.1093
381662.1208
219022.6374
150154.9833
103695.2645
45034.99313
8842.9038
1719.792116
878.3581474
533.2281069
332.2176041
210.9051696
136.3359726
90.31921132
63.0182622
46.37881116
34.00564675
25.0262424
18.79372114
14.27860055
10.9542234
8.500698086
6.678630388
5.314408583
4.285305614
3.503363012
2.905183727
2.444514203
2.087402788
1.809462074
1.594030088
1.429483898
1.30603038
1.213184598
1.142733282
1.089632622
1.051075249
1.024768036
1.00804894
0.9981000717
0.9925086808
0.9895437217
0.9881024698
0.9875473721
0.9871380821
0.9865475581
0.9857303121
0.9853885827
0.9852737734
0.9852704064
0.9853309984
0.9854415031
0.9856059619
0.9858409155
0.9861754564
0.9866556875
0.9873557812
0.9884023295
0.9900326258
0.9928110204
933368.5843
392723.7547
225244.7526
153842.6324
96678.12585
34073.5023
5902.981533
1579.200392
870.2274923
528.5254222
329.1593638
208.9344048
134.9724965
89.32572139
62.32009005
45.70932298
33.37373629
24.4498029
18.30187426
13.86622772
10.61374228
8.221284551
6.44888853
5.126331825
4.132294464
3.380207272
2.807594824
2.368739824
2.029925943
1.766826669
1.562917914
1.407085241
1.290133065
1.20223864
1.135523071
1.085138585
1.048448231
1.023340708
1.007337173
0.9977828523
0.9923914673
0.9895180072
0.9881108527
0.9875597202
0.9871312027
0.9865279974
0.9857509216
0.9854288013
0.985323956
0.9853272345
0.9853936661
0.9855100733
0.9856806545
0.9859217892
0.9862622569
0.9867478051
0.9874523859
0.9885029473
0.9901390908
0.9929353167
942681.284
403824.989
230879.1909
156646.0744
83881.89253
24343.74958
4274.581188
1498.409873
859.9004036
522.2217007
325.0181664
206.2194154
133.1096399
88.00317854
61.41898659
44.87386865
32.61236079
23.7794666
17.74291555
13.40512553
10.23780168
7.914716557
6.199674526
4.924547617
3.970233761
3.251650531
2.707254996
2.291955305
1.972457572
1.724715704
1.532517423
1.385384238
1.274793144
1.191664265
1.128515699
1.080728892
1.04583961
1.021903561
1.006608155
0.9974499642
0.992262925
0.9894854563
0.9881162914
0.987572227
0.9871243547
0.9865040155
0.9857687421
0.985466708
0.9853720387
0.9853820229
0.9854543083
0.9855766662
0.9857535149
0.9860011269
0.986348018
0.9868396189
0.987549663
0.9886053444
0.9902480611
0.9930599223
948700.8108
414842.2375
236437.0309
154400.3876
69245.29232
16660.08457
3380.543474
1443.823459
846.0096292
514.3093028
319.8120897
202.7762143
130.7596498
86.35995996
60.31073782
43.86931407
31.7209113
23.01803761
17.12079808
12.89944866
9.828769345
7.584983002
5.934533885
4.712636118
3.802587498
3.120777718
2.606674131
2.216032117
1.916284695
1.683954975
1.503333273
1.364683722
1.260200467
1.181587441
1.121797855
1.076462803
1.043288171
1.020480356
1.005875353
0.9971083787
0.9921262274
0.9894471509
0.9881187761
0.9875837589
0.9871170305
0.9864755058
0.985784465
0.9855026357
0.9854182384
0.9854349715
0.9855131409
0.9856415188
0.9858247938
0.9860791798
0.9864329751
0.9869313305
0.987647763
0.9887096069
0.9903595641
0.9931848931
951417.2051
425487.087
242228.3323
146439.1821
55872.25634
11785.37898
2887.067372
1400.961559
828.5352363
504.9031799
313.6042245
198.6399482
127.9416895
84.4077131
58.99138034
42.69362407
30.7012051
22.17134653
16.44191444
12.35356532
9.392390324
7.236860151
5.658063957
4.495039542
3.633336307
2.990825542
2.508258589
2.14262249
1.862459759
1.645169523
1.475716914
1.345176903
1.246468477
1.172082479
1.115422728
1.072379013
1.040820853
1.019088531
1.005149161
0.9967637724
0.991984146
0.9894041766
0.9881184998
0.9875934676
0.987108848
0.9864456915
0.9857986818
0.9855368909
0.985462766
0.985486276
0.9855703735
0.9857048592
0.9858947316
0.9861561892
0.9865173552
0.9870231349
0.9877468312
0.9888158126
0.9904736102
0.9933102638
951049.2686
434798.6187
249738.8428
132353.4487
43067.23117
8661.831941
2596.011818
1361.211012
808.5090006
493.2898814
306.4368371
193.8397452
124.6763883
82.16247386
57.45992456
41.34877239
29.55964216
21.24905216
15.71486861
11.77510967
8.934938383
6.876111854
5.375824969
4.276787636
3.466567444
2.864800308
2.41404751
2.073017401
1.811745111
1.60877547
1.449877843
1.326963212
1.233648213
1.163182237
1.109416527
1.068499356
1.038454637
1.017740027
1.004437191
0.9964205663
0.9918389963
0.989357545
0.9881157756
0.9876007481
0.9870993206
0.9864162038
0.9858118816
0.9855697493
0.9855058238
0.9855361274
0.9856262087
0.9857669062
0.9859635584
0.9862323857
0.9866013759
0.9871152193
0.9878470059
0.988924031
0.9905901944
0.9934360494
948149.7234
442835.4858
251685.9501
114110.0364
32056.07624
6681.310196
2402.106056
1319.310681
786.0064814
479.7683188
298.065235
188.4299868
121.0018999
79.64983829
55.72013491
39.84106409
28.30701623
20.26405827
14.9464237
11.17230623
8.463370102
6.509482186
5.094106087
4.063000853
3.305963784
2.745125247
2.325530285
2.008078526
1.764605467
1.574997565
1.425970894
1.310068873
1.221744017
1.154889013
1.103785419
1.064832885
1.036198746
1.016442377
1.003744737
0.9960820863
0.9916926602
0.9893081623
0.9881109803
0.9876052092
0.9870879936
0.9863877729
0.9858244618
0.9856014576
0.9855476046
0.9855847105
0.9856808419
0.9858278693
0.9860314933
0.9863079892
0.9866852445
0.9872077625
0.987948418
0.9890343231
0.9907092968
0.993562247
943329.7606
447242.6068
243686.5463
98387.41863
24075.05823
5447.270146
2265.195958
1277.622558
761.9333568
465.0297933
288.6382306
182.3568727
116.9525062
76.89027403
53.77282683
38.17704335
26.95663888
19.23132233
14.1494105
10.5538806
7.985640493
6.144641199
4.819320988
3.858200627
3.15435831
2.633440387
2.243592681
1.948249305
1.721239067
1.543897105
1.403922799
1.294466951
1.210727678
1.147184037
1.098521544
1.061379433
1.034056611
1.015199698
1.00307523
0.995750735
0.9915466249
0.9892568138
0.988104512
0.987606633
0.9870744956
0.9863609159
0.9858367393
0.9856322345
0.985588291
0.9856322041
0.9857344612
0.9858879487
0.986098745
0.9863832085
0.9867691579
0.9873009334
0.988051189
0.9891467411
0.9908308817
0.9936888369
937496.8439
445779.6278
227029.5878
82354.65247
18250.67892
4673.80003
2159.707435
1235.527102
736.4193471
449.1532028
278.3987664
175.591189
112.5008354
73.90024438
51.61956628
36.3676229
25.52669585
18.15992266
13.33547661
9.929408124
7.511067178
5.789685589
4.55712266
3.665753042
3.013556742
2.53061449
2.168588441
1.893628949
1.681635431
1.515421658
1.38366855
1.280095417
1.200550477
1.140035392
1.093608062
1.058132674
1.032027606
1.014013607
1.002430681
0.9954281762
0.991402041
0.9892041649
0.9880967622
0.9876049336
0.9870585399
0.986335981
0.9858489647
0.9856622742
0.9856280551
0.9856787791
0.9857872464
0.9859473347
0.9861655107
0.9864582404
0.9868533012
0.9873948902
0.9881554301
0.9892613264
0.9909548977
0.9938157838
931988.7849
437354.4015
202373.0675
65930.65294
13980.25005
4147.028581
2063.45418
1191.493736
709.1754815
432.0812179
267.3623082
168.2874947
107.6190434
70.7021427
49.26706263
34.43006861
24.03995639
17.07411757
12.51630488
9.309656643
7.049786666
5.451880367
4.31161022
3.487676045
2.884412028
2.436884758
2.100466879
1.844066837
1.645636654
1.489468901
1.365101368
1.266870953
1.191151985
1.133403721
1.089022815
1.055082375
1.030108365
1.012883938
1.00181203
0.995115491
0.9912597763
0.9891507682
0.9880880997
0.9876001221
0.9870399167
0.9863131865
0.9858613342
0.9856917485
0.9856670587
0.9857245992
0.9858393688
0.9860062077
0.9862319769
0.9865332703
0.9869378481
0.9874897797
0.9882612416
0.9893781085
0.9910812806
0.9939430379
927822.7719
422502.4565
177121.4423
52239.38736
10988.5422
3779.877955
1971.614661
1145.819228
680.6747556
414.0975841
255.6937539
160.5439632
102.4395557
67.30385041
46.72748965
32.3889394
22.51014394
15.99326532
11.70450681
8.706963894
6.611378182
5.136502578
4.085151962
3.324837567
2.767055862
2.352047963
2.0389136
1.799257399
1.613008475
1.465818861
1.34809186
1.254700194
1.182466984
1.127246665
1.084741204
1.052216216
1.028293863
1.011809344
1.001219466
0.9948133248
0.9911204728
0.9890970765
0.9880788639
0.9875922788
0.987018483
0.9862926549
0.9858740018
0.9857208104
0.9857054531
0.9857698193
0.985890991
0.986064738
0.9862983184
0.9866084715
0.9870229597
0.9875857366
0.9883687123
0.9894971055
0.9912099535
0.9940705363
924568.4795
402741.9101
159092.0833
41496.80367
8924.84257
3512.51186
1884.53432
1097.527553
651.1536724
395.330001
243.4644807
152.4083511
96.99954035
63.75981406
44.01934251
30.27762786
20.97752354
14.92664128
10.91408551
8.1337488
6.202908774
4.846425997
3.878632059
3.177242349
2.661114345
2.275613781
1.983456564
1.758808736
1.583439658
1.444268969
1.332500547
1.243486591
1.174429514
1.12152145
1.080737894
1.049520901
1.02657812
1.010787713
1.000652645
0.9945219942
0.9909845909
0.9890434538
0.9880693635
0.9875815301
0.9869941476
0.9862744398
0.985887088
0.9857495965
0.9857433798
0.9858145862
0.9859422664
0.9861230856
0.986364699
0.986684005
0.9871087849
0.987682883
0.9884779188
0.9896183229
0.9913408251
0.9941982036
920279.9178
380067.8445
142647.3684
32807.85684
7491.601933
3301.984714
1799.683265
1048.054207
620.7299892
375.8694434
230.7516532
143.9472801
91.41885742
60.09152825
41.17991302
28.14158662
19.47491701
13.88839011
10.16040314
7.600057668
5.828238204
4.582632993
3.691926275
3.044335615
2.565908648
2.206937401
1.933553076
1.722302144
1.556627829
1.424612285
1.318188511
1.23313623
1.166976274
1.116187044
1.076988274
1.046983134
1.02495481
1.009816528
1.000110892
0.9942415884
0.9908524538
0.9889901891
0.9880598806
0.9875680339
0.9869668568
0.9862585468
0.9859006881
0.9857782291
0.9857809704
0.9858590377
0.9859933392
0.9861814002
0.9864312707
0.9867600197
0.9871954593
0.9877813278
0.988588924
0.9897417519
0.9914737884
0.994325953
915149.2819
351777.7177
123609.3943
25568.84252
6468.467815
3115.770108
1715.798791
997.5873346
589.6508352
355.909795
217.6993813
135.3433744
85.76845432
56.3445256
38.264428
26.01916348
18.03131255
12.895258
9.457339802
7.111537665
5.488488038
4.344784712
3.524218296
2.925192244
2.480579635
2.145299259
1.888639187
1.689314651
1.532275911
1.406647698
1.305022502
1.223560322
1.160047946
1.111205002
1.073469053
1.044590059
1.023417583
1.008893073
0.9995933233
0.9939720341
0.9907242783
0.9889375065
0.9880506774
0.9875519682
0.9869365779
0.9862449497
0.9859148778
0.9858068179
0.9858183471
0.9859033027
0.9860443439
0.9862398208
0.9864981741
0.9868366516
0.9872831054
0.9878811659
0.988701776
0.9898673655
0.9916087224
0.9944536859
907579.7268
329608.8512
106409.8733
19888.00704
5755.560402
2950.586383
1632.525193
947.0143727
558.4483616
335.7661352
204.6739499
126.7576747
80.03652374
52.53995512
35.34247889
23.97543444
16.66996197
11.96420943
8.813973552
6.669790179
5.183018295
4.131700582
3.374256156
2.818678299
2.404189506
2.08996659
1.848164811
1.659447396
1.510104611
1.390187023
1.292878594
1.214676992
1.153590147
1.10654007
1.070158716
1.042329607
1.021960306
1.008014601
0.9990989448
0.9937131509
0.9906002024
0.988885573
0.9880420042
0.987533525
0.9869032835
0.9862336021
0.9859297182
0.9858354619
0.9858556228
0.9859475013
0.9860954057
0.9862984758
0.9865655379
0.9869140241
0.9873718318
0.987982478
0.9888165077
0.9899951193
0.9917454999
0.9945812915
896321.0882
318188.8722
89580.98886
15603.71318
5272.103941
2802.263284
1549.255661
897.2499379
527.5922222
316.2361473
191.7209501
118.0935069
74.2890859
48.6605315
32.4926087
22.0596239
15.40814263
11.10934181
8.233477275
6.273802535
4.910117974
3.941669804
3.240538789
2.723570088
2.335791374
2.040231792
1.811614514
1.632332771
1.489858446
1.375058388
1.28164386
1.206411992
1.147553744
1.10216039
1.067037711
1.040190672
1.020577216
1.007178437
0.9986267225
0.9934646917
0.9904803064
0.9888345051
0.9880331315
0.9875129081
0.986866935
0.9862244456
0.9859452585
0.9858642502
0.9858929017
0.9859917444
0.9861466398
0.9863574829
0.9866334789
0.9869922475
0.9874617329
0.9880853293
0.9889331354
0.9901249545
0.9918839875
0.9947086492
880673.7938
314095.3555
72965.89634
12714.02175
4952.218727
2667.443823
1470.005073
849.9988204
498.1052322
296.6725939
178.693983
109.4371002
68.607243
44.80264448
29.7933176
20.29382734
14.25723291
10.33813732
7.714771038
5.921149752
4.667458641
3.772705128
3.121474667
2.6386488
2.274481181
1.995438976
1.778519944
1.607640794
1.471309211
1.361108284
1.271217468
1.198699199
1.141895082
1.098037657
1.064088597
1.038163252
1.019263034
1.006382068
0.9981756395
0.9932263768
0.9903646328
0.9887844126
0.9880215227
0.9874903341
0.9868274677
0.9862174158
0.9859615394
0.985893263
0.985930279
0.986036134
0.9861981515
0.9864169488
0.9867021015
0.9870714182
0.9875528882
0.9881897689
0.9890516584
0.9902567962
0.9920240336
0.9948356302
860719.1633
298827.6308
57043.02817
10877.91011
4707.845068
2533.011018
1396.965858
803.9338261
468.600961
277.0675457
165.6814894
100.8945453
63.08753181
41.07917606
27.30543976
18.69543789
13.22284183
9.650622849
7.254301008
5.608516173
4.452318323
3.622679856
3.015461417
2.562739044
2.219413255
1.954987635
1.748458533
1.585076407
1.454253541
1.34819978
1.261509365
1.191479625
1.136575291
1.094146673
1.061295794
1.036238335
1.018012933
1.005623144
0.9977447087
0.9929979054
0.990253194
0.9887354732
0.9880073833
0.9874660359
0.9867847722
0.9862124454
0.985978594
0.985922572
0.9859678411
0.9860807626
0.9862500361
0.9864769689
0.9867714979
0.9871516189
0.9876453615
0.9882958293
0.9891720579
0.9903905525
0.9921654682
0.9949620972
836688.349
274520.9251
43102.36656
9725.231494
4489.611731
2407.711457
1324.778993
758.282737
439.2268086
257.5588965
152.836937
92.61168292
57.83853668
37.59781791
25.06220418
17.26859116
12.30067921
9.042320307
6.847425923
5.332198588
4.261869277
3.489496004
2.920977492
2.494755551
2.169822317
1.918341995
1.721056879
1.564380409
1.43851313
1.336212663
1.252440368
1.184701413
1.131560237
1.090465326
1.058645604
1.034407945
1.016822589
1.004899518
0.9973330023
0.9927789754
0.9901459805
0.9886878353
0.9879909075
0.9874402703
0.9867411038
0.9862094671
0.9859964492
0.9859522411
0.9860056662
0.9861257136
0.9863023788
0.9865376271
0.986841747
0.9872329178
0.987739201
0.9884035253
0.989294296
0.9905261136
0.9923081081
0.9950879039
809082.604
242743.7582
32215.48839
9060.370234
4290.175776
2285.377456
1254.150416
713.4734982
410.2395812
238.3542251
140.3670277
84.75030387
52.95772909
34.43282885
23.07026985
16.00769021
11.48664749
8.506713495
6.489013306
5.088373955
4.093328151
3.371162102
2.836616986
2.433715284
2.125025001
1.885028444
1.695987123
1.545326153
1.423932288
1.325041845
1.243941146
1.178319156
1.12682007
1.086974301
1.056126046
1.032665064
1.015688151
1.004209251
0.9969396607
0.9925692915
0.990042969
0.9886416281
0.9879722767
0.9874132305
0.9867019485
0.9862084147
0.9860151268
0.9859823269
0.9860438239
0.9861710612
0.9863552542
0.9865989958
0.9869129148
0.987315368
0.9878344379
0.9885128535
0.9894183157
0.9906633509
0.9924517558
0.9952128961
777995.3247
205861.6923
24935.03728
8605.733118
4094.613774
2167.066928
1185.518229
669.763783
381.8290821
219.6641487
128.4867972
77.44699575
48.50953144
31.61345596
21.31828485
14.9007764
10.77223528
8.036477478
6.173760213
4.873269513
3.944041635
3.265829919
2.761100713
2.378736775
2.084414832
1.854629692
1.672961785
1.527715493
1.410375027
1.314595435
1.235950981
1.172293082
1.122328678
1.083656728
1.05372665
1.03100353
1.014606205
1.003550591
0.9965638908
0.9923685682
0.9899441261
0.9885969713
0.987951661
0.9873849009
0.9866670481
0.9862092235
0.9860346433
0.9860128783
0.9860823751
0.9862168699
0.9864087265
0.9866611352
0.9869850536
0.9873990075
0.9879310862
0.9886237916
0.9895440389
0.9908021168
0.9925961999
0.9953369135
743063.3609
168079.898
20650.35035
8194.374562
3898.340015
2053.981917
1119.485733
627.4942587
354.2577431
201.7707928
117.4187322
70.80435797
44.52781809
29.13712811
19.7878092
13.93381499
10.14749413
7.624423568
5.896649343
4.683411734
3.811617831
3.171860852
2.693308635
2.329055108
2.04746878
1.82678736
1.651734649
1.511379006
1.39772515
1.304794875
1.22841793
1.166589167
1.118063756
1.080498232
1.051438496
1.029418066
1.013573792
1.002922002
0.9962049825
0.9921765404
0.9898494149
0.9885539861
0.9879292301
0.9873552575
0.9866361636
0.9862118307
0.9860550107
0.9860439371
0.9861213722
0.9862631946
0.9864628485
0.986724093
0.9870582012
0.9874838575
0.9880291417
0.9887362968
0.9896713666
0.9909422441
0.992741215
0.9954597903
703933.092
134375.5719
17940.81278
7794.665305
3712.577789
1946.380009
1056.208878
586.7938614
327.7255317
184.9330016
107.3132025
64.86268144
40.99008585
26.97885339
18.4557087
13.09109467
9.601801405
7.263350364
5.652814458
4.515515134
3.69383827
3.087757207
2.632228063
2.283983835
2.013719926
1.801182617
1.632087203
1.496166581
1.385879785
1.295570584
1.221295942
1.161177252
1.114005578
1.077486136
1.049253723
1.027903998
1.012588269
1.002322089
0.9958622768
0.9919929505
0.9897587916
0.9885128033
0.9879051542
0.987324252
0.9866090726
0.9862161751
0.9860762362
0.9860755378
0.986160859
0.9863100802
0.9865176622
0.9867879042
0.987132381
0.9875699228
0.9881285814
0.9888503058
0.9898001781
0.9910835463
0.9928865624
0.9955813561
661018.696
105246.0991
16284.6182
7433.350318
3537.914021
1844.877457
995.9973144
547.8808394
302.5213979
169.4099875
98.25874226
59.62472061
37.89304752
25.10673226
17.29904191
12.35754604
9.125205133
6.946660515
5.437870974
4.366658189
3.588752106
3.012212182
2.576980414
2.242929608
1.98276573
1.777541061
1.61383164
1.481949364
1.374750729
1.286862958
1.214545603
1.156031557
1.110137327
1.07460968
1.047165669
1.026457349
1.011647356
1.001749632
0.9955351871
0.9918175605
0.9896722102
0.9884735754
0.9878796105
0.9872917971
0.9865855693
0.9862221965
0.9860983222
0.9861077073
0.9862008702
0.9863575613
0.9865731972
0.9868525896
0.9872076
0.9876571897
0.9882293618
0.9889657328
0.9899303289
0.9912258165
0.9930319883
0.9957014351
614420.1589
81043.7221
15185.3125
7112.730049
3374.770809
1749.98708
939.1364834
510.9752824
278.9527419
155.3789714
90.26867158
55.05596363
35.20564966
23.48673767
16.29564876
11.71897926
8.708532039
6.668381019
5.247906226
4.234263816
3.494654555
2.944091426
2.526806809
2.20538181
1.954260766
1.755627798
1.59680756
1.468617581
1.364263043
1.278621495
1.208133611
1.15113037
1.106444918
1.071859912
1.045168815
1.025074811
1.01074914
1.00120359
0.9952232033
0.9916501553
0.9895896233
0.9884364899
0.9878527918
0.9872577497
0.9865654621
0.986229835
0.9861212649
0.9861404634
0.986241429
0.986405659
0.9866294681
0.9869181529
0.9872838455
0.9877456218
0.988331414
0.9890824637
0.9900616461
0.9913688212
0.9931772189
0.995819844
563754.6331
62160.27648
14499.62608
6829.953001
3223.88785
1662.121968
885.8747957
476.3015143
257.2948449
142.9082696
83.29749386
51.09867555
32.88395919
22.0859536
15.42494748
11.16243845
8.34352906
6.423203317
5.079476734
4.116081613
3.410064964
2.882413478
2.4810523
2.17090065
1.927907878
1.735240987
1.580877306
1.456077169
1.354352626
1.270803077
1.202031584
1.14645522
1.102916409
1.069229277
1.043258502
1.023753568
1.009891962
1.000683044
0.9949258641
0.991490529
0.9895109719
0.9884017794
0.9878249169
0.9872218868
0.9865485711
0.9862390305
0.9861450554
0.9861738161
0.9862825497
0.9864543842
0.9866864773
0.9869845835
0.9873610885
0.9878351644
0.9884346486
0.9892003626
0.9901939353
0.9915123093
0.9933219678
0.9959364044
507541.4051
49269.49605
14177.43645
6556.838677
3085.531726
1581.300337
836.2472877
443.9926005
237.6899879
131.9477294
77.25142834
47.6791059
30.87825818
20.87239769
14.66738548
10.67578924
8.022558698
6.20626244
4.929451012
4.01007741
3.333650048
2.826297016
2.439129939
2.139092653
1.903441533
1.716200527
1.565918281
1.444244563
1.344962722
1.263369665
1.196214569
1.141989923
1.099541405
1.066711248
1.041430717
1.022491175
1.00907436
1.000187169
0.9946427461
0.9913384816
0.9894361768
0.9883697372
0.9877962489
0.987183879
0.9865347263
0.9862497226
0.9861696797
0.9862077679
0.9863242369
0.9865037361
0.9867442139
0.9870518554
0.9874392822
0.9879257424
0.9885389542
0.9893192693
0.9903269781
0.9916560092
0.9934659375
0.9960509401
444886.7262
40907.60885
14025.49334
6286.533154
2959.280966
1507.309285
790.2043749
414.1574764
220.1710798
122.3884429
72.02377107
44.72513627
29.14292783
19.81830662
14.00616154
10.24868484
7.739151356
6.013459593
4.795202318
3.914550613
3.264297993
2.775008839
2.400552536
2.109631763
1.880642244
1.698357984
1.551829808
1.433051446
1.336047173
1.256290518
1.190662532
1.137721566
1.096311676
1.064300703
1.039682313
1.021285689
1.008295141
0.9997152723
0.9943734847
0.9911938283
0.9893651298
0.988340737
0.9877671238
0.9871432545
0.9865237666
0.9862618492
0.986195117
0.9862423119
0.986366484
0.986553701
0.9868026516
0.9871199252
0.9875183599
0.9880172587
0.9886441945
0.9894389973
0.990460531
0.9917996295
0.9936088208
0.9961632708
374292.1591
35644.10634
13943.29006
6045.941157
2845.934704
1440.37492
747.8564022
386.9324692
204.6887705
114.0937322
67.50790544
42.17012479
27.63739855
18.89950747
13.42670186
9.872178905
7.487728575
5.841268448
4.674474338
3.828041365
3.201055066
2.727920511
2.364902786
2.082238677
1.859322298
1.681586693
1.538526266
1.42244001
1.32756719
1.249540024
1.185358931
1.133639574
1.093220563
1.061993558
1.038010795
1.020135541
1.007553316
0.9992667665
0.9941177619
0.9910563965
0.9892976711
0.9883152534
0.9877379957
0.9870993525
0.9865155382
0.9862753461
0.9862213402
0.9862774318
0.9864092726
0.9866042512
0.9868617482
0.9871887308
0.9875982333
0.9881095917
0.988750207
0.9895593321
0.9905943244
0.9919428577
0.9937502988
0.9962732112
293014.6561
32396.97846
13873.08525
5831.644129
2744.30271
1379.838069
708.8744953
362.1954696
191.0372815
106.8650208
63.58464707
39.94633146
26.32275092
18.09332498
12.91551718
9.538080346
7.26322809
5.686512436
4.565246677
3.749249173
3.143075851
2.684477692
2.331814321
2.056669653
1.839318984
1.66577775
1.525934752
1.412361599
1.319490576
1.243097272
1.180290507
1.129735639
1.090262972
1.059786779
1.036414333
1.019039567
1.006848125
0.998841186
0.9938753219
0.9909260392
0.9892335599
0.9882929266
0.9877095071
0.9870555281
0.9865098932
0.9862901444
0.9862483108
0.9863130964
0.9864525664
0.9866553381
0.986921437
0.9872581821
0.9876787822
0.9882025845
0.9888567897
0.9896800171
0.9907280482
0.9920853443
0.993890022
0.9963805674
194310.1477
30630.58634
13782.18848
5645.329113
2655.193433
1325.892414
673.2782724
339.9115679
178.9532748
100.5663629
60.16641965
38.00246052
25.16872873
17.3820472
12.46201311
9.239928474
7.061643576
5.54667058
4.465912255
3.677138726
3.089686836
2.64423855
2.300995166
2.032731423
1.820503732
1.650845616
1.51399846
1.402778718
1.311792888
1.236946691
1.175447589
1.126003813
1.087435347
1.057678313
1.034891689
1.017996931
1.006178981
0.9984381508
0.9936459489
0.9908026324
0.9891725096
0.9882704152
0.9876821748
0.9870167367
0.9865066877
0.9863061718
0.9862759841
0.9863492655
0.986496318
0.9867068996
0.986981636
0.987328171
0.9877598664
0.9882960578
0.988963717
0.9898007724
0.9908613725
0.9922267228
0.9940276352
0.9964851593
62105.90471
30031.69541
13562.33043
5484.895192
2577.727419
1277.92828
639.3627726
319.2339331
168.2642992
95.03604593
57.16136872
36.28788258
24.14671671
16.74916705
12.05642635
8.971824124
6.87934446
5.419472454
4.375031867
3.610788615
3.040291695
2.606813761
2.272189652
2.010256333
1.802765942
1.63671747
1.502669645
1.393660337
1.304454273
1.231075921
1.170822696
1.122439622
1.084735117
1.055666731
1.033442002
1.017007009
1.00554541
0.9980573407
0.9934294576
0.990686084
0.9891145007
0.988247887
0.9876561159
0.9869826911
0.9865057809
0.9863233522
0.9863043068
0.9863858877
0.9865404663
0.9867588577
0.9870422444
0.9873985684
0.9878413219
0.9883898066