/*--------------------------------*- C++ -*----------------------------------*\
  =========                 |
  \\      /  F ield         | OpenFOAM: The Open Source CFD Toolbox
   \\    /   O peration     | Website:  https://openfoam.org
    \\  /    A nd           | Version:  12
     \\/     M anipulation  |
\*---------------------------------------------------------------------------*/
FoamFile
{
    format      ascii;
    class       surfaceScalarField;
    location    "550";
    object      phi;
}
// * * * * * * * * * * * * * * * * * * * * * * * * * * * * * * * * * * * * * //

dimensions      [1 0 -1 0 0 0 0];

internalField   nonuniform List<scalar> 
32120
(
-0.0006338521735
-0.04549545788
0.04612931006
-0.001428645652
-0.06464656558
0.06544135982
-0.002411082275
-0.08404199061
0.08502442775
-0.00359648351
-0.1067973273
0.1079827291
-0.004911635681
-0.1348235722
0.136138725
-0.006150654669
-0.1705330394
0.1717720593
-0.007241322643
-0.2167578606
0.21784853
-0.01007148508
-0.2733846705
0.2762148354
-0.0176216662
-0.3320814487
0.3396316336
-0.0279739509
-0.395962853
0.4063151429
-0.04031495848
-0.4712984254
0.4836394397
-0.05496302505
-0.5610888671
0.5757369417
-0.07237416153
-0.6679034078
0.6853145537
-0.09307109333
-0.7950894895
0.8157864322
-0.1176676116
-0.9464352132
0.971031744
-0.1468988055
-1.126578055
1.155809263
-0.1816320405
-1.340934158
1.375667409
-0.2229029855
-1.596000932
1.637271895
-0.2719394681
-1.899448574
1.948485076
-0.3302061092
-2.260403599
2.318670261
-0.3994459992
-2.689662545
2.758902457
-0.4817413051
-3.200011208
3.282306538
-0.5795826699
-3.806550907
3.904392295
-0.6959606623
-4.527090865
4.643468882
-0.8344775938
-5.382578156
5.521095108
-0.9994865978
-6.397596988
6.562606014
-1.196259974
-7.600937715
7.797711105
-1.431184077
-9.026277995
9.261202111
-1.711965323
-10.71304601
10.99382727
-2.047807847
-12.70759499
13.04343754
-2.449516445
-15.06486065
15.46656927
-2.929514647
-17.85064696
18.33064521
-3.501853855
-21.144549
21.71688826
-4.182360355
-25.0433433
25.72384985
-4.989054794
-29.66462668
30.47132116
-5.942846233
-35.15064732
36.10443881
-7.068398731
-41.67248254
42.79803509
-8.394973358
-49.43487985
50.76145454
-9.957128294
-58.68204591
60.24420089
-11.79518225
-69.70470716
71.5427612
-13.95545954
-82.84871916
85.00899648
-16.4902785
-98.52562262
101.0604417
-19.45761582
-117.2255011
120.1928384
-22.92025486
-139.5326314
142.9952705
-26.94408838
-166.1444294
170.1682628
-31.5950869
-197.8943915
202.5453901
-36.93419777
-235.7798265
241.1189374
-43.00913448
-280.9954916
287.0704283
-49.84154674
-334.9744944
341.8069067
-57.40740988
-399.4382361
407.0040993
-65.60752081
-476.457648
484.6577589
-74.22365862
-568.528646
577.1447839
-82.85400496
-678.6655909
687.2959372
-90.8187322
-810.5176538
818.4823811
-97.02276994
-968.5147268
974.7187646
-99.75707497
-1158.051222
1160.785528
-96.41248689
-1385.721205
1382.376617
-83.06682183
-1659.62026
1646.274595
-53.89460981
-1989.711438
1960.539226
-2388.37742
2334.804327
-0.0005615137686
-0.04493394377
-0.001277198124
-0.0639308805
-0.002153398355
-0.08316578979
-0.003190374633
-0.1057603504
-0.00431788033
-0.1336960656
-0.00537035918
-0.1694805592
-0.006377060388
-0.2157511571
-0.01019462099
-0.2695671065
-0.01759456451
-0.3246815002
-0.02678017032
-0.3867772408
-0.03769984627
-0.4603787417
-0.0506953714
-0.5480933328
-0.06615469361
-0.652444075
-0.08454889667
-0.7766952743
-0.1064299026
-0.9245541934
-0.1324614448
-1.100546497
-0.1634258895
-1.309969696
-0.2002589006
-1.559167902
-0.244069897
-1.855637556
-0.2961838745
-2.208289598
-0.3581810344
-2.627665361
-0.4319560127
-3.126236204
-0.5197870311
-3.718719866
-0.6244252557
-4.422452614
-0.7492054266
-5.257797966
-0.8981852675
-6.248617126
-1.076316344
-7.422806626
-1.289638294
-8.812956029
-1.545465976
-10.4572183
-1.852516537
-12.40054439
-2.220926016
-14.6964511
-2.66216788
-17.40940498
-3.18898696
-20.61772985
-3.815528463
-24.41680161
-4.557778367
-28.92237674
-5.434285215
-34.27414016
-6.467019265
-40.63974849
-7.682189416
-48.21970923
-9.110906676
-57.25332868
-10.78962654
-68.02598676
-12.76037633
-80.87796944
-15.07073681
-96.21526172
-17.7735216
-114.5227164
-20.92597878
-136.380174
-24.58823056
-162.4821776
-28.82050846
-193.6621134
-33.67851886
-230.921816
-39.20599031
-275.46802
-45.42303828
-328.7574463
-52.30837757
-392.5528967
-59.77256297
-468.9934625
-67.61820746
-560.6830014
-75.48141691
-670.8023813
-82.74609629
-803.2529743
-88.41942227
-962.8414008
-90.95153906
-1155.519106
-87.97579289
-1388.696952
-75.93425199
-1671.661801
-49.5415919
-2016.104099
-2436.900644
-0.0004433148906
-0.04449062842
-0.0009917136264
-0.06338248084
-0.001646809838
-0.08251069282
-0.002374337312
-0.1050328221
-0.003058941804
-0.1330114599
-0.00356431737
-0.1689751817
-0.00424263852
-0.215072833
-0.008300747917
-0.2655089924
-0.01503072879
-0.317951513
-0.02321549187
-0.3785924697
-0.03294258436
-0.4506516397
-0.04451695461
-0.5365189514
-0.05828450731
-0.6386765094
-0.07466583607
-0.7603139308
-0.09415115893
-0.9050688539
-0.1173321096
-1.077365528
-0.1449060368
-1.282395748
-0.1777096034
-1.526364313
-0.2167385864
-1.81660855
-0.26318859
-2.16183957
-0.3184941132
-2.572359814
-0.3843853769
-3.060344915
-0.4629551435
-3.640150078
-0.5567473251
-4.328660409
-0.6688718351
-5.145673442
-0.8031530967
-6.114335848
-0.9643055881
-7.26165413
-1.158115338
-8.619146273
-1.391581277
-10.22375235
-1.672958359
-12.11916728
-2.011667916
-14.35774152
-2.418134082
-17.00293877
-2.90370959
-20.13215432
-3.480865837
-23.83964529
-4.163705269
-28.2395373
-4.968706669
-33.46913866
-5.915538618
-39.69291654
-7.027800813
-47.1074469
-8.333608917
-55.9475206
-9.86599404
-66.4936015
-11.66310769
-79.08085583
-13.76821067
-94.11015864
-16.22938023
-112.0615469
-19.09877891
-133.5107753
-22.43123698
-159.1497196
-26.28173487
-189.8116155
-30.70120198
-226.502349
-35.72976443
-270.4394575
-41.38620414
-323.1010066
-47.65184234
-386.2872585
-54.44629819
-462.1990066
-61.5914457
-553.5378539
-68.75832263
-663.6355044
-75.38949121
-796.6218058
-80.58613278
-957.6447592
-82.94465312
-1153.160585
-80.32114442
-1391.32046
-69.49205281
-1682.490893
-45.66789172
-2039.92826
-2480.770099
-0.0003382049597
-0.04415242297
-0.0007418877972
-0.06297879702
-0.001208078524
-0.08204450128
-0.001668201399
-0.1045726982
-0.001949801732
-0.1327298582
-0.001927097089
-0.1689978842
-0.002805599005
-0.2141943276
-0.006992270521
-0.2613223159
-0.01303525036
-0.3119085265
-0.02026488006
-0.3713628317
-0.02885688762
-0.4420596223
-0.03908221468
-0.526293613
-0.05124436653
-0.6265143445
-0.06571742565
-0.7458408568
-0.08293633433
-0.8878499284
-0.1034290414
-1.056872802
-0.1278194606
-1.258005308
-0.1568592763
-1.497324475
-0.1914465287
-1.782021274
-0.2326632394
-2.120622834
-0.2818126246
-2.523210405
-0.3404744567
-3.001683058
-0.4105751228
-3.570049392
-0.4944844434
-4.244751067
-0.5951418951
-5.045015979
-0.7162104985
-5.993267233
-0.8622431903
-7.115621434
-1.038829529
-8.442559935
-1.252668468
-10.00991341
-1.511510059
-11.86032567
-1.823966559
-14.045285
-2.199315613
-16.62758968
-2.647487168
-19.68398274
-3.179363505
-23.30776891
-3.807365427
-27.61153536
-4.546188373
-32.73031565
-5.413535476
-38.82556942
-6.430754756
-46.09022754
-7.623336228
-54.75493912
-9.021258447
-65.09567919
-10.65917883
-77.44293546
-12.57643149
-92.1929059
-14.81677019
-109.8212083
-17.42771198
-130.8998334
-20.4592522
-156.1181794
-23.96158694
-186.3092807
-27.98131145
-222.4826245
-32.55531137
-265.8654575
-37.70122831
-317.9550897
-43.40288264
-380.5856042
-49.58834019
-456.0135491
-56.09729908
-547.028895
-62.63303012
-657.0997734
-68.69214056
-790.5626953
-73.46231469
-952.8745851
-75.67444576
-1150.948454
-73.38934093
-1393.605565
-63.69063069
-1692.189603
-42.244222
-2061.374669
-2520.344833
-0.0002364114249
-0.04391601093
-0.000491457811
-0.06272374963
-0.0007602748785
-0.08177568332
-0.0009516369791
-0.1043813351
-0.0008505756261
-0.132830918
-0.0003158660758
-0.1695325913
-0.001568062017
-0.2129421278
-0.005593786165
-0.2572965862
-0.01091090152
-0.3065914041
-0.01724378356
-0.3650299412
-0.02477630139
-0.4345270945
-0.03374700799
-0.5173228949
-0.044423521
-0.6158378184
-0.05713880395
-0.7331255589
-0.07227902075
-0.8727096949
-0.090314415
-1.038837389
-0.1118011751
-1.236518528
-0.137410422
-1.471715206
-0.167946192
-1.751485482
-0.2043816374
-2.084187365
-0.2478992171
-2.479692804
-0.2999509693
-2.949631283
-0.3623378642
-3.50766248
-0.4373143688
-4.169774543
-0.5277169717
-4.954613367
-0.6371112546
-5.883872942
-0.7699371335
-6.982795553
-0.9316062525
-8.280890817
-1.128486344
-9.813033308
-1.367732761
-11.62107924
-1.657032267
-13.75598547
-2.004440638
-16.28018128
-2.41849264
-19.26993071
-2.90862573
-22.81763579
-3.485812328
-27.03434874
-4.163244634
-32.0528833
-4.956959708
-38.03185433
-5.886361238
-45.16082595
-6.974628607
-53.66667174
-8.249016159
-63.82129157
-9.741027581
-75.95092404
-11.48643108
-90.44750236
-13.52504041
-107.782599
-15.90013357
-128.5247403
-18.65729752
-153.3610154
-21.84237742
-183.1242008
-25.49804421
-218.8269577
-29.65828239
-261.7052193
-34.33977911
-313.273593
-39.52876584
-375.3966174
-45.16120108
-450.3811139
-51.09331046
-541.0967856
-57.05818326
-651.1349006
-62.60223428
-785.0186443
-66.99286605
-948.4839533
-69.08473834
-1148.856582
-67.12697015
-1395.563333
-58.48559861
-1700.830975
-39.24506259
-2080.615205
-2555.949945
-0.0001518723492
-0.04376413793
-0.0002736589805
-0.06260196196
-0.0003573163256
-0.08169202505
-0.0002819214421
-0.1044567288
0.0001834076655
-0.1332962454
0.0009843818134
-0.1703335628
-0.0005546930567
-0.2114030489
-0.004140799399
-0.2537104743
-0.008795016519
-0.3019371799
-0.01433267464
-0.3594922747
-0.02092063184
-0.4279391276
-0.02876886852
-0.509474647
-0.03811064426
-0.6064960298
-0.04923870239
-0.7219974863
-0.06249177149
-0.8594566097
-0.07828374486
-1.023045398
-0.09710617271
-1.217696082
-0.1195557923
-1.449265567
-0.1463548365
-1.724686418
-0.1783888496
-2.052153331
-0.2167516446
-2.44132999
-0.2628100435
-2.903572864
-0.3182878639
-3.452184645
-0.3853724816
-4.102689909
-0.4668416748
-4.873144166
-0.5662004039
-5.784514208
-0.6877953178
-6.861200636
-0.8368422988
-8.131843833
-1.019299592
-9.630576005
-1.241603463
-11.39877534
-1.510407524
-13.48718138
-1.832529385
-15.95805939
-2.21521373
-18.88724634
-2.666654541
-22.36619495
-3.196621728
-26.50438153
-3.817057652
-31.43244735
-4.54258121
-37.30633075
-5.390900014
-44.3125071
-6.383142542
-52.67442919
-7.54411888
-62.66031518
-8.902484205
-74.59255871
-10.4907716
-88.85921492
-12.3452121
-105.9281585
-14.50522582
-126.3647265
-17.01239488
-150.8538464
-19.90861952
-180.2279761
-23.2330329
-215.5025443
-27.01703717
-257.921215
-31.27655074
-309.0140794
-36.0001437
-370.6730244
-41.13118457
-445.250073
-46.5412699
-535.6867003
-51.99106848
-645.685102
-57.07304591
-779.9366669
-61.12811131
-944.428888
-63.12495353
-1146.85974
-61.48608147
-1397.202205
-53.83737717
-1708.479679
-36.64825468
-2097.804327
-2587.879233
-8.198572882e-05
-0.04368215161
-8.258919697e-05
-0.06260135765
1.78959885e-05
-0.08179250945
0.0003835080468
-0.1048223399
0.001262396994
-0.1341751329
0.001962440384
-0.1710336038
0.000281540898
-0.209722146
-0.003037464946
-0.2503914639
-0.007064843028
-0.2979097961
-0.01185581299
-0.354701298
-0.01755356723
-0.4222413656
-0.02434153505
-0.5026866703
-0.03242141418
-0.5984161405
-0.04204898844
-0.7123699005
-0.05352116545
-0.84798442
-0.06720335386
-1.009363196
-0.08353402682
-1.201365394
-0.1030517201
-1.429747857
-0.1264181074
-1.701320015
-0.1544576497
-2.024113771
-0.1882051038
-2.407582521
-0.2289718282
-2.862806122
-0.2784332598
-3.402723202
-0.3387399959
-4.04238316
-0.4126452742
-4.799238882
-0.5036229988
-5.693536481
-0.6159258092
-6.748897821
-0.7545120314
-7.993257603
-0.9248073514
-9.46028067
-1.132396532
-11.19118614
-1.382841013
-13.23673687
-1.681785494
-15.65911488
-2.035360578
-18.53367123
-2.45074776
-21.95080774
-2.936748809
-26.01838045
-3.5042696
-30.86492653
-4.166707956
-36.64389237
-4.940272526
-43.53894249
-5.84425543
-51.77044627
-6.901261705
-61.60330887
-8.137370281
-73.35645012
-9.582180047
-87.41440513
-11.26867109
-104.2416674
-13.23276523
-124.4006324
-15.51241437
-148.5741972
-18.1459571
-177.5944334
-21.16935253
-212.4791488
-24.61172704
-254.4788405
-28.48840634
-305.1374001
-32.79025761
-366.3711731
-37.46762636
-440.5727042
-42.40643964
-530.747887
-47.39297218
-640.6985695
-52.06227987
-775.2673592
-55.82316141
-940.6680064
-57.74952551
-1144.933376
-56.42366287
-1398.528068
-49.71080658
-1715.192535
-34.43479769
-2113.080336
-2616.3976
-2.29094147e-05
-0.04365924162
8.677570553e-05
-0.06271104194
0.000375769024
-0.08208150198
0.001042634334
-0.1054892041
0.002335896269
-0.1354683933
0.002735919741
-0.1714336249
0.0007796244381
-0.2077658473
-0.002166331277
-0.2474455038
-0.005577224605
-0.2944988975
-0.009644355397
-0.350634161
-0.01448742578
-0.4173982881
-0.02026702297
-0.4969070649
-0.02715865404
-0.5915245002
-0.03538710423
-0.70414144
-0.04521524025
-0.8381562727
-0.05696917782
-0.9976092458
-0.07104541668
-1.187289142
-0.08793684334
-1.412856417
-0.1082583592
-1.680998485
-0.1327879352
-1.999584181
-0.162518584
-2.37785186
-0.1987300309
-2.826594661
-0.2430820939
-3.35837113
-0.2977279802
-3.987737264
-0.3654327363
-4.731534122
-0.4496510363
-5.60931818
-0.5544960037
-6.644052849
-0.6845525261
-7.863201069
-0.8445669465
-9.300266232
-1.039176154
-10.99657691
-1.272871837
-13.00304117
-1.550272654
-15.38171404
-1.876614991
-18.20732887
-2.258296707
-21.56912601
-2.703350667
-25.57332647
-3.221813068
-30.34646411
-3.826010686
-36.03969474
-4.530808543
-42.83414461
-5.353839505
-50.94741529
-6.315713683
-60.64143466
-7.440175358
-72.23198843
-8.754168468
-86.100412
-10.28772959
-102.7081063
-12.07361618
-122.6147458
-14.14650441
-146.501309
-16.5415313
-175.1994065
-19.29182758
-209.7288525
-22.42453309
-251.3461349
-25.95456278
-301.6073704
-29.87505014
-362.4506858
-34.14294868
-436.3048057
-38.65759124
-526.2332444
-43.22905989
-636.1271008
-47.53190661
-770.9645125
-51.03774223
-937.1621708
-52.91765635
-1143.053461
-51.90141899
-1399.544305
-46.07495663
-1721.018998
-32.58873863
-2126.566554
-2641.743277
2.989433977e-05
-0.04368913553
0.0002514005894
-0.06293254748
0.0007387745067
-0.08256887522
0.001699336695
-0.1064497654
0.003239612023
-0.1370086673
0.003340041579
-0.1715340525
0.001366780434
-0.2057925835
-0.001058446552
-0.2450202733
-0.003936289601
-0.2916210503
-0.007372642794
-0.3471978029
-0.01146661929
-0.4133043059
-0.01635796876
-0.492015709
-0.0221994933
-0.5856829684
-0.02918942302
-0.6971515021
-0.03756273951
-0.8297829471
-0.0476138697
-0.9875581056
-0.05970631839
-1.175196683
-0.07429763154
-1.398265092
-0.09196747646
-1.663328629
-0.1134621664
-1.978089479
-0.1397553735
-2.351558643
-0.1721291749
-2.794220849
-0.21227096
-3.318229339
-0.2623763185
-3.937631898
-0.3252362232
-4.668674212
-0.4042502349
-5.530304165
-0.5032896787
-6.545013398
-0.6264174215
-7.740073312
-0.7775767621
-9.149106871
-0.9604373367
-10.81371631
-1.178533235
-12.78494524
-1.43566169
-15.12458556
-1.736392038
-17.9065985
-2.086536807
-21.21898122
-2.493513913
-25.16634935
-2.966610979
-29.87336702
-3.517196005
-35.4891097
-4.15891518
-42.19242541
-4.907893721
-50.19843673
-5.78293104
-59.76639731
-6.805659716
-71.20925974
-8.000621983
-84.90544971
-9.395199045
-101.3135292
-11.01929589
-120.9906489
-12.90464705
-144.6159578
-15.08352766
-173.0205258
-17.58656516
-207.225815
-20.43919484
-248.4935053
-23.65609608
-298.3904691
-27.2326657
-358.8741161
-31.13214679
-432.4053246
-35.2664544
-522.0989368
-39.46788731
-631.9256679
-43.44767712
-766.9847226
-46.73566254
-933.8741854
-48.59285095
-1141.196273
-47.88531768
-1400.251839
-42.90274103
-1726.001574
-31.09697841
-2138.372317
-2664.129749
8.440082659e-05
-0.04377353596
0.000429912156
-0.06327805806
0.001132081451
-0.08327104379
0.002417553306
-0.1077352364
0.00392835382
-0.1385194664
0.003420401287
-0.171026098
0.001778023517
-0.204150203
-0.0002312802974
-0.2430109661
-0.002613799045
-0.2892385275
-0.005465958853
-0.3443456384
-0.008871421174
-0.4098988382
-0.01295234897
-0.487934775
-0.01784314751
-0.5807921629
-0.02371942012
-0.6912752217
-0.03079239887
-0.82270996
-0.03932996729
-0.979020528
-0.0496695557
-1.164857085
-0.06224470862
-1.385689929
-0.07761804623
-1.647955282
-0.09653085746
-1.959176657
-0.1199692788
-2.328120214
-0.1492498703
-2.764940249
-0.1861168241
-3.281362381
-0.2328235618
-3.890925157
-0.2921624849
-4.609335284
-0.3673903093
-5.455076336
-0.4619973326
-6.450406365
-0.5793867846
-7.622683844
-0.7226427517
-9.005850884
-0.8945408124
-10.64181823
-1.09783938
-12.58164665
-1.335737854
-14.88668707
-1.61234097
-17.62999537
-1.933028005
-20.89829416
-2.304708963
-24.79466837
-2.736007353
-29.44206861
-3.237417436
-34.9876996
-3.821470486
-41.60837234
-4.502917283
-49.51698992
-5.298915196
-58.97039938
-6.229187228
-70.2789877
-7.316111504
-83.81852542
-8.584679854
-100.0449609
-10.06223972
-119.513089
-11.77789473
-142.9003028
-13.76138043
-171.0370401
-16.04113275
-204.9460627
-18.64114875
-245.8934892
-21.57605528
-295.4555626
-24.8435228
-355.6066486
-28.41281656
-428.8360308
-32.20771665
-518.3040367
-36.08129859
-628.052086
-39.77896979
-763.2870514
-42.88464763
-930.7685076
-44.74271177
-1139.338209
-44.34537767
-1400.649173
-40.17075647
-1730.176195
-29.94915271
-2148.59392
-2683.747581
0.0001401615403
-0.0439136971
0.0006178129282
-0.06375570868
0.001536085136
-0.08418931525
0.003151547179
-0.1093506974
0.004451245291
-0.1398191631
0.003678645475
-0.1702534961
0.002298199152
-0.202769754
0.0006519259214
-0.2413646897
-0.001304976967
-0.2872816208
-0.003655821766
-0.3419947891
-0.006470951143
-0.4070837036
-0.009855444207
-0.4845502761
-0.013925861
-0.5767217396
-0.01883610711
-0.6863649683
-0.02477656608
-0.8167694932
-0.03199633092
-0.9718007546
-0.04081788745
-1.15603552
-0.0516679014
-1.374839906
-0.06511811673
-1.634505059
-0.08193595016
-1.942358815
-0.1031507663
-2.306905392
-0.1301355757
-2.737955433
-0.1646971885
-3.246800765
-0.2091297913
-3.846492553
-0.266163472
-4.5523016
-0.3387888297
-5.382450971
-0.429973211
-6.359221973
-0.5423757458
-7.510281293
-0.6782537207
-8.869972888
-0.8396409481
-10.48043098
-1.028734475
-12.3925531
-1.248342308
-14.66707921
-1.502261271
-17.37607638
-1.795540355
-20.60501506
-2.134650014
-24.4555587
-2.52760752
-29.04911109
-2.984101792
-34.53120532
-3.515640387
-41.07683372
-4.135721887
-48.89690841
-4.860015726
-58.24610552
-5.706524405
-69.43247901
-6.695682436
-82.82936737
-7.850341831
-98.89030146
-9.195566795
-118.1678641
-10.75812709
-141.3377425
-12.56552055
-169.2296467
-14.64428659
-202.8672966
-17.01724819
-243.5205276
-19.69915691
-292.7736539
-22.6899923
-352.6158132
-25.96482095
-425.5612022
-29.45865599
-514.8102017
-33.04408779
-624.4666542
-36.49845183
-759.8326874
-39.45600658
-927.8109528
-41.33857398
-1137.455641
-41.25537393
-1400.732373
-37.85903502
-1733.572534
-29.13752204
-2157.315433
-2700.766017
0.0001869642477
-0.04410066089
0.0008007350999
-0.06436947863
0.001932224973
-0.08532080423
0.003749195472
-0.1111676667
0.004592637387
-0.1406626033
0.00385205644
-0.1695129129
0.002732583232
-0.2016502779
0.001404929892
-0.2400370328
-0.0001748372383
-0.2857018494
-0.00207561872
-0.3400940027
-0.004357421033
-0.4048018957
-0.007111643652
-0.4817960472
-0.01044363388
-0.5733897424
-0.01449557891
-0.6823130157
-0.01944978755
-0.8118152766
-0.02554763099
-0.9657029027
-0.03311075292
-1.14847239
-0.04257257807
-1.365378072
-0.0545277928
-1.622549837
-0.06978440425
-1.927102195
-0.08943794746
-2.287251844
-0.1149376456
-2.712455729
-0.1481447667
-3.213593641
-0.1913391591
-3.803298159
-0.2470859094
-4.496554846
-0.317975693
-5.31156118
-0.4063468708
-6.270850783
-0.5141087385
-7.402519409
-0.6428085743
-8.741273033
-0.793935938
-10.32930359
-0.9693342576
-12.21715476
-1.171584121
-14.46482933
-1.404279882
-17.14338061
-1.672201174
-20.33709375
-1.981419426
-24.14634043
-2.339388349
-28.69114215
-2.755050346
-34.11554331
-3.238974107
-40.59290995
-3.803519834
-48.33236267
-4.463015212
-57.58661013
-5.233917822
-68.66157639
-6.134924016
-81.92836117
-7.186981271
-97.8382442
-8.413130182
-116.9417151
-9.838082287
-139.9127904
-11.48738725
-167.5803417
-13.3859728
-200.9687111
-15.55573829
-241.3507621
-18.01174576
-290.3176464
-20.75633434
-349.8712246
-23.7701978
-422.5473387
-26.9990467
-511.5813528
-30.33385159
-621.1318493
-33.58187602
-756.584663
-36.4243936
-924.9684352
-38.35532494
-1135.52471
-38.59263356
-1400.495064
-35.95088077
-1736.214287
-28.65688105
-2164.609433
-2715.334385
0.0002406437939
-0.04434130422
0.001010818838
-0.06513965291
0.002395146006
-0.08670513059
0.004248498515
-0.1130210182
0.004569407346
-0.1409835106
0.003880935786
-0.1688244393
0.003036286895
-0.2008056265
0.00203259547
-0.2390333384
0.0008260822688
-0.2844953327
-0.0006425129442
-0.3386254035
-0.002428108461
-0.4030162957
-0.004615647336
-0.4796085032
-0.00730574182
-0.5706996423
-0.01063525947
-0.6789834919
-0.01478388513
-0.8076666444
-0.0199922097
-0.9604945712
-0.02659019808
-1.141874394
-0.03503241504
-1.356935848
-0.04594631699
-1.611635929
-0.06019616751
-1.912852339
-0.07895634946
-2.268491658
-0.1037577551
-2.68765432
-0.136488746
-3.180862646
-0.1793232192
-3.760463683
-0.2345335253
-4.441344535
-0.3041980941
-5.241896602
-0.3899870367
-6.185061828
-0.4931381895
-7.299368241
-0.614662928
-8.619748276
-0.7557103998
-10.1882561
-0.9179414891
-12.05492365
-1.103821402
-14.27894939
-1.316801747
-16.93040024
-1.561423281
-20.0924722
-1.843383053
-23.86438065
-2.169606254
-28.36491894
-2.548344858
-33.7368047
-2.989309833
-40.15194495
-3.503831607
-47.81784089
-4.105034381
-56.98540734
-4.807995877
-67.95861488
-5.629870031
-81.106487
-6.589918292
-96.87819593
-7.709401075
-115.8222323
-9.011236586
-138.6109548
-10.51930062
-166.0722777
-12.25718015
-199.2308315
-14.24609982
-239.3618425
-16.50161847
-288.0621277
-19.02850548
-347.3443376
-21.8129527
-419.7628915
-24.81090073
-508.5834047
-27.93073607
-618.0120139
-31.00787101
-753.507528
-33.76758949
-922.2087168
-35.77114766
-1133.521152
-36.33779671
-1399.928415
-34.43270072
-1738.119383
-28.50451196
-2170.537622
-2727.583422
0.0002957620213
-0.04463706569
0.001224296072
-0.06606818602
0.002847784969
-0.08832861849
0.004578102937
-0.1147513348
0.004654840387
-0.1410602463
0.004143834941
-0.1683134316
0.00351116776
-0.2001729565
0.002748727009
-0.2382708943
0.00182139444
-0.2835679963
0.0006771071322
-0.3374811117
-0.0007333683451
-0.4016058152
-0.002487522038
-0.4778543439
-0.004681647334
-0.568505511
-0.007448904227
-0.6762162287
-0.01097206437
-0.8041434778
-0.01550512365
-0.9559615052
-0.02140460972
-1.135974902
-0.02916848811
-1.349171963
-0.03948459554
-1.601319817
-0.05329153731
-1.899045392
-0.07182738793
-2.249955805
-0.09667217905
-2.662809526
-0.1296802179
-3.147854605
-0.172811882
-3.717332016
-0.2279258328
-4.38623058
-0.2965265421
-5.173295885
-0.3796577651
-6.101930593
-0.4780304939
-7.200995498
-0.5923142232
-8.505464529
-0.7234933782
-10.05707693
-0.8731668346
-11.90525018
-1.043747754
-14.10836846
-1.238571192
-16.73557679
-1.461951515
-19.86909187
-1.719228963
-23.60710319
-2.016834271
-28.06731362
-2.362384206
-33.39125475
-2.764811942
-39.74951721
-3.234524037
-47.34812879
-3.783570476
-56.43636088
-4.425808127
-67.31637722
-5.177029823
-80.3552653
-6.055019288
-96.00020646
-7.079489596
-114.797762
-8.271813579
-137.4186309
-9.654456545
-164.6896347
-11.24992723
-197.6353608
-13.0790197
-237.53275
-15.1579801
-285.9831673
-17.49409857
-345.0082191
-20.07897545
-417.1780146
-22.87840128
-505.7839789
-25.81733518
-615.0730801
-28.75775208
-750.5671111
-31.46632388
-919.500145
-33.56734296
-1131.420133
-34.47467084
-1399.021087
-33.29387641
-1739.300178
-28.68008526
-2175.151413
-2737.626379
0.0003716800196
-0.04500874531
0.001477066104
-0.06717357144
0.003244059198
-0.09009561087
0.004606365282
-0.1161136399
0.004536839157
-0.1409907189
0.004146439312
-0.1679230302
0.003689618245
-0.1997161336
0.003131313346
-0.2377125871
0.002444971752
-0.2828816521
0.001584148352
-0.3366202854
0.0005021056934
-0.4005237691
-0.0008757176496
-0.4764765168
-0.002649380351
-0.5667318442
-0.00496067482
-0.6739049297
-0.008010272772
-0.8010938752
-0.01208085196
-0.951890921
-0.01756986021
-1.130485889
-0.02502839875
-1.341713419
-0.0352129379
-1.591135274
-0.04913518857
-1.885123137
-0.06808927908
-2.231001711
-0.09363315482
-2.637265649
-0.1274898141
-3.113997942
-0.171306412
-3.673515412
-0.2264477201
-4.331089266
-0.2938510997
-5.105892497
-0.3740484861
-6.021733196
-0.4674012398
-7.107642732
-0.574413429
-8.398452324
-0.696033607
-9.935456734
-0.8338690371
-11.76741473
-0.9903068729
-13.9519306
-1.16857101
-16.55731264
-1.372754605
-19.66490826
-1.607858146
-23.37199964
-1.879853125
-27.79531863
-2.195778351
-33.07532952
-2.563868135
-39.38142741
-2.993706903
-46.91829002
-3.496396116
-55.93367166
-4.084721363
-66.72805197
-4.773286659
-79.66669999
-5.578597735
-95.19489538
-6.519035406
-113.8573244
-7.614669924
-136.3229963
-8.886806593
-163.417498
-10.35713237
-196.1650351
-12.04624922
-235.8436331
-13.97129013
-284.0581264
-16.14217491
-342.8373343
-18.55586447
-414.764325
-21.18769623
-503.1521471
-23.97846053
-612.2823158
-26.815358
-747.7302136
-29.50407119
-916.8114318
-31.72814287
-1129.196061
-32.99006743
-1397.759163
-32.52663864
-1739.763606
-29.18567137
-2178.49238
-2745.560047
0.0004841576094
-0.04549290243
0.001770177706
-0.06845959062
0.00355558461
-0.09188101679
0.004381365218
-0.1169394193
0.004272779282
-0.1408821314
0.004031358439
-0.1676816073
0.003752693243
-0.199437466
0.003392812443
-0.2373527035
0.00292956203
-0.2824183985
0.002316949031
-0.3360076687
0.001503754889
-0.399710571
0.0004105319782
-0.4753832895
-0.001073270362
-0.5652480373
-0.003104692544
-0.6718735027
-0.005907016244
-0.7982915468
-0.009795874962
-0.9480020575
-0.01521439978
-1.12506736
-0.02277548491
-1.33415233
-0.03330548216
-1.580605273
-0.04787688895
-1.870551726
-0.06780584245
-2.211072754
-0.09456016388
-2.610511324
-0.1296086838
-3.07894942
-0.1742116569
-3.628912436
-0.2292232629
-4.276077655
-0.2950923984
-5.040023354
-0.3719967679
-5.944828815
-0.4601193649
-7.019520123
-0.5599343633
-8.298637311
-0.6724332544
-9.822957828
-0.7992612798
-11.64058669
-0.9427824393
-13.80840943
-1.106105794
-16.39398927
-1.293107303
-19.47790674
-1.508467716
-23.15663922
-1.757738255
-27.54604808
-2.047437917
-32.78562985
-2.385180763
-39.04368455
-2.779827879
-46.52364289
-3.241653987
-55.47184554
-3.782513363
-66.18719259
-4.41598872
-79.03322463
-5.15749245
-94.45339164
-6.02428668
-112.9905301
-7.035364936
-135.3119181
-8.211117823
-162.2417451
-9.572659882
-194.803493
-11.14064094
-234.2756521
-12.93328402
-282.2654833
-14.96326801
-340.8073504
-17.23290809
-412.4946849
-19.72684283
-500.6582124
-22.40110661
-609.608052
-25.16692276
-744.9643975
-27.86695152
-914.111403
-30.24058817
-1126.822425
-31.87365324
-1396.126098
-32.12597457
-1739.511285
-30.02563905
-2180.592716
-2751.465647
0.000648535348
-0.04614143746
0.002077165532
-0.06988822006
0.003781956933
-0.09358580741
0.004389678222
-0.1175471396
0.004338960089
-0.140831412
0.004201214173
-0.1675438599
0.004038079467
-0.1992743294
0.003802434343
-0.2371170563
0.003471456827
-0.2820874185
0.002997579036
-0.3355337881
0.002323702792
-0.3990366916
0.001362815688
-0.4744223989
-7.533411806e-06
-0.5638776844
-0.001962680559
-0.6699183515
-0.00475502076
-0.7954992026
-0.008740690611
-0.9440163835
-0.01442064203
-1.119387405
-0.02247943963
-1.326093528
-0.03381112801
-1.569273581
-0.04951733991
-1.85484551
-0.07086013112
-2.189729958
-0.0991338239
-2.582237627
-0.1354690314
-3.042614207
-0.1806972584
-3.583684202
-0.2352187598
-4.221556147
-0.299124459
-4.976117647
-0.3723995412
-5.871553723
-0.4551871214
-6.936732531
-0.5480186519
-8.205805767
-0.6519648216
-9.719011644
-0.7687123269
-11.52383917
-0.9005928269
-13.67652892
-1.050595494
-16.2439866
-1.22238698
-19.30611525
-1.420352513
-22.95867367
-1.649665057
-27.31673553
-1.916383543
-32.51891136
-2.227579794
-38.73248829
-2.591487948
-46.15973474
-3.017671223
-55.04566226
-3.517189794
-65.68767401
-4.102762435
-78.44765198
-4.788888807
-93.76726527
-5.591912424
-112.1875065
-6.52997264
-134.3738578
-7.622781632
-161.1489361
-8.891126628
-193.535148
-10.35594607
-232.8108326
-12.0367661
-280.5846632
-13.94917314
-338.8949433
-16.10086778
-410.3429903
-18.48562692
-498.2734532
-21.07422034
-607.0194585
-23.80090352
-742.2377143
-26.54351192
-911.3687946
-29.09434459
-1124.271592
-31.11782471
-1394.102618
-32.08950173
-1738.539608
-31.20669102
-2181.475526
-2755.409607
0.000872451628
-0.04701388859
0.002373007729
-0.0713887752
0.003918101569
-0.09513090022
0.004334420252
-0.117963457
0.004294144987
-0.1407911351
0.004213627592
-0.1674633406
0.004109481893
-0.1991701815
0.003936139011
-0.2369437108
0.00366849731
-0.2818197738
0.003256004371
-0.3351212919
0.002633515095
-0.3984141988
0.001702398612
-0.4734912787
0.0003196647176
-0.5624949467
-0.001719700931
-0.6678789819
-0.004710798659
-0.792508101
-0.00906626101
-0.9396609173
-0.0153504298
-1.113103233
-0.02430449805
-1.317139456
-0.03685828572
-1.55671979
-0.05408745354
-1.837616338
-0.07712108741
-2.16669632
-0.1069931277
-2.552365582
-0.1444690841
-3.005138248
-0.1899620566
-3.538191227
-0.2435305403
-4.167987658
-0.3050540993
-4.914594082
-0.3744618914
-5.802145921
-0.4519520104
-6.859242403
-0.5381573257
-8.11960044
-0.6342343849
-9.622934572
-0.7419003257
-11.41617322
-0.8634431176
-13.55498611
-1.001730182
-16.10569952
-1.160231693
-19.14761373
-1.343066219
-22.77583914
-1.55507317
-27.10472857
-1.801912502
-32.27207202
-2.090190404
-38.44421038
-2.427608495
-45.82231664
-2.823128951
-54.65014179
-3.28715141
-65.22365155
-3.831680164
-77.90312322
-4.470475476
-93.12846995
-5.21915784
-111.4388241
-6.095226748
-133.4977889
-7.117949256
-160.1262136