/*--------------------------------*- C++ -*----------------------------------*\
  =========                 |
  \\      /  F ield         | OpenFOAM: The Open Source CFD Toolbox
   \\    /   O peration     | Website:  https://openfoam.org
    \\  /    A nd           | Version:  12
     \\/     M anipulation  |
\*---------------------------------------------------------------------------*/
FoamFile
{
    format      ascii;
    class       volScalarField;
    location    "550";
    object      T;
}
// * * * * * * * * * * * * * * * * * * * * * * * * * * * * * * * * * * * * * //

dimensions      [0 0 0 1 0 0 0];

internalField   nonuniform List<scalar> 
16200
(
294.9706597
294.9672446
294.819014
294.4662345
293.7570854
292.3046499
289.2254457
283.5312679
280.1091199
279.813915
279.9170424
280.0109787
280.1273839
280.2556241
280.4060034
280.5777984
280.7774023
281.0081652
281.2759687
281.58643
281.94628
282.3627077
282.8434526
283.3964561
284.0293566
284.7486756
285.5586092
286.4593551
287.4450024
288.5013674
289.6046829
290.7224466
291.8171392
292.8520455
293.7969989
294.632013
295.348001
295.9453556
296.4314785
296.8182405
297.1197486
297.3505813
297.5245522
297.6539292
297.749094
297.8184752
297.8687135
297.9049006
297.9308688
297.9494536
297.9627324
297.972215
297.9789915
297.9838608
297.9873842
297.9900407
297.9919924
297.9936566
297.9948849
297.9971262
294.2458603
294.207439
294.0061677
293.5662765
292.689821
290.8598259
287.0058549
281.1918582
279.0044517
278.9122208
279.0187765
279.121958
279.2475743
279.3866996
279.5502597
279.7379573
279.9565949
280.2101835
280.5051644
280.8479121
281.2458617
281.706966
282.2396309
282.852328
283.5529317
284.3476971
285.2397089
286.2267561
287.2988039
288.4358285
289.6073723
290.7751904
291.89895
292.9430425
293.8817503
294.7011623
295.3980463
295.9771862
296.4484788
296.8246399
297.1194822
297.3467578
297.519312
297.6485814
297.7443179
297.8145423
297.8656525
297.9026221
297.9292358
297.9483256
297.9619838
297.9717404
297.9787101
297.9837037
297.9873155
297.9900056
297.9920141
297.9936672
297.9949168
297.9972687
293.6144125
293.5312568
293.264399
292.7220851
291.648241
289.358041
284.5215327
279.3989932
278.1158641
278.1562434
278.2707525
278.3827607
278.5199317
278.6727631
278.8525178
279.0594784
279.3007968
279.5811987
279.9076857
280.2874141
280.7285439
281.2398142
281.8303291
282.5090962
283.2841262
284.1610423
285.1410096
286.2180617
287.3762904
288.5881648
289.8156978
291.0154522
292.1461258
293.175632
294.0848376
294.8672889
295.526244
296.0709991
296.513851
296.8681604
297.1472385
297.3637531
297.5293211
297.6542619
297.747433
297.8162038
297.8665273
297.9030924
297.9295095
297.9485101
297.96213
297.97187
297.97883
297.9838118
297.9874132
297.9900792
297.9920874
297.9937093
297.994929
297.9972518
293.10204
292.9698979
292.625729
291.9523331
290.620743
287.7830206
282.003467
278.0657901
277.4825349
277.5661531
277.6874375
277.8098697
277.9594717
278.1272349
278.3246431
278.5527232
278.8189786
279.1289313
279.4901868
279.9107302
280.3994981
280.9660532
281.620188
282.3712682
283.2269451
284.1912521
285.2619731
286.4275459
287.664382
288.9364221
290.1986919
291.4048088
292.5156695
293.5055969
294.3638143
295.0918657
295.69918
296.1988893
296.6050011
296.9309783
297.1892449
297.3911068
297.5467375
297.6651547
297.7541618
297.8203367
297.8690717
297.9046778
297.9305199
297.9491757
297.9625866
297.9721969
297.9790729
297.983996
297.9875553
297.9901814
297.9921741
297.9937655
297.9949581
297.9972842
292.6980172
292.5137089
292.0826731
291.249561
289.571982
285.9911889
279.7911116
277.236689
277.0354168
277.1353112
277.2660895
277.4006609
277.5646259
277.7496652
277.9673397
278.2195628
278.514198
278.857652
279.2582268
279.7248427
280.267309
280.896007
281.6212058
282.4520781
283.3949482
284.4508568
285.6124213
286.8605609
288.1625739
289.4738346
290.7442739
291.9279163
292.9913785
293.9178754
294.7059745
295.3649925
295.90967
296.3560073
296.7189235
297.0114445
297.2447787
297.428679
297.5717486
297.6816007
297.7648889
297.8273075
297.8736046
297.9076398
297.9324726
297.9504788
297.9634689
297.9728044
297.9794975
297.9842965
297.987769
297.9903287
297.9922836
297.9938378
297.9949919
297.997306
292.4079376
292.1697563
291.6466704
290.6354005
288.5345427
283.9424038
278.2532524
276.7545622
276.7628246
276.8714662
277.0134278
277.1617101
277.3416642
277.546047
277.7864184
278.0657537
278.3923655
278.7736717
279.2187799
279.7375744
280.3406413
281.0388546
281.8423583
282.7592159
283.7931915
284.940752
286.1874715
287.5050232
288.8509882
290.1735952
291.4210462
292.5518647
293.5416655
294.3841479
295.0872041
295.6669174
296.1420192
296.5301948
296.8464146
297.1027415
297.3088925
297.4729461
297.6018857
297.7018936
297.7784473
297.8363246
297.8795919
297.9116197
297.9351274
297.9522592
297.9646712
297.9736227
297.9800587
297.9846838
297.9880363
297.9905098
297.9924111
297.9939234
297.9950345
297.9973387
292.2356313
291.936852
291.3089985
290.0808043
287.4606639
281.7978964
277.2424421
276.4865147
276.6601131
276.7775246
276.9321145
277.0960818
277.2942538
277.5207791
277.7871728
278.0975933
278.4608449
278.8853536
279.3809721
279.9583558
280.6285583
281.4024688
282.2894379
283.2954695
284.420414
285.6543602
286.9738919
288.340246
289.7020222
291.0033727
292.1951767
293.2444611
294.1381488
294.8808004
295.4886541
295.9830182
296.3851108
296.7131355
296.9813501
297.2004356
297.3784362
297.5217144
297.6356515
297.7250316
297.7941789
297.8469631
297.8867638
297.9164488
297.9383803
297.9544541
297.9661558
297.9746301
297.9807442
297.9851514
297.9883542
297.9907228
297.9925562
297.9940213
297.995084
297.9973751
292.1939805
291.8262374
291.0745155
289.553107
286.2084273
279.9056178
276.7310882
276.5820935
276.7275428
276.8555931
277.0249007
277.2071718
277.4264144
277.6784089
277.9745632
278.3202444
278.7247276
279.1973592
279.7486237
280.3897404
281.1319436
281.9856803
282.9587677
284.0539401
285.2653298
286.5744782
287.9473128
289.3347078
290.6788489
291.9243139
293.0293272
293.972538
294.7531138
295.3856588
295.8930653
296.3000663
296.6288879
296.897228
297.1180251
297.3002879
297.4503022
297.5727402
297.6714525
297.7499012
297.8113178
297.8587035
297.8947723
297.9218969
297.9420811
297.9569662
297.967861
297.9757879
297.9815303
297.985685
297.9887146
297.990963
297.9927172
297.9941304
297.9951404
297.9974175
292.2884997
291.850925
290.9536175
289.0584979
284.71254
278.5710339
276.6757879
276.7963979
276.9616255
277.1041637
277.2898693
277.4926187
277.7353066
278.0155189
278.3445334
278.728935
279.1784929
279.7034296
280.3148099
281.0242235
281.8426813
282.779416
283.8394695
285.0205317
286.3088267
287.6753541
289.0748401
290.449793
291.7403239
292.8965659
293.8880457
294.7066817
295.3633878
295.8810672
296.2872091
296.6081897
296.8659589
297.0769104
297.2522475
297.3991506
297.522148
297.6243039
297.7080465
297.7756199
297.8292476
297.8711223
297.903331
297.9277731
297.9461043
297.9597148
297.9697354
297.9770642
297.9823977
297.9862732
297.9891111
297.991227
297.9928924
297.9942498
297.9952034
297.997465
292.4995441
291.9830958
290.9036272
288.5605925
283.0805979
277.8656888
277.0730484
277.1771569
277.3495721
277.508374
277.7123678
277.9379759
278.2067787
278.5182828
278.8836708
279.3107481
279.8098257
280.3919309
281.068559
281.8512611
282.7500664
283.7717467
284.9168003
286.175734
287.5248565
288.9236687
290.3169448
291.6427431
292.8444626
293.882481
294.740109
295.4225408
295.9507673
296.3537257
296.6614144
296.9002909
297.0910282
297.2481671
297.3809407
297.4946617
297.5921721
297.6750478
297.7444264
297.8014542
297.8474432
297.8838503
297.9121847
297.9339038
297.9503336
297.9626232
297.9717297
297.9784277
297.9833271
297.9869046
297.9895372
297.9915112
297.9930806
297.9943789
297.9952727
297.9975176
292.8159192
292.2034653
290.8703196
287.8962432
281.5743394
277.7059546
277.5382857
277.6927498
277.8765061
278.0541809
278.2788892
278.5302943
278.8285866
279.1752765
279.5815142
280.056253
280.6102757
281.255126
282.0022684
282.8624769
283.843756
284.9489599
286.1721048
287.4943864
288.880875
290.2802461
291.630534
292.8705471
293.9522698
294.8496711
295.5605258
296.101884
296.5024223
296.7947295
297.0094505
297.1718962
297.30077
297.4084438
297.5020995
297.5852351
297.6591247
297.724
297.7798498
297.8268477
297.8654964
297.8965937
297.9211259
297.9401454
297.9546716
297.9656263
297.9738011
297.9798514
297.9843017
297.9875691
297.9899871
297.9918124
297.9932802
297.994517
297.9953482
297.9975754
293.2373516
292.5152672
290.862908
286.9815342
280.4862354
277.9994391
278.1730265
278.3394804
278.5371165
278.7359677
278.9839673
279.2643161
279.595785
279.9818647
280.4336818
280.9611375
281.575261
282.2876437
283.109059
284.0485461
285.110798
286.2931244
287.5811852
288.9452257
290.3388928
291.7025467
292.9723512
294.0934031
295.0304739
295.7726333
296.3311223
296.7324625
297.0103766
297.1989243
297.3279068
297.4206251
297.4934053
297.5563273
297.6145584
297.6698971
297.722198
297.7705022
297.8137926
297.8513939
297.8830995
297.9091252
297.9299904
297.9463814
297.9590373
297.9686692
297.9759133
297.9813114
297.9853066
297.9882575
297.9904556
297.9921276
297.9934901
297.9946633
297.9954294
297.9976381
293.761113
292.8971459
290.8522869
285.8948185
280.109782
278.7837585
278.9407099
279.1120181
279.3273576
279.550267
279.8245796
280.1372153
280.5054978
280.9347593
281.4361083
282.0201957
282.6980889
283.4809599
284.3781737
285.3958211
286.5335827
287.7812297
289.1144219
290.4920091
291.8577423
293.1478326
294.3023185
295.2774462
296.053167
296.6332901
297.0402891
297.3073422
297.4707212
297.5641705
297.6155773
297.6457089
297.6683411
297.6912835
297.7178052
297.748159
297.7809413
297.8141558
297.8459167
297.8748167
297.9000345
297.9212778
297.9386536
297.9525214
297.9633666
297.9717075
297.9780359
297.9827879
297.986329
297.9889621
297.9909379
297.9924542
297.9937091
297.9948169
297.9955155
297.9977059
294.3900405
293.3223879
290.7311824
284.8245592
280.0502907
279.5802692
279.8266051
280.0082584
280.2432816
280.4923952
280.7953667
281.1428427
281.5508327
282.0263715
282.5805624
283.2245089
283.9689261
284.8238277
285.796106
286.8874287
288.0906439
289.385992
290.7380695
292.095532
293.3958043
294.5762234
295.5861728
296.396359
297.0022666
297.4205712
297.6820917
297.8238839
297.8826666
297.8905519
297.8728398
297.8475209
297.8258221
297.813403
297.8117991
297.8198886
297.8351719
297.8547612
297.8760294
297.8969441
297.9161569
297.9329354
297.9470258
297.958498
297.9676103
297.9747059
297.9801448
297.9842645
297.9873582
297.989676
297.9914301
297.9927899
297.993936
297.9949766
297.9956042
297.9977787
295.1159106
293.7754091
290.4306965
284.0279125
280.6309793
280.5463684
280.8172843
281.0133693
281.2705544
281.5484197
281.8831445
282.2689397
282.7206384
283.2466541
283.8578603
284.5652238
285.3784
286.305219
287.3487624
288.5046915
289.7573583
291.0763701
292.4154377
293.7157554
294.9136807
295.9532146
296.79713
297.4318725
297.8670457
298.1293959
298.2550919
298.2826482
298.2476356
298.1796721
298.1011294
298.0271882
297.9666477
297.923196
297.8968221
297.8852038
297.8849001
297.8922662
297.9040485
297.917686
297.9313813
297.9440235
297.9550457
297.9642632
297.9717319
297.9776379
297.9822209
297.985728
297.9883852
297.9903936
297.9919285
297.9931327
297.9941699
297.9951413
297.9957007
297.9978564
295.9196733
294.1954419
289.9839219
283.8002394
281.6221961
281.6204263
281.901411
282.1180371
282.4010049
282.7116271
283.0825189
283.51112
284.0110702
284.5916981
285.2633194
286.0361249
286.9179347
287.9132671
289.0199278
290.225861
291.5054948
292.8179056
294.1081597
295.3140373
296.3766739
297.251467
297.9165206
298.3733327
298.6430456
298.7593696
298.7611215
298.6863786
298.5684788
298.4340727
298.3025142
298.1862853
298.0919495
298.0214302
297.9733612
297.9443871
297.9302681
297.9267226
297.9299726
297.9370131
297.9456669
297.9545003
297.9626753
297.9697848
297.9757059
297.9804837
297.9842496
297.987168
297.9894031
297.9911101
297.9924301
297.9934807
297.9944097
297.9953108
297.995805
297.9979391
296.7862325
294.5667028
289.5261419
283.8745331
282.6609393
282.7969455
283.0873544
283.3287691
283.64015
283.9862332
284.3961364
284.8702257
285.4209872
286.0582675
286.7915006
287.6293372
288.576652
289.6331081
290.7895178
292.0246922
293.3027751
294.5737979
295.7782224
296.855605
297.7568405
298.4516958
298.9334861
299.2166207
299.3306987
299.3134587
299.2041771
299.0391536
298.848855
298.6567905
298.4793812
298.3266089
298.2030281
298.1090107
298.0420198
297.9978207
297.9715018
297.9582516
297.9538559
297.9549397
297.9590066
297.9643484
297.9698942
297.9750433
297.9795152
297.9832296
297.9862203
297.9885765
297.9904059
297.9918214
297.9929324
297.9938322
297.9946545
297.9954848
297.9959164
297.9980267
297.6570337
294.8751773
289.2130601
284.2927745
283.8679624
284.0714006
284.3733321
284.6426115
284.9843
285.3678794
285.819121
286.3409732
286.9447138
287.6400788
288.4349275
289.3351797
290.3413044
291.4464999
292.6331688
293.8705361
295.113748
296.3069653
297.3907639
298.311915
299.0341789
299.5425635
299.843951
299.9627343
299.9339193
299.796801
299.5895104
299.3457315
299.0927729
298.8510398
298.634214
298.4500195
298.301238
298.1868955
298.1034543
298.045938
298.0088755
297.9870172
297.9757891
297.97151
297.9714166
297.9735687
297.9766958
297.9800291
297.9831498
297.9858665
297.9881252
297.9899475
297.9913892
297.9925245
297.9934331
297.9941859
297.9949036
297.9956633
297.9960327
297.9981191
298.4241763
295.1401668
289.1616113
285.506295
285.19005
285.4338835
285.752419
286.053251
286.428399
286.8528135
287.348791
287.9212689
288.5799355
289.3334407
290.1870648
291.1427294
292.1952657
293.3303862
294.521633
295.7293187
296.9022072
297.9828873
298.9168179
299.6621525
300.1966931
300.5197407
300.6491945
300.6163136
300.458839
300.2157373
299.9229383
299.6110781
299.304274
299.0199988
298.7694455
298.5583374
298.3879117
298.256038
298.1583301
298.0891905
298.0426857
298.0132066
297.9958851
297.9867877
297.9829297
297.982175
297.9830831
297.9847396
297.9866049
297.988389
297.9899595
297.9912768
297.9923496
297.9932167
297.9939303
297.9945404
297.9951562
297.995846
297.9961534
297.9982161
299.0799884
295.396031
289.5281922
286.6052335
286.6303631
286.894241
287.232229
287.5680467
287.9794067
288.4470409
288.9895078
289.6129477
290.3250106
291.1322999
292.0366437
293.0349604
294.1155335
295.2560717
296.4217147
297.5657804
298.6341318
299.5723583
300.3349455
300.8934814
301.2395461
301.3845034
301.3543373
301.184309
300.9127781
300.5770839
300.2103565
299.8400523
299.48723
299.1666768
298.887369
298.6532794
298.4643123
298.3173507
298.207293
298.1280251
298.0732334
298.0370166
298.0142678
298.0008477
297.9935883
297.9901896
297.989066
297.9891779
297.9898797
297.9907945
297.9917199
297.9925611
297.9932843
297.9938957
297.9944223
297.9948946
297.9954118
297.9960327
297.9962783
297.9983179
299.6727621
295.6644395
290.1705102
287.9901116
288.1805904
288.4589504
288.8203756
289.192273
289.6400632
290.1502741
290.7376035
291.408586
292.1684705
293.0209702
293.9636319
294.9874543
296.0734542
297.1913413
298.2992064
299.3465203
300.2802659
301.0531684
301.6314677
302.0003514
302.1637477
302.1422155
301.9669609
301.6748979
301.3034812
300.8876308
300.4574259
300.0372146
299.6452263
299.2938416
298.9900894
298.7364245
298.5316078
298.3716844
298.2509521
298.162869
298.1008118
298.0586434
298.0310649
298.0137703
298.003441
297.9976402
297.9946593
297.9933506
297.9929763
297.9930825
297.9934048
297.9937986
297.9941914
297.99456
297.9949077
297.9952473
297.9956699
297.9962227
297.996406
297.9984247
300.3012453
296.0049751
290.8541637
289.5160823
289.8263645
290.1206416
290.5062714
290.9138857
291.397019
291.9476568
292.5767166
293.2902049
294.0904974
294.977431
295.9432961
296.9723514
298.0381526
299.1034158
300.1217148
301.0424712
301.8178311
302.4106498
302.7999285
302.9832883
302.9746527
302.8008868
302.4959509
302.0966612
301.6385817
301.1538166
300.6693854
300.2067226
299.7815042
299.4039863
299.0795022
298.8091987
298.5908586
298.4198174
298.28987
298.1941221
298.1256994
298.0782768
298.0464024
298.025637
298.0125388
298.0045574
297.9998802
297.9972667
297.9958985
297.9952542
297.9950137
297.994988
297.9950695
297.9952081
297.9953853
297.9955977
297.9959297
297.9964146
297.9965366
297.9985368
300.9443421
296.4951827
292.0832723
291.1639228
291.5457101
291.8601077
292.2708932
292.7141719
293.2321432
293.8213608
294.4890083
295.2393911
296.0712609
296.979505
297.9503556
298.9611164
299.9787079
300.9610515
301.8606137
302.6305227
303.231324
303.6374646
303.8401697
303.8474375
303.6804925
303.3699573
302.9506215
302.4580177
301.9252672
301.3815471
300.8509611
300.3522902
299.8989444
299.499323
299.1572921
298.8728734
298.6430153
298.462452
298.3245588
298.2221519
298.1481554
298.0960959
298.0604017
298.0365277
298.020933
298.0109731
298.0047479
298.0009369
297.9986519
297.9973118
297.9965471
297.9961287
297.9959174
297.9958387
297.9958539
297.9959449
297.9961906
297.996607
297.9966757
297.9986536
301.6586348
297.1481809
293.4892656
292.9028489
293.3269617
293.6667334
294.1039972
294.5832524
295.1357509
295.761104
296.4626799
297.241849
298.0929626
299.0052912
299.9588644
300.924777
301.8651863
302.7361906
303.4926507
304.0945029
304.5125404
304.7327462
304.7569568
304.6010799
304.2911088
303.859369
303.3401127
302.7668727
302.1700983
301.5761148
301.0063409
300.4771876
300.0000768
299.5817949
299.2249416
298.9285723
298.688922
298.5002164
298.3554799
298.2472925
298.1684177
298.1122672
298.0731767
298.046519
298.0286737
298.0169192
298.0092817
298.0043725
298.0012426
297.9992581
297.9980058
297.9972205
297.9967345
297.9964511
297.9963125
297.9962881
297.9964518
297.9967991
297.9968138
297.9987734
302.4783385
298.2414634
295.0009273
294.7276642
295.1729847
295.5440007
296.0079272
296.5213432
297.105358
297.7608952
298.487392
299.2824141
300.1354896
301.0302135
301.9410249
302.8343581
303.6701023
304.4056352
305.0011642
305.4254119
305.6598399
305.700755
305.5584445
305.2542971
304.816945
304.2789006
303.6730004
303.0304195
302.3789259
301.7421802
301.1391852
300.5842625
300.0871026
299.6530949
299.2837464
298.9772811
298.7293235
298.5336678
298.3830457
298.2698448
298.1867026
298.1269434
298.0848336
298.055683
298.0358088
298.0224267
298.0135012
298.0075853
298.0036771
298.0010965
297.9993911
297.9982636
297.9975203
297.9970443
297.9967603
297.9966266
297.9967126
297.9969897
297.99696
297.9988947
303.377185
299.3846681
296.6787403
296.6405106
297.0936416
297.4964953
297.9838495
298.5253416
299.1333236
299.80844
300.5461166
301.3396195
302.1735995
303.02644
303.8682006
304.6627249
305.3703192
305.9523723
306.3764606
306.6208342
306.6768693
306.5493656
306.2547902
305.8178961
305.2683204
304.6377395
303.9570799
303.2550552
302.5568804
301.883795
301.2526614
300.6759755
300.1619249
299.71469
299.3348331
299.0198607
298.7648734
298.5632982
298.4076225
298.2900781
298.2032053
298.1402636
298.0954696
298.0640865
298.0423833
298.0275251
298.0174252
298.0105869
298.0059623
298.0028307
298.0007048
297.9992583
297.9982745
297.9976177
297.9971964
297.9969596
297.996972
297.9971781
297.9971138
297.9990152
304.3808552
300.505336
298.4937047
298.6290223
299.0831993
299.5133137
300.0184785
300.5793192
301.2008075
301.8820723
302.614455
303.3867409
304.1790535
304.9655637
305.7136754
306.38698
306.9486877
307.3662042
307.6154357
307.6838204
307.5711408
307.2886977
306.8570577
306.3026568
305.6549828
304.9442587
304.1992877
303.4463833
302.7084116
302.0044534
301.3494948
300.7544434
300.2261837
299.7678478
299.3791788
299.0570615
298.7961442
298.5895408
298.4295347
298.3082326
298.2181008
298.1523536
298.1051737
298.0717913
298.0484391
298.0322424
298.0210718
298.0133886
298.0081049
298.0044643
298.0019485
298.0002053
297.9989968
297.9981707
297.99762
297.9972865
297.9972293
297.9973637
297.9972752
297.9991333
305.5178338
301.726607
300.4158384
300.6697402
301.1232479
301.5741246
302.0904217
302.6607592
303.2837655
303.956155
304.665313
305.3958068
306.1240749
306.8215628
307.4550338
307.9900667
308.3946965
308.6434414
308.7205172
308.6214437
308.3526094
307.9299364
307.3763746
306.7188074
305.9858331
305.2059082
304.40569
303.6092495
302.8373422
302.1071475
301.432017
300.8214792
300.2812872
299.8136608
299.4176291
299.0895354
298.8236359
298.6127761
298.4490691
298.3245216
298.231546
298.1633269
298.1140265
298.0788537
298.0540151
298.0366046
298.0244581
298.0160012
298.0101115
298.006001
298.0031241
298.0011051
297.9996873
297.9987027
297.9980305
297.9976068
297.9974833
297.997546
297.9974433
297.9992508
306.7603544
303.2510977
302.4160899
302.7453537
303.1953657
303.6590738
304.1781004
304.7463951
305.3572134
306.0043297
306.6715538
307.3399342
307.9834619
308.5725905
309.0753962
309.461229
309.7040919
309.7858259
309.6981987
309.4433088
309.0323968
308.4843908
307.823324
307.07569
306.2687817
305.4291864
304.5815142
303.7477988
302.9469291
302.1944237
301.5022142
300.878631
300.3284417
299.8530684
299.4509144
299.1178484
298.8477846
298.6333377
298.4664782
298.3391342
298.2436804
298.1732852
298.1221011
298.0853253
298.0591468
298.0406359
298.0276002
298.0184352
298.0119885
298.0074447
298.0042336
298.0019586
298.000346
297.9992135
297.9984272
297.9979198
297.9977331
297.9977243
297.9976182
297.999366
308.0734733
304.9150682
304.4636525
304.8386689
305.2804481
305.7474091
306.25904
306.812258
307.3958934
308.0007159
308.6076233
309.1951875
309.7363984
310.2024114
310.5642024
310.7960187
310.8781913
310.7994019
310.5577833
310.1604391
309.6219509
308.9629556
308.2076616
307.3816617
306.5107614
305.6197118
304.7312407
303.8655671
303.0399455
302.2684506
301.561781
300.9272235
300.3686832
299.886881
299.4796677
299.1424932
298.8689718
298.6515187
298.4819852
298.3522384
298.2546289
298.1823198
298.1294633
298.0912529
298.063867
298.0443587
298.030513
298.0207001
298.013742
298.0087988
298.0052788
298.0027665
298.000973
297.9997024
297.9988096
297.9982249
297.9979774
297.9978985
297.9977992
297.9994777
309.4546454
306.6919371
306.5314712
306.928789
307.3580268
307.8172087
308.3099616
308.8342079
309.3752544
309.9212377
310.4510795
310.9420925
311.3676683
311.7010549
311.9171709
311.9956107
311.9227635
311.6932443
311.3102213
310.7843801
310.1324371
309.375766
308.5381723
307.6440823
306.7177845
305.782309
304.8586942
303.9655639
303.1187506
302.3310755
301.6121647
300.9683921
300.4029036
299.915799
299.5044385
299.1638996
298.8875319
298.6675772
298.4957874
298.3639834
298.264503
298.1905129
298.1361729
298.0966791
298.0682056
298.0477937
298.0332105
298.0228052
298.0153777
298.010067
298.0062617
298.0035297
298.0015685
298.0001694
297.9991772
297.9985217
297.9982153
297.9980683
297.9979858
297.9995845
310.8972586
308.5464305
308.603072
308.9959387
309.4059557
309.8453825
310.3068613
310.7881762
311.2720049
311.7444438
312.1834494
312.5662469
312.867779
313.0643329
313.1352547
313.0653826
312.8464897
312.47804
311.9669751
311.3263943
310.5742255
309.7319264
308.8225661
307.869309
306.8949889
305.9210738
304.9671109
304.0503336
303.1853411
302.3838659
301.6545979
301.0031077
300.431869
299.9404272
299.5257034
299.182442
298.9037572
298.68174
298.5080592
298.3745016
298.273402
298.1979381
298.1422835
298.1016425
298.0721901
298.0509599
298.0357058
298.0247593
298.0169014
298.0112525
298.0071841
298.0042491
298.0021325
298.000614
297.9995296
297.9988094
297.9984455
297.9982337
297.9981768
297.999685
312.3805128
310.4437417
310.6443709
311.0156795
311.3986598
311.8067598
312.2252129
312.6510774
313.0652993
313.4526305
313.790997
314.0585352
314.23256
314.2928931
314.2233257
314.0134629
313.659595
313.1649619
312.5391994
311.7969232
310.9566058
310.0394013
309.0674779
308.0627512
307.0467164
306.0394555
305.0592139
304.1220199
303.2414042
302.4281518
301.6901311
301.0322026
300.4562394
299.9612893
299.5438774
299.1984479
298.917905
298.6942075
298.518955
298.3839111
298.2814149
298.2046617
298.1478438
298.1061785
298.0758455
298.0538751
298.0380108
298.0265703
298.0183182
298.0123586
298.008048
298.0049256
298.0026655
298.001036
297.9998665
297.9990874
297.9986672
297.9983949
297.9983703
297.9997774
313.8586943
312.3438989
312.6188822
312.9634919
313.31174
313.6784673
314.0439814
314.4043304
314.7395961
315.0339514
315.2660893
315.4157937
315.4632209
315.391827
315.1895329
314.8500395
314.3732633
313.7652732
313.0375429
312.205551
311.2878806
310.3051747
309.2786492
308.2290478
307.1766725
306.1403916
305.137323
304.1824528
303.2883853
302.4650773
301.7196731
301.0564
300.4765916
299.9788452
299.5593263
299.2122075
298.9302041
298.7051585
298.5286136
298.3923182
298.2886225
298.2107442
298.1528986
298.1103196
298.0791952
298.0565555
298.0401372
298.0282461
298.0196334
298.0133887
298.0088552
298.0055603
298.0031677
298.0014354
298.0001878
297.999355
297.9988792
297.9985521
297.9985623
297.9998608
315.3332545
314.212993
314.5062591
314.8176476
315.1245814
315.4417082
315.7465313
316.0340935
316.2844073
316.4817231
316.6060966
316.6393783
316.5646987
316.368954
316.0436904
315.5859849
314.9985714
314.289576
313.4716689
312.5607457
311.5752493
310.5352217
309.4609466
308.3721089
307.2879727
306.2263516
305.2033914
304.2331783
303.3275106
302.4956186
301.7440033
301.0763243
300.4934263
299.9934965
299.5723717
299.223977
298.9408572
298.7147527
298.5371594
298.3998188
298.2950978
298.2162404
298.1574886
298.1140957
298.0822609
298.0590169
298.0420956
298.0297942
298.0208518
298.014346
298.0096077
298.0061542
298.0036395
298.0018121
298.0004932
297.9996117
297.9990809
297.9987055
297.9987495
297.9999383
316.7865756
316.0110352
316.2878408
316.5607252
316.8206039
317.0817996
317.3206144
317.5311683
317.6939979
317.7938716
317.8125499
317.7340853
317.5444635
317.2336556
316.7962655
316.2320743
315.5459573
314.7475047
313.8501289
312.8698633
311.8248847
310.7346203
309.6184846
308.4952386
307.3832527
306.299431
305.2590847
304.2755224
303.3598392
302.5206242
301.763804
301.0925251
300.507187
300.0056004
299.5833008
299.2339863
298.9500473
298.7231342
298.544705
298.4065001
298.3009075
298.221201
298.1616516
298.1175348
298.085063
298.0612736
298.0438966
298.0312216
298.0219784
298.0152335
298.0103076
298.0067084
298.0040815
298.0021663
298.0007829
297.9998565
297.9992713
297.9988557
297.998931
298.0000166
318.2026774
317.7062519
317.946995
318.1775341
318.3868534
318.5885667
318.7590267
318.8915754
318.9676827
318.972909
318.8908403
318.7076716
318.4119834
317.9963959
317.4580283
316.7987931
316.0251745
315.1477948
314.1805067
313.1393266
312.0421156
310.9077192
309.7547732
308.6012545
307.4647607
306.361422
305.3058331
304.3106297
303.3862904
302.5408354
301.7796748
301.1054886
300.5182678
300.0154763
299.5923712
299.2424421
298.9579394
298.7304338
298.551353
298.4124418
298.3061129
298.2256724
298.1654226
298.1206628
298.0876204
298.0633396
298.0455497
298.0325353
298.0230178
298.0160545
298.0109568
298.0072241
298.0044941
298.0024981
298.0010566
298.0000887
297.9994504
297.9990034
297.9991068
298.0000866
319.5631827
319.2752486
319.4715109
319.6573881
319.8149971
319.9564606
320.059102
320.1156066
320.1085763
320.0244773
319.8486852
319.5693765
319.1774108
318.6676431
318.0392345
317.2957675
316.4449349
315.4980914
314.469345
313.3746208
312.2314622
311.0581971
309.8727856
308.6925457
307.5344103
306.4138588
305.3448699
304.3394947
303.4076695
302.5569068
301.7921491
301.1156501
300.5270238
300.0234131
299.5998173
299.2495336
298.9646849
298.7367717
298.5571981
298.4177177
298.310771
298.2296983
298.1688346
298.1235042
298.0899513
298.0652281
298.0470647
298.0337421
298.0239748
298.0168122
298.0115573
298.0077026
298.0048779
298.002808
298.0013146
298.0003076
297.9996183
297.999148
297.9992688
298.0001503
320.8518646
320.7015939
320.8527209
320.993736
321.1010325
321.1843243
321.2223438
321.2072262
321.1227902
320.9564427
320.6952407
320.3291455
319.8509768
319.2574531
318.5493886
317.7316778
316.8129343
315.8050497
314.7222821
313.5804352
312.3967762
311.1891917
309.9750652
308.7711558
307.5938489
306.4580718
305.3772725
304.3629937
303.4246918
302.5694244
301.8017081
301.1234048
300.5337793
300.0296762
299.605855
299.2554356
298.9704243
298.7422601
298.562329
298.4223974
298.3149357
298.2333201
298.1719189
298.1260828
298.0920734
298.0669519
298.0484509
298.0348487
298.0248542
298.0175098
298.0121115
298.0081453
298.0052338
298.0030964
298.0015568
298.0005125
297.9997751
297.9992872
297.9994162
298.0002122
322.0549082
321.9750912
322.0872344
322.1858964
322.246452
322.275744
322.2541564
322.1734263
322.0186238
321.7780792
321.4403786
320.9970477
320.4425687
319.7752059
318.9971167
318.1142389
317.1359097
316.0744357
314.9441664
313.7607845
312.5413569
311.3033989
310.0638014
308.8388531
307.6445151
306.4952325
305.4039985
304.3819124
303.4380049
302.5789229
301.808794
301.1291181
300.5388356
300.034513
299.6106867
299.2603124
298.9752903
298.747005
298.5668299
298.426547
298.3186586
298.2365775
298.174706
298.1284215
298.0940037
298.0685239
298.0497177
298.0358619
298.0256607
298.0181507
298.0126217
298.0085537
298.0055626
298.003364
298.0017833
298.0007031
297.999921
297.999419
297.9995552
298.0002703
323.1630518
323.100143
323.1795077
323.2392472
323.2573134
323.2376868
323.1624329
323.0229478
322.8054727
322.4991772
322.0939876
321.5827665
320.9613954
320.2294209
319.3901019
318.4502232
317.4197145
316.3112232
315.1391579
313.9191169
312.6680457
311.403146
310.1408855
308.8971883
307.6876814
306.5263872
305.4259114
304.3969664
303.448203
302.585897
301.8138184
301.1331322
300.5424762
300.0381571
299.6145038
299.2643197
298.9794085
298.7511073
298.570781
298.4302299
298.3219892
298.2395089
298.1772254
298.1305427
298.0957593
298.0699566
298.0508744
298.0367884
298.0263994
298.0187385
298.0130903
298.0089293
298.0058653
298.0036116
298.0019942
298.0008788
298.0000561
297.9995433
297.9996964
298.0003167
324.1378954
324.0875589
324.1372957
324.1619995
324.142269
324.0793297
323.9568119
323.7657708
323.4934653
323.1297959
322.6658283