/*--------------------------------*- C++ -*----------------------------------*\
  =========                 |
  \\      /  F ield         | OpenFOAM: The Open Source CFD Toolbox
   \\    /   O peration     | Website:  https://openfoam.org
    \\  /    A nd           | Version:  12
     \\/     M anipulation  |
\*---------------------------------------------------------------------------*/
FoamFile
{
    format      ascii;
    class       volScalarField;
    location    "0.134";
    object      nut;
}
// * * * * * * * * * * * * * * * * * * * * * * * * * * * * * * * * * * * * * //

dimensions      [0 2 -1 0 0 0 0];

internalField   nonuniform List<scalar> 
16000
(
4.6678373e-07
9.8825376e-06
1.7895652e-05
2.3818342e-05
1.8280491e-05
2.5064656e-05
1.7711093e-05
2.4246334e-05
1.8904025e-05
2.6048184e-05
2.1909858e-05
2.5750162e-05
2.3464833e-05
2.4093645e-05
2.3274068e-05
2.3140774e-05
2.2896326e-05
2.2828941e-05
2.2838742e-05
2.2946121e-05
2.314332e-05
2.3429775e-05
2.3802999e-05
2.4262963e-05
2.4811758e-05
2.5455225e-05
2.620121e-05
2.7062305e-05
2.8053852e-05
2.9192365e-05
3.049595e-05
3.1988675e-05
3.3701635e-05
3.5673157e-05
3.7950417e-05
4.0589697e-05
4.3658051e-05
4.7235436e-05
5.1420836e-05
5.6336924e-05
6.2127674e-05
6.8962618e-05
7.7055529e-05
8.6668301e-05
9.81126e-05
0.00011176214
0.00012808025
0.0001476316
0.00017110387
0.00019933565
0.00023335457
0.0002744236
0.00032409074
0.00038425879
0.00045726852
0.00054601247
0.00065407689
0.0007859261
0.00094714469
0.0010194949
0.0010193383
0.0010191499
0.0010189046
0.0010185711
0.00101814
0.0010175965
0.0010169289
0.0010161252
0.0010151604
0.001013979
0.0010125147
0.0010107999
0.0010090115
0.001007617
0.0010064959
0.0010056539
0.0010051549
0.0010051126
0.0010048487
0.0010062412
4.1614288e-07
9.3851027e-06
1.9808975e-05
2.1424612e-05
1.6505604e-05
2.2521065e-05
1.5745637e-05
2.1280977e-05
1.6729922e-05
2.3053251e-05
1.9867635e-05
2.3253136e-05
2.1490327e-05
2.1863376e-05
2.1222718e-05
2.1038472e-05
2.0834713e-05
2.0762833e-05
2.0773863e-05
2.0871735e-05
2.1053673e-05
2.1318758e-05
2.1665139e-05
2.2092868e-05
2.2603568e-05
2.3202713e-05
2.3897111e-05
2.4698109e-05
2.562023e-05
2.6679582e-05
2.7893021e-05
2.9282539e-05
3.0876916e-05
3.2711647e-05
3.4830881e-05
3.7287556e-05
4.0145163e-05
4.3478871e-05
4.7380919e-05
5.1967504e-05
5.7377066e-05
6.3769315e-05
7.1345669e-05
8.0355969e-05
9.1099761e-05
0.00010393251
0.0001192965
0.00013773266
0.00015990136
0.00018660843
0.00021884162
0.0002578181
0.00030503172
0.00036232206
0.0004319543
0.00051673061
0.00062013011
0.00074648093
0.00090118769
0.0010187756
0.0010186311
0.0010184211
0.0010181607
0.0010178124
0.0010173667
0.0010168085
0.0010161274
0.0010153164
0.0010143593
0.0010132078
0.0010117906
0.0010101324
0.0010084138
0.0010070721
0.001005998
0.0010051881
0.0010047056
0.0010045216
0.0010046548
0.0010062238
3.7998021e-07
9.0025345e-06
1.8763334e-05
1.9587746e-05
1.4802615e-05
1.9858321e-05
1.4040411e-05
1.852208e-05
1.5063373e-05
2.025343e-05
1.8138374e-05
2.0732022e-05
1.9491968e-05
1.9604386e-05
1.9111304e-05
1.8905715e-05
1.8734176e-05
1.8667732e-05
1.8681954e-05
1.877467e-05
1.8944435e-05
1.9190667e-05
1.9511839e-05
1.9908264e-05
2.0381193e-05
2.093591e-05
2.1578493e-05
2.2319221e-05
2.3171627e-05
2.4151412e-05
2.527458e-05
2.6561477e-05
2.8038956e-05
2.9740056e-05
3.1706223e-05
3.3987298e-05
3.6643588e-05
3.9746472e-05
4.3382482e-05
4.7661271e-05
5.2716661e-05
5.870071e-05
6.5804126e-05
7.4265326e-05
8.4374001e-05
9.64706e-05
0.00011097944
0.00012842118
0.00014943295
0.00017479342
0.00020545667
0.00024260123
0.00028767497
0.00034246415
0.00040917003
0.00049051742
0.00058989301
0.00071151426
0.00086064005
0.0010181001
0.001017969
0.0010177319
0.0010174481
0.0010170774
0.00101661
0.001016031
0.0010153313
0.0010145071
0.0010135488
0.0010124157
0.0010110345
0.0010094217
0.0010077899
0.0010065122
0.0010054954
0.0010047301
0.001004246
0.0010040173
0.0010043349
0.0010054827
3.4189617e-07
8.7151118e-06
1.7833933e-05
1.8248637e-05
1.3327266e-05
1.7555759e-05
1.252915e-05
1.6206635e-05
1.3576094e-05
1.7874266e-05
1.6577905e-05
1.849605e-05
1.7643305e-05
1.7564892e-05
1.7181651e-05
1.6974842e-05
1.6831422e-05
1.6775249e-05
1.6795215e-05
1.6886149e-05
1.7047173e-05
1.7278099e-05
1.7577744e-05
1.7946801e-05
1.8386274e-05
1.8901394e-05
1.9497761e-05
2.0184806e-05
2.0975128e-05
2.1884095e-05
2.2927156e-05
2.4123256e-05
2.5497688e-05
2.708138e-05
2.8913493e-05
3.1041192e-05
3.3522033e-05
3.6424421e-05
3.983034e-05
4.384334e-05
4.859368e-05
5.4227599e-05
6.0927188e-05
6.8920688e-05
7.849065e-05
8.9965934e-05
0.00010375661
0.00012036756
0.00014041795
0.00016466649
0.00019404162
0.00022969345
0.00027303596
0.00032581703
0.0003901925
0.00046883239
0.00056505758
0.00068300986
0.00082785729
0.0010060384
0.0010173555
0.0010170884
0.0010167766
0.0010163795
0.0010158872
0.0010152857
0.0010145664
0.0010137276
0.001012765
0.0010116459
0.0010102978
0.0010087202
0.0010071758
0.0010059631
0.0010050052
0.0010042819
0.0010037895
0.0010035572
0.0010039651
0.0010047392
3.0335879e-07
8.5012553e-06
1.7019982e-05
1.8258553e-05
1.3318826e-05
1.5543761e-05
1.1197529e-05
1.4215975e-05
1.2292932e-05
1.5816433e-05
1.5184647e-05
1.6475098e-05
1.5912179e-05
1.5704694e-05
1.5402976e-05
1.5209185e-05
1.5089164e-05
1.5044001e-05
1.5068617e-05
1.5157224e-05
1.5309164e-05
1.5524816e-05
1.5803379e-05
1.614604e-05
1.65537e-05
1.7031607e-05
1.7585024e-05
1.8222715e-05
1.8956351e-05
1.9800924e-05
2.0771518e-05
2.1885914e-05
2.3168111e-05
2.4647213e-05
2.6360408e-05
2.8352531e-05
3.0678671e-05
3.3404812e-05
3.6609519e-05
4.0390523e-05
4.4875066e-05
5.0205008e-05
5.6555692e-05
6.4145791e-05
7.3252403e-05
8.4195336e-05
9.7372858e-05
0.00011327687
0.00013251162
0.00015582023
0.00018411004
0.00021850843
0.00026040175
0.00031150701
0.00037394381
0.00045033794
0.00054395692
0.00065888023
0.00080020357
0.00097427281
0.0010167882
0.0010164885
0.0010161441
0.0010157163
0.0010151956
0.001014569
0.0010138284
0.0010129729
0.0010120015
0.0010108897
0.0010095715
0.0010080294
0.0010065752
0.0010054299
0.0010045323
0.001003849
0.0010033485
0.0010031165
0.0010035462
0.0010040676
2.7776216e-07
8.3725981e-06
1.6368126e-05
1.8034436e-05
1.3096837e-05
1.3778857e-05
1.0601799e-05
1.25673e-05
1.142345e-05
1.4079658e-05
1.3961925e-05
1.4696868e-05
1.4327705e-05
1.4044e-05
1.379389e-05
1.3615349e-05
1.3510511e-05
1.3472284e-05
1.3497981e-05
1.3582098e-05
1.3723954e-05
1.3924417e-05
1.4182894e-05
1.4500977e-05
1.4879568e-05
1.5323886e-05
1.5838921e-05
1.6432916e-05
1.7116643e-05
1.7904683e-05
1.8811926e-05
1.985521e-05
2.1057512e-05
2.2446415e-05
2.4057493e-05
2.5933643e-05
2.8127864e-05
3.070421e-05
3.3739048e-05
3.7325089e-05
4.1586808e-05
4.6663194e-05
5.2725229e-05
5.9982914e-05
6.8709752e-05
7.9219479e-05
9.1901515e-05
0.0001072384
0.0001258231
0.00014838874
0.00017582739
0.00020925101
0.00025002686
0.00029985105
0.00036081954
0.0004355289
0.0005272107
0.00063990221
0.00077865184
0.00094974769
0.0010162621
0.0010159279
0.0010155472
0.0010150856
0.0010145337
0.0010138801
0.0010131168
0.0010122431
0.0010112597
0.0010101493
0.0010088572
0.0010073523
0.0010059909
0.0010049152
0.0010040782
0.0010034334
0.00100293
0.001002699
0.0010031035
0.001003266
2.5557582e-07
8.3016057e-06
1.5858747e-05
1.7066199e-05
1.2996054e-05
1.2179633e-05
1.0645797e-05
1.1584561e-05
1.0993267e-05
1.2571082e-05
1.2861335e-05
1.3123213e-05
1.2855206e-05
1.2537926e-05
1.2317047e-05
1.2153918e-05
1.2060301e-05
1.2027845e-05
1.2054314e-05
1.213477e-05
1.2268224e-05
1.2455972e-05
1.2697355e-05
1.2917958e-05
1.3262404e-05
1.3669866e-05
1.4144616e-05
1.469418e-05
1.5328247e-05
1.6060655e-05
1.6906062e-05
1.788039e-05
1.9005671e-05
2.0308033e-05
2.1821546e-05
2.3587328e-05
2.5656411e-05
2.8090944e-05
3.0965848e-05
3.4629126e-05
3.8709326e-05
4.3580342e-05
4.941122e-05
5.6404507e-05
6.4831157e-05
7.5001753e-05
8.729974e-05
0.0001022016
0.00012029215
0.00014229971
0.00016910623
0.00020181491
0.0002417815
0.00029069003
0.00035062383
0.00042416344
0.0005145198
0.00062570506
0.00076274115
0.00093188698
0.0010157738
0.0010154034
0.0010149836
0.0010144855
0.0010139003
0.0010132177
0.0010124304
0.0010115373
0.0010105397
0.001009425
0.0010081548
0.0010066955
0.0010054284
0.0010044235
0.0010036461
0.0010030396
0.0010025405
0.0010023036
0.0010026495
0.0010025422
2.3154133e-07
8.2613052e-06
1.5422221e-05
1.5526251e-05
1.1899e-05
1.0616667e-05
9.1979451e-06
1.0339224e-05
9.6526265e-06
1.1302286e-05
1.174929e-05
1.1674417e-05
1.1446585e-05
1.1136899e-05
1.094005e-05
1.0796915e-05
1.0716991e-05
1.069323e-05
1.0658403e-05
1.0722449e-05
1.0839509e-05
1.1009986e-05
1.1231481e-05
1.1504392e-05
1.1832815e-05
1.2219792e-05
1.2669852e-05
1.3190454e-05
1.3790742e-05
1.4484121e-05
1.5285437e-05
1.621012e-05
1.727974e-05
1.8519501e-05
1.9962575e-05
2.1648942e-05
2.3628426e-05
2.5961982e-05
2.8723972e-05
3.2004927e-05
3.5915201e-05
4.0594522e-05
4.6211825e-05
5.3410313e-05
6.1617457e-05
7.1544331e-05
8.3571637e-05
9.8173021e-05
0.00011592842
0.00013756684
0.00016396563
0.00019622619
0.00023570103
0.00028407149
0.00034341998
0.00041632531
0.00050599445
0.0006164334
0.00075265922
0.00092093116
0.0010153185
0.0010149101
0.0010144493
0.0010139131
0.0010132929
0.0010125798
0.0010117672
0.0010108539
0.0010098413
0.001008718
0.001007464
0.001006063
0.0010048905
0.0010039569
0.0010032371
0.0010026702
0.001002185
0.0010019375
0.0010022132
0.0010018957
2.1085948e-07
8.2214218e-06
1.4966238e-05
1.3590555e-05
9.7840109e-06
9.4379052e-06
7.584355e-06
8.817925e-06
8.9873997e-06
1.0164513e-05
1.0617879e-05
1.0324485e-05
1.0115881e-05
9.8377082e-06
9.6652976e-06
9.4777645e-06
9.3885867e-06
9.3603763e-06
9.3855857e-06
9.4613958e-06
9.5836704e-06
9.7539079e-06
9.9712399e-06
1.0235561e-05
1.0551048e-05
1.0921631e-05
1.1351891e-05
1.1849319e-05
1.2422685e-05
1.3084943e-05
1.3851219e-05
1.473668e-05
1.5762717e-05
1.6953883e-05
1.8342789e-05
1.9968715e-05
2.1880743e-05
2.4139149e-05
2.6817603e-05
3.0005741e-05
3.3814133e-05
3.8380331e-05
4.3875826e-05
5.049946e-05
5.8506205e-05
6.8213302e-05
8.0708615e-05
9.5143429e-05
0.00011272215
0.00013417977
0.00016039484
0.00019247406
0.00023177507
0.00027998622
0.00033920083
0.00041201076
0.00050163633
0.0006120971
0.00074842683
0.00091691317
0.0010148909
0.0010144432
0.0010139401
0.0010133648
0.0010127085
0.0010119638
0.0010111249
0.0010101911
0.0010091638
0.0010080303
0.0010067852
0.0010054592
0.0010043805
0.0010035175
0.0010028528
0.0010023275
0.0010018686
0.0010016092
0.0010017935
0.0010013983
1.9456877e-07
8.1797126e-06
1.3456578e-05
1.1834307e-05
7.9132433e-06
8.3877861e-06
6.7447977e-06
7.954394e-06
8.3190989e-06
9.0883468e-06
9.4954748e-06
9.0919554e-06
8.8901569e-06
8.5652419e-06
8.3838962e-06
8.2664009e-06
8.2097644e-06
8.2055127e-06
8.2477399e-06
8.3331321e-06
8.462383e-06
8.6329994e-06
8.8472439e-06
9.1051408e-06
9.4110576e-06
9.7693161e-06
1.0184647e-05
1.0664698e-05
1.1218002e-05
1.1857091e-05
1.2597423e-05
1.3454201e-05
1.4448861e-05
1.5605574e-05
1.6956705e-05
1.8541231e-05
2.0407918e-05
2.2616886e-05
2.524202e-05
2.8373257e-05
3.2121124e-05
3.662262e-05
4.2052175e-05
4.8608515e-05
5.654862e-05
6.619144e-05
7.7930321e-05
9.2227156e-05
0.00011067087
0.00013213782
0.00015839621
0.00019056496
0.00023001595
0.00027845469
0.00033799799
0.00041126631
0.00050151197
0.00061278977
0.00075017335
0.00092000603
0.0010144853
0.001013997
0.0010134511
0.0010128362
0.0010121436
0.0010113668
0.0010105013
0.0010095468
0.0010085057
0.0010073633
0.0010061174
0.0010048881
0.0010039011
0.0010031073
0.0010024946
0.0010020125
0.001001591
0.0010013205
0.0010013879
0.0010009438
1.7940786e-07
8.1332072e-06
1.0691855e-05
9.8180264e-06
6.4992183e-06
7.4652103e-06
6.1454325e-06
7.143156e-06
7.7785113e-06
8.1102313e-06
8.3923809e-06
7.8837243e-06
7.6358356e-06
7.4081383e-06
7.272617e-06
7.1927943e-06
7.1639715e-06
7.1801761e-06
7.2372957e-06
7.333748e-06
7.4670879e-06
7.6396355e-06
7.8528077e-06
8.107088e-06
8.4069396e-06
8.7571149e-06
9.1626086e-06
9.6312746e-06
1.0171606e-05
1.0795785e-05
1.1460531e-05
1.2289548e-05
1.3254417e-05
1.4378907e-05
1.5695124e-05
1.7241772e-05
1.9067373e-05
2.1231937e-05
2.3809681e-05
2.6891114e-05
3.0587727e-05
3.5312551e-05
4.0732599e-05
4.7289594e-05
5.5242658e-05
6.4913659e-05
7.6706565e-05
9.1093549e-05
0.00010867037
0.00013018016
0.00015796677
0.00019050008
0.00023043067
0.00027949193
0.00033983737
0.00041413279
0.0005056823
0.00061859981
0.00075802446
0.00093038176
0.0010140959
0.0010135658
0.001012977
0.0010123225
0.0010115941
0.0010107857
0.0010098942
0.0010089193
0.0010078643
0.0010067172
0.0010054614
0.0010043527
0.0010034543
0.0010027283
0.0010021649
0.001001725
0.0010013491
0.0010010799
0.0010010288
0.0010005688
1.6606974e-07
8.0856049e-06
8.4352959e-06
8.34833e-06
5.7130809e-06
6.6079016e-06
5.6389061e-06
6.4334722e-06
7.2265863e-06
7.1958027e-06
7.1956676e-06
6.7624336e-06
6.5592615e-06
6.3905797e-06
6.2940404e-06
6.2456134e-06
6.2406079e-06
6.2750918e-06
6.3452876e-06
6.4510563e-06
6.5910931e-06
6.7670359e-06
6.9814118e-06
7.2351706e-06
7.5328576e-06
7.8456703e-06
8.2397171e-06
8.6962408e-06
9.2235973e-06
9.8335293e-06
1.0540181e-05
1.1361969e-05
1.2319649e-05
1.3437056e-05
1.4746588e-05
1.6287338e-05
1.8108403e-05
2.0270558e-05
2.2849471e-05
2.593752e-05
2.9648763e-05
3.4125757e-05
3.9543186e-05
4.611053e-05
5.4091e-05
6.4366673e-05
7.6326198e-05
9.0935908e-05
0.00010880144
0.0001306879
0.00015753072
0.00019227826
0.00023302499
0.00028311309
0.00034474664
0.00042065472
0.00051421461
0.00062962548
0.00077212158
0.00094823653
0.0010137168
0.0010131437
0.0010125125
0.0010118192
0.001011056
0.0010102175
0.0010093016
0.0010083075
0.0010072369
0.00100609
0.0010048592
0.0010038555
0.001003042
0.0010023821
0.0010018665
0.0010014647
0.0010011327
0.0010008845
0.0010007483
0.0010002866
1.5415417e-07
8.0274584e-06
6.7068785e-06
7.3223187e-06
5.0870964e-06
5.8416367e-06
5.2026737e-06
5.8033319e-06
6.5694318e-06
6.1584458e-06
6.1149194e-06
5.7806815e-06
5.6186597e-06
5.4977052e-06
5.4345446e-06
5.4131956e-06
5.4293481e-06
5.4804866e-06
5.5637678e-06
5.6796065e-06
5.8273141e-06
6.0088281e-06
6.2006904e-06
6.4514695e-06
6.745787e-06
7.0877978e-06
7.4845352e-06
7.943525e-06
8.4733391e-06
9.0859177e-06
9.795551e-06
1.0620426e-05
1.1582532e-05
1.2706055e-05
1.4023935e-05
1.5576012e-05
1.7412486e-05
1.9595393e-05
2.2202543e-05
2.5329185e-05
2.9092145e-05
3.3637047e-05
3.9147362e-05
4.5837646e-05
5.3979061e-05
6.3909012e-05
7.6046844e-05
9.0899712e-05
0.00011005334
0.0001325083
0.000160067
0.00019392272
0.00023779562
0.00028932391
0.00035274315
0.00043086522
0.00052716364
0.00064595053
0.00079259064
0.00097375404
0.0010133422
0.0010127253
0.0010120526
0.0010113216
0.0010105253
0.0010096591
0.0010087214
0.0010077116
0.0010066248
0.0010054715
0.0010043097
0.0010033996
0.0010026656
0.0010020699
0.0010016017
0.0010012341
0.0010009369
0.0010007278
0.0010005735
0.0010001085
1.4350994e-07
7.9556094e-06
5.3754648e-06
6.391132e-06
4.5293571e-06
5.1592419e-06
4.8293991e-06
5.1610859e-06
5.7443437e-06
5.2567277e-06
5.1659673e-06
4.9210148e-06
4.797684e-06
4.7165804e-06
4.6830113e-06
4.6860337e-06
4.7219264e-06
4.7892322e-06
4.8858698e-06
4.9939167e-06
5.1451713e-06
5.3300748e-06
5.5508842e-06
5.8105498e-06
6.1133321e-06
6.4637703e-06
6.8688217e-06
7.3366397e-06
7.87602e-06
8.4990625e-06
9.2201774e-06
1.0057773e-05
1.0984338e-05
1.2114866e-05
1.3441897e-05
1.5005994e-05
1.6858659e-05
1.9063247e-05
2.1699751e-05
2.4866793e-05
2.8684969e-05
3.3557035e-05
3.9212155e-05
4.6088266e-05
5.4465586e-05
6.4690826e-05
7.7202907e-05
9.2530787e-05
0.00011132259
0.00013561667
0.00016412426
0.00019916294
0.0002422536
0.0002981122
0.00036382422
0.00044477388
0.00054455694
0.0006676265
0.00081951845
0.0010070777
0.0010129669
0.0010123058
0.0010115932
0.0010108261
0.0010099989
0.0010091075
0.0010081509
0.0010071295
0.0010060323
0.0010048595
0.0010038141
0.0010029876
0.0010023263
0.0010017926
0.001001372
0.0010010377
0.0010007656
0.0010005987
0.0010004953
0.0010000163
1.3401834e-07
7.8254839e-06
4.3589478e-06
5.5620106e-06
4.0303859e-06
4.5512785e-06
4.5013472e-06
4.4634107e-06
4.9121667e-06
4.4520395e-06
4.3429168e-06
4.1715033e-06
4.0849518e-06
4.0382978e-06
4.0316205e-06
4.0571849e-06
4.1119795e-06
4.1786227e-06
4.2837037e-06
4.4188098e-06
4.5847947e-06
4.7831771e-06
5.0169024e-06
5.2891288e-06
5.604684e-06
5.9683733e-06
6.387221e-06
6.849103e-06
7.398802e-06
8.0328769e-06
8.7657788e-06
9.6159307e-06
1.060586e-05
1.176388e-05
1.3123776e-05
1.472741e-05
1.6628578e-05
1.8892968e-05
2.1603683e-05
2.486426e-05
2.8800726e-05
3.3571945e-05
3.9370119e-05
4.6432087e-05
5.5049783e-05
6.613321e-05
7.9126668e-05
9.5056313e-05
0.00011460126
0.00013859953
0.00016966323
0.00020616371
0.00025106879
0.00030633112
0.00037795167
0.00046234847
0.00056637226
0.00069464561
0.00085291683
0.00101326
0.0010125859
0.0010118816
0.0010111309
0.0010103297
0.0010094739
0.0010085601
0.0010075871
0.0010065541
0.0010054584
0.0010043099
0.001003371
0.0010026214
0.0010020256
0.001001551
0.0010011773
0.0010008773
0.0010006273
0.0010004933
0.0010004184
0.00099995153
1.2559564e-07
7.5022723e-06
3.6552579e-06
4.8258529e-06
3.5856146e-06
4.0120769e-06
3.9890631e-06
3.8317778e-06
4.1108602e-06
3.7404484e-06
3.6372357e-06
3.5244464e-06
3.4723534e-06
3.4560973e-06
3.4740194e-06
3.507679e-06
3.5745307e-06
3.6703729e-06
3.7944147e-06
3.9469035e-06
4.1293231e-06
4.3437142e-06
4.5934444e-06
4.8819606e-06
5.2025905e-06
5.5802837e-06
6.0135923e-06
6.5106407e-06
7.0816454e-06
7.7387761e-06
8.4968567e-06
9.3750518e-06
1.0396806e-05
1.1591501e-05
1.299524e-05
1.4651411e-05
1.6616665e-05
1.8959762e-05
2.1767185e-05
2.5148584e-05
2.9234974e-05
3.4193141e-05
4.0227697e-05
4.7585961e-05
5.6576148e-05
6.7576543e-05
8.1772666e-05
9.8430267e-05
0.000118877
0.00014400094
0.00017487216
0.00021485614
0.00026190585
0.0003198233
0.00039113027
0.0004834904
0.00059250818
0.00072690713
0.00089268108
0.0010129034
0.0010121952
0.0010114505
0.0010106635
0.0010098304
0.0010089481
0.0010080146
0.0010070276
0.00100598
0.0010048785
0.0010038217
0.0010029805
0.0010023017
0.0010017645
0.0010013461
0.0010010162
0.0010007488
0.0010005223
0.0010004208
0.0010003832
0.0010000283
1.1831945e-07
7.093834e-06
3.2097815e-06
4.172673e-06
3.1893695e-06
3.3847366e-06
3.5351763e-06
3.2530393e-06
3.3866644e-06
3.1222942e-06
3.0398433e-06
2.973359e-06
2.9525512e-06
2.9634406e-06
2.9888905e-06
3.0511609e-06
3.1412305e-06
3.2579183e-06
3.4013418e-06
3.5724791e-06
3.7733583e-06
4.0063021e-06
4.2667898e-06
4.5721802e-06
4.9216543e-06
5.3209118e-06
5.7768046e-06
6.2977445e-06
6.8941508e-06
7.5789599e-06
8.3674616e-06
9.2796281e-06
1.033996e-05
1.1579298e-05
1.2979976e-05
1.46857e-05
1.6711535e-05
1.9129821e-05
2.2163478e-05
2.5690863e-05
2.9958339e-05
3.5140579e-05
4.1455737e-05
4.9164317e-05
5.8590099e-05
7.0133998e-05
8.4287962e-05
0.00010165582
0.00012407822
0.00015049919
0.00018297724
0.00022291983
0.00027463909
0.0003355985
0.00041065627
0.00050800668
0.00062274879
0.00076417652
0.00093855724
0.0010125371
0.0010117941
0.0010110115
0.0010101902
0.001009327
0.00100842
0.0010074679
0.0010064678
0.001005411
0.0010043087
0.0010033886
0.001002638
0.001002027
0.0010015418
0.0010011762
0.0010008869
0.0010006456
0.0010004398
0.0010003677
0.0010003509
0.0010000116
1.1244939e-07
6.1355467e-06
2.8288299e-06
3.5795121e-06
2.8455271e-06
2.8062178e-06
3.0836533e-06
2.7292591e-06
2.7652202e-06
2.5943226e-06
2.5393983e-06
2.5104385e-06
2.5103176e-06
2.538708e-06
2.5983911e-06
2.6853193e-06
2.7976229e-06
2.9351407e-06
3.0987414e-06
3.2898446e-06
3.5057123e-06
3.7573854e-06
4.0449742e-06
4.3725435e-06
4.7449494e-06
5.1680813e-06
5.6491015e-06
6.1967432e-06
6.8217471e-06
7.520961e-06
8.3384052e-06
9.2824328e-06
1.0378539e-05
1.1658666e-05
1.3162772e-05
1.4940816e-05
1.7054578e-05
1.9581412e-05
2.2617316e-05
2.6280922e-05
3.0719568e-05
3.6374928e-05
4.3010039e-05
5.1117865e-05
6.1038863e-05
7.3196299e-05
8.81108e-05
0.00010642328
0.00013010503
0.00015797914
0.00019225549
0.00023441677
0.00028907668
0.00035343197
0.00043268225
0.00053029979
0.0006567273
0.00080603739
0.00099007807
0.0010121621
0.0010113834
0.0010105654
0.0010097114
0.0010088196
0.0010078892
0.0010069182
0.0010059018
0.0010048445
0.0010038163
0.0010030008
0.0010023361
0.0010017923
0.001001355
0.0010010335
0.0010007851
0.001000561
0.0010003576
0.0010002948
0.0010002989
0.0010000778
1.0755964e-07
4.2805775e-06
2.4834418e-06
3.0298351e-06
2.41452e-06
2.3212395e-06
2.6111976e-06
2.2634856e-06
2.2482958e-06
2.149847e-06
2.1253207e-06
2.1215977e-06
2.1493238e-06
2.2079388e-06
2.2934149e-06
2.4034363e-06
2.5373485e-06
2.6956726e-06
2.8770555e-06
3.0875684e-06
3.3282347e-06
3.6019121e-06
3.9120763e-06
4.262952e-06
4.6596315e-06
5.108249e-06
5.6162481e-06
6.1833388e-06
6.8357848e-06
7.580938e-06
8.4360206e-06
9.4224228e-06
1.0567105e-05
1.1903925e-05
1.3475338e-05
1.5334261e-05
1.7546483e-05
2.0193872e-05
2.337831e-05
2.7226238e-05
3.1894367e-05
3.7575955e-05
4.4841216e-05
5.3389137e-05
6.3855736e-05
7.6688409e-05
9.2437912e-05
0.00011178345
0.00013556233
0.00016628471
0.00020252223
0.00024710505
0.00030197692
0.00037300184
0.00045682111
0.00056007096
0.00069389101
0.00085184363
0.0010125736
0.0010117797
0.0010109659
0.0010101148
0.0010092291
0.0010083094
0.0010073558
0.0010063665
0.0010053351
0.0010042765
0.0010033851
0.0010026561
0.0010020659
0.001001588
0.0010012054
0.0010009145
0.0010007026
0.0010004933
0.0010002822
0.0010002537
0.0010002584
0.0010000959
1.0235486e-07
3.5305607e-06
2.1239353e-06
2.5245988e-06
2.0615018e-06
1.9159889e-06
2.1269791e-06
1.8555342e-06
1.8281557e-06
1.7846528e-06
1.7863544e-06
1.8134194e-06
1.8726766e-06
1.9578751e-06
2.0666541e-06
2.1981463e-06
2.3526023e-06
2.5291839e-06
2.7326887e-06
2.9642397e-06
3.226375e-06
3.5221692e-06
3.8552971e-06
4.2301456e-06
4.6519798e-06
5.1271535e-06
5.65705e-06
6.2610305e-06
6.9464504e-06
7.7277325e-06
8.6230171e-06
9.6549508e-06
1.0852019e-05
1.2250035e-05
1.3894084e-05
1.5840622e-05
1.8159757e-05
2.0938396e-05
2.4284648e-05
2.8332164e-05
3.3246874e-05
3.9517959e-05
4.6891204e-05
5.5910159e-05
6.6960389e-05
8.0514685e-05
9.7155426e-05
0.00011760061
0.00014405781
0.00017521395
0.00021353329
0.00026068674
0.00031873131
0.00039387355
0.00048255521
0.00059180843
0.00073346655
0.00090066784
0.0010122044
0.001011391
0.0010105459
0.0010096643
0.0010087479
0.0010077997
0.0010068215
0.0010058127
0.0010047799
0.0010037976
0.0010030059
0.0010023542
0.0010018241
0.0010013999
0.0010010715
0.0010008139
0.0010006298
0.0010004415
0.0010002163
0.0010002122
0.0010002273
0.0010001092
9.8532978e-08
2.8192169e-06
1.8127815e-06
2.0183232e-06
1.7696108e-06
1.5693916e-06
1.6805228e-06
1.5101624e-06
1.4975486e-06
1.4975099e-06
1.5258733e-06
1.5858693e-06
1.6715968e-06
1.7795804e-06
1.9089107e-06
2.0598092e-06
2.2322206e-06
2.4292847e-06
2.6525784e-06
2.9044308e-06
3.1876251e-06
3.5054145e-06
3.8616092e-06
4.2607156e-06
4.7081346e-06
5.2068229e-06
5.7701124e-06
6.40547e-06
7.1249432e-06
7.9436466e-06
8.8807636e-06
9.9602649e-06
1.1212328e-05
1.2674848e-05
1.439549e-05
1.6434206e-05
1.8865953e-05
2.1782777e-05
2.5299638e-05
2.955809e-05
3.496216e-05
4.1322202e-05
4.9091237e-05
5.8600704e-05
7.0256934e-05
8.4560361e-05
0.00010212637
0.00012371403
0.00015161266
0.00018450986
0.00022498084
0.00027479059
0.00033611785
0.00041547437
0.00050919522
0.00062468329
0.00077443376
0.00095127695
0.001011833
0.0010109993
0.001010128
0.00100922
0.0010082749
0.0010072977
0.0010062935
0.0010052658
0.001004237
0.0010033825
0.0010026757
0.0010020938
0.0010016158
0.001001232
0.001000951
0.0010007215
0.0010005541
0.0010003822
0.0010001821
0.0010001703
0.0010001955
0.0010001174
9.629449e-08
2.1985983e-06
1.5422412e-06
1.5371361e-06
1.5004881e-06
1.2732029e-06
1.3174004e-06
1.2346044e-06
1.2494884e-06
1.2802229e-06
1.3418607e-06
1.4277408e-06
1.5348362e-06
1.6618159e-06
1.8089361e-06
1.977209e-06
2.1674854e-06
2.3827609e-06
2.6248638e-06
2.896345e-06
3.2001312e-06
3.5395932e-06
3.9186424e-06
4.3418827e-06
4.814819e-06
5.3441429e-06
5.9381018e-06
6.6069452e-06
7.3549871e-06
8.2116059e-06
9.1912072e-06
1.0319172e-05
1.1627491e-05
1.3156334e-05
1.4955995e-05
1.715906e-05
1.9725192e-05
2.2806159e-05
2.6524394e-05
3.1030947e-05
3.6511883e-05
4.3196022e-05
5.1366052e-05
6.1369927e-05
7.3636159e-05
8.8692801e-05
0.00010718939
0.00013106099
0.00015922721
0.00019386789
0.00023649195
0.00028896134
0.00035692236
0.00043710202
0.00053588774
0.00065766261
0.00081551326
0.0010021235
0.0010114667
0.0010106115
0.0010097174
0.0010087872
0.0010078185
0.0010068141
0.0010057816
0.0010047425
0.0010037896
0.0010030205
0.0010023875
0.0010018676
0.0010014396
0.0010010998
0.0010008262
0.0010006364
0.0010004798
0.0010003235
0.0010001732
0.001000141
0.0010001735
0.0010001158
9.6425778e-08
1.6696536e-06
1.3139583e-06
1.1689402e-06
1.2299649e-06
1.0253545e-06
1.0509028e-06
1.0309351e-06
1.0741827e-06
1.1343259e-06
1.2200072e-06
1.3254442e-06
1.4495526e-06
1.5924708e-06
1.7552542e-06
1.9394021e-06
2.1464382e-06
2.3789437e-06
2.6390926e-06
2.9295468e-06
3.2533177e-06
3.6138533e-06
4.0151494e-06
4.461909e-06
4.9597622e-06
5.5155647e-06
6.1377958e-06
6.8370575e-06
7.6266954e-06
8.5235863e-06
9.5490652e-06
1.0730157e-05
1.2100926e-05
1.3704212e-05
1.559366e-05
1.7836208e-05
2.0515163e-05
2.3734189e-05
2.7621575e-05
3.2336136e-05
3.8074023e-05
4.5076516e-05
5.3638665e-05
6.4125922e-05
7.6987098e-05
9.35433e-05
0.000113086
0.00013710033
0.00016662727
0.00020295155
0.00024765687
0.00030553961
0.00037383033
0.00045795734
0.00056165267
0.0006962393
0.00085519557
0.001011979
0.0010111156
0.0010102378
0.0010093225
0.0010083712
0.0010073823
0.0010063584
0.0010053086
0.0010042698
0.0010034197
0.0010027165
0.0010021402
0.0010016669
0.0010012806
0.0010009894
0.001000733
0.0010005566
0.0010004123
0.0010002715
0.0010001526
0.001000125
0.0010001546
0.0010001112
9.9728645e-08
1.2380093e-06
1.1249192e-06
8.9971873e-07
1.0723504e-06
8.2095285e-07
8.6794065e-07
8.9280943e-07
9.5882235e-07
1.0420631e-06
1.1451479e-06
1.2656055e-06
1.4038019e-06
1.5607257e-06
1.7378447e-06
1.9368775e-06
2.1597769e-06
2.408573e-06
2.6859057e-06
2.9944136e-06
3.3371715e-06
3.7176987e-06
4.1400777e-06
4.6091199e-06
5.130595e-06
5.7115402e-06
6.3606782e-06
7.0889865e-06
7.9103273e-06
8.8423083e-06
9.9072127e-06
1.113334e-05
1.255639e-05
1.4221295e-05
1.6184327e-05
1.8515725e-05
2.1302821e-05
2.4653892e-05
2.8702865e-05
3.3615119e-05
3.986496e-05
4.7222595e-05
5.6218285e-05
6.7235134e-05
8.0743902e-05
9.7324262e-05
0.00011769053
0.00014272312
0.00017350447
0.00021335125
0.00026031618
0.00031813081
0.00038934125
0.00047710231
0.00059103659
0.00072556303
0.00089162413
0.0010116591
0.001010785
0.0010098896
0.0010089562
0.0010079838
0.0010069717
0.0010059266
0.0010048726
0.0010039024
0.0010031202
0.0010024735
0.0010019431
0.0010015073
0.0010011511
0.001000893
0.0010006565
0.0010004863
0.0010003501
0.0010002247
0.0010001307
0.0010001148
0.0010001422
0.0010001045
1.0630991e-07
9.5722153e-07
9.6006325e-07
7.6090438e-07
7.6428407e-07
7.0015448e-07
7.4542578e-07
8.0541554e-07
8.8868284e-07
9.8805152e-07
1.1042171e-06
1.2370777e-06
1.387689e-06
1.5573657e-06
1.7476999e-06
1.9604685e-06
2.1976559e-06
2.4614723e-06
2.7543916e-06
3.0791972e-06
3.439047e-06
3.8375623e-06
4.2789522e-06
4.7681908e-06
5.3112619e-06
5.9133718e-06
6.5866275e-06
7.3410307e-06
8.1983e-06
9.165272e-06
1.0270264e-05
1.1542966e-05
1.3020802e-05
1.4750809e-05
1.6791851e-05
1.92173e-05
2.2118302e-05
2.5607778e-05
2.9825291e-05
3.4943082e-05
4.1173479e-05
4.8778043e-05
5.8078657e-05
6.9469634e-05
8.3438203e-05
0.00010058357
0.00012272682
0.00014881266
0.0001808812
0.0002203286
0.00026887902
0.00032866743
0.00040233749
0.00049785582
0.00061073242
0.00075006375
0.00092219964
0.0010113667
0.001010481
0.0010095713
0.0010086251
0.0010076384
0.00100661
0.0010055495
0.0010044979
0.0010036178
0.0010028879
0.0010022871
0.0010017928
0.001001387
0.0010010599
0.0010007947
0.0010005968
0.0010004282
0.0010002963
0.0010001786
0.001000101
0.0010000935
0.0010001221
0.0010000903
1.2085374e-07
9.6164618e-07
8.0104555e-07
5.6413125e-07
6.073117e-07
6.1025424e-07
6.7376722e-07
7.5253346e-07
8.4930749e-07
9.6083864e-07
1.0881103e-06
1.2319437e-06
1.3936283e-06
1.5745733e-06
1.7763958e-06
2.0008963e-06
2.2500869e-06
2.5262181e-06
2.8318139e-06
3.1697173e-06
3.5431509e-06
3.9558039e-06
4.4119554e-06
4.9166522e-06
5.4759598e-06
6.0973078e-06
6.7899475e-06
7.5655395e-06
8.4388994e-06
9.4288893e-06
1.0559489e-05
1.1861143e-05
1.3372277e-05
1.5141201e-05
1.7228352e-05
1.9709024e-05
2.2676702e-05
2.6247093e-05
3.0563082e-05
3.5800807e-05
4.2177249e-05
5.0317436e-05
5.9908603e-05
7.165166e-05
8.60481e-05
0.00010371441
0.00012541083
0.00015207527
0.00018486573
0.00022521141
0.00027488403
0.00033917935
0.00041515499
0.00050884665
0.0006244859
0.00076734881
0.0009440141
0.0010111227
0.0010102196
0.0010092906
0.0010083277
0.0010073279
0.0010062923
0.0010052352
0.0010042129
0.001003398
0.0010027146
0.0010021518
0.0010016864
0.001001301
0.001000996
0.0010007456
0.0010005525
0.001000385
0.001000255
0.0010001368
0.0010000613
0.0010000537
0.0010000878
0.0010000701
1.1081066e-07
6.2044933e-07
6.3508373e-07
4.6717058e-07
5.0955855e-07
5.5529952e-07
6.3393477e-07
7.2632766e-07
8.3377371e-07
9.5560231e-07
1.0928854e-06
1.246673e-06
1.418281e-06
1.6091725e-06
1.8209971e-06
2.0556012e-06
2.3150515e-06
2.6016277e-06
2.9179655e-06
3.2669566e-06
3.651893e-06
4.0765339e-06
4.5452306e-06
5.0631047e-06
5.6363044e-06
6.2723554e-06
6.9806281e-06
7.7729425e-06
8.6714179e-06
9.6842417e-06
1.0840745e-05
1.2172137e-05
1.3717754e-05
1.5527007e-05
1.7661653e-05
2.0198584e-05
2.3233207e-05
2.6883574e-05
3.129545e-05
3.6648526e-05
4.3164027e-05
5.1114003e-05
6.0832741e-05
7.2732666e-05
8.7320909e-05
0.00010522266
0.00012720903
0.00015558535
0.00018906392
0.00023025007
0.00028095518
0.00034342275
0.00042043986
0.0005154749
0.00063285314
0.00077798018
0.00095761002
0.0010109603
0.0010100383
0.0010090852
0.0010080963
0.001007072
0.0010060193
0.0010049653
0.0010040092
0.0010032339
0.001002588
0.0010020555
0.0010016148
0.0010012472
0.0010009604
0.0010007204
0.0010005331