/*--------------------------------*- C++ -*----------------------------------*\
  =========                 |
  \\      /  F ield         | OpenFOAM: The Open Source CFD Toolbox
   \\    /   O peration     | Website:  https://openfoam.org
    \\  /    A nd           | Version:  12
     \\/     M anipulation  |
\*---------------------------------------------------------------------------*/
FoamFile
{
    format      ascii;
    class       volScalarField;
    location    "0.134";
    object      p;
}
// * * * * * * * * * * * * * * * * * * * * * * * * * * * * * * * * * * * * * //

dimensions      [1 -1 -2 0 0 0 0];

internalField   nonuniform List<scalar> 
16000
(
89742.971
89868.936
89880.828
90015.209
90041.21
90168.592
90218.883
90335.586
90409.249
90520.251
90612.184
90723.06
90829.063
90944.221
91061.253
91183.728
91310.255
91441.438
91577.154
91717.488
91862.449
92012.043
92166.248
92325.024
92488.301
92655.985
92827.948
93004.035
93184.056
93367.786
93554.968
93745.309
93938.482
94134.128
94331.857
94531.246
94731.852
94933.205
95134.82
95336.197
95536.829
95736.206
95933.824
96129.185
96321.809
96511.234
96697.027
96878.783
97056.13
97228.736
97396.306
97558.586
97715.363
97866.463
98011.754
98151.141
98284.565
98412.001
98533.453
98648.956
98758.568
98862.367
98960.452
99052.938
99139.953
99221.638
99298.148
99369.647
99436.311
99498.325
99555.883
99609.179
99658.395
99703.766
99745.572
99784.087
99819.816
99846.759
99903.168
99865.332
89374.472
89517.366
89526.645
89673.194
89700.877
89839.224
89891.94
90019.972
90097.471
90218.621
90316.945
90436.766
90551.074
90675.078
90801.348
90933.278
91069.668
91211.003
91357.204
91508.323
91664.356
91825.282
91991.053
92161.592
92336.792
92516.514
92700.585
92888.797
93080.906
93276.63
93475.651
93677.614
93882.129
94088.772
94297.088
94506.594
94716.787
94927.142
95137.125
95346.194
95553.808
95759.431
95962.542
96162.639
96359.247
96551.919
96740.246
96923.856
97102.423
97275.661
97443.328
97605.23
97761.211
97911.162
98055.009
98192.715
98324.279
98449.726
98569.109
98682.504
98790.008
98891.73
98987.794
99078.336
99163.501
99243.442
99318.321
99388.304
99453.564
99514.281
99570.645
99622.83
99671.009
99715.439
99756.387
99793.888
99827.607
99860.024
99898.121
99883.742
89037.536
89195.906
89205.034
89364.883
89392.574
89544.66
89599.002
89739.34
89821.667
89953.303
90059.371
90188.75
90312.609
90446.458
90583.154
90725.736
90873.212
91025.944
91183.864
91346.988
91515.279
91688.681
91867.107
92050.435
92238.514
92431.152
92628.121
92829.155
93033.946
93242.143
93453.36
93667.169
93883.105
94100.673
94319.345
94538.571
94757.784
94976.404
95193.848
95409.535
95622.896
95833.379
96040.46
96243.645
96442.479
96636.548
96825.486
97008.974
97186.743
97358.574
97524.299
97683.793
97836.977
97983.812
98124.298
98258.466
98386.376
98508.111
98623.777
98733.494
98837.399
98935.634
99028.348
99115.699
99197.846
99274.954
99347.188
99414.715
99477.704
99536.33
99590.768
99641.172
99687.709
99730.663
99770.184
99806.007
99838.795
99871.725
99899.107
99902.013
88735.366
88904.523
88914.7
89089.874
89117.019
89285.329
89341.874
89496.51
89584.625
89728.305
89843.615
89983.928
90118.978
90264.149
90412.803
90567.521
90727.52
90893.037
91064.009
91240.412
91422.182
91609.223
91801.408
91998.569
92200.499
92406.949
92617.623
92832.182
93050.24
93271.366
93495.086
93720.886
93948.216
94176.495
94405.116
94633.456
94860.882
95086.758
95310.458
95531.372
95748.914
95962.533
96171.718
96376.001
96574.971
96768.269
96955.591
97136.694
97311.389
97479.543
97641.074
97795.946
97944.169
98085.788
98220.882
98349.557
98471.941
98588.179
98698.429
98802.86
98901.645
98994.961
99082.981
99165.882
99243.836
99317.013
99385.583
99449.71
99509.554
99565.282
99617.049
99664.982
99709.257
99750.151
99787.612
99821.36
99853.146
99884.099
99904.693
99919.732
88471.397
88655.481
88662.371
88856.306
88882.389
89069.147
89127.887
89298.697
89393.917
89551.086
89677.457
89829.93
89977.718
90135.48
90297.351
90465.416
90639.103
90818.56
91003.726
91194.547
91390.925
91592.721
91799.751
92011.787
92228.548
92449.704
92674.871
92903.613
93135.446
93369.836
93606.203
93843.932
94082.372
94320.848
94558.668
94795.135
95029.552
95261.24
95489.54
95713.831
95933.531
96148.111
96357.099
96560.085
96756.725
96946.74
97129.92
97306.117
97475.246
97637.277
97792.233
97940.18
98081.225
98215.507
98343.187
98464.451
98579.494
98688.524
98791.749
98889.382
98981.633
99068.705
99150.794
99228.09
99300.774
99369.022
99432.999
99492.862
99548.764
99600.856
99649.268
99694.104
99735.55
99773.834
99808.68
99840.059
99870.415
99898.065
99913.643
99938.493
88250.538
88452.242
88457.04
88672.02
88696.997
88904.198
88965.23
89153.919
89257.477
89428.921
89567.619
89732.786
89894.247
90065.44
90241.482
90423.969
90612.507
90807.162
91007.847
91214.455
91426.824
91644.741
91867.94
92096.096
92328.827
92565.691
92806.187
93049.759
93295.796
93543.64
93792.589
94041.911
94290.844
94538.617
94784.455
95027.591
95267.284
95502.824
95733.548
95958.846
96178.175
96391.06
96597.103
96795.982
96987.455
97171.356
97347.592
97516.138
97677.033
97830.369
97976.285
98114.961
98246.604
98371.45
98489.745
98601.75
98707.727
98807.938
98902.638
98992.076
99076.494
99156.114
99231.15
99301.797
99368.243
99430.66
99489.206
99544.028
99595.267
99643.052
99687.484
99728.65
99766.747
99801.899
99833.642
99862.389
99890.813
99914.226
99925.651
99959.074
88073.337
88295.921
88297.936
88537.557
88561.529
88792.942
88857.176
89065.314
89177.229
89362.285
89514.224
89692.69
89869.156
90055.285
90247.183
90445.939
90651.242
90863.052
91081.213
91305.53
91535.743
91771.536
92012.525
92258.26
92508.225
92761.837
93018.45
93277.359
93537.806
93798.989
94060.072
94320.194
94578.489
94834.09
95086.154
95333.869
95576.47
95813.253
96043.583
96266.909
96482.761
96690.765
96890.635
97082.18
97265.295
97439.959
97606.224
97764.212
97914.102
98056.119
98190.528
98317.622
98437.715
98551.13
98658.196
98759.24
98854.581
98944.527
99029.371
99109.389
99184.842
99255.968
99322.984
99386.09
99445.468
99501.284
99553.684
99602.8
99648.754
99691.654
99731.564
99768.567
99802.857
99834.405
99862.641
99888.551
99914.559
99933.012
99940.92
99982.207
87933.853
88180.96
88178.67
88447.993
88468.837
88727.063
88794.416
89021.627
89145.149
89346.237
89515.084
89709.674
89904.169
90108.158
90318.709
90536.487
90761.216
90992.75
91230.844
91475.191
91725.411
91981.05
92241.576
92506.381
92774.781
93046.02
93319.278
93593.677
93868.292
94142.163
94414.314
94683.765
94949.55
95210.735
95466.436
95715.83
95958.176
96192.823
96419.217
96636.913
96845.575
97044.975
97234.991
97415.603
97586.879
97748.974
97902.11
98046.568
98182.679
98310.807
98431.34
98544.681
98651.238
98751.416
98845.611
98934.203
99017.557
99096.011
99169.883
99239.466
99305.028
99366.809
99425.026
99479.872
99531.517
99580.114
99625.791
99668.663
99708.832
99746.371
99781.316
99813.753
99843.848
99871.384
99895.807
99918.737
99941.844
99954.782
99959.969
100008.51
87830.117
88105.565
88098.869
88405.044
88419.967
88706.878
88779.549
89028.698
89169.019
89388.668
89578.108
89791.762
90007.365
90232.327
90464.548
90704.341
90951.399
91205.451
91466.121
91732.954
92005.407
92282.846
92564.549
92849.707
93137.429
93426.752
93716.65
94006.051
94293.85
94578.932
94860.189
95136.54
95406.955
95670.472
95926.217
96173.418
96411.418
96639.685
96857.816
97065.539
97262.71
97449.307
97625.418
97791.234
97947.028
98093.151
98230.007
98358.045
98477.743
98589.596
98694.106
98791.769
98883.073
98968.484
99048.447
99123.381
99193.673
99259.679
99321.726
99380.108
99435.089
99486.902
99535.751
99581.813
99625.244
99666.173
99704.71
99740.946
99774.958
99806.783
99836.434
99864.006
99889.597
99912.794
99933.213
99953.075
99972.752
99979.705
99983.048
100038.7
87764.802
88073.361
88063.559
88406.69
88420.801
88739.914
88823.968
89098.414
89258.695
89498.904
89712.584
89948.507
90188.493
90437.84
90695.044
90960.108
91232.622
91512.145
91798.121
92089.896
92386.707
92687.687
92991.869
93298.194
93605.52
93912.642
94218.307
94521.238
94820.155
95113.805
95400.982
95680.551
95951.477
96212.841
96463.856
96703.885
96932.443
97149.203
97353.994
97546.791
97727.708
97896.977
98054.94
98202.024
98338.727
98465.599
98583.224
98692.206
98793.157
98886.683
98973.374
99053.798
99128.495
99197.972
99262.698
99323.106
99379.59
99432.504
99482.167
99528.86
99572.831
99614.295
99653.433
99690.402
99725.332
99758.327
99789.473
99818.836
99846.461
99872.349
99896.504
99919.02
99939.886
99958.522
99974.889
99991.624
100007.29
100007.99
100010.59
100073.17
87744.579
88092.494
88078.733
88462.365
88480.372
88835.944
88935.01
89236.655
89422.606
89686.238
89928.402
90190.555
90458.68
90736.243
91022.097
91315.962
91617.251
91925.298
92239.299
92558.325
92881.323
93207.122
93534.447
93861.935
94188.156
94511.641
94830.906
95144.483
95450.951
95748.968
96037.298
96314.84
96580.65
96833.958
97074.18
97300.925
97513.987
97713.345
97899.141
98071.669
98231.349
98378.709
98514.36
98638.975
98753.266
98857.969
98953.824
99041.565
99121.903
99195.523
99263.073
99325.159
99382.345
99435.148
99484.037
99529.437
99571.727
99611.242
99648.276
99683.085
99715.889
99746.875
99776.195
99803.976
99830.318
99855.299
99878.975
99901.387
99922.541
99942.41
99960.997
99978.382
99994.397
100008.38
100020.79
100034.35
100045.43
100039.98
100043.11
100111.7
87778.189
88172.915
88155.249
88586.881
88609.811
89005.037
89123.627
89454.316
89671.71
89962.099
90237.134
90530.024
90830.512
91140.558
91459.13
91785.632
92119.203
92458.851
92803.423
93151.618
93502.003
93853.026
94203.048
94550.363
94893.239
95229.946
95558.801
95878.2
96186.661
96482.857
96765.647
97034.1
97287.512
97525.413
97747.565
97953.951
98144.76
98320.364
98481.288
98628.187
98761.814
98882.994
98992.597
99091.515
99180.645
99260.869
99333.04
99397.976
99456.448
99509.177
99556.829
99600.013
99639.284
99675.141
99708.028
99738.34
99766.421
99792.571
99817.047
99840.067
99861.816
99882.442
99902.063
99920.773
99938.639
99955.707
99972.005
99987.542
100002.29
100016.2
100029.28
100041.56
100052.71
100062.11
100070.79
100081.13
100087.15
100076.2
100081.06
100153.93
87866.666
88317.063
88296.063
88782.375
88813.729
89252.443
89398.148
89760.483
90016.457
90338.389
90651.442
90980.534
91318.432
91665.9
92021.775
92385.045
92754.431
93128.483
93505.578
93883.939
94261.668
94636.777
95007.227
95370.965
95725.979
96070.342
96402.259
96720.121
97022.543
97308.394
97576.826
97827.278
98059.479
98273.431
98469.392
98647.839
98809.439
98955.011
99085.489
99201.889
99305.275
99396.732
99477.34
99548.159
99610.209
99664.459
99711.821
99753.143
99789.203
99820.715
99848.323
99872.604
99894.073
99913.185
99930.336
99945.872
99960.089
99973.236
99985.523
99997.123
100008.18
100018.79
100029.05
100039
100048.68
100058.11
100067.28
100076.17
100084.71
100092.85
100100.61
100107.94
100114.31
100119.34
100124.62
100131.68
100132.32
100117.06
100124.93
100199.84
88015.161
88531.648
88507.943
89056.371
89102.487
89588.633
89770.75
90168.092
90470.449
90830.268
91187.417
91559.196
91940.445
92330.865
92728.887
93132.913
93541.083
93951.353
94361.512
94769.227
95172.076
95567.609
95953.397
96327.101
96686.534
97029.728
97354.989
97660.941
97946.561
98211.188
98454.524
98676.613
98877.811
99058.749
99220.281
99363.445
99489.409
99599.428
99694.809
99776.869
99846.915
99906.215
99955.98
99997.359
100031.42
100059.15
100081.46
100099.16
100113
100123.64
100131.66
100137.59
100141.86
100144.86
100146.94
100148.37
100149.39
100150.19
100150.92
100151.71
100152.65
100153.81
100155.22
100156.9
100158.85
100161.06
100163.49
100166.09
100168.76
100171.45
100174.18
100176.78
100178.61
100179.63
100181.92
100185.62
100180.66
100162.45
100174.97
100249.34
88230.298
88825.827
88801.304
89420.301
89488.42
90026.059
90255.862
90693.416
91051.166
91457.377
91866.116
92288.103
92719.227
93158.139
93602.607
94050.291
94498.602
94944.781
95385.939
95819.117
96241.358
96649.793
97041.729
97414.737
97766.731
98096.031
98401.403
98682.078
98937.746
99168.53
99374.938
99557.814
99718.273
99857.639
99977.383
100079.07
100164.3
100234.69
100291.81
100337.17
100372.21
100398.29
100416.64
100428.41
100434.65
100436.29
100434.17
100429.03
100421.54
100412.27
100401.71
100390.3
100378.4
100366.33
100354.33
100342.63
100331.38
100320.72
100310.75
100301.54
100293.13
100285.54
100278.78
100272.82
100267.63
100263.16
100259.36
100256.14
100253.38
100251.05
100249.15
100247.34
100244.97
100242.46
100242.16
100242.45
100231.81
100211.95
100230.69
100301.77
88518.393
89208.357
89185.872
89885.031
89986.479
90581.484
90873.664
91359.988
91783.669
92246.58
92715.221
93194.969
93681.919
94173.638
94667.031
95158.841
95645.584
96123.653
96589.405
97039.275
97469.905
97878.263
98261.761
98618.334
98946.5
99245.38
99514.683
99754.667
99966.072
100150.05
100308.06
100441.82
100553.19
100644.13
100716.63
100772.63
100814.04
100842.68
100860.22
100868.26
100868.24
100861.46
100849.13
100832.29
100811.88
100788.74
100763.6
100737.08
100709.73
100682.01
100654.32
100626.99
100600.3
100574.45
100549.64
100525.99
100503.61
100482.56
100462.9
100444.64
100427.77
100412.28
100398.13
100385.26
100373.62
100363.12
100353.69
100345.2
100337.55
100330.72
100324.63
100318.81
100312.7
100307.24
100304.68
100301.55
100285.64
100265
100290.58
100357.33
88886.951
89689.732
89674.851
90469.269
90621.078
91283.497
91655.184
92201.131
92701.358
93231.356
93767.596
94311.347
94858.202
95404.452
95945.821
96477.859
96996.006
97495.763
97972.878
98423.52
98844.439
99233.09
99587.697
99907.279
100191.62
100441.21
100657.13
100840.96
100994.67
101120.48
101220.76
101297.98
101354.59
101392.97
101415.42
101424.08
101420.95
101407.87
101386.49
101358.31
101324.67
101286.76
101245.6
101202.12
101157.1
101111.23
101065.08
101019.15
100973.86
100929.54
100886.49
100844.92
100805.01
100766.9
100730.69
100696.44
100664.19
100633.94
100605.69
100579.42
100555.07
100532.59
100511.91
100492.94
100475.6
100459.78
100445.38
100432.26
100420.32
100409.55
100399.77
100390.41
100381.13
100373.32
100368.79
100362.35
100342.14
100321.31
100353.16
100416.41
89355.696
90297.518
90301.621
91211.028
91430.809
92170.917
92639.448
93256.216
93842.527
94449.181
95059.432
95671.118
96278.482
96876.044
97457.958
98018.445
98552.022
99053.774
99519.581
99946.28
100331.76
100674.97
100975.86
101235.3
101454.88
101636.82
101783.74
101898.56
101984.33
102044.15
102081.06
102097.96
102097.61
102082.55
102055.12
102017.43
101971.38
101918.66
101860.75
101798.96
101734.43
101668.13
101600.92
101533.52
101466.52
101400.45
101335.72
101272.7
101211.65
101152.8
101096.32
101042.33
100990.93
100942.17
100896.06
100852.61
100811.8
100773.59
100737.91
100704.7
100673.88
100645.36
100619.03
100594.8
100572.54
100552.14
100533.47
100516.38
100500.8
100486.68
100473.73
100461.36
100449.56
100440.03
100433.76
100424.17
100400.9
100381.39
100418.54
100477.84
89957.096
91075.585
91108.954
92151.944
92458.445
93284.186
93868.326
94569.466
95251.379
95943.138
96630.918
97309.037
97969.559
98604.965
99208.035
99772.362
100292.65
100764.96
101186.8
101557.11
101876.2
102145.5
102367.4
102545
102681.85
102781.79
102848.76
102886.67
102899.26
102890.1
102862.46
102819.36
102763.49
102697.29
102622.88
102542.16
102456.76
102368.09
102277.38
102185.67
102093.84
102002.65
101912.7
101824.52
101738.52
101655.06
101574.39
101496.72
101422.21
101350.97
101283.06
101218.52
101157.35
101099.54
101045.04
100993.8
100945.73
100900.77
100858.8
100819.73
100783.44
100749.81
100718.72
100690.04
100663.65
100639.41
100617.16
100596.77
100578.19
100561.31
100545.73
100530.95
100517.3
100506.6
100498.75
100486.14
100461.09
100445.16
100486.9
100540.24
90720.33
92051.656
92128.875
93324.969
93751.945
94675.262
95396.535
96198.612
96983.542
97762.576
98521.353
99250.635
99940.558
100582.65
101170.01
101697.7
102162.82
102564.47
102903.53
103182.4
103404.61
103574.52
103696.98
103777.07
103819.88
103830.33
103813.07
103772.4
103712.25
103636.12
103547.13
103448.02
103341.18
103228.69
103112.3
102993.54
102873.68
102753.82
102634.85
102517.52
102402.46
102290.16
102181.03
102075.38
101973.46
101875.44
101781.46
101691.6
101605.89
101524.34
101446.94
101373.64
101304.37
101239.05
101177.59
101119.88
101065.81
101015.24
100968.06
100924.14
100883.32
100845.48
100810.46
100778.14
100748.37
100720.98
100695.83
100672.8
100651.83
100632.73
100615.07
100598.47
100583.63
100572.2
100562.9
100547.69
100522.19
100511.28
100556.4
100601.05
91675.179
93272.459
93430.097
94796.547
95389.673
96426.55
97301.955
98215.382
99097.691
99946.959
100747.3
101487.73
102159.06
102755.05
103272.4
103710.63
104071.64
104359.31
104578.9
104736.58
104839
104892.89
104904.83
104881.04
104827.24
104748.65
104649.88
104535.01
104407.59
104270.69
104126.94
103978.55
103827.41
103675.12
103522.98
103372.09
103223.34
103077.47
102935.07
102796.6
102662.43
102532.84
102408.02
102288.12
102173.23
102063.38
101958.58
101858.81
101764.01
101674.1
101588.99
101508.58
101432.73
101361.32
101294.21
101231.25
101172.3
101117.2
101065.8
101017.94
100973.47
100932.22
100894.05
100858.81
100826.32
100796.44
100769.01
100743.94
100721.12
100700.32
100681.08
100663.24
100647.76
100635.87
100625.23
100608.19
100583.67
100577.8
100623.45
100658.22
92904.846
94838.216
95121.07
96678.497
97485.218
98644.345
99668.999
100678.54
101621.44
102489.07
103267.7
103949.63
104531.19
105012.75
105397.99
105693.08
105905.87
106045.18
106120.12
106139.68
106112.36
106046
105947.65
105823.52
105679.06
105518.93
105347.12
105166.99
104981.38
104792.64
104602.72
104413.24
104225.5
104040.58
103859.32
103682.42
103510.39
103343.65
103182.51
103027.18
102877.8
102734.46
102597.2
102466
102340.82
102221.6
102108.23
102000.6
101898.59
101802.05
101710.82
101624.75
101543.68
101467.42
101395.82
101328.68
101265.84
101207.13
101152.38
101101.4
101054.03
101010.1
100969.45
100931.91
100897.32
100865.52
100836.36
100809.76
100785.57
100763.5
100743.15
100724.59
100708.87
100696.64
100684.83
100666.75
100644.22
100642.46
100685.87
100712.49
94541.278
96889.887
97352.859
99099.588
100155.09
101421.88
102543.6
103582.97
104502.33
105295.42
105957.99
106492.18
106904.55
107204.94
107405.14
107517.78
107555.5
107530.31
107453.22
107334.08
107181.51
107002.9
106804.54
106591.71
106368.8
106139.43
105906.58
105672.67
105439.66
105209.12
104982.31
104760.22
104543.62
104333.1
104129.11
103931.95
103741.86
103558.96
103383.32
103214.96
103053.84
102899.89
102753.01
102613.08
102479.96
102353.47
102233.46
102119.74
102012.12
101910.42
101814.42
101723.94
101638.78
101558.74
101483.61
101413.2
101347.33
101285.79
101228.41
101175
101125.37
101079.37
101036.8
100997.51
100961.32
100928.08
100897.65
100869.94
100844.76
100821.79
100800.74
100781.88
100766.16
100753.63
100740.8
100722.39
100702.48
100704.12
100744.07
100763.34
96775.08
99588.927
100294.36
102181.56
103448.38
104762.46
105864.89
106806.81
107575.19
108175.76
108619.52
108922.23
109101.75
109176.47
109164.02
109080.57
108940.41
108755.89
108537.43
108293.75
108031.99
107758
107476.49
107191.26
106905.32
106621.07
106340.38
106064.71
105795.2
105532.69
105277.82
105031.04
104792.67
104562.89
104341.82
104129.48
103925.85
103730.85
103544.35
103366.22
103196.29
103034.37
102880.26
102733.74
102594.6
102462.62
102337.56
102219.19
102107.29
102001.63
101901.97
101808.1
101719.79
101636.81
101558.96
101486.02
101417.79
101354.06
101294.65
101239.36
101188.01
101140.41
101096.38
101055.77
101018.38
100984.09
100952.75
100924.25
100898.38
100874.81
100853.4
100834.52
100818.91
100806.03
100792.43
100774.46
100757.73
100761.99
100796.78
100808.35
99859.501
103050.23
104062.95
106016.6
107324.99
108492.62
109409.56
110100.51
110583.15
110884.1
111031.25
111052.07
110971.61
110811.83
110591.31
110325.45
110026.75
109705.26
109368.93
109024.04
108675.47
108327
107981.57
107641.38
107308.11
106983.01
106666.98
106360.66
106064.47
105778.7
105503.46
105238.79
104984.67
104740.97
104507.55
104284.23
104070.8
103867.01
103672.62
103487.37
103310.99
103143.22
102983.77
102832.38
102688.78
102552.69
102423.84
102301.98
102186.84
102078.17
101975.73
101879.25
101788.52
101703.28
101623.33
101548.43
101478.37
101412.95
101351.97
101295.22
101242.53
101193.7
101148.57
101106.94
101068.67
101033.6
101001.61
100972.54
100946.18
100922.25
100900.71
100881.95
100866.39
100853.1
100839.05
100822.24
100808.86
100814.36
100842.19
100846.74
104052.76
107457.78
108673.72
110365.18
111491.4
112322.74
112858.07
113152.05
113249.23
113192.66
113018.74
112757.69
112433.72
112065.84
111668.8
111253.84
110829.51
110402.22
109976.75
109556.64
109144.46
108742.08
108350.79
107971.49
107604.74
107250.88
106910.05
106582.27
106267.44
105965.39
105675.91
105398.73
105133.55
104880.06
104637.93
104406.82
104186.39
103976.31
103776.23
103585.81
103404.72
103232.64
103069.24
102914.21
102767.24
102628.03
102496.29
102371.74
102254.08
102143.06
102038.42
101939.88
101847.22
101760.17
101678.52
101602.04
101530.5
101463.7
101401.44
101343.51
101289.72
101239.9
101193.86
101151.43
101112.44
101076.76
101044.25
101014.74
100988.01
100963.86
100942.3
100923.64
100908
100894.3
100880.23
100865.09
100854.59
100859.69
100879.67
100879.07
109284.74
112653.08
113772.97
114901.36
115514.44
115800.19
115823.02
115656.26
115353.92
114958.38
114501.12
114005.34
113487.88
112960.85
112432.88
111910.04
111396.59
110895.42
110408.46
109936.96
109481.64
109042.86
108620.73
108215.17
107825.94
107452.74
107095.2
106752.9
106425.4
106112.24
105812.95
105527.07
105254.15
104993.73
104745.36
104508.61
104283.06
104068.3
103863.94
103669.58
103484.85
103309.39
103142.84
102984.88
102835.16
102693.38
102559.21
102432.37
102312.57
102199.52
102092.95
101992.61
101898.23
101809.58
101726.41
101648.49
101575.61
101507.56
101444.12
101385.11
101330.32
101279.58
101232.7
101189.52
101149.87
101113.62
101080.62
101050.69
101023.64
100999.32
100977.75
100959.08
100943.22
100929.23
100915.62
100902.4
100893.8
100896.47
100908.53
100906.12
115506.09
118019.51
118631.69
118914.65
118822.52
118496.09
118014.66
117438.74
116808.88
116152.55
115487.99
114827.21
114177.98
113545.23
112931.98
112339.96
111770.04
111222.48
110697.2
110193.81
109711.81
109250.56
108809.38
108387.57
107984.41
107599.17
107231.17
106879.72
106544.17
106223.87
105918.22
105626.64
105348.57
105083.48
104830.85
104590.19
104361.03
104142.93
103935.45
103738.18
103550.72
103372.69
103203.72
103043.46
102891.57
102747.72
102611.6
102482.89
102361.3
102246.56
102138.38
102036.5
101940.67
101850.62
101766.14
101686.98
101612.93
101543.78
101479.31
101419.33
101363.65
101312.09
101264.46
101220.61
101180.37
101143.59
101110.12
101079.79
101052.45
101027.96
101006.31
100987.5
100971.32
100957.14
100944.19
100932.74
100925.25
100924.92
100929.78
100926.57
122132.91
122575.33
122359.46
121813.08
121084.69
120264.08
119407.27
118545.98
117698.69
116875.63
116082.22
115320.99
114592.77
113897.36
113233.98
112601.54
111998.76
111424.3
110876.82
110355.01
109857.59
109383.36
108931.19
108499.99
108088.75
107696.54
107322.46
106965.67
106625.4
106300.91
105991.5
105696.53
105415.38
105147.47
104892.25
104649.19
104417.8
104197.61
103988.16
103789.04
103599.82
103420.11
103249.54
103087.75
102934.39
102789.13
102651.65
102521.64
102398.8
102282.84
102173.49
102070.49
101973.58
101882.5
101797.02
101716.9
101641.94
101571.92
101506.62
101445.86
101389.44
101337.18
101288.91
101244.46
101203.67
101166.39
101132.46
101101.73
101074.06
101049.34
101027.49
101008.4
100991.85
100977.51
100965.14
100954.95
100947.81
100944.51
100943.87
100941.03
126004.28
125380.9
124468.39
123419.42
122338.29
121268.95
120234.05
119242.86
118298.85
117402.25
116551.8
115745.44
114980.85
114255.59
113567.28
112913.66
112292.6
111702.14
111140.43
110605.82
110096.74
109611.79
109149.65
108709.12
108289.09
107888.53
107506.49
107142.09
106794.51
106462.97
106146.76
105845.21
105557.69
105283.6
105022.38
104773.5
104536.47
104310.79
104096.03
103891.74
103697.51
103512.95
103337.68
103171.34
103013.58
102864.07
102722.48
102588.51
102461.86
102342.23
102229.37
102122.99
102022.83
101928.66
101840.23
101757.3
101679.67
101607.11
101539.41
101476.39
101417.84
101363.58
101313.45
101267.27
101224.88
101186.12
101150.84
101118.89
101090.15
101064.5
101041.82
101021.92
101004.62
100989.79
100977.45
100967.66
100960.28
100954.91
100951.16
100948.91
103969.12
103942.33
103990.86
104039.4
104075.3
104085.18
104067.83
104038.36
104002.91
103958.17
103899.77
103828.23
103747.38
103662.06
103573.06
103480.45
103384.54
103285.82
103184.73
103081.64
102976.92
102870.93
102763.97
102656.35
102548.34
102440.19
102332.13
102224.39
102117.18
102010.67
101905.05
101800.5
101697.17
101595.23
101494.82
101396.1
101299.2
101204.28
101111.46
101020.9
100932.72
100847.07
100764.07
100683.86
100606.58
100532.34
100461.29
100393.53
100329.19
100268.37
100211.18
100157.69
100107.98
100062.11
100020.13
99982.043
99947.857
99917.543
99891.055
99868.317
99849.227
99833.658
99821.462
99812.461
99806.483
99803.275
99802.741
99804.349
99808.578
99813.566
99822.523
99828.025
99843.957
99844.265
99873.568
99855.494
99911.427
99859.029
99954.871
99860.844
103329.88
103323.65
103337.52
103353.72
103352.41
103344.95
103333.93
103316.21
103286.82
103251.69
103209.67
103162.51
103109.5
103051.74
102989.29
102922.83
102852.57
102778.87
102702.04
102622.39
102540.22
102455.83
102369.49
102281.5
102192.1
102101.58
102010.18
101918.15
101825.74
101733.18
101640.69
101548.5
101456.82
101365.86
101275.82
101186.89
101099.28
101013.16
100928.73
100846.16
100765.62
100687.3
100611.35
100537.94
100467.23
100399.38
100334.52
100272.8
100214.36
100159.31
100107.76
100059.8
100015.51
99974.958
99938.179
99905.19
99875.984
99850.529
99828.769
99810.621
99795.973
99784.691
99776.616
99771.565
99769.353
99769.734
99772.582
99777.418
99784.595
99792.506
99803.862
99812.204
99829.705
99832.884
99862.546
99848.034
99903.698
99854.242
99950.828
99855.855
102912.64
102896.96
102868.17
102837.95
102808.46
102780.94
102748.82
102717.41
102682.34
102646.77
102607.23
102566.33
102521.87
102475.31
102425.71
102373.59
102318.77
102261.4
102201.54
102139.29
102074.78
102008.13
101939.48
101869.01
101796.87
101723.25
101648.33
101572.31
101495.39
101417.76
101339.65
101261.26
101182.81
101104.5
101026.56
100949.21
100872.65
100797.1
100722.77
100649.86
100578.58
100509.13
100441.71
100376.5
100313.7
100253.47
100195.99
100141.42
100089.9
100041.58
99996.567
99954.972
99916.88
99882.354
99851.437
99824.146
99800.472
99780.377
99763.801
99750.654
99740.818
99734.15
99730.487
99729.641
99731.42
99735.581
99741.978
99750.172
99760.428
99771.322
99785.207
99796.336
99815.599
99821.444
99851.833
99840.446
99896.131
99849.395
99946.839
99851.124
102317.23
102294.53
102265.88
102234.32
102202.97
102175.14
102142.9
102113.6
102080.15
102048.67
102013.7
101979.48
101942.49
101905.12
101865.63
101824.84
101782.26
101738.02
101692.02
101644.24
101594.69
101543.36
101490.3
101435.57
101379.22
101321.35
101262.07
101201.5
101139.78
101077.06
101013.51
100949.31
100884.64
100819.69
100754.68
100689.81
100625.3
100561.35
100498.19
100436.04
100375.12
100315.64
100257.81
100201.86
100147.98
100096.36
100047.2
100000.68
99956.956
99916.177
99878.477
99843.97
99812.748
99784.881
99760.412
99739.361
99721.715
99707.435
99696.456
99688.683
99683.992
99682.237
99683.25
99686.839
99692.809
99700.92
99711.013
99722.681
99736.122
99750.059
99766.567
99780.458
99801.613
99809.981
99841.36
99832.83
99888.766
99844.547
99942.904
99846.663
101590.63
101574.72
101559.2
101540.84
101520.53
101504.49
101482.56
101465.01
101442.04
101422.35
101398.2
101375.86
101350.32
101325.24
101298.08
101270.08
101240.48
101209.56
101177.14
101143.19
101107.69
101070.62
101031.98
100991.78
100950.05
100906.85
100862.22
100816.25
100769.02
100720.66
100671.28
100621.02
100570.05
100518.51
100466.6
100414.51
100362.43
100310.56
100259.13
100208.35
100158.44
100109.63
100062.13
100016.17
99971.954
99929.699
99889.603
99851.852
99816.622
99784.069
99754.334
99727.539
99703.779
99683.127
99665.629
99651.303
99640.134
99632.082
99627.075
99625.015
99625.775
99629.204
99635.132
99643.365
99653.706
99665.919
99679.837
99695.08
99711.794
99728.828
99748.023
99764.667
99787.788
99798.594
99831.118
99825.314
99881.601
99839.77
99939.038
99842.472
100875.36
100869.26
100864.99
100859.83
100850.61
100846.59
100835.24
100829.79
100817.47
100809.72
100796.32
100785.71
100771.2
100757.79
100742.11
100725.92
100708.13
100689.21
100668.95
100647.36
100624.42
100600.1
100574.38
100547.26
100518.75
100488.87
100457.64
100425.11
100391.34
100356.4
100320.39
100283.41
100245.57
100207.03
100167.93
100128.43
100088.72
100048.98
100009.42
99970.23
99931.636
99893.851
99857.095
99821.587
99787.543
99755.172
99724.676
99696.247
99670.061
99646.28
99625.047
99606.484
99590.688
99577.73
99567.656
99560.478
99556.182
99554.72
99556.019
99559.974
99566.455
99575.309
99586.362
99599.422
99614.289
99630.736
99648.586
99667.49
99687.543
99707.717
99729.645
99749.034
99774.164
99787.373
99821.144
99817.959
99874.641
99835.13
99935.324
99838.562
100228.32
100228.52
100229.53
100232.71
100230.58
100235.18
100231.04
100234.54
100229.74
100231.11
100226.12
100225.4
100220
100215.86
100209.19
100202.55
100194.5
100185.67
100175.74
100164.75
100152.65
100139.39
100124.96
100109.32
100092.48
100074.42
100055.15
100034.71
100013.11
99990.422
99966.697
99942.016
99916.476
99890.185
99863.271
99835.874
99808.149
99780.262
99752.393
99724.731
99697.472
99670.82
99644.982
99620.166
99596.58
99574.426
99553.899
99535.184
99518.455
99503.867
99491.559
99481.649
99474.229
99469.366
99467.097
99467.43
99470.346
99475.789
99483.681
99493.912
99506.347
99520.832
99537.191
99555.232
99574.757
99595.544
99617.412
99640.041
99663.485
99686.826
99711.51
99733.632
99760.8
99776.423
99811.469
99810.807
99867.9
99830.682
99931.776
99834.939
99647.216
99652.365
99656.404
99664.665
99666.132