/*--------------------------------*- C++ -*----------------------------------*\
  =========                 |
  \\      /  F ield         | OpenFOAM: The Open Source CFD Toolbox
   \\    /   O peration     | Website:  https://openfoam.org
    \\  /    A nd           | Version:  12
     \\/     M anipulation  |
\*---------------------------------------------------------------------------*/
FoamFile
{
    format      ascii;
    class       volScalarField;
    location    "0.134";
    object      T;
}
// * * * * * * * * * * * * * * * * * * * * * * * * * * * * * * * * * * * * * //

dimensions      [0 0 0 1 0 0 0];

internalField   nonuniform List<scalar> 
16000
(
294.80175
286.36734
289.63471
287.85306
288.95662
288.4499
288.87078
288.76
288.95605
288.98967
289.11018
289.19457
289.29953
289.40185
289.51014
289.62172
289.73741
289.85705
289.98074
290.10846
290.24024
290.37606
290.51588
290.65965
290.8073
290.95872
291.11379
291.27234
291.4342
291.59915
291.76695
291.93733
292.10997
292.28456
292.46074
292.63813
292.81633
292.99492
293.17348
293.35158
293.52877
293.70462
293.8787
294.05058
294.21988
294.3862
294.5492
294.70856
294.86397
295.01519
295.162
295.30422
295.4417
295.57435
295.70211
295.82494
295.94286
296.05591
296.16415
296.2677
296.36669
296.46128
296.55162
296.6379
296.72037
296.79931
296.8751
296.9482
297.01917
297.08854
297.15677
297.22426
297.29146
297.35915
297.42849
297.5009
297.5791
297.65943
297.7796
297.85033
294.49777
285.96452
289.36427
287.4994
288.67006
288.1263
288.58237
288.46222
288.67263
288.71172
288.83916
288.93243
289.04452
289.15564
289.27232
289.39286
289.51769
289.64678
289.78016
289.91783
290.05978
290.20596
290.35633
290.51079
290.66923
290.8315
290.99744
291.16685
291.33948
291.51508
291.69335
291.87396
292.05654
292.24073
292.4261
292.61222
292.79866
292.98495
293.17062
293.35521
293.53826
293.7193
293.89791
294.07367
294.24619
294.41509
294.58007
294.74082
294.8971
295.0487
295.19543
295.33719
295.47387
295.60543
295.73186
295.85317
295.96943
296.08072
296.18714
296.28883
296.38597
296.47872
296.56727
296.65183
296.73264
296.80999
296.88425
296.9559
297.0255
297.09362
297.16077
297.22734
297.2938
297.36095
297.42999
297.50227
297.57951
297.66596
297.77159
297.86534
294.20854
285.59203
289.11685
287.18888
288.39924
287.84546
288.31523
288.20288
288.41815
288.46906
288.602
288.70582
288.826
288.94686
289.0731
289.20366
289.33878
289.47845
289.62268
289.77142
289.92466
290.08231
290.24428
290.41043
290.58062
290.75464
290.93229
291.11329
291.29736
291.48417
291.67336
291.86453
292.05726
292.2511
292.44558
292.64022
292.8345
293.02794
293.22002
293.41024
293.59814
293.78323
293.96509
294.14331
294.31753
294.48741
294.65267
294.81306
294.9684
295.11853
295.26335
295.40278
295.53681
295.66545
295.78875
295.90679
296.01968
296.12756
296.23056
296.32887
296.42269
296.51222
296.59766
296.67925
296.75723
296.8319
296.90362
296.97288
297.04025
297.10631
297.1716
297.23653
297.30156
297.36753
297.43559
297.50693
297.58377
297.67145
297.76997
297.87565
293.94277
285.24936
288.88686
286.91572
288.1621
287.59813
288.08192
287.97895
288.19962
288.26384
288.4033
288.51888
288.64848
288.78026
288.91734
289.05914
289.20577
289.35719
289.51339
289.67431
289.83987
290.00996
290.18446
290.36316
290.54588
290.73236
290.92231
291.11541
291.31129
291.50956
291.70977
291.91145
292.11411
292.31723
292.52027
292.72268
292.92391
293.12342
293.32067
293.51514
293.70634
293.89383
294.07717
294.256
294.43
294.59888
294.76242
294.92044
295.07283
295.21951
295.36044
295.49564
295.62516
295.74909
295.86755
295.98067
296.08862
296.19159
296.28977
296.38337
296.47262
296.55776
296.639
296.71658
296.79078
296.86187
296.93023
296.99633
297.06074
297.12407
297.18688
297.24958
297.31266
297.37694
297.4435
297.5135
297.58983
297.67676
297.77088
297.88496
293.70119
284.94341
288.6784
286.68822
287.97035
287.39266
287.88673
287.79768
288.02234
288.10248
288.24922
288.37788
288.51825
288.66209
288.81124
288.96543
289.12469
289.28898
289.45825
289.63241
289.81135
289.99489
290.18287
290.37504
290.57111
290.77077
290.97365
291.17933
291.38737
291.59727
291.80851
292.02052
292.23273
292.44453
292.65533
292.86452
293.0715
293.27568
293.47653
293.67351
293.86616
294.05405
294.23679
294.41407
294.58564
294.75128
294.91086
295.06429
295.21153
295.35261
295.48757
295.61653
295.73961
295.85698
295.96883
296.07536
296.1768
296.27338
296.36533
296.4529
296.53635
296.61594
296.69189
296.76447
296.83394
296.90058
296.96476
297.02694
297.08768
297.14762
297.20732
297.26721
297.32779
297.38985
297.45435
297.52261
297.59794
297.68287
297.7738
297.8929
293.48751
284.68072
288.50489
286.49877
287.80328
287.23537
287.74032
287.66527
287.89356
287.99069
288.14556
288.28809
288.44037
288.59719
288.75947
288.92714
289.10017
289.27849
289.46203
289.65061
289.8441
290.04225
290.24479
290.4514
290.66171
290.87529
291.09167
291.31034
291.53073
291.75224
291.97424
292.19608
292.41709
292.63659
292.85391
293.06841
293.27944
293.48643
293.68882
293.88611
294.07788
294.26374
294.4434
294.61662
294.78323
294.94313
295.09629
295.24272
295.3825
295.51574
295.64261
295.7633
295.87803
295.98705
296.0906
296.18897
296.28242
296.37123
296.45568
296.53604
296.61258
296.68559
296.7553
296.82198
296.88589
296.94731
297.0066
297.06419
297.12064
297.17658
297.2326
297.28916
297.34674
297.40607
297.46801
297.53417
297.60796
297.69006
297.77804
297.90044
293.30463
284.46294
288.36383
286.34595
287.67247
287.12795
287.63104
287.58448
287.812
287.93021
288.09423
288.25138
288.41699
288.58807
288.76499
288.94769
289.13611
289.33009
289.5295
289.7341
289.94364
290.15779
290.37617
290.59834
290.82381
291.05202
291.28239
291.51426
291.74695
291.97973
292.21187
292.4426
292.67119
292.89687
293.11894
293.33672
293.54957
293.75692
293.95825
294.15314
294.34122
294.52221
294.69593
294.86224
295.0211
295.17254
295.31665
295.45357
295.5835
295.70666
295.82333
295.93378
296.03832
296.13728
296.23097
296.31972
296.40385
296.48367
296.55948
296.63157
296.70025
296.76578
296.82842
296.88843
296.94606
297.0016
297.05537
297.10779
297.15939
297.21082
297.26266
297.3154
297.36952
297.42565
297.4846
297.5483
297.61999
297.69856
297.78355
297.90783
293.15037
284.28806
288.25331
286.22846
287.57144
287.05355
287.5593
287.52225
287.78035
287.91948
288.09523
288.26889
288.45029
288.6379
288.83176
289.03176
289.23777
289.44955
289.66687
289.88937
290.11671
290.3484
290.58395
290.82276
291.06421
291.30757
291.55212
291.79704
292.04153
292.28472
292.52577
292.76384
292.99809
293.22776
293.45209
293.67042
293.88216
294.08678
294.28386
294.47307
294.65417
294.82702
294.99157
295.14785
295.29596
295.43608
295.56845
295.69333
295.81105
295.92195
296.0264
296.12478
296.21747
296.30485
296.3873
296.46518
296.53884
296.60862
296.67485
296.73782
296.79784
296.85517
296.91007
296.9628
297.01359
297.06271
297.11046
297.15723
297.20354
297.25
297.29724
297.34575
297.39602
297.44852
297.50407
297.565
297.63406
297.70848
297.79047
297.9154
293.01978
284.15413
288.1765
286.14663
287.52008
287.05082
287.54954
287.57225
287.80202
287.96254
288.1536
288.34634
288.54651
288.7534
288.96691
289.18681
289.41291
289.64483
289.88224
290.12464
290.37152
290.62224
290.87613
291.13242
291.39029
291.64888
291.90725
292.16445
292.41952
292.67149
292.91942
293.1624
293.39956
293.63012
293.85338
294.06872
294.27564
294.47375
294.66275
294.84248
295.01288
295.17397
295.32588
295.46884
295.60311
295.72903
295.84699
295.9574
296.06071
296.15736
296.24781
296.33252
296.41192
296.48644
296.55651
296.62251
296.68481
296.74376
296.79969
296.8529
296.90367
296.95227
296.99894
297.04393
297.08746
297.12976
297.17112
297.21189
297.25256
297.29373
297.33601
297.37996
297.42603
297.47455
297.52638
297.58423
297.65009
297.71984
297.7989
297.9234
292.91214
284.06341
288.13902
286.11569
287.52319
287.08877
287.58515
287.63714
287.88156
288.06834
288.27826
288.49267
288.71462
288.94369
289.17969
289.42224
289.67102
289.9255
290.18518
290.44936
290.71734
290.98827
291.26127
291.53535
291.80949
292.08262
292.35362
292.6214
292.88486
293.14293
293.39462
293.63899
293.87522
294.10257
294.32044
294.52837
294.72599
294.91312
295.08966
295.25567
295.4113
295.5568
295.69251
295.81885
295.93626
296.04527
296.14638
296.24015
296.32712
296.40783
296.48281
296.55256
296.61756
296.67828
296.73515
296.78856
296.83888
296.88647
296.93164
296.97466
297.01583
297.05537
297.09353
297.1305
297.1665
297.20175
297.2365
297.27105
297.30585
297.34147
297.37856
297.4177
297.4593
297.50353
297.55141
297.60589
297.66794
297.73258
297.80894
297.93193
292.83119
284.02396
288.14679
286.20272
287.58479
287.19124
287.6801
287.77659
288.03075
288.24539
288.47821
288.71742
288.96449
289.21896
289.48053
289.74864
290.02278
290.30221
290.58618
290.87377
291.16401
291.4558
291.74799
292.03934
292.32861
292.6145
292.89576
293.17112
293.43943
293.69957
293.95056
294.19153
294.42174
294.64065
294.84783
295.04303
295.22617
295.39731
295.55662
295.70443
295.84115
295.96726
296.08334
296.18999
296.28784
296.37755
296.45976
296.53511
296.60425
296.66775
296.72619
296.78011
296.82999
296.87632
296.91951
296.95994
296.99799
297.03397
297.06817
297.10086
297.13228
297.16266
297.19219
297.22106
297.24946
297.27757
297.3056
297.33384
297.36268
297.39264
297.42437
297.45854
297.49545
297.5352
297.57899
297.62981
297.68746
297.74674
297.8208
297.94074
292.78327
284.04866
288.2082
286.3405
287.69308
287.36308
287.84547
287.98739
288.25834
288.50353
288.76367
289.03135
289.30723
289.59065
289.8811
290.17781
290.47997
290.78657
291.09654
291.40864
291.72157
292.03392
292.34424
292.65105
292.95286
293.2482
293.53567
293.81397
294.08191
294.33844
294.58271
294.81403
295.0319
295.23604
295.42633
295.60286
295.76587
295.91575
296.05299
296.17821
296.29209
296.39536
296.48879
296.57316
296.64925
296.71782
296.77962
296.83534
296.88566
296.9312
296.97253
297.01019
297.04467
297.07641
297.10581
297.13324
297.15901
297.18342
297.20672
297.22916
297.25094
297.27224
297.29324
297.31409
297.33496
297.35599
297.37738
297.39934
297.42222
297.44651
297.47286
297.50194
297.53404
297.56922
297.60886
297.65572
297.70842
297.76237
297.83449
297.94956
292.77322
284.14354
288.33341
286.53121
287.86653
287.61159
288.09012
288.28112
288.57475
288.85383
289.14613
289.44662
289.7555
290.07178
290.39465
290.72299
291.05562
291.39112
291.72802
292.06469
292.39945
292.73055
293.05625
293.3748
293.68454
293.98389
294.27143
294.54592
294.80629
295.05173
295.28166
295.49572
295.69382
295.87606
296.04276
296.1944
296.33161
296.45515
296.56584
296.66458
296.75229
296.82992
296.8984
296.95863
297.01148
297.05779
297.09833
297.13383
297.16496
297.19233
297.2165
297.23796
297.25717
297.27453
297.2904
297.3051
297.3189
297.33206
297.34479
297.35729
297.36972
297.38223
297.39497
297.40806
297.42162
297.43578
297.4507
297.46655
297.48361
297.50233
297.52335
297.54733
297.57454
297.60515
297.64068
297.68329
297.73056
297.77947
297.84981
297.95872
292.80302
284.3162
288.5275
286.80761
288.11528
287.94466
288.42459
288.66794
288.99192
289.3095
289.63952
289.97791
290.32447
290.67775
291.03649
291.39908
291.76381
292.1288
292.49208
292.85159
293.20524
293.55095
293.88673
294.21066
294.52104
294.81633
295.09528
295.35688
295.60046
295.82561
296.03223
296.22049
296.39081
296.54381
296.68028
296.80117
296.90748
297.00033
297.08083
297.15012
297.2093
297.25945
297.3016
297.33672
297.36571
297.38942
297.40861
297.42398
297.43616
297.44572
297.45316
297.45892
297.46341
297.46697
297.46989
297.47245
297.47486
297.47733
297.48002
297.48309
297.48666
297.49084
297.49574
297.50145
297.50806
297.51568
297.52442
297.53443
297.54592
297.55928
297.57511
297.59405
297.61637
297.64251
297.67402
297.71209
297.75351
297.79781
297.86674
297.96808
292.87753
284.57976
288.79387
287.17165
288.45131
288.37393
288.86267
289.16259
289.52555
289.88766
290.26164
290.64353
291.03253
291.42659
291.82381
292.22196
292.61872
293.01163
293.3982
293.77593
294.14237
294.49522
294.83236
295.15194
295.45243
295.73262
295.99172
296.22927
296.44519
296.63976
296.81353
296.9673
297.10212
297.21913
297.31963
297.40495
297.47647
297.53554
297.58349
297.62159
297.65107
297.67304
297.68855
297.69857
297.70397
297.70555
297.70401
297.69998
297.69402
297.68663
297.67823
297.66921
297.65987
297.65051
297.64135
297.63259
297.62441
297.61695
297.61032
297.60463
297.59997
297.59641
297.59402
297.59286
297.59299
297.5945
297.59746
297.60197
297.60822
297.61653
297.62742
297.64144
297.65895
297.68075
297.70836
297.74169
297.77687
297.81685
297.88479
297.97742
293.00111
284.95262
289.12883
287.63758
288.88842
288.91468
289.42263
289.78497
290.19663
290.61041
291.03484
291.46553
291.90083
292.33798
292.77427
293.20673
293.63236
294.04809
294.45094
294.83804
295.20681
295.55495
295.88059
296.18229
296.45909
296.71053
296.93658
297.13766
297.31453
297.46828
297.60021
297.71182
297.8047
297.88052
297.94093
297.98759
298.02208
298.0459
298.06048
298.06712
298.06703
298.0613
298.05093
298.03679
298.0197
298.00033
297.9793
297.95715
297.93435
297.91129
297.88831
297.86571
297.84372
297.82256
297.80238
297.78333
297.76551
297.74901
297.73391
297.72027
297.70812
297.69751
297.68847
297.68103
297.67523
297.67113
297.66877
297.66823
297.66963
297.67327
297.67954
297.68885
297.70171
297.71929
297.74307
297.77161
297.80046
297.83608
297.90287
297.9868
293.17836
285.46428
289.53937
288.22327
289.44786
289.59016
290.13025
290.5621
291.03214
291.50465
291.985
292.46816
292.95139
293.43098
293.9033
294.36453
294.81097
295.23905
295.64551
296.02752
296.38275
296.70948
297.00661
297.27364
297.51069
297.71837
297.89778
298.05036
298.17782
298.28206
298.36511
298.42901
298.4758
298.50746
298.52589
298.53287
298.53003
298.5189
298.50086
298.47713
298.44884
298.41697
298.38238
298.34584
298.30801
298.26947
298.2307
298.19214
298.15413
298.11697
298.08092
298.04617
298.01288
297.9812
297.95121
297.92299
297.89659
297.87206
297.84942
297.82868
297.80985
297.79294
297.77795
297.76488
297.75376
297.7446
297.73744
297.73231
297.72933
297.72872
297.73074
297.73567
297.74411
297.75763
297.77753
297.80131
297.8243
297.8554
297.91987
297.99817
293.42075
286.16167
290.06874
288.95983
290.16046
290.43159
291.01802
291.52626
292.06306
292.59995
293.13944
293.67559
294.20423
294.72049
295.2197
295.6973
296.14918
296.57175
296.96214
297.31825
297.63884
297.92344
298.17237
298.38662
298.5677
298.71756
298.83848
298.9329
299.00336
299.05242
299.08257
299.0962
299.09557
299.08275
299.05967
299.02806
298.98947
298.94531
298.89679
298.845
298.79088
298.73525
298.67883
298.6222
298.5659
298.51034
298.4559
298.40288
298.35152
298.30202
298.25454
298.20918
298.16605
298.12519
298.08666
298.05045
298.01659
297.98505
297.95583
297.92889
297.90422
297.88179
297.86157
297.84356
297.82773
297.8141
297.80267
297.79346
297.78658
297.78217
297.78036
297.7813
297.78571
297.79531
297.81117
297.83016
297.84815
297.87569
297.93718
298.00894
293.75492
287.02998
290.74381
289.88443
291.06389
291.47369
292.12212
292.71339
293.32335
293.92743
294.52489
295.10849
295.6724
296.21066
296.71797
297.18973
297.62236
298.01332
298.36121
298.6657
298.92747
299.14802
299.32951
299.47461
299.58632
299.66781
299.7223
299.75299
299.76291
299.75495
299.73178
299.69584
299.64932
299.59421
299.53225
299.46498
299.39375
299.31974
299.24394
299.16723
299.09035
299.01391
298.93846
298.86441
298.79214
298.72195
298.65405
298.58865
298.52587
298.46583
298.40859
298.35419
298.30266
298.25399
298.20817
298.16516
298.12492
298.0874
298.05254
298.0203
297.99061
297.96343
297.93871
297.91641
297.89651
297.87899
297.86383
297.85106
297.84075
297.83299
297.82778
297.82521
297.82606
297.832
297.8436
297.85756
297.87126
297.89683
297.95542
298.01828
294.22106
288.00958
291.60694
291.03272
292.20208
292.75829
293.48539
294.16539
294.85011
295.51695
296.16148
296.77516
297.35116
297.88347
298.36757
298.80037
299.1804
299.50759
299.78319
300.00951
300.18964
300.32725
300.42633
300.49101
300.5254
300.53345
300.51889
300.48519
300.43548
300.37261
300.29909
300.21714
300.1287
300.03546
299.93887
299.84019
299.74046
299.64058
299.54133
299.44331
299.34707
299.25302
299.16151
299.07282
298.98716
298.90471
298.82556
298.74982
298.67752
298.60869
298.54332
298.48139
298.42286
298.36767
298.31576
298.26705
298.22147
298.17893
298.13935
298.10265
298.06873
298.03754
298.009
297.98306
297.95968
297.93882
297.92046
297.90462
297.89134
297.88064
297.87245
297.86686
297.86469
297.86732
297.87459
297.88331
297.89307
297.91771
297.97367
298.02487
294.87481
289.27356
292.70576
292.4566
293.63567
294.34355
295.16039
295.92678
296.67486
297.38382
298.04652
298.65465
299.20251
299.68636
300.10473
300.45808
300.7486
300.97979
301.15612
301.28265
301.36474
301.40776
301.41694
301.39722
301.35315
301.28886
301.20804
301.11394
301.00943
300.89697
300.77868
300.65638
300.53161
300.40567
300.27965
300.15447
300.03086
299.90946
299.79076
299.67517
299.563
299.4545
299.34986
299.2492
299.15263
299.06018
298.97188
298.88771
298.80766
298.73166
298.65966
298.59157
298.52731
298.46678
298.40988
298.3565
298.30653
298.25986
298.21638
298.17598
298.13856
298.10402
298.0723
298.04331
298.017
297.99333
297.97225
297.9538
297.93797
297.92472
297.91394
297.90578
297.90108
297.90078
297.90398
297.90766
297.91349
297.93638
297.98879
298.03046
295.77314
290.88212
294.12574
294.23553
295.44344
296.29675
297.19469
298.02325
298.7985
299.5035
300.13204
300.67941
301.14439
301.52837
301.83505
302.06977
302.23898
302.34972
302.4092
302.42447
302.4022
302.34853
302.26898
302.16847
302.05129
301.92115
301.78123
301.63423
301.48245
301.32779
301.17185
301.01596
300.86121
300.70849
300.55852
300.41188
300.26904
300.13036
299.9961
299.86647
299.74161
299.62162
299.50653
299.39637
299.29112
299.19072
299.09513
299.00426
298.91801
298.83629
298.75898
298.68595
298.61709
298.55226
298.49134
298.43418
298.38065
298.33063
298.28398
298.24057
298.20029
298.16302
298.12867
298.09716
298.06841
298.04238
298.01903
297.99836
297.98035
297.9649
297.95189
297.94156
297.93468
297.93177
297.93136
297.9308
297.93303
297.95247
297.9985
298.03496
296.89871
292.95965
295.9723
296.45307
297.69178
298.66167
299.5955
300.42609
301.16
301.7885
302.31167
302.73241
303.05686
303.2932
303.45081
303.53957
303.56926
303.54913
303.48771
303.39262
303.27055
303.12728
302.96775
302.79614
302.61593
302.43002
302.24082
302.0503
301.86007
301.67142
301.48541
301.30288
301.12449
300.95075
300.78206
300.61872
300.46094
300.30885
300.16254
300.02205
299.88737
299.75848
299.63531
299.51777
299.40577
299.2992
299.19792
299.10181
299.01072
298.9245
298.84301
298.76608
298.69358
298.62534
298.5612
298.50103
298.44465
298.39194
298.34273
298.2969
298.2543
298.21482
298.17833
298.14476
298.114
298.08599
298.06073
298.03818
298.01829
298.00093
297.98603
297.97386
297.96507
297.95971
297.95608
297.9522
297.95189
297.96808
298.00676
298.03573
298.42689
295.61862
298.34086
299.16253
300.37638
301.4073
302.28766
303.02267
303.62147
304.08796
304.43268
304.66809
304.80807
304.86664
304.85716
304.79189
304.68174
304.53614
304.36314
304.16949
303.96078
303.7416
303.51571
303.28614
303.05534
302.82525
302.59743
302.37312
302.15326
301.93859
301.72969
301.52696
301.33071
301.14114
300.95838
300.78248
300.61347
300.45132
300.29596
300.14729
300.00522
299.86961
299.74031
299.61718
299.50005
299.38875
299.28311
299.18297
299.08813
298.99842
298.91367
298.8337
298.75833
298.68739
298.62072
298.55814
298.49949
298.44462
298.39337
298.34558
298.30112
298.25984
298.22163
298.18637
298.15396
298.12433
298.09744
298.07326
298.05172
298.03269
298.01615
298.00242
297.9919
297.98426
297.97776
297.97123
297.96913
297.98244
298.01346
298.03212
300.4007
298.92903
301.2275
302.3386
303.52221
304.38638
305.09251
305.61913
305.98879
306.21999
306.33403
306.35112
306.2899
306.16673
305.99562
305.78822
305.55411
305.30104
305.03521
304.76157
304.484
304.20556
303.92862
303.65503
303.38619
303.12317
302.86678
302.6176
302.37605
302.14241
301.91684
301.69943
301.49022
301.28915
301.09616
300.91115
300.73396
300.56446
300.40246
300.24779
300.10026
299.95966
299.82581
299.69849
299.57749
299.46262
299.35367
299.25043
299.15271
299.0603
298.97301
298.89064
298.81302
298.73994
298.67124
298.60674
298.54626
298.48964
298.43672
298.38735
298.34136
298.29863
298.259
298.22236
298.18859
298.15761
298.12935
298.10375
298.08073
298.06018
298.04216
298.02697
298.01482
298.00512
297.9963
297.98789
297.98428
297.99396
298.01675
298.02799
302.84808
302.87595
304.88011
305.8527
306.74624
307.35682
307.76306
307.98624
308.06285
308.02257
307.89225
307.69404
307.44601
307.16249
306.8547
306.53136
306.19913
305.86308
305.52707
305.19397
304.86595
304.54458
304.23102
303.92607
303.63031
303.3441
303.06765
302.80105
302.54431
302.29738
302.06014
301.83244
301.61411
301.40494
301.20471
301.01319
300.83015
300.65536
300.48855
300.32949
300.17794
300.03365
299.89638
299.7659
299.64196
299.52435
299.41282
299.30717
299.20717
299.11261
299.02328
298.93898
298.85951
298.78469
298.71431
298.6482
298.58619
298.52811
298.47378
298.42306
298.37578
298.3318
298.29097
298.25316
298.21825
298.18613
298.15671
298.12989
298.10557
298.08366
298.06425
298.04756
298.03367
298.02197
298.01134
298.00191
297.99744
298.00351
298.01712
298.02008
305.91199
307.30113
308.62643
309.32699
309.80418
310.01346
310.03712
309.91696
309.69365
309.39752
309.05199
308.67448
308.27783
307.87145
307.46214
307.05478
306.65286
306.25884
305.87441
305.50073
305.13853
304.78826
304.45014
304.12423
303.81049
303.50877
303.21889
302.9406
302.67364
302.41772
302.17253
301.93777
301.71312
301.49829
301.29295
301.0968
300.90954
300.73087
300.5605
300.39815
300.24354
300.09641
299.95647
299.82348
299.69718
299.57733
299.46369
299.35603
299.25412
299.15773
299.06665
298.98068
298.89961
298.82324
298.75139
298.68386
298.62048
298.56107
298.50548
298.45352
298.40506
298.35994
298.31802
298.27915
298.24322
298.21009
298.17967
298.15182
298.12643
298.10342
298.08283
298.06476
298.04915
298.03548
298.02309
298.01239
298.00617
298.00797
298.01588
298.01835
309.86082
311.64219
312.18093
312.36671
312.3117
312.07745
311.72623
311.30038
310.82999
310.33576
309.83169
309.32724
308.82867
308.34013
307.86424
307.40264
306.95629
306.52564
306.11084
305.71181
305.32834
304.9601
304.6067
304.26773
303.94275
303.6313
303.33293
303.0472
302.77367
302.5119
302.26148
302.02202
301.79311
301.57438
301.36548
301.16604
300.97572
300.79421
300.62118
300.45632
300.29935
300.14996
300.00789
299.87286
299.74462
299.6229
299.50747
299.39809
299.29451
299.19653
299.10391
299.01646
298.93395
298.85619
298.783
298.71417
298.64954
298.58892
298.53215
298.47906
298.4295
298.38331
298.34035
298.30049
298.26359
298.22953
298.19819
298.16945
298.14318
298.11932
298.09786
298.07879
298.06198
298.04706
298.0337
298.02229
298.01443
298.01173
298.01227
298.00813
314.81763
315.18564
314.91366
314.54416
314.0207
313.42697
312.7984
312.16056
311.52756
310.90801
310.30666
309.72608
309.16743
308.63105
308.11676
307.62409
307.15238
306.70088
306.2688
305.85534
305.45973
305.08119
304.719
304.37245
304.04089
303.72368
303.42023
303.12997
302.85238
302.58694
302.33318
302.09065
301.8589
301.63753
301.42614
301.22436
301.03183
300.84821
300.67316
300.50637
300.34753
300.19634
300.05253
299.91582
299.78594
299.66263
299.54565
299.43476
299.32972
299.23031
299.1363
299.04749
298.96367
298.88463
298.81018
298.74015
298.67433
298.61256
298.55467
298.50049
298.44987
298.40265
298.35868
298.31784
298.27999
298.24499
298.21272
298.18307
298.15593
298.1312
298.10884
298.08876
298.07083
298.05487
298.0408
298.02885
298.01962
298.01345
298.00937
298.00437
316.8126
316.97832
316.40122
315.63811
314.85791
314.07688
313.31515
312.58035
311.87588
311.20273
310.56058
309.94848
309.36515
308.80919
308.27916
307.77367
307.29139
306.83107
306.39152
305.97167
305.57049
305.18706
304.8205
304.47001
304.13484
303.8143
303.50774
303.21454
302.93415
302.66604
302.4097
302.16466
301.93048
301.70673
301.49302
301.28896
301.09418
300.90835
300.73113
300.56219
300.40123
300.24797
300.1021
299.96337
299.83149
299.70623
299.58733
299.47455
299.36766
299.26643
299.17065
299.08011
298.99459
298.9139
298.83785
298.76624
298.6989
298.63566
298.57633
298.52077
298.4688
298.42028
298.37507
298.33302
298.294
298.25789
298.22454
298.19385
298.16571
298.14004
298.11673
298.09569
298.07678
298.05996
298.04525
298.03275
298.02241
298.01402
298.00734
298.00227
310.60085
309.28206
305.60481
302.71519
301.43579
301.14737
301.07908
301.07619
300.96469
300.90798
300.80467
300.73398
300.64777
300.56122
300.47511
300.38857
300.30137
300.21346
300.12487
300.03565
299.94588
299.85569
299.76518
299.67449
299.58377
299.49314
299.40274
299.31272
299.2232
299.13433
299.04622
298.95902
298.87284
298.78781
298.70405
298.6217
298.54086
298.46167
298.38425
298.30871
298.23519
298.16381
298.09469
298.02795
297.96373
297.90213
297.84328
297.7873
297.73429
297.68437
297.63763
297.59417
297.55406
297.51738
297.4842
297.45457
297.42854
297.40612
297.38734
297.3722
297.36073
297.35293
297.34876
297.34815
297.3511
297.35757
297.36771
297.3814
297.39928
297.42023
297.44667
297.47322
297.51016
297.53878
297.59268
297.61575
297.70224
297.70962
297.84079
297.85925
309.81177
306.88019
302.70754
300.64778
300.07646
300.07723
300.17825
300.18931
300.18359
300.15744
300.13363
300.09616
300.05333
300.00572
299.95421
299.8989
299.84025
299.77855
299.71411
299.64725
299.57825
299.50738
299.43489
299.36103
299.28604
299.21013
299.13351
299.0564
298.97899
298.90148
298.82404
298.74687
298.67014
298.59402
298.51868
298.4443
298.37102
298.29902
298.22846
298.15948
298.09225
298.02691
297.96362
297.90253
297.84377
297.78748
297.73382
297.68289
297.63483
297.58976
297.54777
297.50897
297.47344
297.44126
297.4125
297.38719
297.36539
297.34712
297.33237
297.32115
297.3135
297.30938
297.30874
297.31153
297.31771
297.32727
297.34032
297.35678
297.37719
297.40062
297.42913
297.45807
297.49642
297.52736
297.58172
297.60731
297.6934
297.70362
297.83632
297.85416
308.39437
304.80902
301.71416
300.0127
299.6833
299.72343
299.75689
299.73084
299.70232
299.66966
299.6379
299.60297
299.5664
299.52692
299.48529
299.44127
299.39509
299.34671
299.29622
299.24372
299.18931
299.13311
299.07526
299.01587
298.9551
298.89311
298.83004
298.76607
298.70136
298.63609
298.57044
298.50457
298.43868
298.37294
298.30753
298.24265
298.17846
298.11516
298.05292
297.99193
297.93235
297.87437
297.81816
297.76388
297.71171
297.66179
297.61429
297.56935
297.52711
297.48769
297.45121
297.41777
297.38747
297.36039
297.33659
297.31612
297.29902
297.28531
297.27497
297.26803
297.26448
297.26432
297.26746
297.27386
297.28346
297.29626
297.31235
297.33168
297.35473
297.3807
297.41139
297.44267
297.4826
297.5157
297.57083
297.59868
297.68487
297.69767
297.83194
297.84946
307.20606
303.36865
300.53979
299.25636
299.20703
299.22294
299.2397
299.20397
299.1855
299.15653
299.13257
299.1036
299.0744
299.04326
299.01103
298.97717
298.94186
298.90495
298.86646
298.82636
298.78469
298.74147
298.69674
298.65056
298.603
298.55415
298.50411
298.45299
298.40091
298.348
298.29442
298.24031
298.18584
298.13117
298.07648
298.02194
297.96775
297.91408
297.86113
297.80909
297.75814
297.70848
297.66028
297.61375
297.56905
297.52636
297.48585
297.44768
297.412
297.37895
297.34865
297.32121
297.29673
297.27529
297.25697
297.24181
297.22984
297.22109
297.21553
297.21318
297.21404
297.21809
297.22524
297.23545
297.24865
297.26484
297.28409
297.30639
297.33217
297.36073
297.39369
297.42729
297.4689
297.50405
297.56015
297.59027
297.67655
297.69175
297.82763
297.845
306.50876
302.15796
299.57941
298.62851
298.70522
298.67968
298.70554
298.66912
298.66225
298.63804
298.62272
298.60104
298.58064
298.55846
298.53569
298.51169
298.48662
298.46032
298.43277
298.40394
298.37379
298.34231
298.30951
298.27539
298.23999
298.20334
298.1655
298.12654
298.08654
298.0456
298.00383
297.96135
297.91829
297.8748
297.83104
297.78716
297.74335
297.69978
297.65664
297.61411
297.57238
297.53166
297.49213
297.45399
297.41742
297.38262
297.34975
297.31898
297.29048
297.26438
297.24082
297.21992
297.20177
297.18647
297.17407
297.16463
297.15819
297.15475
297.1543
297.15683
297.16237
297.17086
297.18223
297.19642
297.21337
297.23308
297.25561
297.28097
297.30955
297.34074
297.37602
297.41194
297.4553
297.49244
297.54964
297.58192
297.66847
297.68591
297.82343
297.8408
305.93946
300.97178
298.77893
298.02573
298.17277
298.11772
298.16344
298.12775
298.13571
298.11825
298.11393
298.10098
298.09032
298.07761
298.06456
298.05038
298.03524
298.01902
298.00171
297.98326
297.96367
297.9429
297.92095
297.89782
297.87351
297.84804
297.82144
297.79376
297.76505
297.73537
297.70481
297.67346
297.64144
297.60885
297.57584
297.54254
297.50912
297.47574
297.44258
297.4098
297.3776
297.34617
297.3157
297.28638
297.2584
297.23195
297.2072
297.18433
297.16349
297.14483
297.12849
297.11458
297.10321
297.09445
297.08838
297.08504
297.08446
297.08665
297.09159
297.09928
297.10972
297.12286
297.13863
297.15696
297.1778
297.20114
297.22705
297.25554
297.28698
297.32084
297.35847
297.3967
297.44184
297.48095
297.53935
297.57371
297.66061
297.68023
297.81933
297.83685
305.36193
299.92487
298.12855
297.47567
297.67013
297.58927
297.65447
297.61724
297.63754
297.62464
297.6293
297.62351
297.62076
297.61573
297.61062
297.60459
297.59778
297.59009
297.58152
297.57202
297.56157
297.55013
297.53769
297.52424
297.50977
297.49427
297.47777
297.46029
297.44185
297.42251
297.40233
297.38137
297.35972
297.33748
297.31477
297.2917
297.26841
297.24504
297.22177
297.19874
297.17613
297.15412
297.1329
297.11264
297.09352
297.07574
297.05945
297.04483
297.03202
297.02119
297.01244
297.0059
297.00166
296.99981
297.0004
297.00347
297.00906
297.01716
297.02774
297.04081
297.05635
297.07433
297.09466
297.11726
297.14211
297.16917
297.19852
297.2302
297.26453
297.30109
297.34109
297.38163
297.42858
297.46967
297.52928
297.56568
297.65297
297.67474
297.8153
297.83317
304.88359
298.97666
297.57819
296.97194
297.20589