/*--------------------------------*- C++ -*----------------------------------*\
  =========                 |
  \\      /  F ield         | OpenFOAM: The Open Source CFD Toolbox
   \\    /   O peration     | Website:  https://openfoam.org
    \\  /    A nd           | Version:  12
     \\/     M anipulation  |
\*---------------------------------------------------------------------------*/
FoamFile
{
    format      ascii;
    class       volScalarField;
    location    "0.075";
    object      k;
}
// * * * * * * * * * * * * * * * * * * * * * * * * * * * * * * * * * * * * * //

dimensions      [0 2 -2 0 0 0 0];

internalField   nonuniform List<scalar> 
16000
(
0.048781732
0.021386835
0.022288122
0.016483771
0.013981825
0.012659506
0.011872886
0.01140365
0.011084891
0.010870908
0.010712701
0.010595105
0.010503255
0.010430583
0.010372123
0.010324844
0.010286206
0.010254531
0.010228713
0.010207415
0.010190073
0.010175892
0.010164525
0.010155432
0.010148356
0.010142965
0.010139073
0.010136513
0.010135144
0.010134837
0.010135471
0.010136945
0.010139177
0.010142101
0.01014566
0.010149798
0.01015446
0.010159594
0.010165149
0.010171075
0.010177315
0.010183808
0.010190491
0.010197296
0.010204143
0.010210942
0.010217611
0.010224078
0.010230278
0.010236159
0.010241676
0.010246782
0.01025142
0.010255515
0.010258982
0.010261736
0.010263699
0.010264806
0.010265002
0.010264239
0.010262473
0.010259685
0.010255907
0.01025121
0.010245727
0.010239678
0.010233371
0.010227157
0.010221385
0.010216339
0.010211972
0.010207078
0.010197457
0.010174923
0.010135832
0.010087817
0.010040175
0.010025888
0.0099931277
0.010018995
0.046199331
0.020272598
0.020858579
0.015938985
0.013640685
0.012458807
0.011712696
0.011288719
0.010985985
0.010789063
0.010641116
0.010532208
0.010446741
0.01037951
0.010325497
0.010282057
0.010246753
0.01021793
0.010194701
0.010175677
0.010160433
0.010148138
0.010138534
0.010131067
0.010125522
0.010121564
0.010119016
0.010117713
0.010117525
0.010118328
0.010120006
0.010122456
0.010125597
0.01012936
0.010133687
0.010138522
0.010143812
0.010149504
0.010155546
0.01016189
0.010168482
0.010175261
0.010182169
0.01018914
0.0101961
0.010202963
0.010209647
0.010216078
0.010222193
0.010227939
0.010233274
0.010238158
0.010242541
0.010246354
0.010249514
0.010251936
0.010253544
0.010254278
0.010254091
0.010252944
0.01025081
0.010247679
0.010243594
0.010238638
0.010232953
0.010226781
0.010220451
0.010214299
0.010208583
0.010203408
0.010198504
0.010192515
0.010181359
0.010157243
0.01011928
0.010072939
0.010033708
0.010017412
0.0099896442
0.010013538
0.042016817
0.019486001
0.019541517
0.015380265
0.013291207
0.012234485
0.011546502
0.011164202
0.010884716
0.010705841
0.010569013
0.010469247
0.010390648
0.010329159
0.0102799
0.010240527
0.010208788
0.010183008
0.010162548
0.010145951
0.010132947
0.010122662
0.010114933
0.010109189
0.010105262
0.010102818
0.010101689
0.010101714
0.010102767
0.010104734
0.010107501
0.010110966
0.010115048
0.010119674
0.010124787
0.010130329
0.010136248
0.010142489
0.010149002
0.010155736
0.010162641
0.010169659
0.010176732
0.010183798
0.01019079
0.010197626
0.010204225
0.010210515
0.010216435
0.010221932
0.010226968
0.010231509
0.01023551
0.01023891
0.010241632
0.01024359
0.010244711
0.010244941
0.010244241
0.010242587
0.010239964
0.010236381
0.010231895
0.010226606
0.010220668
0.010214336
0.010207944
0.0102018
0.010196054
0.010190626
0.01018502
0.010177687
0.010164711
0.010138962
0.010102031
0.010059224
0.010025375
0.010008362
0.0099880331
0.010008125
0.038585621
0.01895471
0.018415202
0.014879005
0.01297475
0.012031515
0.01139426
0.011050436
0.010791688
0.010629185
0.010502996
0.010411689
0.010339647
0.010283595
0.010238886
0.010203399
0.010175104
0.010152253
0.010134485
0.010120246
0.010109436
0.010101116
0.010095226
0.010091175
0.010088837
0.010087881
0.010088146
0.010089473
0.010091742
0.010094842
0.010098664
0.010103106
0.010108083
0.010113522
0.010119362
0.010125546
0.01013202
0.01013873
0.010145624
0.010152653
0.010159769
0.010166917
0.010174041
0.010181085
0.010187986
0.01019467
0.010201059
0.010207085
0.010212686
0.010217814
0.010222432
0.010226512
0.010230016
0.010232894
0.010235071
0.010236466
0.010237008
0.010236646
0.010235354
0.010233119
0.010229941
0.010225847
0.01022091
0.010215246
0.010209021
0.010202489
0.010195971
0.010189726
0.010183786
0.010177893
0.010171356
0.010162467
0.010147577
0.010120817
0.010085486
0.010046811
0.01001802
0.010002274
0.0099874156
0.010004277
0.035914531
0.018663358
0.017467654
0.014414338
0.012679858
0.011839435
0.011251362
0.010943067
0.010704765
0.010557616
0.010441862
0.010358633
0.010293011
0.010242248
0.010202001
0.010170313
0.010145422
0.010125455
0.01011036
0.010098459
0.010089841
0.010083486
0.010079435
0.010077085
0.010076331
0.010076864
0.010078521
0.010081148
0.010084624
0.010088842
0.010093696
0.010099083
0.010104916
0.010111119
0.010117629
0.010124386
0.010131337
0.010138428
0.010145607
0.010152827
0.010160041
0.010167199
0.010174249
0.01018114
0.010187818
0.010194214
0.010200257
0.010205881
0.010211031
0.010215659
0.010219732
0.010223226
0.010226113
0.010228349
0.010229869
0.010230595
0.010230459
0.010229415
0.010227446
0.010224554
0.010220754
0.010216088
0.010210645
0.010204558
0.010198003
0.010191219
0.010184493
0.010178018
0.010171709
0.010165145
0.010157487
0.010146903
0.010129966
0.010103122
0.010069942
0.010035606
0.010011169
0.0099976071
0.009987189
0.010000557
0.033674879
0.018606764
0.016762024
0.013988398
0.012408318
0.011660598
0.01111916
0.010843485
0.010624853
0.010491867
0.010386234
0.010310633
0.010251223
0.010205556
0.010169649
0.010141647
0.010120101
0.010102961
0.01009051
0.010080923
0.010074489
0.010070115
0.010067898
0.010067271
0.010068074
0.010070101
0.010073134
0.010077048
0.01008171
0.010087015
0.010092859
0.010099138
0.010105763
0.010112655
0.010119747
0.01012698
0.010134298
0.010141651
0.010148988
0.010156263
0.010163433
0.010170455
0.010177281
0.010183867
0.010190167
0.010196122
0.010201669
0.010206746
0.010211303
0.010215297
0.010218696
0.01022148
0.01022363
0.010225111
0.010225868
0.01022583
0.010224929
0.010223125
0.010220409
0.010216798
0.010212323
0.010207038
0.010201044
0.010194489
0.010187553
0.010180452
0.010173417
0.010166563
0.010159697
0.010152264
0.010143317
0.010131008
0.010111986
0.010086158
0.010055627
0.010025651
0.010005261
0.0099942799
0.0099871504
0.0099982515
0.031066088
0.018711161
0.016264756
0.013597778
0.012157876
0.01149438
0.010997446
0.010751554
0.010551869
0.010431874
0.010336024
0.010267659
0.010214272
0.010173555
0.010141902
0.01011751
0.010099286
0.010084954
0.010075138
0.010067884
0.010063623
0.010061336
0.010060934
0.010062131
0.01006438
0.010067884
0.0100723
0.010077479
0.010083295
0.010089641
0.010096414
0.010103511
0.010110838
0.010118315
0.010125873
0.010133452
0.010140999
0.010148463
0.010155799
0.010162965
0.010169923
0.010176637
0.010183068
0.010189178
0.010194931
0.01020028
0.01020517
0.010209548
0.010213368
0.010216591
0.010219188
0.010221144
0.010222445
0.010223065
0.010222961
0.01022207
0.010220328
0.010217696
0.010214175
0.010209793
0.010204598
0.010198654
0.01019207
0.010184998
0.010177618
0.010170119
0.010162659
0.010155263
0.010147657
0.010139189
0.010128823
0.010114869
0.010094478
0.010070256
0.010042762
0.010017024
0.01000021
0.0099919019
0.0099874151
0.0099957424
0.028583019
0.018903792
0.015856132
0.013240014
0.011927104
0.011340541
0.010885676
0.01066712
0.010485453
0.010377526
0.010291167
0.010229756
0.010182256
0.010146402
0.010118967
0.010098152
0.010083244
0.010071751
0.010064525
0.010059701
0.01005754
0.010057716
0.010058739
0.010061583
0.010065628
0.010070599
0.010076363
0.010082766
0.010089679
0.010096991
0.0101046
0.010112403
0.010120305
0.010128223
0.010136091
0.010143847
0.010151442
0.010158831
0.010165973
0.010172833
0.010179382
0.010185592
0.010191434
0.010196881
0.010201906
0.010206474
0.010210544
0.010214068
0.010217007
0.010219328
0.010221004
0.010222022
0.010222372
0.010222039
0.01022099
0.01021917
0.010216523
0.010213012
0.010208638
0.010203445
0.010197493
0.010190858
0.010183647
0.010176007
0.01016811
0.010160115
0.010152108
0.010144016
0.010135501
0.010125879
0.010114043
0.010098493
0.010077987
0.010055679
0.010031463
0.010009731
0.009996001
0.0099902327
0.0099886082
0.0099942113
0.026884526
0.019094358
0.015366073
0.01291193
0.01171447
0.011198211
0.010783219
0.010589409
0.010425721
0.010329086
0.010251915
0.010197238
0.01015551
0.010124457
0.010101226
0.010083982
0.010072342
0.010063804
0.010058902
0.010056818
0.010055765
0.010058648
0.010062054
0.010066627
0.010072211
0.010078622
0.010085679
0.010093231
0.010101144
0.010109305
0.010117611
0.010125961
0.010134262
0.01014243
0.010150401
0.010158119
0.010165539
0.010172623
0.010179342
0.010185669
0.010191585
0.010197073
0.010202118
0.010206704
0.010210813
0.010214427
0.010217514
0.010220037
0.010221962
0.01022326
0.010223908
0.010223894
0.010223209
0.010221846
0.010219783
0.010216977
0.010213376
0.010208945
0.010203688
0.010197652
0.010190915
0.010183559
0.010175688
0.010167427
0.010158929
0.010150329
0.010141655
0.010132737
0.010123181
0.010112333
0.010099104
0.010081988
0.010062725
0.010042643
0.010021776
0.010003736
0.0099926572
0.0099888005
0.0099895126
0.0099932495
0.025166684
0.019268831
0.014697415
0.012610835
0.011519988
0.011068113
0.01069092
0.010519676
0.010373245
0.010287004
0.010218701
0.010170574
0.010134507
0.010108206
0.01008917
0.010075531
0.010066889
0.01006169
0.01005794
0.010059653
0.010062326
0.010065953
0.010071153
0.01007743
0.010084554
0.010092326
0.010100576
0.01010915
0.010117912
0.010126747
0.010135551
0.010144228
0.01015269
0.010160857
0.010168671
0.010176083
0.010183059
0.010189573
0.010195605
0.010201145
0.010206185
0.010210722
0.010214756
0.01021828
0.010221293
0.010223785
0.010225739
0.010227127
0.01022792
0.010228094
0.010227627
0.010226505
0.010224723
0.010222275
0.01021915
0.010215316
0.01021073
0.010205355
0.010199194
0.010192297
0.010184751
0.010176647
0.01016808
0.010159146
0.010149964
0.010140651
0.010131199
0.010121365
0.010110691
0.010098577
0.010084165
0.010066242
0.010048911
0.010031254
0.010013657
0.0099989531
0.0099902836
0.0099877144
0.0099902255
0.0099928353
0.023639715
0.019414461
0.014159528
0.012334543
0.011344164
0.01095045
0.010609321
0.010458456
0.010328184
0.010251678
0.010191947
0.010150247
0.010119759
0.010098191
0.010083344
0.010073447
0.010066655
0.010066088
0.01006686
0.010069222
0.010073598
0.010079549
0.010086585
0.010094488
0.010103038
0.010112036
0.010121313
0.010130713
0.010140098
0.010149355
0.010158383
0.010167094
0.01017541
0.01018326
0.010190598
0.010197388
0.01020361
0.010209252
0.010214313
0.010218796
0.010222711
0.010226069
0.010228883
0.01023116
0.010232909
0.010234134
0.010234827
0.010234969
0.010234537
0.01023351
0.010231866
0.010229588
0.010226669
0.010223105
0.010218893
0.010214009
0.010208421
0.010202093
0.010195022
0.010187254
0.010178881
0.010170001
0.010160701
0.010151045
0.010141108
0.010130984
0.010120662
0.010109861
0.010098067
0.010084709
0.010069253
0.010052071
0.010036665
0.010021518
0.010007007
0.0099952909
0.0099887697
0.0099870614
0.0099901676
0.0099931017
0.022276251
0.019547729
0.013692575
0.012083443
0.011186946
0.010844862
0.010538222
0.010405472
0.010290897
0.010223589
0.010172157
0.010136814
0.010111857
0.010095031
0.010084359
0.010078523
0.010076592
0.010077067
0.01008026
0.010085491
0.010092182
0.010100029
0.010108785
0.010118173
0.01012797
0.010137974
0.010148019
0.010157954
0.010167642
0.010176976
0.010185865
0.010194235
0.010202023
0.010209178
0.010215669
0.01022148
0.010226609
0.010231064
0.010234863
0.010238025
0.010240577
0.010242546
0.010243955
0.010244825
0.010245176
0.010245018
0.010244353
0.01024317
0.010241452
0.010239175
0.010236319
0.010232864
0.010228796
0.010224112
0.010218808
0.010212873
0.010206282
0.010199004
0.010191029
0.010182393
0.010173182
0.0101635
0.010153429
0.010143007
0.010132265
0.010121263
0.010110001
0.010098211
0.01008536
0.010070928
0.010054488
0.010039444
0.010026047
0.010013358
0.010001674
0.0099925758
0.0099878752
0.0099867999
0.0099898424
0.0099940324
0.021041994
0.019638315
0.013264765
0.011857518
0.011047921
0.010751412
0.010477756
0.010361417
0.010261726
0.010203264
0.010159912
0.010130914
0.010111481
0.010099436
0.010092986
0.010090807
0.010091969
0.010095914
0.010101859
0.010109398
0.010118173
0.010127847
0.010138125
0.01014875
0.010159499
0.010170173
0.01018061
0.010190668
0.010200226
0.010209189
0.010217483
0.010225056
0.010231872
0.010237904
0.010243145
0.010247603
0.010251298
0.01025426
0.010256524
0.010258129
0.010259115
0.01025952
0.010259381
0.010258727
0.010257583
0.010255968
0.010253888
0.01025134
0.010248306
0.010244766
0.010240694
0.010236067
0.010230865
0.010225078
0.010218701
0.010211733
0.010204155
0.010195942
0.010187079
0.010177587
0.01016754
0.010157037
0.01014616
0.010134935
0.010123362
0.010111461
0.010099227
0.010086449
0.010072618
0.010057414
0.01004148
0.01002841
0.010017025
0.010006651
0.0099974765
0.0099905951
0.0099873762
0.0099868138
0.0099901419
0.0099951268
0.019931642
0.019646576
0.012876527
0.011654691
0.010926344
0.010670139
0.010428044
0.010326557
0.010241148
0.010191356
0.010155945
0.010133327
0.010119449
0.010112238
0.010110061
0.010111708
0.010116288
0.010123108
0.010131653
0.010141454
0.01015212
0.010163326
0.010174789
0.010186256
0.010197511
0.010208366
0.010218674
0.010228313
0.010237187
0.010245227
0.010252389
0.010258654
0.010264015
0.010268481
0.010272073
0.010274823
0.010276775
0.010277978
0.010278485
0.010278348
0.010277618
0.010276344
0.010274567
0.010272322
0.010269639
0.010266538
0.010263029
0.010259111
0.01025477
0.010249983
0.01024472
0.010238954
0.010232656
0.010225807
0.010218399
0.01021043
0.010201894
0.010192773
0.010183047
0.010172723
0.010161854
0.010150529
0.010138824
0.010126768
0.010114355
0.010101577
0.010088397
0.010074661
0.010059988
0.010044093
0.010030166
0.010018974
0.010009516
0.010001251
0.0099942599
0.0099892267
0.009987203
0.0099873016
0.0099906964
0.0099962476
0.018931109
0.019444608
0.012526111
0.011473989
0.010822006
0.010601278
0.0103894
0.010301591
0.010229889
0.010188766
0.010161217
0.01014505
0.01013678
0.010134448
0.010136548
0.010141942
0.010149786
0.010159438
0.01017035
0.010182074
0.010194238
0.010206514
0.010218632
0.010230352
0.010241481
0.010251857
0.010261361
0.01026991
0.010277449
0.010283948
0.010289405
0.010293837
0.010297276
0.010299766
0.010301357
0.010302104
0.010302072
0.010301323
0.010299923
0.010297933
0.010295409
0.010292403
0.010288961
0.010285117
0.010280901
0.010276334
0.010271424
0.010266171
0.010260562
0.010254573
0.01024817
0.010241319
0.010233984
0.010226133
0.010217751
0.010208834
0.010199382
0.010189387
0.010178832
0.010167709
0.010156049
0.010143921
0.010131394
0.010118499
0.010105243
0.010091627
0.010077587
0.010062945
0.010047649
0.010032305
0.010020461
0.010011066
0.010003396
0.0099970031
0.0099918835
0.0099884232
0.0099871621
0.0099879274
0.0099913194
0.0099970122
0.018025617
0.018617915
0.012210751
0.011314712
0.010735167
0.010545242
0.010362373
0.010287472
0.010229016
0.010196667
0.010176958
0.010167306
0.010164661
0.010167182
0.010173468
0.010182446
0.010193303
0.010205406
0.010218231
0.010231337
0.010244359
0.010256992
0.010268991
0.010280154
0.010290328
0.010299404
0.010307314
0.010314026
0.010319541
0.010323879
0.010327084
0.010329215
0.01033034
0.010330531
0.010329863
0.01032841
0.010326249
0.010323451
0.010320085
0.010316213
0.010311893
0.010307176
0.010302102
0.010296706
0.010291013
0.010285041
0.010278796
0.010272275
0.010265466
0.010258343
0.01025087
0.010243006
0.010234706
0.01022593
0.010216647
0.010206848
0.010196534
0.010185709
0.010174364
0.010162484
0.010150076
0.010137187
0.010123874
0.010110164
0.010096069
0.010081631
0.010066846
0.010051491
0.010035524
0.010022355
0.010012294
0.010004559
0.0099985029
0.0099937281
0.0099901515
0.0099880162
0.0099874669
0.0099889223
0.0099919424
0.0099970076
0.017206862
0.017265378
0.011932396
0.011176608
0.010664936
0.010502966
0.010348023
0.010285619
0.010239977
0.010216531
0.010204618
0.010201465
0.010204353
0.010211551
0.01022174
0.010233901
0.010247242
0.010261147
0.010275113
0.010288722
0.01030165
0.010313636
0.010324494
0.010334091
0.010342343
0.010349213
0.010354704
0.010358848
0.010361706
0.010363351
0.010363868
0.010363352
0.010361897
0.010359598
0.010356543
0.010352815
0.010348494
0.010343651
0.010338351
0.010332654
0.01032661
0.010320264
0.01031365
0.010306796
0.010299722
0.010292441
0.010284956
0.010277261
0.01026934
0.010261168
0.010252707
0.010243912
0.010234731
0.010225113
0.010215014
0.010204412
0.010193305
0.010181704
0.010169615
0.010157025
0.010143922
0.010130326
0.010116281
0.010101813
0.010086921
0.010071654
0.010056134
0.010040473
0.01002519
0.01001399
0.01000556
0.0099992986
0.0099946529
0.0099912506
0.0099889526
0.009987938
0.0099881949
0.0099899245
0.0099928245
0.0099972904
0.016470794
0.016401204
0.011697277
0.011060089
0.010612199
0.010475844
0.010347846
0.010297713
0.010264467
0.010249987
0.010245748
0.010248924
0.010257049
0.010268479
0.010281962
0.010296524
0.010311406
0.010326029
0.010339946
0.010352808
0.010364368
0.010374458
0.010382986
0.010389917
0.01039526
0.010399065
0.010401407
0.010402386
0.010402112
0.010400702
0.010398272
0.010394936
0.010390805
0.010385977
0.010380546
0.010374594
0.010368191
0.010361404
0.010354288
0.010346892
0.010339257
0.010331416
0.010323396
0.010315216
0.010306889
0.010298421
0.01028981
0.010281049
0.010272118
0.010262992
0.010253633
0.010243993
0.010234018
0.010223646
0.010212823
0.010201509
0.010189691
0.010177382
0.0101646
0.01015135
0.010137611
0.010123367
0.010108642
0.010093479
0.010077886
0.010061875
0.010045593
0.010029504
0.010016745
0.010007142
0.010000128
0.0099951311
0.0099916739
0.0099894259
0.0099882421
0.0099879924
0.0099890419
0.0099910107
0.0099938756
0.0099977759
0.01580963
0.015399391
0.011496468
0.010965681
0.010577915
0.010465574
0.010363481
0.010325656
0.010304397
0.010298816
0.010301937
0.010310964
0.01032362
0.010338345
0.010353962
0.010369571
0.010384496
0.010398257
0.010410525
0.010421078
0.010429801
0.010436658
0.010441678
0.010444935
0.010446539
0.010446616
0.010445308
0.01044276
0.010439117
0.010434517
0.010429089
0.010422953
0.010416215
0.010408971
0.010401304
0.010393284
0.010384972
0.010376418
0.010367665
0.010358749
0.010349697
0.010340532
0.010331269
0.010321918
0.010312483
0.010302965
0.010293357
0.010283646
0.010273814
0.010263832
0.010253665
0.010243267
0.01023258
0.010221541
0.010210086
0.010198157
0.010185725
0.01017279
0.010159379
0.010145517
0.010131197
0.010116374
0.010101027
0.010085209
0.010068997
0.010052422
0.010035793
0.010020917
0.01000986
0.010001683
0.0099958623
0.0099919181
0.0099894321
0.0099881
0.0099877632
0.0099883674
0.009989815
0.0099919945
0.0099948066
0.009998253
0.015217648
0.014718237
0.011332346
0.010894059
0.010563122
0.01047435
0.010397111
0.010371799
0.010361997
0.010364863
0.010374516
0.010388257
0.010403997
0.010420301
0.010436137
0.010450772
0.010463707
0.01047464
0.010483433
0.010490045
0.010494523
0.010496975
0.01049755
0.01049642
0.01049377
0.01048978
0.010484629
0.010478482
0.010471493
0.010463801
0.010455527
0.010446779
0.01043765
0.010428217
0.010418549
0.010408699
0.01039871
0.010388617
0.010378446
0.010368219
0.01035795
0.010347648
0.010337318
0.010326961
0.010316574
0.010306148
0.010295673
0.010285134
0.010274509
0.010263771
0.010252885
0.010241808
0.010230486
0.010218858
0.010206854
0.010194408
0.010181466
0.010168008
0.010154047
0.010139624
0.010124763
0.010109433
0.010093563
0.01007715
0.010060348
0.010043404
0.010026815
0.01001407
0.010004441
0.0099974479
0.0099926131
0.0099895204
0.0099878069
0.0099872005
0.009987519
0.0099886502
0.009990436
0.0099927826
0.0099955812
0.0099986196
0.014689203
0.013965998
0.011201614
0.010847871
0.010569657
0.010505508
0.010451783
0.010438857
0.010439362
0.010449293
0.010463617
0.010479854
0.010496194
0.010511461
0.010524902
0.010536065
0.010544727
0.010550834
0.010554469
0.010555782
0.010554972
0.010552266
0.010547896
0.010542094
0.010535077
0.010527046
0.01051818
0.010508639
0.010498559
0.010488062
0.010477247
0.010466201
0.010454991
0.010443676
0.0104323
0.010420898
0.010409497
0.010398113
0.010386759
0.01037544
0.010364158
0.010352911
0.010341693
0.010330495
0.010319308
0.010308117
0.010296906
0.010285657
0.010274347
0.010262948
0.010251428
0.010239748
0.010227859
0.010215705
0.010203221
0.010190338
0.01017699
0.010163124
0.010148724
0.010133813
0.010118443
0.010102642
0.010086366
0.010069526
0.010052172
0.010034904
0.010020002
0.010008691
0.010000273
0.0099942475
0.0099902044
0.0099877766
0.0099866448
0.0099865515
0.0099873236
0.0099888032
0.0099908447
0.0099933075
0.0099960901
0.0099988501
0.01422391
0.013382631
0.011108889
0.010831804
0.010601399
0.0105631
0.010530605
0.010528681
0.010536966
0.010551043
0.010566755
0.010582046
0.010595577
0.010606603
0.010614775
0.010620006
0.010622383
0.010622105
0.010619443
0.010614692
0.010608147
0.010600094
0.010590794
0.010580486
0.010569378
0.010557651
0.01054546
0.010532934
0.010520182
0.01050729
0.010494333
0.010481366
0.010468434
0.010455571
0.010442799
0.010430135
0.010417589
0.010405161
0.010392852
0.010380653
0.010368556
0.010356546
0.01034461
0.010332731
0.010320892
0.010309073
0.010297253
0.01028541
0.010273519
0.010261554
0.010249482
0.010237269
0.010224873
0.010212245
0.01019933
0.010186066
0.010172385
0.010158221
0.010143518
0.010128253
0.010112449
0.010096172
0.010079492
0.010062426
0.010045004
0.010027834
0.010014693
0.010004585
0.0099971298
0.0099918722
0.0099884405
0.0099865054
0.0099857811
0.0099860391
0.0099870946
0.0099887879
0.0099909633
0.0099935026
0.0099962804
0.0099989139
0.013827135
0.01291994
0.011056673
0.010850944
0.010683096
0.010650172
0.010634658
0.010640102
0.010651685
0.010665308
0.010677901
0.010688074
0.010695135
0.010698874
0.010699376
0.010696896
0.010691773
0.010684379
0.010675085
0.010664242
0.010652163
0.010639124
0.010625362
0.010611076
0.010596434
0.010581574
0.010566606
0.010551621
0.01053669
0.010521866
0.010507192
0.010492696
0.0104784
0.010464315
0.010450447
0.010436794
0.010423352
0.010410109
0.010397053
0.010384167
0.010371433
0.010358828
0.010346331
0.010333918
0.010321565
0.010309247
0.01029694
0.010284617
0.01027225
0.010259813
0.010247273
0.010234599
0.010221754
0.010208697
0.010195384
0.010181764
0.010167784
0.01015338
0.010138485
0.010123035
0.010106989
0.010090353
0.010073207
0.010055724
0.010038321
0.010022595
0.010010626
0.010001497
0.0099947908
0.0099901149
0.0099871282
0.0099855365
0.0099850858
0.009985561
0.0099867814
0.0099885857
0.0099908311
0.0099934131
0.0099962074
0.0099988611
0.013508013
0.012547118
0.011049058
0.010905306
0.010784699
0.010766023
0.010760284
0.01076697
0.010775703
0.01078335
0.010788077
0.010789305
0.010787001
0.010781431
0.010773005
0.010762183
0.010749417
0.010735123
0.010719665
0.010703358
0.010686464
0.010669197
0.010651731
0.010634205
0.010616728
0.010599386
0.010582243
0.010565348
0.010548735
0.010532429
0.010516442
0.010500782
0.010485448
0.010470435
0.010455735
0.010441332
0.01042721
0.010413349
0.010399728
0.010386321
0.010373104
0.01036005
0.010347129
0.010334313
0.010321573
0.010308878
0.0102962
0.010283508
0.010270772
0.010257961
0.010245044
0.010231989
0.010218761
0.010205326
0.010191648
0.010177689
0.010163407
0.010148759
0.01013369
0.010118139
0.010102038
0.010085333
0.010068026
0.010050285
0.010032837
0.010018648
0.010007584
0.009999199
0.0099930533
0.009988797
0.0099861185
0.0099847519
0.0099844669
0.0099850625
0.0099863616
0.0099882118
0.009990494
0.0099931198
0.0099959651
0.0099987433
0.013283227
0.012276359
0.01108893
0.011001436
0.010916529
0.010902205
0.010897416
0.010898025
0.010897585
0.010894333
0.010887623
0.01087758
0.010864631
0.010849295
0.010832094
0.010813503
0.010793929
0.010773714
0.01075313
0.010732398
0.010711688
0.01069113
0.010670825
0.010650846
0.010631244
0.010612055
0.010593304
0.010575002
0.010557156
0.010539762
0.010522814
0.0105063
0.010490205
0.01047451
0.010459196
0.010444239
0.010429615
0.010415296
0.010401256
0.010387465
0.010373893
0.010360508
0.010347278
0.010334171
0.010321153
0.010308191
0.010295251
0.010282298
0.0102693
0.010256222
0.010243029
0.010229687
0.010216163
0.010202424
0.010188438
0.010174172
0.010159597
0.01014468
0.010129388
0.010113681
0.010097511
0.010080832
0.010063626
0.010046034
0.010028856
0.010015721
0.010005351
0.009997504
0.0099917534
0.0099877799
0.0099852984
0.0099840661
0.0099838704
0.0099845217
0.0099858511
0.0099877195
0.0099900298
0.0099927119
0.0099956493
0.009998605
0.013153629
0.012106427
0.011181436
0.01112831
0.011063398
0.011045316
0.011031759
0.011019641
0.011005377
0.010988471
0.01096905
0.010947579
0.010924585
0.01090056
0.010875917
0.010850992
0.010826049
0.010801285
0.010776851
0.010752853
0.010729366
0.010706443
0.010684114
0.010662396
0.010641296
0.01062081
0.010600929
0.01058164
0.010562925
0.010544764
0.010527135
0.010510012
0.010493371
0.010477184
0.010461425
0.010446063
0.010431068
0.010416412
0.010402061
0.010387985
0.01037415
0.010360523
0.01034707
0.010333757
0.010320547
0.010307406
0.010294296
0.01028118
0.010268022
0.010254782
0.010241423
0.010227908
0.010214199
0.010200262
0.010186063
0.010171573
0.010156762
0.010141605
0.010126076
0.01011015
0.010093805
0.010077022
0.01005983
0.010042469
0.010026126
0.010013625
0.010003758
0.0099962707
0.0099907747
0.0099869711
0.0099845984
0.0099834326
0.0099832761
0.0099839456
0.0099852833
0.0099871645
0.009989512
0.009992269
0.009995326
0.0099984743
0.013085425
0.012033406
0.011337782
0.011269489
0.011208885
0.011176687
0.011147519
0.011119152
0.011089889
0.011059735
0.011028955
0.010997912
0.01096693
0.010936273
0.010906137
0.010876663
0.010847944
0.010820038
0.010792978
0.010766776
0.010741432
0.010716932
0.010693259
0.010670388
0.010648292
0.01062694
0.010606302
0.010586347
0.01056704
0.010548352
0.010530247
0.010512696
0.010495664
0.01047912
0.010463032
0.010447367
0.010432093
0.010417177
0.010402586
0.010388288
0.010374248
0.010360432
0.010346807
0.010333338
0.010319988
0.010306722
0.010293503
0.010280293
0.010267051
0.010253738
0.010240313
0.010226736
0.010212966
0.010198964
0.010184693
0.010170118
0.010155208
0.01013993
0.010124258
0.010108168
0.010091642
0.010074684
0.010057373
0.010040081
0.010024412
0.010012288
0.010002716
0.0099954297
0.0099900634
0.0099863339
0.0099839961
0.0099828443
0.0099826926
0.0099833627
0.0099847063
0.0099866067
0.0099890031
0.0099918471
0.0099950297
0.0099983607
0.013091409
0.011991727
0.011491535
0.01140128
0.011329322
0.011278813
0.011232655
0.011189349
0.0111476
0.011107221
0.011068158
0.011030433
0.010994065
0.010959057
0.010925392
0.010893042
0.010861966
0.010832118
0.010803447
0.010775899
0.010749422
0.010723963
0.01069947
0.010675892
0.010653182
0.010631292
0.010610178
0.010589797
0.010570108
0.010551071
0.010532648
0.010514802
0.010497496
0.010480695
0.010464365
0.010448472
0.010432982
0.010417861
0.010403077
0.010388595
0.010374384
0.010360409
0.010346637
0.010333034
0.010319566
0.010306197
0.010292891
0.010279612
0.010266321
0.010252979
0.010239545
0.010225979
0.01021224
0.010198288
0.010184084
0.010169588
0.010154762
0.010139567
0.010123964
0.010107915
0.010091388
0.010074371
0.010056941
0.010039529
0.010024
0.010011935
0.01000238
0.0099950815
0.0099896821
0.0099859087
0.0099835292
0.0099823908
0.0099821673
0.0099828217
0.0099841646
0.0099860897
0.0099885462
0.0099914817
0.0099947792
0.0099982664
0.013180973
0.012016295
0.011606834
0.011497179
0.011409956
0.011343637
0.011284666
0.011231106
0.011181329
0.01113468
0.011090718
0.011049148
0.011009743
0.01097232
0.01093672
0.010902807
0.010870458
0.010839564
0.010810027
0.010781756
0.010754668
0.01072869
0.01070375
0.010679785
0.010656733
0.010634541
0.010613154
0.010592525
0.010572607
0.010553358
0.010534735
0.010516698
0.01049921
0.010482235
0.010465735
0.010449676
0.010434024
0.010418746
0.010403807
0.010389175
0.010374816
0.0103607
0.010346792
0.01033306
0.010319471
0.010305991
0.010292586
0.010279219
0.010265856
0.010252459
0.010238991
0.010225413
0.010211688
0.01019778
0.010183652
0.010169269
0.010154597
0.010139602
0.010124251
0.010108512
0.010092359
0.010075774
0.010058793
0.01004166
0.010025494
0.010013061
0.010003138
0.0099955183
0.0099898425
0.0099858651
0.0099833657
0.0099821248
0.0099817791
0.0099824101
0.0099837254
0.0099856694
0.0099881751
0.0099911842
0.0099945816
0.0099981975
0.01330441
0.012072414
0.011667309
0.011545598
0.011448254
0.011373667
0.011308647
0.011250615
0.011197524
0.011148393
0.011102549
0.011059535
0.01101901
0.010980704
0.010944401
0.010909919
0.010877102
0.010845818
0.010815949
0.01078739
0.01076005
0.010733844
0.010708697
0.01068454
0.010661308
0.010638944
0.010617392
0.010596602
0.010576527
0.010557121
0.010538343
0.010520152
0.01050251
0.010485378
0.010468723
0.010452507
0.010436698
0.010421261
0.010406162
0.01039137
0.010376852
0.010362575
0.010348507
0.010334615
0.010320866
0.010307228
0.010293665
0.010280143
0.010266626
0.010253077
0.010239458
0.010225731
0.010211858
0.010197802
0.010183527
0.010168995
0.010154174
0.010139028
0.010123526
0.010107639
0.010091346
0.010074641
0.010057591
0.010040551
0.010025077
0.010012956
0.010003224
0.0099956585
0.0099899615
0.0099859169
0.0099833084
0.0099819265
0.0099815069
0.0099821918
0.0099834418
0.0099854013
0.0099879171
0.0099909756
0.0099944344
0.0099981465
67.636504
366.69606
123.77119
14.976768
0.41342201
0.021271236
0.019915535
0.019611917
0.019358021
0.018314817
0.017006105
0.015836706
0.014946996
0.014382113
0.01397988
0.01360252
0.013237623
0.012912648
0.012637777
0.012407137
0.012211214
0.012042372
0.011895362
0.01176642
0.011652573
0.011551376
0.011460865
0.011379472
0.011305969
0.011239388
0.011178925
0.011123881
0.011073645
0.011027707
0.010985666
0.010947194
0.010912013
0.010879871
0.010850534
0.010823792
0.01079946
0.010777358
0.010757311
0.010739162
0.010722768
0.010707991