/*--------------------------------*- C++ -*----------------------------------*\
  =========                 |
  \\      /  F ield         | OpenFOAM: The Open Source CFD Toolbox
   \\    /   O peration     | Website:  https://openfoam.org
    \\  /    A nd           | Version:  12
     \\/     M anipulation  |
\*---------------------------------------------------------------------------*/
FoamFile
{
    format      ascii;
    class       volScalarField;
    location    "0.075";
    object      omega;
}
// * * * * * * * * * * * * * * * * * * * * * * * * * * * * * * * * * * * * * //

dimensions      [0 0 -1 0 0 0 0];

internalField   nonuniform List<scalar> 
16000
(
1089.4966
2177.9478
1062.6323
642.42343
452.9757
315.09644
238.89882
180.42583
145.26696
117.70494
99.980822
85.601998
74.915509
66.000742
58.72169
52.591198
47.415826
43.002189
39.209925
35.927406
33.070734
30.569099
28.364345
26.410098
24.668972
23.111899
21.714827
20.459169
19.329147
18.310347
17.389764
16.557154
15.804351
15.124447
14.511529
13.960103
13.464993
13.021327
12.625035
12.272678
11.960386
11.684109
11.440903
11.228066
11.042524
10.881167
10.741577
10.62146
10.518618
10.430974
10.356662
10.294036
10.241565
10.197899
10.161854
10.132499
10.109199
10.09169
10.080254
10.075501
10.075344
10.074663
10.073402
10.07184
10.06998
10.067932
10.065836
10.063858
10.062164
10.060886
10.060015
10.059048
10.056201
10.047996
10.032921
10.014354
9.9966942
9.9931102
9.9812246
9.9989137
1131.1159
2171.2656
1055.8908
642.54649
453.15901
318.0149
239.98584
182.24965
146.10608
118.73985
100.53119
86.168982
75.281123
66.316949
58.951706
52.770295
47.547698
43.09884
39.278951
35.974446
33.100679
30.586533
28.372878
26.412635
24.667375
23.107648
21.7087
20.451597
19.320647
18.301676
17.381404
16.549228
15.79684
15.11722
14.50449
13.953225
13.458358
13.014951
12.618747
12.266432
11.954423
11.678449
11.435414
11.222743
11.037536
10.876528
10.737259
10.617453
10.514934
10.427619
10.353614
10.291286
10.239094
10.195689
10.159867
10.130657
10.107377
10.089661
10.077557
10.071584
10.070921
10.070152
10.068762
10.067089
10.065146
10.063046
10.060941
10.058989
10.057319
10.055986
10.054883
10.053443
10.049936
10.04105
10.026479
10.008668
9.9943815
9.9901901
9.9804335
9.9983474
1171.1589
2173.9784
1043.7853
639.04525
449.85296
318.29906
238.92272
182.46228
145.67754
118.90703
100.39065
86.187157
75.186222
66.224998
58.826476
52.632716
47.398832
42.944363
39.122926
35.819175
32.948095
30.438679
28.231212
26.278384
24.540975
22.989442
21.598564
20.349132
19.225488
18.213812
17.30075
16.47543
15.729472
15.055763
14.448471
13.902221
13.412081
12.973156
12.581008
12.232303
11.923837
11.651216
11.411166
11.201143
11.018498
10.859855
10.72271
10.6048
10.503986
10.418213
10.345564
10.284434
10.233289
10.190801
10.155764
10.127192
10.104381
10.086936
10.074785
10.068175
10.066881
10.065953
10.064398
10.062586
10.060539
10.058376
10.056248
10.054303
10.052622
10.051183
10.049778
10.047757
10.043467
10.033885
10.019773
10.003476
9.9914582
9.9869164
9.980198
9.9963478
1209.4161
2183.5553
1034.6354
635.68113
446.14921
318.38814
237.56146
182.51643
145.10778
118.97232
100.19743
86.142331
75.049015
66.084958
58.660105
52.455841
47.213988
42.75639
38.935913
35.635272
32.768941
30.266179
28.06664
26.122923
24.394935
22.853096
21.471741
20.231369
19.116264
18.113007
17.208258
16.390852
15.652344
14.985507
14.384558
13.844152
13.359488
12.92577
12.538408
12.193912
11.889524
11.620788
11.384241
11.177269
10.997549
10.841611
10.706888
10.591133
10.492234
10.408187
10.337045
10.277239
10.227242
10.18575
10.151565
10.123689
10.101393
10.084252
10.072145
10.065195
10.063205
10.062074
10.060334
10.058365
10.056202
10.05396
10.051784
10.049801
10.048041
10.046402
10.044596
10.041901
10.036784
10.026774
10.013372
9.998836
9.9888729
9.9847897
9.9804945
9.9953128
1245.7134
2202.7065
1027.2764
632.11243
441.71271
317.72951
235.51824
182.08113
144.16242
118.75802
99.815207
85.920129
74.772076
65.812329
58.378385
52.174676
46.93582
42.484145
38.672702
35.382381
32.527061
30.036502
27.84977
25.91957
24.205007
22.676535
21.30812
20.08001
18.976333
17.984109
17.090136
16.282958
15.554095
14.896189
14.303515
13.770744
13.293184
12.866196
12.485119
12.146146
11.846996
11.583236
11.351248
11.148207
10.972187
10.819663
10.687992
10.574938
10.478414
10.396494
10.327197
10.269001
10.220389
10.180087
10.146919
10.119882
10.098229
10.081514
10.069579
10.062459
10.059909
10.058526
10.05658
10.054433
10.052136
10.049795
10.04754
10.045465
10.043551
10.041626
10.039336
10.035906
10.029899
10.019857
10.007399
9.9947039
9.9864259
9.9831206
9.9809589
9.9943274
1279.9084
2229.1716
1024.1221
629.23415
437.88442
316.4399
233.00625
181.23585
142.95269
118.30356
99.288578
85.543059
74.375075
65.424524
57.995964
51.802541
46.575933
42.13794
38.342341
35.068515
32.229582
29.756026
27.586352
25.6734
23.975782
22.46393
21.111488
19.898519
18.808897
17.83007
16.949116
16.154272
15.437062
14.78997
14.207336
13.683843
13.214884
12.795985
12.422554
12.090344
11.797475
11.539637
11.313157
11.114836
10.943186
10.794684
10.666602
10.556721
10.462953
10.383497
10.316322
10.259967
10.212929
10.173971
10.141946
10.115859
10.094948
10.078746
10.067077
10.059917
10.056953
10.055282
10.053111
10.050767
10.048315
10.04585
10.043474
10.041245
10.039097
10.0368
10.033953
10.029775
10.022856
10.013249
10.001933
9.9910872
9.9843593
9.9819152
9.9816415
9.9938388
1311.9675
2260.5583
1024.9089
626.47684
434.0365
314.5121
230.44173
180.01815
141.60522
117.61326
98.626682
85.010215
73.854477
64.919615
57.509805
51.336596
46.131371
41.714921
37.941846
34.690797
31.873776
29.422192
27.274109
25.381836
23.704874
22.213109
20.879877
19.685139
18.612422
17.649554
16.784048
16.003813
15.300425
14.666176
14.095483
13.583036
13.124293
12.714922
12.350548
12.026577
11.741085
11.490116
11.270114
11.077347
10.910733
10.766851
10.642885
10.536641
10.445994
10.369319
10.304528
10.250232
10.204945
10.16747
10.136704
10.111664
10.091585
10.075979
10.064653
10.057558
10.054313
10.052326
10.049913
10.047352
10.044719
10.042095
10.039551
10.0371
10.034638
10.031897
10.028438
10.023545
10.016024
10.007094
9.9970631
9.9880225
9.9827821
9.9811242
9.9828024
9.993571
1341.9971
2294.3923
1026.9933
623.38556
430.26033
311.93158
227.83814
178.57112
140.09611
116.70501
97.846356
84.33027
73.211461
64.299681
56.920052
50.776328
45.601088
41.213956
37.469208
34.247127
31.457621
29.03304
26.911436
25.041379
23.388921
21.92094
20.610399
19.437253
18.384588
17.440509
16.593136
15.830021
15.142852
14.523686
13.967024
13.467562
13.020818
12.622555
12.26867
11.955163
11.678195
11.435015
11.222429
11.036165
10.875218
10.736507
10.617157
10.514979
10.427778
10.354165
10.291984
10.239932
10.196547
10.160673
10.131258
10.107346
10.088173
10.073231
10.06231
10.055358
10.051947
10.049626
10.046957
10.044157
10.041309
10.038486
10.035721
10.032983
10.030135
10.026899
10.022805
10.017219
10.009639
10.001513
9.9928507
9.9855207
9.9817853
9.980851
9.9845522
9.9935825
1370.0881
2328.5632
1025.5626
619.51209
425.5068
308.64587
224.32285
176.72013
138.26638
115.61231
96.942831
83.502155
72.438987
63.560003
56.221738
50.116091
44.979485
40.630035
36.91651
33.729536
30.97349
28.581282
26.491921
24.652883
23.029344
21.589277
20.305187
19.157169
18.127837
17.20543
16.378871
15.63536
14.966762
14.364853
13.824229
13.339593
12.906522
12.520873
12.178606
11.8757
11.60857
11.37418
11.169938
10.991657
10.836998
10.703955
10.589754
10.492039
10.408573
10.33826
10.278878
10.229222
10.187859
10.153676
10.125683
10.102958
10.084749
10.070529
10.060059
10.0533
10.049811
10.047145
10.044205
10.041144
10.038046
10.034975
10.031938
10.028856
10.025566
10.021803
10.017108
10.010841
10.003796
9.9966118
9.9893483
9.9835755
9.9810383
9.9808156
9.9857768
9.9937864
1396.3427
2361.503
1017.0517
614.56834
419.06004
304.9178
219.98199
174.39801
136.38767
114.33524
95.906107
82.520674
71.529193
62.692743
55.406982
49.343184
44.252836
39.949978
36.282254
33.138969
30.424008
28.070595
26.019084
24.215499
22.625567
21.217681
19.963958
18.844766
17.842241
16.944555
16.141553
15.420235
14.772668
14.19028
13.66777
13.199846
12.782142
12.410608
12.081366
11.790456
11.534212
11.30946
11.114128
10.943733
10.79607
10.669159
10.560976
10.468084
10.388666
10.321841
10.265412
10.218263
10.179011
10.146582
10.120054
10.098554
10.081344
10.067889
10.057908
10.051364
10.047852
10.044835
10.041609
10.038267
10.034882
10.031514
10.028155
10.024691
10.020926
10.016618
10.011413
10.004796
9.9985892
9.9924405
9.9865532
9.9821387
9.9804616
9.981202
9.9869697
9.9941155
1420.872
2392.5324
1008.305
608.5651
410.95587
300.78554
215.38704
171.87449
134.40736
112.87645
94.723708
81.379088
70.470686
61.677604
54.453482
48.452886
43.422626
39.177899
35.564637
32.473621
29.807364
27.499391
25.491836
23.729417
22.17802
20.806734
19.587499
18.501009
17.528953
16.659233
15.882308
15.18582
14.561802
14.001238
13.498935
13.049604
12.648938
12.292961
11.977967
11.700091
11.455753
11.241572
11.055858
10.894084
10.753894
10.63328
10.53078
10.443073
10.368294
10.305099
10.251785
10.207224
10.170138
10.139493
10.114446
10.094183
10.077987
10.065325
10.055863
10.049536
10.046014
10.042645
10.039119
10.035475
10.031771
10.028062
10.024339
10.020469
10.016229
10.011386
10.005731
9.9994397
9.9940703
9.9889969
9.984412
9.9812426
9.9802644
9.982405
9.9878393
9.9945248
1443.8035
2422.6865
995.04005
601.02154
401.45447
296.24165
210.61629
169.09331
132.40055
111.24154
93.368741
80.047255
69.22599
60.508309
53.364935
47.442019
42.485255
38.310494
34.76212
31.732621
29.123363
26.867841
24.910488
23.195072
21.68754
20.357088
19.176663
18.126945
17.189191
16.351019
15.601406
14.93241
14.334516
13.798137
13.318179
12.88934
12.507393
12.168408
11.868893
11.605093
11.373558
11.171479
10.995879
10.843144
10.710876
10.596939
10.500352
10.417867
10.347407
10.28798
10.238136
10.196255
10.161366
10.132512
10.108933
10.089894
10.074702
10.06284
10.053927
10.047808
10.04424
10.040524
10.036682
10.032718
10.028673
10.02459
10.020469
10.016183
10.011494
10.006191
10.000109
9.9947565
9.9902631
9.9862444
9.9828556
9.9808531
9.9804149
9.9834683
9.9884687
9.9949904
1465.4483
2451.1325
977.87667
592.5691
391.43454
291.28529
205.77329
166.11228
130.34056
109.40896
91.776573
78.508759
67.800375
59.179028
52.135027
46.306974
41.438047
37.346171
33.873712
30.91527
28.371872
26.17645
24.275366
22.61315
21.155395
19.868342
18.731174
17.722487
16.822966
16.020477
15.303957
14.665046
14.095686
13.585687
13.129993
12.72327
12.361426
12.04054
11.757375
11.50838
11.290015
11.099393
10.934419
10.791115
10.667131
10.5606
10.469921
10.392784
10.326879
10.271116
10.224362
10.185444
10.152804
10.125732
10.103582
10.085729
10.07151
10.060428
10.052088
10.046182
10.042477
10.038422
10.034249
10.029952
10.025554
10.021085
10.016549
10.011845
10.006741
10.001108
9.9952516
9.990765
9.9871522
9.9841371
9.9818112
9.9807401
9.9811847
9.9842933
9.9891946
9.9955216
1486.0432
2474.2163
956.55307
583.55584
380.96699
285.97037
200.94405
162.93767
128.15713
107.28428
89.931784
76.753035
66.181314
57.681733
50.757838
45.043139
40.277958
36.282721
32.898444
30.020756
27.552798
25.426071
23.585098
21.98237
20.581129
19.346897
18.258034
17.294971
16.437797
15.674464
14.993726
14.387416
13.848395
13.36666
12.93688
12.553614
12.213002
11.911089
11.644877
11.411171
11.206518
11.027901
10.873601
10.739803
10.624048
10.524292
10.439539
10.367708
10.306771
10.254795
10.211015
10.174652
10.144491
10.119226
10.098455
10.081726
10.068432
10.058078
10.050318
10.044675
10.040683
10.036302
10.031789
10.027147
10.022392
10.017545
10.012602
10.00749
10.002031
9.996104
9.9911281
9.9874656
9.9846973
9.9826048
9.9812176
9.9807582
9.9821531
9.9851518
9.9898947
9.9961316
1505.8455
2487.3776
931.10941
573.89231
370.11825
280.32883
196.20349
159.49107
125.73053
104.87511
87.8074
74.7626
64.3566
56.006534
49.2262
43.645602
39.002186
35.117939
31.835717
29.046006
26.663325
24.615124
22.848103
21.312545
19.974457
18.798487
17.763056
16.849607
16.038596
15.31782
14.67583
14.104386
13.595728
13.14361
12.740999
12.382155
12.063588
11.781289
11.5324
11.314221
11.123418
10.957704
10.814001
10.68962
10.582202
10.489417
10.410385
10.34348
10.286896
10.239106
10.198319
10.164316
10.136258
10.113006
10.093602
10.077919
10.065491
10.05579
10.048558
10.043275
10.038829
10.034134
10.029285
10.024296
10.019184
10.013975
10.008659
10.00316
9.9974398
9.9917609
9.9877001
9.9848259
9.9828393
9.9815471
9.9809566
9.9812337
9.9830023
9.9860489
9.9905519
9.9966145
1525.0751
2480.7562
901.91101
563.62481
358.9357
274.36634
191.54596
155.64581
122.98417
102.13711
85.374137
72.515089
62.310511
54.142582
47.532931
42.108997
37.608125
33.846006
30.681193
27.999745
25.715819
23.75693
22.072321
20.611828
19.343212
18.231592
17.254576
16.392615
15.63082
14.955258
14.354125
13.81978
13.344709
12.922742
12.547902
12.213841
11.917555
11.655053
11.423408
11.220639
11.04314
10.888971
10.755773
10.640587
10.541361
10.456074
10.382699
10.32054
10.267911
10.223782
10.186326
10.154611
10.12842
10.106895
10.089024
10.074328
10.062706
10.053588
10.046748
10.041725
10.036905
10.031903
10.026733
10.021408
10.015944
10.01038
10.004741
9.9989346
9.9929303
9.9882113
9.9849334
9.9827868
9.9815079
9.9809143
9.9809286
9.9819446
9.9838846
9.9869734
9.9911835
9.9967643
1543.9026
2434.1616
870.37822
552.78492
347.47713
267.99582
186.66299
151.37525
119.80528
99.023003
82.598781
69.98622
60.027512
52.080526
45.671644
40.424032
36.088437
32.478504
29.451046
26.892937
24.72162
22.863382
21.270268
19.892594
18.696984
17.65445
16.740531
15.935926
15.225463
14.596947
14.037908
13.541245
13.099774
12.707815
12.360417
12.050939
11.776639
11.533808
11.319175
11.131478
10.967083
10.824061
10.700818
10.594369
10.502634
10.423954
10.356638
10.299067
10.250124
10.209295
10.174761
10.145586
10.1211
10.101105
10.084567
10.07096
10.060079
10.05151
10.044945
10.040042
10.034897
10.029604
10.024134
10.0185
10.012703
10.006785
10.000824
9.9948871
9.9891898
9.9853422
9.9827802
9.9812763
9.9806152
9.9805947
9.9812419
9.98261
9.9848345
9.9879342
9.9919212
9.9970402
1562.2
2397.6761
838.55905
541.31841
335.74603
260.67643
181.62871
146.57733
116.08085
95.47541
79.446859
67.152379
57.492619
49.812335
43.630113
38.602286
34.464435
31.030638
28.161644
25.743859
23.698303
21.951739
20.455174
19.167377
18.052941
17.083112
16.234723
15.488895
14.83054
14.249262
13.732482
13.273404
12.865293
12.50256
12.180438
11.894809
11.641693
11.417991
11.220854
11.047568
10.89585
10.76342
10.649448
10.551267
10.466613
10.393948
10.331792
10.278784
10.233685
10.195834
10.163948
10.137008
10.11436
10.0957
10.080378
10.06778
10.057586
10.049568
10.043225
10.038222
10.032811
10.027246
10.021498
10.015582
10.009497
10.003263
9.9969712
9.9908452
9.9862584
9.9831201
9.9811801
9.9802199
9.9800589
9.9805437
9.9816352
9.9833663
9.9857907
9.988912
9.9927359
9.9973997
1579.5108
2356.6864
805.83073
528.8879
323.6418
252.17443
176.25071
141.13816
111.70344
91.434114
75.885554
63.993223
54.687485
47.323774
41.43341
36.665901
32.759765
29.52847
26.83796
24.576415
22.664588
21.039569
19.650241
18.456395
17.425329
16.529779
15.747527
15.060639
14.453837
13.917283
13.441711
13.019049
12.643181
12.309062
12.012383
11.749228
11.51607
11.309896
11.128149
10.968548
10.829023
10.70753
10.602134
10.511569
10.433501
10.366449
10.309054
10.260125
10.218589
10.183473
10.153978
10.129104
10.108186
10.090708
10.076434
10.064679
10.055188
10.047709
10.041668
10.036298
10.030667
10.024857
10.018853
10.012669
10.006335
9.9998682
9.9934273
9.9878284
9.9839872
9.9814814
9.9800714
9.979562
9.9798151
9.9806879
9.982133
9.9841415
9.9867111
9.9898218
9.9934827
9.997745
1595.1625
2288.9705
771.4425
514.98598
310.40938
242.34338
170.2161
134.92005
106.57397
86.841159
71.889535
60.489771
51.629275
44.662105
39.117356
34.653079
31.011984
28.006542
25.507492
23.415354
21.651005
20.153143
18.873993
17.775798
16.828192
16.00598
15.288038
14.65682
14.100552
13.608372
13.171885
12.783771
12.438267
12.130743
11.857462
11.615136
11.400572
11.210843
11.043556
10.896472
10.767744
10.65576
10.559119
10.475453
10.403394
10.341477
10.288416
10.243098
10.204565
10.172266
10.144867
10.12179
10.102391
10.086164
10.072825
10.061807
10.052873
10.045812
10.040016
10.03434
10.028494
10.022472
10.016252
10.009825
10.003253
9.9966429
9.990226
9.9855548
9.9823296
9.9803435
9.9793815
9.9792346
9.9798072
9.9809742
9.9826757
9.9848708
9.9875199
9.9906073
9.994124
9.9980345
1608.0749
2220.4898
734.4922
499.04988
296.38559
230.99133
163.05631
127.75766
100.6166
81.666916
67.452949
56.682381
48.378955
41.885458
36.740739
32.616118
29.26685
26.501599
24.21055
22.295042
20.681507
19.312676
18.143726
17.139612
16.272699
15.520485
14.862565
14.285552
13.776477
13.325405
12.925207
12.569124
12.25183
11.968973
11.71712
11.493566
11.295844
11.120999
10.966938
10.831486
10.712786
10.609881
10.520383
10.443015
10.376338
10.319057
10.269951
10.227991
10.192321
10.162199
10.136689
10.115185
10.097126
10.082027
10.069529
10.05918
10.05072
10.043961
10.038322
10.032401
10.026349
10.02013
10.013741
10.00714
10.000346
9.9936145
9.987948
9.9839012
9.9811925
9.97962
9.9790108
9.9791418
9.9799643
9.9813378
9.9831981
9.9854989
9.988191
9.9912365
9.9946237
9.9982396
1615.4587
2137.3284
694.75413
479.38303
281.31959
217.79885
154.29814
119.51442
93.831076
75.958099
62.658624
52.677808
45.032231
39.079367
34.376991
30.615868
27.569675
25.059853
22.98019
21.242219
19.777845
18.534863
17.472367
16.558253
15.767219
15.079216
14.47805
13.950137
13.484472
13.070892
12.703526
12.376395
12.084694
11.824399
11.59216
11.385364
11.202636
11.040968
10.898584
10.773648
10.664354
10.568969
10.486065
10.414279
10.352355
10.299157
10.253584
10.21452
10.181489
10.153339
10.129468
10.109302
10.092376
10.078296
10.066534
10.056791
10.048775
10.042231
10.036622
10.03055
10.024318
10.017899
10.01134
10.004648
9.997837
9.9911674
9.9862891
9.9827749
9.98048
9.9792301
9.9788344
9.9792577
9.9802046
9.9817108
9.9836604
9.986006
9.9886916
9.9916845
9.9949541
9.998357
1612.1608
2035.2545
651.71416
453.68398
265.0339
202.42012
143.70075
110.21454
86.367096
69.841318
57.690657
48.622377
41.707713
36.338743
32.103174
28.716171
25.973828
23.718348
21.845939
20.279028
18.956454
17.831738
16.868504
16.0381
15.317815
14.689632
14.139171
13.654655
13.226331
12.8463
12.508031
12.206444
11.937284
11.697052
11.482786
11.291944
11.122343
10.972171
10.839688
10.723344
10.621659
10.533121
10.456046
10.389252
10.331515
10.281807
10.239461
10.203117
10.172069
10.145667
10.12326
10.10425
10.088358
10.074989
10.063841
10.054604
10.047033
10.040704
10.034941
10.028816
10.022484
10.015916
10.009158
10.002287
9.9954886
9.9894631
9.9851177
9.9820492
9.9800859
9.9790819
9.9787923
9.9794314
9.9804689
9.9820467
9.9840341
9.9863822
9.9890375
9.9919691
9.9951396
9.998412
1592.019
1904.4373
605.58554
421.27965
247.53063
184.65082
131.48383
100.18129
78.571962
63.639692
52.768802
44.680839
38.528447
33.756731
29.99092
26.97329
24.522987
22.509333
20.831443
19.422772
18.229851
17.212146
16.338011
15.582397
14.925231
14.350363
13.844974
13.399168
13.004284
12.653367
12.340413
12.060933
11.811119
11.587859
11.388532
11.210893
11.052965
10.912968
10.789282
10.680409
10.585042
10.502354
10.430335
10.367914
10.313979
10.267519
10.227623
10.193457
10.164163
10.139178
10.118094
10.100159
10.084984
10.072216
10.061542
10.052721
10.045387
10.039204
10.033332
10.027178
10.020827
10.014235
10.00741
10.000428
9.9936116
9.9882648
9.9843262
9.9815908
9.9798678
9.9790533
9.9788762
9.9796211
9.9807114
9.9823169
9.9843057
9.9866303
9.9892455
9.9921234
9.9952216
9.9984276
1546.1939
1744.4215
557.52993
382.95977
229.76082
164.76823
118.32939
90.034903
70.900207
57.676014
48.117179
41.013239
35.611411
31.418218
28.101618
25.434188
23.257223
21.458046
19.954894
18.686624
17.607698
16.683234
15.886085
15.194767
14.591969
14.063419
13.596648
13.183703
12.816885
12.490739
12.199275
11.93856
11.705178
11.496339
11.309681
11.143179
10.99505
10.863686
10.74761
10.645445
10.5559
10.477753
10.409824
10.350826
10.299785
10.255732
10.217855
10.185601
10.15791
10.134241
10.114056
10.096905
10.082364
10.070065
10.059808
10.0512
10.044013
10.037878
10.031888
10.025677
10.019299
10.012723
10.005946
9.9990332
9.99234
9.9874603
9.983832
9.9813331
9.9797783
9.9791068
9.9790209
9.9797828
9.9809004
9.9825062
9.984478
9.9867708
9.9893476
9.9921855
9.9952423
9.9984237
1466.4226
1581.0186
508.5146
343.54723
205.84931
145.50414
105.17594
80.46023
63.80678
52.26394
43.951714
37.775192
33.067628
29.399377
26.483928
24.126381
22.19105
20.581561
19.22827
18.080104
17.09795
16.252033
15.519034
14.880455
14.321397
13.829712
13.395398
13.01017
12.667303
12.3612
12.087223
11.841723
11.621636
11.424431
11.247966
11.090389
10.950058
10.825478
10.715257
10.618085
10.532736
10.45813
10.393557
10.337409
10.288827
10.246896
10.210805
10.179817
10.153267
10.13051
10.111065
10.094499
10.080528
10.068654
10.058622
10.050175
10.043059
10.036914
10.030811
10.024514
10.018062
10.011444
10.004677
9.9978725
9.9915532
9.986959
9.9835577
9.9812301
9.979804
9.9791712
9.9790421
9.9799058
9.9810172
9.9826115
9.98456
9.986824
9.9893734
9.9921894
9.9952307
9.9984127
1354.4396
1493.431
462.44322
296.19433
182.06763
127.41147
93.27933
71.978429
57.666017
47.697479
40.490808
35.118308
31.000953
27.770628
25.184787
23.079138
21.339296
19.883473
18.650998
17.599633
16.695682
15.913472
15.232735
14.637268
14.11393
13.65198
13.242529
12.87826
12.553237
12.262987
12.002592
11.768866
11.559001
11.370694
11.201985
11.051182
10.916778
10.797402
10.691774
10.598679
10.516946
10.445429
10.383006
10.328744
10.281698
10.241022
10.205947
10.175808
10.15014
10.128105
10.109268
10.093188
10.079492
10.067862
10.058009
10.049681
10.042624
10.036473
10.030307
10.023946
10.017421
10.010731
10.003918
9.9971523
9.9911362
9.9867064
9.9834197
9.9811625
9.9797938
9.9792288
9.9791589
9.9799489
9.9810589
9.982637
9.9845662
9.9868112
9.9893473
9.9921583
9.9952014
9.9983984
1221.739
1249.8526
422.3157
253.96389
159.94306
112.31831
83.430705
65.126736
52.811479
44.177346
37.888016
33.156447
29.496674
26.59936
24.260192
22.340167
20.742042
19.396126
18.251347
17.269478
16.421467
15.684709
15.041298
14.47678
13.979279
13.538921
13.147678
12.798808
12.48675
12.206908
11.955522
11.729453
11.526122
11.343368
11.179356
11.032495
10.901365
10.784672
10.681208
10.589844
10.509559
10.439623
10.37848
10.325294
10.279148
10.239222
10.20476
10.175078
10.149568
10.127694
10.10897
10.092978
10.07935
10.067767
10.057951
10.049653
10.042624
10.036502
10.03038
10.024042
10.017527
10.010819
10.003959
9.9971417
9.9911862
9.9867845
9.9835116
9.9812549
9.9798702
9.9792558
9.9791203
9.9799566
9.9810336
9.9825945
9.9845079
9.9867448
9.9892831
9.9921044
9.995161
9.9983816
1102.3212
1112.8766
389.71985
223.27606
143.3852
101.20987
76.133169
60.134804
49.340278
41.706499
36.089174
31.822421
28.491457
25.831871
23.667791
21.878754
20.379898
19.110009
18.023977
17.0879
16.275801
15.567393
14.946543
14.400293
13.918525
13.490922
13.110236
12.770098
12.465273
12.19141
11.94492
11.722844
11.522735
11.342549
11.180552
11.035241
10.905276
10.789429
10.686549
10.595539
10.515345
10.444956
10.383409
10.329772
10.283177
10.242811
10.20793
10.177855
10.151978
10.129755
10.110705
10.094408
10.080494
10.068644
10.05858
10.050053
10.042825
10.036586
10.030622
10.024419
10.018082
10.011574
10.004913
9.9982006
9.9919301
9.9873275
9.9838781
9.9815042
9.9800449
9.9793885
9.9793137
9.9799052
9.9809813
9.9825074
9.9844064
9.9866407
9.9891892
9.9920278
9.9951098
9.9983639
1047.4805
1071.1814
365.51398
206.21247
132.52726
93.661729
70.68922
56.163278
46.379813
39.450968
34.336394
30.433569
27.373535
24.920059
22.915946
21.253135
19.855266
18.66709
17.6478
16.766684
16.0002
15.32995
14.741268
14.222219
13.762923
13.355104
12.991754
12.666967
12.37578
12.114054
11.878354
11.665845
11.474182
11.301413
11.145894
11.006202
10.881082
10.769386
10.670042
10.582029
10.504363
10.436093
10.376304
10.324123
10.278725
10.239339
10.205255
10.175824
10.150461
10.128644
10.10991
10.093851
10.080112
10.068381
10.058387
10.04989
10.042655
10.036374
10.030338
10.024075
10.017682
10.011131
10.004449
9.9977799
9.9918061
9.987326
9.9839409
9.9815705
9.9800813
9.9793677
9.9791845
9.9798971
9.9808968
9.982403
9.9842881
9.9865231
9.9890765
9.991936
9.9950448
9.9983414
31691.476
79137.047
37215.873
10806.128
1417.6832
609.00552
431.69115
348.27967
288.46733
234.65857
191.27963
158.26841
133.83613
115.66859
101.67081
90.256953
80.623698
72.402228
65.351892
59.267808
53.977849
49.34718
45.270809
41.663659
38.460794
35.598144
33.030659
30.718649
28.630514
26.741298
25.029665
23.476571
22.065417
20.781624
19.613766
18.552205
17.588243
16.714161
15.922907
15.208078
14.564096
13.985404
13.466947
13.004185
12.592663
12.228161
11.906852
11.624727
11.378129
11.163711
10.978211
10.818534
10.681735
10.565301
10.466735
10.384225
10.317984
10.26714
10.231135
10.211739
10.205661
10.204855
10.204033
10.202289
10.19991
10.196288
10.190245
10.182961
10.172369
10.165028
10.146675
10.139203
10.114555
10.120847
10.084124
10.107382
10.02779
10.035537
9.9784623
9.9893875
19811.031
59963.966
24868.356
5132.75
970.13508
526.44374
395.43952
319.30811
262.28992
211.3152
173.39881
144.74916
123.82221
108.08504
95.663093
85.284583
76.453367
68.897562
62.39622
56.760171
51.83748
47.511602
43.690444
40.298429
37.274066
34.564646
32.129047
29.930155
27.940091
26.136407
24.499402
23.011429
21.65721
20.423343
19.299608
18.277081
17.347645
16.504126
15.739911
15.049017
14.426228
13.86622
13.364247
12.916012
12.517232
12.163888
11.852324
11.578641
11.339355
11.131246
10.951156
10.796095
10.663222
10.55013
10.454414
10.373987
10.309213
10.259613
10.224732
10.206448
10.200904
10.200229
10.199338
10.197542
10.195094
10.191899
10.1866
10.179832
10.169938
10.162799
10.145596
10.138565
10.114237
10.121662
10.085838
10.109349
10.027738
10.034998
9.9780499
9.9891794
27906.466
36032.497
13704.777
2568.7194
834.62412
496.56433
385.38136
304.09045
248.99607
199.84238
165.70106
138.67718
119.27877
104.41335
92.57588
82.614518
74.15596
66.91711
60.680173
55.265429
50.530331
46.365387
42.682968
39.410794
36.48844
33.868996
31.512617
29.383135
27.454715
25.705818
24.117433
22.672599
21.356728
20.157014
19.063927
18.068847
17.163983
16.342476
15.597949
14.924671
14.317639
13.77165
13.282168
12.845038
12.456083
12.111415
11.807492
11.540479
11.30702
11.103979
10.928268
10.776975
10.647349
10.537072
10.443672
10.365099
10.301411
10.252753
10.218727
10.201199
10.196137
10.195559
10.194618
10.192788
10.190327
10.187247
10.182718
10.176523
10.167377
10.160457
10.14446
10.137796
10.113854
10.122218
10.087379
10.111016
10.027559
10.034304
9.9776494
9.9890437
35555.637
24098.383
8388.0006
1547.5147
751.49421
473.25092
372.97449
288.23396
237.86975
189.24181
158.72789
132.77925
114.96891
100.88102
89.630472
80.078368
71.979553
65.037426
59.048633
53.841901
49.282968
45.268925
41.716468
38.556606
35.732183
33.195712
30.913554
28.849664
26.979781
25.283061
23.741165
22.33775
21.058858
19.892223
18.828963
17.860692
16.979931
16.180097
15.455029
14.799224
14.207874
13.675878
13.198905
12.772925
12.393859
12.057946
11.761747
11.501491
11.273946
11.076057
10.904804
10.757356
10.631113
10.523626
10.432608
10.356077
10.293511
10.245822
10.212674
10.195878
10.191357
10.190863
10.189875
10.18802
10.185545
10.182432
10.178522
10.172947
10.1646
10.157918
10.143125
10.136905
10.113408
10.122568
10.088741
10.112401
10.027256
10.033496
9.9772787
9.9890493
40187.44
20468.724
5882.9851
1222.3261
716.66556
455.90626
363.27959
275.82134
229.7681
181.12343
153.78673
128.18793
111.71992
98.072963
87.266407
78.01465
70.19526
63.481062
57.685236
52.641615
48.222341
44.329161
40.881727
37.813421
35.06904
32.603699
30.381813
28.373202
26.553112
24.901102
23.39934
22.03195
20.785462
19.648031
18.611307
17.667021
16.807966
16.027773
15.320439
14.680652
14.103754
13.584716
13.119391
12.70384
12.334061
12.006408
11.717525
11.46369
11.241791
11.048836
10.881871
10.738146
10.615141
10.510373
10.421671
10.347121
10.285761
10.238992
10.206678
10.190626
10.186572
10.186141
10.185115
10.183244
10.180767
10.17768
10.174043
10.169129
10.161622
10.1552
10.141589
10.135874
10.112889
10.122808
10.089903
10.113476
10.026825
10.032562
9.9769444
9.9891263
43009.519
19070.448
4502.3297
1149.1992
696.11124
437.38264
355.74127
266.04807
223.56359
174.65285
149.91026
124.30015
109.03847
95.651047
85.232851
76.22387
68.6393
62.114619
56.481245
51.575775
47.275646
43.486143
40.129242
37.140248
34.465692
32.062049
29.893793
27.934047
26.158111
24.546006
23.080252
21.745352
20.528248
19.417441
18.405044
17.482841
16.643877
15.881947
15.191181
14.566432
14.003159
13.496387
13.04214
12.636541
12.275659
11.955948
11.674123
11.426502
11.210088
11.021943
10.859183
10.719166
10.599257
10.497158
10.410742
10.338147
10.278105
10.23222
10.200716
10.185435
10.181778
10.181398
10.180341
10.178465
10.175996
10.172935
10.169331
10.16506
10.158428
10.152289
10.139812
10.134708
10.11229
10.122929
10.090858
10.114228
10.026267
10.03151
9.976652
9.9892759
45249.144
17160.733
3602.7195
1097.9675
680.74854
424.70624
349.84533
258.21817
218.78182
169.50557
146.82298
121.02965
106.81719
93.562328
83.48278
74.667688
67.279814
60.912905
55.416223
50.62769
46.429173
42.728616
39.449816
36.529614
33.91592
31.566465
29.447024
27.529296
25.792389
24.215897
22.782465
21.476879
20.286422
19.199882
18.20978
17.307889
16.487503
15.742537
15.067229
14.456575
13.906126
13.410946
12.967214
12.571096
12.218722
11.906634
11.631603
11.389986
11.178893
10.995444
10.836859
10.700342
10.583481
10.484008
10.399842
10.329173
10.270561
10.225514
10.194798
10.180248
10.176975
10.176642
10.175561
10.173688
10.171236
10.168214
10.164683
10.160751
10.155015
10.149188
10.137776
10.133376
10.111602
10.122897
10.091568
10.11464
10.025583
10.030341
9.9764052
9.9894605
46898.434
14512.184
3028.2433
1066.3683
669.08733