/*--------------------------------*- C++ -*----------------------------------*\
  =========                 |
  \\      /  F ield         | OpenFOAM: The Open Source CFD Toolbox
   \\    /   O peration     | Website:  https://openfoam.org
    \\  /    A nd           | Version:  12
     \\/     M anipulation  |
\*---------------------------------------------------------------------------*/
FoamFile
{
    format      ascii;
    class       volScalarField;
    location    "0.075";
    object      T;
}
// * * * * * * * * * * * * * * * * * * * * * * * * * * * * * * * * * * * * * //

dimensions      [0 0 0 1 0 0 0];

internalField   nonuniform List<scalar> 
16000
(
294.54198
286.21157
289.46209
287.68912
288.77892
288.28384
288.69955
288.59369
288.78783
288.82315
288.94338
289.02812
289.133
289.23527
289.34338
289.45472
289.5701
289.68938
289.81266
289.93994
290.07124
290.20655
290.34584
290.48907
290.63615
290.787
290.94149
291.09947
291.26076
291.42515
291.59241
291.76226
291.93442
292.10856
292.28433
292.46137
292.63929
292.81769
292.99614
293.17423
293.35153
293.52762
293.70208
293.87451
294.04453
294.21178
294.37592
294.53665
294.69371
294.84687
294.99593
295.14074
295.2812
295.41722
295.54879
295.67592
295.79867
295.91713
296.03147
296.14191
296.24874
296.35233
296.45312
296.55167
296.64865
296.7448
296.841
296.93819
297.03739
297.13964
297.2459
297.35682
297.47222
297.58972
297.70341
297.79994
297.88687
297.8819
298.00249
297.86043
294.25397
285.82429
289.1981
287.35258
288.50926
287.97689
288.42806
288.3126
288.52129
288.5619
288.68919
288.78275
288.8948
289.00585
289.12235
289.24265
289.36717
289.4959
289.62887
289.7661
289.90756
290.05324
290.20307
290.35698
290.51485
290.67655
290.84191
291.01074
291.18281
291.35786
291.5356
291.7157
291.89782
292.08158
292.26659
292.45241
292.63862
292.82477
293.01041
293.19507
293.37831
293.5597
293.7388
293.91522
294.08858
294.25854
294.42479
294.58706
294.74513
294.8988
295.04792
295.19241
295.33219
295.46725
295.59762
295.72336
295.84457
295.96141
296.07408
296.18282
296.28797
296.38994
296.48918
296.58629
296.68191
296.7768
296.8718
296.9678
297.06575
297.16662
297.27129
297.38036
297.49351
297.60799
297.71726
297.81198
297.88052
297.90203
297.97682
297.88247
293.98017
285.4665
288.95018
287.05794
288.25395
287.71141
288.17624
288.0686
288.28219
288.33452
288.46736
288.57143
288.69158
288.81235
288.9384
289.06871
289.20351
289.3428
289.4866
289.63489
289.78762
289.94474
290.10615
290.27173
290.44133
290.61476
290.79182
290.97224
291.15573
291.34199
291.53065
291.72133
291.91361
292.10706
292.30121
292.49559
292.68972
292.88309
293.07521
293.26561
293.45381
293.63936
293.82185
294.00088
294.1761
294.3472
294.51392
294.67603
294.83335
294.98576
295.13317
295.27554
295.41288
295.54524
295.67269
295.79537
295.91343
296.02709
296.13658
296.2422
296.34432
296.44338
296.53988
296.63439
296.72759
296.82022
296.91308
297.007
297.10288
297.20158
297.30391
297.41038
297.5204
297.63086
297.73524
297.82416
297.88274
297.9123
297.96376
297.89466
293.72841
285.13807
288.74067
286.79947
288.03121
287.47761
287.9566
287.85824
288.07736
288.14285
288.28228
288.39805
288.52761
288.65929
288.79615
288.93767
289.08393
289.23495
289.39068
289.55109
289.71611
289.88563
290.05953
290.23762
290.41972
290.60557
290.7949
290.98739
291.18268
291.38037
291.58005
291.78124
291.98347
292.18623
292.38897
292.59118
292.79232
292.99184
293.18923
293.38398
293.57561
293.7637
293.94783
294.12765
294.30284
294.47314
294.63836
294.79832
294.95293
295.10213
295.24591
295.3843
295.51739
295.6453
295.76818
295.88621
295.99962
296.10867
296.21364
296.31487
296.41278
296.50781
296.6005
296.69143
296.78128
296.87075
296.96061
297.05165
297.14467
297.24046
297.33974
297.4429
297.54912
297.65497
297.7538
297.83547
297.88742
297.91864
297.95593
297.9028
293.4995
284.84431
288.54352
286.58379
287.8551
287.28409
287.77379
287.68898
287.91239
287.99346
288.14022
288.26899
288.40928
288.55296
288.70183
288.85569
289.01453
289.17834
289.34708
289.52067
289.699
289.88192
290.06924
290.26074
290.45614
290.65513
290.85734
291.06238
291.26979
291.4791
291.6898
291.90132
292.11311
292.32458
292.53513
292.74417
292.95112
293.15542
293.35652
293.55391
293.74714
293.9358
294.11951
294.29799
294.47098
294.63829
294.79979
294.95543
295.10517
295.24906
295.38716
295.51962
295.64658
295.76825
295.88484
295.99662
296.10385
296.20686
296.30597
296.40156
296.49407
296.58398
296.67183
296.75821
296.84378
296.92921
297.01524
297.10259
297.19198
297.28412
297.37965
297.47883
297.58056
297.68112
297.7736
297.84775
297.89392
297.92314
297.95142
297.90802
293.2973
284.59261
288.38001
286.40334
287.69515
287.13689
287.63895
287.56677
287.79496
287.89202
288.0469
288.18943
288.34156
288.49813
288.66006
288.82731
288.99984
289.17762
289.36054
289.54849
289.74129
289.93873
290.14054
290.34641
290.55597
290.76882
290.98449
291.20246
291.42219
291.64309
291.86453
292.08589
292.30649
292.52569
292.74282
292.95724
293.16835
293.37555
293.57833
293.77619
293.96872
294.15556
294.33642
294.51107
294.67936
294.84121
294.99659
295.14553
295.28813
295.42451
295.55486
295.67939
295.79836
295.91203
296.0207
296.12468
296.22431
296.31995
296.41196
296.50077
296.58682
296.67062
296.7527
296.83365
296.9141
296.99472
297.07615
297.15907
297.24412
297.33193
297.42304
297.51756
297.61415
297.70882
297.7944
297.861
297.90176
297.92781
297.94872
297.91238
293.12454
284.38419
288.24842
286.25837
287.57366
287.03719
287.53963
287.49358
287.72124
287.84011
288.00409
288.16116
288.32653
288.49729
288.67377
288.85596
289.04378
289.23713
289.43584
289.6397
289.84847
290.06181
290.27937
290.50072
290.72537
290.95278
291.18236
291.41349
291.64548
291.87762
292.10919
292.33945
292.56766
292.79309
293.01504
293.23285
293.44589
293.6536
293.85549
294.05114
294.24021
294.42242
294.59759
294.76562
294.92646
295.08017
295.22683
295.36661
295.4997
295.62636
295.74688
295.86155
295.97072
296.07472
296.17393
296.2687
296.35943
296.4465
296.53031
296.61131
296.68996
296.76677
296.84226
296.91701
296.99162
297.0667
297.14285
297.22068
297.30074
297.38358
297.46965
297.55889
297.64973
297.73797
297.8163
297.87552
297.91108
297.93309
297.94653
297.91658
292.97888
284.21697
288.1459
286.14723
287.47952
286.9673
287.47291
287.43668
287.69701
287.8362
288.0119
288.18538
288.36645
288.55365
288.74697
288.94636
289.15167
289.3627
289.5792
289.80086
290.0273
290.25808
290.49271
290.7306
290.97113
291.21361
291.4573
291.70142
291.94517
292.1877
292.42819
292.66581
292.89975
293.12923
293.35355
293.57204
293.78412
293.9893
294.18715
294.37737
294.55972
294.73408
294.9004
295.05872
295.20916
295.3519
295.48718
295.61529
295.73656
295.85135
295.96006
296.06306
296.16077
296.25361
296.34199
296.42632
296.50701
296.58449
296.65918
296.73152
296.80198
296.87107
296.93929
297.0072
297.07534
297.14429
297.21458
297.28674
297.36125
297.43858
297.51905
297.60242
297.68695
297.76833
297.83931
297.89144
297.922
297.93937
297.94504
297.92122
292.85564
284.08951
288.07611
286.07054
287.43417
286.97883
287.46903
287.49841
287.72389
287.88461
288.07552
288.26796
288.46768
288.67403
288.88686
289.10602
289.33127
289.56231
289.79876
290.04017
290.28601
290.53569
290.78853
291.04378
291.30065
291.55825
291.8157
292.07206
292.32637
292.57769
292.82508
293.06767
293.3046
293.5351
293.75849
293.97417
294.18166
294.38056
294.57061
294.75164
294.9236
295.08654
295.24058
295.38595
295.52293
295.65186
295.77314
295.88719
295.99445
296.09541
296.19052
296.28026
296.3651
296.4455
296.52192
296.5948
296.66456
296.73165
296.79648
296.85951
296.92118
296.98199
297.04242
297.10298
297.16417
297.2265
297.29045
297.35648
297.42499
297.49635
297.57073
297.64772
297.72547
297.79973
297.86343
297.90888
297.9345
297.94698
297.94477
297.92675
292.75419
284.00386
288.04409
286.04374
287.44234
287.01506
287.51033
287.55924
287.80759
287.99424
288.20387
288.41783
288.63916
288.86753
289.10267
289.34431
289.59207
289.8455
290.10404
290.36707
290.63386
290.9036
291.17542
291.44835
291.72137
291.99345
292.26348
292.53038
292.79308
293.05054
293.30176
293.54585
293.78199
294.00946
294.22768
294.43619
294.63466
294.82289
295.00081
295.16848
295.32605
295.47379
295.61203
295.7412
295.86174
295.97417
296.07903
296.17686
296.26821
296.35364
296.43369
296.50889
296.57975
296.64675
296.71037
296.77107
296.82927
296.88541
296.9399
296.99317
297.04565
297.09781
297.15008
297.20294
297.25684
297.31221
297.36947
297.42901
297.49116
297.55619
297.62411
297.69433
297.76496
297.83194
297.88857
297.92779
297.94839
297.95569
297.94751
297.9336
292.67819
283.96807
288.05602
286.13905
287.50788
287.12103
287.60778
287.70621
287.9592
288.17356
288.40591
288.64448
288.89073
289.1443
289.40481
289.67181
289.94472
290.2229
290.50555
290.7918
291.08068
291.37113
291.662
291.95208
292.24015
292.52494
292.80519
293.0797
293.34731
293.60693
293.85759
294.09844
294.32879
294.54807
294.75589
294.95201
295.13635
295.30897
295.47006
295.61995
295.75905
295.88784
296.00689
296.11681
296.21824
296.31181
296.3982
296.47804
296.55198
296.62061
296.68454
296.7443
296.80043
296.85342
296.90375
296.95185
296.99815
297.04305
297.08695
297.13024
297.17334
297.21666
297.2606
297.30557
297.35196
297.40016
297.45051
297.50333
297.55888
297.61732
297.67851
297.74172
297.80505
297.8647
297.91449
297.94791
297.96349
297.96506
297.95245
297.94193
292.63421
283.99538
288.12015
286.27577
287.61872
287.29409
287.77469
287.91699
288.18775
288.43241
288.69184
288.95866
289.23349
289.51576
289.80492
290.10028
290.40099
290.70611
291.01454
291.32511
291.63651
291.94737
292.25625
292.56171
292.86227
293.15649
293.443
293.72052
293.98789
294.24408
294.48825
294.71972
294.93803
295.14289
295.33421
295.51207
295.67671
295.82853
295.96802
296.0958
296.21253
296.31896
296.41584
296.50395
296.58407
296.65697
296.72337
296.784
296.83953
296.89059
296.93778
296.98165
297.02273
297.06148
297.09836
297.13377
297.16812
297.20176
297.23507
297.26841
297.30213
297.3366
297.37219
297.40923
297.44807
297.48902
297.53236
297.57834
297.62716
297.67886
297.7332
297.7893
297.84531
297.89768
297.94079
297.96879
297.97977
297.976
297.95955
297.95155
292.62704
284.09148
288.24681
286.46578
287.79293
287.54246
288.01936
288.21053
288.50353
288.78183
289.07314
289.37249
289.68004
289.99489
290.3162
290.64292
290.97385
291.30762
291.64278
291.97772
292.3108
292.64029
292.96447
293.28164
293.59014
293.88845
294.17516
294.44904
294.70908
294.95446
295.18462
295.39922
295.59818
295.7816
295.9498
296.10326
296.24262
296.36861
296.48208
296.58389
296.67497
296.75626
296.82867
296.89311
296.95045
297.00151
297.04708
297.08789
297.1246
297.15785
297.18821
297.21621
297.24232
297.26698
297.2906
297.31355
297.33617
297.3588
297.38175
297.40534
297.42988
297.45569
297.48306
297.51229
297.54365
297.5774
297.61375
297.65289
297.69495
297.73989
297.78735
297.83642
297.88525
297.93045
297.967
297.98991
297.99702
297.98888
297.96913
297.96189
292.65875
284.26388
288.44096
286.74117
288.04066
287.87394
288.3523
288.59533
288.91846
289.23495
289.56365
289.90058
290.24548
290.59703
290.95391
291.31458
291.67736
292.04039
292.40172
292.75934
293.1112
293.45524
293.78949
294.1121
294.42137
294.7158
294.99416
295.25548
295.49909
295.7246
295.93192
296.12122
296.29293
296.44765
296.58619
296.70947
296.8185
296.91438
296.9982
297.0711
297.13417
297.18847
297.23504
297.27483
297.30874
297.33761
297.3622
297.38323
297.40133
297.41708
297.43099
297.44355
297.45518
297.46625
297.47712
297.4881
297.49949
297.51156
297.52459
297.53883
297.55455
297.57201
297.59144
297.61309
297.63717
297.66387
297.69337
297.72578
297.76116
297.79939
297.84009
297.88231
297.92422
297.96249
297.99269
298.0109
298.01496
298.00363
297.98093
297.97309
292.7341
284.52573
288.70612
287.10252
288.3746
288.30016
288.78728
289.08644
289.44817
289.80882
290.1811
290.56116
290.94815
291.34013
291.73517
292.13112
292.52567
292.91641
293.30089
293.67664
294.04126
294.39248
294.72823
295.04668
295.34633
295.62602
295.88494
296.12267
296.33914
296.53463
296.70968
296.86511
297.00193
297.12131
297.22449
297.31283
297.38766
297.45034
297.50217
297.54443
297.5783
297.6049
297.62528
297.64039
297.6511
297.65819
297.66239
297.66432
297.66455
297.66359
297.66189
297.65985
297.65781
297.6561
297.65498
297.65473
297.65557
297.65773
297.66143
297.66686
297.67426
297.6838
297.69568
297.71008
297.72716
297.74707
297.76992
297.79579
297.82466
297.85635
297.89046
297.92608
297.9614
297.99321
298.01753
298.03151
298.03318
298.01972
297.99476
297.98374
292.85749
284.89545
289.03897
287.56437
288.80801
288.83628
289.34244
289.70352
290.11351
290.52541
290.94771
291.37617
291.80909
292.2438
292.6776
293.10761
293.53083
293.94427
294.34497
294.73013
295.0972
295.44393
295.76847
296.06943
296.34586
296.59732
296.82379
297.02568
297.20376
297.35911
297.49303
297.60698
297.70257
297.78141
297.84517
297.89547
297.93388
297.96188
297.98087
297.99216
297.99693
297.99628
297.99117
297.98249
297.97103
297.95749
297.94247
297.92652
297.91011
297.89365
297.8775
297.86199
297.84737
297.83389
297.82177
297.81118
297.80232
297.79534
297.79041
297.78769
297.78732
297.78946
297.79425
297.8018
297.81225
297.82568
297.84218
297.86175
297.88434
297.90972
297.93747
297.96676
297.99587
298.0218
298.04103
298.05133
298.05092
298.03616
298.00994
297.99445
293.03354
285.40233
289.44578
288.14435
289.3621
289.50541
290.04343
290.47349
290.94135
291.41151
291.88928
292.36977
292.85023
293.32706
293.79664
294.25524
294.6992
295.125
295.52944
295.90974
296.26362
296.58938
296.88594
297.15284
297.39018
297.5986
297.77918
297.93334
298.06279
298.16941
298.2552
298.32219
298.37238
298.40776
298.43017
298.44139
298.44303
298.43661
298.42347
298.40484
298.38183
298.3554
298.32642
298.29563
298.26371
298.23122
298.19866
298.16645
298.13496
298.1045
298.07533
298.04768
298.02174
297.99767
297.97562
297.95572
297.93808
297.92281
297.91003
297.89985
297.89236
297.88767
297.88585
297.88701
297.89121
297.89852
297.90898
297.92256
297.93914
297.95848
297.98015
298.00338
298.02663
298.04727
298.06223
298.06951
298.06722
298.05161
298.02521
298.00421
293.27349
286.09232
289.96977
288.87343
290.06755
290.33862
290.92259
291.42846
291.96253
292.49653
293.03297
293.56605
294.09159
294.60485
295.10119
295.57616
296.02569
296.44624
296.83501
297.18992
297.50976
297.79409
298.04324
298.25817
298.4404
298.59187
298.71482
298.81168
298.88497
298.93721
298.97087
298.98831
298.99177
298.9833
298.96479
298.93797
298.90437
298.86537
298.82217
298.77586
298.72736
298.67748
298.62692
298.57628
298.52608
298.47673
298.42862
298.38204
298.33724
298.29444
298.2538
298.21546
298.17954
298.14613
298.1153
298.08713
298.06168
298.03901
298.01918
298.00225
297.98829
297.97733
297.96943
297.96464
297.96301
297.96457
297.96931
297.9772
297.98807
298.00168
298.01758
298.03505
298.05278
298.06854
298.07976
298.08452
298.0809
298.06465
298.03892
298.01237
293.60379
286.94939
290.63766
289.78869
290.9619
291.37048
292.0159
292.60415
293.21077
293.81144
294.40543
294.98563
295.54626
296.08149
296.58608
297.0555
297.48623
297.87576
298.22274
298.52686
298.78878
299.00999
299.19267
299.33944
299.45327
299.53732
299.59477
299.62877
299.64235
299.63834
299.6194
299.58794
299.54613
299.49592
299.43905
299.37704
299.31123
299.24275
299.17262
299.10169
299.03068
298.96022
298.89082
298.82292
298.75686
298.69295
298.63142
298.57246
298.51621
298.46278
298.41226
298.3647
298.32015
298.27863
298.24017
298.20477
298.17246
298.14324
298.11715
298.09418
298.07436
298.0577
298.04421
298.03393
298.02686
298.02302
298.02238
298.02486
298.03032
298.03848
298.04894
298.06102
298.07356
298.08473
298.09232
298.09476
298.09033
298.07412
298.04961
298.01856
294.0646
287.9187
291.49186
290.92528
292.08863
292.64245
293.36585
294.04216
294.72299
295.38599
296.02679
296.63701
297.20988
297.73951
298.2214
298.65257
299.03153
299.35826
299.63399
299.86101
300.04241
300.1818
300.28316
300.35057
300.38809
300.39964
300.38892
300.35936
300.31407
300.25585
300.18719
300.1103
300.02709
299.93923
299.84815
299.7551
299.66111
299.56707
299.47374
299.38172
299.29153
299.2036
299.11826
299.03578
298.95638
298.88021
298.8074
298.73802
298.67213
298.60974
298.55087
298.49549
298.4436
298.39515
298.35013
298.30849
298.27022
298.23528
298.20364
298.1753
298.15021
298.12837
298.10977
298.09441
298.08229
298.07338
298.06765
298.06501
298.06531
298.06831
298.07364
298.08068
298.0884
298.09526
298.09903
298.09967
298.09485
298.07908
298.05562
298.0224
294.71106
289.16921
292.57935
292.33479
293.50789
294.21228
295.02473
295.78685
296.53071
297.23571
297.89483
298.49989
299.04524
299.52723
299.9444
300.29724
300.58791
300.81989
300.99762
301.12612
301.21069
301.25666
301.26921
301.25324
301.21325
301.15333
301.07714
300.98791
300.88846
300.78123
300.66834
300.55156
300.43243
300.31224
300.19206
300.07279
299.95517
299.83981
299.7272
299.61774
299.51174
299.40943
299.31099
299.21656
299.1262
299.03998
298.95789
298.87994
298.80608
298.73628
298.67046
298.60856
298.5505
298.4962
298.4456
298.39862
298.3552
298.31527
298.27876
298.24563
298.21582
298.18929
298.16601
298.14596
298.12912
298.11546
298.10493
298.09744
298.09284
298.09094
298.09138
298.09363
298.09685
298.09992
298.10123
298.10031
298.09257
298.07881
298.0565
298.02347
295.59944
290.76106
293.98472
294.0963
295.29807
296.14699
297.04008
297.86417
298.63533
299.33683
299.96253
300.50781
300.97147
301.35492
301.66182
301.89747
302.06828
302.18123
302.24347
302.26199
302.24339
302.19377
302.1186
302.02275
301.91047
301.78543
301.65081
301.50926
301.36306
301.21409
301.06395
300.91394
300.76515
300.61844
300.47454
300.33401
300.19732
300.0648
299.93673
299.8133
299.69465
299.58085
299.47194
299.36793
299.2688
299.17449
299.08494
299.00005
298.91973
298.84387
298.77235
298.70506
298.64187
298.58268
298.52736
298.47583
298.42797
298.38369
298.34291
298.30552
298.27147
298.24069
298.21313
298.18876
298.16753
298.14942
298.13437
298.1223
298.11307
298.10651
298.10228
298.09999
298.09899
298.09831
298.09684
298.09326
298.08585
298.07281
298.05259
298.02205
296.71292
292.81783
295.81304
296.293
297.5256
298.49055
299.41972
300.24634
300.97704
301.6032
302.12495
302.54515
302.86995
303.10742
303.26691
303.3582
303.391
303.37449
303.31711
303.22644
303.10909
302.97082
302.81651
302.6503
302.47565
302.29544
302.11204
301.92742
301.74315
301.56054
301.38062
301.20422
301.032
300.86446
300.70199
300.54487
300.39332
300.24746
300.10738
299.97309
299.84459
299.72183
299.60475
299.49325
299.38722
299.28654
299.19107
299.10065
299.01515
298.9344
298.85824
298.78652
298.71909
298.65579
298.5965
298.54108
298.4894
298.44134
298.39678
298.35561
298.31774
298.2831
298.25163
298.22327
298.19799
298.17574
298.15646
298.14009
298.12653
298.11561
298.10709
298.1006
298.09565
298.09157
298.08747
298.08215
298.07424
298.06244
298.04506
298.01892
298.22599
295.45178
298.15983
298.9786
300.18746
301.21313
302.08991
302.82234
303.4196
303.88561
304.23083
304.46765
304.60986
304.67136
304.66542
304.60422
304.49856
304.35781
304.18996
304.00169
303.79856
303.58512
303.3651
303.1415
302.91674
302.69278
302.47114
302.25304
302.03942
301.83103
301.62841
301.43198
301.24204
301.05877
300.8823
300.71269
300.54994
300.39403
300.24486
300.10235
299.96638
299.8368
299.71347
299.5962
299.48484
299.37919
299.27907
299.18429
299.09465
299.00996
298.93003
298.85468
298.78372
298.717
298.65434
298.59559
298.5406
298.48922
298.44133
298.39678
298.35549
298.31735
298.28231
298.25029
298.22126
298.19517
298.17198
298.15163
298.13405
298.1191
298.10663
298.09636
298.08795
298.08089
298.07442
298.06764
298.05961
298.04938
298.03541
298.01491
300.18295
298.73313
301.02291
302.12899
303.30798
304.16948
304.87397
305.40017
305.77057
306.00353
306.12025
306.14077
306.08362
305.96505
305.79895
305.5969
305.36841
305.12116
304.86133
304.5938
304.32245
304.05029
303.77968
303.51246
303.25002
302.99342
302.74346
302.50071
302.26559
302.03836
301.81921
301.6082
301.40536
301.21065
301.02399
300.84526
300.67432
300.51102
300.35516
300.20656
300.06502
299.93032
299.80226
299.68061
299.56514
299.45565
299.35189
299.25365
299.1607
299.07283
298.98982
298.91146
298.83757
298.76794
298.7024
298.64077
298.5829
298.5286
298.47774
298.43018
298.3858
298.3445
298.30621
298.27085
298.23839
298.20879
298.182
298.15801
298.13676
298.11819
298.10219
298.08861
298.07724
298.06765
298.05926
298.05142
298.04363
298.03532
298.02519
298.01071
302.61052
302.64993
304.64693
305.61731
306.50915
307.11942
307.5267
307.75213
307.83198
307.79577
307.67017
307.47719
307.23479
306.9572
306.65558
306.33855
306.01276
305.68324
305.35381
305.02734
304.70595
304.39123
304.08432
303.78602
303.49689
303.21729
302.94742
302.6874
302.4372
302.19679
301.96604
301.74479
301.53287
301.33007
301.13616
300.95091
300.77408
300.60542
300.44468
300.29159
300.1459
300.00735
299.87569
299.75066
299.63201
299.51947
299.41281
299.31178
299.21613
299.12562
299.04002
298.95912
298.8827
298.81056
298.74251
298.67836
298.61792
298.56103
298.50751
298.45723
298.41007
298.3659
298.32466
298.28626
298.25068
298.21788
298.18785
298.16059
298.13608
298.1143
298.09524
298.07885
298.065
298.05338
298.04355
298.03512
298.02792
298.02171
298.01548
298.00681
305.65152
307.04364
308.36762
309.06852
309.54733
309.75957
309.78727
309.67201
309.45425
309.16414
308.82498
308.45406
308.06418
307.66467
307.26229
306.8619
306.46696
306.07991
305.70245
305.33571
304.98043
304.63704
304.30576
303.98667
303.6797
303.38473
303.10154
302.82992
302.56958
302.32023
302.08157
301.8533
301.63509
301.42663
301.22761
301.0377
300.85661
300.68402
300.51963
300.36315
300.21428
300.07274
299.93824
299.8105
299.68925
299.57421
299.46512
299.36171
299.26374
299.17094
299.08308
298.99993
298.92127
298.84689
298.77658
298.71014
298.64738
298.58812
298.53219
298.47945
298.42975
298.38298
298.33907
298.29793
298.25954
298.22389
298.19098
298.16084
298.1335
298.10898
298.08733
298.06861
298.05276
298.03961
298.02883
298.02021
298.01381
298.00968
298.00699
298.00344
309.57121
311.35672
311.89988
312.08989
312.04032
311.81218
311.46764
311.04881
310.58569
310.09885
309.60224
309.10526
308.61416
308.13305
307.66455
307.2103
306.77123
306.34781
305.94019
305.54828
305.17188
304.81065
304.46422
304.13217
303.81405
303.50942
303.21782
302.93882
302.67195
302.41681
302.17297
301.94001
301.71756
301.50522
301.30263
301.10943
300.92526
300.74978
300.58268
300.42362
300.27229
300.12839
299.99161
299.86167
299.73827
299.62114
299.50999
299.40456
299.30458
299.20979
299.11995
299.03482
298.95417
298.87779
298.80546
298.73698
298.67216
298.61079
298.55273
298.4978
298.44587
298.39683
298.35058
298.30707
298.26626
298.22816
298.1928
298.16024
298.13053
298.10375
298.08001
298.05942
298.04204
298.02776
298.01636
298.0078
298.00234
298.00008
298.00022
298.00071
314.49924
314.87829
314.61709
314.25535
313.74041
313.15509
312.53497
311.90549
311.28077
310.66938
310.07608
309.50342
308.95258
308.42391
307.91723
307.43206
306.96777
306.52361
306.09879
305.69253
305.30404
304.93257
304.57739
304.23779
303.91313
303.60277
303.30613
303.02262
302.75173
302.49294
302.24578
302.00978
301.7845
301.56954
301.36448
301.16894
300.98256
300.80497
300.63583
300.47481
300.32158
300.17583
300.03725
299.90554
299.7804
299.66156
299.54871
299.4416
299.33994
299.24349
299.15198
299.06518
298.98285
298.90478
298.83074
298.76053
298.69396
298.63082
298.57095
298.51418
298.46039
298.40945
298.36128
298.31581
298.27302
298.23291
298.19553
298.16097
298.12931
298.10069
298.07525
298.05317
298.03455
298.01932
298.00738
297.99892
297.99433
297.99345
297.99553
297.99881
316.48797
316.65897
316.09694
315.3437
314.5736
313.80206
313.04954
312.32363
311.62781
310.96308
310.32916
309.72511
309.14967
308.60146
308.07907
307.58111
307.10625
306.65326
306.22097
305.8083
305.41424
305.03786
304.6783
304.33475
304.00648
303.69278
303.39302
303.10659
302.83291
302.57146
302.32174
302.08327
301.8556
301.63829
301.43095
301.23319
301.04462
300.86489
300.69365
300.53056
300.3753
300.22755
300.08701
299.95337
299.82633
299.70562
299.59093
299.48201
299.37856
299.28034
299.18709
299.09856
299.01452
298.93474
298.85901
298.78711
298.71883
298.65399
298.5924
298.5339
298.47836
298.42567
298.37574
298.32851
298.28393
298.242
298.20277
298.16636
298.13292
298.10262
298.07559
298.05203
298.03214
298.01597
298.00335
297.99454
297.99072
297.98986
297.99306
297.99781
309.90647
308.62033
304.96266
302.04047
300.74718
300.45757
300.39129
300.3888
300.27785
300.22049
300.11435
300.04725
299.96055
299.87532
299.78966
299.70337
299.61642
299.52879
299.44048
299.35155
299.2621
299.17222
299.08206
298.99173
298.9014
298.81119
298.72126
298.63174
298.54278
298.45451
298.36708
298.28061
298.19525
298.11113
298.02838
297.94713
297.86752
297.78968
297.71375
297.63986
297.56815
297.49876
297.43184
297.36753
297.30598
297.24734
297.19176
297.1394
297.0904
297.04491
297.00309
296.96507
296.93099
296.90098
296.87517
296.85366
296.83655
296.82394
296.8159
296.81249
296.81381
296.81988
296.83068
296.84611
296.86612
296.89031
296.9191
296.95104
296.98906
297.02776
297.07987
297.12666
297.20829
297.26633
297.40906
297.48391
297.72103
297.78793
297.99967
297.93784
309.10373
306.24337
302.04632
299.96558
299.38914
299.3912
299.49232
299.50446
299.49985
299.47479
299.45274
299.4156
299.37352
299.32644
299.27549
299.22078
299.16271
299.10156
299.03765
298.97129
298.90278
298.8324
298.76039
298.68702
298.61253
298.53713
298.46106
298.38452
298.30773
298.23088
298.15417
298.07779
298.00192
297.92675
297.85245
297.77921
297.7072
297.63658
297.56754
297.50024
297.43485
297.37154
297.31048
297.25185
297.1958
297.14251
297.09215
297.04488
297.00087
296.96028
296.92325
296.88993
296.86048
296.83501
296.81364
296.79649
296.78365
296.7752
296.77121
296.77172
296.77682
296.7865
296.80074
296.8194
296.84243
296.86947
296.90085
296.93538
296.97568
297.01719
297.07147
297.12167
297.20557
297.26844
297.41312
297.49139
297.72976
297.79047
298.00396
297.93084
307.73874
304.17358
301.04008
299.33291
299.00128
299.0423
299.0793
299.05472
299.02756
298.99605
298.96541
298.93147
298.89581
298.85718
298.81631
298.77296
298.72742
298.67963
298.62969
298.57771
298.52381
298.4681
298.41073
298.35184
298.29158
298.2301
298.16759
298.1042
298.04012
297.97553
297.91061
297.84555
297.78053
297.71576
297.65141
297.58769
297.52478
297.46288
297.40219
297.34289
297.28518
297.22925
297.1753
297.12351
297.07407
297.02718
296.98302
296.94176
296.90359
296.86868
296.83719
296.80927
296.78507
296.76472
296.74834
296.73605
296.72792
296.72404
296.72446
296.72922
296.73838
296.75194
296.76982
296.79192
296.81814
296.84817
296.88231
296.91955
296.96235
297.00671
297.06344
297.11691
297.20348
297.27063
297.41767
297.49876
297.73814
297.79313
298.00739
297.92413
306.54798
302.71504
299.88733
298.59173
298.53955
298.55788
298.57736
298.54203
298.52472
298.49651
298.47356
298.44512
298.41656
298.38596
298.35422
298.32083
298.28597
298.24949
298.2114
298.1717
298.13043
298.08761
298.04329
297.99753
297.95042
297.90205
297.85252
297.80195
297.75047
297.69823
297.64537
297.59206
297.53846
297.48476
297.43113
297.37777
297.32486
297.27261
297.22122
297.17089
297.12182
297.07423
297.02831
296.98428
296.94235
296.90271
296.86556
296.8311
296.79952
296.77099
296.7457
296.72379
296.70543
296.69075
296.67986
296.67288
296.66989
296.67096
296.67614
296.68545
296.69896
296.71662
296.73837
296.76408
296.79365
296.82681
296.86385
296.90392
296.94936
296.99665
297.05604
297.11276
297.20217
297.27337
297.42282
297.50646
297.74634
297.79581
298.01014
297.91767
305.8515
301.51487
298.93515
297.97609
298.05515
298.03059
298.05861
298.02185
298.01611
297.9922
297.97761
297.95612
297.93615
297.91428
297.8918
297.86807
297.84328
297.81725
297.78997
297.76141
297.73155
297.70037
297.6679
297.63413
297.59911
297.56288
297.5255
297.48706
297.44763
297.40732
297.36626
297.32456
297.28237
297.23984
297.19714
297.15443
297.11191
297.06976
297.02819
296.98738
296.94755
296.90891
296.87167
296.83605
296.80226
296.77051
296.74102
296.71398
296.68958
296.66803
296.64949
296.63413
296.6221
296.61355
296.6086
296.60734
296.60986
296.61622
296.62646
296.64061
296.6587
296.68068
296.70648
296.73595
296.76902
296.80545
296.8455
296.88851
296.93673
296.98702
297.04923
297.10925
297.20159
297.27655
297.42852
297.51442
297.75433
297.79844
298.01231
297.91146
305.29222
300.33926
298.14554
297.38624
297.53744
297.48232
297.53041
297.4939
297.50318
297.48577
297.48216
297.46922
297.45895
297.44647
297.43361
297.41963
297.40468
297.38865
297.37153
297.3533
297.33392
297.3134
297.29172
297.26889
297.24492
297.21983
297.19367
297.16647
297.1383
297.10924
297.07937
297.04879
297.01762
296.98599
296.95403
296.92191
296.88978
296.85782
296.82622
296.79518
296.76488
296.73554
296.70737
296.68057
296.65538
296.63199
296.61062
296.59148
296.57475
296.56064
296.54931
296.54095
296.53569
296.53368
296.53504
296.53986
296.54822
296.56018
296.57576
296.59498
296.61786
296.64435
296.67436
296.70775
296.74444
296.78424
296.82743
296.87348
296.92457
296.97793
297.04309
297.10651
297.20175
297.28039
297.43475
297.52268
297.76209
297.80095
298.014
297.90548
304.72077
299.30043
297.50724
296.8483
297.04781
296.96627
297.03425
296.99597
297.01792
297.00495
297.01043
297.00456
297.00228
296.99749
296.99259
296.98676
296.98014
296.97264
296.96425
296.95495
296.9447
296.9335
296.92132
296.90815
296.894
296.87888
296.8628
296.84579
296.82789
296.80915
296.78965
296.76945
296.74866
296.72737
296.7057
296.6838
296.6618
296.63986
296.61815
296.59685
296.57615
296.55623
296.53731
296.51958
296.50325
296.48853
296.47561
296.46471
296.45602
296.44971
296.44597
296.44496
296.44682
296.45169
296.45968
296.47089
296.48538
296.50319
296.52434
296.54884
296.5767
296.60786
296.64221
296.67963
296.72005
296.76332
296.80974
296.85894
296.91298
296.96949
297.03768
297.10457
297.20268
297.2849
297.4415
297.53125
297.76963
297.80333
298.01529
297.89978
304.24825
298.36433
296.97017
296.35683
296.59633