/*--------------------------------*- C++ -*----------------------------------*\
  =========                 |
  \\      /  F ield         | OpenFOAM: The Open Source CFD Toolbox
   \\    /   O peration     | Website:  https://openfoam.org
    \\  /    A nd           | Version:  12
     \\/     M anipulation  |
\*---------------------------------------------------------------------------*/
FoamFile
{
    format      ascii;
    class       volVectorField;
    location    "0.075";
    object      U;
}
// * * * * * * * * * * * * * * * * * * * * * * * * * * * * * * * * * * * * * //

dimensions      [0 1 -1 0 0 0 0];

internalField   nonuniform List<vector> 
16000
(
(214.66096 -3.1400416e-17 -8.3152884)
(251.34198 0 5.339531)
(237.50174 0 -7.5052265)
(245.1531 4.9714517e-17 3.7506198)
(240.51261 -4.9067526e-17 -5.8930374)
(242.68937 0 1.7365758)
(240.91637 0 -4.270787)
(241.41075 8.398908e-17 -0.024913995)
(240.58135 -7.9794828e-17 -3.1097028)
(240.45642 0 -1.2435709)
(239.94664 7.2098994e-17 -2.5178875)
(239.60054 -2.0540921e-16 -1.9436402)
(239.15959 1.3001073e-16 -2.3720816)
(238.73325 -1.2366752e-16 -2.3066296)
(238.27913 1.1733632e-16 -2.4614819)
(237.81126 -3.4807118e-18 -2.5281624)
(237.32491 -3.3064943e-18 -2.6257031)
(236.82098 -9.7563709e-17 -2.712355)
(236.29891 1.9114755e-16 -2.8004755)
(235.75858 -9.0691742e-17 -2.8861089)
(235.19981 1.7250313e-16 -2.9696289)
(234.62253 -1.6351924e-16 -3.0503295)
(234.02676 0 -3.1277049)
(233.41258 1.5220411e-16 -3.2011665)
(232.78019 -4.1221546e-18 -3.2701174)
(232.12987 -2.656389e-16 -3.3339302)
(231.46205 1.2590322e-16 -3.3919706)
(230.77726 0 -3.4435922)
(230.07615 0 -3.4881522)
(229.35952 2.186387e-16 -3.525017)
(228.62829 -2.037148e-16 -3.553575)
(227.88354 0 -3.5732461)
(227.12645 0 -3.5834927)
(226.35836 0 -3.5838343)
(225.58073 5.1392513e-18 -3.5738567)
(224.79512 1.559579e-16 -3.5532244)
(224.00322 -1.427685e-16 -3.5216919)
(223.20681 -1.3982493e-16 -3.4791112)
(222.40772 1.2380852e-16 -3.4254416)
(221.60786 0 -3.3607559)
(220.80919 -1.1848899e-16 -3.2852418)
(220.01364 1.1184267e-16 -3.1992054)
(219.22317 -2.1195331e-16 -3.1030688)
(218.4397 1.9997713e-16 -2.9973675)
(217.66508 -1.9529874e-16 -2.8827438)
(216.90109 3.5756363e-16 -2.7599372)
(216.14942 5.5961273e-18 -2.6297727)
(215.41162 2.9153741e-19 -2.4931459)
(214.68911 -1.5050233e-16 -2.3510054)
(213.98319 1.4233594e-16 -2.2043362)
(213.29498 -1.2573066e-16 -2.0541417)
(212.62542 0 -1.9014262)
(211.97531 7.4725711e-18 -1.7471786)
(211.34525 0 -1.5923547)
(210.73567 6.6496636e-18 -1.4378603)
(210.14682 2.0705284e-16 -1.2845371)
(209.57879 -3.7845032e-16 -1.1331496)
(209.03147 1.0934701e-17 -0.98437534)
(208.5046 1.6817668e-16 -0.83879973)
(207.99769 -1.4885615e-16 -0.69693001)
(207.51 1.4022094e-16 -0.55918204)
(207.04069 -8.8234323e-18 -0.4259426)
(206.58876 0 -0.29755226)
(206.15299 0 -0.17431295)
(205.73199 -1.111982e-16 -0.056497331)
(205.32415 1.1188497e-16 0.055703584)
(204.92754 -9.9143458e-17 0.16224714)
(204.53985 1.9353718e-16 0.26331646)
(204.15819 -1.8889038e-16 0.35938076)
(203.77888 8.3745867e-17 0.45119399)
(203.39741 5.2889354e-18 0.53967481)
(203.00849 0 0.62536209)
(202.60806 4.7564224e-18 0.70784873)
(202.19875 -4.5186818e-18 0.78528857)
(201.79348 0 0.85160472)
(201.43367 -3.3800628e-17 0.89004121)
(201.04687 6.25469e-17 0.88600826)
(201.06295 -3.1779985e-17 1.0152444)
(200.37049 0 0.50765617)
(200.98731 0 1.7386381)
(215.93313 0 -11.122224)
(252.94319 -3.7287233e-18 3.3016531)
(238.47779 -1.1980881e-16 -10.417755)
(246.57628 1.10478e-16 1.6744211)
(241.58038 0 -8.7427239)
(243.99099 1.0164068e-16 -0.41109511)
(242.01229 -1.8768424e-16 -7.005744)
(242.59714 -1.013331e-19 -2.2943641)
(241.67597 8.4581557e-17 -5.6905464)
(241.55278 0 -3.6307566)
(241.00217 -1.5278033e-16 -4.9841187)
(240.62764 1.4944821e-16 -4.3764256)
(240.15493 1.4213647e-16 -4.7920507)
(239.69457 -2.6165187e-16 -4.7269448)
(239.20625 1.2028213e-16 -4.862024)
(238.70233 1.1057978e-17 -4.9213088)
(238.17895 1.15629e-16 -5.0033824)
(237.63671 -1.029809e-16 -5.0763482)
(237.0752 0 -5.1484774)
(236.49432 0 -5.217069)
(235.89399 5.6824887e-18 -5.2820004)
(235.27424 -1.7825693e-16 -5.3425568)
(234.63518 3.3800738e-16 -5.3981006)
(233.97703 -3.1583852e-16 -5.4479449)
(233.30013 1.4275567e-16 -5.4913892)
(232.60493 0 -5.5277193)
(231.89204 1.245027e-16 -5.5562131)
(231.16218 -1.3350585e-16 -5.5761559)
(230.41621 0 -5.5868473)
(229.65514 3.5281818e-18 -5.5876136)
(228.88015 -1.338182e-17 -5.5778187)
(228.09252 0 -5.5568801)
(227.29369 0 -5.5242761)
(226.48525 -1.7074445e-16 -5.4795666)
(225.6689 3.3904132e-16 -5.4224005)
(224.84643 -1.6280506e-16 -5.3525296)
(224.01974 -1.5919988e-16 -5.2698214)
(223.19083 1.4571182e-16 -5.1742649)
(222.36171 -1.1222555e-16 -5.0659806)
(221.53445 -2.817608e-19 -4.9452237)
(220.71111 -2.6346427e-19 -4.8123856)
(219.89375 2.3293458e-16 -4.6679935)
(219.08435 -1.099023e-16 -4.5127052)
(218.28485 0 -4.3473021)
(217.49707 2.0249177e-16 -4.1726791)
(216.72274 1.1937537e-17 -3.9898301)
(215.96343 -5.1268725e-18 -3.7998308)
(215.22056 -1.6463403e-16 -3.6038203)
(214.49541 0 -3.4029805)
(213.78907 -1.4663493e-16 -3.198516)
(213.10244 -8.8588162e-18 -2.9916351)
(212.43627 2.6025576e-16 -2.7835287)
(211.79109 -1.3016164e-16 -2.575353)
(211.16729 0 -2.3682096)
(210.56506 -2.0393796e-17 -2.1631289)
(209.98442 -2.1131891e-16 -1.9610566)
(209.42524 3.6146935e-16 -1.7628414)
(208.88723 -2.1539435e-16 -1.5692279)
(208.36991 0 -1.3808521)
(207.87266 -1.7088781e-16 -1.1982565)
(207.39462 1.7958421e-16 -1.0218779)
(206.93478 2.6700761e-17 -0.8521014)
(206.49207 0 -0.68926625)
(206.06518 -1.4197006e-16 -0.53364596)
(205.65265 7.3290568e-18 -0.38546261)
(205.25276 1.1178e-16 -0.24483108)
(204.86355 -1.9749739e-17 -0.11169396)
(204.48259 9.3065575e-17 0.014238839)
(204.10696 -1.0520429e-16 0.13352478)
(203.73305 5.5131291e-18 0.24697726)
(203.35645 -5.2024638e-18 0.35545505)
(202.97207 0 0.45926222)
(202.57637 -4.6430071e-18 0.557826)
(202.17305 4.392156e-18 0.6494765)
(201.77703 8.3193572e-18 0.72642494)
(201.40815 9.8578151e-19 0.76766993)
(201.10029 0 0.79938079)
(200.9481 3.0264922e-17 0.86533417)
(200.49784 -5.7594391e-17 0.47648426)
(200.88568 2.5869339e-17 1.5768606)
(217.076 0 -14.000981)
(254.39592 -1.2265566e-16 1.0652412)
(239.39222 2.5007213e-16 -13.413416)
(247.80393 -2.2336729e-16 -0.56744087)
(242.54875 1.1030599e-16 -11.665445)
(245.095 -3.2662981e-18 -2.7484193)
(242.98949 9.9415414e-17 -9.7856196)
(243.59944 -9.4157786e-17 -4.760111)
(242.62193 -5.5894763e-18 -8.3331936)
(242.47539 -5.3071662e-18 -6.1825829)
(241.88953 -1.0081602e-17 -7.5472076)
(241.47915 1.3908658e-16 -6.9446769)
(240.97112 -1.4098418e-16 -7.3295479)
(240.47246 1.3836457e-16 -7.2711098)
(239.94526 -1.1886329e-16 -7.3850068)
(239.40082 -1.557837e-17 -7.4361576)
(238.83569 0 -7.5026267)
(238.25044 -1.2011528e-20 -7.560714)
(237.64477 -2.265731e-16 -7.6157349)
(237.01867 -3.6341853e-19 -7.6656565)
(236.37218 1.7366075e-16 -7.7100418)
(235.70544 1.7057922e-17 -7.7480933)
(235.01873 -2.1575531e-17 -7.7790539)
(234.31244 0 -7.802134)
(233.58707 6.9519117e-21 -7.8165381)
(232.84329 -1.6561677e-16 -7.8214683)
(232.08191 1.4796077e-16 -7.8161355)
(231.30389 8.2577008e-18 -7.7997677)
(230.51034 0 -7.7716286)
(229.70256 -7.4080457e-18 -7.7310249)
(228.88196 -1.5834055e-21 -7.6773259)
(228.05015 -1.9940667e-16 -7.6099759)
(227.20883 2.0083043e-16 -7.5285095)
(226.35988 1.1900209e-17 -7.4325702)
(225.50528 -1.8014438e-16 -7.3219187)
(224.64708 1.4867642e-16 -7.1964506)
(223.78745 -1.8115292e-16 -7.056204)
(222.92856 1.5184083e-16 -6.9013694)
(222.07265 -1.4376272e-16 -6.7322911)
(221.22191 1.3549215e-16 -6.5494727)
(220.37852 1.6019953e-17 -6.3535732)
(219.54458 0 -6.1453995)
(218.72211 1.9982769e-16 -5.9259)
(217.91299 -2.4187574e-16 -5.6961495)
(217.11898 0 -5.4573332)
(216.34165 1.7950817e-16 -5.2107283)
(215.58243 -1.5752731e-16 -4.9576794)
(214.84254 1.6995593e-16 -4.6995779)
(214.123 -1.7977132e-16 -4.4378373)
(213.42465 0 -4.1738717)
(212.74812 1.7725995e-16 -3.9090742)
(212.09387 -1.3322057e-16 -3.6447942)
(211.46215 0 -3.3823198)
(210.85304 0 -3.1228589)
(210.26645 1.2481685e-16 -2.8675224)
(209.70215 -2.0845375e-16 -2.6173148)
(209.15973 1.223679e-16 -2.3731237)
(208.63868 1.8415344e-16 -2.1357162)
(208.13833 1.9262634e-19 -1.9057354)
(207.65785 1.7107512e-19 -1.6837156)
(207.19624 -3.2414695e-16 -1.4700817)
(206.75236 8.9460696e-17 -1.26518)
(206.32502 0 -1.0693125)
(205.91282 1.4218258e-16 -0.88269299)
(205.51421 -1.6310431e-16 -0.70545928)
(205.1274 1.1148264e-16 -0.53762019)
(204.75031 1.3156948e-17 -0.37899648)
(204.38048 -8.603239e-17 -0.22918215)
(204.01495 1.1553661e-17 -0.087532205)
(203.65022 2.1729359e-17 0.046785777)
(203.28206 -1.0219461e-16 0.1744973)
(202.90573 9.6122224e-17 0.29570043)
(202.51858 -7.2433432e-17 0.40982013)
(202.12531 1.3645458e-16 0.51464949)
(201.73964 -5.6271578e-17 0.59973389)
(201.3817 -6.0716285e-17 0.65052153)
(201.10251 5.0156527e-17 0.70138732)
(200.90105 0 0.72499015)
(200.55997 3.2082673e-18 0.43882208)
(200.82185 -1.2166148e-17 1.4141447)
(218.06481 0 -16.948157)
(255.70382 0 -1.3043821)
(240.12611 0 -16.543523)
(248.8541 1.0675713e-16 -2.9165939)
(243.33526 -1.2394893e-16 -14.719149)
(246.03742 -2.2076272e-16 -5.2035229)
(243.78996 2.0995742e-16 -12.684271)
(244.42832 -1.2435863e-17 -7.3526433)
(243.3866 5.92129e-18 -11.086456)
(243.21308 -1.7412688e-16 -8.8651026)
(242.58733 1.7046791e-16 -10.221275)
(242.13569 1.0130578e-17 -9.6375176)
(241.58749 -1.5383357e-16 -9.9836866)
(241.04526 1.3665466e-16 -9.9333659)
(240.47411 -1.3449071e-20 -10.02472)
(239.88408 -8.1956766e-18 -10.065702)
(239.27227 0 -10.114886)
(238.63922 -7.3977869e-18 -10.155585)
(237.98475 -2.1058096e-16 -10.190797)
(237.30897 2.1263018e-16 -10.218937)
(236.61206 1.2620972e-17 -10.239342)
(235.89432 -1.1965616e-17 -10.251127)
(235.15618 2.1561926e-16 -10.253439)
(234.39823 -1.717529e-16 -10.245396)
(233.6212 1.0185041e-17 -10.226114)
(232.826 1.9312127e-16 -10.194725)
(232.0137 -1.2775119e-16 -10.150378)
(231.18554 0 -10.092262)
(230.34296 1.4760644e-16 -10.019619)
(229.48755 -1.2389912e-16 -9.9317649)
(228.62107 2.4969223e-16 -9.8281005)
(227.74545 -1.3343716e-17 -9.7081391)
(226.86274 -2.0973553e-16 -9.5715162)
(225.97512 1.7394969e-16 -9.4180102)
(225.08488 -1.8739115e-16 -9.2475529)
(224.19436 -2.9586551e-20 -9.0602449)
(223.30596 2.0947409e-16 -8.8563615)
(222.42207 -3.1613012e-16 -8.6363572)
(221.54506 9.3044189e-17 -8.4008674)
(220.67724 3.5224621e-17 -8.1507036)
(219.82085 -4.9808445e-17 -7.8868476)
(218.97798 0 -7.6104362)
(218.15056 -8.8623936e-17 -7.3227474)
(217.34039 1.3880525e-16 -7.0251781)
(216.54904 -2.0957449e-16 -6.7192229)
(215.77787 1.9691965e-16 -6.4064492)
(215.02805 -2.08855e-16 -6.0884682)
(214.3005 3.9271717e-16 -5.7669103)
(213.59595 -3.0775957e-16 -5.4433998)
(212.9149 3.0861091e-16 -5.1195298)
(212.25763 -1.4485335e-16 -4.7968407)
(211.62426 1.3634666e-16 -4.4767989)
(211.01468 -9.5852375e-17 -4.1607772)
(210.42866 3.0055191e-17 -3.8500415)
(209.86581 0 -3.545735)
(209.32557 0 -3.2488729)
(208.80731 0 -2.9603356)
(208.31025 2.3265144e-17 -2.6808678)
(207.8335 0 -2.4110791)
(207.37607 -1.6374294e-16 -2.1514591)
(206.9368 1.9169254e-16 -1.9023846)
(206.51445 -1.0789297e-16 -1.6641366)
(206.10769 -1.1287686e-19 -1.4369446)
(205.71504 2.5243647e-16 -1.2209382)
(205.33487 2.9646154e-17 -1.0161465)
(204.96532 -1.3846313e-16 -0.82245484)
(204.60426 5.1926449e-17 -0.63955699)
(204.24918 -1.4588725e-16 -0.46693797)
(203.89716 -4.5587466e-17 -0.30388773)
(203.54485 -6.4087532e-17 -0.14960849)
(203.18826 -6.0103985e-17 -0.0035537793)
(202.82313 5.6329438e-17 0.13421791)
(202.44767 0 0.26308123)
(202.06699 0 0.37984649)
(201.69424 -1.5530963e-17 0.47306189)
(201.35433 0 0.53533569)
(201.09104 6.8596317e-18 0.59472722)
(200.86693 5.1650814e-17 0.59554648)
(200.5939 -7.2905553e-17 0.39349536)
(200.77124 -2.0430749e-20 1.245568)
(218.87925 0 -20.091189)
(256.84242 -8.8269741e-18 -3.7508521)
(240.72826 2.6692095e-16 -19.808928)
(249.69508 -2.4935931e-16 -5.3885499)
(243.88655 2.5442905e-16 -17.886681)
(246.78023 -2.3278873e-16 -7.8107129)
(244.39341 -2.2189717e-16 -15.687848)
(245.04986 2.10058e-16 -10.102128)
(243.9457 0 -13.942117)
(243.73555 0 -11.696545)
(243.06779 1.800136e-16 -13.008842)
(242.56823 -1.7053862e-16 -12.462179)
(241.97526 -1.0130871e-17 -12.759905)
(241.3844 2.8815429e-17 -12.716943)
(240.7645 -9.1187487e-18 -12.783622)
(240.12417 3.4584923e-17 -12.810676)
(239.46105 0 -12.839597)
(238.77564 0 -12.859142)
(238.0679 -2.3618035e-16 -12.870712)
(237.33804 2.0945999e-16 -12.872948)
(236.5864 0 -12.865)
(235.81348 0 -12.845882)
(235.01994 -1.9056869e-16 -12.814608)
(234.2066 3.6064501e-16 -12.770193)
(233.3745 -1.7057236e-16 -12.711654)
(232.52485 -2.0207181e-17 -12.638042)
(231.65907 -3.8271388e-17 -12.548453)
(230.77879 -1.4501216e-16 -12.44205)
(229.88581 1.1973115e-16 -12.318084)
(228.98211 0 -12.175913)
(228.06988 -3.0663377e-17 -12.015028)
(227.15141 0 -11.835067)
(226.22915 0 -11.635835)
(225.30563 2.0699034e-16 -11.417325)
(224.38344 -2.1939591e-16 -11.179719)
(223.46521 2.3014383e-17 -10.923407)
(222.55355 -2.1715087e-17 -10.648985)
(221.65103 -4.1051126e-17 -10.357255)
(220.76011 -8.3908147e-20 -10.049221)
(219.88316 7.9673157e-20 -9.7260712)
(219.02235 -7.516117e-20 -9.3891716)
(218.17969 0 -9.0400349)
(217.35695 -1.2185481e-16 -8.680305)
(216.55569 1.1442946e-16 -8.3117227)
(215.7772 0 -7.9360984)
(215.02255 -5.0714958e-17 -7.5552851)
(214.29253 1.906126e-16 -7.1711418)
(213.58769 -2.23457e-16 -6.7855099)
(212.90836 -2.1022219e-16 -6.4001848)
(212.25461 1.5761583e-16 -6.0168924)
(211.62635 1.1115883e-16 -5.6372669)
(211.02327 -1.3875714e-16 -5.2628335)
(210.4449 -3.2531489e-17 -4.8949903)
(209.89066 -2.1370665e-16 -4.5350006)
(209.3598 1.1430112e-16 -4.183981)
(208.8515 -1.0719985e-16 -3.8429003)
(208.36483 1.0027211e-16 -3.5125784)
(207.89877 2.3493403e-16 -3.1936871)
(207.45224 -1.7571658e-16 -2.8867565)
(207.02409 0 -2.5921915)
(206.61301 -3.8453138e-17 -2.3102796)
(206.21764 -7.1978306e-17 -2.0412064)
(205.83656 1.3450098e-16 -1.785096)
(205.46822 1.2583866e-16 -1.5419674)
(205.11093 -2.3517203e-16 -1.311721)
(204.76279 8.2369018e-17 -1.094108)
(204.4216 5.1347755e-17 -0.88869632)
(204.08487 9.600011e-17 -0.69487504)
(203.74978 1.3459424e-16 -0.51189714)
(203.41315 2.408845e-20 -0.33904297)
(203.0713 0 -0.17595329)
(202.72056 0 -0.022798591)
(202.35992 -3.4266019e-17 0.11960721)
(201.99468 9.6152305e-17 0.24699583)
(201.63832 -8.99314e-17 0.34826604)
(201.31817 -8.4183905e-17 0.42156972)
(201.06755 5.2523117e-17 0.48580933)
(200.84095 0 0.4745637)
(200.60697 4.6092612e-17 0.3420777)
(200.73483 3.7199761e-20 1.0807164)
(219.49873 0 -23.405239)
(257.78534 1.876355e-20 -6.2748952)
(241.13912 9.083823e-18 -23.17172)
(250.37108 2.8883246e-16 -7.9970962)
(244.29403 3.3058289e-19 -21.155826)
(247.29611 -5.0659839e-16 -10.566209)
(244.75399 -3.2099218e-19 -18.784841)
(245.43584 4.5690117e-16 -13.012115)
(244.2659 -2.1021782e-16 -16.897648)
(244.01597 -1.2469301e-17 -14.676221)
(243.3049 1.1842658e-17 -15.908677)
(242.75251 -1.7982241e-16 -15.4116)
(242.11118 1.9157942e-16 -15.65286)
(241.46758 -1.8202678e-16 -15.613239)
(240.79467 3.066262e-16 -15.652926)
(240.09956 -3.0893193e-16 -15.661608)
(239.38044 1.3768708e-16 -15.666878)
(238.63781 0 -15.661292)
(237.87181 0 -15.645117)
(237.08287 1.4665755e-17 -15.617003)
(236.27157 -2.7807221e-17 -15.575884)
(235.43868 0 -15.520614)
(234.5852 1.9967576e-16 -15.450054)
(233.71233 4.6745636e-19 -15.363098)
(232.82149 -3.5734845e-16 -15.258668)
(231.91432 1.6884826e-16 -15.135753)
(230.9927 1.9977625e-17 -14.993431)
(230.05871 0 -14.830885)
(229.11464 -1.7895161e-16 -14.647437)
(228.16295 1.3494217e-16 -14.442566)
(227.20626 -2.2375988e-16 -14.215928)
(226.24733 2.1061853e-16 -13.967385)
(225.28899 -2.2793414e-16 -13.697012)
(224.33414 2.1455299e-16 -13.405116)
(223.38568 7.6054313e-17 -13.092239)
(222.44647 0 -12.759162)
(221.51928 0 -12.406904)
(220.60677 4.2388101e-17 -12.036704)
(219.7114 3.9923526e-17 -11.650013)
(218.83545 -3.7586713e-17 -11.248465)
(217.98095 3.5371841e-17 -10.833858)
(217.14967 6.6729885e-17 -10.408116)
(216.34309 -6.2676868e-17 -9.9732659)
(215.56241 3.5337205e-16 -9.5313907)
(214.80853 -2.764195e-16 -9.0846027)
(214.08206 5.1882039e-17 -8.6350079)
(213.38334 -4.8814973e-17 -8.1846715)
(212.71244 0 -7.7355922)
(212.0692 2.145564e-16 -7.2896743)
(211.45324 -1.6070848e-16 -6.8487087)
(210.86399 0 -6.4143513)
(210.30074 0 -5.9881133)
(209.76261 1.3223162e-16 -5.5713464)
(209.24864 -6.1806009e-17 -5.1652415)
(208.75778 0 -4.7708234)
(208.28888 -1.6238972e-16 -4.3889537)
(207.84078 1.0108733e-16 -4.020335)
(207.41225 1.4188491e-16 -3.6655164)
(207.00203 -1.765004e-16 -3.3249032)
(206.60881 1.6497304e-16 -2.9987759)
(206.23118 -1.5389059e-16 -2.6872969)
(205.86768 6.3870134e-20 -2.3905263)
(205.51683 0 -2.1084558)
(205.17703 6.2554275e-17 -1.8409722)
(204.84654 -2.9166281e-16 -1.5878349)
(204.52344 1.6312776e-16 -1.3486597)
(204.20555 0 -1.1229008)
(203.89042 -1.4184704e-16 -0.90987268)
(203.57537 8.8118934e-17 -0.70882663)
(203.25744 1.2328296e-16 -0.51915409)
(202.93332 3.4947318e-20 -0.34066844)
(202.59994 -7.1366373e-17 -0.17363057)
(202.25698 9.9820645e-17 -0.019175187)
(201.90987 -1.5507877e-16 0.11752825)
(201.57275 8.6736386e-17 0.22661963)
(201.27353 2.6943577e-17 0.30997375)
(201.03584 5.0284618e-17 0.37688253)
(200.81381 0 0.36123541)
(200.61262 -4.3759699e-17 0.28705703)
(200.70023 2.0392167e-17 0.9217427)
(219.90814 0 -26.888273)
(258.52653 9.8237796e-18 -8.9017187)
(241.35421 -3.062806e-16 -26.65687)
(250.86612 2.5012007e-16 -10.748218)
(244.50517 2.5689334e-16 -24.52392)
(247.57573 -5.0106582e-16 -13.475223)
(244.92549 2.3047284e-16 -21.964584)
(245.57275 2.3333218e-16 -16.082981)
(244.3615 -2.2113237e-16 -19.937703)
(244.04426 3.936037e-17 -17.790212)
(243.28916 0 -18.908132)
(242.67851 0 -18.469934)
(241.98387 -2.238524e-17 -18.65123)
(241.2817 -1.6994772e-16 -18.610942)
(240.54945 1.4064581e-16 -18.623027)
(239.79292 1.9078412e-17 -18.609922)
(239.01094 -3.6164393e-17 -18.588631)
(238.20415 3.085474e-16 -18.554078)
(237.37302 -2.2674207e-16 -18.505732)
(236.5183 2.4609395e-16 -18.442136)
(235.64095 -2.0336537e-16 -18.362019)
(234.74216 2.7571428e-17 -18.264084)
(233.82337 1.5663956e-16 -18.147065)
(232.88627 -1.9701518e-16 -18.009769)
(231.93281 0 -17.851074)
(230.96517 0 -17.669971)
(229.98578 0 -17.465592)
(228.9973 -1.9730183e-16 -17.237235)
(228.00255 1.8586257e-16 -16.98439)
(227.00455 -3.5215266e-17 -16.706764)
(226.00642 0 -16.40431)
(225.01136 -2.8229117e-16 -16.077235)
(224.02262 2.3594169e-16 -15.726014)
(223.04341 -5.5802131e-17 -15.351401)
(222.07686 1.578079e-16 -14.954426)
(221.12598 -4.9043495e-17 -14.536377)
(220.1936 -1.8601244e-16 -14.0988)
(219.28232 2.1942495e-16 -13.643462)
(218.39446 -1.6473478e-16 -13.172332)
(217.53208 7.7699639e-17 -12.687541)
(216.69686 -7.2911992e-17 -12.19135)
(215.89019 1.3705325e-16 -11.686102)
(215.11309 -6.42229e-17 -11.174191)
(214.36625 -2.417018e-16 -10.658016)
(213.65003 5.0966514e-16 -10.139939)
(212.96449 -2.1226964e-16 -9.6222592)
(212.30939 -1.4957794e-16 -9.1071749)
(211.68424 9.3005467e-17 -8.5967595)
(211.08835 8.7478353e-17 -8.0929409)
(210.52081 -1.6365218e-16 -7.5974843)
(209.9806 1.5290729e-16 -7.1119807)
(209.46653 0 -6.6378402)
(208.97735 1.3383333e-16 -6.1762882)
(208.51175 -1.8745911e-16 -5.7283682)
(208.06835 5.8416645e-17 -5.2949449)
(207.64579 5.4445128e-17 -4.8767114)
(207.24266 0 -4.4741991)
(206.85755 0 -4.0877869)
(206.48907 0 -3.7177144)
(206.13579 0 -3.364102)
(205.79624 0 -3.0269572)
(205.46889 -7.1535644e-17 -2.7061891)
(205.15223 0 -2.401638)
(204.84462 -5.154518e-20 -2.1130435)
(204.54434 2.3100637e-16 -1.8400213)
(204.24948 -2.1490617e-16 -1.58206)
(203.9579 -1.0004131e-16 -1.3385193)
(203.66727 -1.8602501e-16 -1.1086688)
(203.37507 2.5932339e-16 -0.89179301)
(203.0786 3.9401275e-20 -0.68741391)
(202.77494 7.4701827e-17 -0.49548451)
(202.46169 0 -0.31634897)
(202.13903 0 -0.15154968)
(201.81254 0 -0.006860307)
(201.49703 -1.1152944e-16 0.10960634)
(201.21964 0 0.20188961)
(200.99569 -9.6341888e-17 0.27034086)
(200.78341 1.3426323e-16 0.25568621)
(200.60966 8.3181237e-17 0.23099502)
(200.66513 -1.9304431e-17 0.77073906)
(220.11296 0 -30.547124)
(259.07282 0 -11.637237)
(241.37953 3.2226839e-16 -30.273755)
(251.18418 1.9332816e-17 -13.656797)
(244.53436 -2.6969412e-16 -28.002751)
(247.68309 0 -16.561132)
(244.89422 1.6159114e-17 -25.222555)
(245.58582 -3.0629737e-17 -19.306241)
(244.20807 0 -23.042091)
(243.8234 1.9307389e-16 -21.022668)
(243.01699 -4.1800118e-16 -22.004274)
(242.33748 1.9792968e-16 -21.632806)
(241.5797 2.3491766e-17 -21.75613)
(240.80906 0 -21.710711)
(240.00759 2.1079173e-17 -21.69429)
(239.17997 -3.4001008e-16 -21.655026)
(238.32571 7.4963795e-17 -21.602612)
(237.4457 2.5057049e-16 -21.533385)
(236.54084 2.3795244e-16 -21.446322)
(235.61231 -2.5666678e-16 -21.339854)
(234.66156 0 -21.212548)
(233.69033 -2.8797488e-16 -21.063001)
(232.70064 2.4451113e-16 -20.889873)
(231.69481 -2.0608277e-16 -20.691949)
(230.67541 1.9423914e-16 -20.468146)
(229.6453 -1.840705e-16 -20.217551)
(228.60758 3.4724009e-16 -19.939467)
(227.56552 -1.6385936e-16 -19.633427)
(226.5226 1.549658e-16 -19.299234)
(225.48239 -2.921551e-16 -18.93698)
(224.44852 1.375072e-16 -18.547062)
(223.42462 1.2986007e-16 -18.130202)
(222.41426 -2.4500629e-16 -17.687433)
(221.42088 5.6891312e-17 -17.220103)
(220.44772 -5.6701899e-19 -16.729867)
(219.49779 2.5489715e-16 -16.218639)
(218.57377 0 -15.688589)
(217.67803 1.8960026e-19 -15.142086)
(216.81256 0 -14.581659)
(215.97893 -7.95613e-17 -14.009956)
(215.17834 -1.4951848e-16 -13.429692)
(214.41157 7.0197248e-17 -12.843599)
(213.679 0 -12.254384)
(212.98067 -6.1855007e-17 -11.664683)
(212.31624 2.8951985e-16 -11.077026)
(211.68512 -3.2504139e-16 -10.493802)
(211.08641 -3.045527e-16 -9.9172337)
(210.51902 2.8436771e-16 -9.3493617)
(209.98166 -1.7745899e-16 -8.7920256)
(209.47293 0 -8.2468599)
(208.99129 0 -7.7152892)
(208.53518 7.2423861e-17 -7.1985306)
(208.10298 6.758868e-17 -6.6975998)
(207.69305 1.2596668e-16 -6.2133188)
(207.3038 -5.8738776e-17 -5.7463271)
(206.93362 -1.0942078e-16 -5.2970943)
(206.58095 -2.040452e-16 -4.8659331)
(206.24428 -9.5185849e-17 -4.4530128)
(205.9221 1.7673793e-16 -4.0583746)
(205.61294 0 -3.6819525)
(205.31527 -7.6550625e-17 -3.3235763)
(205.02758 -1.4229772e-16 -2.9829887)
(204.74832 1.3221219e-16 -2.6598686)
(204.47589 6.1330107e-17 -2.3538037)
(204.20859 5.7039669e-17 -2.0642728)
(203.94458 0 -1.7906543)
(203.68183 1.9666273e-16 -1.5322384)
(203.41814 1.8249686e-16 -1.2882815)
(203.15119 -2.539691e-16 -1.0581334)
(202.87857 7.8545066e-17 -0.84144712)
(202.59779 -7.2820156e-17 -0.63827379)
(202.30707 -4.7159848e-20 -0.44904839)
(202.007 2.5031867e-16 -0.27574769)
(201.70329 -2.3200873e-16 -0.12438238)
(201.41129 5.3709785e-17 -0.0011105269)
(201.1565 1.4939692e-16 0.098862468)
(200.94712 -4.614107e-17 0.16837629)
(200.74755 -4.2731696e-17 0.15878218)
(200.59745 0 0.17574884)
(200.62621 3.6622242e-17 0.62856148)
(220.12254 3.9187745e-16 -34.391696)
(259.42747 5.3851145e-19 -14.488133)
(241.1925 -3.5923813e-16 -34.036179)
(251.31801 0 -16.726751)
(244.30562 0 -31.556153)
(247.44779 -2.6803832e-16 -19.818063)
(244.56492 2.7114801e-16 -28.535498)
(245.08491 6.4309319e-17 -22.690276)
(243.7922 -2.4408315e-16 -26.248102)
(243.32751 2.308717e-16 -24.401473)
(242.45944 -2.4674108e-16 -25.225098)
(241.69836 2.0738885e-16 -24.915823)
(240.86549 -4.91985e-17 -24.980412)
(240.01482 -4.6652394e-17 -24.920224)
(239.13276 -1.767829e-16 -24.870176)
(238.22312 1.669765e-16 -24.796964)
(237.28609 -3.5657184e-16 -24.705451)
(236.32296 5.9937067e-16 -24.592675)
(235.33517 -2.8319383e-16 -24.457221)
(234.3245 -2.6869226e-16 -24.297385)
(233.29305 2.5338269e-16 -24.111603)
(232.24325 -3.0170355e-17 -23.898405)
(231.17787 -2.2712488e-16 -23.656454)
(230.09999 2.1395633e-16 -23.384607)
(229.01298 2.5344089e-16 -23.081935)
(227.92047 -1.4291347e-16 -22.747767)
(226.82632 0 -22.381734)
(225.73452 2.5556142e-16 -21.983787)
(224.64918 -3.2099166e-16 -21.554232)
(223.57443 1.1295e-16 -21.09374)
(222.51434 -2.8553888e-16 -20.603358)
(221.47287 2.0117675e-16 -20.084503)
(220.45378 -6.3385047e-17 -19.538947)
(219.46054 2.3820368e-16 -18.96879)
(218.49629 -2.2344365e-16 -18.376434)
(217.56379 -2.1058217e-16 -17.764527)
(216.66535 1.9737688e-16 -17.135924)
(215.80284 -4.6293981e-17 -16.493629)
(214.97762 0 -15.840736)
(214.19058 8.1911757e-17 -15.180373)
(213.44216 -7.645921e-17 -14.515645)
(212.73234 0 -13.849584)
(212.06069 1.3462348e-16 -13.185101)
(211.42643 -6.2974037e-17 -12.524946)
(210.82847 -1.7658287e-16 -11.871677)
(210.26544 5.5078995e-16 -11.227635)
(209.73576 -2.0621315e-16 -10.594932)
(209.23773 9.618488e-17 -9.9754392)
(208.76948 -2.6969048e-16 -9.3707822)
(208.32912 -1.8028785e-19 -8.782349)
(207.9147 1.563731e-16 -8.2112951)
(207.5243 -1.4587645e-16 -7.6585544)
(207.156 -6.7890624e-17 -7.1248543)
(206.80795 -6.3239514e-17 -6.6107308)
(206.47834 -1.1807121e-16 -6.116544)
(206.16547 2.1928403e-16 -5.6424958)
(205.86767 0 -5.1886454)
(205.58336 9.4766306e-17 -4.7549252)
(205.31102 -3.5261738e-16 -4.3411571)
(205.04914 2.4542461e-16 -3.9470738)
(204.79624 7.5954856e-17 -3.5723167)
(204.55081 1.4110071e-16 -3.2164568)
(204.31135 1.3109433e-16 -2.8790127)
(204.07632 -1.2131267e-16 -2.5594262)
(203.8441 -1.124256e-16 -2.2570555)
(203.61294 -3.1274897e-16 -1.9711919)
(203.38096 -3.9278757e-20 -1.7010845)
(203.14613 -8.9391017e-17 -1.4460064)
(202.90638 0 -1.2053932)
(202.65957 -2.2982865e-16 -0.9790127)
(202.40368 7.0871704e-17 -0.76697203)
(202.13747 0 -0.5698145)
(201.86185 1.2127268e-16 -0.3899124)
(201.58267 0 -0.23312886)
(201.31562 1.0361513e-16 -0.10374724)
(201.08396 -1.4357321e-16 0.0025497939)
(200.89017 1.3265e-16 0.073115222)
(200.7056 -8.1678254e-17 0.071026337)
(200.57612 7.5403639e-17 0.12203231)
(200.58154 0 0.49662518)
(219.92381 -4.1171592e-16 -38.429867)
(259.57836 3.6386915e-16 -17.472272)
(240.75988 -3.3329707e-16 -37.972907)
(251.1991 3.3146488e-16 -19.970029)
(243.79738 3.1738938e-16 -35.170389)
(246.9919 -1.8048504e-17 -23.260576)
(243.99764 -2.8419134e-16 -31.931757)
(244.46263 -2.697709e-16 -26.266008)
(243.0829 2.8713827e-16 -29.573001)
(242.51185 0 -27.926448)
(241.57185 2.865045e-17 -28.576737)
(240.71683 0 -28.317719)
(239.79636 -1.2885409e-16 -28.323017)
(238.85356 2.432964e-16 -28.236537)
(237.87887 0 -28.145103)
(236.87566 0 -28.027717)
(235.84493 0 -27.886208)
(234.78859 3.9178218e-17 -27.717895)
(233.70879 0 -27.521077)
(232.60813 -2.4503207e-16 -27.293955)
(231.48956 3.3014003e-16 -27.034907)
(230.35643 1.2491633e-16 -26.742509)
(229.21243 1.7712264e-16 -26.41555)
(228.06159 -2.7820861e-16 -26.053122)
(226.90822 -5.2428058e-17 -25.654639)
(225.75682 -2.4809848e-16 -25.219886)
(224.61207 1.8672696e-16 -24.749049)
(223.47869 -2.2053611e-16 -24.242749)
(222.36136 8.2519297e-17 -23.702038)
(221.26468 7.8012721e-17 -23.128413)
(220.19299 0 -22.523796)
(219.15038 2.7750779e-16 -21.890503)
(218.14052 -2.6063533e-16 -21.231219)
(217.16666 0 -20.548931)
(216.2315 -2.3040858e-16 -19.846889)
(215.33723 2.1581619e-16 -19.128524)
(214.48545 -1.0169694e-16 -18.397388)
(213.67718 1.9040599e-16 -17.657086)
(212.91289 -2.6753591e-16 -16.911198)
(212.19251 1.2613932e-19 -16.163225)
(211.51546 -1.5631629e-16 -15.416527)
(210.88076 -7.315678e-17 -14.674272)
(210.28702 -1.3729573e-16 -13.939404)
(209.73257 2.5595577e-16 -13.214607)
(209.21546 -1.1944672e-16 -12.502292)
(208.73359 0 -11.804582)
(208.28472 -3.712802e-19 -11.123315)
(207.86654 9.7171163e-17 -10.460048)
(207.47672 0 -9.8160656)
(207.11293 8.4518277e-17 -9.1923975)
(206.77292 7.9018306e-17 -8.589836)
(206.4545 -7.3372175e-17 -8.0089556)
(206.15555 2.731723e-16 -7.4501332)
(205.8741 -2.5395432e-16 -6.9135702)
(205.60824 -1.1810796e-16 -6.399311)
(205.35622 -1.0972237e-16 -5.9072628)
(205.11637 1.0188249e-16 -5.4372126)
(204.88711 1.8899942e-16 -4.9888442)
(204.66694 -3.5059328e-16 -4.5617542)
(204.45443 4.0632282e-16 -4.1554722)
(204.24813 -1.5056347e-16 -3.7694532)
(204.04662 1.3955907e-16 -3.4031031)
(203.84848 -1.291957e-16 -3.0557926)
(203.65227 2.3927485e-16 -2.7268334)
(203.45647 -3.3216772e-16 -2.4154866)
(203.2595 2.047747e-16 -2.1209837)
(203.05963 -7.3197223e-20 -1.8425602)
(202.85504 8.7533692e-17 -1.5795302)
(202.64389 0 -1.3314212)
(202.42437 0 -1.0980844)
(202.19489 0 -0.87965299)
(201.95469 -1.2725237e-16 -0.67679864)
(201.70489 9.3623834e-21 -0.49218571)
(201.45152 0 -0.3311831)
(201.21034 0 -0.19652609)
(201.00195 9.2032958e-17 -0.085371528)
(200.82489 -1.6955975e-16 -0.013445248)
(200.65751 0 -0.006584666)
(200.54716 0 0.067099996)
(200.52936 -1.3202671e-16 0.37665364)
(219.48352 2.7784201e-17 -42.670446)
(259.48876 -7.8786264e-16 -20.610053)
(240.05315 3.4872794e-16 -42.053474)
(250.56105 -2.1788599e-17 -23.397846)
(242.97893 3.7412388e-16 -38.904593)
(246.20475 -3.528237e-16 -26.926498)
(243.12337 0 -35.443936)
(243.45789 -3.177996e-16 -30.032934)
(242.02708 2.3362643e-16 -33.012169)
(241.33278 2.2189093e-16 -31.59015)
(240.30745 -2.3951493e-16 -32.061777)
(239.34447 0 -31.834402)
(238.32209 1.8692018e-19 -31.778197)
(237.27367 0 -31.651646)
(236.19326 3.8576466e-16 -31.507455)
(235.08425 -7.2873957e-16 -31.332261)
(233.9486 3.4404033e-16 -31.126069)
(232.78909 -4.0640803e-17 -30.886306)
(231.6089 -3.8613743e-17 -30.611098)
(230.41167 3.6695109e-17 -30.298647)
(229.20149 -6.8536552e-17 -29.947426)
(227.98284 -3.2464972e-16 -29.556215)
(226.76058 3.0555464e-16 -29.124165)
(225.53983 5.7601329e-17 -28.650857)
(224.32594 -2.7295011e-16 -28.136328)
(223.12435 -6.9012092e-19 -27.581131)
(221.9405 2.899021e-16 -26.986329)
(220.77974 -1.8195087e-16 -26.353514)
(219.64718 -6.0260663e-19 -25.684791)
(218.5476 0 -24.982745)
(217.48536 0 -24.250407)
(216.46428 -7.1586292e-17 -23.491185)
(215.48757 1.3402566e-16 -22.70881)
(214.5578 0 -21.907242)
(213.67684 -1.1844972e-16 -21.090595)
(212.84586 2.2164472e-16 -20.263054)
(212.06534 -1.038369e-16 -19.428776)
(211.33514 -1.9459496e-16 -18.591828)