/*--------------------------------*- C++ -*----------------------------------*\
  =========                 |
  \\      /  F ield         | OpenFOAM: The Open Source CFD Toolbox
   \\    /   O peration     | Website:  https://openfoam.org
    \\  /    A nd           | Version:  12
     \\/     M anipulation  |
\*---------------------------------------------------------------------------*/
FoamFile
{
    format      ascii;
    class       volScalarField;
    location    "0.035";
    object      p;
}
// * * * * * * * * * * * * * * * * * * * * * * * * * * * * * * * * * * * * * //

dimensions      [1 -1 -2 0 0 0 0];

internalField   nonuniform List<scalar> 
16000
(
89781.299
89906.69
89918.203
90053.148
90077.441
90205.826
90254.41
90372.198
90444.199
90555.881
90646.606
90757.567
90862.789
90977.6
91094.027
91215.949
91341.854
91472.38
91607.39
91746.971
91891.129
92039.865
92193.158
92350.965
92513.214
92679.807
92850.619
93025.49
93204.23
93386.617
93572.391
93761.261
93952.903
94146.958
94343.036
94540.719
94739.561
94939.094
95138.83
95338.265
95536.886
95734.172
95929.601
96122.654
96312.818
96499.59
96682.483
96861.027
97034.776
97203.314
97366.252
97523.243
97673.978
97818.197
97955.69
98086.299
98209.91
98326.447
98435.849
98538.05
98632.945
98720.376
98800.136
98871.979
98935.661
98990.999
99037.922
99076.523
99107.1
99130.155
99146.365
99156.457
99161.092
99161.053
99157.626
99158.952
99165.85
99115.253
99438.454
98871.307
89402.557
89545.084
89553.941
89701.149
89727.279
89867.097
89917.862
90047.249
90123.111
90245.043
90342.271
90462.246
90575.895
90699.622
90825.399
90956.861
91092.729
91233.501
91379.097
91529.567
91684.906
91845.092
92010.076
92179.78
92354.095
92532.881
92715.963
92903.132
93094.142
93288.71
93486.516
93687.204
93890.383
94095.626
94302.479
94510.456
94719.052
94927.74
95135.982
95343.231
95548.939
95752.562
95953.567
96151.432
96345.658
96535.768
96721.309
96901.859
97077.027
97246.451
97409.803
97566.788
97717.144
97860.643
97997.098
98126.355
98248.297
98362.835
98469.899
98569.422
98661.317
98745.461
98821.68
98889.762
98949.475
99000.612
99043.047
99076.806
99102.119
99119.452
99129.51
99133.128
99131.337
99125.436
99118.603
99117.143
99114.281
99106.446
99355.257
98870.998
89057.055
89215.311
89223.689
89384.636
89410.534
89564.208
89616.555
89758.389
89839.025
89971.583
90076.567
90206.164
90329.433
90463.04
90599.312
90741.482
90888.508
91040.759
91198.171
91360.756
91528.48
91701.285
91879.082
92061.75
92249.132
92441.036
92637.231
92837.447
93041.372
93248.655
93458.905
93671.689
93886.542
94102.961
94320.417
94538.354
94756.201
94973.371
95189.274
95403.323
95614.94
95823.563
96028.653
96229.701
96426.231
96617.801
96804.011
96984.499
97158.944
97327.06
97488.595
97643.33
97791.071
97931.652
98064.929
98190.778
98309.096
98419.794
98522.791
98618.015
98705.381
98784.777
98856.055
98919.03
98973.49
99019.221
99056.065
99083.977
99103.099
99113.811
99116.749
99112.821
99103.463
99090.444
99078.408
99072.124
99067.714
99081.326
99282.115
98853.072
88747.065
88916.447
88925.065
89101.621
89127.137
89297.053
89351.547
89507.819
89594.188
89738.873
89853.115
89993.657
90128.189
90273.147
90421.465
90575.864
90735.532
90900.709
91071.332
91247.375
91428.77
91615.422
91807.197
92003.926
92205.398
92411.36
92621.515
92835.517
93052.979
93273.465
93496.497
93721.556
93948.087
94175.504
94403.194
94630.526
94856.858
95081.548
95303.958
95523.467
95739.477
95951.423
96158.777
96361.057
96557.827
96748.703
96933.353
97111.493
97282.888
97447.344
97604.703
97754.839
97897.646
98033.039
98160.94
98281.275
98393.971
98498.952
98596.138
98685.445
98766.777
98840.015
98905.009
98961.579
99009.515
99048.595
99078.625
99099.497
99111.258
99114.176
99108.782
99096.041
99077.646
99056.515
99037.678
99026.202
99022.021
99047.949
99215.707
98824.969
88474.25
88658.464
88664.466
88859.7
88884.241
89072.916
89129.68
89302.307
89395.725
89553.963
89679.329
89832.102
89979.56
90137.262
90299.012
90466.976
90640.565
90819.921
91004.984
91195.693
91391.947
91593.606
91800.483
92012.346
92228.912
92449.848
92674.768
92903.233
93134.754
93368.794
93604.77
93842.06
94080.007
94317.931
94555.13
94790.897
95024.525
95255.323
95482.618
95705.772
95924.189
96137.32
96344.676
96545.823
96740.394
96928.084
97108.652
97281.911
97447.73
97606.021
97756.735
97899.849
98035.36
98163.272
98283.584
98396.285
98501.347
98598.72
98688.332
98770.09
98843.883
98909.571
98966.984
99015.924
99056.162
99087.454
99109.565
99122.324
99125.69
99119.823
99105.148
99082.659
99054.406
99024.307
98997.772
98980.535
98975.067
99009.069
99150.861
98791.974
88244.714
88446.738
88450.781
88667.312
88690.487
88900.072
88958.916
89149.705
89251.61
89424.46
89562.524
89728.274
89889.775
90061.193
90237.413
90420.073
90608.776
90803.585
91004.413
91211.153
91423.641
91641.665
91864.957
92093.192
92325.985
92562.892
92803.413
93046.986
93292.999
93540.788
93789.649
94038.841
94287.597
94535.137
94780.673
95023.428
95262.647
95497.605
95727.619
95952.063
96170.371
96382.047
96586.667
96783.887
96973.435
97155.116
97328.802
97494.428
97651.982
97801.498
97943.043
98076.707
98202.59
98320.79
98431.389
98534.439
98629.962
98717.94
98798.313
98870.985
98935.822
98992.658
99041.286
99081.469
99112.937
99135.4
99148.572
99152.217
99146.219
99130.644
99105.858
99072.974
99034.545
98994.929
98960.337
98936.754
98928.849
98969.511
99087.024
98755.392
88060.835
88283.994
88285.009
88526.467
88548.304
88782.231
88844.48
89055.209
89165.891
89352.731
89504.394
89683.615
89860.38
90046.911
90239.177
90438.289
90643.942
90856.095
91074.594
91299.244
91529.788
91765.907
92007.217
92253.269
92503.545
92757.461
93014.369
93273.56
93534.274
93795.702
94057.002
94317.308
94575.74
94831.425
95083.504
95331.151
95573.585
95810.082
96039.99
96262.73
96477.811
96684.831
96883.478
97073.53
97254.852
97427.386
97591.147
97746.21
97892.698
98030.776
98160.633
98282.472
98396.493
98502.883
98601.796
98693.349
98777.604
98854.574
98924.21
98986.411
99041.02
99087.835
99126.604
99157.032
99178.79
99191.525
99194.884
99188.567
99172.395
99146.375
99110.898
99067.326
99018.655
98969.678
98927.122
98897.557
98887.429
98932.305
99025.576
98718.145
87916.842
88164.801
88161.42
88433.377
88452.051
88713.696
88778.932
89008.952
89131.14
89333.876
89502.539
89697.837
89892.736
90097.205
90308.239
90526.506
90751.733
90983.774
91222.383
91467.256
91718.011
91974.195
92235.276
92500.643
92769.612
93041.425
93315.259
93590.23
93865.408
94139.828
94412.503
94682.445
94948.675
95210.247
95466.261
95715.878
95958.337
96192.965
96419.186
96636.528
96844.628
97043.23
97232.179
97411.424
97580.998
97741.013
97891.649
98033.134
98165.74
98289.762
98405.51
98513.29
98613.393
98706.08
98791.567
98870.015
98941.522
99006.115
99063.752
99114.318
99157.632
99193.447
99221.458
99241.304
99252.58
99254.854
99247.705
99230.77
99203.823
99166.861
99120.414
99066.212
99007.621
98949.736
98899.745
98864.713
98852.332
98899.805
98968.036
98684.65
87809.874
88086.289
88078.609
88388.219
88401.398
88691.685
88761.871
89013.955
89152.97
89374.248
89563.723
89778.117
89994.275
90219.846
90452.696
90693.137
90940.868
91195.614
91457.003
91724.579
91997.799
92276.028
92558.544
92844.535
93133.108
93423.294
93714.064
94004.338
94293.004
94578.936
94861.016
95138.151
95409.298
95673.478
95929.8
96177.472
96415.817
96644.278
96862.428
97069.967
97266.721
97452.638
97627.772
97792.279
97946.394
98090.422
98224.717
98349.671
98465.698
98573.218
98672.648
98764.382
98848.781
98926.161
98996.778
99060.82
99118.397
99169.542
99214.201
99252.239
99283.44
99307.511
99324.084
99332.726
99332.947
99324.238
99306.101
99278.128
99240.07
99191.983
99134.655
99070.227
99002.33
98936.419
98880.079
98840.413
98826.516
98874.153
98916.813
98658.779
87742.824
88052.506
88042.035
88387.876
88400.024
88722.49
88804.719
89082.051
89241.365
89483.16
89697.136
89933.875
90174.596
90424.725
90682.749
90948.67
91222.078
91502.532
91789.478
92082.259
92380.111
92682.168
92987.457
93294.916
93603.398
93911.691
94218.535
94522.642
94822.724
95117.513
95405.791
95686.409
95958.314
96220.57
96472.371
96713.058
96942.124
97159.217
97364.14
97556.839
97737.397
97906.017
98063.005
98208.751
98343.711
98468.387
98583.308
98689.017
98786.056
98874.951
98956.198
99030.257
99097.532
99158.368
99213.035
99261.724
99304.539
99341.497
99372.52
99397.439
99415.995
99427.843
99432.551
99429.605
99418.435
99398.454
99369.105
99329.939
99280.732
99221.686
99153.937
99079.982
99003.706
98930.898
98869.244
98825.292
98811.008
98856.959
98875.383
98643.422
87721.115
88070.478
88056.21
88442.812
88458.545
88817.632
88914.764
89219.266
89404.545
89669.759
89912.546
90175.684
90444.792
90723.386
91010.321
91305.315
91607.782
91917.053
92232.324
92552.665
92877.021
93204.216
93532.97
93861.914
94189.609
94514.578
94835.325
95150.369
95458.278
95757.693
96047.361
96326.165
96593.142
96847.503
97088.643
97316.15
97529.794
97729.529
97915.473
98087.888
98247.169
98393.809
98528.387
98651.536
98763.924
98866.236
98959.156
99043.349
99119.453
99188.068
99249.739
99304.955
99354.135
99397.622
99435.674
99468.46
99496.057
99518.447
99535.513
99547.044
99552.729
99552.164
99544.848
99530.196
99507.559
99476.274
99435.766
99385.534
99325.45
99255.952
99178.555
99096.068
99012.653
98934.182
98868.19
98821.621
98806.383
98849.177
98846.042
98640.484
87752.785
88149.25
88131.03
88565.717
88586.873
88985.729
89102.724
89436.399
89653.635
89945.698
90221.754
90515.893
90817.662
91129.044
91449.007
91776.957
92112.03
92453.235
92799.414
93149.266
93501.35
93854.109
94205.894
94554.991
94899.655
95238.146
95568.762
95889.887
96200.019
96497.815
96782.113
97051.965
97306.646
97545.668
97768.771
97975.919
98167.278
98343.195
98504.173
98650.839
98783.918
98904.205
99012.534
99109.76
99196.733
99274.28
99343.196
99404.227
99458.067
99505.342
99546.611
99582.357
99612.978
99638.786
99660.002
99676.751
99689.064
99696.871
99700.007
99698.205
99691.1
99678.226
99659.014
99632.812
99598.904
99556.577
99505.199
99444.337
99373.955
99294.811
99208.801
99119.048
99029.946
98947.293
98878.328
98829.948
98813.043
98851.354
98829.838
98651.416
87840.142
88292.685
88271.043
88760.606
88790.558
89233.19
89377.749
89743.124
89999.489
90323.211
90637.668
90968.309
91307.816
91656.954
92014.564
92379.633
92750.879
93126.849
93505.914
93886.291
94266.074
94643.263
95015.807
95381.639
95738.732
96085.138
96419.046
96738.827
97043.074
97330.638
97600.651
97852.533
98085.995
98301.022
98497.851
98676.943
98838.945
98984.655
99114.985
99230.925
99333.515
99423.807
99502.85
99571.661
99631.214
99682.422
99726.134
99763.123
99794.085
99819.635
99840.299
99856.52
99868.647
99876.933
99881.54
99882.531
99879.874
99873.441
99863.006
99848.244
99828.732
99803.941
99773.241
99735.914
99691.194
99638.333
99576.699
99505.907
99426.104
99338.39
99245.051
99149.457
99056.004
98970.442
98899.297
98848.923
98831.76
98862.551
98826.518
98677.867
87988.57
88507.686
88483.377
89035.527
89080.255
89570.561
89752.016
90152.413
90455.732
90817.515
91176.447
91550.117
91933.333
92325.793
92725.927
93132.136
93542.552
93955.124
94367.634
94777.734
95182.991
95580.935
95969.121
96345.188
96706.93
97052.354
97379.745
97687.705
97975.192
98241.524
98486.386
98709.807
98912.129
99093.966
99256.162
99399.738
99525.845
99635.721
99730.653
99811.936
99880.851
99938.635
99986.468
100025.45
100056.61
100080.87
100099.08
100111.97
100120.2
100124.32
100124.8
100122.01
100116.21
100107.59
100096.24
100082.13
100065.18
100045.17
100021.84
99994.779
99963.52
99927.472
99885.948
99838.178
99783.361
99720.735
99649.689
99569.941
99481.861
99386.891
99287.677
99187.675
99091.191
99004.07
98932.042
98880.445
98862.475
98882.725
98836.187
98721.093
88204.512
88803.164
88778.056
89401.167
89468.278
90010.196
90239.93
90680.551
91039.836
91448.264
91859.183
92283.45
92716.945
93158.312
93605.313
94055.601
94506.574
94955.461
95399.355
95835.278
96260.251
96671.382
97065.951
97441.503
97795.929
98127.522
98435.028
98717.658
98975.085
99207.417
99415.152
99599.122
99760.435
99900.404
100020.49
100122.25
100207.28
100277.15
100333.45
100377.64
100411.16
100435.31
100451.31
100460.26
100463.15
100460.86
100454.15
100443.68
100430.04
100413.67
100394.95
100374.16
100351.46
100326.97
100300.66
100272.45
100242.18
100209.56
100174.26
100135.82
100093.72
100047.31
99995.854
99938.549
99874.576
99803.178
99723.8
99636.297
99541.278
99440.508
99336.895
99233.834
99135.628
99048.229
98976.6
98924.87
98905.088
98913.133
98860.851
98782.138
88494.335
89188.013
89164.992
89868.64
89969.425
90568.796
90861.564
91351.043
91776.846
92242.344
92713.624
93196.116
93685.908
94180.555
94676.95
95171.817
95661.654
96142.83
96611.675
97064.596
97498.202
97909.432
98295.668
98654.818
98985.376
99286.442
99557.71
99799.424
100012.32
100197.53
100356.52
100491.01
100602.85
100694
100766.43
100822.09
100862.87
100890.58
100906.87
100913.32
100911.33
100902.2
100887.07
100866.95
100842.73
100815.17
100784.94
100752.57
100718.52
100683.13
100646.67
100609.3
100571.09
100532.06
100492.11
100451.06
100408.68
100364.64
100318.52
100269.84
100217.99
100162.3
100102
100036.27
99964.276
99885.312
99798.89
99705.012
99604.524
99499.477
99392.912
99288.161
99189.567
99103.02
99032.812
98981.733
98958.56
98955.85
98905.92
98863.984
88865.079
89672.386
89657.051
90456.29
90607.983
91274.919
91647.964
92197.325
92700.328
93233.415
93772.841
94319.881
94870.116
95419.815
95964.678
96500.228
97021.869
97525.067
98005.533
98459.397
98883.376
99274.893
99632.145
99954.131
100240.62
100492.09
100709.62
100894.78
101049.55
101176.15
101276.95
101354.43
101411.04
101449.16
101471.08
101478.95
101474.74
101460.28
101437.2
101406.99
101370.95
101330.23
101285.83
101238.62
101189.32
101138.55
101086.82
101034.54
100982.01
100929.47
100877.05
100824.82
100772.75
100720.76
100668.66
100616.23
100563.15
100509.03
100453.41
100395.74
100335.4
100271.67
100203.76
100130.85
100052.15
99966.998
99874.988
99776.256
99671.864
99564.062
99455.954
99350.921
99253.43
99169.039
99101.283
99051.641
99025.421
99015.444
98976.023
98969.803
89336.244
90283.54
90287.545
91202.315
91422.717
92167.737
92638.497
93259.106
93848.914
94459.272
95073.331
95688.912
96300.228
96901.763
97487.628
98051.999
98589.345
99094.707
99563.92
99993.787
100382.17
100727.99
101031.19
101292.63
101513.9
101697.22
101845.23
101960.84
102047.13
102107.2
102144.1
102160.74
102159.88
102144.07
102115.64
102076.68
102029.1
101974.55
101914.51
101850.25
101782.89
101713.36
101642.48
101570.9
101499.18
101427.76
101356.99
101287.13
101218.36
101150.77
101084.4
101019.2
100955.06
100891.8
100829.19
100766.93
100704.64
100641.89
100578.17
100512.9
100445.42
100374.98
100300.8
100222.1
100138.11
100048.25
99952.207
99850.251
99743.61
99634.612
99526.381
99422.483
99327.51
99246.665
99182.635
99135.605
99108.532
99097.101
99073.503
99098.017
89941.568
91066.641
91100.079
92149.002
92456.879
93288.131
93875.475
94581.004
95267.182
95963.348
96655.607
97338.236
98003.242
98643.045
99250.366
99818.739
100342.82
100818.62
101243.62
101616.75
101938.29
102209.68
102433.32
102612.3
102750.21
102850.9
102918.32
102956.4
102968.91
102959.42
102931.22
102887.33
102830.45
102763.01
102687.14
102604.71
102517.34
102426.43
102333.18
102238.6
102143.54
102048.72
101954.69
101861.94
101770.81
101681.58
101594.44
101509.51
101426.83
101346.4
101268.14
101191.92
101117.54
101044.77
100973.3
100902.8
100832.83
100762.93
100692.56
100621.09
100547.86
100472.11
100393.09
100310.04
100222.26
100129.22
100030.73
99927.219
99820.039
99711.474
99604.601
99503.216
99412.082
99336.029
99276.987
99234.262
99209.605
99201.823
99197.956
99244.424
90710.076
92049.243
92126.464
93330.118
93759.011
94688.379
95413.96
96221.135
97011.155
97795.337
98559.229
99293.518
99988.258
100634.9
101226.49
101758.03
102226.6
102631.26
102972.9
103253.92
103477.86
103649.12
103772.56
103853.29
103896.42
103906.91
103889.43
103848.31
103787.47
103710.44
103620.37
103519.98
103411.66
103297.49
103179.21
103058.34
102936.13
102813.64
102691.76
102571.2
102452.55
102336.26
102222.7
102112.11
102004.69
101900.54
101799.72
101702.22
101607.97
101516.86
101428.74
101343.39
101260.56
101179.96
101101.26
101024.06
100947.91
100872.32
100796.72
100720.46
100642.88
100563.24
100480.82
100394.88
100304.79
100210.09
100110.71
100007.24
99901.098
99794.528
99690.57
99593.135
99506.992
99436.53
99383.305
99346.484
99327.408
99327.626
99343.082
99401.07
91671.433
93278.038
93436.316
94811.392
95407.719
96451.332
97332.308
98251.701
99139.888
99994.905
100800.75
101546.34
102222.4
102822.65
103343.75
103785.2
104148.9
104438.75
104660.03
104818.96
104922.22
104976.58
104988.66
104964.71
104910.49
104831.24
104731.61
104615.68
104487.04
104348.74
104203.42
104053.32
103900.3
103745.94
103591.54
103438.19
103286.75
103137.93
102992.29
102850.27
102712.2
102578.3
102448.74
102323.58
102202.87
102086.58
101974.63
101866.92
101763.28
101663.53
101567.43
101474.72
101385.12
101298.28
101213.85
101131.41
101050.5
100970.6
100891.12
100811.44
100730.87
100648.72
100564.29
100476.89
100385.92
100291.01
100192.18
100090.15
99986.348
99883.039
99783.254
99690.884
99610.464
99545.864
99498.662
99468.519
99456.803
99465.942
99494.803
99554.593
92909.315
94854.169
95138.711
96705.957
97517.519
98684.167
99715.53
100731.76
101681
102554.53
103338.52
104025.18
104610.83
105095.83
105483.86
105781.12
105995.52
106135.92
106211.5
106231.29
106203.86
106137.08
106038.04
105913.01
105767.44
105606.03
105432.79
105251.09
105063.78
104873.22
104681.35
104489.78
104299.82
104112.51
103928.69
103749.03
103574.02
103404.06
103239.41
103080.25
102926.7
102778.8
102636.51
102499.8
102368.55
102242.62
102121.86
102006.06
101895
101788.42
101686.04
101587.57
101492.69
101401.04
101312.24
101225.88
101141.49
101058.54
100976.46
100894.61
100812.34
100728.98
100643.84
100556.28
100465.73
100371.86
100274.78
100175.22
100074.64
99975.286
99880.17
99793.067
99718.176
99658.747
99616.878
99592.913
99587.655
99602.274
99635.501
99687.546
94556.966
96919.7
97385.855
99143.509
100205.61
101480.52
102609.55
103655.78
104581.26
105379.68
106046.76
106584.63
106999.88
107302.4
107504.07
107617.59
107655.68
107630.4
107552.87
107432.98
107279.39
107099.55
106899.79
106685.4
106460.81
106229.65
105994.91
105759.02
105523.94
105291.23
105062.16
104837.7
104618.6
104405.44
104198.63
103998.47
103805.16
103618.8
103439.44
103267.03
103101.52
102942.78
102790.68
102645.02
102505.62
102372.25
102244.67
102122.62
102005.82
101893.98
101786.79
101683.93
101585.06
101489.83
101397.86
101308.73
101221.98
101137.09
101053.51
100970.63
100887.81
100804.4
100719.73
100633.13
100544.04
100452.16
100357.59
100261
100163.8
100068.17
99977.061
99894.045
99823.051
99766.955
99728.221
99708.348
99706.184
99719.335
99745.146
99782.005
96806.222
99636.782
100347.14
102245.88
103520.62
104843.13
105952.59
106900.59
107674
108278.55
108725.29
109030.07
109210.86
109286.17
109273.73
109189.81
109048.8
108863.1
108643.23
108397.93
108134.41
107858.53
107575.04
107287.75
106999.68
106713.24
106430.3
106152.34
105880.48
105615.55
105358.17
105108.8
104867.71
104635.08
104411
104195.48
103988.44
103789.8
103599.4
103417.05
103242.55
103075.67
102916.16
102763.76
102618.2
102479.2
102346.46
102219.68
102098.56
101982.76
101871.97
101765.86
101664.08
101566.3
101472.14
101381.2
101293.02
101207.13
101122.98
101040.01
100957.61
100875.13
100791.86
100707.09
100620.21
100530.81
100438.9
100345.05
100250.51
100157.35
100068.39
99986.936
99916.422
99860.31
99821.38
99801.156
99796.385
99800.043
99808.178
99825.056
99911.503
103120.68
104139.45
106105.35
107421.76
108596.68
109519.44
110214.81
110700.57
111003.5
111151.66
111172.68
111091.77
110931.02
110709.14
110441.6
110141
109817.44
109478.92
109131.74
108780.83
108429.98
108082.13
107739.5
107403.77
107076.19
106757.66
106448.82
106150.07
105861.68
105583.76
105316.32
105059.32
104812.62
104576.04
104349.38
104132.4
103924.83
103726.39
103536.78
103355.7
103182.84
103017.87
102860.49
102710.37
102567.18
102430.61
102300.32
102175.98
102057.26
101943.83
101835.38
101731.56
101632.05
101536.47
101444.46
101355.59
101269.41
101185.42
101103.09
101021.83
100940.97
100859.76
100777.37
100693.03
100606.15
100516.51
100424.45
100331.03
100238.13
100148.41
100064.96
99991.064
99930.318
99886.249
99859.735
99845.26
99832.147
99817.397
99813.632
104130.76
107555.53
108778.67
110480.4
111613.56
112450.03
112988.72
113284.56
113382.39
113325.51
113150.55
112887.9
112561.92
112191.76
111792.23
111374.65
110947.63
110517.59
110089.37
109666.49
109251.56
108846.44
108452.44
108070.44
107701
107344.46
107000.95
106670.48
106352.94
106048.15
105755.85
105475.78
105207.6
104950.98
104705.58
104471.02
104246.95
104032.98
103828.74
103633.87
103447.98
103270.72
103101.73
102940.64
102787.11
102640.79
102501.33
102368.39
102241.63
102120.72
102005.34
101895.18
101789.92
101689.23
101592.76
101500.17
101411.09
101325.09
101241.73
101160.5
101080.8
101001.92
100923.03
100843.15
100761.27
100676.48
100588.23
100496.51
100402.09
100306.68
100212.78
100123.44
100042.03
99972.386
99917.973
99879.065
99849.123
99816.268
99778.86
99758.212
109393.66
112781.78
113908.34
115043.44
115660.27
115947.77
115970.78
115803.04
115498.88
115100.95
114640.9
114142.09
113621.45
113091.16
112559.91
112033.81
111517.12
111012.76
110522.67
110048.1
109589.77
109148.04
108723
108314.57
107922.52
107546.52
107186.2
106841.11
106510.81
106194.81
105892.63
105603.79
105327.8
105064.19
104812.49
104572.23
104342.98
104124.28
103915.71
103716.85
103527.29
103346.62
103174.47
103010.45
102854.2
102705.35
102563.54
102428.43
102299.68
102176.97
102060
101948.44
101842.01
101740.38
101643.24
101550.28
101461.17
101375.55
101293
101213
101134.9
101057.92
100981.13
100903.4
100823.43
100739.96
100651.95
100558.96
100461.42
100360.83
100259.69
100161.22
100069.16
99987.416
99919.186
99864.173
99816.011
99764.8
99710.489
99678.298
115651.59
118179.15
118795.07
119079.72
118987.1
118658.76
118174.49
117595.15
116961.51
116301.24
115632.67
114967.88
114314.7
113678.08
113061.05
112465.37
111891.88
111340.88
110812.24
110305.6
109820.43
109356.1
108911.91
108487.14
108081.07
107692.97
107322.12
106967.83
106629.42
106306.25
105997.67
105703.08
105421.91
105153.59
104897.59
104653.4
104420.51
104198.45
103986.75
103784.96
103592.67
103409.44
103234.87
103068.59
102910.21
102759.36
102615.68
102478.83
102348.48
102224.3
102105.99
101993.27
101885.85
101783.44
101685.75
101592.52
101503.45
101418.22
101336.43
101257.5
101180.77
101105.41
101030.16
100953.99
100875.38
100792.63
100704.18
100609.04
100507.3
100400.34
100290.76
100182.09
100078.29
99983.228
99899.871
99828.364
99763.771
99698.636
99634.639
99595.194
122316.14
122760.94
122543.89
121994.34
121261.72
120436.3
119574.45
118708.05
117855.73
117027.74
116229.57
115463.74
114731.1
114031.44
113363.98
112727.62
112121.07
111542.98
110992
110466.8
109966.1
109488.68
109033.38
108599.13
108184.9
107789.73
107412.72
107053.01
106709.81
106382.35
106069.93
105771.87
105487.53
105216.31
104957.64
104710.96
104475.76
104251.53
104037.79
103834.08
103639.96
103455
103278.79
103110.95
102951.09
102798.84
102653.84
102515.74
102384.22
102258.96
102139.67
102026.09
101917.96
101815.03
101717.03
101623.71
101534.73
101449.73
101368.31
101289.96
101214
101139.66
101065.78
100990.96
100913.6
100831.65
100743.11
100646.61
100541.63
100429.22
100312.11
100194.1
100079.51
99972.422
99875.875
99790.53
99713.38
99639.585
99571.359
99528.353
126209.22
125582.23
124664.62
123609.61
122522.24
121446.68
120405.73
119408.71
118459.12
117557.2
116701.67
115890.48
115121.28
114391.63
113699.13
113041.5
112416.6
111822.45
111257.21
110719.18
110206.8
109718.64
109253.39
108809.82
108386.82
107983.33
107598.41
107231.13
106880.67
106546.24
106227.1
105922.56
105631.95
105354.67
105090.14
104837.79
104597.09
104367.55
104148.68
103940.01
103741.09
103551.51
103370.84
103198.71
103034.72
102878.51
102729.72
102588
102453.02
102324.47
102202.08
102085.6
101974.81
101869.51
101769.42
101674.2
101583.52
101496.99
101414.21
101334.79
101258.25
101183.77
101110.4
101036.25
100958.96
100876.08
100785.89
100687.52
100579.55
100462.02
100338.12
100211.99
100088.35
99971.539
99864.911
99769.767
99684.439
99605.651
99535.569
99490.767
104123.55
104103
104157.45
104210.92
104247.96
104257.57
104240.72
104212.52
104179.04
104135.15
104075.96
104003.98
103923.71
103839.31
103750.88
103658.59
103562.94
103464.47
103363.66
103260.92
103156.65
103051.22
102944.96
102838.16
102731.09
102624
102517.11
102410.61
102304.7
102199.54
102095.29
101992.09
101890.08
101789.38
101690.13
101592.44
101496.42
101402.17
101309.81
101219.44
101131.15
101045.03
100961.18
100879.68
100800.62
100724.09
100650.17
100578.95
100510.52
100444.97
100382.38
100322.84
100266.44
100213.25
100163.35
100116.77
100073.59
100033.85
99997.665
99965.161
99936.511
99911.867
99891.313
99874.676
99861.702
99851.432
99843.644
99836.358
99831.428
99824.21
99823.012
99811.695
99825.813
99792.425
99845.095
99730.48
99911.571
99617.039
99976.975
99532.447
103656.96
103646.17
103648.08
103650.61
103638.77
103620.93
103600.18
103574.15
103535.42
103491.58
103441.86
103387.81
103328.58
103265.31
103198.08
103127.46
103053.66
102976.97
102897.68
102816.04
102732.33
102646.78
102559.64
102471.16
102381.56
102291.07
102199.91
102108.29
102016.42
101924.51
101832.74
101741.3
101650.38
101560.15
101470.76
101382.4
101295.2
101209.32
101124.9
101042.08
100960.99
100881.76
100804.51
100729.36
100656.42
100585.82
100517.67
100452.09
100389.2
100329.1
100271.9
100217.72
100166.62
100118.69
100073.96
100032.47
99994.241
99959.311
99927.758
99899.716
99875.366
99854.879
99838.359
99825.665
99816.511
99810.017
99805.822
99801.982
99799.839
99795.775
99795.985
99788.422
99799.986
99773.874
99819.356
99715.275
99884.345
99600.251
99959.08
99505.499
103207.24
103185.34
103145.26
103103.9
103065.74
103030.56
102990.99
102952.89
102911.74
102870.77
102826.31
102781.01
102732.69
102682.7
102630.13
102575.42
102518.38
102459.12
102397.7
102334.16
102268.62
102201.19
102131.99
102061.15
101988.83
101915.18
101840.36
101764.56
101687.94
101610.68
101532.98
101455.01
101376.96
101299.01
101221.35
101144.16
101067.61
100991.87
100917.12
100843.52
100771.23
100700.41
100631.2
100563.76
100498.25
100434.8
100373.57
100314.71
100258.36
100204.66
100153.74
100105.71
100060.67
100018.67
99979.75
99943.916
99911.167
99881.521
99855.045
99831.867
99812.178
99796.168
99783.956
99775.434
99770.308
99767.744
99767.198
99767.038
99767.917
99767
99769.077
99764.66
99775.106
99753.845
99795.122
99697.935
99859.387
99581.148
99941.302
99477.647
102498.91
102476.25
102450.56
102420.67
102390
102363.07
102331.43
102302.85
102269.8
102238.7
102204.04
102169.99
102133.22
102095.9
102056.53
102015.81
101973.3
101929.12
101883.21
101835.54
101786.12
101734.95
101682.09
101627.57
101571.48
101513.89
101454.91
101394.66
101333.26
101270.86
101207.6
101143.65
101079.17
101014.32
100949.29
100884.25
100819.39
100754.87
100690.89
100627.61
100565.23
100503.9
100443.82
100385.15
100328.07
100272.77
100219.41
100168.17
100119.23
100072.74
100028.87
99987.722
99949.402
99913.966
99881.43
99851.785
99825.01
99801.104
99780.122
99762.187
99747.494
99736.242
99728.568
99724.392
99723.424
99724.881
99728.129
99731.656
99735.686
99737.856
99742.003
99740.392
99750.569
99732.74
99771.548
99679.027
99835.988
99560.189
99924.483
99448.185
101735.55
101722.21
101710.99
101696.98
101680.18
101667.47
101648.47
101633.8
101613.37
101595.99
101574.1
101553.68
101530.11
101506.59
101481.02
101454.42
101426.11
101396.32
101364.94
101331.92
101297.27
101260.97
101223.04
101183.48
101142.34
101099.66
101055.5
101009.95
100963.08
100915.01
100865.84
100815.7
100764.72
100713.06
100660.87
100608.31
100555.55
100502.76
100450.11
100397.8
100345.99
100294.88
100244.65
100195.5
100147.62
100101.21
100056.47
100013.59
99972.775
99934.197
99898.019
99864.375
99833.362
99805.031
99779.389
99756.407
99736.048
99718.297
99703.194
99690.855
99681.468
99675.239
99672.317
99672.649
99675.964
99681.53
99688.692
99695.898
99703.216
99708.506
99714.811
99715.817
99726.196
99711.045
99747.727
99659.291
99813.32
99537.989
99909.148
99416.948
101027.19
101022.76
101020.96
101018.71
101012.1
101010.6
101001.57
100998.5
100988.46
100982.77
100971.64
100962.92
100950.51
100938.56
100924.53
100909.78
100893.4
100875.72
100856.64
100836.12
100814.16
100790.73
100765.83
100739.44
100711.58
100682.26
100651.51
100619.37
100585.89
100551.14
100515.2
100478.17
100440.14
100401.24
100361.59
100321.34
100280.63
100239.62
100198.47
100157.35
100116.44
100075.93
100036
99996.854
99958.695
99921.731
99886.173
99852.23
99820.106
99789.993
99762.059
99736.441
99713.234
99692.479
99674.174
99658.276
99644.732
99633.513
99624.641
99618.218
99614.422
99613.455
99615.471
99620.448
99628.141
99637.88
99648.889
99659.954
99670.595
99678.999
99687.522
99691.014
99701.839
99689.083
99725.047
99639.216
99791.668
99515.845
99896.297
99384.008
100395.36
100396.35
100398.65
100403.49
100402.9
100409.08
100406.44
100411.39
100408.17
100410.94
100407.58
100407.96
100404.15
100400.74
100395.14
100389.41
100382.41
100374.51
100365.51
100355.37
100344.06
100331.53
100317.74
100302.68
100286.33
100268.68
100249.74
100229.52
100208.04
100185.35
100161.5
100136.55
100110.58
100083.68
100055.95
100027.5
99998.46
99968.962
99939.151
99909.181
99879.216
99849.431
99820.007
99791.139
99763.027
99735.879
99709.906
99685.322
99662.331
99641.125
99621.874
99604.71
99589.72
99576.938
99566.349
99557.897
99551.517
99547.16
99544.832
99544.611
99546.656
99551.159
99558.276
99568.011
99580.155
99594.101
99609.16
99623.884
99637.912
99649.461
99660.219
99666.082
99677.443
99666.909
99701.896
99618.883
99770.842
99493.143
99883.622
99351.627
99830.553
99835.961
99840.734
99849.349
99851.082
99861.788
99862.167
99872.056
99872.625