/*--------------------------------*- C++ -*----------------------------------*\
  =========                 |
  \\      /  F ield         | OpenFOAM: The Open Source CFD Toolbox
   \\    /   O peration     | Website:  https://openfoam.org
    \\  /    A nd           | Version:  12
     \\/     M anipulation  |
\*---------------------------------------------------------------------------*/
FoamFile
{
    format      ascii;
    class       volVectorField;
    location    "0.035";
    object      U;
}
// * * * * * * * * * * * * * * * * * * * * * * * * * * * * * * * * * * * * * //

dimensions      [0 1 -1 0 0 0 0];

internalField   nonuniform List<vector> 
16000
(
(214.71419 -3.1527801e-17 -8.469816)
(252.48132 0 5.4303486)
(238.19534 0 -7.7282376)
(246.10302 4.9803166e-17 3.8424169)
(241.23589 -4.9174885e-17 -6.1832595)
(243.53903 0 1.7863688)
(241.65841 0 -4.5893046)
(242.2071 8.4169004e-17 -0.062892496)
(241.32986 -7.9975377e-17 -3.4241933)
(241.21936 0 -1.3985454)
(240.69073 7.2268225e-17 -2.8276716)
(240.34293 -2.0589856e-16 -2.2075728)
(239.894 1.3032684e-16 -2.7072915)
(239.46289 -1.2397361e-16 -2.6560631)
(239.00388 1.1763106e-16 -2.8520542)
(238.53189 -3.4893319e-18 -2.9517512)
(238.04198 -3.3147996e-18 -3.0867467)
(237.53505 -9.7819325e-17 -3.2116132)
(237.01053 1.916529e-16 -3.3396309)
(236.46825 -9.0933621e-17 -3.4667398)
(235.90806 1.7296773e-16 -3.5933687)
(235.32987 -1.639622e-16 -3.7188584)
(234.73369 0 -3.8427459)
(234.11961 1.5262128e-16 -3.9644825)
(233.48786 -4.1327368e-18 -4.08351)
(232.83874 -2.663719e-16 -4.1992327)
(232.1727 1.26251e-16 -4.3110447)
(231.4903 0 -4.4183197)
(230.79224 0 -4.5204286)
(230.07935 2.1924188e-16 -4.6167406)
(229.3526 -2.0427453e-16 -4.7066368)
(228.6131 0 -4.789515)
(227.86206 0 -4.8648003)
(227.10086 0 -4.9319552)
(226.33096 5.1527878e-18 -4.9904874)
(225.55396 1.56371e-16 -5.0399572)
(224.77151 -1.4314177e-16 -5.0799867)
(223.98539 -1.4018565e-16 -5.1102625)
(223.19739 1.241228e-16 -5.1305416)
(222.40937 0 -5.1406536)
(221.62318 -1.187788e-16 -5.1404976)
(220.84066 1.1211013e-16 -5.1300405)
(220.06362 -2.124488e-16 -5.1093088)
(219.29377 2.0043275e-16 -5.0783792)
(218.53272 -1.9573161e-16 -5.0373659)
(217.78196 3.5833417e-16 -4.9864027)
(217.04278 5.6068253e-18 -4.9256264)
(216.3163 2.9079628e-19 -4.8551546)
(215.60339 -1.5079894e-16 -4.7750615)
(214.90469 1.4260577e-16 -4.6853494)
(214.22056 -1.2596473e-16 -4.5859156)
(213.55102 0 -4.4765119)
(212.89575 7.4855886e-18 -4.3567034)
(212.25396 0 -4.2258267)
(211.6244 6.6609566e-18 -4.082964)
(211.00531 2.0739963e-16 -3.9269464)
(210.39449 -3.7910389e-16 -3.7563974)
(209.78951 1.0969484e-17 -3.5698295)
(209.18786 1.6849523e-16 -3.3658004)
(208.58727 -1.4913717e-16 -3.1430895)
(207.98595 1.4052146e-16 -2.9008904)
(207.38278 -8.8429172e-18 -2.6390047)
(206.77755 0 -2.3579497)
(206.17118 0 -2.0590971)
(205.56604 -1.114917e-16 -1.7447609)
(204.96619 1.1222609e-16 -1.4181654)
(204.37781 -9.9427329e-17 -1.0834605)
(203.80968 1.9412754e-16 -0.74573461)
(203.27395 -1.8944844e-16 -0.41095412)
(202.78695 8.3991409e-17 -0.085801717)
(202.36931 5.2999173e-18 0.22297767)
(202.04322 0 0.5101936)
(201.82453 4.7577035e-18 0.77426328)
(201.7098 -4.5139004e-18 1.0184872)
(201.66482 0 1.2519081)
(201.62342 -3.3668807e-17 1.4704519)
(201.50659 6.2255697e-17 1.714608)
(201.56071 -3.1621158e-17 2.2233414)
(200.52295 0 1.2927689)
(200.93599 0 5.0465053)
(216.19473 0 -11.282976)
(254.19738 -3.7320943e-18 3.3798321)
(239.25066 -1.1999654e-16 -10.643075)
(247.65593 1.1060248e-16 1.7625429)
(242.45505 0 -9.0298446)
(244.96927 1.0177752e-16 -0.36879623)
(242.90028 -1.8797241e-16 -7.3139808)
(243.52487 -1.0223688e-19 -2.3421896)
(242.56375 8.4716562e-17 -5.9930821)
(242.44954 0 -3.7899662)
(241.8818 -1.530371e-16 -5.2833762)
(241.5037 1.4970336e-16 -4.6381258)
(241.02278 1.4238657e-16 -5.1165936)
(240.55667 -2.6212182e-16 -5.068245)
(240.06278 1.2050242e-16 -5.2402295)
(239.55396 1.1078402e-17 -5.3315681)
(239.02624 1.1584874e-16 -5.4485662)
(238.48019 -1.0317912e-16 -5.5575958)
(237.91538 0 -5.6672162)
(237.33168 0 -5.7747907)
(236.729 5.6934551e-18 -5.8802187)
(236.10734 -1.7861398e-16 -5.9828345)
(235.4668 3.3868772e-16 -6.0820393)
(234.8076 -3.1647826e-16 -6.1771809)
(234.13009 1.4304597e-16 -6.2675905)
(233.43473 0 -6.3525787)
(232.72214 1.2475735e-16 -6.4314434)
(231.99306 -1.3377712e-16 -6.503481)
(231.24839 0 -6.5679954)
(230.48917 3.5348974e-18 -6.6243056)
(229.71659 -1.3408338e-17 -6.6717577)
(228.93199 0 -6.7097361)
(228.13682 0 -6.737671)
(227.33269 -1.7108079e-16 -6.7550541)
(226.5213 3.3969889e-16 -6.7614448)
(225.70445 -1.6311586e-16 -6.7564792)
(224.88402 -1.595e-16 -6.7398804)
(224.06195 1.4598037e-16 -6.7114596)
(223.24022 -1.1242882e-16 -6.6711218)
(222.42079 -2.8295829e-19 -6.6188651)
(221.60562 -2.6451586e-19 -6.554777)
(220.79661 2.3332462e-16 -6.4790278)
(219.99556 -1.100807e-16 -6.3918606)
(219.20417 0 -6.2935767)
(218.42398 2.0280009e-16 -6.1845206)
(217.65633 1.1954832e-17 -6.0650611)
(216.9024 -5.1348087e-18 -5.9355706)
(216.16309 -1.6485939e-16 -5.7964036)
(215.43909 0 -5.6478723)
(214.7308 -1.468209e-16 -5.4902188)
(214.03836 -8.8673259e-18 -5.3235834)
(213.36157 2.6057031e-16 -5.1479668)
(212.69992 -1.3031858e-16 -4.9631934)
(212.05249 0 -4.7688746)
(211.41796 -2.0418159e-17 -4.5643874)
(210.79455 -2.1156944e-16 -4.3488807)
(210.18019 3.6192513e-16 -4.1213186)
(209.5726 -2.1568886e-16 -3.8805704)
(208.96953 0 -3.6255423)
(208.36897 -1.7114231e-16 -3.3553545)
(207.76946 1.7989753e-16 -3.069486)
(207.17019 2.6750091e-17 -2.767975)
(206.57124 0 -2.4515404)
(205.9738 -1.422682e-16 -2.1216944)
(205.38045 7.3754951e-18 -1.7808432)
(204.79539 1.1207559e-16 -1.432241)
(204.22481 -1.9800193e-17 -1.0799454)
(203.67735 9.3286277e-17 -0.72877655)
(203.16478 -1.0547741e-16 -0.38421074)
(202.7028 5.5255471e-18 -0.052197654)
(202.31111 -5.2116434e-18 0.2615335)
(202.01089 0 0.55300721)
(201.81632 -4.6430914e-18 0.82133803)
(201.72278 4.3867005e-18 1.0700969)
(201.68917 8.2933106e-18 1.3056006)
(201.65314 9.8200086e-19 1.5270244)
(201.56495 0 1.7858925)
(201.44087 3.0120486e-17 2.1808221)
(200.6575 -5.7285247e-17 1.4196411)
(200.8448 2.584586e-17 4.9835094)
(217.52716 0 -14.176142)
(255.75143 -1.227093e-16 1.1343639)
(240.29116 2.5034984e-16 -13.650055)
(249.00164 -2.2349284e-16 -0.49511872)
(243.54688 1.1040848e-16 -11.95985)
(246.19288 -3.2690744e-18 -2.719621)
(243.99714 9.9509553e-17 -10.099026)
(244.64582 -9.424197e-17 -4.8158216)
(243.62802 -5.5946303e-18 -8.6379844)
(243.48992 -5.3122217e-18 -6.346574)
(242.88685 -1.0091664e-17 -7.8441986)
(242.47221 1.3923953e-16 -7.2075594)
(241.95563 -1.4114415e-16 -7.648973)
(241.45067 1.3852635e-16 -7.6081182)
(240.91734 -1.1900516e-16 -7.7555311)
(240.36742 -1.5597493e-17 -7.8371492)
(239.79729 0 -7.9362776)
(239.20752 -1.2782932e-20 -8.028237)
(238.59777 -2.2686648e-16 -8.1184762)
(237.96799 -3.658249e-19 -8.2050188)
(237.31819 1.738903e-16 -8.2874495)
(236.64851 1.7080571e-17 -8.3650022)
(235.95919 -2.1604737e-17 -8.4369461)
(235.25061 0 -8.5025125)
(234.52329 7.744741e-21 -8.5609244)
(233.7779 -1.6584277e-16 -8.6113955)
(233.01525 1.4816199e-16 -8.6531445)
(232.23633 8.2692574e-18 -8.6853982)
(231.44227 0 -8.7074127)
(230.63438 -7.4182716e-18 -8.7184756)
(229.81411 -8.5856386e-22 -8.7179265)
(228.98307 -1.9967107e-16 -8.7051654)
(228.143 2.0109048e-16 -8.6796667)
(227.29577 1.1914868e-17 -8.6409939)
(226.44336 -1.8037155e-16 -8.5888063)
(225.58782 1.488582e-16 -8.5228714)
(224.73125 -1.8137064e-16 -8.4430707)
(223.87581 1.5201684e-16 -8.3494034)
(223.02362 -1.4392581e-16 -8.2419858)
(222.17678 1.3563914e-16 -8.1210505)
(221.33732 1.603682e-17 -7.9869378)
(220.50717 0 -7.8400829)
(219.68811 2.0002015e-16 -7.681003)
(218.88176 -2.4209715e-16 -7.5102766)
(218.08954 0 -7.3285235)
(217.31262 1.796567e-16 -7.1363825)
(216.55195 -1.5765106e-16 -6.9344856)
(215.8082 1.7008257e-16 -6.723435)
(215.08176 -1.7990051e-16 -6.5037762)
(214.37275 0 -6.2759714)
(213.68098 1.7737716e-16 -6.04037)
(213.00598 -1.3330943e-16 -5.7971757)
(212.34695 0 -5.5464161)
(211.70274 0 -5.2879163)
(211.07186 1.2490168e-16 -5.021284)
(210.45248 -2.0861003e-16 -4.7459276)
(209.84255 1.2247176e-16 -4.4611046)
(209.23994 1.8431232e-16 -4.1660146)
(208.64268 1.7430802e-19 -3.8599163)
(208.04909 1.5070632e-19 -3.5422841)
(207.45805 -3.2457195e-16 -3.2129388)
(206.86914 8.9605141e-17 -2.872186)
(206.28284 0 -2.5209771)
(205.70068 1.4242688e-16 -2.1609783)
(205.12552 -1.6344142e-16 -1.7946499)
(204.56173 1.1169572e-16 -1.4252178)
(204.01559 1.3147125e-17 -1.0565932)
(203.49567 -8.622833e-17 -0.69329778)
(203.01352 1.157656e-17 -0.34035496)
(202.58438 2.1759422e-17 -0.0030830385)
(202.22717 -1.0226626e-16 0.31366322)
(201.96174 9.6157125e-17 0.60677113)
(201.79965 -7.2347827e-17 0.8755074)
(201.73342 1.3616481e-16 1.1239231)
(201.71876 -5.6103445e-17 1.3572419)
(201.69367 -6.0425775e-17 1.5795127)
(201.60769 4.9905701e-17 1.8375086)
(201.40164 0 2.1396606)
(200.7094 3.1953978e-18 1.5201062)
(200.83111 -1.2182834e-17 4.8705713)
(218.68265 0 -17.143951)
(257.1445 0 -1.2454384)
(241.14228 0 -16.789208)
(250.16246 1.0675753e-16 -2.8618083)
(244.44532 -1.2399088e-16 -15.01428)
(247.23838 -2.2081002e-16 -5.1891042)
(244.9041 2.1003429e-16 -12.998868)
(245.5768 -1.2439448e-17 -7.4189893)
(244.49727 5.924016e-18 -11.390336)
(244.33029 -1.74202e-16 -9.0367743)
(243.68808 1.7054954e-16 -10.514973)
(243.23135 1.0136269e-17 -9.9032016)
(242.67444 -1.53918e-16 -10.298712)
(242.12534 1.3673175e-16 -10.267231)
(241.5475 -1.4303066e-20 -10.388962)
(240.95128 -8.1996276e-18 -10.458949)
(240.33367 0 -10.538753)
(239.69519 -7.4030408e-18 -10.611312)
(239.03564 -2.1072499e-16 -10.679626)
(238.35509 2.1277657e-16 -10.742157)
(237.65369 1.263044e-17 -10.79825)
(236.93173 -1.1974691e-17 -10.847039)
(236.18963 2.1577709e-16 -10.88768)
(235.42796 -1.7187724e-16 -10.919303)
(234.64745 1.0192862e-17 -10.941032)
(233.84901 1.9326475e-16 -10.952)
(233.03372 -1.2784388e-16 -10.951353)
(232.20283 0 -10.93827)
(231.35778 1.4771384e-16 -10.911975)
(230.50018 -1.2398617e-16 -10.871753)
(229.63182 2.4986888e-16 -10.816966)
(228.75462 -1.3349288e-17 -10.74707)
(227.87065 -2.0987314e-16 -10.661631)
(226.98208 1.7406297e-16 -10.560334)
(226.09119 -1.875057e-16 -10.442998)
(225.20029 -2.9720738e-20 -10.309582)
(224.31172 2.0959372e-16 -10.160195)
(223.42781 -3.1629813e-16 -9.9950862)
(222.55084 9.3088791e-17 -9.8146523)
(221.68298 3.5241602e-17 -9.6194217)
(220.82631 -4.9830246e-17 -9.4100467)
(219.9827 0 -9.187281)
(219.15387 -8.865531e-17 -8.9519623)
(218.34127 1.3884745e-16 -8.704984)
(217.54613 -2.0963161e-16 -8.4472702)
(216.76938 1.9696585e-16 -8.1797488)
(216.01167 -2.0889716e-16 -7.9033193)
(215.27335 3.9278758e-16 -7.6188277)
(214.55448 -3.0780738e-16 -7.3270386)
(213.85481 3.0865437e-16 -7.0286082)
(213.17381 -1.4487297e-16 -6.7240582)
(212.51063 1.3636446e-16 -6.4137512)
(211.86417 -9.5868927e-17 -6.0978661)
(211.233 3.0061816e-17 -5.7763861)
(210.61542 0 -5.4490943)
(210.00951 0 -5.1156048)
(209.41324 0 -4.7754199)
(208.82459 2.3276833e-17 -4.4280242)
(208.24181 0 -4.0729926)
(207.66352 -1.6386e-16 -3.7101182)
(207.08896 1.9188562e-16 -3.3395413)
(206.51806 -1.0799864e-16 -2.9618252)
(205.95165 -8.3050744e-20 -2.5781167)
(205.39157 2.5279827e-16 -2.1902022)
(204.8409 2.9657815e-17 -1.8005369)
(204.30415 -1.3870775e-16 -1.4122354)
(203.78755 5.1993405e-17 -1.028981)
(203.29957 -1.4612955e-16 -0.6549448)
(202.85151 -4.5642149e-17 -0.29469865)
(202.45815 -6.4142948e-17 0.047016894)
(202.13779 -6.009461e-17 0.36602091)
(201.90906 5.6322228e-17 0.6595354)
(201.78287 0 0.92695806)
(201.74499 0 1.1721238)
(201.7522 -1.54734e-17 1.4001378)
(201.73949 0 1.6186932)
(201.65112 6.8233752e-18 1.8655362)
(201.40892 5.138291e-17 2.0997815)
(200.76529 -7.2530197e-17 1.59424)
(200.86391 -7.7209468e-20 4.7166462)
(219.64937 0 -20.311748)
(258.36036 -8.8218504e-18 -3.699186)
(241.84457 2.6693483e-16 -20.058107)
(251.07274 -2.4923503e-16 -5.3575644)
(245.11047 2.5437446e-16 -18.185993)
(248.07521 -2.3271076e-16 -7.81234)
(245.60523 -2.2185725e-16 -16.004853)
(246.28878 2.1001483e-16 -10.181575)
(245.15058 0 -14.245754)
(244.94357 0 -11.878287)
(244.25971 1.8000122e-16 -13.300675)
(243.75395 -1.7052845e-16 -12.732831)
(243.15167 -1.0131126e-17 -13.073135)
(242.55297 2.881542e-17 -13.05015)
(241.92538 -9.1194385e-18 -13.144705)
(241.27775 3.4587099e-17 -13.199362)
(240.60767 0 -13.257105)
(239.91559 0 -13.306605)
(239.20147 -2.3620902e-16 -13.349231)
(238.46549 2.0948453e-16 -13.383651)
(237.70798 0 -13.409025)
(236.92939 0 -13.424376)
(236.13037 -1.9060036e-16 -13.428727)
(235.31175 3.6070115e-16 -13.421095)
(234.47453 -1.7059733e-16 -13.400501)
(233.61993 -2.0210658e-17 -13.365986)
(232.74936 -3.8277529e-17 -13.316636)
(231.86444 -1.4503499e-16 -13.251593)
(230.96698 1.19746e-16 -13.170078)
(230.05899 0 -13.071408)
(229.14263 -3.0667295e-17 -12.955019)
(228.22021 0 -12.820483)
(227.29416 0 -12.66752)
(226.36701 2.0700455e-16 -12.496015)
(225.44132 -2.1940193e-16 -12.306026)
(224.51968 2.3014338e-17 -12.097788)
(223.60465 -2.171438e-17 -11.871716)
(222.6987 -4.1050428e-17 -11.628397)
(221.80419 -8.5925401e-20 -11.368582)
(220.92332 8.1717399e-20 -11.093166)
(220.05811 -7.7207795e-20 -10.803177)
(219.21032 0 -10.499737)
(218.38147 -1.2182898e-16 -10.184043)
(217.57277 1.1440042e-16 -9.8573339)
(216.78515 0 -9.5208511)
(216.0192 -5.0701622e-17 -9.1758148)
(215.27518 1.905496e-16 -8.8233823)
(214.55306 -2.2337865e-16 -8.4646231)
(213.85246 -2.1014829e-16 -8.1004896)
(213.17273 1.5756042e-16 -7.7317929)
(212.51291 1.1111957e-16 -7.359181)
(211.87179 -1.3871334e-16 -6.9831221)
(211.24789 -3.2521183e-17 -6.6038892)
(210.63948 -2.1365362e-16 -6.2215616)
(210.04466 1.1428379e-16 -5.8360348)
(209.46138 -1.0718632e-16 -5.447064)
(208.88759 1.0027708e-16 -5.0543323)
(208.3214 2.3495694e-16 -4.6575452)
(207.76125 -1.7577459e-16 -4.2565339)
(207.20605 0 -3.8513622)
(206.65538 -3.8475659e-17 -3.4424436)
(206.10955 -7.2016957e-17 -3.0305866)
(205.56973 1.3463954e-16 -2.6171152)
(205.03808 1.2595266e-16 -2.2039244)
(204.51791 -2.3544221e-16 -1.7934478)
(204.01383 8.2491938e-17 -1.3886502)
(203.53209 5.141094e-17 -0.99293894)
(203.081 9.6098177e-17 -0.61009969)
(202.67161 1.3467326e-16 -0.24424173)
(202.31829 -1.4922868e-21 0.10043734)
(202.03867 0 0.42020606)
(201.85032 0 0.7122572)
(201.76116 -3.4183325e-17 0.97580212)
(201.75607 9.5800114e-17 1.2140873)
(201.78823 -8.9539769e-17 1.4322971)
(201.78943 -8.3710622e-17 1.6414492)
(201.70579 5.2226172e-17 1.8706316)
(201.44116 0 2.0328747)
(200.82343 4.5829653e-17 1.6407586)
(200.93983 1.52804e-19 4.5244524)
(220.40866 0 -23.649485)
(259.37237 1.963188e-20 -6.238712)
(242.34734 9.0804597e-18 -23.432278)
(251.81081 2.8856032e-16 -7.9911632)
(245.57526 3.3414231e-19 -21.465589)
(248.67337 -5.0618754e-16 -10.591537)
(246.06114 -3.2339179e-19 -19.108276)
(246.75125 4.5658388e-16 -13.109481)
(245.55847 -2.1007759e-16 -17.202771)
(245.30161 -1.246122e-17 -14.871849)
(244.57415 1.1836068e-17 -16.20166)
(244.01384 -1.7972306e-16 -15.691141)
(243.36212 1.9147555e-16 -15.968788)
(242.70933 -1.8193721e-16 -15.949888)
(242.02743 3.0647915e-16 -16.01521)
(241.32371 -3.0879115e-16 -16.04985)
(240.59631 1.3762531e-16 -16.082003)
(239.84568 0 -16.104283)
(239.07195 0 -16.116938)
(238.2755 1.4660208e-17 -16.11864)
(237.45689 -2.7796588e-17 -16.108335)
(236.61687 0 -16.084879)
(235.75639 1.9960371e-16 -16.047137)
(234.87663 4.7222276e-19 -15.993995)
(233.97901 -3.5721567e-16 -15.924366)
(233.06514 1.6878281e-16 -15.837219)
(232.13689 1.9970016e-17 -15.731608)
(231.19634 0 -15.606682)
(230.24576 -1.788838e-16 -15.461718)
(229.28762 1.3488535e-16 -15.296139)
(228.32454 -2.2366969e-16 -15.109535)
(227.35926 2.10522e-16 -14.901684)
(226.39462 -2.2783335e-16 -14.672559)
(225.43347 2.1444774e-16 -14.42235)
(224.4787 7.6017835e-17 -14.151457)
(223.53311 0 -13.860494)
(222.59939 0 -13.550284)
(221.68011 4.2362192e-17 -13.221841)
(220.77761 3.9897859e-17 -12.876352)
(219.89401 -3.7561335e-17 -12.515148)
(219.03113 3.5346818e-17 -12.139682)
(218.19051 6.6686842e-17 -11.751482)
(217.37333 -6.2628344e-17 -11.352129)
(216.58044 3.5310524e-16 -10.943207)
(215.81233 -2.7620629e-16 -10.526268)
(215.06915 5.1838384e-17 -10.102797)
(214.35069 -4.8778093e-17 -9.6741756)
(213.65641 0 -9.2416496)
(212.98547 2.1437777e-16 -8.8063069)
(212.33675 -1.6057949e-16 -8.3690564)
(211.70883 0 -7.9306116)
(211.10011 0 -7.4914841)
(210.50872 1.3213581e-16 -7.0519787)
(209.93268 -6.1771191e-17 -6.6122075)
(209.36985 0 -6.1721163)
(208.81809 -1.6231269e-16 -5.7315387)
(208.27534 1.0105627e-16 -5.2902733)
(207.73983 1.4184488e-16 -4.8481788)
(207.21018 -1.7649899e-16 -4.4052733)
(206.68561 1.6497424e-16 -3.9618294)
(206.16601 -1.5394239e-16 -3.5184764)
(205.65204 6.466655e-20 -3.0762338)
(205.14523 0 -2.6365822)
(204.64804 6.2577103e-17 -2.2015062)
(204.164 -2.9187787e-16 -1.7734105)
(203.69781 1.6327608e-16 -1.3550854)
(203.25569 0 -0.94963118)
(202.84584 -1.4189581e-16 -0.56042114)
(202.47898 8.8161764e-17 -0.19107652)
(202.16904 1.2320274e-16 0.15473268)
(201.93295 -2.2169199e-20 0.47355738)
(201.78696 -7.1269046e-17 0.76222926)
(201.73712 9.9525813e-17 1.0192399)
(201.76612 -1.5448762e-16 1.2474873)
(201.82405 8.6339133e-17 1.4517965)
(201.84128 2.6824702e-17 1.6464852)
(201.77056 4.9986658e-17 1.8513285)
(201.49 0 1.942232)
(200.89549 -4.351525e-17 1.6596457)
(201.04331 2.0404695e-17 4.2925503)
(220.93742 0 -27.156721)
(260.16775 9.8106849e-18 -8.8854615)
(242.6418 -3.0601873e-16 -26.932442)
(252.35622 2.4978764e-16 -10.766156)
(245.85429 2.5659778e-16 -24.8437)
(249.01908 -5.0043977e-16 -13.527082)
(246.27108 2.3021052e-16 -22.294216)
(246.94096 2.330757e-16 -16.204272)
(245.70515 -2.2088671e-16 -20.249391)
(245.39018 3.9318551e-17 -18.00707)
(244.61828 0 -19.208121)
(243.99816 0 -18.763271)
(243.29222 -2.2363502e-17 -18.974724)
(242.57975 -1.6978627e-16 -18.95473)
(241.83747 1.4051141e-16 -18.990013)
(241.07123 1.906096e-17 -19.000795)
(240.27983 -3.6132008e-17 -19.004214)
(239.46386 3.0827704e-16 -18.995274)
(238.62375 -2.2653905e-16 -18.973426)
(237.76022 2.4588401e-16 -18.937215)
(236.87419 -2.0318712e-16 -18.885366)
(235.96681 2.7548464e-17 -18.81657)
(235.03949 1.5650897e-16 -18.729549)
(234.09391 -1.9684448e-16 -18.623088)
(233.13198 0 -18.49604)
(232.15587 0 -18.347364)
(231.16798 0 -18.17615)
(230.17097 -1.971346e-16 -17.981647)
(229.16766 1.8569582e-16 -17.763285)
(228.16105 -3.5185486e-17 -17.5207)
(227.15425 0 -17.253761)
(226.15047 -2.8203934e-16 -16.962576)
(225.15293 2.357159e-16 -16.647508)
(224.16481 -5.5751642e-17 -16.309175)
(223.18921 1.576581e-16 -15.948454)
(222.22907 -4.8991078e-17 -15.566454)
(221.28715 -1.8581757e-16 -15.164513)
(220.36592 2.1919763e-16 -14.744162)
(219.46759 -1.6455359e-16 -14.307097)
(218.59401 7.7618243e-17 -13.855139)
(217.74667 -7.2825229e-17 -13.390197)
(216.92669 1.3690028e-16 -12.914218)
(216.13478 -6.4142889e-17 -12.429155)
(215.37126 -2.4140983e-16 -11.936911)
(214.63606 5.0903474e-16 -11.439303)
(213.92877 -2.1200544e-16 -10.938025)
(213.24859 -1.4939377e-16 -10.43461)
(212.59444 9.28836e-17 -9.9304093)
(211.96493 8.7376123e-17 -9.4265673)
(211.35843 -1.6345185e-16 -8.9240122)
(210.77309 1.5272827e-16 -8.4234478)
(210.20687 0 -7.9253561)
(209.6576 1.3368647e-16 -7.4300059)
(209.123 -1.8727811e-16 -6.9374786)
(208.60081 5.8366676e-17 -6.4477096)
(208.08879 5.4399356e-17 -5.960551)
(207.58494 0 -5.4758554)
(207.08759 0 -4.9935701)
(206.5956 0 -4.5138331)
(206.10845 0 -4.0370614)
(205.62639 0 -3.5640426)
(205.15042 -7.1540529e-17 -3.095964)
(204.68242 0 -2.6344405)
(204.22515 -4.9977803e-20 -2.1815245)
(203.78232 2.3106409e-16 -1.7395844)
(203.35872 -2.1497492e-16 -1.3112191)
(202.96055 -1.0000521e-16 -0.89919951)
(202.59584 -1.8593383e-16 -0.50646647)
(202.27497 2.5927948e-16 -0.13612834)
(202.01135 3.6780239e-20 0.20864633)
(201.8211 7.4619489e-17 0.52450633)
(201.71904 0 0.80759972)
(201.7093 0 1.0555933)
(201.77296 0 1.2708609)
(201.85698 -1.1093602e-16 1.4575688)
(201.89098 0 1.6328527)
(201.83782 -9.5732162e-17 1.8100148)
(201.54585 1.3345956e-16 1.8278137)
(200.98302 8.2726851e-17 1.652401)
(201.16147 -1.936315e-17 4.0224721)
(221.23683 0 -30.842252)
(260.75301 0 -11.639091)
(242.73161 3.2185487e-16 -30.56456)
(252.7111 1.9306967e-17 -13.699348)
(245.93738 -2.6927622e-16 -28.329662)
(249.14702 0 -16.641384)
(246.30463 1.6134114e-17 -25.561318)
(246.9893 -3.0585894e-17 -19.457314)
(245.6066 0 -23.363337)
(245.21184 1.9279322e-16 -21.263474)
(244.38922 -4.173977e-16 -22.312709)
(243.69934 1.976455e-16 -21.940289)
(242.92979 2.3459198e-17 -22.088363)
(242.14808 0 -22.062336)
(241.33573 2.1050414e-17 -22.067009)
(240.49746 -3.3955798e-16 -22.049675)
(239.63272 7.485537e-17 -22.019957)
(238.74239 2.502366e-16 -21.974231)
(237.82731 2.3764685e-16 -21.911452)
(236.88863 -2.5632969e-16 -21.830034)
(235.92779 0 -21.728529)
(234.94646 -2.8760929e-16 -21.605508)
(233.94667 2.4419273e-16 -21.459607)
(232.93067 -2.0582216e-16 -21.289574)
(231.90104 1.939858e-16 -21.094288)
(230.86061 -1.8383673e-16 -20.872785)
(229.81245 3.4679027e-16 -20.624316)
(228.75986 -1.6364636e-16 -20.348344)
(227.70628 1.5476525e-16 -20.044602)
(226.65528 -2.9177147e-16 -19.713092)
(225.61049 1.3732016e-16 -19.354116)
(224.57553 1.2968512e-16 -18.968282)
(223.55395 -2.4467399e-16 -18.556498)
(222.54916 5.6800325e-17 -18.119967)
(221.56434 -5.7400698e-19 -17.660177)
(220.60245 2.5452357e-16 -17.178855)
(219.66606 0 -16.677954)
(218.75744 1.9557405e-19 -16.159598)
(217.87839 0 -15.626037)
(217.03031 -7.9433724e-17 -15.079602)
(216.21417 -1.4927549e-16 -14.522657)
(215.43044 7.0089123e-17 -13.957536)
(214.67921 0 -13.386511)
(213.9601 -6.175962e-17 -12.811733)
(213.27236 2.8905251e-16 -12.235198)
(212.61488 -3.2451714e-16 -11.658709)
(211.98623 -3.0406202e-16 -11.083851)
(211.38471 2.8389987e-16 -10.511972)
(210.80837 -1.7717496e-16 -9.9441738)
(210.25507 0 -9.3813059)
(209.72253 0 -8.8239744)
(209.20835 7.2321949e-17 -8.2725518)
(208.71007 6.7498152e-17 -7.7272017)
(208.22523 1.2580099e-16 -7.187914)
(207.75144 -5.8675405e-17 -6.6545584)
(207.2865 -1.0930466e-16 -6.1269539)
(206.82846 -2.0383593e-16 -5.6049548)
(206.37585 -9.508739e-17 -5.0885439)
(205.92774 1.7663106e-16 -4.5779235)
(205.48395 0 -4.0736022)
(205.04505 -7.6523728e-17 -3.576479)
(204.61242 -1.422444e-16 -3.0878636)
(204.18829 1.3223619e-16 -2.6094759)
(203.77568 6.1371791e-17 -2.1434103)
(203.37845 5.7059161e-17 -1.6919713)
(203.00148 0 -1.2575368)
(202.65089 1.9661774e-16 -0.84252082)
(202.3345 1.8240926e-16 -0.44941111)
(202.06227 -2.536985e-16 -0.080796717)
(201.84704 7.8466682e-17 0.26057839)
(201.70393 -7.2620452e-17 0.57124514)
(201.64625 7.6550095e-20 0.84652723)
(201.67672 2.4937889e-16 1.0832004)
(201.77514 -2.309126e-16 1.2823008)
(201.88474 5.3500735e-17 1.4479987)
(201.93537 1.4848585e-16 1.5960556)
(201.90131 -4.5830975e-17 1.7270598)
(201.60179 -4.2492887e-17 1.6936282)
(201.08387 0 1.6162578)
(201.27916 3.6847398e-17 3.719133)
(221.32054 3.9165619e-16 -34.715601)
(261.13778 5.4222357e-19 -14.509196)
(242.60277 -3.5863051e-16 -34.351994)
(252.87316 0 -16.804685)
(245.75622 0 -31.899244)
(249.005 -2.6749546e-16 -19.93173)
(246.01618 2.7063795e-16 -28.879734)
(246.54289 6.4189789e-17 -22.86837)
(245.21446 -2.4362989e-16 -26.573076)
(244.74653 2.3044126e-16 -24.662687)
(243.86241 -2.4629441e-16 -25.540814)
(243.08989 2.0701181e-16 -25.236045)
(242.24456 -4.9111207e-17 -25.321598)
(241.38188 -4.6571569e-17 -25.27991)
(240.48793 -1.7647769e-16 -25.249291)
(239.56651 1.6668514e-16 -25.196262)
(238.6178 -3.5596584e-16 -25.125589)
(237.64305 5.9835114e-16 -25.034326)
(236.64365 -2.8270952e-16 -24.921037)
(235.62136 -2.6824545e-16 -24.783994)
(234.57824 2.5295269e-16 -24.621607)
(233.5167 -3.0124209e-17 -24.43237)
(232.43948 -2.267503e-16 -24.214904)
(231.34963 2.1359423e-16 -23.968018)
(230.25051 2.5302468e-16 -23.69073)
(229.14574 -1.4266635e-16 -23.382304)
(228.03915 0 -23.042302)
(226.93476 2.5513392e-16 -22.670592)
(225.83665 -3.204455e-16 -22.267397)
(224.74896 1.1274487e-16 -21.833287)
(223.67577 -2.8505175e-16 -21.369201)
(222.621 2.0082425e-16 -20.876434)
(221.5884 -6.3278691e-17 -20.356622)
(220.58141 2.3778404e-16 -19.811713)
(219.60313 -2.230363e-16 -19.243936)
(218.65621 -2.1020162e-16 -18.655744)
(217.74287 1.9700847e-16 -18.049769)
(216.86483 -4.620389e-17 -17.428765)
(216.02328 0 -16.795542)
(215.21891 8.1761906e-17 -16.152909)
(214.45188 -7.6305143e-17 -15.503621)
(213.72187 0 -14.850316)
(213.02812 1.3435886e-16 -14.195474)
(212.36944 -6.2853163e-17 -13.54137)
(211.74427 -1.7621784e-16 -12.890044)
(211.15077 5.4968691e-16 -12.243273)
(210.58681 -2.0582174e-16 -11.602557)
(210.05006 9.5987549e-17 -10.969114)
(209.53804 -2.6917598e-16 -10.343879)
(209.04815 -1.7592072e-19 -9.7275197)
(208.57773 1.5608798e-16 -9.1204499)
(208.1241 -1.4561825e-16 -8.522855)
(207.68459 -6.7771372e-17 -7.9347275)
(207.25665 -6.3134585e-17 -7.3559135)
(206.83788 -1.1789233e-16 -6.786172)
(206.42614 2.1899392e-16 -6.2252501)
(206.01967 0 -5.6729664)
(205.61719 9.4659128e-17 -5.1293029)
(205.21808 -3.5225608e-16 -4.5944907)
(204.82247 2.4525891e-16 -4.0690953)
(204.43132 7.5903764e-17 -3.554094)
(204.0464 1.4100517e-16 -3.0508824)
(203.67024 1.3097193e-16 -2.5612469)
(203.30614 -1.2135827e-16 -2.0872776)
(202.95807 -1.1245622e-16 -1.6311557)
(202.63092 -3.1256907e-16 -1.1949804)
(202.3307 1.6508181e-20 -0.7807708)
(202.06492 -8.931565e-17 -0.3905488)
(201.84311 0 -0.026426079)
(201.67733 -2.2934892e-16 0.30910131)
(201.58153 7.074833e-17 0.61217443)
(201.56766 0 0.87728353)
(201.63768 1.2074485e-16 1.1002127)
(201.76963 0 1.2798924)
(201.90484 1.0297158e-16 1.4221253)
(201.97258 -1.4269985e-16 1.5396677)
(201.95803 1.3177301e-16 1.6236803)
(201.65639 -8.1216702e-17 1.5453709)
(201.18594 7.5081162e-17 1.5525437)
(201.38302 0 3.3900763)
(221.17927 -4.1131096e-16 -38.780198)
(261.3074 3.6298705e-16 -17.51347)
(242.20911 -3.3261809e-16 -38.319368)
(252.78676 3.3070932e-16 -20.091528)
(245.27816 3.167049e-16 -35.523513)
(248.49324 -1.7997232e-17 -23.400709)
(245.45881 -2.8355261e-16 -32.281799)
(245.93576 -2.6917032e-16 -26.472627)
(244.52921 2.8650066e-16 -29.90396)
(243.95052 0 -28.209793)
(242.99437 2.8587723e-17 -28.90213)
(242.1266 0 -28.651335)
(241.19272 -1.2858257e-16 -28.674522)
(240.23674 2.4277879e-16 -28.605238)
(239.24892 0 -28.531598)
(238.23261 0 -28.43266)
(237.18877 0 -28.310165)
(236.11928 3.9100236e-17 -28.161417)
(235.02628 0 -27.984681)
(233.91231 -2.4453948e-16 -27.778121)
(232.78031 3.29471e-16 -27.540073)
(231.6336 1.2466567e-16 -27.269063)
(230.47587 1.7676732e-16 -26.963825)
(229.31113 -2.7764714e-16 -26.623388)
(228.14367 -5.2319221e-17 -26.247099)
(226.978 -2.4759939e-16 -25.834665)
(225.81878 1.8634404e-16 -25.386191)
(224.67075 -2.2008912e-16 -24.902208)
(223.53861 8.2338872e-17 -24.38367)
(222.42693 7.7846571e-17 -23.831969)
(221.34008 0 -23.24891)
(220.28213 2.7693538e-16 -22.636683)
(219.25672 -2.6009254e-16 -21.997832)
(218.26705 0 -21.335188)
(217.31577 -2.2991922e-16 -20.651825)
(216.40498 2.1534446e-16 -19.950975)
(215.53614 -1.0148435e-16 -19.235966)
(214.71011 1.8998816e-16 -18.510149)
(213.92716 -2.6694463e-16 -17.776821)
(213.18697 1.2704818e-19 -17.039163)
(212.48871 -1.5595957e-16 -16.300183)
(211.83105 -7.2984027e-17 -15.562663)
(211.21223 -1.369832e-16 -14.82912)
(210.63018 2.5536525e-16 -14.101777)
(210.08248 -1.1916203e-16 -13.38254)
(209.56653 0 -12.67299)
(209.07954 -3.8749768e-19 -11.974386)
(208.61862 9.6944893e-17 -11.287672)
(208.18083 0 -10.613498)
(207.76319 8.4326179e-17 -9.9522428)
(207.36277 7.8852102e-17 -9.3040427)
(206.9767 -7.3231578e-17 -8.6688298)
(206.60227 2.7264699e-16 -8.0463747)
(206.2369 -2.5349944e-16 -7.4363414)
(205.8783 -1.1791133e-16 -6.8383503)
(205.5245 -1.0955314e-16 -6.2520541)
(205.17396 1.0173881e-16 -5.6772185)
(204.8257 1.8873568e-16 -5.1138094)
(204.47943 -3.5018138e-16 -4.5620743)
(204.13564 4.0590085e-16 -4.0226217)
(203.79568 -1.5042235e-16 -3.4964894)
(203.46169 1.3946766e-16 -2.9851259)
(203.13656 -1.291021e-16 -2.4903307)
(202.82378 2.3908404e-16 -2.0141117)
(202.5274 -3.3189576e-16 -1.5584236)
(202.25224 2.0465842e-16 -1.1250014)
(202.00413 -6.1663007e-20 -0.71543578)
(201.79023 8.7410278e-17 -0.3313046)
(201.61953 0 0.025627747)
(201.50316 0 0.35280333)
(201.45364 0 0.64568311)
(201.48203 -1.2672726e-16 0.89796183)
(201.58982 4.7255686e-20 1.1043799)
(201.75275 0 1.2621118)
(201.91439 0 1.3782441)
(202.00008 9.1418538e-17 1.4611976)
(202.00408 -1.6848742e-16 1.5005659)
(201.70785 0 1.3882915)
(201.28156 0 1.4658807)
(201.46308 -1.3229916e-16 3.0418017)
(220.7804 2.7758087e-17 -43.047412)
(261.22711 -7.8573512e-16 -20.675918)
(241.52605 3.4788862e-16 -42.420409)
(252.16562 -2.1730701e-17 -23.544573)
(244.47505 3.7318102e-16 -39.2659)
(247.74045 -3.5190505e-16 -27.098979)
(244.60164 0 -35.804229)
(244.94246 -3.1699712e-16 -30.267998)
(243.48445 2.3303416e-16 -33.350225)
(242.78072 2.2133984e-16 -31.894814)
(241.73886 -2.3891652e-16 -32.398082)
(240.76169 0 -32.181309)
(239.72466 1.912758e-19 -32.140806)
(238.66163 0 -32.030104)
(237.56658 3.8484835e-16 -31.902188)
(236.44286 -7.2700425e-16 -31.743776)
(235.2924 3.4321789e-16 -31.5548)
(234.11798 -4.0543044e-17 -31.332655)
(232.92274 -3.8526303e-17 -31.075425)
(231.7103 3.6617593e-17 -30.781258)
(230.48474 -6.837296e-17 -30.448578)
(229.25054 -3.239e-16 -30.076099)
(228.01254 3.0483623e-16 -29.662905)
(226.77587 5.7463836e-17 -29.208506)
(225.54587 -2.7232974e-16 -28.712856)
(224.328 -7.0011661e-19 -28.176425)
(223.12771 2.8921846e-16 -27.600186)
(221.95036 -1.8152153e-16 -26.985634)
(220.80109 -6.1768625e-19 -26.334772)
(219.68468 0 -25.650077)
(218.60548 0 -24.93446)
(217.56731 -7.1423256e-17 -24.191205)
(216.57335 1.3370462e-16 -23.423901)
(215.62612 0 -22.636353)
(214.72739 -1.1817287e-16 -21.832501)
(213.87822 2.2110254e-16 -21.016332)
(213.07895 -1.035846e-16 -20.191779)
(212.32922 -1.9410993e-16 -19.362654)
(211.62806 9.0199106e-17 -18.532567)
(210.9739 1.6927559e-16 -17.704863)
(210.36472 0 -16.88258)
(209.79807 2.2316312e-16 -16.068412)