/*--------------------------------*- C++ -*----------------------------------*\
  =========                 |
  \\      /  F ield         | OpenFOAM: The Open Source CFD Toolbox
   \\    /   O peration     | Website:  https://openfoam.org
    \\  /    A nd           | Version:  12
     \\/     M anipulation  |
\*---------------------------------------------------------------------------*/
FoamFile
{
    format      ascii;
    class       volScalarField;
    location    "100";
    object      alphat;
}
// * * * * * * * * * * * * * * * * * * * * * * * * * * * * * * * * * * * * * //

dimensions      [1 -1 -1 0 0 0 0];

internalField   nonuniform List<scalar> 
16200
(
0.0005203177569
0.001743877189
0.002913492334
0.003854428349
0.004233659244
0.00381275655
0.002842875479
0.001650896195
0.0007978858922
0.0003801406681
1.124478289e-05
3.571569945e-06
2.998459518e-06
2.530167068e-06
1.952585969e-06
1.632548191e-06
1.410069209e-06
1.289605402e-06
1.237940758e-06
1.22275436e-06
1.230510113e-06
1.256635572e-06
1.29808146e-06
1.354450493e-06
1.428821998e-06
1.526772869e-06
1.656461559e-06
1.830080316e-06
2.065846795e-06
2.392024857e-06
2.854527851e-06
3.531939688e-06
4.571592197e-06
6.26142396e-06
9.198472648e-06
1.464905749e-05
2.54075874e-05
4.769648857e-05
9.56210313e-05
0.0002014250024
0.0004395681529
0.0009839369309
0.001168066294
0.001167501979
0.001166306031
0.00116530407
0.001164919091
0.001164792683
0.001164768734
0.001164781402
0.001164805087
0.001164831567
0.001164859679
0.001164891905
0.001164931201
0.001164985447
0.001165058207
0.001165174237
0.001165325591
0.001165608037
0.0005100814694
0.001701535382
0.00281519313
0.003661801134
0.003872617411
0.003325534731
0.002372959389
0.001195177046
0.0006486715205
0.000145509385
4.445159122e-06
2.959079665e-06
2.50818242e-06
2.238284382e-06
1.720481752e-06
1.439299154e-06
1.246424451e-06
1.143631636e-06
1.103137191e-06
1.094331063e-06
1.105184376e-06
1.131651119e-06
1.171754438e-06
1.225559911e-06
1.296274378e-06
1.389462677e-06
1.513064278e-06
1.678827762e-06
1.904226616e-06
2.215951065e-06
2.656514413e-06
3.297948194e-06
4.273427881e-06
5.844205951e-06
8.551724476e-06
1.354417661e-05
2.335657924e-05
4.360817605e-05
8.707683724e-05
0.0001827572379
0.0003979629351
0.0008886740445
0.001168007174
0.001167489874
0.001166371412
0.001165341276
0.001164942711
0.001164810096
0.001164783574
0.001164795406
0.001164819018
0.00116484556
0.001164873602
0.001164905487
0.001164944444
0.001164998101
0.001165069831
0.001165184727
0.001165335381
0.001165621347
0.0005012570452
0.00166216424
0.00272093909
0.003471984388
0.003515151789
0.002856843023
0.001943442873
0.0008994219822
0.0004974091048
2.903135437e-05
2.803243493e-06
2.455494061e-06
2.096080917e-06
1.95395184e-06
1.504590473e-06
1.259682589e-06
1.094853948e-06
1.008969202e-06
9.784592533e-07
9.747989549e-07
9.87662084e-07
1.013658531e-06
1.051734161e-06
1.102360584e-06
1.16879605e-06
1.256574387e-06
1.373535304e-06
1.531234235e-06
1.746667561e-06
2.045344561e-06
2.4672105e-06
3.078997976e-06
4.002173473e-06
5.475487314e-06
7.992646689e-06
1.260488757e-05
2.162056516e-05
4.015951019e-05
7.979523562e-05
0.0001667612815
0.0003616575471
0.0008046378596
0.001167967031
0.001167480489
0.001166429046
0.001165377314
0.001164966848
0.001164828437
0.001164798992
0.001164809598
0.001164832703
0.001164859087
0.001164886986
0.001164918734
0.001164957332
0.00116501041
0.001165081387
0.001165195385
0.001165345534
0.001165634809
0.0004946285093
0.001625891531
0.002628036044
0.003273437958
0.003153387306
0.002417547947
0.00144010169
0.0006695590477
0.000310840641
1.294155827e-05
2.261139755e-06
2.049506244e-06
1.767739301e-06
1.646724619e-06
1.317980476e-06
1.10394429e-06
9.630964916e-07
8.919214361e-07
8.697832437e-07
8.704264344e-07
8.849323875e-07
9.104919108e-07
9.467993135e-07
9.947616672e-07
1.057733772e-06
1.14126772e-06
1.253215291e-06
1.405039844e-06
1.613415317e-06
1.903117778e-06
2.312370062e-06
2.904060524e-06
3.791189553e-06
5.195657809e-06
7.576451961e-06
1.191490156e-05
2.035810968e-05
3.767407254e-05
7.458658443e-05
0.0001554079653
0.0003360245652
0.0007456468643
0.001167950023
0.001167477871
0.001166476299
0.001165411734
0.001164992383
0.001164848574
0.001164816103
0.001164825021
0.001164847207
0.001164873039
0.001164900599
0.001164931987
0.001164970263
0.001165022761
0.001165093029
0.001165206241
0.001165355926
0.001165648146
0.0004889472138
0.001592307043
0.002534790563
0.003039138912
0.002780963151
0.002021537239
0.001032702363
0.0005229716436
0.0001450156963
3.65958811e-06
1.869608316e-06
1.709290747e-06
1.492493608e-06
1.390711582e-06
1.150893459e-06
9.65212135e-07
8.462336324e-07
7.884853529e-07
7.735341357e-07
7.777031801e-07
7.933542004e-07
8.182546806e-07
8.527496497e-07
8.982366348e-07
9.582551537e-07
1.038409691e-06
1.146562562e-06
1.294095198e-06
1.497470582e-06
1.780921591e-06
2.181387931e-06
2.758822436e-06
3.619568565e-06
4.97178613e-06
7.24687607e-06
1.136965333e-05
1.936117548e-05
3.570521048e-05
7.045474908e-05
0.0001463603676
0.0003155415388
0.0006982856937
0.001167952455
0.00116748124
0.001166515363
0.001165444752
0.001165018717
0.001164869911
0.001164834158
0.001164841015
0.001164861948
0.001164886992
0.001164914063
0.001164945044
0.001164982976
0.001165034972
0.001165104662
0.001165217238
0.001165366541
0.001165661502
0.0004834641444
0.001560336263
0.002441416112
0.002801246455
0.002413800186
0.001659947383
0.0007689745211
0.0004012953266
3.552643201e-05
2.018140633e-06
1.562077836e-06
1.432077071e-06
1.265835315e-06
1.180476572e-06
1.004935579e-06
8.443909695e-07
7.445902235e-07
6.983763116e-07
6.888916661e-07
6.953375938e-07
7.1138717e-07
7.354587868e-07
7.683844779e-07
8.119530023e-07
8.698768902e-07
9.478238874e-07
1.053666749e-06
1.198738594e-06
1.399392374e-06
1.679558748e-06
2.075380498e-06
2.644766818e-06
3.489203503e-06
4.806367355e-06
7.007038564e-06
1.097414428e-05
1.863661339e-05
3.42687174e-05
6.742745982e-05
0.0001396990354
0.0003003775791
0.0006630163707
0.00116797178
0.001167490399
0.001166545673
0.001165475843
0.001165045501
0.001164892242
0.001164853082
0.001164857582
0.001164876967
0.001164901005
0.001164927436
0.00116495795
0.001164995526
0.00116504709
0.001165116297
0.001165228378
0.001165377374
0.001165674871
0.0004775461056
0.001528490569
0.002345314775
0.002552642713
0.002055227201
0.001276609351
0.0005788048326
0.0002717136098
1.422278009e-05
1.60364818e-06
1.311551331e-06
1.202830828e-06
1.074279618e-06
1.002687666e-06
8.736920375e-07
7.360648737e-07
6.535334686e-07
6.175346251e-07
6.124411966e-07
6.205568364e-07
6.36875423e-07
6.604685227e-07
6.92519661e-07
7.350353376e-07
7.918169912e-07
8.686209325e-07
9.734240134e-07
1.117562579e-06
1.317340807e-06
1.5965471e-06
1.991022797e-06
2.557098588e-06
3.392773182e-06
4.687735716e-06
6.837237533e-06
1.069313213e-05
1.811703305e-05
3.322787097e-05
6.521362496e-05
0.0001347799205
0.0002890763115
0.000636481595
0.001168004445
0.001167504409
0.001166568047
0.001165504889
0.001165072391
0.001164915231
0.00116487261
0.00116487453
0.001164892135
0.001164914996
0.001164940674
0.001164970679
0.001165007906
0.001165059109
0.001165127945
0.001165239663
0.001165388439
0.001165688284
0.0004706668664
0.001495160501
0.002243336854
0.002285632931
0.001718222051
0.0009276064296
0.0004434417941
0.000157220538
4.458301828e-06
1.328309158e-06
1.099793087e-06
1.006938797e-06
9.06348869e-07
8.467073951e-07
7.518114035e-07
6.362323474e-07
5.702296657e-07
5.441242692e-07
5.433941397e-07
5.533830308e-07
5.702515641e-07
5.937046937e-07
6.253436998e-07
6.674379621e-07
7.238369144e-07
8.00373542e-07
9.051785059e-07
1.049705095e-06
1.250275796e-06
1.530677545e-06
1.926381202e-06
2.493489103e-06
3.326994736e-06
4.61093642e-06
6.729428451e-06
1.051270894e-05
1.777626297e-05
3.253079134e-05
6.370326426e-05
0.0001313640352
0.0002810958055
0.000617442193
0.001168047034
0.001167522184
0.001166583014
0.001165531711
0.001165099065
0.001164938597
0.001164892545
0.001164891734
0.001164907385
0.001164928933
0.001164953771
0.001164983239
0.001165020131
0.001165071045
0.001165139622
0.001165251102
0.001165399753
0.001165701757
0.0004629591087
0.001458563772
0.002130390983
0.002011393749
0.001411214433
0.0006881688528
0.0003537312861
5.105808612e-05
1.815257836e-06
1.104728518e-06
9.236199637e-07
8.45034107e-07
7.654200865e-07
7.160462283e-07
6.447480184e-07
5.487463752e-07
4.973119244e-07
4.79890397e-07
4.829511751e-07
4.946790998e-07
5.122007266e-07
5.356111563e-07
5.668756089e-07
6.087568422e-07
6.653072727e-07
7.423184427e-07
8.479999563e-07
9.939971423e-07
1.196743316e-06
1.480101733e-06
1.879614742e-06
2.450977298e-06
3.287706825e-06
4.569764839e-06
6.67375065e-06
1.041610388e-05
1.758352114e-05
3.211708211e-05
6.277060987e-05
0.0001291789997
0.0002758268888
0.0006045111382
0.00116809627
0.00116754249
0.001166591385
0.001165556266
0.001165125253
0.001164962074
0.00116491268
0.001164909055
0.001164922633
0.001164942773
0.001164966713
0.001164995631
0.001165032213
0.001165082911
0.001165151345
0.0011652627
0.001165411325
0.001165715307
0.0004546454313
0.001418939266
0.001978564468
0.001732662735
0.001106680802
0.0005143933223
0.0002613303313
2.778868387e-05
1.278248385e-06
9.320440434e-07
7.879468655e-07
7.214971287e-07
6.576594525e-07
6.160194564e-07
5.591044893e-07
4.783313936e-07
4.379110472e-07
4.264344283e-07
4.3133118e-07
4.436165093e-07
4.614793156e-07
4.851265931e-07
5.163693374e-07
5.582509148e-07
6.15338744e-07
6.935326068e-07
8.009342342e-07
9.49328409e-07
1.15540872e-06
1.443229537e-06
1.848562057e-06
2.42709799e-06
3.271617885e-06
4.559525607e-06
6.663029847e-06
1.039150751e-05
1.751769085e-05
3.194609014e-05
6.233205166e-05
0.0001280453156
0.0002728694426
0.0005967781445
0.001168149241
0.00116756408
0.001166593962
0.001165578558
0.001165150737
0.00116498543
0.001164932839
0.001164926375
0.001164937812
0.001164956482
0.00116497949
0.00116500786
0.001165044167
0.001165094722
0.001165163114
0.001165274462
0.00116542316
0.001165728941
0.000443742274
0.001373653349
0.001806649962
0.001458545988
0.0008109911119
0.0003894498443
0.0001715484582
1.500768976e-05
1.011037072e-06
7.85643648e-07
6.727479459e-07
6.161033597e-07
5.657198989e-07
5.320097325e-07
4.863794968e-07
4.201834645e-07
3.894266931e-07
3.823956341e-07
3.878029076e-07
3.9931431e-07
4.166053406e-07
4.405674045e-07
4.725763914e-07
5.151481175e-07
5.731854013e-07
6.531166426e-07
7.630097426e-07
9.146020356e-07
1.124955372e-06
1.418497585e-06
1.831343208e-06
2.419501419e-06
3.27564493e-06
4.57591535e-06
6.690834701e-06
1.042855235e-05
1.756059751e-05
3.198332368e-05
6.231750158e-05
0.0001278135454
0.000271892425
0.0005934918503
0.00116820346
0.001167585765
0.001166591571
0.001165598656
0.001165175351
0.00116500847
0.001164952864
0.001164943589
0.001164952859
0.001164970031
0.001164992095
0.001165019933
0.001165056007
0.001165106492
0.001165174939
0.001165286386
0.001165435261
0.001165742667
0.0004301265623
0.001319494651
0.001620038801
0.00120086443
0.00058703617
0.0003026835862
0.0001014018682
6.698855148e-06
8.23008552e-07
6.544003507e-07
5.663220484e-07
5.179777008e-07
4.789798003e-07
4.527395425e-07
4.166119394e-07
3.649567737e-07
3.441457254e-07
3.425983509e-07
3.50075329e-07
3.616086901e-07
3.779595246e-07
4.01496808e-07
4.34478271e-07
4.786729836e-07
5.383089624e-07
6.203262475e-07
7.332586495e-07
8.887468588e-07
1.104141623e-06
1.404443311e-06
1.826241086e-06
2.426094569e-06
3.297117739e-06
4.615312145e-06
6.751903267e-06
1.051897733e-05
1.769809252e-05
3.220239171e-05
6.267398618e-05
0.0001283715065
0.0002726480722
0.0005940894423
0.001168256898
0.00116760646
0.001166584997
0.001165616662
0.001165198978
0.00116503104
0.001164972629
0.001164960608
0.001164967724
0.001164983399
0.001165004527
0.001165031858
0.001165067749
0.001165118238
0.001165186845
0.001165298489
0.001165447626
0.001165756487
0.0004148435786
0.001256893925
0.001425915642
0.000931734725
0.0004419881248
0.0002310836868
3.878439237e-05
2.984266697e-06
6.740844516e-07
5.474815902e-07
4.766062728e-07
4.352369539e-07
4.04329088e-07
3.834257509e-07
3.534609415e-07
3.140610558e-07
3.015308382e-07
3.04533628e-07
3.145118932e-07
3.28189569e-07
3.454737903e-07
3.686611383e-07
4.019813436e-07
4.480704535e-07
5.100432806e-07
5.944834606e-07
7.107398436e-07
8.706988134e-07
1.091798172e-06
1.399710498e-06
1.831680433e-06
2.444991533e-06
3.333671937e-06
4.674578963e-06
6.841781546e-06
1.065594766e-05
1.791870987e-05
3.258224401e-05
6.335971867e-05
0.0001296312242
0.0002749425902
0.0005981305888
0.001168307967
0.001167625224
0.00116657497
0.001165632713
0.001165221544
0.001165053023
0.001164992032
0.001164977363
0.001164982366
0.001164996568
0.001165016785
0.001165043647
0.00116507941
0.001165129977
0.001165198848
0.00116531079
0.001165460264
0.001165770404
0.0003977695682
0.001183705052
0.001224852054
0.0006945177906
0.0003418539189
0.000169398859
2.027284339e-05
1.547844287e-06
5.540175044e-07
4.609691428e-07
4.031071534e-07
3.681159645e-07
3.43555396e-07
3.272173324e-07
3.020676358e-07
2.728473342e-07
2.661870853e-07
2.712879675e-07
2.821027985e-07
2.9731012e-07
3.167904936e-07
3.415767661e-07
3.754523927e-07
4.228738815e-07
4.87440043e-07
5.747976002e-07
6.945886092e-07
8.594448442e-07
1.086837172e-06
1.403065254e-06
1.846274752e-06
2.474523323e-06
3.383255899e-06
4.751052158e-06
6.956776378e-06
1.083393127e-05
1.821337317e-05
3.310649865e-05
6.434254535e-05
0.0001315253584
0.0002786278787
0.0006052786133
0.001168355472
0.001167641262
0.00116656215
0.001165646958
0.001165243013
0.001165074333
0.001165010996
0.001164993801
0.001164996758
0.001165009529
0.001165028874
0.001165055312
0.001165091006
0.001165141727
0.001165210954
0.001165323289
0.00116547318
0.001165784421
0.0003796923689
0.001101072114
0.001019306773
0.0005153813259
0.000271473602
0.000117181547
1.350646277e-05
9.113637647e-07
4.605481346e-07
3.897173753e-07
3.434165584e-07
3.139650227e-07
2.944163727e-07
2.817702265e-07
2.604564794e-07
2.397582323e-07
2.374806104e-07
2.440640904e-07
2.552637476e-07
2.705307312e-07
2.912190295e-07
3.183724104e-07
3.541385914e-07
4.027247214e-07
4.696182507e-07
5.603952641e-07
6.840434569e-07
8.540722237e-07
1.088261652e-06
1.413400551e-06
1.868686448e-06
2.513223419e-06
3.444095493e-06
4.842474422e-06
7.093828641e-06
1.104845458e-05
1.857490536e-05
3.376242593e-05
6.559775827e-05
0.0001340024339
0.0002835909543
0.0006152770154
0.001168398565
0.001167653936
0.00116654712
0.001165659558
0.001165263378
0.001165094916
0.001165029465
0.001165009882
0.001165010878
0.001165022277
0.001165040801
0.001165066867
0.001165102555
0.001165153503
0.001165223172
0.001165335995
0.001165486378
0.001165798539
0.00036179483
0.001010337652
0.0008191744082
0.0004050362765
0.0002229820612
6.84641867e-05
6.198739676e-06
5.973090679e-07
3.847835449e-07
3.287313666e-07
2.920357694e-07
2.676514033e-07
2.523273873e-07
2.431039095e-07
2.25635175e-07
2.123510326e-07
2.133671872e-07
2.209034721e-07
2.326039732e-07
2.484963384e-07
2.697167595e-07
2.985901403e-07
3.362783792e-07
3.869774093e-07
4.561198941e-07
5.505084464e-07
6.784041975e-07
8.537806807e-07
1.095163102e-06
1.429727437e-06
1.897839001e-06
2.559812748e-06
3.514670216e-06
4.946948338e-06
7.250426077e-06
1.129593593e-05
1.899770006e-05
3.454027519e-05
6.710667675e-05
0.0001370237979
0.0002897473328
0.0006279347314
0.001168436682
0.001167662751
0.001166530391
0.001165670678
0.001165282657
0.001165114741
0.001165047404
0.001165025582
0.001165024715
0.001165034813
0.001165052574
0.001165078327
0.001165114075
0.001165165322
0.001165235531
0.001165348919
0.001165499853
0.001165812757
0.0003464134008
0.0009083909928
0.0006611622156
0.0003357976659
0.0001843092266
3.303455677e-05
2.670938197e-06
4.343416497e-07
3.207841478e-07
2.756289929e-07
2.464247462e-07
2.266497344e-07
2.14979481e-07
2.088398943e-07
1.953979721e-07
1.887308684e-07
1.927706136e-07
2.012698948e-07
2.13248555e-07
2.298262719e-07
2.521447099e-07
2.821590008e-07
3.214048275e-07
3.749972038e-07
4.467234222e-07
5.445500284e-07
6.769795403e-07
8.578583648e-07
1.106728271e-06
1.451174418e-06
1.93275773e-06
2.613189644e-06
3.593690181e-06
5.062894982e-06
7.424528019e-06
1.157354583e-05
1.947745178e-05
3.543273613e-05
6.885553396e-05
0.0001405612797
0.0002970359358
0.0006431144414
0.001168469492
0.001167667348
0.001166512407
0.001165680476
0.001165300884
0.001165133797
0.001165064793
0.001165040888
0.001165038267
0.001165047143
0.001165064207
0.001165089708
0.001165125582
0.001165177201
0.001165248055
0.001165362085
0.001165513608
0.001165827069
0.0003377552804
0.0007993777434
0.0005388969405
0.0002833817823
0.0001476433479
1.891402737e-05
1.269166645e-06
3.368685946e-07
2.682989789e-07
2.316866975e-07
2.084010624e-07
1.926163198e-07
1.838830085e-07
1.800281537e-07
1.700399545e-07
1.683154772e-07
1.745619649e-07
1.843300216e-07
1.970963375e-07
2.142652598e-07
2.376402626e-07
2.687378663e-07
3.10271862e-07
3.663341195e-07
4.409885942e-07
5.420169708e-07
6.790926182e-07
8.656590349e-07
1.122239563e-06
1.476969146e-06
1.972598461e-06
2.672410047e-06
3.680068104e-06
5.189008957e-06
7.614490455e-06
1.187907642e-05
2.001091711e-05
3.643448027e-05
7.083456193e-05
0.0001445952888
0.0003054149018
0.0006607225064
0.001168496842
0.001167667482
0.001166493544
0.001165689106
0.001165318105
0.001165152089
0.001165081627
0.001165055795
0.001165051535
0.001165059275
0.001165075712
0.001165101025
0.001165137094
0.001165189154
0.001165260742
0.0011653755
0.00116552764
0.001165841468
0.0003387828479
0.0006893656519
0.0004383714577
0.000240622334
0.0001119072928
1.246405055e-05
6.442697655e-07
2.701228692e-07
2.252180722e-07
1.954067552e-07
1.768955328e-07
1.646107999e-07
1.584017262e-07
1.564920339e-07
1.497980839e-07
1.514867637e-07
1.588870028e-07
1.695613869e-07
1.834114361e-07
2.01630328e-07
2.26006181e-07
2.584861631e-07
3.026386561e-07
3.604095731e-07
4.381786017e-07
5.424257533e-07
6.841504113e-07
8.766039519e-07
1.141078178e-06
1.506449384e-06
2.016639911e-06
2.7366752e-06
3.772896909e-06
5.324223095e-06
7.819009038e-06
1.221084682e-05
2.059575023e-05
3.754186059e-05
7.303741034e-05
0.0001491136068
0.0003148587525
0.0006807015714
0.001168518715
0.001167663009
0.001166474122
0.001165696712
0.001165334375
0.001165169634
0.001165097912
0.00116507031
0.001165064527
0.00116507122
0.001165087103
0.001165112296
0.001165148626
0.001165201196
0.001165273569
0.001165389146
0.00116554195
0.001165855942
0.0003513045633
0.0005843815694
0.0003646874851
0.0002107693109
6.323941855e-05
5.496158304e-06
3.661232313e-07
2.211344278e-07
1.891112214e-07
1.649144462e-07
1.504257582e-07
1.411672985e-07
1.37201462e-07
1.370111506e-07
1.335064972e-07
1.376677176e-07
1.458943315e-07
1.570798615e-07
1.719543979e-07
1.913872215e-07
2.169476134e-07
2.510271988e-07
2.971164925e-07
3.568113126e-07
4.376008312e-07
5.453207827e-07
6.916739349e-07
8.901846912e-07
1.162711851e-06
1.539043674e-06
2.064270222e-06
2.805315142e-06
3.871428314e-06
5.467676751e-06
8.037069028e-06
1.256761968e-05
2.123035546e-05
3.875263334e-05
7.546058122e-05
0.0001541101184
0.0003253552549
0.000703022364
0.001168535196
0.001167653865
0.001166454409
0.001165703427
0.001165349757
0.00116518646
0.001165113663
0.001165084443
0.001165077255
0.001165082991
0.001165098395
0.001165123534
0.001165160194
0.001165213336
0.001165286579
0.001165403016
0.00116555653
0.001165870481
0.0003748709824
0.0005219212608
0.0003187337764
0.0001880285798
3.099576049e-05
2.076903554e-06
2.474750564e-07
1.833063266e-07
1.589790758e-07
1.395554825e-07
1.2836744e-07
1.217640842e-07
1.197796629e-07
1.210479906e-07
1.203600163e-07
1.261539872e-07
1.351006332e-07
1.469154981e-07
1.626711158e-07
1.83118458e-07
2.099993991e-07
2.455888176e-07
2.931875871e-07
3.553297439e-07
4.389208341e-07
5.502965791e-07
7.012658172e-07
9.05959131e-07
1.186686718e-06
1.574268939e-06
2.114979214e-06
2.877778378e-06
3.97505662e-06
5.618692322e-06
8.267910656e-06
1.29485474e-05
2.191379799e-05
4.006579474e-05
7.81030844e-05
0.0001595839669
0.000336903124
0.0007276776394
0.001168546445
0.001167640046
0.001166434629
0.001165709377
0.001165364316
0.001165202604
0.001165128901
0.00116509821
0.001165089732
0.001165094604
0.001165109605
0.001165134757
0.001165171812
0.001165225588
0.001165299798
0.001165417108
0.001165571378
0.00116588507
0.0004057292896
0.0004802837334
0.0002865990647
0.0001650904475
1.64102041e-05
7.790654476e-07
1.895272813e-07
1.533100188e-07
1.341994938e-07
1.188216306e-07
1.102149364e-07
1.059450362e-07
1.056423139e-07
1.076288482e-07
1.097545523e-07
1.166189827e-07
1.261628223e-07
1.386785789e-07
1.551790711e-07
1.766022969e-07
2.047680749e-07
2.41825725e-07
2.91002078e-07
3.556284856e-07
4.419209e-07
5.569825015e-07
7.12573769e-07
9.23544478e-07
1.212613786e-06
1.611713954e-06
2.168335679e-06
2.95360274e-06
4.083281897e-06
5.776727134e-06
8.510964559e-06
1.335308005e-05
2.264566096e-05
4.148133167e-05
8.096593592e-05
0.0001655384008
0.0003495092229
0.0007546758291
0.001168552671
0.001167621593
0.001166414965
0.001165714675
0.001165378121
0.001165218106
0.001165143652
0.001165111629
0.001165101976
0.001165106073
0.001165120745
0.001165145977
0.001165183492
0.001165237962
0.001165313219
0.001165431419
0.001165586488
0.001165899692
0.0004419803357
0.0004362069324
0.0002695484738
0.0001387318776
9.962013613e-06
3.084984192e-07
1.54647508e-07
1.292674728e-07
1.141818888e-07
1.017842609e-07
9.544075573e-08
9.317187344e-08
9.424564832e-08
9.692507515e-08
1.011290672e-07
1.087156962e-07
1.188181862e-07
1.320024714e-07
1.492056471e-07
1.716504178e-07
2.010298446e-07
2.395488608e-07
2.904044758e-07
3.573583084e-07
4.463128042e-07
5.650567387e-07
7.252899322e-07
9.426161694e-07
1.24016757e-06
1.651038586e-06
2.223987384e-06
3.032416092e-06
4.195710368e-06
5.941373305e-06
8.765848854e-06
1.37809549e-05
2.342601371e-05
4.300012617e-05
8.405187e-05
0.0001719799385
0.0003631864175
0.0007840366471
0.00116855412
0.001167598575
0.001166395573
0.001165719428
0.00116539124
0.001165233011
0.001165157946
0.001165124724
0.001165114003
0.001165117414
0.001165131832
0.00116515721
0.001165195248
0.001165250466
0.001165326844
0.001165445945
0.001165601852
0.001165914329
0.0004816250647
0.0004173386292
0.0002646113751
8.833223314e-05
2.975507395e-06
1.652726568e-07
1.29856935e-07
1.101099999e-07
9.756448376e-08
8.775741647e-08
8.34485721e-08
8.286613348e-08
8.504413867e-08
8.853004487e-08
9.405125391e-08
1.021925227e-07
1.128363712e-07
1.266602439e-07
1.446095449e-07
1.680832356e-07
1.985853596e-07
2.385318534e-07
2.910526995e-07
3.602416873e-07
4.51835206e-07
5.742556164e-07
7.391580117e-07
9.629067688e-07
1.269081904e-06
1.691969079e-06
2.281655459e-06
3.113929031e-06
4.312046057e-06
6.112347172e-06
9.032350983e-06
1.423216295e-05
2.425534073e-05
4.46237862e-05
8.736491142e-05
0.0001789173231
0.0003779513263
0.0008157874306
0.001168551061
0.001167571066
0.001166376584
0.001165723738
0.001165403744
0.001165247366
0.001165171814
0.001165137514
0.001165125831
0.001165128642
0.001165142878
0.001165168466
0.001165207088
0.00116526311
0.001165340673
0.001165460675
0.001165617464
0.001165928962
0.0005272421913
0.0004173622629
0.0002662442369
3.935242647e-05
6.105877101e-07
1.275020157e-07
1.103920277e-07
9.412739411e-08
8.367984595e-08
7.619509277e-08
7.373035768e-08
7.454095489e-08
7.759426052e-08
8.186646541e-08
8.822546101e-08
9.685383616e-08
1.080303505e-07
1.224906389e-07
1.412223728e-07
1.656825079e-07
1.972035938e-07
2.385431792e-07
2.927134155e-07
3.640548254e-07
4.582705975e-07
5.843578288e-07
7.539604239e-07
9.841910055e-07
1.299130934e-06
1.734274547e-06
2.341105272e-06
3.197899093e-06
4.432046334e-06
6.289433595e-06
9.310355567e-06
1.470684673e-05
2.513437898e-05
4.635435207e-05
9.090980158e-05
0.0001863604087
0.0003938224825
0.0008499613183
0.001168543783
0.00116753914
0.001166358107
0.001165727697
0.0011654157
0.001165261215
0.001165185287
0.001165150023
0.001165137477
0.001165139771
0.001165153896
0.001165179757
0.001165219022
0.001165275895
0.001165354708
0.001165475602
0.001165633316
0.001165943568
0.0005878314062
0.000424111335
0.0002654867575
1.861402577e-05
2.118358733e-07
1.072697846e-07
9.40336414e-08
8.06996408e-08
7.212074248e-08
6.675624777e-08
6.591729677e-08
6.783540875e-08
7.157026367e-08
7.652258071e-08
8.345218851e-08
9.253431602e-08
1.042286756e-07
1.193120038e-07
1.38819379e-07
1.641594424e-07
1.966886264e-07
2.39360894e-07
2.951751008e-07
3.686072768e-07
4.654456868e-07
5.951731106e-07
7.695102926e-07
1.006283123e-06
1.33012694e-06
1.777764661e-06
2.402142969e-06
3.284129045e-06
4.555520221e-06
6.472481092e-06
9.599835496e-06
1.520527591e-05
2.606405411e-05
4.819413754e-05
9.469163281e-05
0.0001943194526
0.0004108193952
0.0008865970884
0.001168532592
0.001167502843
0.00116634024
0.001165731393
0.001165427173
0.001165274604
0.001165198396
0.001165162273
0.001165148958
0.001165150816
0.001165164898
0.001165191093
0.001165231056
0.00116528883
0.001165368946
0.001165490712
0.001165649396
0.00116595812
0.0006513340721
0.0004243160654
0.0002547918755
1.061731536e-05
1.409028989e-07
9.115025642e-08
8.052202353e-08
6.956832851e-08
6.267604209e-08
5.921831402e-08
5.972137915e-08
6.246695509e-08
6.671633642e-08
7.221274536e-08
7.95751818e-08
8.908320337e-08
1.01271977e-07
1.169529723e-07
1.371907066e-07
1.633118751e-07
1.968763644e-07
2.408169042e-07
2.982655024e-07
3.737316491e-07
4.732034628e-07
6.065456964e-07
7.856553106e-07
1.029041011e-06
1.361930084e-06
1.822302045e-06
2.464633334e-06
3.372489864e-06
4.682357251e-06
6.661437308e-06
9.900890214e-06
1.572788448e-05
2.704550349e-05
5.014570843e-05
9.871574469e-05
0.0002028049761
0.0004289628132
0.00092574086
0.00116851781
0.001167462185
0.001166323066
0.001165734907
0.001165438225
0.001165287576
0.001165211169
0.001165174283
0.001165160289
0.001165161788
0.001165175894
0.001165202482
0.001165243194
0.001165301915
0.001165383385
0.001165505994
0.00116566569
0.001165972596
0.0006992232096
0.0004171220576
0.0002304329825
6.870329518e-06
1.063220519e-07
7.832458254e-08
6.950175717e-08
6.044235482e-08
5.508956791e-08
5.330303812e-08
5.484508437e-08
5.817728264e-08
6.281031953e-08
6.873051709e-08
7.645534615e-08
8.63611421e-08
9.901646993e-08
1.15262088e-07
1.36169612e-07
1.630141792e-07
1.976135972e-07
2.427852829e-07
3.018335903e-07
3.792858125e-07
4.813937534e-07
6.183474265e-07
8.022641881e-07
1.052339923e-06
1.394417278e-06
1.867762856e-06
2.528453773e-06
3.462861013e-06
4.812454551e-06
6.85625835e-06
1.021362464e-05
1.627509891e-05
2.807981349e-05
5.22114636e-05
0.0001029870762
0.0002118269158
0.0004482739787
0.0009674456744
0.001168499781
0.001167417116
0.00116630666
0.00116573831
0.00116544891
0.001165300169
0.001165223634
0.001165186075
0.001165171486
0.0011651727
0.001165186893
0.001165213931
0.001165255441
0.00116531515
0.001165398021
0.001165521436
0.001165682183
0.00116598698
0.0007007698829
0.0004162251201
0.0001984525894
2.806128591e-06
8.636789587e-08
6.803176199e-08
6.05202695e-08
5.298456881e-08
4.905485187e-08
4.867917653e-08
5.098891004e-08
5.47328171e-08
5.96595769e-08
6.591648511e-08
7.396450605e-08
8.424103713e-08
9.733415358e-08
1.141089295e-07
1.356301181e-07
1.631792902e-07
1.987740012e-07
2.451659297e-07
3.057631029e-07
3.851697621e-07
4.899034529e-07
6.304862829e-07
8.192466826e-07
1.076087444e-06
1.427501491e-06
1.914060839e-06
2.593521984e-06
3.555165646e-06
4.945757637e-06
7.056953985e-06
1.053819951e-05
1.684739076e-05
2.916807199e-05
5.439369536e-05
0.0001075102963
0.0002213950419
0.0004687757483
0.001011773084
0.001168478879
0.00116736751
0.001166291084
0.001165741669
0.001165459281
0.00116531242
0.001165235817
0.001165197667
0.001165182563
0.001165183562
0.001165197902
0.001165225443
0.001165267797
0.001165328535
0.001165412841
0.001165537026
0.001165698853
0.001166001248
0.0006910909744
0.0004195141854
0.0001162600747
9.675635622e-07
7.303090321e-08
5.967748505e-08
5.320213699e-08
4.695725111e-08
4.432438309e-08
4.50531574e-08
4.790200932e-08
5.194625662e-08
5.71109952e-08
6.364765172e-08
7.199182573e-08
8.261364098e-08
9.611709016e-08
1.133888092e-07
1.354870897e-07
1.637705094e-07
2.002633477e-07
2.478685039e-07
3.099601634e-07
3.913031544e-07
4.986525772e-07
6.428769235e-07
8.365266405e-07
1.100200211e-06
1.461100045e-06
1.961110967e-06
2.659751708e-06
3.649320039e-06
5.082199823e-06
7.263512319e-06
1.087473199e-05
1.744513638e-05
3.031116188e-05
5.669428843e-05
0.0001122894117
0.0002315185378
0.0004904920476
0.001058791152
0.001168455525
0.001167313143
0.001166276395
0.001165745042
0.001165469382
0.001165324362
0.001165247742
0.001165209075
0.001165193531
0.001165194382
0.001165208927
0.001165237023
0.001165280261
0.001165342065
0.001165427835
0.001165552751
0.001165715678
0.001166015382
0.0006752229419
0.0004190680719
6.069895081e-05
3.484029324e-07
6.326184109e-08
5.272198961e-08
4.710402054e-08
4.207260722e-08
4.064759711e-08
4.219379576e-08
4.540028428e-08
4.967413714e-08
5.504471065e-08
6.182437713e-08
7.044131835e-08
8.138470865e-08
9.527294931e-08
1.130141542e-07
1.35673107e-07
1.647036596e-07
2.020063145e-07
2.508064618e-07
3.143544087e-07
3.976179044e-07
5.075898158e-07
6.554559834e-07
8.540463918e-07
1.124621342e-06
1.495156072e-06
2.008857203e-06
2.727089332e-06
3.745276748e-06
5.221754086e-06
7.475960523e-06
1.122336573e-05
1.806870043e-05
3.15098701e-05
5.911489014e-05
0.0001173280766
0.0002422065272
0.0005134482073
0.001108572074
0.001168430206
0.001167258828
0.001166262638
0.001165748479
0.001165479256
0.001165336026
0.001165259431
0.001165220316
0.001165204402
0.001165205168
0.001165219973
0.00116524867
0.00116529283
0.001165355734
0.001165442989
0.001165568581
0.001165732635
0.00116602936
0.0006534574281
0.0004076013349
3.288985042e-05
1.463649174e-07
5.577896871e-08
4.703933894e-08
4.203089123e-08
3.812003039e-08
3.777199874e-08
3.991769741e-08
4.336196167e-08
4.781219358e-08
5.3371374e-08
6.036443391e-08
6.923200472e-08
8.047502373e-08
9.472495293e-08
1.129117771e-07
1.361152226e-07
1.658267809e-07
2.039384008e-07
2.539085846e-07
3.188990121e-07
4.040606373e-07