/*--------------------------------*- C++ -*----------------------------------*\
  =========                 |
  \\      /  F ield         | OpenFOAM: The Open Source CFD Toolbox
   \\    /   O peration     | Website:  https://openfoam.org
    \\  /    A nd           | Version:  12
     \\/     M anipulation  |
\*---------------------------------------------------------------------------*/
FoamFile
{
    format      ascii;
    class       volScalarField;
    location    "100";
    object      Ma;
}
// * * * * * * * * * * * * * * * * * * * * * * * * * * * * * * * * * * * * * //

dimensions      [];

internalField   nonuniform List<scalar> 
16200
(
0.4983635709
0.59359495
0.647065406
0.6890921707
0.7280643443
0.7690028114
0.8144769287
0.8588720843
0.8782467882
0.8801476113
0.8795923039
0.8791973761
0.8785268249
0.8776149883
0.8763672347
0.8748610893
0.8730435506
0.8708884583
0.868335014
0.8653224834
0.8617765665
0.857626067
0.8528039024
0.8472354326
0.8408583369
0.8336436327
0.8256012939
0.8167996591
0.8073784643
0.7975542837
0.7876089122
0.7778591031
0.7686091567
0.7601185149
0.7525589235
0.7460295685
0.7405332321
0.7360315178
0.7324209389
0.7295957131
0.7274207919
0.7257813446
0.7245599758
0.7236646198
0.7230136186
0.7225445425
0.7222091379
0.7219695367
0.7217996143
0.7216787642
0.7215934857
0.7215325336
0.7214894623
0.7214576779
0.7214345397
0.7214153798
0.7214013747
0.7213866824
0.7213790174
0.7213597909
0.5066055134
0.6040739238
0.6588338929
0.7020275114
0.7425442696
0.7857228541
0.8329241781
0.8727202064
0.8857693987
0.8864802254
0.8858268037
0.8853481561
0.884599517
0.8835958213
0.8822271183
0.8805682233
0.8785668236
0.8761923177
0.8733811051
0.8700666293
0.8661685997
0.8616090156
0.85631954
0.8502272752
0.8432747424
0.8354461863
0.8267750197
0.8173634094
0.8073933623
0.7971252528
0.7868748809
0.7769723682
0.7677123209
0.759317761
0.7519204052
0.7455694948
0.7402420465
0.735872428
0.7323590294
0.7295919586
0.7274497661
0.7258219241
0.7246016769
0.7237008675
0.7230422954
0.7225658272
0.7222235257
0.7219790006
0.7218049312
0.7216813868
0.7215939516
0.7215318253
0.7214878876
0.7214559158
0.7214327407
0.7214138596
0.7213998931
0.7213855914
0.7213782332
0.7213579019
0.5148479252
0.6146438677
0.670765526
0.7152275649
0.7574629483
0.8030582413
0.851790916
0.884589294
0.8919610868
0.8918504538
0.891093657
0.8905203077
0.8896670358
0.888541803
0.8870242882
0.8851833241
0.8829662631
0.8803370833
0.8772291053
0.8735697627
0.8692730314
0.8642546572
0.8584457067
0.8517774169
0.8442009141
0.835719342
0.8263969628
0.8163789892
0.8058984388
0.7952636917
0.7848220003
0.7749078025
0.7657920676
0.7576504661
0.7505625934
0.7445255954
0.7394841313
0.7353489946
0.7320165039
0.7293772999
0.7273219881
0.7257483291
0.7245609492
0.7236782593
0.7230293322
0.7225576196
0.7222175039
0.7219738965
0.7218003236
0.7216771054
0.7215899845
0.7215282834
0.7214848143
0.7214534196
0.7214307297
0.7214124439
0.7213987948
0.7213848668
0.7213780497
0.7213576656
0.5227061825
0.6246837961
0.6821776224
0.7280750252
0.7722983834
0.820144153
0.8689147428
0.8930359739
0.8965584765
0.8961430936
0.8952938457
0.8946092954
0.8936399206
0.8923792877
0.8906984926
0.8886577392
0.8862032701
0.8832923546
0.8798552419
0.8758144175
0.8710795139
0.8655611128
0.859191059
0.8519080184
0.8436772341
0.834528459
0.8245664696
0.8139893221
0.8030862097
0.7922112936
0.7817327581
0.7719730909
0.7631621045
0.7554176508
0.7487597727
0.743136363
0.7384592968
0.7346227263
0.7315207943
0.7290497863
0.7271119085
0.7256162629
0.7244791766
0.7236274713
0.7229973581
0.72253672
0.7222030739
0.7219633544
0.7217921403
0.7216705296
0.7215845112
0.7215237847
0.7214810571
0.7214504576
0.7214283531
0.7214107738
0.7213975153
0.7213839567
0.7213776488
0.7213569797
0.5302394977
0.6343342682
0.6931788359
0.7407620934
0.787441364
0.837571483
0.8828116245
0.8987335122
0.8999997211
0.8994225644
0.8984657997
0.8976521793
0.8965455824
0.8951246901
0.8932551032
0.8909867521
0.8882642997
0.8850372964
0.8812324767
0.8767677353
0.871549291
0.8654835388
0.8585047232
0.8505632521
0.8416464737
0.8318217501
0.8212463215
0.8101800149
0.7989700653
0.7880087228
0.7776681009
0.7682392444
0.7598937412
0.7526825029
0.7465637025
0.7414394289
0.7371935006
0.7337085861
0.7308797416
0.728611497
0.7268186778
0.7254230118
0.7243530638
0.7235451337
0.7229431935
0.722500411
0.7221780774
0.7219456119
0.7217791283
0.7216607305
0.7215769562
0.7215179365
0.7214764887
0.7214469866
0.7214256948
0.7214088936
0.7213961478
0.7213829644
0.7213772342
0.7213563532
0.5373508061
0.6436329519
0.7038802435
0.7532721936
0.8026299526
0.8549334796
0.8930625336
0.9024089329
0.9023596129
0.9016777125
0.9006037882
0.8996467233
0.8983867902
0.8967856606
0.8947061503
0.8921866748
0.889169391
0.8855944341
0.8813832109
0.8764483547
0.8706934887
0.864024149
0.8563822838
0.8477382225
0.8381126136
0.8276235675
0.8164924275
0.8050459519
0.7936842379
0.7828215153
0.7728114272
0.7638917162
0.7561614042
0.7495993794
0.7441047141
0.7395405169
0.7357697207
0.7326697143
0.7301400941
0.7280961496
0.7264660712
0.7251849797
0.7241937916
0.7234387716
0.7228719182
0.7224521258
0.7221448333
0.7219222591
0.7217623661
0.7216484555
0.7215678118
0.7215110789
0.7214713062
0.7214431279
0.7214228087
0.721406854
0.7213946967
0.7213818842
0.7213767489
0.7213556202
0.5440306994
0.65270343
0.7144693801
0.7658840182
0.8179832038
0.8711748688
0.8999943627
0.9047809267
0.9038142759
0.9030335139
0.9018299971
0.9007122016
0.8992776177
0.8974686292
0.8951468724
0.8923382528
0.888981763
0.8850072982
0.8803297342
0.8748575465
0.8684949813
0.8611529004
0.8527899462
0.8434074717
0.8330713853
0.8219620434
0.81037305
0.7986975549
0.7873749688
0.7768183691
0.7673372276
0.7590959152
0.7521113574
0.7462908766
0.7414815689
0.7375166756
0.7342466726
0.7315497128
0.729333595
0.7275262142
0.7260696893
0.7249126984
0.7240083451
0.7233129059
0.7227864125
0.7223936738
0.7221044641
0.7218940001
0.7217422883
0.7216339807
0.7215572458
0.721503314
0.7214655633
0.7214389131
0.7214197042
0.7214046556
0.7213931566
0.7213807117
0.7213762151
0.7213548371
0.5503502575
0.6616661863
0.7251373638
0.7789534471
0.8339267639
0.8846909069
0.9041841851
0.9055947334
0.9044788172
0.9035796938
0.9022263774
0.9009181213
0.8992717675
0.8972079938
0.8945885373
0.8914274349
0.8876622253
0.8832150819
0.8779965625
0.8719144901
0.8648777694
0.8568070506
0.8476851981
0.8375565564
0.8265459404
0.8149057922
0.8030045363
0.7912939591
0.7802314904
0.7702002096
0.7614399517
0.7540264462
0.7478915871
0.7428772884
0.738789302
0.7354415407
0.7326805729
0.7303908823
0.7284915947
0.7269245032
0.7256458345
0.7246175814
0.7238045879
0.7231728616
0.7226902444
0.7223274224
0.7220585286
0.7218618564
0.721719564
0.7216177454
0.7215455414
0.7214948237
0.7214593681
0.7214344075
0.7214164174
0.721402324
0.7213915297
0.7213794725
0.7213756259
0.7213539876
0.5560616137
0.6701980365
0.7356906494
0.7922987148
0.8500626084
0.8943435367
0.9062688247
0.9055062638
0.9041683021
0.9031201945
0.9015950353
0.9000676437
0.8981761382
0.8958180213
0.8928553592
0.8892900223
0.8850587744
0.8800790542
0.8742603586
0.8675143186
0.85976052
0.8509352267
0.841050656
0.8302045755
0.8185975326
0.8065650153
0.7945447282
0.783029024
0.7724653538
0.7631757489
0.7553087075
0.7488435271
0.7436312735
0.7394594574
0.736105203
0.7333738462
0.7311158513
0.7292266511
0.7276390362
0.7263093795
0.7252078227
0.7243091062
0.723589155
0.7230232011
0.7225865078
0.722255441
0.7220083947
0.7218267262
0.7216947769
0.7216001252
0.7215329321
0.7214857484
0.7214527984
0.7214296546
0.7214129696
0.7213998733
0.7213898229
0.721378168
0.7213749861
0.7213530804
0.5605776742
0.6777048367
0.7457698878
0.8055202986
0.8648595755
0.8999565737
0.9043343558
0.9038633365
0.9024988893
0.901288438
0.8995887773
0.8978398789
0.8957035602
0.8930531643
0.8897486681
0.8857766865
0.8810692421
0.8755372526
0.8690871632
0.8616365594
0.8531282468
0.8435338435
0.8329102715
0.8214151356
0.8093338898
0.7970951496
0.7851920814
0.7741261363
0.7643019917
0.7559524769
0.7491202239
0.7436889999
0.7394397379
0.7361197878
0.7334909428
0.7313598838
0.7295874595
0.728083504
0.7267959431
0.7256958511
0.7247667559
0.7239953472
0.7233678221
0.7228679813
0.7224780091
0.7221796412
0.7219553477
0.7217894651
0.7216684891
0.7215814826
0.7215196434
0.7214762235
0.721445931
0.7214246986
0.7214093852
0.7213973199
0.7213880454
0.7213768071
0.7213742963
0.7213521152
0.5638811021
0.6846190583
0.7557935247
0.8189138939
0.8768271521
0.9020608959
0.9020070829
0.901165979
0.8996511109
0.8982525461
0.8963541102
0.8943545876
0.8919403708
0.8889632647
0.8852855206
0.8808853539
0.8756877307
0.8695904698
0.8624929729
0.8543120901
0.8450163536
0.8346370087
0.8233152353
0.8112856072
0.7989062199
0.7866928996
0.7751760598
0.7648243557
0.7559652906
0.7487226104
0.7430282024
0.7386794305
0.735402572
0.732920373
0.7309917912
0.7294332003
0.728120717
0.7269808174
0.7259772111
0.7250953174
0.7243312575
0.7236827213
0.7231452797
0.7227105646
0.7223671159
0.7221016614
0.7219005042
0.7217508234
0.7216411948
0.7215621345
0.7215058699
0.7214663643
0.7214388318
0.7214195784
0.7214056864
0.7213946794
0.7213862036
0.7213754131
0.7213735627
0.7213510928
0.5665824668
0.6917465355
0.7664580093
0.8330063584
0.8850749107
0.899357594
0.8987688853
0.897831305
0.8961557839
0.8945231038
0.8923717705
0.8900537963
0.8872791576
0.8838798082
0.8797224537
0.8747787999
0.8689760222
0.8622158533
0.8544173284
0.8454976637
0.835434073
0.8242996246
0.8123487615
0.7999462806
0.7875076195
0.7755928877
0.7647462658
0.7553637234
0.7476640714
0.7416531916
0.7371577314
0.7339041453
0.7315819909
0.7299044879
0.7286384472
0.7276163162
0.726732728
0.7259319268
0.7251933591
0.7245160626
0.7239077773
0.7233761612
0.7229252248
0.7225536616
0.7222557755
0.7220228737
0.7218448141
0.7217114465
0.7216133215
0.7215423542
0.7214917789
0.7214562705
0.7214315596
0.7214143306
0.7214018955
0.721391967
0.7213843054
0.7213740033
0.7213727956
0.7213500117
0.5689856783
0.6993355995
0.7777231586
0.8467931956
0.8899870473
0.8968035299
0.8949444597
0.8938495686
0.8919814735
0.8900826509
0.8876416249
0.8849595044
0.8817682227
0.8778789875
0.873156091
0.8675570091
0.8610187354
0.8534657573
0.844845233
0.8351259098
0.8243431448
0.8125816337
0.8001487814
0.7875789079
0.7753703604
0.7640570704
0.7541577217
0.745969677
0.7395801365
0.7348791432
0.731602695
0.729425526
0.728018584
0.7270987872
0.7264491246
0.7259224653
0.72543372
0.7249450976
0.7244511964
0.7239636898
0.7235008564
0.7230792658
0.7227104384
0.7223993662
0.7221455274
0.7219443845
0.7217890559
0.7216718688
0.7215852241
0.7215223678
0.7214775094
0.721446027
0.7214241673
0.7214089894
0.7213980341
0.7213891978
0.7213823633
0.7213725183
0.7213720037
0.7213488723
0.5707617703
0.707138362
0.7894247371
0.8581774736
0.8899401943
0.8920690422
0.8900855818
0.8888252129
0.8867331003
0.8845379234
0.8817757038
0.8786961451
0.87505252
0.8706386824
0.8653168825
0.8590367243
0.8517398195
0.8433631673
0.8338658436
0.8232959405
0.8117871166
0.7995582782
0.7869064529
0.7744304977
0.7627579796
0.7523549665
0.7436532539
0.736839548
0.7318601973
0.7285004155
0.7264264491
0.7252815394
0.7247344058
0.7245162347
0.7244320187
0.724357536
0.7242285057
0.7240245871
0.72375457
0.7234416285
0.7231134609
0.7227945107
0.7225029147
0.7222492315
0.722037546
0.7218670583
0.7217338488
0.7216325191
0.721557188
0.721502358
0.7214631758
0.7214357063
0.7214167025
0.7214035869
0.721394123
0.7213863857
0.7213803857
0.721371034
0.721371149
0.7213476881
0.5717158914
0.7149466517
0.8010942571
0.8657767726
0.8854655484
0.8861671186
0.8839625285
0.8824875249
0.8801468955
0.8776295684
0.8745207931
0.8710206464
0.8669015549
0.8619433106
0.8560073303
0.8490395669
0.8409846533
0.8317969796
0.82148115
0.8101429408
0.7979829522
0.7854007154
0.7728449491
0.7607877221
0.7499475914
0.7407419748
0.7334476642
0.7281333768
0.7246124044
0.7225828377
0.7216650072
0.7214896198
0.721736644
0.7221591751
0.7225877149
0.7229218897
0.723117821
0.7231716097
0.7231050462
0.7229516052
0.7227472979
0.7225234545
0.722303992
0.7221043516
0.7219326905
0.7217915459
0.7216796676
0.7215937298
0.7215294357
0.7214824689
0.7214488715
0.7214253715
0.7214092088
0.7213981531
0.7213901814
0.7213835434
0.7213783776
0.721369526
0.7213702636
0.7213464525
0.5723304106
0.7230909659
0.811931894
0.8696287763
0.8799579514
0.879138205
0.8767704703
0.8750407326
0.8724166363
0.8695346515
0.8660289621
0.8620524551
0.8573943018
0.8518272446
0.8452214542
0.8375295175
0.8287033653
0.8187232137
0.8076536451
0.7956830036
0.7831157548
0.7704015688
0.7582067225
0.7469283887
0.73721004
0.7294458386
0.7237172931
0.7199697371
0.7179069563
0.7171616532
0.7173315617
0.7180510184
0.7190212745
0.7200221927
0.7209113409
0.721611949
0.7220994838
0.7223851739
0.7225025081
0.7224940622
0.7224031045
0.7222669351
0.7221144832
0.7219654453
0.7218315569
0.7217183153
0.7216268615
0.7215557478
0.7215021347
0.7214628126
0.7214346736
0.7214150776
0.7214017255
0.7213927147
0.7213862256
0.7213806813
0.7213763321
0.7213679688
0.7213693352
0.7213451704
0.5736427084
0.731955926
0.8207862421
0.8681320748
0.8725299852
0.8713221455
0.8687673222
0.8667157441
0.8637540448
0.8604423573
0.8564624813
0.8519226317
0.8466281287
0.8403528522
0.8329841441
0.8244960661
0.8148777649
0.8041580333
0.792443384
0.7800046323
0.7672949042
0.7548318426
0.7432449748
0.7331086371
0.7247976842
0.718659009
0.7145941303
0.7124257756
0.71177993
0.7122467517
0.7134216426
0.7149551269
0.7165764104
0.718094599
0.7193943791
0.7204215112
0.7211693448
0.7216627703
0.7219456506
0.7220685117
0.7220808967
0.722025241
0.7219347918
0.7218329328
0.7217345267
0.7216476826
0.7215756731
0.7215187483
0.7214754076
0.721443476
0.7214206463
0.7214048728
0.7213942875
0.7213872952
0.7213822698
0.7213778073
0.7213742422
0.7213663552
0.721368363
0.7213438455
0.5765544244
0.7407667429
0.8266449898
0.8622122701
0.8640078741
0.8624408916
0.8596587913
0.8572372104
0.8538970292
0.8501128756
0.8456133811
0.840466246
0.83449188
0.8274683775
0.8192960155
0.8099734413
0.7995527304
0.788147575
0.7759640885
0.7633133858
0.7507522309
0.7389003784
0.7282622985
0.7195876229
0.7129301068
0.7085304569
0.7061642185
0.7055407016
0.7062390296
0.7078284765
0.7099180307
0.7121832782
0.714385093
0.7163624346
0.7180260962
0.7193427739
0.7203220303
0.7210009125
0.7214323752
0.7216738215
0.7217801748
0.7217982572
0.7217650129
0.7217070035
0.7216418113
0.7215798397
0.7215262575
0.7214828484
0.7214493417
0.7214245265
0.7214068432
0.721394799
0.7213869247
0.7213819138
0.721378325
0.7213749275
0.7213721313
0.7213647554
0.7213673449
0.7213424827
0.5816144844
0.7484455429
0.8290849199
0.8554320939
0.8540613141
0.8522601683
0.8492230593
0.8463949013
0.8426413167
0.8383492913
0.8332927723
0.827505639
0.8208243982
0.8130398803
0.8040756924
0.7939689313
0.7828284178
0.7708532042
0.7583859143
0.745849797
0.7337995218
0.7228950853
0.7136223171
0.7066129748
0.7017720751
0.6991594817
0.6984711995
0.6993219855
0.7012702701
0.7038833392
0.7067951826
0.7097119443
0.7124275354
0.7148100315
0.716794638
0.7183671161
0.7195515077
0.7203955533
0.7209600971
0.721308442
0.7215000898
0.7215855841
0.7216050162
0.7215876722
0.7215534893
0.7215148807
0.7214787005
0.72144812
0.7214239979
0.7214060169
0.7213933093
0.721384891
0.7213796614
0.7213765855
0.7213743999
0.7213720482
0.7213700849
0.7213631152
0.7213662781
0.7213410874
0.5891314408
0.7542572852
0.8276640455
0.845324921
0.8428344616
0.840796981
0.8374536598
0.834171517
0.8299560097
0.8251067494
0.8194419674
0.8129704318
0.805549288
0.796995522
0.7872729204
0.7764747093
0.7647794364
0.7524707271
0.739977725
0.7279032793
0.7167536211
0.7071570058
0.6995898644
0.6943722123
0.6914287828
0.6905983869
0.6915236712
0.6937527294
0.6968443754
0.7003789756
0.7040227706
0.7075151769
0.7106827767
0.7134211393
0.7156878122
0.7174856552
0.7188514938
0.7198423882
0.7205259744
0.7209705791
0.7212395717
0.7213866318
0.7214545129
0.7214748255
0.7214695386
0.7214528239
0.7214330357
0.7214146021
0.7213994177
0.7213879885
0.7213800813
0.7213751771
0.7213725164
0.7213713214
0.721370501
0.7213691763
0.721367863
0.7213614646
0.7213651601
0.7213396674
0.5986523959
0.757810685
0.8207961303
0.8338337666
0.830258346
0.8279281994
0.8242336878
0.8204501358
0.8157259997
0.8102772607
0.80396574
0.7967860976
0.7886228963
0.7793321241
0.7689299305
0.7575788966
0.7455446907
0.7332047121
0.7210731772
0.7098064929
0.6999294133
0.6919601755
0.686297939
0.6829905442
0.6819590555
0.6828604045
0.6853031531
0.6887988047
0.6929223952
0.6972781727
0.7015684196
0.7055664057
0.7091298599
0.7121797103
0.714693627
0.7166896321
0.718215739
0.7193370725
0.7201270751
0.7206583222
0.7209974264
0.7212006911
0.7213131075
0.7213682588
0.7213898632
0.7213936323
0.7213892588
0.7213823103
0.7213756286
0.721370473
0.7213671875
0.7213656783
0.7213655028
0.721366129
0.7213666319
0.7213663118
0.7213657149
0.7213597987
0.7213639878
0.7213382293
0.608120872
0.7591537154
0.8112639146
0.820329752
0.8161624083
0.813486075
0.8094064734
0.8050902314
0.7998277935
0.7937604429
0.7867910987
0.778913384
0.7700477185
0.7601021647
0.7491586004
0.7374608948
0.7253648827
0.7133417893
0.7019862124
0.6918853843
0.6836077815
0.6775170085
0.6738780428
0.672544993
0.673382891
0.6759278016
0.6797717822
0.6844152134
0.689460271
0.6945419372
0.6993996656
0.7038396766
0.7077486189
0.711070414
0.7138006445
0.7159706663
0.7176382202
0.7188753706
0.7197604946
0.7203697365
0.7207724073
0.7210269879
0.7211803369
0.7212677053
0.7213143157
0.7213372306
0.7213473398
0.7213512442
0.7213526475
0.7213534931
0.7213546485
0.7213564087
0.7213586292
0.7213610134
0.7213627967
0.7213634568
0.7213634981
0.721358126
0.7213627587
0.7213367798
0.616189116
0.7578162197
0.8000748617
0.8050370062
0.800466296
0.7973852119
0.7929002476
0.7880349786
0.782220726
0.7755365238
0.7679244229
0.7593910122
0.7499030799
0.7394341453
0.7281435312
0.7163628003
0.7045364384
0.6932123045
0.6830064508
0.6744305627
0.6680286672
0.6639929753
0.6624360734
0.6630642821
0.6656860094
0.6697602729
0.6748792555
0.680551274
0.6864123002
0.6921316689
0.6974852776
0.7023104427
0.70652016
0.7100789442
0.7129981893
0.7153209083
0.7171132598
0.7184532529
0.7194234348
0.7201029271
0.7205632653
0.7208647213
0.7210557008
0.7211728594
0.7212427151
0.7212835187
0.7213072328
0.721321393
0.7213304826
0.7213370634
0.7213424768
0.7213473765
0.7213519003
0.7213559778
0.7213589978
0.721360614
0.7213612678
0.721356449
0.7213614704
0.7213353257
0.6223247791
0.7535949632
0.7855720265
0.7880509397
0.7832006506
0.7796542062
0.7747453789
0.7693214537
0.7629474096
0.7556589456
0.7474383127
0.7383194659
0.728328122
0.7175160385
0.7061274983
0.6945801808
0.6833917504
0.6731509136
0.6644443764
0.6577037424
0.6533818668
0.6514973953
0.6520141255
0.6545376035
0.6588278374
0.6643029341
0.6705686694
0.6771545038
0.6837335101
0.6900105473
0.6957960311
0.7009559936
0.7054271045
0.7091921656
0.7122764479
0.7147331164
0.7166355896
0.7180669508
0.719113252
0.719856079
0.7203687821
0.7207130907
0.720938683
0.721083395
0.7211748618
0.7212323832
0.7212688827
0.721292738
0.7213091343
0.7213211903
0.7213306781
0.721338585
0.7213453185
0.7213510242
0.7213552381
0.7213577848
0.7213590121
0.7213547733
0.7213601209
0.7213338702
0.625797813
0.7451157625
0.7691669026
0.7695132699
0.7644254374
0.7603466335
0.7549848649
0.7489914651
0.7420543583
0.7341877492
0.7254189317
0.7158238033
0.705498156
0.6945800237
0.6833979247
0.6724426154
0.662276983
0.6534879168
0.6465934653
0.6419278654
0.6397974325
0.6400839315
0.6426112721
0.6469248922
0.6527506072
0.6594932225
0.6667810878
0.6741734307
0.6813812773
0.6881444105
0.694305165
0.699755682
0.7044537028
0.708398177
0.7116265108
0.7142006909
0.716200383
0.7177129876
0.718827485
0.7196274822
0.7201877916
0.7205713146
0.7208287679
0.7209989792
0.7211105495
0.7211837053
0.7212322295
0.7212652554
0.7212885964
0.7213058733
0.7213192523
0.7213300341
0.7213388844
0.7213461544
0.7213515202
0.7213549713
0.7213567367
0.7213531039
0.7213587077
0.7213324167
0.6263686938
0.7312402277
0.7506310801
0.7493822193
0.7440567204
0.7394008668
0.7335639004
0.7270110363
0.7195404704
0.7111642594
0.7019601422
0.6920582076
0.6816314916
0.670904654
0.6602798055
0.6502971898
0.641528734
0.6345186341
0.6296875845
0.6272518019
0.627342608
0.6297564147
0.6341914728
0.6401667638
0.647387475
0.6552659694
0.6634586834
0.6715594154
0.6793162585
0.6865021882
0.6929885488
0.6986909703
0.7035858324
0.7076862968
0.7110403611
0.7137176709
0.7158032583
0.7173881864
0.718563866
0.7194155442
0.7200191925
0.7204386425
0.7207254528
0.7209192835
0.7210495727
0.7211373658
0.7211972113
0.7212389163
0.7212688561
0.7212911057
0.721308195
0.7213217214
0.7213325983
0.7213413704
0.7213478471
0.7213521752
0.721354443
0.7213514456
0.7213572264
0.721330978
0.623860371
0.7151240374
0.729976708
0.7274535027
0.7218917966
0.716683429
0.7103965525
0.7033454409
0.6954293365
0.6866755244
0.6772160026
0.6672424991
0.6570075247
0.6468151827
0.637121694
0.6284859215
0.6214511774
0.6164850814
0.6138899112
0.6137441087
0.6160316353
0.6204812482
0.6266956533
0.6341920992
0.6426679385
0.651556749
0.6605466265
0.6692675968
0.6775027634
0.6850559807
0.691824632
0.6977453416
0.70281091
0.7070469917
0.7105108237
0.7132787008
0.71544026
0.7170896619
0.718320319
0.7192187917
0.7198619536
0.7203143629
0.7206282555
0.7208439911
0.7209917333
0.7210932489
0.7211637651
0.721213688
0.7212498955
0.7212768762
0.7212974992
0.7213136439
0.7213264604
0.7213366742
0.7213442223
0.7213493992
0.7213521345
0.7213498018
0.7213556744
0.721329582
0.6180068562
0.6982366604
0.707237986
0.7036708915
0.6978985107
0.6922007829
0.6855300382
0.678084446
0.6698583975
0.660911228
0.6514310169
0.6416716584
0.6319598211
0.6226648543
0.6142707788
0.6073209808
0.6022964542
0.5995637474
0.5992930164
0.601422577
0.6058379083
0.6121990487
0.6200502011
0.6289244106
0.638521595
0.6483043838
0.6579943717
0.6672574332
0.6759089052
0.6837810277
0.6907943486
0.6969041933
0.7021177985
0.7064718048
0.7100315135
0.7128789963
0.715107837
0.7168148076
0.7180949536
0.7190358706
0.7197151169
0.7201978082
0.7205367211
0.7207728026
0.7209368436
0.7210512434
0.7211318281
0.7211895346
0.7212316924
0.7212631705
0.7212871565
0.7213057984
0.7213204715
0.7213320686
0.7213406497
0.7213466464
0.721349816
0.7213481707
0.7213540579
0.7213282607
0.6087766656
0.6780629543
0.6825277838
0.6781308732
0.6721849305
0.666086817
0.6591344807
0.6514370954
0.6430746874
0.6341538454
0.6249227001
0.6156923124
0.6068489846
0.5988069212
0.5920480515
0.5870668063
0.5842558241
0.5838660422
0.5859304781
0.5902655111
0.596705487
0.6048356441
0.6141754275
0.6242876049
0.6348813848
0.645452756
0.6557564304
0.6654929043
0.6745065701
0.6826555812
0.6898809729
0.6961547042
0.7014967
0.7059532752
0.7095967782
0.712514304
0.7148028166
0.7165612798
0.7178860569
0.7188655428
0.7195777988
0.7200883587
0.7204504265
0.7207054395
0.7208847285
0.7210112441
0.7211013377
0.7211664178
0.7212142223
0.7212499731
0.7212771587
0.7212981829
0.7213146333
0.7213275565
0.7213371342
0.7213439207
0.7213474941
0.7213465484
0.7213523936
0.7213269494
0.5966623359
0.654963956
0.6560424203
0.6510429622
0.6449592524
0.6385560572
0.63144273
0.6236679953
0.6153799688
0.6067336212
0.5980402065
0.589663414
0.5820269463
0.5755634639
0.5707239769
0.5679250591
0.5674542284
0.5694417135
0.5737885682
0.5802249877
0.5885604055
0.5983088111
0.6089903828
0.6202089815
0.6316852296
0.6429511669
0.653792312
0.6639421871
0.6732710474
0.6816605601
0.6890698274
0.6954856054
0.700938982
0.7054848098
0.7092016052
0.7121808366
0.7145223589
0.716326968
0.717692075
0.7187066765
0.7194491868
0.7199854431
0.7203689811
0.7206416451
0.7208352258
0.720973151
0.721072232
0.7211442978
0.7211974591
0.721237268
0.7212674983
0.721290796
0.7213089478
0.721323142
0.7213336815
0.7213412271
0.7213451769
0.7213449345
0.7213506725
0.7213256964
0.5818721963
0.6296037157
0.6280111938
0.6226535843
0.6164834911
0.6098846866
0.6027347414
0.5950628632
0.5870848376
0.5789898487
0.5711335701
0.563927296
0.5578108085
0.5532048191
0.5505048315
0.5500290366
0.5519524336
0.5562878804
0.5628213079
0.5712387749
0.5813177253
0.592532952
0.6044164586
0.616620835
0.628876901
0.640754249
0.6520662188
0.6625773029
0.6721806747
0.6807792452
0.6883480373
0.6948869922
0.700437037
0.7050605801
0.7088415473
0.7118752198
0.7142639209
0.71610997
0.7175115984
0.7185582394
0.7193285369
0.7198885375
0.7202920276
0.7205811842
0.7207881856
0.7209368695
0.7210444504
0.7211231346
0.7211813769
0.7212250405
0.7212581694
0.7212836377
0.721303418
0.7213188293
0.7213302977
0.7213385715
0.7213428768
0.7213433427
0.7213489019
0.7213245011
0.5646550495
0.6021994676
0.5993781638
0.5930961168
0.5869415445
0.580324033
0.573314496
0.5659514282
0.5585192075
0.5512600315
0.5445400438
0.5387963732
0.5344706417
0.5319430254
0.5315334782
0.53345093
0.5377590975
0.5443641244
0.5529614785
0.5632235813
0.5748875038
0.5874244021
0.6003806923
0.6134618011
0.6264065478
0.638822168
0.6505469236
0.661373936
0.6712166401
0.6799971045
0.6877043907
0.694350216
0.6999842016
0.7046754638
0.7085126813
0.7115944629
0.7140252367
0.7159085818
0.7173433574
0.7184192976
0.7192151752
0.7197971686
0.7202192437
0.7205238444
0.7207434705
0.7209023109
0.7210179344
0.7211028893
0.7211659514
0.7212132774
0.7212491675
0.7212767092
0.7212980476
0.7213146238
0.7213269898
0.7213359601
0.7213406089
0.7213418125
0.7213470811
0.7213233788
0.5451027955
0.5729895107
0.5683152995
0.5626671756
0.5566137649
0.5501581867
0.5434962987
0.5366791535
0.5300354124
0.5238740038
0.5185683872
0.5145421303
0.5122235367
0.5119315428
0.5138954078
0.5182130528
0.5248448811
0.5336063226
0.5441277134
0.5560840742
0.5691826601
0.5829056969
0.5968176595
0.6106775287
0.6242305567
0.6371204306
0.6492074317
0.6603110951
0.6703626858
0.6793015501
0.6871291452
0.6938677345
0.6995746436
0.7043249591
0.7082115437
0.7113359128
0.7138042852
0.7157212747
0.7171862077
0.7182890077
0.7191084932
0.7197109087
0.7201503386
0.7204694328
0.7207009541
0.7208693914
0.7209926275
0.7210835246
0.7211511598
0.7212019679
0.7212404899
0.7212700123
0.7212928406
0.7213105311
0.7213237647
0.7213333986
0.7213383829
0.7213402853
0.7213452166
0.7213223384
0.5232989795
0.5422713353
0.5372869839
0.5315878606
0.5257871655
0.5196721853
0.5135642858
0.5075333158
0.5019427701
0.4971192385
0.4934682957
0.4913706909
0.4912186645
0.4932575073
0.4976175312
0.5042913273
0.5131482288
0.5239312094
0.5362281093
0.549727479
0.5641206584
0.5789053802
0.593667923
0.6082194566
0.6223103559
0.6356186848
0.6480240609
0.6593703686
0.6696045265
0.6786814926
0.6866136892
0.6934328587
0.6992031714
0.7040050437
0.7079350268
0.7110971776
0.7135992354
0.7155466581
0.7170391055
0.7181665996
0.7190079362
0.7196293691
0.720085047
0.7204177714
0.7206605173
0.7208380303
0.7209684753
0.721065005
0.7211369814
0.7211911022
0.7212321346
0.7212635495
0.7212878014
0.7213065574
0.7213206292
0.7213308915
0.7213362155
0.7213388157
0.7213433253
0.7213213918
0.499399997
0.510590254
0.5055984385
0.5001317259
0.4947400755
0.489163935
0.4838175178
0.4787997512
0.4745025614
0.4712386132
0.4694398704
0.4694323909
0.4715500443
0.4759578112
0.482686233
0.4916326423
0.5025902548
0.5152477905
0.5291697702
0.5440682991
0.5596263674
0.5753595833
0.5908784214
0.6060454723
0.6206126448
0.6342907573
0.6469764376
0.6585358932
0.6689298248
0.6781273198
0.6861505297
0.693039744
0.6988652286
0.7037121695
0.7076803744
0.710876124
0.7134084456
0.7153834798
0.7169011091
0.7180513784
0.7189130038
0.7195521989
0.7200231278
0.7203686966
0.7206220482
0.7208081509
0.7209454253
0.7210472969
0.7211233972
0.7211806722
0.7212241005
0.7212573235
0.7212829345
0.7213027087
0.7213175894
0.7213284437
0.7213341137
0.7213373625
0.7213414209
0.721320554
0.4737209031
0.4783680777
0.4737612131
0.4686368565
0.4638028032
0.4589511032
0.4545608695
0.4507592256
0.4479487355
0.4464348606
0.4466398858
0.448830622
0.4532669306
0.4600311917
0.469059388
0.4801657646
0.4930836693
0.5074637304
0.5228635734
0.5390275819
0.555632162
0.57221122
0.5884024646
0.6041191601
0.6191084658
0.6331139002
0.6460467937
0.6577937795
0.6683277297
0.6776305371
0.6857330183
0.6926831839
0.6985567398
0.7034431505
0.7074451018
0.7106708215
0.7132304259
0.7152306017
0.7167713625
0.7179427139
0.7188232428
0.7194790795
0.7199643604
0.7203220559
0.720585441
0.7207796795
0.720923428
0.7210303691
0.7211103903
0.7211706708
0.7212163865
0.7212513367
0.7212782441
0.7212989909
0.7213146501
0.7213260584
0.7213320945
0.721335963
0.7213395207
0.7213198402
0.4466940135
0.4460380245
0.4420222073
0.4373956285
0.4332686337
0.4293141594
0.4260543535
0.4236418489
0.4224782553
0.4228603922
0.4251708836
0.4296170294
0.436373214
0.4454406434
0.4566700011
0.4698046593
0.484535378
0.5004875358
0.5172267456
0.5345331601
0.5520769418
0.5694099288
0.5862008601
0.6024085959
0.6177725427
0.6320682652
0.6452195705
0.657131835
0.6677886827
0.6771836379
0.6853552624
0.6923585442
0.6982740647
0.70319513
0.7072269732
0.710479528
0.7130638293
0.7150869952
0.7166490939
0.7178400386
0.7187382455
0.7194097232
0.7199085438
0.7202777086
0.7205505968
0.7207525473
0.7209024374
0.7210141935
0.7210979455
0.7211610917
0.7212089922
0.7212455917
0.7212737344
0.7212954097
0.7213118152
0.7213237387
0.7213301642
0.7213346109
0.7213376342
0.7213192564
0.4186146953
0.4139903979
0.4106903242
0.4067008827
0.4034113559
0.400502777
0.398518669
0.3976344092
0.3982406525
0.4006163646
0.4050896675
0.4118031831
0.4208426286
0.4321292657
0.4454397736
0.4604598098
0.4768548518
0.4942355145
0.512186618
0.5305208552
0.5489072154
0.5669132758
0.5842414618
0.6008855672
0.6165828438
0.6311364932
0.6444811103
0.6565393037
0.6673042114
0.6767799423
0.6850119863
0.6920616586
0.6980139163
0.7029655179
0.7070239539
0.710300654
0.7129074259
0.7149517216
0.7165335997
0.7177428363
0.7186576401
0.7193438657
0.7198554907
0.7202355214
0.7205174211
0.7207266886
0.7208824102
0.7209987437
0.7210860487
0.721151929
0.7212019163
0.7212400902
0.721269409
0.7212919699
0.7213090878
0.7213214876
0.7213283308