/*--------------------------------*- C++ -*----------------------------------*\
  =========                 |
  \\      /  F ield         | OpenFOAM: The Open Source CFD Toolbox
   \\    /   O peration     | Website:  https://openfoam.org
    \\  /    A nd           | Version:  12
     \\/     M anipulation  |
\*---------------------------------------------------------------------------*/
FoamFile
{
    format      ascii;
    class       volScalarField;
    location    "100";
    object      nut;
}
// * * * * * * * * * * * * * * * * * * * * * * * * * * * * * * * * * * * * * //

dimensions      [0 2 -1 0 0 0 0];

internalField   nonuniform List<scalar> 
16200
(
0.0004842381761
0.001622488926
0.002707378974
0.003575513268
0.003921925943
0.00353138391
0.002629285652
0.001516658351
0.0007285223828
0.0003457261835
1.025735072e-05
3.262853509e-06
2.73971707e-06
2.309452982e-06
1.781294985e-06
1.488872529e-06
1.285317311e-06
1.174562194e-06
1.125967901e-06
1.110258192e-06
1.115294451e-06
1.136810205e-06
1.171754421e-06
1.219548412e-06
1.282821987e-06
1.366369945e-06
1.477139649e-06
1.625585341e-06
1.827398023e-06
2.106928108e-06
2.503659395e-06
3.085202878e-06
3.978178989e-06
5.429884908e-06
7.952425937e-06
1.263054806e-05
2.185724702e-05
4.09517422e-05
8.198050057e-05
0.0001724671731
0.0003760543611
0.000841058946
0.001002466717
0.001001673312
0.001000425229
0.0009993978936
0.0009989506963
0.0009987605944
0.0009986829226
0.0009986540519
0.0009986468639
0.0009986504858
0.0009986615526
0.0009986801452
0.0009987086321
0.000998751412
0.000998814689
0.0009989100675
0.0009990527216
0.0009992800554
0.0004763359107
0.001588203351
0.002624121837
0.003407429344
0.003598620735
0.003088609557
0.002197911556
0.001098657082
0.0005936203812
0.0001313729996
4.051816726e-06
2.709995076e-06
2.299383998e-06
2.049306996e-06
1.573974853e-06
1.315697424e-06
1.138276814e-06
1.043191899e-06
1.004777615e-06
9.950214571e-07
1.002981358e-06
1.024880712e-06
1.058693114e-06
1.104261627e-06
1.164325914e-06
1.24368383e-06
1.349124169e-06
1.490731086e-06
1.683560313e-06
1.950598244e-06
2.328401964e-06
2.878936542e-06
3.716623975e-06
5.06596697e-06
7.391257909e-06
1.167709916e-05
2.009317572e-05
3.745035867e-05
7.467097388e-05
0.0001565547389
0.0003405999773
0.0007602151733
0.0010024116
0.001001660585
0.001000479358
0.0009994276306
0.0009989683733
0.0009987727216
0.0009986928516
0.0009986632697
0.0009986560973
0.0009986599249
0.0009986712534
0.0009986899854
0.0009987184368
0.0009987608601
0.0009988235529
0.0009989182335
0.0009990607999
0.0009992915559
0.000469410358
0.001555487294
0.002542516996
0.003238692288
0.003274353464
0.002658108295
0.001800312747
0.0008270782442
0.0004557318612
2.643181021e-05
2.568869156e-06
2.250847152e-06
1.923846098e-06
1.791559286e-06
1.37884805e-06
1.153309164e-06
1.001287207e-06
9.2144932e-07
8.921256962e-07
8.871388182e-07
8.970111045e-07
9.185591437e-07
9.506169848e-07
9.933980554e-07
1.049686057e-06
1.124272853e-06
1.223889774e-06
1.358465659e-06
1.542638185e-06
1.798370369e-06
2.160003565e-06
2.684886012e-06
3.477369175e-06
4.742506891e-06
6.903700037e-06
1.086209794e-05
1.85934922e-05
3.447980666e-05
6.841309952e-05
0.0001428212395
0.0003094548849
0.0006880771495
0.001002359161
0.001001641028
0.00100052129
0.0009994529129
0.0009989844335
0.000998784325
0.0009987024011
0.0009986721918
0.0009986649094
0.0009986689845
0.0009986804829
0.000998699407
0.0009987278091
0.0009987700633
0.0009988322796
0.0009989264333
0.0009990688657
0.0009993027144
0.0004642814539
0.001524700575
0.002460551447
0.003059157483
0.00294260058
0.002251560394
0.001332743714
0.0006158025519
0.0002848130632
1.187691312e-05
2.075646134e-06
1.880722447e-06
1.623298643e-06
1.511385716e-06
1.209112359e-06
1.011654751e-06
8.815159659e-07
8.151127329e-07
7.934724341e-07
7.924638528e-07
8.03867099e-07
8.250437642e-07
8.555400184e-07
8.959652245e-07
9.491800134e-07
1.020002067e-06
1.115199088e-06
1.24463045e-06
1.422650221e-06
1.67057775e-06
2.021257344e-06
2.528696634e-06
3.289933947e-06
4.495442282e-06
6.538840252e-06
1.026097405e-05
1.749989382e-05
3.233487756e-05
6.39340976e-05
0.0001330770756
0.0002875071752
0.0006376255704
0.001002308786
0.001001614817
0.001000545554
0.0009994707446
0.0009989974996
0.0009987946388
0.0009987114182
0.0009986807294
0.0009986734461
0.0009986776943
0.0009986894475
0.0009987085522
0.0009987370245
0.0009987791333
0.0009988410118
0.0009989347529
0.0009990771321
0.0009993138301
0.0004597853931
0.001495517811
0.002376659495
0.002843946115
0.002597799993
0.001882590428
0.0009544271476
0.0004811068602
0.0001327908329
3.355901005e-06
1.717915181e-06
1.569994245e-06
1.370957101e-06
1.277215884e-06
1.056432646e-06
8.849117408e-07
7.747602969e-07
7.206806467e-07
7.056775775e-07
7.079409584e-07
7.204101872e-07
7.409917763e-07
7.698606045e-07
8.080811735e-07
8.586693419e-07
9.264893187e-07
1.018333607e-06
1.144000427e-06
1.317655525e-06
1.560135439e-06
1.903166583e-06
2.398204829e-06
3.136526068e-06
4.296722733e-06
6.248678566e-06
9.784610084e-06
1.663453402e-05
3.063398445e-05
6.03777492e-05
0.0001253091341
0.0002699581894
0.0005971000039
0.00100226172
0.001001584337
0.001000556254
0.0009994830241
0.0009990083929
0.0009988041202
0.0009987200748
0.0009986890489
0.0009986817631
0.0009986861723
0.0009986981571
0.0009987174569
0.0009987460428
0.0009987880964
0.0009988497367
0.0009989431901
0.0009990855694
0.0009993248798
0.0004551937869
0.001466890892
0.002291021403
0.002623067279
0.002255310981
0.001543840655
0.0007096123001
0.0003689815594
3.249203654e-05
1.854930447e-06
1.435481373e-06
1.31575255e-06
1.163002486e-06
1.084569401e-06
9.226820623e-07
7.741940059e-07
6.815532473e-07
6.380537468e-07
6.281150829e-07
6.325138078e-07
6.453703593e-07
6.651904704e-07
6.926309882e-07
7.291301314e-07
7.778512555e-07
8.437063718e-07
9.335017127e-07
1.056998129e-06
1.228259912e-06
1.467850891e-06
1.806795107e-06
2.294768924e-06
3.018830792e-06
4.148504217e-06
6.035889136e-06
9.437145033e-06
1.600321169e-05
2.939002327e-05
5.776821312e-05
0.0001195857933
0.0002569629038
0.000566926434
0.001002217784
0.001001550639
0.001000553584
0.0009994896095
0.0009990169259
0.0009988126149
0.0009987282565
0.0009986970603
0.0009986898063
0.0009986943774
0.0009987065959
0.0009987261168
0.0009987548624
0.0009987969444
0.0009988584578
0.0009989517465
0.0009990941945
0.000999335905
0.0004499736077
0.001437658829
0.002201436504
0.002390399924
0.001919172296
0.001184327033
0.00053336245
0.000249573641
1.307300225e-05
1.473419654e-06
1.204514189e-06
1.104538509e-06
9.868661183e-07
9.212715785e-07
8.021457445e-07
6.746942749e-07
5.978318053e-07
5.636789824e-07
5.577957704e-07
5.637682883e-07
5.768919454e-07
5.962674873e-07
6.228969639e-07
6.584398195e-07
7.061372538e-07
7.709687739e-07
8.598294239e-07
9.824827143e-07
1.152944564e-06
1.391645089e-06
1.729337349e-06
2.214315177e-06
2.930605329e-06
4.040812835e-06
5.883619634e-06
9.188411621e-06
1.55482911e-05
2.848603264e-05
5.585672047e-05
0.0001153562418
0.0002472761139
0.0005442286959
0.001002176812
0.001001514845
0.001000539536
0.0009994912598
0.000999023381
0.0009988202284
0.0009987360136
0.0009987047989
0.0009986976076
0.0009987023421
0.0009987147943
0.0009987345584
0.0009987635092
0.0009988056985
0.0009988671883
0.0009989604301
0.0009991030165
0.0009993469183
0.0004437462583
0.001406549668
0.002105458865
0.002139496676
0.001602497707
0.0008581898744
0.0004082334387
0.0001443052423
4.085658643e-06
1.219708353e-06
1.009246146e-06
9.237745637e-07
8.320905805e-07
7.775981238e-07
6.899502228e-07
5.827973604e-07
5.21076102e-07
4.959714874e-07
4.940791092e-07
5.017855397e-07
5.154318979e-07
5.346734038e-07
5.609061334e-07
5.96049837e-07
6.433918297e-07
7.079692511e-07
7.968036594e-07
9.197572133e-07
1.090854233e-06
1.330514004e-06
1.669154024e-06
2.154862983e-06
2.869045168e-06
3.969403045e-06
5.784971187e-06
9.02647816e-06
1.524733644e-05
2.787754536e-05
5.454903612e-05
0.0001124155305
0.0002404328102
0.0005279420406
0.001002138332
0.001001477674
0.00100051565
0.0009994885151
0.0009990279212
0.0009988269948
0.0009987433456
0.0009987122601
0.0009987051695
0.0009987100747
0.0009987227671
0.0009987427987
0.0009987720004
0.000998814373
0.0009988759406
0.0009989692484
0.000999112046
0.0009993579369
0.0004365541812
0.001371827439
0.001998420955
0.00188114214
0.001313296227
0.0006351127445
0.0003252844512
4.684419647e-05
1.666394112e-06
1.014057561e-06
8.469623799e-07
7.744500928e-07
7.019320155e-07
6.568484488e-07
5.910641944e-07
5.020149891e-07
4.537010539e-07
4.365505225e-07
4.381107506e-07
4.474061121e-07
4.616571883e-07
4.808563523e-07
5.067290087e-07
5.416548575e-07
5.891075355e-07
6.540772473e-07
7.436435098e-07
8.678291847e-07
1.040746153e-06
1.282870006e-06
1.624668903e-06
2.113864816e-06
2.830569892e-06
3.928937108e-06
5.731467066e-06
8.936937984e-06
1.507393725e-05
2.751277228e-05
5.373739884e-05
0.0001105302072
0.0002359110036
0.0005168773182
0.0010021018
0.001001439628
0.001000483684
0.0009994820427
0.0009990307807
0.0009988329886
0.0009987502762
0.0009987194558
0.0009987125055
0.0009987175922
0.0009987305346
0.0009987508589
0.0009987803567
0.0009988229851
0.0009988847286
0.0009989782093
0.0009991212911
0.0009993689724
0.0004279737379
0.001332119228
0.001851982454
0.001616438977
0.001025579159
0.0004732117634
0.0002398352052
2.547926596e-05
1.173047859e-06
8.548488571e-07
7.215845787e-07
6.602047148e-07
6.019731611e-07
5.639336901e-07
5.115471233e-07
4.366880717e-07
3.985835143e-07
3.869152303e-07
3.901437246e-07
3.999328451e-07
4.144886411e-07
4.33895771e-07
4.597306071e-07
4.946290138e-07
5.425272784e-07
6.085035153e-07
6.995286478e-07
8.257387505e-07
1.001463556e-06
1.247334164e-06
1.594006813e-06
2.089187531e-06
2.812335237e-06
3.915363319e-06
5.716924385e-06
8.909625477e-06
1.500993758e-05
2.735678427e-05
5.335000754e-05
0.0001095461126
0.000233367232
0.0005102538059
0.001002066633
0.001001400982
0.001000445248
0.0009994724646
0.0009990321801
0.0009988382794
0.0009987568253
0.0009987263942
0.0009987196255
0.0009987249088
0.0009987381149
0.0009987587588
0.0009987885979
0.0009988315515
0.0009988935638
0.0009989873197
0.0009991307567
0.0009993800343
0.0004167931913
0.001286394853
0.001686065423
0.001355643871
0.0007475864036
0.0003569196422
0.0001569448907
1.372257913e-05
9.257636806e-07
7.19111596e-07
6.146985827e-07
5.624553076e-07
5.164239455e-07
4.85602607e-07
4.436939166e-07
3.82434896e-07
3.533383509e-07
3.458269438e-07
3.495478179e-07
3.586273955e-07
3.726492085e-07
3.923202229e-07
4.188183519e-07
4.543041943e-07
5.030066038e-07
5.704648121e-07
6.636090924e-07
7.925248858e-07
9.718533273e-07
1.222540155e-06
1.575529963e-06
2.078790424e-06
2.811671057e-06
3.924962065e-06
5.735792835e-06
8.935604614e-06
1.503969e-05
2.737990797e-05
5.332660439e-05
0.0001093348237
0.0002325173668
0.0005074278636
0.001002032278
0.001001361841
0.001000401847
0.0009994603797
0.0009990323416
0.0009988429425
0.0009987630182
0.0009987330874
0.0009987265413
0.0009987320397
0.0009987455267
0.0009987665184
0.0009987967438
0.0009988400893
0.0009989024572
0.000998996585
0.0009991404456
0.0009993911289
0.0004032910081
0.001233113688
0.001508176422
0.001112229688
0.0005388838608
0.0002767298779
9.2586459e-05
6.124419302e-06
7.520613431e-07
5.979097253e-07
5.164801589e-07
4.718292731e-07
4.359612888e-07
4.117571744e-07
3.784883743e-07
3.307746234e-07
3.109609101e-07
3.08561e-07
3.142136795e-07
3.23335906e-07
3.36510164e-07
3.557753884e-07
3.831054489e-07
4.199980371e-07
4.700691992e-07
5.393023877e-07
6.350283244e-07
7.672398088e-07
9.508206513e-07
1.207203782e-06
1.567736569e-06
2.080850195e-06
2.826258555e-06
3.954595914e-06
5.783522255e-06
9.007741373e-06
1.515098976e-05
2.755939951e-05
5.36215802e-05
0.0001097998732
0.0002331488354
0.0005079181316
0.001001998237
0.001001322183
0.001000354806
0.0009994463302
0.0009990314728
0.0009988470516
0.0009987688809
0.0009987395477
0.0009987332652
0.0009987389998
0.0009987527881
0.0009987741573
0.0009988048139
0.0009988486152
0.0009989114226
0.0009990060123
0.000999150359
0.0009994022609
0.0003881559176
0.001171758998
0.001323614903
0.0008591030354
0.0004041737606
0.0002107429802
3.529431623e-05
2.72184276e-06
6.144645094e-07
4.989995159e-07
4.337553399e-07
3.95615495e-07
3.670903286e-07
3.476908582e-07
3.200340933e-07
2.83498603e-07
2.712100151e-07
2.728832718e-07
2.80836114e-07
2.91935675e-07
3.059819549e-07
3.249311445e-07
3.5251812e-07
3.910389801e-07
4.431170542e-07
5.144070164e-07
6.129478518e-07
7.489381287e-07
9.373304779e-07
1.200130842e-06
1.569246076e-06
2.093721002e-06
2.854041496e-06
4.001543174e-06
5.856254439e-06
9.120122096e-06
1.533392665e-05
2.787708577e-05
5.419891321e-05
0.0001108655851
0.0002350954702
0.000511348458
0.001001964088
0.001001281903
0.001000305271
0.0009994307987
0.0009990297654
0.0009988506787
0.0009987744407
0.0009987457895
0.0009987398103
0.0009987458048
0.0009987599172
0.0009987816948
0.0009988128273
0.0009988571457
0.0009989204739
0.00099901561
0.0009991604975
0.0009994134324
0.0003712693899
0.001100292467
0.001132977593
0.000637192028
0.000311549386
0.0001541276678
1.844139096e-05
1.408315519e-06
5.035359517e-07
4.187840151e-07
3.657861454e-07
3.33619512e-07
3.109240467e-07
2.956677732e-07
2.723993218e-07
2.452063595e-07
2.38316255e-07
2.419434637e-07
2.505398464e-07
2.628675979e-07
2.789130215e-07
2.993239789e-07
3.2737006e-07
3.670057185e-07
4.213018866e-07
4.95067983e-07
5.965940095e-07
7.367183272e-07
9.304182037e-07
1.200233217e-06
1.578840968e-06
2.115943873e-06
2.893232216e-06
4.063488322e-06
5.950783633e-06
9.267950037e-06
1.558063957e-05
2.831880032e-05
5.503085871e-05
0.0001124740318
0.0002382303596
0.0005174314246
0.001001929487
0.001001240843
0.001000254207
0.0009994142036
0.0009990273912
0.0009988538908
0.0009987797247
0.0009987518274
0.00099874619
0.0009987524702
0.0009987669317
0.0009987891497
0.0009988208024
0.000998865697
0.0009989296218
0.000999025384
0.0009991708616
0.0009994246449
0.0003531299522
0.001019264931
0.0009380592959
0.0004701118794
0.0002463453459
0.0001062439582
1.225885023e-05
8.262458853e-07
4.170083375e-07
3.526112584e-07
3.103904806e-07
2.834189814e-07
2.653758197e-07
2.535150793e-07
2.337758553e-07
2.143820733e-07
2.115006211e-07
2.164792287e-07
2.254290487e-07
2.378034004e-07
2.54722639e-07
2.772545362e-07
3.069722774e-07
3.475714206e-07
4.038380161e-07
4.805028533e-07
5.85281845e-07
7.297672846e-07
9.291992117e-07
1.206533583e-06
1.595347203e-06
2.146235122e-06
2.942282564e-06
4.138465524e-06
6.064449015e-06
9.447337835e-06
1.588489979e-05
2.887351746e-05
5.60960776e-05
0.0001145809204
0.0002424566691
0.0005259479325
0.001001894167
0.001001198825
0.001000202411
0.0009993969013
0.0009990245018
0.0009988567499
0.0009987847596
0.0009987576771
0.0009987524187
0.0009987590119
0.0009987738495
0.0009987965404
0.0009988287569
0.0009988742844
0.000998938876
0.0009990353386
0.0009991814501
0.0009994358984
0.000335139779
0.0009308526782
0.0007495944347
0.0003673239587
0.0002014775855
6.183275988e-05
5.607815855e-06
5.391517162e-07
3.468074756e-07
2.959676586e-07
2.626455464e-07
2.404116681e-07
2.263089201e-07
2.176148514e-07
2.014250298e-07
1.888023439e-07
1.889285428e-07
1.947689141e-07
2.041497725e-07
2.170575374e-07
2.344534198e-07
2.583209476e-07
2.897634097e-07
3.321542424e-07
3.903044776e-07
4.700224898e-07
5.783805226e-07
7.273705117e-07
9.328678419e-07
1.218158707e-06
1.617817792e-06
2.183474093e-06
2.999863849e-06
4.22481978e-06
6.195061761e-06
9.655167832e-06
1.624183383e-05
2.953278087e-05
5.737842074e-05
0.0001171529624
0.0002477019
0.0005367345708
0.001001857927
0.001001155669
0.001000150525
0.00099937919
0.0009990212284
0.0009988593118
0.0009987895712
0.0009987633548
0.0009987585112
0.0009987654458
0.0009987806875
0.0009988038846
0.0009988367078
0.0009988829226
0.0009989482491
0.0009990454791
0.0009991922595
0.0009994471915
0.0003196921079
0.0008330489774
0.0006015401095
0.0003030697585
0.0001659473657
2.978283064e-05
2.410234954e-06
3.906655877e-07
2.87967551e-07
2.4707654e-07
2.20575027e-07
2.025512361e-07
1.917731983e-07
1.85855696e-07
1.73326338e-07
1.667273657e-07
1.696028602e-07
1.763140846e-07
1.859311979e-07
1.99416039e-07
2.177457683e-07
2.425696673e-07
2.753102078e-07
3.201694272e-07
3.804808526e-07
4.630955957e-07
5.752706215e-07
7.288926289e-07
9.407033247e-07
1.234338859e-06
1.645395337e-06
2.226694483e-06
3.064847468e-06
4.321171882e-06
6.340841117e-06
9.888972917e-06
1.664769227e-05
3.029023845e-05
5.886596098e-05
0.0001201658328
0.0002539135019
0.0005496738288
0.001001820626
0.001001111206
0.001000099063
0.0009993613155
0.0009990176827
0.0009988616267
0.0009987941844
0.0009987688772
0.0009987644827
0.0009987717877
0.0009987874626
0.0009988111993
0.0009988446713
0.0009988916254
0.0009989577538
0.0009990558121
0.0009992032857
0.0009994585204
0.0003103511622
0.0007291971511
0.0004873012441
0.0002544145119
0.0001323678326
1.699290052e-05
1.140756539e-06
3.017267426e-07
2.397952227e-07
2.067131939e-07
1.85595071e-07
1.712116528e-07
1.631098358e-07
1.592696342e-07
1.498691095e-07
1.476801145e-07
1.524945078e-07
1.603457921e-07
1.70659932e-07
1.846394857e-07
2.038599992e-07
2.29615146e-07
2.64214781e-07
3.111950096e-07
3.739623802e-07
4.592659519e-07
5.753490427e-07
7.337575157e-07
9.520701323e-07
1.254392305e-06
1.677337092e-06
2.275067889e-06
3.136281392e-06
4.426380681e-06
6.500351184e-06
1.014682547e-05
1.709964467e-05
3.114124505e-05
6.055019773e-05
0.0001236025329
0.0002610553629
0.0005646859592
0.00100178217
0.001001065291
0.001000048424
0.0009993434765
0.0009990139586
0.0009988637388
0.000998798623
0.0009987742611
0.0009987703486
0.0009987780534
0.000998794191
0.0009988185007
0.0009988526629
0.0009989004058
0.0009989673985
0.0009990663425
0.0009992145236
0.0009994698802
0.000309731661
0.0006250414767
0.0003937673663
0.0002148574952
9.988735396e-05
1.114536029e-05
5.760356624e-07
2.407507634e-07
2.002926732e-07
1.734363028e-07
1.566545492e-07
1.454473784e-07
1.396253809e-07
1.375383559e-07
1.3111099e-07
1.319865402e-07
1.37812437e-07
1.463907155e-07
1.576639297e-07
1.72545162e-07
1.926033687e-07
2.195212646e-07
2.562570301e-07
3.047150791e-07
3.700970697e-07
4.58097326e-07
5.780881313e-07
7.414503247e-07
9.664201307e-07
1.277734248e-06
1.713007969e-06
2.327892725e-06
3.213370645e-06
4.539512312e-06
6.672451001e-06
1.042725395e-05
1.759563357e-05
3.208259587e-05
6.242554784e-05
0.0001274523697
0.0002691055389
0.0005817231877
0.001001742502
0.0010010178
0.0009999989124
0.0009993258312
0.0009990101342
0.0009988656879
0.0009988029105
0.0009987795239
0.0009987761245
0.0009987842583
0.0009988008882
0.000998825804
0.0009988606966
0.0009989092756
0.0009989771852
0.0009990770698
0.0009992259671
0.0009994812644
0.0003193237955
0.0005262843348
0.0003254469938
0.0001872429525
5.614364248e-05
4.899718643e-06
3.252433392e-07
1.959593258e-07
1.672354346e-07
1.455187142e-07
1.32388673e-07
1.239163312e-07
1.201047161e-07
1.195539175e-07
1.159813029e-07
1.190540885e-07
1.25600409e-07
1.346140803e-07
1.467150128e-07
1.626435661e-07
1.836971814e-07
2.119501943e-07
2.503261024e-07
3.003564088e-07
3.682736429e-07
4.591805026e-07
5.830603848e-07
7.515191522e-07
9.832818471e-07
1.303860115e-06
1.751868998e-06
2.384580256e-06
3.295458946e-06
4.659812813e-06
6.856250869e-06
1.072916945e-05
1.813424469e-05
3.311228439e-05
6.448886899e-05
0.0001317099338
0.0002780538016
0.0006007631865
0.001001701597
0.001000968636
0.0009999507549
0.000999308503
0.0009990062744
0.0009988675095
0.0009988070693
0.0009987846828
0.0009987818256
0.0009987904172
0.0009988075689
0.0009988331237
0.0009988687855
0.0009989182452
0.000998987121
0.0009990879907
0.0009992376086
0.0009994926654
0.0003384804396
0.0004670251916
0.0002826092844
0.0001661075604
2.738538279e-05
1.842091538e-06
2.182773833e-07
1.613910414e-07
1.397031434e-07
1.223401555e-07
1.122098181e-07
1.061188482e-07
1.040697284e-07
1.048104992e-07
1.037394793e-07
1.08248748e-07
1.154115384e-07
1.249541589e-07
1.377732698e-07
1.545594325e-07
1.767216809e-07
2.062292467e-07
2.458727952e-07
2.979201281e-07
3.681880639e-07
4.621526667e-07
5.899104838e-07
7.635714946e-07
1.002253005e-06
1.332342943e-06
1.793470113e-06
2.444645026e-06
3.382014079e-06
4.786686891e-06
7.05108093e-06
1.105181713e-05
1.871462804e-05
3.422936504e-05
6.673919058e-05
0.0001363744752
0.0002878999124
0.0006218041161
0.001001659452
0.001000917722
0.0009999041129
0.0009992915871
0.0009990024333
0.0009988692362
0.0009988111214
0.0009987897549
0.000998787467
0.0009987965442
0.0009988142469
0.0009988404731
0.000998876942
0.0009989273242
0.0009989972175
0.0009990991033
0.0009992494394
0.0009995040745
0.0003636003406
0.0004260771716
0.0002522381407
0.0001449093908
1.441150281e-05
6.863137925e-07
1.659044513e-07
1.340289742e-07
1.171009337e-07
1.034214014e-07
9.562653403e-08
9.161500888e-08
9.105048192e-08
9.242704407e-08
9.382696548e-08
9.926485987e-08
1.069308959e-07
1.170592621e-07
1.305074865e-07
1.480867335e-07
1.713228786e-07
2.020477641e-07
2.43011178e-07
2.971044004e-07
3.696370072e-07
4.666836749e-07
5.983240064e-07
7.772676274e-07
1.022988789e-06
1.362819167e-06
1.837430754e-06
2.507680025e-06
3.472596244e-06
4.919656338e-06
7.256435224e-06
1.139469704e-05
1.93363779e-05
3.543375306e-05
6.917733032e-05
0.0001414490321
0.000298651398
0.0006448590111
0.001001616082
0.001000864999
0.0009998590967
0.0009992751561
0.0009989986565
0.0009988708977
0.000998815088
0.0009987947566
0.000998793063
0.0009988026528
0.0009988209353
0.0009988478645
0.0009988851768
0.000998936521
0.0009990074798
0.0009991104052
0.0009992614498
0.0009995154815
0.0003928465511
0.0003837750425
0.0002354147145
0.0001209545249
8.687005475e-06
2.693395184e-07
1.343325915e-07
1.121452706e-07
9.88759969e-08
8.790174117e-08
8.213915933e-08
7.989847876e-08
8.053975157e-08
8.251903643e-08
8.573084576e-08
9.178458033e-08
9.99162336e-08
1.106003912e-07
1.24635969e-07
1.430465826e-07
1.672927735e-07
1.992271705e-07
2.41588419e-07
2.975993584e-07
3.723616508e-07
4.724872323e-07
6.080266275e-07
7.923194443e-07
1.045200286e-06
1.39498754e-06
1.883439391e-06
2.573356638e-06
3.56685765e-06
5.058359009e-06
7.471968412e-06
1.175755562e-05
1.999951094e-05
3.672616186e-05
7.180569779e-05
0.0001469398046
0.00031032172
0.0006699513453
0.00100157152
0.001000810415
0.0009998157767
0.0009992592653
0.0009989949831
0.0009988725217
0.0009988189892
0.0009987997039
0.000998798627
0.0009988087554
0.000998827646
0.000998855309
0.0009988934997
0.0009989458426
0.000999017908
0.0009991218924
0.0009992736289
0.0009995268753
0.0004242600418
0.0003639593564
0.0002292943873
7.651212628e-05
2.585224383e-06
1.42835102e-07
1.119023869e-07
9.475590359e-08
8.379458782e-08
7.515074106e-08
7.119713587e-08
7.043657348e-08
7.203618146e-08
7.471068811e-08
7.905757614e-08
8.557636972e-08
9.415614005e-08
1.053691861e-07
1.200229534e-07
1.39267915e-07
1.64446802e-07
1.975609059e-07
2.413036968e-07
2.991576853e-07
3.761284449e-07
4.793280371e-07
6.18789404e-07
8.084889536e-07
1.068650658e-06
1.428604922e-06
1.931248586e-06
2.641418307e-06
3.664535189e-06
5.202539757e-06
7.697481056e-06
1.214036042e-05
2.070441533e-05
3.810798236e-05
7.462797326e-05
0.0001528552906
0.0003229281517
0.0006971108245
0.001001525814
0.00100075392
0.0009997741932
0.0009992439567
0.0009989914472
0.0009988741336
0.0009988228439
0.0009988046114
0.0009988041717
0.0009988148638
0.0009988343897
0.0009988628167
0.0009989019191
0.0009989552952
0.0009990285034
0.0009991335592
0.000999285965
0.0009995382439
0.0004601230299
0.0003606904798
0.0002288482953
3.383689503e-05
5.271613822e-07
1.09161421e-07
9.434992656e-08
8.031535863e-08
7.124536468e-08
6.466629012e-08
6.233339131e-08
6.278360166e-08
6.513435117e-08
6.847946774e-08
7.353744357e-08
8.045939927e-08
8.947745776e-08
1.012138992e-07
1.165100214e-07
1.365530598e-07
1.625771549e-07
1.968410902e-07
2.41947745e-07
3.01578895e-07
3.807423091e-07
4.870085023e-07
6.304180321e-07
8.255755264e-07
1.093138836e-06
1.46346609e-06
1.980649917e-06
2.711649619e-06
3.765412136e-06
5.35200277e-06
7.932858874e-06
1.254321621e-05
2.145172042e-05
3.95810485e-05
7.764862896e-05
0.0001592052603
0.0003364897666
0.0007263704706
0.001001479028
0.001000695458
0.0009997343656
0.0009992292634
0.0009989880786
0.0009988757566
0.0009988266695
0.0009988094929
0.0009988097086
0.0009988209882
0.0009988411764
0.0009988703964
0.0009989104419
0.0009989648825
0.0009990392655
0.0009991453982
0.0009992984449
0.0009995495741
0.0005079779076
0.0003630842189
0.0002261954469
1.586482539e-05
1.800850466e-07
9.105924871e-08
7.967361516e-08
6.82465339e-08
6.084426862e-08
5.612573001e-08
5.520407121e-08
5.660637122e-08
5.953436419e-08
6.345273924e-08
6.898670158e-08
7.628061482e-08
8.572223211e-08
9.796806669e-08
1.138971221e-07
1.34659364e-07
1.615073013e-07
1.968702656e-07
2.433327643e-07
3.046928626e-07
3.860471687e-07
4.953589074e-07
6.427457255e-07
8.434133585e-07
1.118497467e-06
1.499401559e-06
2.031470797e-06
2.783874567e-06
3.869316447e-06
5.506607594e-06
8.178066308e-06
1.29663473e-05
2.224224816e-05
4.114750499e-05
8.087258643e-05
0.0001659999719
0.0003510260277
0.0007577651704
0.001001431241
0.001000634951
0.0009996962979
0.0009992152107
0.0009989849032
0.0009988774114
0.0009988304816
0.0009988143605
0.0009988152483
0.0009988271384
0.0009988480146
0.0009988780555
0.0009989190739
0.0009989746076
0.0009990501927
0.0009991574007
0.0009993110544
0.0009995608518
0.0005571552205
0.0003596699268
0.0002150907544
8.959102894e-06
1.186521789e-07
7.667729771e-08
6.760505596e-08
5.828895072e-08
5.237567475e-08
4.930813467e-08
4.953808213e-08
5.164289094e-08
5.500031654e-08
5.937147463e-08
6.526077425e-08
7.290109793e-08
8.274463434e-08
9.547641512e-08
1.119989231e-07
1.333973121e-07
1.610896591e-07
1.974976572e-07
2.453055004e-07
3.083504642e-07
3.91902907e-07
5.042398986e-07
6.556360246e-07
8.618746379e-07
1.144600719e-06
1.536287568e-06
2.083589041e-06
2.857975411e-06
3.976144816e-06
5.666299265e-06
8.43317998e-06
1.341013109e-05
2.307703314e-05
4.280977568e-05
8.430505387e-05
0.0001732497922
0.0003665563603
0.000791332181
0.001001382557
0.001000572292
0.000999659984
0.0009992018185
0.0009989819434
0.0009988791163
0.0009988342942
0.0009988192253
0.0009988208001
0.0009988333226
0.0009988549118
0.0009988858004
0.0009989278191
0.0009989844719
0.0009990612816
0.0009991695562
0.0009993237778
0.0009995720619
0.0005915806698
0.0003497932083
0.0001926222528
5.73447925e-06
8.868553394e-08
6.52588598e-08
5.779773206e-08
5.015741201e-08
4.558697319e-08
4.394912363e-08
4.506068107e-08
4.765687603e-08
5.132945663e-08
5.604853606e-08
6.223183983e-08
7.019346564e-08
8.041396991e-08
9.36025535e-08
1.106673629e-07
1.326531309e-07
1.611880921e-07
1.986090826e-07
2.477320721e-07
3.124247387e-07
3.981763779e-07
5.13536408e-07
6.689714517e-07
8.808473118e-07
1.171337915e-06
1.574012647e-06
2.136893648e-06
2.933841929e-06
4.085800829e-06
5.83103171e-06
8.698286509e-06
1.387495176e-05
2.395709284e-05
4.457017567e-05
8.795086508e-05
0.0001809641779
0.0003830989607
0.0008271104414
0.001001333105
0.001000507328
0.000999625411
0.0009991891018
0.0009989792179
0.0009988808869
0.0009988381193
0.000998824097
0.0009988263724
0.0009988395482
0.0009988618743
0.0009988936359
0.0009989366803
0.0009989944748
0.0009990725274
0.0009991818533
0.0009993365978
0.0009995831902
0.0005858135436
0.0003451219955
0.0001641353843
2.31622558e-06
7.131881619e-08
5.611571032e-08
4.983407186e-08
4.353752317e-08
4.019150846e-08
3.974646621e-08
4.150220959e-08
4.443814196e-08
4.83482478e-08
5.334012237e-08
5.978333244e-08
6.804239857e-08
7.861461638e-08
9.222934719e-08
1.09788869e-07
1.323440554e-07
1.616901032e-07
2.001132243e-07
2.505086142e-07
3.168247467e-07
4.047663068e-07
5.231644625e-07
6.826695778e-07
9.002473866e-07
1.198629418e-06
1.612497431e-06
2.191307807e-06
3.011400755e-06
4.198229268e-06
6.000805993e-06
8.973524757e-06
1.436124183e-05
2.488345865e-05
4.643091688e-05
9.181446386e-05
0.0001891517637
0.0004006714336
0.0008651423367
0.001001283052
0.001000439849
0.0009995925612
0.0009991770711
0.0009989767418
0.0009988827362
0.0009988419673
0.0009988289842
0.0009988319724
0.0009988458214
0.000998868907
0.0009989015655
0.0009989456585
0.0009990046143
0.0009990839225
0.0009991942795
0.0009993494955
0.0009995942225
0.0005709931279
0.0003439992859
9.496120721e-05
7.894798544e-07
5.967451622e-08
4.871705426e-08
4.337144496e-08
3.82058614e-08
3.595947644e-08
3.64376381e-08
3.864011406e-08
4.181960326e-08
4.591906892e-08
5.113500677e-08
5.781471242e-08
6.634902061e-08
7.724909762e-08
9.126223381e-08
1.092843251e-07
1.324289223e-07
1.625100498e-07
2.019284867e-07
2.535508494e-07
3.214769656e-07
4.115995091e-07
5.330468989e-07
6.966607121e-07
9.19998963e-07
1.226399554e-06
1.651663559e-06
2.246750946e-06
3.090572148e-06
4.313364397e-06
6.175605872e-06
9.258999646e-06
1.486935659e-05
2.585698064e-05
4.839379855e-05
9.589945101e-05
0.0001978198254
0.000419290346
0.0009054731657
0.001001232612
0.001000369566
0.0009995614137
0.0009991657332
0.0009989745271
0.000998884675
0.0009988458472
0.0009988338942
0.0009988376062
0.0009988521471
0.0009988760138
0.0009989095911
0.0009989547532
0.0009990148866
0.0009990954578
0.0009992068204
0.0009993624507
0.0009996051437
0.0005515416298
0.0003399559811
4.912191744e-05
2.816596075e-07
5.116884868e-08
4.25945586e-08
3.80121505e-08
3.389703504e-08
3.266270594e-08
3.381642577e-08
3.631101775e-08
3.96735394e-08
4.393468267e-08
4.934306758e-08
5.623918207e-08
6.50282197e-08
7.623411056e-08
9.062195181e-08
1.090904443e-07
1.328351653e-07
1.635796064e-07
2.039774764e-07
2.567948353e-07
3.263193295e-07
4.186274988e-07
5.431253959e-07
7.108912339e-07
9.400488518e-07
1.254594655e-06
1.691457153e-06
2.303169981e-06
3.171307123e-06
4.431174849e-06
6.355450203e-06
9.554841217e-06
1.539964e-05
2.687840279e-05
5.046030838e-05
0.0001002087728
0.0002069746998
0.0004389719032
0.0009481508732
0.001001182069
0.001000300131
0.0009995319442
0.0009991550908
0.0009989725825
0.0009988867122
0.0009988497663
0.0009988388332
0.0009988432789
0.0009988585292
0.0009988831969