/*--------------------------------*- C++ -*----------------------------------*\
  =========                 |
  \\      /  F ield         | OpenFOAM: The Open Source CFD Toolbox
   \\    /   O peration     | Website:  https://openfoam.org
    \\  /    A nd           | Version:  12
     \\/     M anipulation  |
\*---------------------------------------------------------------------------*/
FoamFile
{
    format      ascii;
    class       volScalarField;
    location    "100";
    object      omega;
}
// * * * * * * * * * * * * * * * * * * * * * * * * * * * * * * * * * * * * * //

dimensions      [0 0 -1 0 0 0 0];

internalField   nonuniform List<scalar> 
16200
(
669620.0638
263116.9173
147934.827
101849.5933
78985.68747
64691.8405
51932.8003
33738.14023
9586.822886
892.5341343
276.0171872
169.084498
109.8540144
74.12471597
53.15197113
38.75297892
28.26273984
20.84397119
15.76028425
12.07545652
9.372685839
7.373016744
5.879740985
4.753622029
3.895308737
3.234439153
2.720553753
2.317189997
1.998312279
1.745969787
1.547988611
1.39512604
1.27856714
1.189870989
1.122738505
1.073280222
1.038743515
1.016266734
1.002657276
0.9949299758
0.9907897099
0.9887227148
0.9878405209
0.9871960987
0.9862018119
0.985383658
0.9850127682
0.9848438548
0.9847697191
0.984747105
0.9847631935
0.9848209902
0.9849339329
0.9851247955
0.9854277833
0.9858932585
0.9865959769
0.9876540976
0.9892637429
0.9918139029
699164.6501
275571.0263
155166.3666
107190.98
83323.1898
67617.83882
52516.67326
28571.27154
5318.312585
591.6619166
277.1105139
172.5641214
111.9402976
75.18096047
53.68171517
39.04498659
28.37425799
20.83461942
15.71170878
12.01296139
9.306998384
7.309769975
5.821656295
4.702023979
3.85073879
3.196977795
2.689964594
2.292974242
1.979675012
1.731877598
1.53741913
1.387384917
1.273303711
1.186735038
1.121211891
1.07275445
1.038706681
1.016397078
1.00280338
0.9950412213
0.9908577705
0.9887514308
0.987834566
0.9872271827
0.986289092
0.9854572746
0.9850828234
0.9849158332
0.9848465168
0.9848299817
0.9848525393
0.9849163898
0.9850343709
0.9852285006
0.9855322942
0.9859954547
0.986692841
0.9877444485
0.9893541002
0.9919415429
727665.8838
287899.2629
162424.5805
112619.4273
87605.40442
70215.48989
51687.25666
22076.43098
2820.227646
497.0172309
281.282117
175.6047284
113.7152151
76.07608836
54.06602695
39.2230434
28.40151117
20.76400411
15.61743585
11.91643968
9.215662798
7.226926255
5.748496607
4.638775897
3.797134631
3.152489555
2.653901882
2.264527022
1.957837142
1.715433293
1.525138225
1.378359116
1.267027278
1.182787373
1.119057767
1.071779043
1.038376218
1.016352506
1.002854215
0.9951050124
0.9909054062
0.988774295
0.9878279003
0.9872500089
0.98636368
0.9855238777
0.9851477762
0.9849832794
0.9849186605
0.9849080946
0.9849369514
0.9850069586
0.9851301692
0.9853281201
0.98563351
0.9860956095
0.9867890788
0.9878356026
0.9894456885
0.9920676791
754549.8137
299742.8634
169626.747
118112.2801
91577.94931
72296.03624
48784.74313
15180.33211
1556.762878
472.2869242
284.8665881
177.9480191
115.0421117
76.74040754
54.26729849
39.26168065
28.32849739
20.62376763
15.4721938
11.78222136
9.095971071
7.122441445
5.658730415
4.562739306
3.733639465
3.10031523
2.611851987
2.231449543
1.932500952
1.696438477
1.511042524
1.368022629
1.25975899
1.178063647
1.116304442
1.07036762
1.037753225
1.016127586
1.002802292
0.9951142665
0.9909268909
0.9887873211
0.9878203091
0.9872649846
0.9864217369
0.9855815358
0.9852069316
0.9850459816
0.984986411
0.9849817607
0.9850169193
0.9850930804
0.9852218185
0.9854240475
0.985731869
0.986193969
0.9868849242
0.9879277597
0.9895389373
0.9921928919
779711.7783
311135.1151
176828.5445
123715.8281
95315.55505
73499.34259
42689.16316
8999.703346
1038.808048
469.3623897
287.4464044
179.609202
115.9234263
77.12076816
54.28699579
39.16025764
28.15459656
20.41535369
15.27743543
11.61159799
8.949072357
6.997378843
5.553375332
4.474895201
3.661174726
3.041291426
2.564550311
2.194365486
1.904177726
1.675307758
1.495476026
1.356666271
1.251742764
1.172757834
1.113094634
1.068616754
1.036897745
1.015757504
1.00266691
0.9950793074
0.9909272803
0.9887928788
0.9878130004
0.9872742016
0.9864666775
0.9856320015
0.9852612492
0.9851046368
0.9850502661
0.9850514788
0.9850928583
0.9851752044
0.9853096597
0.9855166028
0.9858275801
0.9862907338
0.9869804947
0.9880210399
0.989634034
0.9923174446
802961.5674
322220.6988
183967.3927
129217.1081
98672.10433
72541.03149
33857.87752
5078.960405
860.6091544
471.2920448
288.8719884
180.5238398
116.3239796
77.19549565
54.11416931
38.91128131
27.87570223
20.13846243
15.03360093
11.40515437
8.775550743
6.85233593
5.433059292
4.375895072
3.580390589
2.976039233
2.512563592
2.153764274
1.873266924
1.652355572
1.478687288
1.344491685
1.243142396
1.16699654
1.109518123
1.066583295
1.035842215
1.015258632
1.002455452
0.9950028146
0.9909070221
0.9887904288
0.987806057
0.9872786995
0.9864989028
0.9856754441
0.9853108849
0.9851594481
0.9851104756
0.9851175289
0.9851650796
0.9852536452
0.9853940078
0.9856060766
0.9859208888
0.9863860882
0.9870759305
0.9881155589
0.9897311633
0.9924416052
824216.7757
333172.8299
191134.4924
134411.299
101303.2006
68826.94347
25026.59116
3028.732779
805.5025618
472.7929594
289.105904
180.677545
116.2391118
76.9611492
53.74918561
38.51576861
27.49358296
19.79457112
14.74289744
11.16428372
8.576399626
6.688235454
5.298751122
4.266733676
3.492258009
2.905468143
2.456710915
2.110348099
1.84033673
1.628020879
1.461010845
1.331757368
1.234160141
1.160934605
1.105686965
1.064342094
1.034632547
1.014656875
1.002181439
0.9948913061
0.9908688512
0.9887806683
0.9877995547
0.9872795584
0.9865201779
0.9857127051
0.9853563358
0.9852107966
0.9851673957
0.9851802689
0.9852339449
0.9853287625
0.9854752065
0.9856927821
0.9860120662
0.9864802469
0.9871713851
0.9882114315
0.9898304699
0.9925655778
843414.0746
344076.327
198422.57
139094.4583
103459.3129
61623.84585
16837.24795
2073.697969
787.0601222
472.2561159
288.2007567
180.08876
115.6767654
76.41868187
53.19145152
37.97299401
27.00826994
19.38396969
14.40607878
10.88944935
8.352173776
6.505957406
5.151595457
4.14863733
3.397948342
2.830516886
2.397804907
2.064784779
1.805898084
1.602670453
1.442772855
1.318700008
1.224971591
1.154702373
1.101694353
1.061955362
1.033307064
1.013973912
1.001856191
0.9947501797
0.9908149847
0.988764035
0.9877933165
0.9872775309
0.9865319057
0.9857444383
0.9853979863
0.9852589881
0.9852213233
0.9852400069
0.9852997763
0.9854008832
0.9855535778
0.9857770201
0.986101377
0.9865734231
0.9872670153
0.9883087669
0.9899320705
0.9926895335
860083.2583
355069.9369
205964.7598
143624.3339
102837.2109
50004.87224
10389.2718
1645.293173
779.9531657
469.4669898
286.1624663
178.7432453
114.6201285
75.55325596
52.42810979
37.2743937
26.41592585
18.90628375
14.0238019
10.58178435
8.104386903
6.307269443
4.993394145
4.023269925
3.298783932
2.752544941
2.337000539
2.018030408
1.770704025
1.576853577
1.424231947
1.30554701
1.21573937
1.148418391
1.097625233
1.059480803
1.0319022
1.01323097
1.001491151
0.9945851315
0.9907479524
0.9887412235
0.9877870967
0.9872731896
0.9865356388
0.9857713779
0.9854362575
0.9853043403
0.9852725552
0.9852970454
0.9853628873
0.9854703268
0.9856294369
0.9858590882
0.986189086
0.9866658337
0.9873629806
0.9884076694
0.9900360552
0.9928136075
873586.7445
366485.4706
213504.3826
147532.6575
98403.58822
38056.62007
6466.424765
1443.732871
774.286445
464.8073584
282.8959234
176.5821223
113.0328543
74.34546232
51.44552022
36.4139106
25.71631193
18.36409363
13.59881457
10.24416166
7.836062929
6.095052118
4.826324207
3.892411292
3.196498991
2.672862212
2.275353813
1.970923701
1.735393377
1.551029894
1.405752447
1.292497481
1.206600107
1.142180051
1.093549342
1.056966463
1.030448903
1.012446477
1.001096466
0.9944013266
0.990670134
0.9887129632
0.9877806046
0.9872669153
0.986532803
0.9857942064
0.9854715422
0.9853471488
0.9853213665
0.9853516662
0.9854235721
0.9855373954
0.9857030852
0.985939274
0.9862754528
0.9867576938
0.9874594387
0.9885082379
0.99014249
0.9929379065
884077.7334
378640.5954
220509.2256
151401.9037
89507.96743
27193.77908
4271.456092
1342.400193
766.3033963
458.48669
278.5575518
173.710874
110.9875449
72.84265943
50.27015605
35.41240721
24.92496385
17.76736457
13.13664676
9.880406599
7.550739423
5.872274028
4.6533735
3.758322995
3.092680954
2.592728684
2.213864859
1.924240134
1.700545506
1.525605392
1.387599605
1.279719018
1.197664833
1.136065158
1.089522717
1.054451761
1.028973235
1.011636364
1.000681135
0.9942034734
0.9905837906
0.9886800459
0.9877735581
0.987258948
0.9865247261
0.9858135733
0.9855042181
0.9853876965
0.9853680193
0.9854041364
0.9854821097
0.9856023767
0.9857748114
0.9860178553
0.9863607304
0.9868492152
0.9875565446
0.9886105645
0.9902514201
0.9930625095
892102.7058
391726.8898
227381.6753
152632.9802
74091.18673
17982.56147
3166.117203
1291.98429
755.5891542
451.0402184
273.4715353
170.3090221
108.5911381
71.10958041
48.94057538
34.30120493
24.0649934
17.1304454
12.64514551
9.495227441
7.251279917
5.64227774
4.477167216
3.623027398
2.988833718
2.51329807
2.153427089
1.878651425
1.666649465
1.500917575
1.369989646
1.267343571
1.18901788
1.130131905
1.085587762
1.051967378
1.027496133
1.010813815
1.000252804
0.9939956779
0.9904909649
0.9886432668
0.9877657062
0.9872494168
0.986512587
0.9858300701
0.9855346362
0.9854262494
0.9854127596
0.9854547073
0.9855387632
0.9856655435
0.9858448908
0.9860950988
0.9864451635
0.9869406045
0.9876544519
0.9887147361
0.9903628718
0.9931874721
897755.0275
405187.952
233957.5499
148055.9877
59105.15356
11958.24323
2618.61557
1258.716904
740.6116445
442.1695115
267.4621503
166.2632878
105.7746577
69.10534273
47.42886378
33.07156629
23.13901055
16.46032331
12.13179554
9.094856504
6.943231915
5.408214009
4.299935177
3.488390616
2.886392918
2.435607402
2.094797997
1.834704527
1.634089429
1.477226609
1.353086366
1.255467942
1.180718941
1.124421055
1.0817749
1.049536248
1.026033903
1.009989461
0.9998178287
0.993781449
0.9903934629
0.9886034014
0.9877568448
0.9872383751
0.9864974146
0.9858442292
0.9855631215
0.9854630568
0.985455819
0.9855036153
0.9855937809
0.9857271539
0.9859135848
0.9861712595
0.9865289875
0.9870320615
0.9877533091
0.9888208342
0.9904768554
0.993312828
900643.2472
418257.5059
241033.5334
137207.2614
45330.22415
8320.615511
2325.259201
1228.955612
722.109627
431.7141871
260.4179401
161.5077866
102.4955751
66.80287063
45.70889516
31.70669236
22.13705514
15.75070757
11.59608011
8.685498911
6.633166018
5.174092702
4.123883084
3.356050227
2.786659123
2.360560001
2.038579635
1.792809141
1.603141207
1.454714399
1.33700241
1.244156344
1.172805902
1.118958353
1.078104269
1.047174578
1.024598738
1.009171612
0.9993813494
0.9935637109
0.9902928389
0.9885611784
0.9877468201
0.9872258273
0.9864800863
0.9858565217
0.9855899704
0.9854983505
0.9854974146
0.9855510828
0.9856473965
0.9857874516
0.9859811413
0.9862465799
0.9866124273
0.9871237779
0.9878532556
0.9889289303
0.9905933661
0.9934385919
900768.1637
430076.4585
247806.4683
118593.7906
32873.37771
6148.370389
2155.091824
1198.20288
701.4702932
419.1729446
252.4448565
156.1166869
98.80589643
64.24151823
43.80617773
30.230816
21.07469068
15.00745339
11.03736254
8.268682679
6.32499112
4.9439437
3.951575696
3.227478987
2.69068113
2.288885732
1.985219797
1.753241932
1.573979138
1.433491121
1.3218361
1.233444594
1.165298395
1.113757266
1.074587631
1.044893018
1.023199362
1.00836656
0.9989474234
0.9933448502
0.9901904033
0.9885172642
0.9877355277
0.9872117511
0.9864613398
0.9858673598
0.985615452
0.9855323459
0.9855377494
0.9855973187
0.9856998299
0.9858466663
0.9860477946
0.9863212901
0.9866956968
0.9872159359
0.987954423
0.9890390867
0.9907123839
0.9935647612
899000.1349
439952.2463
245348.7958
100693.9649
23523.37424
4884.898647
2043.01396
1163.934489
679.0297446
405.0705389
243.5779641
150.201274
94.78326675
61.47519802
41.75861495
28.68014482
19.97715579
14.24641648
10.4685745
7.850595944
6.020025706
4.720073719
3.785310135
3.104027351
2.599234485
2.2211086
1.93502078
1.71616067
1.546689629
1.413603637
1.307579262
1.223345301
1.15820157
1.108821685
1.071230187
1.042697782
1.021841657
1.007578904
0.9985191733
0.993126776
0.9900872397
0.988472253
0.9877229069
0.9871961142
0.9864417867
0.9858771008
0.9856398084
0.9855652414
0.9855770133
0.985642519
0.985751288
0.9859050146
0.9861137657
0.9863956074
0.9867789985
0.9873087079
0.9880569362
0.9891513572
0.9908338741
0.9936913161
896641.6007
444171.8714
232578.5343
84256.98476
17198.42208
4158.994913
1962.378549
1127.507562
655.4732274
390.0673216
234.0266081
143.8469352
90.48726572
58.54840855
39.60268671
27.08706689
18.86446304
13.47366367
9.901363928
7.439985328
5.722372782
4.503768973
3.626353789
2.986809115
2.512915312
2.157558324
1.888153617
1.681625562
1.521288349
1.395053605
1.294229695
1.213853179
1.151509709
1.104148411
1.06803225
1.040591708
1.02052927
1.006811869
0.9980989415
0.9929109871
0.9899842294
0.9884266647
0.9877089345
0.987178886
0.9864219285
0.9858860522
0.9856632568
0.98559722
0.9856153834
0.9856868674
0.9858019649
0.9859626993
0.9861792621
0.9864697362
0.9868625226
0.9874022554
0.9881609109
0.9892657865
0.9909577881
0.9938182209
895102.3261
440261.5367
210151.8695
67508.32433
12830.50024
3725.202049
1893.182539
1089.020822
630.5084467
373.9797969
223.6974248
137.0061466
85.90017046
55.45943682
37.35112908
25.47350234
17.755096
12.70508321
9.344906154
7.041909327
5.43623913
4.296793027
3.47560459
2.876620055
2.432179171
2.09839918
1.844667392
1.649617078
1.497735944
1.377815455
1.281762437
1.204949617
1.145209167
1.09972912
1.064990551
1.038575078
1.019264109
1.006067574
0.9976884249
0.992698635
0.9898820773
0.9883809451
0.9876936167
0.9871600441
0.9864021717
0.9858944765
0.9856859909
0.9856284501
0.9856530251
0.9857305362
0.9858520425
0.986019911
0.9862444781
0.986543868
0.9869464471
0.987496728
0.9882664491
0.989382407
0.991084064
0.9939454253
895438.9401
427824.9445
183110.8037
51837.93662
9855.932108
3437.575498
1823.078656
1046.524574
603.9731638
356.7890734
212.6310077
129.7319029
81.07033859
52.24323842
35.03475179
23.85800269
16.65627343
11.95061175
8.808180607
6.660634981
5.164000161
4.100988797
3.33422628
2.773954477
2.357293294
2.043661005
1.804511177
1.620056853
1.475956102
1.361818758
1.270137165
1.196607153
1.139281165
1.095552196
1.062099454
1.036646401
1.018046802
1.005347297
0.9972888102
0.9924905876
0.9897813406
0.9883354715
0.9876769835
0.9871395786
0.9863828431
0.9859025972
0.9857081838
0.9856590868
0.9856900929
0.9857736868
0.985901691
0.9860768274
0.9863095955
0.9866181811
0.9870309371
0.987592263
0.9883736363
0.9895012357
0.9912126262
0.9940728654
897683.9791
407924.0227
160708.6965
39815.90711
7900.912114
3233.796282
1748.321521
1001.984254
576.2008311
338.7089323
201.0860739
122.1324551
76.0844611
48.96237687
32.70826556
22.27081728
15.58534
11.21883252
8.296697116
6.299920249
4.907780937
3.917830268
3.202879201
2.67896692
2.288277137
1.993255304
1.767554927
1.592821981
1.455842869
1.346988216
1.25930324
1.188792393
1.133703544
1.091603852
1.059351707
1.034802907
1.016877016
1.004651651
0.9969008731
0.9922874795
0.9896824516
0.9882905585
0.9876590818
0.9871174912
0.9863642013
0.9859106036
0.98572999
0.9856892732
0.9857267308
0.9858164698
0.9859510693
0.9861336142
0.9863747829
0.986692841
0.9871161444
0.9876889846
0.9884825505
0.9896222749
0.991343386
0.9942004649
900052.6526
383418.095
143758.7198
30747.08636
6654.52275
3080.377963
1674.986085
956.193498
547.554182
320.122646
189.1686459
114.3062334
71.02099887
45.67256194
30.42184284
20.74054675
14.55942202
10.51992611
7.814014202
5.962254134
4.669209007
3.74823381
3.081740279
2.591598567
2.224950751
1.947007048
1.733621226
1.567764103
1.437279437
1.333240431
1.249205146
1.181469269
1.128452741
1.087869402
1.05673928
1.0330411
1.015753798
1.003980789
0.9965250864
0.9920897661
0.9895857437
0.9882464672
0.9876399722
0.9870937949
0.9863464501
0.9859186567
0.9857515485
0.9857191415
0.9857630731
0.9858590258
0.986000325
0.9861904252
0.9864401965
0.9867679999
0.987202208
0.9877870039
0.98859326
0.9897455151
0.9914762407
0.9943281356
901302.9867
359184.8359
125261.7688
23629.26047
5837.893639
2944.705262
1600.890483
909.3304067
518.2397442
301.380509
176.8880412
106.3711707
65.96694851
42.43045283
28.21704632
19.28564502
13.59013856
9.862891483
7.363094245
5.648928893
4.449056341
3.592355491
2.97064714
2.511645468
2.167031357
1.904676838
1.702501993
1.544719053
1.420142173
1.320488363
1.239785266
1.174600623
1.123504702
1.084333835
1.054253764
1.031357033
1.014675761
1.003334522
0.9961616884
0.9918977594
0.9894914696
0.9882034127
0.9876197254
0.9870685093
0.9863297476
0.9859268937
0.9857729841
0.9857488136
0.9857992446
0.9859014851
0.9860495951
0.9862474025
0.9865059801
0.9868437971
0.9872892528
0.9878864176
0.9887058148
0.9898709324
0.9916110749
0.9944557778
900290.8461
333859.1109
106186.6069
18186.42382
5291.185403
2808.193906
1523.112918
861.7234766
489.3575172
282.1064433
164.4178372
98.47122797
61.0140191
39.27431663
26.12681525
17.92046175
12.68501137
9.252584061
6.946119018
5.360574287
4.247364871
3.44993714
2.86925378
2.4387626
2.114183274
1.865985091
1.673974073
1.523517428
1.404306891
1.308645419
1.230986412
1.168149702
1.118835769
1.080982377
1.051886751
1.029746575
1.013641263
1.002712427
0.9958107479
0.9917116621
0.9893998174
0.9881615728
0.9875984205
0.9870416561
0.986314216
0.9859354323
0.9857944104
0.9857784026
0.9858353612
0.9859439686
0.9860990058
0.9863046764
0.9865722649
0.9869203584
0.9873773899
0.9879873082
0.988820247
0.9899984875
0.9917477591
0.9945832819
895272.1859
318777.1381
88197.7483
14248.04376
4926.149513
2677.493835
1446.518536
816.0520431
459.8842566
262.5447602
151.9835174
90.75872318
56.24823585
36.25772033
24.17328722
16.65343549
11.84857368
8.691146432
6.563924307
5.097248539
4.063744968
3.320489211
2.777114922
2.372495052
2.066027762
1.830633113
1.647810625
1.503991554
1.389653081
1.297628134
1.222753534
1.162081178
1.114423274
1.077800874
1.049630104
1.028205605
1.012648542
1.002113938
0.9954722145
0.9915315951
0.9893109242
0.9881210965
0.9875761441
0.9870132527
0.9862999498
0.9859443746
0.98581593
0.9858080123
0.9858715295
0.9859865872
0.9861486728
0.9863623659
0.9866391695
0.9869977962
0.9874667158
0.9880897428
0.9889365744
0.9901281245
0.9918861508
0.9947105286
885545.0049
311586.7302
70870.9406
11670.15096
4686.295111
2550.213636
1375.731782
770.1571779
430.1133291
242.9980693
139.8297261
83.37178792
51.7411348
33.4297731
22.36973373
15.48943052
11.08304022
8.179140175
6.216426137
4.858508764
3.897487846
3.203318416
2.693626658
2.312334835
2.02217058
1.798322079
1.623791687
1.485981793
1.376067514
1.287358498
1.215035206
1.156362064
1.110246099
1.074776156
1.047476206
1.026730189
1.011695842
1.001538425
0.995145965
0.9913576209
0.9892248881
0.9880821127
0.9875529922
0.9869833065
0.986287022
0.9859538098
0.9858376363
0.9858377376
0.9859078471
0.9860294423
0.9861987012
0.9864205785
0.9867068
0.987076209
0.9875573118
0.9881937716
0.9890547974
0.99025977
0.9920260932
0.9948373891
870868.3906
302810.7118
55321.82982
10181.50456
4516.939659
2429.548341
1305.449422
724.2382896
400.2272968
223.7327005
128.1556204
76.40901795
47.54044993
30.81928417
20.72126698
14.42966335
10.38831112
7.715811801
5.902694951
4.643239673
3.747548882
3.097554681
2.618102668
2.257744831
1.982212809
1.7687582
1.60170571
1.469336885
1.363444007
1.277763651
1.207783398
1.150961529
1.10628454
1.071895941
1.04541792
1.025316579
1.010781421
1.000985207
0.9948318187
0.9911897541
0.9891417727
0.9880447368
0.9875290702
0.9869518056
0.9862754894
0.9859638161
0.9858596135
0.9858676651
0.9859444028
0.9860726257
0.9862491857
0.9864794098
0.9867752495
0.9871556809
0.9876492437
0.9882994284
0.9891748988
0.9903933333
0.9921674159
0.9949637263
851355.4066
282627.921
42074.17986
9386.439877
4351.5314
2310.004299
1235.424593
678.3070223
370.4284098
205.0446085
117.1335649
69.94522536
43.67854626
28.4404953
19.22840873
13.47289143
9.762648462
7.299337242
5.621040735
4.449926028
3.612707914
3.002235104
2.549826429
2.208192876
1.945770958
1.74166383
1.581355849
1.453917588
1.351685462
1.26877718
1.200954316
1.145851454
1.102520646
1.069149065
1.043448747
1.023961326
1.009903639
1.00045361
0.9945295666
0.9910279765
0.9890616142
0.9880090789
0.987504497
0.9869187104
0.9862653963
0.9859744621
0.9858819372
0.9858978726
0.9859812764
0.9861162197
0.9863002105
0.986538944
0.9868445981
0.9872362817
0.9877425612
0.9884067297
0.9892968428
0.9905287051
0.9923099341
0.9950893954
827226.8094
250314.1751
31851.15856
8879.069513
4167.920574
2191.820968
1165.855966
632.6123804
341.1177738
187.2803527
106.9146501
64.03486191
40.17389863
26.29666286
17.88803034
12.61567793
9.202895131
6.927009703
5.369221691
4.276788102
3.491652482
2.916373661
2.488087553
2.163166503
1.912482805
1.716780746
1.562560868
1.439596931
1.340703818
1.260339027
1.194508369
1.141006406
1.098938206
1.066525475
1.041562835
1.022661297
1.009060974
0.9999429822
0.9942389858
0.9908722457
0.9889844252
0.9879752517
0.9874794095
0.9868839437
0.9862567774
0.9859858075
0.9859046745
0.9859284295
0.9860185391
0.9861602971
0.9863518493
0.9865992534
0.9869149122
0.9873180658
0.9878372971
0.988515673
0.9894205744
0.9906657579
0.9924534495
0.995214246
798798.0342
212410.9314
25227.04248
8457.017599
3985.69293
2075.975846
1097.164586
587.5164108
312.7934673
170.7374385
97.59778501
58.70168272
37.02808566
24.3814446
16.69314144
11.85237504
8.704638496
6.595432168
5.144637404
4.121901595
3.383024146
2.838998849
2.432195115
2.122178982
1.88200841
1.693870682
1.545154739
1.42625943
1.330419351
1.252394945
1.188409807
1.136403415
1.095522603
1.064016138
1.039754928
1.021413662
1.008252022
0.9994526998
0.9939598442
0.9907224998
0.988910195
0.987943377
0.987453969
0.986847378
0.9862496589
0.9859979037
0.9859278841
0.9859593969
0.9860562533
0.9862049213
0.9864041651
0.986660398
0.9869862448
0.9874010722
0.9879334667
0.988626237
0.9895460174
0.9908043455
0.9925977497
0.995338122
765686.3612
174338.9593
20747.35294
8070.650067
3797.063585
1964.266759
1030.219337
543.6404094
286.040019
155.6491451
89.23977153
53.94940377
34.23314213
22.68421282
15.63506876
11.17644469
8.263028985
6.301045244
4.944695447
3.983460609
3.285535717
2.769215868
2.381517973
2.084792414
1.854043126
1.672722334
1.528990937
1.413803537
1.32076223
1.24489754
1.182627446
1.132022459
1.092261131
1.061613245
1.038020506
1.020215977
1.007475557
0.9989822016
0.9936919218
0.9905786682
0.9888388928
0.9879135949
0.9874283717
0.9868088222
0.9862440602
0.986010794
0.9859516165
0.9859908272
0.9860944722
0.9862501456
0.9864572097
0.986722425
0.987058634
0.9874853233
0.9880310668
0.9887383801
0.9896730749
0.9909443016
0.9927426087
0.9954608616
727833.9171
139916.6793
17891.90523
7696.359594
3617.996598
1857.573016
965.6140103
501.5660612
261.2862935
142.0990656
81.82469882
49.75074809
31.76700792
21.18814579
14.70217292
10.5798496
7.872503237
6.039990905
4.766737119
3.85968997
3.19791913
2.706160901
2.335454969
2.050595182
1.828302999
1.653139634
1.51393442
1.402135982
1.311668535
1.237803524
1.177132824
1.127845267
1.089142227
1.059309721
1.036355474
1.019066013
1.006730435
0.9985309457
0.993434992
0.9904406657
0.9887704611
0.9878860688
0.9874028613
0.9867711953
0.9862399939
0.9860245138
0.9859759141
0.9860227649
0.9861332409
0.9862960138
0.9865110237
0.9867853689
0.9871321034
0.9875708248
0.9881300755
0.9888520401
0.9898016286
0.9910854392
0.9928877879
0.9955822988
685974.4956
109505.4387
16116.81583
7354.540569
3448.80829
1756.11653
903.6762418
461.9233966
238.8576054
130.1009224
75.30707565
46.06777066
29.60363693
19.87523745
13.88242287
10.05450868
7.527600829
5.808578077
4.608279993
3.748919983
3.119019115
2.649049316
2.293467665
2.01922035
1.804536692
1.634949314
1.499866257
1.391174888
1.303082339
1.231075161
1.171901209
1.123856004
1.086155917
1.057099516
1.03475636
1.017961875
1.006015668
0.9980984514
0.9931888455
0.9903084056
0.9887048149
0.9878609949
0.9873775854
0.9867366786
0.986237466
0.9860390908
0.9860008112
0.9860552461
0.9861725946
0.9863425591
0.9865656358
0.9868492502
0.9872066602
0.9876575639
0.98823045
0.9889671321
0.9899315361
0.9912275481
0.9930330353
0.9957022624
639664.0975
84126.81547
15162.60123
7034.875275
3290.596895
1660.441351
844.6421476
425.1263809
218.8646688
119.5947558
69.61859503
42.85365889
27.71385655
18.72645161
13.16350285
9.592393287
7.223042184
5.603310382
4.466996025
3.649574201
3.047789954
2.597172005
2.255077676
1.990342468
1.782522866
1.617999599
1.486682604
1.380849145
1.294955298
1.224680016
1.166911467
1.12004121
1.083293796
1.054977602
1.033220309
1.016902008
1.005330435
0.9976843098
0.9929532992
0.9901818074
0.9886418356
0.9878386178
0.9873526057
0.9867052168
0.9862364763
0.9860545441
0.986026333
0.9860882966
0.9862125576
0.9863898016
0.9866210592
0.9869140717
0.9872822917
0.9877455046
0.9883321218
0.9890835432
0.9900626261
0.9913703943
0.9931780802
0.9958205731
588448.8087
64577.80059
14506.55188
6766.635943
3142.717302
1571.295634
789.0313223
391.5567404
201.2441119
110.4587263
64.67819091
40.05823355
26.06715189
17.72283336
12.53343853
9.185847621
6.953874565
5.420953266
4.340751854
3.560216245
2.983292046
2.549897179
2.219861126
1.963673605
1.762066258
1.602157149
1.474292474
1.371096675
1.287245367
1.218590006
1.162145375
1.116389323
1.08054869
1.052939727
1.031744924
1.015885095
1.004674023
0.9972881526
0.9927281814
0.9900607925
0.9885813529
0.9878164205
0.9873279799
0.9866767508
0.9862370175
0.9860708854
0.9860524968
0.986121934
0.9862531445
0.9864377506
0.9866772949
0.986979822
0.9873589688
0.987834593
0.988435002
0.9892011388
0.9901947064
0.9915137276
0.9933226421
0.9959370505
530914.9586
51193.48906
14213.08214
6504.786118
3005.849716
1488.339158
737.0185834
361.3506378
185.8201234
102.5298119
60.39189115
37.62767362
24.63157375
16.84506207
11.98027856
8.827360462
6.715310484
5.258412571
4.227522497
3.479513991
2.924650496
2.506638785
2.187422786
1.93894891
1.742987344
1.58729986
1.46261294
1.361861131
1.279914575
1.212779926
1.157586674
1.112890075
1.077914285
1.050982197
1.030328137
1.014909988
1.004045792
0.9969096393
0.9925133288
0.9899452897
0.9885233143
0.9877939138
0.9873037572
0.9866512185
0.9862390762
0.9860881191
0.9860793123
0.9861561673
0.9862943603
0.9864864041
0.9867343305
0.9870464742
0.9874366442
0.9879247543
0.9885389791
0.9893197601
0.9903275601
0.9916572771
0.993466429
0.9960515127
466124.2278
42507.97762
14084.40049
6238.558474
2880.072131
1411.645949
688.7746782
334.4682803
172.3900692
95.65511604
56.67177185
35.51289906
23.37842702
16.07592226
11.49347509
8.510353582
6.503183632
5.113006618
4.125559221
3.406338118
2.871120555
2.466897894
2.157425373
1.915946076
1.725135685
1.5733259
1.451575206
1.353096093
1.272931893
1.207229377
1.153222357
1.109535348
1.075385668
1.049102205
1.028968404
1.013975823
1.003445246
0.9965484955
0.9923086067
0.9898352403
0.9884676955
0.9877711535
0.9872799706
0.9866285544
0.986242632
0.9861062417
0.9861067803
0.9861909957
0.9863361986
0.9865357468
0.9867921384
0.9871139838
0.987515251
0.9880158912
0.9886439168
0.989439222
0.9904609448
0.9918007498
0.9936091372
0.9961637773
392624.7112
37056.59559
14020.23033
6000.955491
2766.191003
1341.449227
644.5480205
310.7759422
160.7368836
89.69713182
53.44061017
33.67025562
22.2821767
15.40010889
11.06368414
8.229009899
6.313825803
4.98237908
4.03333624
3.339697883
2.822051911
2.430241505
2.129581097
1.894471581
1.708381342
1.560147533
1.441120241
1.344762034
1.266271155
1.201921387
1.149041778
1.106318583
1.072958961
1.047297612
1.027664583
1.013081957
1.002871996
0.9962044983
0.9921139042
0.9897305967
0.9884144772
0.9877481913
0.9872566308
0.9866086903
0.9862476582
0.9861252419
0.9861348929
0.9862264078
0.9863786407
0.986585749
0.9868506743
0.9871822871
0.9875947002
0.9881078822
0.9887496521
0.9895593118
0.9905945916
0.9919438305
0.9937504514
0.9962736604
307566.1181
33713.32787
13957.71685
5788.689617
2663.091396
1277.070338
604.0882881
289.8883909
150.5781613
84.50190489
50.61691501
32.05494296
21.31737337
14.80267914
10.68192216
7.977810234
6.14379523
4.864359
3.94947318
3.278688168
2.776854405
2.396286379
2.103645479
1.874352109
1.692609515
1.547688037
1.431197039
1.336825289
1.259910481
1.196842099
1.145036465
1.103234725
1.070631309
1.045566955
1.026415951
1.012227987
1.00232579
0.9958774966
0.9919291479
0.9896313329
0.9883636523
0.9877250755
0.9872337164
0.9865915546
0.9862541202
0.9861450977
0.9861636288
0.9862623771
0.9864216499
0.9866363603
0.9869098696
0.9872512927
0.987674871
0.9882005697
0.9888559826
0.9896797747
0.99072819
0.9920861687
0.993890032
0.9963809666
204014.4019
31891.37913
13862.72847
5603.639625
2571.660789
1218.621033
567.3976344
271.5224302
141.6997074
79.95584757
48.13914401
30.63252055
20.464227
14.27192731
10.34111596
7.752386655
5.990363087
4.75723124
3.872873588
3.222587764
2.735057091
2.364728016
2.079419751
1.855451151
1.677729259
1.535887506
1.421766217
1.32926028
1.253833623
1.191981549
1.141200565
1.100280431
1.068400963
1.043909456
1.025222181
1.011413723
1.001806477
0.9955673883
0.9917542881
0.9895374363
0.9883152251
0.9877018511
0.9872111604
0.9865770716
0.9862619771
0.9861657799
0.9861929585
0.9862988666
0.9864651775
0.9866875163
0.9869696399
0.9873208907
0.9877556222
0.9882937737
0.9889626823
0.9898003321
0.9908614086
0.9922274012
0.9940275375
0.9964855066
62976.24203
31310.40991
13617.00563
5443.788906
2491.063506
1165.324182
533.5572124
255.176992
133.8651974
75.9375021
45.94381468
29.36849694
19.70325123
13.79654872
10.03451969
7.548627233
5.850976427
4.659382215
3.802474149
3.170738665
2.696229602
2.335277167
2.056688833
1.83765061
1.663660874
1.524694213
1.412794271
1.322045659
1.248027357
1.187331892
1.137529684
1.097453324
1.066266804
1.04232473
1.024083167
1.010639088
1.001313967
0.9952741007
0.9915892912
0.9894489083
0.9882692166
0.9876785628
0.9871888304
0.9865651606
0.9862711807
0.9861872503
0.9862228419
0.9863358274
0.9865091608
0.9867391361
0.9870298818
0.98739095
0.9878367885