/*--------------------------------*- C++ -*----------------------------------*\
  =========                 |
  \\      /  F ield         | OpenFOAM: The Open Source CFD Toolbox
   \\    /   O peration     | Website:  https://openfoam.org
    \\  /    A nd           | Version:  12
     \\/     M anipulation  |
\*---------------------------------------------------------------------------*/
FoamFile
{
    format      ascii;
    class       volScalarField;
    location    "100";
    object      rho;
}
// * * * * * * * * * * * * * * * * * * * * * * * * * * * * * * * * * * * * * //

dimensions      [1 -3 0 0 0 0 0];

internalField   nonuniform List<scalar> 
16200
(
1.073820331
1.074230296
1.075518147
1.077323825
1.078609828
1.078634328
1.080087295
1.086900764
1.093705653
1.095832293
1.096323352
1.096148507
1.095648412
1.095538293
1.095839268
1.096398053
1.097155012
1.09808225
1.099209365
1.100600677
1.102297335
1.104291929
1.106618555
1.109328205
1.112441217
1.115953927
1.119851223
1.124079377
1.128551891
1.133150412
1.137732014
1.142151503
1.146277721
1.150013554
1.153299162
1.156110786
1.158458828
1.160372191
1.161897937
1.163087282
1.163997332
1.164680376
1.165185295
1.165553195
1.165818173
1.166007673
1.166142048
1.166236892
1.166303658
1.166350289
1.166382656
1.166405155
1.166420537
1.166431205
1.166437357
1.166441765
1.166440722
1.166445544
1.166430463
1.166447739
1.070184745
1.070772079
1.072192539
1.073964126
1.075235414
1.075626641
1.078512782
1.086448649
1.09160882
1.092982525
1.093553646
1.093465862
1.093037834
1.092981596
1.093348492
1.093998765
1.094870657
1.09593554
1.097215326
1.098775598
1.100667981
1.102889119
1.105463847
1.108444989
1.111846073
1.115656646
1.119844054
1.124339047
1.129033401
1.133788682
1.138452007
1.142877347
1.146947339
1.150583644
1.153749357
1.156443344
1.158687065
1.160518889
1.161984715
1.16313507
1.164020914
1.164690926
1.165189575
1.165555204
1.165820042
1.166009914
1.166144864
1.16624003
1.16630684
1.166353505
1.166385796
1.166408145
1.166423139
1.166433325
1.166439166
1.166443418
1.166442008
1.166446519
1.166430835
1.166447661
1.067186887
1.067989935
1.069539543
1.071324536
1.072593326
1.073622858
1.078265138
1.086269958
1.089815819
1.090790688
1.091370279
1.091385901
1.091029113
1.091034017
1.091474351
1.092215426
1.093198164
1.094398155
1.095831713
1.09756476
1.099659361
1.10211438
1.104947054
1.108205812
1.111900002
1.116005646
1.12047231
1.125208457
1.130083336
1.134940709
1.13962003
1.143982287
1.147927336
1.151403025
1.154396989
1.156928808
1.159032839
1.160753795
1.162137121
1.163230193
1.164078341
1.1647251
1.165210033
1.16556805
1.165828866
1.166016508
1.166150257
1.166244803
1.166311077
1.166357249
1.166389173
1.166411069
1.166425753
1.166435565
1.166441122
1.166444974
1.166443404
1.166447611
1.166431591
1.16644811
1.064718667
1.065767993
1.067408748
1.069224053
1.070612793
1.072513045
1.079051117
1.085989309
1.088258431
1.089077511
1.089715487
1.089810459
1.089530814
1.089608716
1.090136953
1.090984884
1.092098527
1.093455367
1.095068663
1.097000159
1.099320682
1.102031985
1.105141623
1.108693002
1.112688129
1.117086948
1.121816647
1.126760059
1.131762814
1.136653559
1.141271142
1.145490505
1.149236784
1.152486803
1.155254743
1.157579918
1.159508161
1.161088637
1.16236554
1.163382021
1.164177279
1.164789044
1.165251517
1.165595563
1.165847758
1.16603016
1.166160597
1.166252938
1.166317693
1.166362725
1.16639373
1.166414869
1.166428916
1.166438156
1.166443309
1.166446747
1.166444864
1.166448763
1.166432341
1.166448483
1.062787265
1.064103912
1.065855794
1.067767667
1.069420519
1.072540367
1.08048382
1.085711834
1.087114076
1.0878957
1.088593552
1.088777331
1.088587134
1.088754427
1.089387256
1.090358139
1.091613858
1.09314074
1.094949816
1.097095958
1.099656657
1.102637669
1.10603782
1.109891734
1.114190173
1.118871415
1.123835236
1.12893614
1.133997963
1.138840495
1.143311017
1.147307614
1.150786565
1.153756129
1.156256028
1.15834269
1.160070835
1.161491664
1.162646772
1.163574075
1.164306328
1.164875043
1.165308822
1.165634181
1.165874303
1.166048943
1.166174316
1.166263284
1.166325699
1.166369047
1.166398792
1.166418946
1.166432231
1.166440832
1.166445508
1.166448507
1.166446322
1.166449919
1.166433116
1.166448953
1.061463852
1.063062806
1.064940618
1.067002183
1.069098337
1.073805108
1.082118842
1.085588166
1.086479055
1.087277856
1.08802359
1.088305523
1.088210009
1.088471152
1.089214477
1.090315704
1.091723916
1.093431504
1.095449056
1.097829729
1.100649985
1.10392464
1.107636162
1.111805505
1.116406367
1.121349544
1.126503689
1.13169543
1.136732277
1.141434736
1.14566928
1.149365819
1.152516027
1.155159665
1.157359302
1.159184836
1.160696499
1.161945086
1.162968177
1.163797692
1.164459691
1.164979334
1.165379587
1.165682479
1.165907675
1.166072463
1.166191267
1.1662758
1.166335147
1.166376315
1.16640446
1.166423409
1.166435775
1.166443645
1.166447778
1.166450307
1.166447788
1.16645108
1.166433889
1.166449465
1.060623603
1.062512846
1.064619593
1.066872997
1.069624631
1.076140124
1.083544786
1.08566698
1.086312839
1.087142219
1.087941281
1.088303693
1.088313526
1.088676366
1.089541904
1.090788299
1.092365152
1.094277847
1.096531605
1.099177172
1.10229885
1.105898624
1.109943181
1.114433831
1.11932279
1.124489492
1.12977006
1.134967099
1.139881434
1.144346031
1.148257558
1.151584619
1.154355878
1.156640313
1.158518981
1.160070852
1.161358076
1.162428698
1.163314986
1.164042318
1.16462999
1.165096874
1.165460414
1.165738198
1.16594638
1.166099714
1.166210772
1.166290024
1.16634571
1.166384292
1.166410566
1.166428133
1.166439466
1.166446538
1.166450078
1.166452119
1.166449256
1.166452238
1.166434665
1.166450035
1.060015787
1.062306214
1.064708271
1.067221264
1.070883371
1.078937351
1.084663632
1.08583705
1.086411124
1.087295473
1.088170049
1.088646866
1.08878833
1.089295967
1.090325645
1.091767763
1.093563009
1.095715782
1.098255154
1.101203311
1.104645439
1.108590001
1.112974951
1.117774497
1.122915405
1.128244349
1.133566199
1.138666292
1.14335149
1.147480538
1.150989482
1.153889623
1.156245129
1.158149716
1.159697554
1.160972047
1.162033869
1.162926289
1.16367526
1.164299325
1.164811107
1.165223409
1.165548407
1.165799402
1.165989145
1.166129878
1.166232309
1.166305626
1.166357186
1.166392858
1.166417039
1.166433079
1.166443282
1.166449498
1.166452407
1.166453942
1.166450728
1.166453395
1.166435448
1.166450659
1.059847622
1.062508429
1.065206871
1.068069612
1.073118232
1.081829495
1.08565381
1.086295754
1.086892246
1.087848647
1.088815765
1.08943255
1.089752489
1.090452399
1.091695079
1.093378265
1.095425972
1.097860419
1.100704912
1.103965311
1.107732186
1.112015341
1.116726507
1.121803049
1.127137445
1.132543889
1.137802877
1.142692348
1.147039621
1.150742154
1.153781788
1.156212614
1.158130055
1.159646541
1.160863567
1.161864567
1.162705824
1.163424256
1.164038844
1.164561235
1.164997627
1.165355096
1.165640883
1.165864253
1.166034728
1.166162123
1.166255327
1.166322249
1.166369339
1.166401857
1.166423779
1.166438182
1.166447184
1.166452501
1.166454752
1.166455768
1.166452205
1.166454545
1.166436239
1.16645134
1.061685275
1.064414356
1.067365591
1.070616445
1.077293258
1.085305603
1.087389092
1.087743313
1.088386492
1.089416281
1.090462656
1.091177595
1.091597863
1.092398628
1.093774376
1.095659323
1.097960089
1.100683045
1.103862911
1.107466544
1.111565351
1.11616547
1.12116669
1.126469546
1.131919764
1.137297939
1.142374669
1.146935473
1.150841548
1.15403966
1.1565599
1.158495631
1.159966967
1.16109828
1.161992819
1.162730242
1.16336018
1.163912136
1.164397809
1.164822101
1.165185159
1.165488751
1.165735578
1.165931172
1.166082049
1.166195724
1.166279346
1.166339575
1.166381964
1.16641116
1.166430704
1.166443392
1.166451142
1.16645553
1.166457103
1.166457593
1.166453673
1.166455685
1.166437035
1.166452075
1.064023738
1.067025727
1.070434386
1.074496288
1.082944026
1.089449666
1.090489811
1.090915827
1.091495063
1.092452359
1.093450371
1.094136808
1.094544922
1.095331007
1.096751011
1.098756702
1.10124083
1.104175075
1.107652471
1.111621556
1.116093424
1.12101615
1.126257008
1.131704851
1.137172743
1.142401015
1.147166131
1.151283045
1.154658008
1.157291815
1.159261359
1.160692621
1.16172263
1.162480983
1.163067808
1.163555997
1.163986966
1.164382228
1.164746193
1.165077349
1.165370241
1.165621805
1.165830627
1.165998832
1.166130179
1.166230044
1.166303935
1.166357318
1.166394875
1.166420645
1.166437739
1.166448661
1.166455126
1.166458568
1.166459452
1.166459412
1.166455131
1.166456807
1.166437837
1.166452863
1.065922549
1.069202534
1.07300508
1.078163298
1.087560043
1.092033287
1.092505724
1.092998156
1.093795285
1.094978934
1.096245093
1.097243658
1.098024251
1.099233395
1.101057084
1.103088817
1.105574453
1.108588316
1.112217284
1.116429557
1.121240132
1.126503723
1.131947702
1.137429099
1.142787533
1.147734958
1.152059182
1.15562739
1.158400293
1.160430946
1.161837304
1.162769644
1.163373779
1.16377852
1.164076996
1.16433323
1.164579531
1.164829262
1.165079798
1.165323653
1.165550283
1.165752285
1.165924557
1.166066163
1.166178357
1.166264552
1.166328733
1.166375237
1.166407913
1.16643021
1.166444818
1.166453949
1.166459114
1.166461601
1.166461793
1.166461221
1.166456587
1.166457919
1.166438641
1.166453703
1.068157203
1.071757151
1.076025208
1.082715717
1.091831707
1.09465091
1.094811113
1.095385731
1.096280574
1.097582923
1.098979455
1.100142977
1.101128785
1.102567358
1.10466223
1.107321883
1.110490551
1.114201313
1.117947763
1.122150978
1.127031776
1.132524822
1.138147524
1.143550309
1.148638732
1.153170465
1.156938247
1.159872468
1.161994962
1.163405161
1.164253101
1.164704382
1.164906146
1.164981522
1.16501386
1.165057046
1.165133956
1.165249984
1.165395892
1.165558745
1.165723445
1.165878736
1.166016253
1.166132332
1.166225979
1.166298821
1.166353442
1.166393128
1.166420942
1.166439769
1.166451886
1.166459221
1.166463085
1.166464616
1.16646412
1.166463019
1.166458039
1.166459028
1.166439456
1.166454593
1.070813318
1.074853793
1.079714432
1.088049954
1.095794888
1.097300496
1.097586109
1.098278921
1.099293307
1.100730669
1.102289517
1.103657138
1.104891748
1.106608467
1.109014847
1.11199646
1.115491246
1.119499764
1.124055984
1.128993791
1.133709417
1.13904319
1.14469729
1.149940998
1.154599969
1.158579468
1.161697999
1.163938384
1.165385928
1.166178373
1.166487043
1.166484473
1.166312854
1.166086019
1.165875813
1.165725442
1.165648465
1.165642727
1.165692921
1.165781223
1.165888512
1.166000151
1.16610491
1.166196718
1.166272581
1.166332514
1.166377826
1.16641083
1.166433855
1.166449249
1.166458897
1.166464449
1.166467021
1.166467606
1.166466428
1.166464803
1.166459481
1.166460131
1.166440286
1.166455535
1.074698391
1.079252485
1.085000706
1.094578549
1.100458149
1.101202203
1.101476797
1.10222857
1.103302059
1.10482479
1.106521712
1.108059994
1.10949815
1.111428728
1.11408622
1.11738697
1.121233393
1.125610879
1.130446739
1.135637208
1.141200272
1.146164335
1.15146006
1.156424277
1.16054325
1.163850422
1.16625065
1.167764487
1.168535078
1.168729287
1.168528785
1.168105815
1.167592894
1.167092198
1.16666325
1.16633859
1.166122893
1.166007038
1.165970245
1.165990369
1.166044772
1.166115883
1.166189981
1.166258881
1.166317822
1.166365378
1.166401703
1.166428216
1.166446565
1.166458593
1.166465814
1.166469611
1.166470908
1.16647056
1.166468713
1.166466572
1.166460913
1.166461229
1.166441136
1.166456531
1.079063972
1.084312232
1.091287617
1.101264856
1.105360465
1.105764683
1.106180487
1.107102707
1.108364948
1.110051692
1.111838735
1.113478552
1.115041477
1.117109963
1.119952358
1.12350162
1.127642223
1.132351955
1.137497492
1.142881754
1.148371847
1.15377274
1.158360155
1.162840484
1.166350063
1.168892271
1.170528904
1.171309797
1.171420713
1.171049075
1.170376891
1.169570478
1.168749494
1.168003187
1.167378655
1.166898189
1.166558228
1.166343341
1.166227896
1.166185975
1.166191903
1.166225578
1.166271126
1.166318528
1.166361467
1.166397232
1.166424938
1.166445189
1.166459005
1.166467757
1.166472608
1.166474686
1.166474736
1.166473475
1.166470973
1.166468325
1.166462346
1.166462329
1.166442005
1.166457582
1.083208572
1.089288014
1.097604204
1.106905224
1.109484615
1.110012596
1.110570929
1.111646388
1.113074719
1.114980809
1.117084089
1.119088387
1.121093997
1.123663305
1.126903704
1.130569372
1.134822034
1.139704869
1.145070747
1.150582859
1.155990868
1.161149226
1.16533698
1.169099826
1.171912373
1.173634989
1.174486739
1.174551385
1.174035321
1.173138925
1.172036713
1.170885009
1.169788833
1.168824103
1.168025907
1.167406966
1.166956238
1.166652672
1.166466393
1.166368219
1.166329876
1.166329101
1.166348175
1.166375488
1.166403363
1.166427951
1.166447436
1.166461681
1.166471127
1.166476708
1.166479256
1.166479663
1.166478497
1.166476345
1.166473205
1.166470062
1.16646379
1.166463447
1.166442902
1.166458684
1.088054789
1.095023004
1.104559595
1.112676617
1.114329382
1.114871054
1.115582351
1.116815778
1.118421098
1.120534527
1.122870612
1.125140132
1.127448084
1.130332261
1.133969164
1.138255507
1.142951215
1.147765462
1.153085327
1.158601062
1.163790389
1.168419352
1.172316949
1.175124678
1.177134917
1.178026589
1.178099346
1.177481987
1.176382411
1.175007279
1.173518164
1.172058793
1.170718873
1.169561234
1.168609699
1.167868255
1.167319173
1.166936463
1.166686574
1.166537537
1.166458872
1.166426484
1.16642108
1.166429682
1.166443426
1.166457462
1.166469137
1.166477645
1.166482896
1.166485421
1.166485744
1.166484529
1.166482184
1.166479167
1.16647541
1.166471784
1.166465235
1.166464583
1.166443829
1.166459836
1.093713895
1.101632115
1.111970883
1.118925806
1.11969443
1.120349515
1.121224129
1.122629137
1.124427985
1.126750579
1.129342114
1.131889813
1.134512097
1.137721283
1.1416832
1.146239975
1.151245227
1.15654362
1.161544067
1.166784663
1.171608746
1.17564231
1.179078279
1.180818836
1.181956172
1.182037979
1.181360596
1.180106815
1.178473559
1.176667519
1.174834054
1.173102872
1.17154854
1.170221459
1.169135136
1.168285708
1.167649551
1.167196377
1.166889487
1.166694546
1.166579223
1.166517878
1.166489888
1.166481102
1.166481626
1.166485726
1.166490004
1.16649305
1.16649429
1.16649388
1.166492059
1.16648928
1.166485793
1.166481939
1.166477586
1.166473489
1.166466653
1.166465722
1.166444794
1.166461035
1.100243677
1.109072846
1.119612102
1.124991788
1.125657261
1.126462302
1.127513932
1.129107077
1.13111562
1.133672802
1.136527124
1.139363379
1.142299778
1.145816288
1.150058823
1.15484964
1.159988112
1.16526511
1.170363669
1.175035056
1.179290034
1.182616628
1.185097528
1.186118606
1.186356729
1.185660073
1.184277626
1.18243996
1.180325514
1.178135868
1.175998607
1.174028952
1.172287052
1.1708118
1.169607413
1.168663067
1.167949988
1.167434186
1.167076286
1.166839968
1.166691354
1.166603518
1.166554715
1.166529794
1.166517971
1.166512734
1.166510024
1.166507883
1.166505296
1.166502075
1.166498194
1.166493909
1.166489322
1.16648466
1.166479732
1.166475177
1.16646808
1.166466858
1.166445798
1.16646228
1.107713632
1.117274512
1.127367283
1.131692559
1.132251497
1.13324054
1.134481698
1.13627931
1.138515043
1.141313494
1.144445735
1.147571813
1.15080426
1.154592214
1.15905298
1.163972661
1.169117128
1.174247275
1.179163445
1.183197547
1.1867017
1.189216234
1.19073954
1.19097925
1.190332658
1.18889909
1.186867177
1.184501301
1.181958064
1.179429923
1.177026521
1.174848783
1.172943515
1.171339142
1.170031623
1.169004017
1.168223092
1.167651689
1.167248176
1.166974581
1.166795749
1.166683688
1.166615719
1.166575841
1.166552499
1.166538501
1.166529199
1.16652214
1.166515909
1.166510002
1.166504147
1.166498415
1.16649277
1.166487329
1.16648185
1.166476848
1.166469529
1.166467992
1.16644685
1.166463566
1.116058213
1.126221353
1.135563004
1.139018419
1.139577545
1.140760339
1.142202206
1.144210923
1.146679324
1.149726845
1.153118109
1.156512122
1.159997779
1.163987176
1.168570043
1.173495134
1.17849371
1.183303151
1.187620992
1.191111194
1.1937392
1.195362624
1.19591876
1.195377963
1.193891331
1.191772281
1.18915213
1.186313974
1.183392188
1.180567445
1.177932181
1.175573669
1.173526609
1.171810027
1.170412613
1.169312088
1.168471384
1.167850645
1.167406357
1.16709918
1.166892919
1.166758708
1.16667309
1.16661935
1.166585268
1.166563056
1.166547539
1.166535824
1.16652613
1.16651766
1.166509916
1.166502796
1.166496136
1.166489947
1.166483939
1.166478503
1.166470987
1.166469125
1.166447954
1.166464887
1.125267386
1.135931468
1.144633457
1.147039749
1.147684719
1.149054326
1.15069853
1.152919451
1.155611907
1.158888382
1.162517211
1.1661349
1.169803518
1.17390053
1.178483391
1.183266751
1.187955378
1.192262726
1.195855031
1.19865442
1.200322742
1.201009718
1.200626074
1.199317271
1.197051549
1.19430522
1.191158873
1.187902379
1.184648859
1.181565632
1.178729248
1.17621422
1.174044435
1.172230552
1.17075491
1.169590593
1.168697248
1.168032742
1.167551994
1.167214552
1.166983381
1.166828908
1.166727036
1.166660446
1.16661635
1.166586438
1.166565069
1.166548948
1.166535963
1.16652505
1.166515503
1.166507055
1.166499421
1.166492514
1.166485999
1.166480142
1.166472455
1.166470255
1.166449116
1.166466239
1.135359439
1.146285375
1.153887006
1.155788119
1.156568535
1.158105925
1.159946069
1.162364015
1.16526338
1.168739271
1.172564062
1.176346824
1.18011166
1.184198288
1.188637619
1.193117359
1.197325299
1.200967151
1.203725938
1.205742459
1.206393317
1.206133806
1.204856659
1.202815371
1.19984012
1.196527817
1.192915407
1.189290823
1.185748188
1.182440633
1.179430378
1.176780199
1.174504426
1.172606315
1.171062683
1.169842598
1.168902909
1.168199564
1.167686199
1.16732146
1.167067648
1.166894622
1.166777768
1.166699262
1.166645828
1.166608696
1.166581814
1.166561525
1.166545417
1.166532179
1.16652091
1.166511193
1.166502625
1.166495031
1.166488031
1.166481769
1.166473932
1.166471381
1.166450343
1.166467615
1.146144226
1.157033089
1.16344656
1.165181113
1.166143723
1.167846631
1.169878001
1.172486435
1.175570863
1.179213159
1.183170068
1.187036583
1.190787636
1.194725329
1.198861808
1.202870879
1.206437061
1.209279062
1.21113428
1.212297417
1.211920766
1.210734524
1.208631197
1.205902455
1.202290337
1.198471297
1.19444909
1.190502489
1.186708919
1.183207282
1.180047099
1.17728046
1.174913315
1.172942397
1.171339728
1.170070912
1.169090418
1.168352589
1.167810015
1.167420627
1.16714621
1.166956179
1.166825502
1.166735934
1.166673784
1.166629882
1.166597805
1.166573576
1.166554503
1.166539053
1.166526142
1.166515211
1.166505751
1.166497498
1.166490034
1.166483379
1.16647542
1.166472501
1.166451642
1.166469009
1.157463423
1.167957401
1.173773951
1.175266747
1.17642398
1.178270696
1.180474755
1.18324556
1.186473995
1.190217581
1.194231625
1.198073434
1.201678062
1.205309797
1.20897727
1.212356775
1.215144539
1.217089261
1.217992178
1.218190217
1.216903387
1.21483312
1.21197729
1.208612326
1.204436249
1.200166421
1.195785933
1.191558843
1.187548133
1.183878963
1.18058976
1.177722938
1.175277146
1.173243364
1.171589473
1.170278082
1.169261647
1.168493173
1.16792441
1.167512732
1.167219535
1.167013894
1.166870446
1.166770599
1.166700306
1.166650049
1.166613077
1.166585119
1.166563234
1.16654568
1.166531203
1.166519113
1.166508799
1.166499916
1.166492011
1.166484978
1.166476918
1.166473615
1.166453019
1.166470411
1.169412638
1.179573986
1.184636041
1.186049109
1.187379881
1.189349069
1.191696665
1.19458435
1.197894152
1.201656031
1.205611363
1.20930089
1.212608099
1.215770092
1.218809982
1.221424113
1.223332041
1.224321107
1.224252634
1.223509878
1.221356771
1.218463293
1.214929803
1.210981727
1.206309944
1.201642593
1.196950238
1.192479414
1.188281219
1.184467661
1.18106759
1.178114716
1.175601316
1.173513311
1.171815003
1.170466414
1.169418301
1.168622559
1.168030278
1.167598408
1.167288064
1.167068067
1.1669128
1.166803387
1.16672548
1.166669253
1.166627664
1.166596177
1.166571623
1.166552067
1.166536097
1.166522901
1.16651177
1.166502286
1.166493959
1.166486565
1.16647843
1.166474721
1.166454478
1.166471816
1.182065775
1.192091159
1.196084848
1.197467081
1.198953078
1.201026855
1.203477118
1.206420765
1.209723923
1.213376279
1.217138482
1.220530009
1.223387678
1.225927399
1.228204518
1.229952332
1.230919353
1.230931994
1.229906246
1.228271119
1.225308621
1.22166513
1.217526506
1.213049039
1.207943352
1.202927147
1.197963897
1.193281671
1.18892184
1.184983973
1.181488772
1.17846206
1.175890616
1.173755884
1.172019077
1.170637979
1.169561918
1.168741878
1.168128438
1.167678238
1.167352205
1.167118981
1.166952758
1.166834428
1.166749389
1.166687547
1.1666416
1.166606773
1.166579685
1.166558223
1.166540831
1.166526578
1.166514668
1.166504608
1.16649588
1.166488139
1.166479954
1.166475822
1.166456023
1.166473221
1.195960725
1.205673837
1.208405106
1.209646097
1.211166436
1.213221322
1.215658388
1.218566853
1.221764263
1.225186615
1.228609787
1.231559885
1.233827992
1.235618942
1.237034475
1.237856183
1.23786052
1.236910142
1.234975135
1.232520743
1.228797288
1.224480905
1.219806067
1.214851052
1.209366487
1.204044957
1.1988468
1.193981017
1.189482004
1.185437206
1.181860467
1.178770486
1.176149274
1.173974314
1.17220415
1.170794629
1.169693883
1.168852153
1.168219635
1.167752757
1.167412336
1.167166898
1.166990497
1.166863842
1.166772113
1.166704984
1.16665492
1.166616927
1.166587433
1.166564158
1.16654541
1.166530148
1.166517492
1.166506885
1.166497773
1.166489704
1.166481489
1.166476921
1.166457655
1.166474624
1.210080994
1.219182103
1.221463411
1.222730575
1.224087942
1.225864588
1.228051777
1.230753038
1.233756869
1.236853713
1.239815813
1.242201448
1.243772384
1.244721667
1.24521333
1.245088198
1.244142542
1.24227022
1.239500636
1.236316503
1.231870642
1.226950987
1.22180554
1.216421278
1.210607158
1.205017501
1.199616077
1.194591061
1.189972247
1.185835525
1.182188985
1.179044859
1.176381035
1.174171474
1.172372415
1.170938025
1.169815444
1.16895431
1.168304548
1.167822457
1.167468807
1.167212062
1.167026187
1.166891742
1.166793729
1.166721614
1.166667657
1.166626663
1.166594882
1.16656988
1.166549838
1.166533614
1.166520245
1.166509116
1.166499638
1.166491259
1.166483035
1.166478022
1.166459375
1.166476021
1.224010538
1.232403251
1.234013981
1.235275924
1.23684664
1.23874179
1.240729802
1.242913186
1.245482031
1.248165404
1.250575479
1.252295284
1.253091005
1.25314864
1.252693202
1.251634226
1.249778387
1.247045527
1.243530853
1.23966812
1.234572213
1.229115925
1.223559545
1.21778902
1.2116897
1.205864317
1.200286903
1.195123714
1.190401801
1.186186101
1.182479873
1.179289473
1.176589215
1.174349917
1.172525828
1.171069658
1.169927725
1.169049188
1.168383796
1.167887785
1.167521938
1.167254699
1.167059984
1.166918236
1.16681431
1.166737488
1.166679843
1.166636001
1.166602045
1.166575398
1.166554122
1.166536977
1.166522928
1.166511301
1.166501474
1.166492805
1.166484589
1.166479114
1.166461185
1.166477409
1.237972522
1.245470597
1.246625877
1.247813121
1.249295174
1.250980628
1.252863184
1.254993855
1.256862322
1.258916357
1.260716693
1.261721053
1.261697957
1.260851384
1.259460434
1.257507852
1.254801396
1.251282219
1.247108266
1.242582538
1.23694495
1.231013505
1.225099204
1.218981062
1.21263447
1.206602441
1.200872369
1.195589324
1.190778702
1.186495186
1.182737989
1.179508099
1.176776737
1.174511903
1.172666129
1.171190857
1.170031732
1.16913754
1.168457935
1.167949148
1.167572022
1.167295018
1.167092033
1.166943425
1.166833923
1.166752649
1.16669151
1.166644961
1.166608935
1.16658072
1.166558265
1.166540242
1.166525543
1.166513443
1.166503281
1.166494342
1.166486146
1.166480189
1.166463088
1.166478784
1.251708041
1.258277031
1.258951931
1.260070336
1.261417255
1.262870592
1.264420334
1.266080562
1.267770624
1.269032177
1.270107772
1.270389612
1.269544427
1.267812772
1.265524992
1.262740617
1.259256324
1.255030288
1.250273509
1.245146795
1.23903038
1.232678268
1.226451662
1.220020871
1.213459709
1.207246201
1.201383864
1.195996799
1.191109894
1.186768203
1.18296756
1.179704038
1.176946172
1.17465943
1.172794862
1.171302806
1.170128366
1.169220045
1.168527471
1.168006917
1.167619326
1.167333207
1.167122468
1.166967401
1.166852632
1.166767143
1.166702686
1.166653563
1.166615566
1.166585854
1.166562274
1.16654341
1.16652809
1.166515539
1.166505057
1.166495873
1.166487704
1.166481259
1.166465079
1.166480139
1.265028502
1.270526808
1.270907985
1.271885314
1.273039267
1.274200499
1.275378805
1.276542576
1.27772491
1.278404785
1.278683557
1.278248631
1.276616903
1.274046311
1.270923577
1.267377593
1.263195225
1.25834053
1.253069724
1.24740018
1.240865724
1.234141409
1.227640666
1.22092905
1.214181518
1.207808302
1.201831334
1.196353985
1.191401509
1.187009963
1.183172355
1.17988024
1.177099828
1.174794295
1.17291342
1.171406578
1.170218448
1.169297323
1.168592864
1.168061431
1.167664098
1.167369444
1.167151414
1.166990251
1.166870499
1.16678101
1.166713401
1.166661827
1.166621948
1.166590807
1.166566151
1.166546485
1.166530571
1.166517592
1.166506804
1.166497398
1.16648926
1.166482335
1.166467155
1.166481469
1.277789682
1.282185804
1.282300581
1.283090228
1.284007704
1.284834365
1.285595594
1.28623729
1.286743738
1.28694521
1.286437437
1.285286197
1.282928905
1.279587797
1.275701659
1.271471056
1.266669412
1.261262211
1.255540923
1.249383326
1.242480825
1.235428504
1.228687694
1.221723547
1.214813531
1.208299784
1.202223378
1.196667648
1.191658871
1.18722465
1.183355666
1.180039301
1.177239742
1.174918096
1.173023048
1.171503138
1.170302714
1.169369932
1.168654535
1.168113001
1.167706563
1.167403894
1.167178988
1.167012059
1.166887581
1.166794291
1.16672368
1.166669769
1.166628094
1.166595587
1.166569903
1.166549468
1.166532988
1.1665196
1.166508519
1.166498917
1.166490807
1.166483418
1.166469307
1.166482767
1.289801427
1.293082209
1.292982279
1.293528617
1.294170636
1.294639375
1.294964601
1.29506951
1.294930208
1.294629363
1.293355668
1.29152922
1.28851521
1.284484008
1.279912371
1.275073491
1.26973156
1.263843236
1.257730165
1.251131038
1.243903393
1.236562737
1.229613904
1.222419633
1.215367857
1.208730428
1.202567511
1.196943767
1.191886667
1.187415992
1.183520439
1.180183548
1.177367751
1.175032275
1.173124872
1.171593357
1.170381837
1.169438383
1.168712866
1.168161912
1.167746932
1.167436706
1.167205299
1.167032901
1.166903932
1.166807024
1.16673355
1.166677407
1.166634016
1.166600202
1.166573533
1.166552363
1.166535341
1.166521564
1.166510202
1.166500431
1.166492342
1.166484511
1.166471523
1.166484037
1.300882983
1.303063678
1.302770082
1.303059919
1.303411576
1.303516344
1.303411504
1.302996224
1.302265943
1.301457792
1.299485323
1.297007848
1.293418812
1.288789565
1.283612687
1.278240724
1.272430047
1.266125683
1.259675717
1.252675569
1.245158706
1.237565939
1.230436167
1.223030226
1.215855308
1.209108478
1.202870357
1.197187591
1.192089085
1.187587312
1.183669321
1.180315072
1.177485506
1.175138133
1.173219911
1.171678028
1.170456426
1.169503141
1.16876821
1.168208425
1.167785396
1.167468023
1.167230447
1.16705285
1.166919604
1.166819243
1.166743036
1.166684758
1.166639725
1.166604659
1.166577046
1.166555172
1.166537631
1.166523483
1.166511854
1.16650194
1.166493859
1.166485617
1.166473793
1.166485282
1.311014086
1.312135704
1.311630372
1.311629139
1.31167819
1.311432117
1.310918133
1.310022053
1.308762965
1.307409918
1.304848913
1.301773073
1.297689013
1.292557611
1.286852833
1.281024147
1.274808335
1.268149397
1.261404651
1.254043379
1.246267376
1.238454735
1.231164198
1.223567575
1.216284395
1.20944123
1.203137764
1.197403811
1.192269847
1.187741622
1.18380465
1.180435764
1.177594509
1.175236855
1.173309094
1.171757875
1.17052704
1.169564634
1.168820889
1.168252782
1.167822135
1.167497975
1.167254529
1.167071974
1.166934644
1.166830984
1.166752161
1.166691839
1.166645231
1.166608964
1.166580447
1.166557898
1.166539861
1.166525358
1.166513473
1.166503443
1.166495353
1.166486743
1.166476112
1.166486509
1.319880738
1.320166054
1.319507699
1.319239849
1.319011076
1.318429028
1.317534089
1.316194701
1.314468344
1.312633362
1.309520814
1.305907162
1.301383263
1.295837739
1.289686848
1.283469595
1.276907916
1.269941234
1.262936404
1.255256778
1.247248562
1.239241231
1.231801841
1.224042313
1.216663713
1.209735325
1.203374941
1.197596627
1.192432328
1.187881533
1.183928631
1.180547358
1.177696138
1.175329535
1.173393284
1.17183357
1.1705942
1.169623262
1.168871207
1.168295212
1.16785732
1.167526688
1.167277636
1.16709034
1.166949102
1.166842279
1.166760949
1.166698665
1.166650545
1.166613125
1.166583739
1.166560542
1.16654203
1.166527188
1.16651506
1.166504937
1.166496818
1.166487903
1.166478472
1.166487731
1.327737717
1.327256508
1.326456509
1.325971921
1.325500973
1.324621963
1.323352437
1.321594028
1.319458964
1.317193389
1.313562775
1.309472494
1.304561621
1.298683557
1.292160226
1.285618544
1.278762035
1.271529123
1.264298006
1.25633479
1.248117436
1.239939696
1.232367592
1.224461746
1.217000422
1.209996581
1.203586598
1.197769865
1.192579577
1.188009629
1.18404325
1.180651457
1.177791673
1.175417189
1.173473281
1.171905744
1.170658396
1.169679401
1.168919452
1.168335932
1.167891113
1.167554285
1.167299859
1.167108014
1.166963023
1.166853164
1.166769423
1.166705253
1.166655679
1.16661715
1.166586928
1.166563108
1.16654414
1.166528972
1.166516616
1.166506422
1.166498246
1.166489096
1.166480855
1.166488928
1.334616771
1.333503603
1.332545764
1.331854269
1.331157509
1.330025045
1.328446847
1.326302915
1.3238142
1.321096403
1.317049145
1.312520762
1.307288244
1.301144876
1.294323882
1.287507626
1.280403114
1.27294829
1.265539802
1.257295726
1.248890069
1.240571066
1.232907607
1.224832685
1.217300331
1.210230354
1.203777055
1.197927052
1.1927145
1.188128186
1.184150357
1.180749555
1.177882309
1.175500769
1.173549838
1.171974986
1.170720086
1.169733406
1.168965895
1.16837515
1.167923671
1.16758088
1.167321282
1.167125059
1.166976455
1.166863671
1.166777607
1.16671162
1.166660644
1.166621046
1.166590019
1.166565599
1.166546193
1.166530712
1.16651814
1.166507892
1.166499633
1.166490322
1.166483223
1.166490094
1.340767799
1.339117379
1.337848623
1.336915487
1.33601907