/*--------------------------------*- C++ -*----------------------------------*\
  =========                 |
  \\      /  F ield         | OpenFOAM: The Open Source CFD Toolbox
   \\    /   O peration     | Website:  https://openfoam.org
    \\  /    A nd           | Version:  12
     \\/     M anipulation  |
\*---------------------------------------------------------------------------*/
FoamFile
{
    format      ascii;
    class       volScalarField;
    location    "100";
    object      T;
}
// * * * * * * * * * * * * * * * * * * * * * * * * * * * * * * * * * * * * * //

dimensions      [0 0 0 1 0 0 0];

internalField   nonuniform List<scalar> 
16200
(
298.779848
298.743335
298.5873894
298.2636496
297.6539808
296.4552683
293.9262579
288.9785906
285.4080047
284.8051538
284.8410343
284.8670202
284.9191456
284.9945993
285.1008115
285.2306341
285.3883946
285.5761874
285.7990398
286.0619966
286.3712391
286.7325025
287.1510325
287.632649
288.1818981
288.8002483
289.4857332
290.2313566
291.0241746
291.8450847
292.6700588
293.4728171
294.2288914
294.9180031
295.5275841
296.0508678
296.4890866
296.8462315
297.1315975
297.3540322
297.5248225
297.6531662
297.7486227
297.8184237
297.8691276
297.9055881
297.9316528
297.9502258
297.9633994
297.9727564
297.9793714
297.9841119
297.987478
297.9899705
297.9917868
297.9932936
297.9944061
297.9955115
297.9960027
297.997696
298.3407239
298.2798961
298.0867377
297.6997536
296.9659166
295.4887475
292.3860875
287.0501573
284.5054075
284.2463982
284.2909813
284.3256202
284.3847197
284.4681823
284.5850361
284.7283201
284.9023167
285.1095237
285.3552139
285.6449044
285.9852685
286.3825967
286.8421822
287.3696238
287.9689652
288.6404256
289.3799367
290.1775641
291.0167883
291.87491
292.7252398
293.5406435
294.2976705
294.9792357
295.57605
296.0854527
296.5105922
296.8576717
297.1356671
297.3538191
297.5222278
297.6498397
297.745291
297.8156027
297.8669195
297.9039777
297.9305731
297.9495308
297.9630119
297.9725706
297.9793452
297.9841699
297.9876041
297.9901072
297.9919294
297.9934098
297.9945105
297.9956011
297.9960509
297.9978381
297.9507493
297.8612722
297.6246381
297.1649416
296.2822374
294.4389928
290.5373222
285.4363857
283.8289281
283.7655792
283.8232989
283.8659654
283.9342803
284.0284518
284.1584659
284.3178483
284.5109062
284.7406105
285.0125064
285.3326078
285.7080488
286.1456083
286.6505477
287.228016
287.8812181
288.6086329
289.4034586
290.2520721
291.1337077
292.0218149
292.8873724
293.7032248
294.4481401
295.1091101
295.6810887
296.1656253
296.5682973
296.8971554
297.161177
297.3695712
297.5313909
297.6549644
297.747996
297.817016
297.8676723
297.9044321
297.9309085
297.9498356
297.9633084
297.9728609
297.9796248
297.9844235
297.9878275
297.9902876
297.9920728
297.9935078
297.9945822
297.9956496
297.9960577
297.9978335
297.6241818
297.5021792
297.2133849
296.6660935
295.6033423
293.3319091
288.5030302
284.2873357
283.3766457
283.3815706
283.4473422
283.4999289
283.5785197
283.684621
283.8290598
284.006083
284.2200821
284.4746055
284.7754623
285.129062
285.542865
286.0240263
286.577636
287.2080859
287.9172542
288.7012218
289.5496554
290.4444729
291.3603278
292.2671314
293.134507
293.9366804
294.6560817
295.2845572
295.8218713
296.2734475
296.647345
296.9528203
297.1989112
297.3943186
297.5471296
297.6647677
297.7540007
297.8207074
297.8699719
297.9059285
297.9319396
297.9505983
297.9639081
297.9733531
297.9800387
297.9847674
297.9881126
297.9905118
297.9922496
297.9936295
297.9946739
297.9957124
297.9960844
297.9978687
297.3542424
297.200437
296.8516819
296.1872724
294.8669169
292.0267875
286.5057017
283.4890509
283.0486514
283.0851093
283.1605757
283.2245827
283.3153115
283.4355256
283.5966104
283.7936902
284.0312726
284.3135551
284.646633
285.0372702
285.4931594
286.0217284
286.6277314
287.3144053
288.0816034
288.9220869
289.8210265
290.7552216
291.6947294
292.6067053
293.4609272
294.2346224
294.9152348
295.5001131
295.9939451
296.4056823
296.7454632
297.0233137
297.2480883
297.4277619
297.5693786
297.6793458
297.7634566
297.8268453
297.8739874
297.9086106
297.9337817
297.9519088
297.9648738
297.9740866
297.9806088
297.9852121
297.9884604
297.9907759
297.9924502
297.9937696
297.9947739
297.9957801
297.9961129
297.997898
297.1379408
296.9553871
296.5433675
295.7418639
294.0824539
290.4299751
284.8630024
282.9842014
282.8274244
282.8780517
282.9639489
283.0406873
283.144987
283.281066
283.4606214
283.6797726
283.9432206
284.2559478
284.6244757
285.0559614
285.5582367
286.1386893
286.801255
287.5472912
288.3736661
289.2687443
290.2123088
291.1757516
292.1251341
293.0263374
293.8511983
294.5816977
295.2113573
295.7433248
296.1868992
296.5539595
296.8561313
297.1037105
297.305085
297.4673065
297.5963204
297.697456
297.7755234
297.8348713
297.8793462
297.9122313
297.9362701
297.9536579
297.9661323
297.9750127
297.981302
297.9857339
297.9888541
297.9910679
297.9926663
297.9939203
297.9948785
297.9958525
297.9961455
297.997936
296.9671004
296.7538255
296.2704802
295.3078526
293.2334839
288.5661629
283.7586933
282.6792566
282.6892474
282.7496473
282.8471301
282.9381219
283.0578657
283.2122175
283.4130295
283.6575087
283.9506031
284.2981367
284.7071376
285.1850317
285.7394802
286.3772684
287.1007193
287.9083533
288.7930592
289.7379132
290.71677
291.695849
292.6385243
293.5114216
294.2905376
294.9641357
295.5324416
296.0042386
296.3927835
296.7121193
296.9746802
297.1905592
297.3673979
297.5111861
297.6267318
297.7182742
297.7896551
297.8444319
297.8858223
297.9166479
297.939315
297.9557888
297.9676483
297.9761089
297.9821049
297.9863256
297.989291
297.9913871
297.9928995
297.9940833
297.9949893
297.9959313
297.9961806
297.9979778
296.8391473
296.5856
296.0138155
294.8330295
292.1956688
286.642186
283.0378141
282.5426221
282.6216121
282.6923813
282.8032052
282.9110496
283.0494758
283.2261789
283.4530327
283.7282709
284.0569291
284.4454343
284.9011036
285.4312973
286.0431265
286.7423661
287.5290723
288.3979265
289.3367439
290.3226159
291.3234534
292.3011685
293.2183687
294.0448312
294.7626957
295.3675764
295.8664684
296.2731776
296.6040084
296.8743139
297.0966654
297.2805281
297.4325658
297.5576155
297.6593406
297.7409126
297.8052415
297.8551156
297.8931408
297.9216791
297.9427977
297.9582242
297.969371
297.9773419
297.9829957
297.9869727
297.9897621
297.9917281
297.9931462
297.9942564
297.995106
297.9960161
297.9962189
297.9980249
296.7766828
296.4755852
295.7985285
294.3207527
290.8555099
284.9906868
282.6440632
282.5053884
282.6397668
282.7235684
282.8496399
282.9768178
283.1368077
283.3392597
283.5960216
283.9063675
284.2753459
284.7097059
285.216744
285.8033425
286.475519
287.2375244
288.0867194
289.0131075
289.9981205
291.0121363
292.0178275
292.9745156
293.8464385
294.6089964
295.2520481
295.7789743
296.2030344
296.5420845
296.8144322
297.0358938
297.2185797
297.3709852
297.4986294
297.6051555
297.6931055
297.7646317
297.821766
297.8665678
297.9010616
297.9271645
297.9466123
297.9608947
297.9712553
297.9786826
297.9839563
297.9876642
297.9902612
297.9920871
297.9934047
297.9944383
297.9952284
297.9961072
297.9962599
297.9980766
296.8142981
296.4680735
295.6586964
293.7989261
289.256032
283.9213607
282.6166582
282.6730381
282.7775338
282.8754855
283.0169407
283.1635554
283.3449526
283.5728119
283.8591459
284.2045327
284.6143626
285.095833
285.6563545
286.3021081
287.0369074
287.8617868
288.7701482
289.7468734
290.7664171
291.7918582
292.7820404
293.6964551
294.5036397
295.1867226
295.7442015
296.1869286
296.533434
296.8044358
297.0191894
297.1932133
297.3376736
297.4598491
297.5640169
297.65263
297.7271579
297.788801
297.8387784
297.878473
297.9093668
297.9329562
297.9506594
297.9637344
297.9732581
297.9801032
297.9849692
297.9883895
297.9907823
297.9924609
297.9936731
297.9946279
297.9953561
297.9962025
297.996304
297.998133
296.9381531
296.5360128
295.5372832
293.1639262
287.5664508
283.3456288
282.8503556
282.893883
283.0187873
283.1332074
283.2920464
283.4605045
283.6660302
283.9220857
284.240443
284.6223693
285.0737852
285.6028899
286.217536
286.9237381
287.7228425
288.6105912
289.5731677
290.5890777
291.6270891
292.6437813
293.5959028
294.4466016
295.1713601
295.7623581
296.2268406
296.582208
296.8509393
297.055369
297.2147381
297.3436456
297.451962
297.5455992
297.6275592
297.6991447
297.7608221
297.8129184
297.8559124
297.8905691
297.9178723
297.9389268
297.9548524
297.9666852
297.9753409
297.9815789
297.9860191
297.9891396
297.9913201
297.9928464
297.9939498
297.994824
297.9954888
297.9963088
297.9963504
297.9981942
297.1133712
296.6348274
295.3606083
292.217387
286.0487578
283.1906524
283.1009363
283.1799873
283.3167148
283.4515212
283.6323792
283.8284881
284.0651915
284.3575574
284.716888
285.1449371
285.6473174
286.2317295
286.9041495
287.6703541
288.5307268
289.4772552
290.4865792
291.5266463
292.5621472
293.5470166
294.4379661
295.2049327
295.8326031
296.3225749
296.6901371
296.957868
297.1507419
297.2915442
297.3987034
297.4854411
297.56011
297.6271912
297.6884309
297.7440493
297.793592
297.8365973
297.8728786
297.9026442
297.926426
297.9449696
297.9591174
297.9696969
297.9774706
297.9830885
297.9870928
297.9899066
297.9918702
297.993241
297.9942331
297.9950256
297.9956267
297.9964124
297.9964028
297.9982607
297.3404076
296.7569758
295.1301297
290.9303962
285.0027678
283.2540196
283.4264073
283.5199544
283.6737151
283.8316291
284.0375656
284.265121
284.5376581
284.8718978
285.2792346
285.7625397
286.3264084
286.9763622
287.7157323
288.5456894
289.4615498
290.4543305
291.496404
292.5422194
293.55062
294.4788856
295.2868668
295.9530987
296.4729256
296.8568669
297.1268935
297.3091781
297.4297807
297.5109494
297.5697016
297.6175839
297.6613243
297.7039789
297.7460974
297.786903
297.8251103
297.8595549
297.8894588
297.9145345
297.9349078
297.9509983
297.9633937
297.9727278
297.9796193
297.9846142
297.9881796
297.9906841
297.9924285
297.993642
297.9945216
297.9952314
297.9957683
297.9965152
297.9964551
297.9983325
297.6497298
296.9034537
294.799153
289.4942792
284.5744483
283.7228558
283.8449228
283.9507738
284.1239334
284.3074488
284.540927
284.8025177
285.113608
285.4922413
285.9498347
286.4897899
287.1161102
287.8330012
288.6425197
289.538861
290.5089554
291.5328033
292.5842433
293.6132979
294.5694452
295.4167059
296.1228229
296.6754849
297.0810112
297.3576957
297.532425
297.6333775
297.6864707
297.7126553
297.7271373
297.7396347
297.7552362
297.7756302
297.8002558
297.8274348
297.8551427
297.8815958
297.905496
297.9261176
297.9432254
297.956945
297.9676328
297.9757443
297.9817646
297.9861418
297.9892706
297.9914665
297.9929915
297.9940474
297.9948139
297.9954405
297.9959126
297.9966197
297.9965079
297.99841
298.0715089
297.0782229
294.2815159
288.1771116
284.4546455
284.1872344
284.3731788
284.4952144
284.6895961
284.9006829
285.1635806
285.4607704
285.811877
286.235935
286.7442474
287.3403527
288.02777
288.8089584
289.6818645
290.6356927
291.6518073
292.6955767
293.7293208
294.7146925
295.5951307
296.339635
296.9288869
297.3598557
297.6488392
297.8203338
297.9042447
297.9293301
297.9203929
297.8965611
297.8710085
297.8515856
297.8417953
297.8420507
297.8507813
297.8655068
297.8835529
297.902596
297.9208841
297.9373074
297.951311
297.9627586
297.9717973
297.9787201
297.9838891
297.9876599
297.9903585
297.9922491
297.9935562
297.9944551
297.9951088
297.9956522
297.9960592
297.9967247
297.9965641
297.9984923
298.5895703
297.2418141
293.5396499
287.255634
284.7785175
284.7866317
284.9917339
285.1344258
285.3529408
285.5949163
285.8911599
286.2282118
286.6241181
287.0982654
287.6609839
288.315044
289.0631059
289.9051859
290.8339735
291.8317975
292.8717353
293.9158016
294.9097373
295.8226862
296.6054844
297.2297364
297.6916779
297.9975571
298.1715236
298.2425063
298.2416605
298.1971571
298.1319935
298.0631641
298.001734
297.9537334
297.921178
297.9033178
297.8976807
297.9010814
297.9102807
297.9224878
297.9355579
297.9480464
297.9591176
297.968402
297.9758595
297.9816358
297.9859795
297.98916
297.9914377
297.993028
297.9941199
297.9948633
297.9954052
297.9958656
297.9962089
297.9968321
297.9966239
297.9985793
299.1531631
297.3156274
292.6684466
286.9424107
285.4516034
285.4589575
285.6781471
285.8475565
286.0945199
286.3725367
286.7082261
287.0919262
287.5401125
288.0717675
288.695487
289.4119861
290.2205519
291.1169501
292.0903375
293.1164255
294.15677
295.1690365
296.1033881
296.9161543
297.5806244
298.0724884
298.4016962
298.583371
298.6469065
298.6239158
298.5453344
298.4378804
298.3223136
298.2133609
298.1200105
298.0465761
297.9937122
297.9596268
297.9410532
297.9341935
297.9353218
297.9412465
297.9494843
297.9583008
297.9666143
297.9738499
297.9798001
297.9844775
297.9880263
297.9906355
297.9925036
297.9938
297.9946804
297.9952706
297.9957023
297.9960805
297.9963623
297.9969409
297.9966878
297.9986706
299.6985977
297.2883431
291.843334
286.8915108
286.1180899
286.2221386
286.4572035
286.6571254
286.9355532
287.2526565
287.6309274
288.0640976
288.5671237
289.1582788
289.8447608
290.6249602
291.4926714
292.4365299
293.4376888
294.4691597
295.4851567
296.4365965
297.2851517
297.9746259
298.5040329
298.8572695
299.0532723
299.1151113
299.0750285
298.9657462
298.8168807
298.6531179
298.4927684
298.3482904
298.2266999
298.1307328
298.0598198
298.0112485
297.9810598
297.9649286
297.9587126
297.9588789
297.9626544
297.9680545
297.9737839
297.9790867
297.9836066
297.9872357
297.9900227
297.9920813
297.9935524
297.9945623
297.9952357
297.995676
297.9959995
297.9962963
297.9965183
297.997054
297.9967564
297.9987658
300.1826171
297.1888218
291.2283078
287.0573008
286.9452034
287.0924756
287.3460886
287.5795225
287.8917258
288.2501036
288.6731396
289.1573409
289.7160108
290.3659667
291.1121357
291.9494816
292.8669799
293.846347
294.8580847
295.8671672
296.829461
297.694336
298.4262947
298.9794438
299.3640952
299.577639
299.6441255
299.5930352
299.4575513
299.2701922
299.0585106
298.8448318
298.644972
298.4692118
298.3227448
298.206883
298.1199727
298.058497
298.0178994
297.9934045
297.9805169
297.9754141
297.9750766
297.9773054
297.9806195
297.9841046
297.987272
297.9899049
297.9919642
297.993494
297.9945812
297.9953127
297.9957846
297.9960786
297.9962964
297.9965128
297.9966724
297.9971702
297.99683
297.9988642
300.5908915
297.0507081
290.9732122
287.979821
287.8871435
288.0665106
288.3435842
288.6139431
288.9631712
289.3659404
289.8368083
290.374248
290.9895095
291.6968139
292.4974606
293.3816685
294.3327885
295.326078
296.3259591
297.2844736
298.1630305
298.9151339
299.5070613
299.9174134
300.1542056
300.2309267
300.1746599
300.0192022
299.7972326
299.5400656
299.2727571
299.0151404
298.7806105
298.5774189
298.409108
298.2757236
298.1746607
298.101706
298.0517911
298.0197587
298.0008158
297.9908966
297.9867724
297.9860613
297.9871221
297.9889017
297.9907934
297.9924823
297.9938481
297.9948708
297.9955878
297.9960498
297.996326
297.996478
297.9965927
297.9967297
297.9968295
297.9972876
297.9969093
297.9989635
300.8868215
296.9148096
291.1861523
288.8007767
288.9534154
289.1538469
289.4569838
289.7674038
290.1564699
290.605814
291.1261342
291.7168829
292.3867026
293.1461843
293.9921212
294.9091465
295.8739415
296.8550607
297.8115113
298.6928731
299.4607209
300.0784302
300.5187391
300.7806657
300.8714963
300.8174516
300.6472601
300.3968822
300.097479
299.7784836
299.4622663
299.1661823
298.9013532
298.6741803
298.4867319
298.3379392
298.2243703
298.1412121
298.082961
298.0441379
298.0197007
298.0053799
297.9977713
297.9943372
297.9932985
297.9934805
297.9941714
297.9949668
297.9956727
297.9962099
297.9965707
297.9967723
297.9968594
297.9968738
297.9968882
297.9969469
297.9969899
297.9974069
297.9969941
297.9990642
301.1418038
296.8186926
291.5637725
289.8817771
290.1403255
290.3638373
290.6960782
291.0479691
291.4779368
291.9737608
292.5424684
293.183415
293.901968
294.7041258
295.5813078
296.5119571
297.4663278
298.4068109
299.2878426
300.0661839
300.701418
301.1694901
301.4532192
301.5652821
301.5160708
301.3397837
301.0656487
300.7300527
300.3619975
299.9886386
299.6296522
299.300025
299.0087947
298.7607015
298.556512
298.3941835
298.2695694
298.1773434
298.1116334
298.066691
298.0372672
298.0189233
298.0081084
298.0021535
297.99916
297.9978469
297.9974085
297.9973592
297.9974374
297.9975103
297.9975289
297.9974799
297.9973845
297.997266
297.9971828
297.9971642
297.9971542
297.9975276
297.9970845
297.9991668
301.4252266
296.8572872
292.0083262
291.114744
291.4490961
291.7004465
292.0625074
292.4557062
292.9259838
293.4660913
294.0796254
294.7646969
295.5226483
296.3540056
297.244208
298.1654685
299.0822755
299.9527039
300.7314222
301.3825019
301.8683955
302.1779491
302.304705
302.2710546
302.0905112
301.802033
301.4343365
301.0230042
300.5945378
300.1736397
299.7774017
299.4186083
299.1044202
298.8381027
298.6192813
298.4450674
298.3106989
298.2104121
298.1380245
298.0875641
298.0536112
298.0315881
298.0178222
298.0095332
298.0047204
298.0020089
298.0005086
297.9996607
297.9991423
297.9987716
297.998462
297.9981723
297.9979014
297.9976544
297.9974764
297.9973817
297.9973207
297.9976495
297.9971809
297.9992705
301.7702776
297.0905715
293.1525527
292.4920735
292.8720486
293.1562853
293.5485124
293.982022
294.4912296
295.0722459
295.7252118
296.4459032
297.2308253
298.0743352
298.9557521
299.8417251
300.6926952
301.4654807
302.1187224
302.6235762
302.949728
303.0981762
303.0723408
302.900631
302.5991817
302.2092147
301.7581801
301.280056
300.7987243
300.3364165
299.9078215
299.5237156
299.1895895
298.9074088
298.6758041
298.4911538
298.3481677
298.2407101
298.162339
298.1068975
298.0688267
298.043436
298.0269522
298.0165018
298.0099954
298.0059756
298.0034767
298.0018736
298.000788
297.9999938
297.9993702
297.9988497
297.9984101
297.9980391
297.9977688
297.9975992
297.9974898
297.9977722
297.9972834
297.9993753
302.2394943
297.6373369
294.3359825
293.9954106
294.3997162
294.721405
295.1445567
295.617146
296.1631968
296.7803713
297.4650895
298.2097997
299.0056019
299.8405014
300.6882899
301.5115847
302.2692623
302.9201064
303.4291981
303.7753134
303.9386219
303.9288814
303.7583838
303.4586176
303.0474992
302.5667276
302.042051
301.505359
300.9779447
300.4796611
300.0230092
299.6169598
299.2655303
298.9695462
298.7267729
298.5329551
298.3823501
298.268507
298.1847675
298.1248234
298.083004
298.0545274
298.0355384
298.0230849
298.0150012
298.0097568
298.006318
298.0040005
298.0023757
298.0011778
298.0002541
297.9995125
297.9989108
297.99842
297.9980597
297.9978164
297.997661
297.9978954
297.9973921
297.9994807
302.858136
298.5575633
295.7139827
295.6123122
296.0322611
296.3942604
296.8480543
297.3564451
297.9342959
298.5793036
299.2839483
300.0366707
300.823036
301.6252007
302.4127715
303.1464962
303.7864556
304.2960701
304.6482243
304.8299757
304.8332268
304.6723861
304.3674568
303.9507802
303.4413231
302.879992
302.2906207
301.7027761
301.1352928
300.6058026
300.1248455
299.6997831
299.3333401
299.0253444
298.7728102
298.5709341
298.4135863
298.2940493
298.2054859
298.1414654
298.0962283
298.0649204
298.0436198
298.0293085
298.0197544
298.0133624
298.0090383
298.0060444
298.0039072
298.0023244
298.0011142
298.0001612
297.9994035
297.9987969
297.9983488
297.9980333
297.9978345
297.9980186
297.9975074
297.9995859
303.6219365
299.5616658
297.2670658
297.3471843
297.7791796
298.1773408
298.6573601
299.1939701
299.7938636
300.4535243
301.1614904
301.9020016
302.6554197
303.399125
304.1003989
304.7205206
305.2232491
305.5784358
305.7674016
305.7860845
305.6355455
305.3334982
304.905562
304.3834666
303.7865687
303.1542235
302.5082398
301.8758263
301.2735507
300.7170086
300.2150019
299.7734661
299.3939943
299.0755426
298.8144725
298.6055065
298.4421833
298.3175611
298.2246555
298.1569379
298.1085798
298.0746704
298.0512341
298.0351975
298.0242709
298.0168022
298.0116432
298.0080085
298.0053844
298.0034351
298.0019514
298.000796
297.9998883
297.9991695
297.9986358
297.9982495
297.9980098
297.9981414
297.9976292
297.9996884
304.5115893
300.55787
298.9798108
299.1946465
299.6336092
300.0604632
300.5589912
301.1129637
301.7217021
302.379401
303.0708937
303.7766215
304.4726462
305.1330497
305.7248775
306.212199
306.5642624
306.7582426
306.7839877
306.6458332
306.3502918
305.9185475
305.3794322
304.7631549
304.0889584
303.394275
302.6988635
302.0276585
301.3951858
300.8151926
300.2949517
299.8391375
299.4483549
299.1207962
298.8522551
298.6370437
298.4684173
298.3392451
298.2424232
298.1713463
298.1201331
298.0838296
298.0584171
298.0407758
298.0285661
298.0200856
298.0141384
298.0098964
298.0068093
298.004511
298.0027665
298.0014173
298.000365
297.9995374
297.99892
297.9984646
297.9981866
297.9982637
297.997757
297.9997857
305.5672285
301.7240485
300.8326443
301.1361911
301.5765908
302.0226575
302.5293532
303.0872657
303.6894639
304.3270163
304.9811879
305.6294345
306.2449933
306.8003519
307.2643167
307.6055855
307.7999043
307.831903
307.6995687
307.4139988
306.983906
306.4345505
305.7959277
305.0960659
304.3538168
303.604529
302.8660122
302.1610484
301.5023613
300.902028
300.3659834
299.8977869
299.4971793
299.1616827
298.8865965
298.6658761
298.4925349
298.3592838
298.2589227
298.184787
298.1309571
298.0924463
298.0652022
298.0460658
298.0326544
298.0232217
298.0165293
298.0117113
298.0081843
298.0055537
298.0035601
298.0020251
298.0008333
297.9999002
297.9992008
297.9986783
297.9983644
297.9983836
297.9978891
297.9998777
306.7488541
303.3395639
302.7887726
303.1438014
303.581056
304.0366312
304.5402655
305.0871592
305.6658643
306.2645925
306.8612597
307.4310432
307.9461659
308.3793426
308.7027058
308.8908057
308.9261546
308.8004142
308.5188594
308.0968366
307.5436828
306.8887332
306.1617232
305.3879852
304.5859825
303.7888942
303.0127905
302.2784316
301.5969692
300.9789782
300.4292251
299.9502821
299.541134
299.1987127
298.9178855
298.6922982
298.5147574
298.3778418
298.274275
298.1973484
298.1411154
298.1005657
298.0716204
298.0510882
298.0365492
298.0262189
298.0188214
298.0134568
298.0095115
298.0065643
298.0043327
298.0026193
298.0012928
298.0002571
297.9994775
297.9988898
297.9985428
297.9985026
297.9980237
297.9999726
308.031627
305.0151339
304.8107164
305.1872197
305.6164489
306.0712588
306.5610719
307.0827578
307.6208601
308.1620945
308.6826984
309.1561731
309.5551811
309.8544133
310.0303141
310.0637884
309.9438061
309.6682786
309.2484199
308.7011696
308.0372612
307.2882285
306.4830922
305.6441854
304.7897732
303.9508306
303.1419224
302.3819377
301.6806614
301.0473216
300.4856641
299.9973856
299.5808064
299.2323374
298.9464676
298.7165727
298.5352829
298.3950673
298.2885903
298.2091113
298.1506662
298.1082289
298.0777002
298.055862
298.0402629
298.0290851
298.0210196
298.0151361
298.0107928
298.0075436
298.0050845
298.0031996
298.0017427
298.0006074
297.9997492
297.9990986
297.9987212
297.9986265
297.9981629
298.0000675
309.4107936
306.8273289
306.8174475
307.2455702
307.6585326
308.0984443
308.5611151
309.0431702
309.5255421
309.9925038
310.4210827
310.7846191
311.0569099
311.2159336
311.242962
311.125119
310.8571322
310.4421642
309.8957739
309.2347977
308.4722345
307.6397498
306.7657188
305.8693642
304.9689716
304.0933499
303.2557687
302.4734089
301.7548677
301.1081669
300.5361596
300.0397625
299.616711
299.2629538
298.9726477
298.7389325
298.5542882
298.4110936
298.3019677
298.2201486
298.1596626
298.1154734
298.0834672
298.0604043
298.0438066
298.0318275
298.0231286
298.0167521
298.0120298
298.0084925
298.0058152
298.0037653
298.0021824
298.0009503
298.0000151
297.9993037
297.9988973
297.9987514
297.998307
298.0001572
310.8656109
308.7203659
308.9189004
309.2875512
309.6776394
310.0896541
310.5114557
310.9393465
311.3526359
311.7325527
312.0570811
312.3017252
312.4419471
312.4596057
312.340955
312.0787525
311.6725938
311.1298099
310.4688814
309.7058768
308.855663
307.9493489
307.0146081
306.0676271
305.1268557
304.2190425
303.3563608
302.5544302
301.8208212
301.1624733
300.5814571
300.0779928
299.6492984
299.290911
298.996695
298.7595844
298.5719311
298.4260399
298.3144966
298.2305264
298.1681524
298.1223331
298.0889448
298.0647307
298.0471905
298.0344527
298.0251528
298.0183073
298.0132239
298.0094111
298.0065246
298.0043158
298.0026108
298.0012849
298.0002743
297.9995047
297.9990689
297.9988677
297.9984548
298.0002409
312.3622805
310.662616
310.9356712
311.2884638
311.645889
312.0187651
312.3879851
312.749264
313.0811304
313.364984
313.5780738
313.699379
313.7068505
313.5862266
313.3285402
312.931352
312.39822
311.7396376
310.9758939
310.1219873
309.1940167
308.2224765
307.2342284
306.2425973
305.2662992
304.3301736
303.4454727
302.6263875
301.8796028
301.2110847
300.6222159
300.1125911
299.6789696
299.3165209
299.0188514
298.7787148
298.5883545
298.4400149
298.3262588
298.240305
298.176179
298.1288385
298.0941538
298.0688552
298.0504239
298.0369668
298.0270959
298.0198041
298.014376
298.0102996
298.0072121
298.00485
298.0030272
298.0016102
298.0005259
297.9997009
297.9992364
297.9989822
297.9986053
298.0003178
313.8636447
312.6031503
312.9025719
313.2226289
313.5386136
313.8618027
314.1687927
314.4542017
314.6962691
314.8782826
314.9769155
314.9746464
314.8525687
314.6000063
314.2122785
313.6908957
313.0425328
312.2799983
311.4245638
310.4898875
309.4930358
308.4639138
307.4285097
306.3973866
305.3897651
304.4286857
303.5246243
302.6904714
301.9321444
301.2547315
300.6590086
300.1440066
299.7060766
299.3400588
299.0393313
298.79649
298.6036863
298.4531162
298.3373276
298.2495388
298.1837818
298.1350173
298.0991133
298.0727905
298.0535152
298.0393754
298.0289615
298.0212443
298.015487
298.0111577
298.0078769
298.0053671
298.0034305
298.0019253
298.0007693
297.9998917
297.9993988
297.9990962
297.9987563
298.0003863
315.3811647
314.4968595
314.7808557
315.0634467
315.3314288
315.5972158
315.8352488
316.0391739
316.1879101
316.2658901
316.2509308
316.128547
315.8831895
315.5073543
315.0000097
314.3658684
313.6139728
312.7588141
311.8220078
310.8156342
309.7577797
308.6778669
307.6008731
306.5346671
305.4993845
304.5162617
303.5951386
302.7477232
301.9792652
301.2940596
300.6923439
300.17264
299.7309346
299.3617717
299.0583279
298.8130602
298.6180425
298.4654323
298.3477696
298.2582768
298.1909961
298.1408942
298.1038402
298.0765482
298.0564722
298.0416835
298.0307525
298.0226294
298.016557
298.0119851
298.0085182
298.0058659
298.0038197
298.0022294
298.0010038
298.0000767
297.9995543
297.9992064
297.9989068
298.000445
316.87932
316.3047525
316.5517351
316.7909895
317.0060534
317.2094488
317.3749414
317.4953387
317.5506487
317.5261254
317.4018258
317.165643
316.8054095
316.3163477
315.7004226
314.9649839
314.1207497
313.1834913
312.1746038
311.1046149
309.9927263
308.8679943
307.7541684
306.6567619
305.5970055
304.5943625
303.6581694
302.799054
302.0216851
301.3296383
300.7226718
300.1988472
299.7538243
299.3818809
299.0760144
298.8285605
298.6315276
298.4770431
298.3576447
298.2665629
298.1978532
298.1464913
298.1083496
298.0801384
298.0593016
298.0438952
298.0324714
298.0239606
298.0175863
298.0127812
298.009135
298.0063454
298.0041937
298.0025216
298.0012291
298.0002557
297.9997022
297.9993129
297.9990562
298.0004931
318.3389077
317.9972701
318.1969631
318.3892419
318.5491627
318.688261
318.7808371
318.8189127
318.7837547
318.6614651
318.4344883
318.0927859
317.6272576
317.035591
316.32218
315.4965275
314.5704007
313.5605728
312.4878299
311.3615246
310.2017403
309.0373554
307.8907247
306.7657111
305.684233
304.6642627
303.714728
302.845267
302.0600419
301.3619743
300.7503951
300.2229481
299.7749992
299.4005865
299.0925484
298.8431139
298.6442366
298.488021
298.3670071
298.2744368
298.2043816
298.1518284
298.1126553
298.0835705
298.0620095
298.0460145
298.0341202
298.0252386
298.0185748
298.0135454
298.0097263
298.0068046
298.0045517
298.0028012
298.0014447
298.0004286
297.9998419
297.9994167
297.9992047
298.0005313
319.7381858
319.5522587
319.7033007
319.8473965
319.9528749
320.0289666
320.0511324
320.0107505
319.8905715
319.6775479
319.3559621
318.9181211
318.3573832
317.6737607
316.8736306
315.9681791
314.9697173
313.8958165
312.7666041
311.5904775
310.3881599
309.1886002
308.0127797
306.8633022
305.7624716
304.7270806
303.7657067
302.8870752
302.0949048
301.3915227
300.7758777
300.2452326
299.7946902
299.4180715
299.1080743
298.8568335
298.6562571
298.4984326
298.3759065
298.2819349
298.2106075
298.1569239
298.1167699
298.0868532
298.0646017
298.0480449
298.035701
298.0264641
298.0195223
298.014277
298.0102915
298.0072425
298.0048928
298.0030675
298.0016506
298.000595
297.9999725
297.9995194
297.9993514
298.0005594
321.0585551
320.9541042
321.0627994
321.1606825
321.2149456
321.2318159
321.1882816
321.075254
320.8771223
320.5814976
320.1743782
319.6502453
319.0045413
318.2392851
317.3626093
316.386933
315.3247713
314.1944868
313.0156164
311.7950609
310.5549106
309.324245
308.122739
306.9510463
305.8329574
304.7838123
303.811907
302.9251229
302.1267914
301.4186998
300.7994531
300.2659682
299.8131106
299.4345059
299.1227263
298.8698244
298.6676702
298.5083398
298.3843893
298.2890912
298.216555
298.1617951
298.1207057
298.0899946
298.0670836
298.0499897
298.0372153
298.0276379
298.020429
298.0149759
298.0108298
298.0076585
298.0052164
298.0033201
298.0018464
298.0007546
298.0000927
297.9996151
297.99949
298.0005763
322.2861904
322.202873
322.2758327
322.3307048
322.3379126
322.300632
322.1975257
322.0190441
321.7509569
321.381403
320.8983739
320.2978058
319.5771072
318.740031
317.7962685
316.7590547
315.6410087
314.4614197
313.2389379
311.9783191
310.7045974
309.4466392
308.2224685
307.0301904
305.8967873
304.8353524
303.8540512
302.959994
302.1561734
301.443886
300.8214277
300.2854012
299.830458
299.450047
299.1366288
298.8821839
298.6785512
298.5177996
298.3924978
298.2959366
298.2222468
298.1664579
298.1244737
298.0930026
298.0694603
298.0518519
298.0386648
298.0287604
298.0212948
298.0156416
298.0113409
298.0080521
298.005522
298.0035585
298.0020322
298.0009069
298.0002044
297.9997007
297.9996231
298.0005916
323.3737333
323.3065932
323.3470556
323.3629371
323.3280143