/*--------------------------------*- C++ -*----------------------------------*\
  =========                 |
  \\      /  F ield         | OpenFOAM: The Open Source CFD Toolbox
   \\    /   O peration     | Website:  https://openfoam.org
    \\  /    A nd           | Version:  12
     \\/     M anipulation  |
\*---------------------------------------------------------------------------*/
FoamFile
{
    format      ascii;
    class       volScalarField;
    location    "0.07";
    object      nut;
}
// * * * * * * * * * * * * * * * * * * * * * * * * * * * * * * * * * * * * * //

dimensions      [0 2 -1 0 0 0 0];

internalField   nonuniform List<scalar> 
16000
(
4.5303571e-07
9.8391448e-06
1.772092e-05
2.3447325e-05
1.8094766e-05
2.473799e-05
1.7565288e-05
2.3951904e-05
1.878461e-05
2.5766792e-05
2.1775041e-05
2.5496546e-05
2.3288027e-05
2.3882298e-05
2.308389e-05
2.2946766e-05
2.270628e-05
2.2638546e-05
2.2647641e-05
2.2752987e-05
2.2947219e-05
2.3229701e-05
2.3597952e-05
2.4051937e-05
2.4593728e-05
2.522911e-05
2.5965862e-05
2.6816453e-05
2.7796062e-05
2.8920986e-05
3.0209066e-05
3.1684036e-05
3.3376548e-05
3.5324374e-05
3.7573969e-05
4.0180698e-05
4.3210448e-05
4.674172e-05
5.0871655e-05
5.5720579e-05
6.1429531e-05
6.8164449e-05
7.6134515e-05
8.5595729e-05
9.6852195e-05
0.00011026782
0.00012629287
0.00014547449
0.00016847694
0.00019610732
0.00022935038
0.00026940925
0.00031774741
0.00037614892
0.00044679015
0.00053233539
0.00063604635
0.00076191645
0.00091485905
0.0010180723
0.0010182842
0.0010184369
0.0010185805
0.0010186562
0.0010186469
0.0010185154
0.0010182236
0.001017742
0.0010170655
0.0010162272
0.0010152896
0.0010142949
0.0010131845
0.001011854
0.0010110897
0.0010112622
0.0010114956
0.0010122202
0.0010066479
0.0010054525
4.1663496e-07
9.3340264e-06
1.9711403e-05
2.1184499e-05
1.6342426e-05
2.222701e-05
1.5615638e-05
2.1031961e-05
1.6618022e-05
2.2817071e-05
1.9742006e-05
2.3032123e-05
2.1327182e-05
2.1675021e-05
2.1049168e-05
2.0863082e-05
2.0661758e-05
2.0589594e-05
2.0599614e-05
2.0695355e-05
2.0874252e-05
2.113536e-05
2.1476818e-05
2.1898672e-05
2.2402529e-05
2.2993807e-05
2.3679243e-05
2.4470067e-05
2.5380638e-05
2.6426853e-05
2.762531e-05
2.8997678e-05
3.0572314e-05
3.2384174e-05
3.4476709e-05
3.6901972e-05
3.9722329e-05
4.3011545e-05
4.6860096e-05
5.1381907e-05
5.6712523e-05
6.3008081e-05
7.0465409e-05
7.9328402e-05
8.9888919e-05
0.00010249251
0.00011756824
0.00013563938
0.00015734247
0.00018345124
0.00021490969
0.00025287429
0.00029875342
0.00035426648
0.00042151148
0.00050305868
0.00060205927
0.00072236962
0.00086872117
0.0010172189
0.0010174584
0.0010175795
0.0010176968
0.0010177459
0.0010177102
0.0010175541
0.0010172411
0.001016744
0.0010160606
0.001015225
0.0010142984
0.0010133253
0.0010122683
0.0010110412
0.0010103723
0.0010104333
0.0010111675
0.001011792
0.0010062608
0.0010050009
3.6891701e-07
8.9386486e-06
1.8676076e-05
1.9341516e-05
1.4650258e-05
1.9603418e-05
1.3923721e-05
1.8313653e-05
1.4962375e-05
2.0055038e-05
1.8024112e-05
2.0541565e-05
1.9343775e-05
1.9439286e-05
1.8956572e-05
1.8750413e-05
1.8580357e-05
1.8513483e-05
1.852643e-05
1.8616872e-05
1.8783533e-05
1.9025838e-05
1.9342255e-05
1.9733085e-05
2.0199566e-05
2.0746919e-05
2.1381149e-05
2.2112417e-05
2.2954099e-05
2.3921694e-05
2.5030961e-05
2.6301939e-05
2.7761089e-05
2.9440946e-05
3.1382315e-05
3.3634223e-05
3.6255949e-05
3.931758e-05
4.2904029e-05
4.7122857e-05
5.2105184e-05
5.7999716e-05
6.4992857e-05
7.3317437e-05
8.3255882e-05
9.5139301e-05
0.00010937958
0.00012648073
0.00014705729
0.0001718573
0.00020179302
0.00023798503
0.00028179978
0.00033490846
0.00039935114
0.00047762808
0.00057280909
0.00068865756
0.00082978791
0.0010018794
0.0010166997
0.0010167863
0.0010168697
0.001016884
0.001016813
0.0010166225
0.0010162782
0.0010157557
0.0010150565
0.0010142176
0.0010132979
0.0010123379
0.0010113177
0.0010101898
0.0010096043
0.0010097013
0.0010105352
0.001010692
0.0010058465
0.0010041473
3.3187822e-07
8.6454029e-06
1.7750656e-05
1.7817002e-05
1.3177728e-05
1.7334213e-05
1.2423894e-05
1.6029863e-05
1.348373e-05
1.770548e-05
1.6472981e-05
1.8331998e-05
1.750881e-05
1.7419905e-05
1.704322e-05
1.683624e-05
1.6693294e-05
1.6636309e-05
1.6654684e-05
1.6743207e-05
1.690113e-05
1.7128271e-05
1.7423428e-05
1.7787256e-05
1.8220735e-05
1.8729018e-05
1.931762e-05
1.9995857e-05
2.0776175e-05
2.1673743e-05
2.2703777e-05
2.3884933e-05
2.5242135e-05
2.6805845e-05
2.861463e-05
3.0714904e-05
3.3163271e-05
3.6026936e-05
3.9386374e-05
4.3343193e-05
4.8025109e-05
5.357521e-05
6.0171539e-05
6.80371e-05
7.744758e-05
8.8723063e-05
0.00010226194
0.00011855342
0.00013819539
0.00016191752
0.00019060864
0.0002253641
0.00026752109
0.00031871865
0.00038095901
0.00045669725
0.0005489519
0.00066143239
0.00079869214
0.00096633305
0.0010159903
0.0010160397
0.0010160839
0.0010160588
0.0010159481
0.0010157197
0.0010153414
0.0010147913
0.0010140739
0.0010132281
0.001012311
0.0010113568
0.0010103587
0.0010093254
0.0010088095
0.0010089526
0.0010098136
0.0010099739
0.0010056358
0.0010032025
3.0036625e-07
8.4235689e-06
1.6934623e-05
1.7825948e-05
1.2958716e-05
1.5347077e-05
1.110064e-05
1.4063986e-05
1.2208323e-05
1.5668053e-05
1.5086042e-05
1.6332084e-05
1.5787675e-05
1.5574388e-05
1.527644e-05
1.5082726e-05
1.496276e-05
1.4916803e-05
1.4939968e-05
1.5026425e-05
1.5175595e-05
1.5387853e-05
1.5662364e-05
1.6000258e-05
1.6402412e-05
1.6873989e-05
1.7420171e-05
1.8049611e-05
1.8773837e-05
1.9607657e-05
2.0565933e-05
2.1666178e-05
2.2932046e-05
2.4392209e-05
2.6083305e-05
2.8049473e-05
3.0344916e-05
3.3034498e-05
3.6195375e-05
3.9923481e-05
4.4343676e-05
4.959488e-05
5.5848664e-05
6.3318847e-05
7.2276127e-05
8.3032151e-05
9.5974362e-05
0.00011158012
0.00013043393
0.00015325193
0.00018090466
0.00021446867
0.00025525929
0.00030489251
0.00036534454
0.00043903958
0.00052896226
0.00063878928
0.00077304217
0.00093728444
0.0010153326
0.0010153425
0.0010153422
0.0010152726
0.0010151173
0.0010148463
0.0010144297
0.0010138482
0.0010131086
0.0010122513
0.0010113314
0.0010103768
0.0010093841
0.001008453
0.0010080066
0.0010081909
0.0010090098
0.0010089447
0.0010053713
0.0010024822
2.7619772e-07
8.2878497e-06
1.6258094e-05
1.7664931e-05
1.2839785e-05
1.3605297e-05
1.0319612e-05
1.2429556e-05
1.1131776e-05
1.3929692e-05
1.386181e-05
1.4567201e-05
1.4208851e-05
1.3923737e-05
1.3676559e-05
1.3498868e-05
1.3394398e-05
1.3355773e-05
1.338039e-05
1.3462698e-05
1.360209e-05
1.3799447e-05
1.4054153e-05
1.436774e-05
1.4741114e-05
1.5179398e-05
1.5687516e-05
1.6273605e-05
1.6948304e-05
1.7726022e-05
1.8621437e-05
1.9651134e-05
2.0837763e-05
2.2208503e-05
2.3798408e-05
2.5649722e-05
2.7814613e-05
3.0356081e-05
3.3349167e-05
3.6884914e-05
4.1085566e-05
4.6087371e-05
5.2057791e-05
5.9202348e-05
6.7788587e-05
7.8122685e-05
9.0584078e-05
0.00010564192
0.00012387108
0.00014597991
0.00017282674
0.00020547705
0.00024523328
0.00029369938
0.0003528399
0.00042506582
0.00051334892
0.00062135898
0.00075362188
0.0009157126
0.0010147195
0.001014687
0.0010146378
0.0010145195
0.0010143157
0.0010139985
0.0010135401
0.001012924
0.001012159
0.0010112858
0.0010103574
0.0010093983
0.0010083991
0.0010075793
0.0010071981
0.0010074066
0.0010081585
0.0010080633
0.001005057
0.0010021469
2.5076469e-07
8.2127917e-06
1.5738647e-05
1.6787972e-05
1.2728145e-05
1.2032546e-05
1.0476814e-05
1.140286e-05
1.0915123e-05
1.2459532e-05
1.276175e-05
1.3005835e-05
1.2745642e-05
1.2429558e-05
1.2211291e-05
1.2049225e-05
1.1955908e-05
1.1922967e-05
1.1948259e-05
1.2026818e-05
1.2157726e-05
1.2342314e-05
1.2579913e-05
1.2796358e-05
1.3135736e-05
1.3537334e-05
1.400538e-05
1.45473e-05
1.5172652e-05
1.5895111e-05
1.6729128e-05
1.7690383e-05
1.8800594e-05
2.0085507e-05
2.1578699e-05
2.3320671e-05
2.536167e-05
2.7762858e-05
3.0597903e-05
3.4210399e-05
3.8232126e-05
4.3031904e-05
4.8775485e-05
5.5661284e-05
6.395472e-05
7.3959387e-05
8.6049564e-05
0.00010068951
0.00011844761
0.0001400297
0.00016628726
0.00019828151
0.00023730997
0.00028497409
0.00034323918
0.00041451865
0.00050178994
0.00060873802
0.00073992277
0.00090097323
0.0010141462
0.0010140688
0.001013967
0.0010137965
0.001013541
0.0010131745
0.0010126712
0.0010120173
0.0010112237
0.0010103306
0.0010093872
0.0010084204
0.0010074349
0.0010067134
0.0010063925
0.0010066114
0.0010072756
0.0010071716
0.0010048002
0.0010017493
2.2573831e-07
8.1714919e-06
1.5297996e-05
1.5317945e-05
1.1850814e-05
1.0495552e-05
9.191703e-06
1.0235103e-05
9.6898327e-06
1.1189038e-05
1.1660607e-05
1.1573988e-05
1.135137e-05
1.1042944e-05
1.0847489e-05
1.070465e-05
1.0624309e-05
1.059948e-05
1.0563253e-05
1.0625123e-05
1.0739415e-05
1.0906579e-05
1.1124233e-05
1.1392681e-05
1.1715981e-05
1.2097128e-05
1.254056e-05
1.3053634e-05
1.3645362e-05
1.4328988e-05
1.5119152e-05
1.6031049e-05
1.7085945e-05
1.8308672e-05
1.973193e-05
2.1395109e-05
2.3347285e-05
2.5648469e-05
2.8371836e-05
3.1606416e-05
3.546068e-05
4.0071925e-05
4.5606003e-05
5.2696571e-05
6.0776589e-05
7.0545686e-05
8.2376171e-05
9.6730609e-05
0.00011417417
0.0001354157
0.00016130538
0.00019290732
0.0002315226
0.0002787601
0.00033659882
0.00040747095
0.00049437929
0.00060104732
0.00073209843
0.00089325832
0.0010136063
0.0010134815
0.0010133243
0.001013099
0.0010127894
0.0010123714
0.0010118206
0.001011126
0.001010301
0.0010093847
0.0010084206
0.0010074384
0.001006499
0.001005864
0.0010055973
0.0010058188
0.0010063955
0.0010063065
0.0010045849
0.001001467
2.0825709e-07
8.1291985e-06
1.4854195e-05
1.3414849e-05
9.7438605e-06
9.3355082e-06
7.5610946e-06
8.7238662e-06
8.92278e-06
1.0079466e-05
1.0538137e-05
1.0239201e-05
1.0032908e-05
9.755485e-06
9.5833956e-06
9.3957214e-06
9.3056545e-06
9.2759963e-06
9.2992877e-06
9.3727164e-06
9.4920305e-06
9.6588285e-06
9.8722211e-06
1.0132047e-05
1.0442428e-05
1.0807219e-05
1.1230916e-05
1.1720906e-05
1.2285828e-05
1.2938475e-05
1.3693771e-05
1.456665e-05
1.5578207e-05
1.6752634e-05
1.8122085e-05
1.972527e-05
2.1610551e-05
2.38373e-05
2.647805e-05
2.9621011e-05
3.3374958e-05
3.7875161e-05
4.3290195e-05
4.9815321e-05
5.7700876e-05
6.7258139e-05
7.9557462e-05
9.3758402e-05
0.0001110437
0.00013213052
0.00015787362
0.00018934721
0.00022786458
0.00027505219
0.00033291563
0.00040392262
0.00049112156
0.0005982982
0.00073016783
0.00089259312
0.0010130931
0.0010129188
0.0010127043
0.0010124224
0.0010120571
0.0010115858
0.0010109861
0.001010249
0.0010093901
0.001008447
0.0010074594
0.0010064535
0.0010056006
0.0010050417
0.0010048229
0.0010050442
0.0010055506
0.0010054828
0.0010042864
0.001001191
1.9149252e-07
8.087668e-06
1.3400307e-05
1.1682471e-05
7.8804467e-06
8.2829727e-06
6.6864358e-06
7.8782635e-06
8.2609875e-06
9.0132644e-06
9.4203043e-06
9.0160829e-06
8.815416e-06
8.4915198e-06
8.3102442e-06
8.192169e-06
8.134383e-06
8.1284807e-06
8.1686292e-06
8.2514866e-06
8.3777244e-06
8.5448906e-06
8.755185e-06
9.008592e-06
9.3094251e-06
9.6619338e-06
1.007076e-05
1.0543446e-05
1.1088396e-05
1.1717981e-05
1.2447462e-05
1.3291811e-05
1.4272171e-05
1.5412363e-05
1.6744303e-05
1.8306412e-05
2.0146761e-05
2.2324591e-05
2.491269e-05
2.7999627e-05
3.1694216e-05
3.6131302e-05
4.1482552e-05
4.7943362e-05
5.5766418e-05
6.5265219e-05
7.6826146e-05
9.0902385e-05
0.00010905692
0.0001301773
0.00015599893
0.00018761326
0.00022635518
0.00027387942
0.00033223177
0.00040393308
0.0004920991
0.00060060354
0.00073428279
0.00089917476
0.0010126002
0.0010123741
0.0010121013
0.0010117619
0.0010113399
0.0010108145
0.0010101651
0.0010093849
0.0010084908
0.0010075175
0.0010065057
0.0010054993
0.0010047495
0.0010042576
0.00100408
0.0010042986
0.001004756
0.0010047065
0.0010039546
0.0010010218
1.7666582e-07
8.0409616e-06
1.0629709e-05
9.7503007e-06
6.4543043e-06
7.3743809e-06
6.0911692e-06
7.0780608e-06
7.7191634e-06
8.0419703e-06
8.3219326e-06
7.8155403e-06
7.5687181e-06
7.3416282e-06
7.2058827e-06
7.1252515e-06
7.0951006e-06
7.1095083e-06
7.1644389e-06
7.2582717e-06
7.3885738e-06
7.557637e-06
7.7668518e-06
8.0166517e-06
8.311443e-06
8.6559045e-06
9.0549417e-06
9.5163036e-06
1.0048354e-05
1.0663119e-05
1.1317612e-05
1.2134447e-05
1.3085301e-05
1.4193599e-05
1.5491009e-05
1.7015693e-05
1.8815495e-05
2.0949576e-05
2.3491093e-05
2.6529243e-05
3.017388e-05
3.4832457e-05
4.0175878e-05
4.6639737e-05
5.4479211e-05
6.4011235e-05
7.5633518e-05
8.9810607e-05
0.00010712843
0.00012831732
0.00015568382
0.00018771364
0.00022701038
0.00027526844
0.00033458817
0.00040756236
0.00049739737
0.00060808297
0.00074460771
0.00091322106
0.0010121209
0.0010118411
0.0010115098
0.0010111126
0.0010106338
0.001010054
0.0010093552
0.0010085323
0.0010076026
0.0010065977
0.0010055588
0.0010046236
0.0010039557
0.0010035237
0.0010033798
0.0010035897
0.0010040158
0.0010040326
0.0010032664
0.0010008467
1.6360521e-07
7.9932502e-06
8.3714238e-06
8.2422542e-06
5.6547839e-06
6.5353826e-06
5.5889687e-06
6.3744661e-06
7.1691623e-06
7.1339797e-06
7.1326098e-06
6.7018996e-06
6.4993062e-06
6.3307699e-06
6.2336648e-06
6.1841682e-06
6.1776418e-06
6.2102093e-06
6.2780909e-06
6.3811738e-06
6.5181249e-06
6.6905625e-06
6.9009751e-06
7.1502614e-06
7.4429088e-06
7.7502256e-06
8.1379267e-06
8.5872794e-06
9.1065124e-06
9.7072143e-06
1.0403339e-05
1.1213064e-05
1.2156862e-05
1.3258224e-05
1.4549113e-05
1.6068088e-05
1.7863579e-05
1.999553e-05
2.2538576e-05
2.5583825e-05
2.9243767e-05
3.3659005e-05
3.9001828e-05
4.5478826e-05
5.3349634e-05
6.3484489e-05
7.5280266e-05
8.969039e-05
0.00010731244
0.00012890131
0.00015537955
0.00018965479
0.00022984597
0.00027924762
0.00034002978
0.00041487743
0.00050711255
0.00062087186
0.00076133098
0.000934985
0.0010116494
0.0010113139
0.0010109245
0.0010104702
0.0010099352
0.0010093017
0.0010085544
0.0010076901
0.0010067246
0.0010056918
0.0010046326
0.0010038222
0.0010032291
0.0010028501
0.0010027325
0.0010029268
0.0010033169
0.0010034055
0.0010028421
0.0010007248
1.5189687e-07
7.9360106e-06
6.6441951e-06
7.2332762e-06
5.0338931e-06
5.7780817e-06
5.1572568e-06
5.7514802e-06
6.5146246e-06
6.1042589e-06
6.0594202e-06
5.727109e-06
5.5652172e-06
5.4439764e-06
5.3799511e-06
5.3573105e-06
5.3717798e-06
5.4208797e-06
5.5017749e-06
5.6148724e-06
5.7594621e-06
5.9374536e-06
6.1254512e-06
6.3718114e-06
6.6611632e-06
6.9975881e-06
7.3880318e-06
7.8399139e-06
8.3616773e-06
8.9651068e-06
9.6642998e-06
1.0477207e-05
1.1425525e-05
1.2533102e-05
1.3832441e-05
1.5362855e-05
1.7173885e-05
1.9326756e-05
2.1898271e-05
2.4982449e-05
2.8694617e-05
3.3178561e-05
3.8615487e-05
4.5217312e-05
5.3251987e-05
6.3053063e-05
7.5035293e-05
8.9700521e-05
0.00010861584
0.00013079757
0.0001580286
0.00019149199
0.00023486862
0.00028583578
0.00034859108
0.00042593336
0.00052132698
0.00063908852
0.00078462143
0.00096470103
0.0010111806
0.0010107877
0.0010103412
0.0010098309
0.0010092413
0.0010085559
0.0010077619
0.0010068579
0.0010058567
0.0010047997
0.001003817
0.0010030992
0.0010025756
0.0010022435
0.0010021453
0.0010023215
0.001002679
0.0010028452
0.0010024011
0.0010006398
1.4144708e-07
7.8653682e-06
5.3199306e-06
6.3141225e-06
4.4829574e-06
5.1053502e-06
4.7873404e-06
5.1155487e-06
5.6935066e-06
5.2089946e-06
5.1173465e-06
4.8735883e-06
4.7500549e-06
4.6683413e-06
4.6336852e-06
4.6352502e-06
4.6693403e-06
4.7345224e-06
4.8287104e-06
4.9340227e-06
5.0821612e-06
5.2635642e-06
5.4804488e-06
5.7357157e-06
6.033564e-06
6.3784574e-06
6.7772632e-06
7.2380261e-06
7.7694109e-06
8.3833597e-06
9.0940894e-06
9.919771e-06
1.083313e-05
1.1947901e-05
1.3256606e-05
1.4799287e-05
1.6626803e-05
1.8801721e-05
2.1403061e-05
2.4528265e-05
2.8296505e-05
3.3105582e-05
3.8688467e-05
4.5477989e-05
5.3751553e-05
6.3852651e-05
7.621648e-05
9.1368017e-05
0.00010995121
0.00013398537
0.00016220535
0.00019691213
0.00023962483
0.00029503203
0.00036028355
0.00044075698
0.00054008822
0.0006628067
0.00081458988
0.001002536
0.00101071
0.0010102589
0.0010097567
0.0010091921
0.0010085502
0.0010078158
0.0010069774
0.0010060356
0.0010050057
0.0010039261
0.0010030895
0.0010024572
0.0010019969
0.001001706
0.0010016211
0.0010017787
0.0010021076
0.0010023236
0.0010020272
0.0010005958
1.3212255e-07
7.7366563e-06
4.3110328e-06
5.4963036e-06
3.9895805e-06
4.5053575e-06
4.4618788e-06
4.4238086e-06
4.8664096e-06
4.4101543e-06
4.3005e-06
4.1296227e-06
4.0425934e-06
3.9950745e-06
3.9871333e-06
4.0111087e-06
4.0640071e-06
4.1284925e-06
4.2310977e-06
4.363415e-06
4.5262748e-06
4.7211617e-06
4.9509779e-06
5.2188275e-06
5.5294744e-06
5.8876461e-06
6.3002749e-06
6.7552813e-06
7.2970672e-06
7.92214e-06
8.6447597e-06
9.4831153e-06
1.0459448e-05
1.1601722e-05
1.2943299e-05
1.452553e-05
1.6401575e-05
1.8636358e-05
2.1312041e-05
2.4531024e-05
2.8417995e-05
3.3130206e-05
3.8858008e-05
4.5836132e-05
5.4354146e-05
6.5312818e-05
7.8166147e-05
9.3931978e-05
0.00011328744
0.00013706956
0.00016787477
0.00020410962
0.00024873576
0.00030372315
0.00037507707
0.00045932392
0.00056337954
0.00069201802
0.00085123662
0.0010107186
0.0010102332
0.0010097247
0.001009169
0.0010085526
0.0010078612
0.0010070813
0.0010062021
0.0010052225
0.001004176
0.0010031804
0.0010024472
0.0010018941
0.0010014911
0.0010012366
0.0010011615
0.0010013006
0.0010016035
0.0010018452
0.0010016722
0.0010005885
1.2384717e-07
7.4160748e-06
3.6140891e-06
4.7700987e-06
3.5498509e-06
3.9729657e-06
3.9530366e-06
3.7971693e-06
4.0710363e-06
3.7039603e-06
3.6003729e-06
3.4875868e-06
3.4347716e-06
3.4174434e-06
3.4339606e-06
3.4659534e-06
3.5308537e-06
3.6244747e-06
3.7460185e-06
3.8957124e-06
4.0750098e-06
4.2859123e-06
4.5317404e-06
4.8158842e-06
5.1316676e-06
5.5038701e-06
5.9309897e-06
6.4210423e-06
6.984114e-06
7.6322177e-06
8.3799878e-06
9.2463552e-06
1.025448e-05
1.1433394e-05
1.2818779e-05
1.4453521e-05
1.6393646e-05
1.8707168e-05
2.1479676e-05
2.4819731e-05
2.8857114e-05
3.3757137e-05
3.9722759e-05
4.6999528e-05
5.5893774e-05
6.6781966e-05
8.0840034e-05
9.7347884e-05
0.00011762651
0.00014256645
0.00017324388
0.00021301846
0.00025989639
0.00031769693
0.00038899678
0.00048153005
0.00059108491
0.00072659026
0.00089439637
0.0010102767
0.0010097464
0.0010091839
0.0010085773
0.0010079124
0.001007175
0.0010063526
0.0010054374
0.0010044294
0.0010033665
0.0010025302
0.0010018882
0.0010014057
0.0010010545
0.001000833
0.0010007667
0.0010008886
0.0010011643
0.0010014099
0.0010013206
0.001000555
1.1670051e-07
7.0123752e-06
3.1739566e-06
4.1256948e-06
3.1580447e-06
3.3525823e-06
3.5020616e-06
3.2228841e-06
3.3528628e-06
3.0907292e-06
3.0078737e-06
2.9409847e-06
2.9192507e-06
2.9289149e-06
2.9528844e-06
3.0134089e-06
3.1014895e-06
3.2159404e-06
3.3568599e-06
3.525198e-06
3.7229478e-06
3.9523891e-06
4.2089822e-06
4.5099877e-06
4.8545378e-06
5.2482564e-06
5.6979053e-06
6.2117895e-06
6.800199e-06
7.4759138e-06
8.2540365e-06
9.1543066e-06
1.0200942e-05
1.1424437e-05
1.2807344e-05
1.4491774e-05
1.6492677e-05
1.8881677e-05
2.1879262e-05
2.5365599e-05
2.9584636e-05
3.4709746e-05
4.0957652e-05
4.8587457e-05
5.7921619e-05
6.9360025e-05
8.3394282e-05
0.00010062911
0.00012289784
0.00014917006
0.0001815065
0.0002213337
0.00027297928
0.00033398741
0.00040927873
0.00050716164
0.0006229514
0.00076622461
0.00094370427
0.0010098242
0.0010092485
0.0010086361
0.0010079819
0.0010072726
0.0010064937
0.001005632
0.0010046821
0.0010036667
0.001002691
0.0010019648
0.0010014069
0.0010009869
0.0010006826
0.0010004923
0.0010004366
0.0010005431
0.0010007876
0.0010010205
0.0010009779
0.0010004772
1.1093913e-07
6.0300444e-06
2.7977445e-06
3.5403303e-06
2.8180081e-06
2.7800252e-06
3.0535879e-06
2.7031813e-06
2.7368602e-06
2.5671259e-06
2.5116754e-06
2.4820268e-06
2.4808503e-06
2.5079253e-06
2.5660501e-06
2.6512008e-06
2.7614997e-06
2.8967675e-06
3.0578467e-06
3.2461242e-06
3.4588345e-06
3.706964e-06
3.9905794e-06
4.3136908e-06
4.6810906e-06
5.0985944e-06
5.5732763e-06
6.1137646e-06
6.730673e-06
7.4208498e-06
8.2278823e-06
9.1600019e-06
1.0242426e-05
1.150676e-05
1.2992551e-05
1.4749266e-05
1.6838102e-05
1.9335719e-05
2.2337314e-05
2.5960605e-05
3.0351904e-05
3.5948871e-05
4.25187e-05
5.0550887e-05
6.0385183e-05
7.2444702e-05
8.7250986e-05
0.00010544763
0.00012900159
0.00015676483
0.00019095487
0.00023308106
0.00028778644
0.00035235867
0.00043208315
0.00053058463
0.00065855675
0.00081041463
0.00099854765
0.0010093604
0.0010087401
0.0010080823
0.0010073844
0.0010066347
0.0010058192
0.0010049256
0.001003949
0.0010029278
0.0010021136
0.0010014801
0.0010009965
0.0010006324
0.001000371
0.0010002111
0.0010001691
0.0010002642
0.0010004728
0.0010006769
0.00100068
0.0010003383
1.0612935e-07
4.2121189e-06
2.4561778e-06
2.9979583e-06
2.3911076e-06
2.2997192e-06
2.5847709e-06
2.241108e-06
2.2245667e-06
2.126478e-06
2.101291e-06
2.0967098e-06
2.1232759e-06
2.1805071e-06
2.2643905e-06
2.3726093e-06
2.5044898e-06
2.6605279e-06
2.8393421e-06
3.0469706e-06
3.2843993e-06
3.5544448e-06
3.8605362e-06
4.2068451e-06
4.5984025e-06
5.0412707e-06
5.5428074e-06
6.102695e-06
6.7469599e-06
7.4828511e-06
8.3274067e-06
9.3017925e-06
1.0432694e-05
1.1753636e-05
1.3306667e-05
1.5144226e-05
1.7331536e-05
1.994981e-05
2.3100181e-05
2.6908255e-05
3.1529849e-05
3.7157317e-05
4.4356592e-05
5.2832421e-05
6.3217806e-05
7.5960913e-05
9.1614719e-05
0.00011086294
0.00013455095
0.0001651929
0.00020140113
0.00024603036
0.00030107572
0.00037247409
0.0004569994
0.000561457
0.00069728722
0.00085841694
0.001009533
0.0010088862
0.0010082234
0.0010075253
0.0010067879
0.0010060021
0.0010051538
0.0010042338
0.0010032575
0.0010023203
0.0010016157
0.0010010682
0.0010006501
0.0010003363
0.0010001145
0.00099998408
0.000999957
0.0010000452
0.0010002236
0.0010003934
0.0010004143
0.0010002217
1.010156e-07
3.4745629e-06
2.1010527e-06
2.4992309e-06
2.0410526e-06
1.8981021e-06
2.1048652e-06
1.8365356e-06
1.8083153e-06
1.7646407e-06
1.7655648e-06
1.791633e-06
1.8496518e-06
1.9334175e-06
2.0405636e-06
2.170208e-06
2.3225769e-06
2.4968033e-06
2.6976579e-06
2.9262297e-06
3.1850205e-06
3.4770648e-06
3.8059928e-06
4.1761399e-06
4.5927123e-06
5.0619936e-06
5.5853305e-06
6.1819163e-06
6.8590136e-06
7.6308967e-06
8.5155239e-06
9.5353186e-06
1.0718494e-05
1.2100537e-05
1.3726135e-05
1.5651275e-05
1.7945522e-05
2.0695165e-05
2.4007624e-05
2.8015813e-05
3.2884911e-05
3.9100529e-05
4.6413201e-05
5.5363957e-05
6.6338928e-05
7.9812627e-05
9.6370965e-05
0.00011673827
0.00014312431
0.00017424964
0.000212597
0.00025987744
0.00031820808
0.00039388495
0.00048348916
0.00059424465
0.00073832296
0.00090923045
0.0010090758
0.001008402
0.0010077022
0.0010069691
0.001006197
0.0010053799
0.0010045066
0.0010035678
0.0010025969
0.0010018105
0.0010011924
0.00100072
0.0010003615
0.0010000928
0.00099990805
0.00099980563
0.00099979256
0.00099987363
0.0010000268
0.0010001749
0.0010002151
0.001000116
9.7264926e-08
2.7743052e-06
1.7934189e-06
1.998578e-06
1.7516953e-06
1.5545758e-06
1.6627836e-06
1.4942313e-06
1.4809507e-06
1.4803944e-06
1.5078583e-06
1.5667481e-06
1.6511728e-06
1.7576665e-06
1.885303e-06
2.0342823e-06
2.2045219e-06
2.3991367e-06
2.6196732e-06
2.8684282e-06
3.1481496e-06
3.462052e-06
3.8139021e-06
4.2081569e-06
4.6501598e-06
5.142824e-06
5.6993675e-06
6.3271734e-06
7.0381702e-06
7.8473261e-06
8.7736433e-06
9.8408713e-06
1.1078919e-05
1.2525358e-05
1.4227468e-05
1.6244747e-05
1.865163e-05
2.1539584e-05
2.5022941e-05
2.9242619e-05
3.4599781e-05
4.0908431e-05
4.8619548e-05
5.806493e-05
6.9652165e-05
8.3884345e-05
0.00010138169
0.00012291134
0.00015076823
0.00018367506
0.00022423054
0.00027424555
0.00033596652
0.00041600931
0.00051085207
0.00062810653
0.00078063163
0.00096161327
0.0010086143
0.0010079134
0.0010071823
0.0010064198
0.0010056182
0.0010047729
0.0010038816
0.001002953
0.001002062
0.0010013789
0.0010008385
0.0010004279
0.0010001246
0.00099989686
0.00099974696
0.0009996703
0.00099966967
0.0009997414
0.00099986878
0.001000002
0.0010000672
0.0010000313
9.5079682e-08
2.1640135e-06
1.5259545e-06
1.5224845e-06
1.4849015e-06
1.2609955e-06
1.3034327e-06
1.2213277e-06
1.2355199e-06
1.2655111e-06
1.3261307e-06
1.4108215e-06
1.5165463e-06
1.641964e-06
1.7873091e-06
1.9535705e-06
2.1415726e-06
2.3542858e-06
2.5935087e-06
2.8617608e-06
3.1619344e-06
3.4973625e-06
3.8719143e-06
4.2901455e-06
4.7575054e-06
5.2806195e-06
5.8676552e-06
6.5287647e-06
7.2682175e-06
8.1151316e-06
9.0837808e-06
1.0199326e-05
1.1493493e-05
1.300613e-05
1.4787158e-05
1.6968016e-05
1.9509101e-05
2.2561092e-05
2.6245853e-05
3.0713895e-05
3.6150837e-05
4.2785284e-05
5.09001e-05
6.0844097e-05
7.3047718e-05
8.8042603e-05
0.00010648439
0.00013031164
0.0001584719
0.00019316218
0.0002359261
0.00028867672
0.00035713704
0.00043814426
0.00053823806
0.00066202151
0.00082296212
0.0010088901
0.0010081573
0.0010074294
0.0010066717
0.0010058848
0.0010050612
0.0010041951
0.0010032871
0.00100237
0.0010016211
0.0010010225
0.0010005514
0.0010001887
0.00099993024
0.00099974323
0.00099962703
0.00099957242
0.00099958218
0.00099964432
0.00099974709
0.00099986751
0.00099996443
0.00099999802
9.523844e-08
1.6437781e-06
1.3002693e-06
1.1580613e-06
1.2171613e-06
1.0153681e-06
1.0398226e-06
1.0197994e-06
1.0622605e-06
1.1215007e-06
1.2060797e-06
1.3102514e-06
1.4329117e-06
1.5741816e-06
1.7350939e-06
1.9171251e-06
2.1217737e-06
2.3515951e-06
2.6087349e-06
2.8958239e-06
3.2158402e-06
3.5721945e-06
3.9688414e-06
4.4104365e-06
4.9025556e-06
5.4519895e-06
6.0671393e-06
6.7585111e-06
7.5393319e-06
8.4263319e-06
9.4406652e-06
1.0609136e-05
1.1965541e-05
1.3552404e-05
1.5422999e-05
1.7643842e-05
2.0297772e-05
2.3487953e-05
2.7342181e-05
3.201883e-05
3.7713762e-05
4.4668266e-05
5.3177926e-05
6.360953e-05
7.6414504e-05
9.2913486e-05
0.00011241502
0.00013641122
0.00016596064
0.00020237425
0.00024727439
0.00030551369
0.00037440891
0.00045950118
0.00056468679
0.00070156987
0.00086387025
0.0010084614
0.0010077135
0.0010069604
0.0010061808
0.0010053728
0.0010045316
0.0010036564
0.0010027579
0.0010019008
0.0010012481
0.0010007302
0.0010003277
0.0010000155
0.00099978054
0.00099962466
0.00099954308
0.00099950591
0.00099952296
0.0009995788
0.00099966698
0.00099977787
0.0009998876
0.00099997033
9.8536005e-08
1.219194e-06
1.1134579e-06
8.9157148e-07
1.0609951e-06
8.1274006e-07
8.5891617e-07
8.8328639e-07
9.4842386e-07
1.0306573e-06
1.1325653e-06
1.2516777e-06
1.388339e-06
1.5435188e-06
1.7186638e-06
1.9154698e-06
2.1358661e-06
2.3818567e-06
2.656054e-06
2.9610661e-06
3.2999347e-06
3.6761425e-06
4.0937312e-06
4.5574657e-06
5.0730617e-06
5.6474928e-06
6.2894046e-06
7.0096795e-06
7.8220624e-06
8.744015e-06
9.7976415e-06
1.1011022e-05
1.2419593e-05
1.4067974e-05
1.6012077e-05
1.8321734e-05
2.1083834e-05
2.4406199e-05
2.842233e-05
3.3297279e-05
3.9502886e-05
4.6813894e-05
5.5759463e-05
6.6724525e-05
8.0183137e-05
9.6720447e-05
0.00011705942
0.00014209374
0.00017292574
0.0002128975
0.00026011468
0.00031836563
0.00039028496
0.00047915254
0.0005948025
0.00073184306
0.0009015683
0.0010080529
0.001007288
0.001006515
0.0010057197
0.0010048974
0.0010040415
0.0010031531
0.0010022635
0.001001525
0.0010009399
0.0010004866
0.0010001405
0.00099988721
0.00099968508
0.00099954218
0.00099948758
0.00099946558
0.00099948645
0.00099953737
0.00099961776
0.00099972711
0.00099984731
0.00099995551
1.0508193e-07
9.4484545e-07
9.50589e-07
7.5378101e-07
7.5678683e-07
6.9325956e-07
7.3779673e-07
7.9705281e-07
8.7936996e-07
9.7765123e-07
1.0925631e-06
1.2239935e-06
1.3729785e-06
1.5408143e-06
1.729073e-06
1.9395097e-06
2.1740856e-06
2.4349856e-06
2.724656e-06
3.0458499e-06
3.4016922e-06
3.7957676e-06
4.2322443e-06
4.7160494e-06
5.2531126e-06
5.848592e-06
6.5144949e-06
7.2607378e-06
8.1088564e-06
9.0656411e-06
1.0159186e-05
1.1418959e-05
1.2882123e-05
1.4595402e-05
1.6617307e-05
1.9020811e-05
2.1896639e-05
2.5357292e-05
2.9541964e-05
3.4622658e-05
4.0811718e-05
4.8371156e-05
5.7624014e-05
6.8966863e-05
8.2890812e-05
0.00010000136
0.0001221243
0.00014822962
0.00018037464
0.00021998817
0.00026884166
0.000329138
0.00040361741
0.00050040666
0.00061517179
0.00075728363
0.00093344532
0.0010076816
0.0010068966
0.0010061019
0.0010052909
0.0010044607
0.0010036072
0.0010027325
0.0010018745
0.0010012232
0.0010007005
0.0010002967
0.00099999159
0.00099978722
0.00099961046
0.00099949806
0.00099945449
0.00099944658
0.00099946951
0.00099951769
0.00099959454
0.00099970403
0.0009998308
0.00099995099
1.1953398e-07
9.46449e-07
7.9336801e-07
5.5901295e-07
6.014995e-07
6.0430321e-07
6.6704239e-07
7.449618e-07
8.4071769e-07
9.5108471e-07
1.0770235e-06
1.2193425e-06
1.3793141e-06
1.5583298e-06
1.7579873e-06
1.9800658e-06
2.2265545e-06
2.4996784e-06
2.8019341e-06
3.1361341e-06
3.5054678e-06
3.9135876e-06
4.3647313e-06
4.8638988e-06
5.4171013e-06
6.0317038e-06
6.7168791e-06
7.4841918e-06
8.348338e-06
9.3280317e-06
1.0447071e-05
1.1735677e-05
1.3232014e-05
1.4984078e-05
1.7051949e-05
1.9510529e-05
2.2452886e-05
2.5994323e-05
3.0277384e-05
3.5478021e-05
4.1813314e-05
4.9906081e-05
5.9450106e-05
7.1146427e-05
8.5500841e-05
0.00010313675
0.0001248251
0.00015151999
0.0001844035
0.00022494021
0.0002749532
0.00033981828
0.00041669354
0.00051176529
0.00062947393
0.00077538407
0.00095646775
0.0010073761
0.0010065703
0.0010057505
0.0010049147
0.0010040621
0.0010031954
0.0010023337
0.0010015738
0.0010009846
0.0010005217
0.0010001646
0.00099989727
0.00099969579
0.00099955555
0.00099948247
0.00099944377
0.00099944432
0.00099946947
0.00099951628
0.00099959133
0.00099969979
0.00099982797
0.00099995069
1.0959464e-07
6.104836e-07
6.2932276e-07
4.6298002e-07
5.0475788e-07
5.499814e-07
6.2778976e-07
7.1924596e-07
8.2560227e-07
9.4618939e-07
1.0820629e-06
1.2342595e-06
1.4040791e-06
1.5929672e-06
1.8025546e-06
2.0346666e-06
2.2913469e-06
2.5748502e-06
2.8877843e-06
3.2330108e-06
3.6137885e-06
4.0338398e-06
4.4974748e-06
5.0097686e-06
5.5768152e-06
6.2060763e-06
6.9068443e-06
7.690844e-06
8.5800127e-06
9.5824878e-06
1.0727377e-05
1.2045667e-05
1.3576433e-05
1.5368776e-05
1.7484101e-05
1.9998917e-05
2.3008227e-05
2.6629703e-05
3.1008807e-05
3.6325099e-05
4.2799988e-05
5.0706235e-05
6.0379665e-05
7.2235496e-05
8.6785539e-05
0.00010466244
0.00012664883
0.00015506315
0.00018865327
0.00023005819
0.00028114537
0.00034423936
0.00042224344
0.00051879121
0.00063844094
0.00078692383
0.00097144437
0.0010071605
0.0010063413
0.0010055049
0.0010046514
0.0010037804
0.0010028986
0.0010020393
0.0010013453
0.0010007996