/*--------------------------------*- C++ -*----------------------------------*\
  =========                 |
  \\      /  F ield         | OpenFOAM: The Open Source CFD Toolbox
   \\    /   O peration     | Website:  https://openfoam.org
    \\  /    A nd           | Version:  12
     \\/     M anipulation  |
\*---------------------------------------------------------------------------*/
FoamFile
{
    format      ascii;
    class       volScalarField;
    location    "0.07";
    object      p;
}
// * * * * * * * * * * * * * * * * * * * * * * * * * * * * * * * * * * * * * //

dimensions      [1 -1 -2 0 0 0 0];

internalField   nonuniform List<scalar> 
16000
(
89415.424
89541.756
89553.691
89688.541
89714.646
89842.509
89892.965
90010.073
90084.043
90195.415
90287.736
90399.008
90505.442
90621.046
90738.554
90861.529
90988.587
91120.33
91256.638
91397.6
91543.228
91693.528
91848.486
92008.064
92172.198
92340.796
92513.738
92690.873
92872.014
93056.944
93245.412
93437.129
93631.776
93828.999
94028.413
94229.606
94432.139
94635.549
94839.359
95043.078
95246.205
95448.238
95648.678
95847.035
96042.834
96235.618
96424.961
96610.461
96791.755
96968.512
97140.439
97307.283
97468.829
97624.9
97775.359
97920.104
98059.065
98192.204
98319.509
98440.998
98556.71
98666.704
98771.058
98869.868
98963.242
99051.302
99134.173
99211.983
99284.863
99352.936
99416.283
99475.083
99529.552
99579.726
99625.764
99664.52
99727.156
99681.019
99890.941
99643.569
89026.653
89169.913
89179.222
89326.229
89353.947
89492.763
89545.645
89674.066
89751.852
89873.362
89972.049
90092.251
90206.97
90331.402
90458.128
90590.539
90727.438
90869.313
91016.086
91167.815
91324.499
91486.121
91652.637
91823.975
92000.033
92180.677
92365.738
92555.013
92748.264
92945.214
93145.55
93348.922
93554.947
93763.205
93973.249
94184.601
94396.763
94609.22
94821.441
95032.892
95243.037
95451.347
95657.306
95860.419
96060.213
96256.25
96448.125
96635.475
96817.976
96995.347
97167.352
97333.796
97494.528
97649.437
97798.448
97941.521
98078.646
98209.842
98335.148
98454.629
98568.366
98676.454
98779.001
98876.128
98967.962
99054.636
99136.282
99213.03
99285.007
99352.317
99415.048
99473.376
99527.511
99577.234
99622.397
99668.062
99709.092
99705.506
99859.13
99664.129
88670.042
88828.807
88837.875
88998.238
89025.903
89178.434
89232.911
89373.608
89456.196
89588.164
89694.575
89824.306
89948.545
90082.792
90219.91
90362.941
90510.898
90664.144
90822.618
90986.339
91155.275
91329.374
91508.553
91692.696
91881.654
92075.239
92273.23
92475.363
92681.335
92890.802
93103.38
93318.646
93536.143
93755.378
93975.83
94196.954
94418.188
94638.957
94858.683
95076.79
95292.713
95505.905
95715.847
95922.048
96124.058
96321.471
96513.924
96701.104
96882.75
97058.647
97228.63
97392.58
97550.424
97702.127
97847.688
97987.14
98120.541
98247.97
98369.527
98485.325
98595.49
98700.158
98799.467
98893.564
98982.598
99066.71
99146.04
99220.717
99290.856
99356.546
99417.877
99475.031
99528.105
99576.738
99621.939
99667.616
99700.811
99720.537
99838.075
99674.262
88348.758
88518.289
88528.427
88704.1
88731.22
88899.906
88956.537
89111.485
89199.827
89343.796
89459.413
89600.037
89735.43
89880.967
90030.019
90185.174
90345.65
90511.689
90683.232
90860.258
91042.704
91230.481
91423.461
91621.482
91824.341
92031.79
92243.54
92459.255
92678.553
92901.009
93126.153
93353.476
93582.431
93812.442
94042.906
94273.205
94502.707
94730.783
94956.807
95180.174
95400.3
95616.638
95828.677
96035.957
96238.069
96434.657
96625.426
96810.135
96988.602
97160.7
97326.354
97485.535
97638.259
97784.58
97924.581
98058.373
98186.088
98307.872
98423.883
98534.288
98639.259
98738.968
98833.586
98923.283
99008.224
99088.561
99164.437
99235.978
99303.288
99366.442
99425.534
99480.726
99531.978
99579.063
99623.674
99667.203
99697.56
99728.559
99823.949
99676.186
88065.696
88250.162
88257.022
88451.48
88477.561
88664.753
88723.655
88894.778
88990.228
89147.638
89274.288
89427.067
89575.215
89733.378
89895.696
90064.255
90238.482
90418.527
90604.332
90795.843
90992.964
91195.56
91403.452
91616.414
91834.169
92056.392
92282.704
92512.675
92745.822
92981.617
93219.485
93458.813
93698.953
93939.235
94178.968
94417.457
94654.008
94887.942
95118.602
95345.366
95567.656
95784.943
95996.757
96202.69
96402.402
96595.617
96782.129
96961.797
97134.54
97300.336
97459.216
97611.257
97756.573
97895.312
98027.649
98153.775
98273.896
98388.224
98496.976
98600.368
98698.614
98791.92
98880.485
98964.498
99044.136
99119.559
99190.91
99258.309
99321.849
99381.595
99437.647
99490.12
99538.868
99583.917
99627.123
99667.763
99696.444
99733.937
99812.281
99674.198
87826.335
88028.443
88033.127
88248.696
88273.606
88481.377
88542.526
88731.555
88835.404
89007.207
89146.321
89311.931
89473.881
89645.594
89822.191
90005.267
90194.431
90389.751
90591.144
90798.508
91011.685
91230.467
91454.594
91683.746
91917.544
92155.553
92397.276
92642.16
92889.6
93138.939
93389.479
93640.488
93891.208
94140.868
94388.692
94633.915
94875.792
95113.615
95346.718
95574.493
95796.393
96011.944
96220.749
96422.487
96616.919
96803.88
96983.283
97155.108
97319.401
97476.26
97625.837
97768.32
97903.93
98032.914
98155.534
98272.06
98382.769
98487.935
98587.825
98682.698
98772.803
98858.375
98939.632
99016.776
99089.991
99159.439
99225.259
99287.564
99346.435
99401.935
99454.162
99503.174
99548.773
99591.246
99632.281
99669.5
99696.551
99738.246
99801.146
99669.844
87632.412
87855.416
87857.263
88097.492
88121.321
88353.207
88417.62
88626.219
88738.629
88924.236
89076.72
89255.721
89432.741
89619.44
89811.93
90011.308
90217.269
90429.779
90648.689
90873.808
91104.885
91341.608
91583.597
91830.409
92081.531
92336.384
92594.325
92854.652
93116.609
93379.394
93642.173
93904.085
94164.259
94421.831
94675.953
94925.81
95170.635
95409.719
95642.426
95868.199
96086.569
96297.158
96499.682
96693.948
96879.854
97057.381
97226.588
97387.6
97540.605
97685.838
97823.575
97954.121
98077.804
98194.962
98305.941
98411.082
98510.723
98605.186
98694.782
98779.801
98860.518
98937.184
99010.029
99079.26
99145.061
99207.59
99266.977
99323.325
99376.704
99427.179
99474.843
99519.691
99561.527
99600.88
99639.01
99672.224
99697.499
99742.185
99790.575
99663.988
87478.479
87726.065
87723.577
87993.509
88014.253
88273.064
88340.739
88568.583
88692.495
88894.014
89063.316
89258.368
89453.357
89657.878
89869.003
90087.404
90312.811
90545.082
90783.979
91029.198
91280.364
91537.028
91798.66
92064.655
92334.333
92606.94
92881.657
93157.605
93433.86
93709.46
93983.426
94254.775
94522.537
94785.773
95043.592
95295.168
95539.753
95776.689
96005.418
96225.492
96436.569
96638.42
96830.923
97014.057
97187.894
97352.59
97508.374
97655.536
97794.412
97925.379
98048.838
98165.206
98274.905
98378.359
98475.98
98568.169
98655.307
98737.754
98815.845
98889.891
98960.178
99026.963
99090.477
99150.923
99208.476
99263.283
99315.463
99365.104
99412.266
99457.018
99499.437
99539.466
99576.969
99612.659
99647.145
99675.801
99699.168
99745.659
99779.867
99657.327
87361.747
87637.782
87630.844
87937.719
87952.761
88240.548
88313.14
88562.763
88703.292
88923.272
89113.111
89327.207
89543.311
89768.838
90001.686
90242.174
90489.998
90744.888
91006.474
91274.304
91547.838
91826.444
92109.404
92395.908
92685.069
92975.922
93267.44
93558.547
93848.137
94135.087
94418.285
94696.642
94969.122
95234.754
95492.655
95742.044
95982.258
96212.755
96433.128
96643.099
96842.52
97031.368
97209.73
97377.799
97535.852
97684.243
97823.385
97953.734
98075.78
98190.029
98296.996
98397.195
98491.129
98579.282
98662.119
98740.078
98813.565
98882.959
98948.604
99010.815
99069.874
99126.032
99179.51
99230.497
99279.152
99325.607
99369.96
99412.282
99452.627
99491.06
99527.635
99562.258
99594.91
99626.389
99656.516
99680.27
99701.73
99748.276
99769.32
99650.679
87283.939
87593.184
87583.073
87927.358
87941.17
88261.061
88345.055
88619.884
88780.552
89021.194
89235.387
89471.882
89712.499
89962.548
90220.521
90486.429
90759.863
91040.387
91327.45
91620.4
91918.476
92220.815
92526.449
92834.318
93143.28
93452.124
93759.594
94064.407
94365.275
94660.935
94950.171
95231.84
95504.893
95768.399
96021.563
96263.734
96494.421
96713.287
96920.155
97114.996
97297.921
97469.163
97629.065
97778.057
97916.643
98045.378
98164.856
98275.692
98378.509
98473.925
98562.546
98644.957
98721.714
98793.343
98860.332
98923.133
98982.159
99037.785
99090.348
99140.147
99187.451
99232.489
99275.463
99316.538
99355.851
99393.51
99429.592
99464.148
99497.22
99528.864
99559.101
99587.829
99615.165
99641.878
99667.002
99685.799
99705.421
99749.705
99758.086
99644.721
87252.027
87600.761
87586.679
87971.439
87988.996
88345.307
88444.727
88746.991
88933.511
89197.774
89440.621
89703.52
89972.45
90250.891
90537.696
90832.595
91135.005
91444.263
91759.568
92079.995
92404.49
92731.882
93060.894
93390.158
93718.24
94043.662
94364.93
94680.567
94989.138
95289.289
95579.768
95859.46
96127.407
96382.825
96625.118
96853.883
97068.907
97270.161
97457.783
97632.065
97793.427
97942.399
98079.597
98205.699
98321.425
98427.52
98524.734
98613.812
98695.478
98770.432
98839.335
98902.812
98961.442
99015.76
99066.254
99113.366
99157.492
99198.984
99238.153
99275.271
99310.575
99344.266
99376.514
99407.456
99437.199
99465.823
99493.38
99519.9
99545.408
99569.941
99593.481
99615.945
99637.572
99658.969
99678.546
99692.544
99710.431
99750.204
99746.781
99639.678
87275.459
87671.207
87653.11
88086.006
88108.832
88505.08
88624.037
88955.499
89173.586
89464.76
89740.635
90034.449
90335.932
90647.062
90966.807
91294.579
91629.518
91970.635
92316.779
92666.647
93018.804
93371.694
93723.669
94073.016
94417.991
94756.853
95087.901
95409.516
95720.198
96018.601
96303.567
96574.147
96829.623
97069.51
97293.558
97501.743
97694.248
97871.439
98033.842
98182.114
98317.011
98439.363
98550.048
98649.966
98740.023
98821.111
98894.095
98959.806
99019.027
99072.493
99120.885
99164.829
99204.895
99241.598
99275.397
99306.702
99335.872
99363.219
99389.011
99413.482
99436.826
99459.207
99480.755
99501.574
99521.738
99541.296
99560.272
99578.671
99596.5
99613.763
99630.408
99646.387
99662.012
99677.617
99691.241
99700.602
99716.636
99750.369
99735.714
99636.208
87355.532
87807.232
87785.78
88273.664
88304.883
88744.795
88890.979
89254.243
89511.075
89833.99
90148.09
90478.331
90817.474
91166.289
91523.617
91888.45
92259.509
92635.344
93014.327
93394.678
93774.49
94151.766
94524.453
94890.483
95247.825
95594.531
95928.787
96248.961
96553.644
96841.687
97112.22
97364.667
97598.743
97814.44
98012.007
98191.918
98354.839
98501.59
98633.109
98750.417
98854.585
98946.707
99027.873
99099.152
99161.575
99216.122
99263.718
99305.221
99341.425
99373.055
99400.768
99425.159
99446.754
99466.021
99483.37
99499.157
99513.687
99527.216
99539.964
99552.11
99563.803
99575.159
99586.268
99597.195
99607.979
99618.64
99629.172
99639.557
99649.77
99659.779
99669.508
99678.947
99688.412
99697.918
99705.427
99710.279
99723.915
99750.747
99726.18
99635.164
87497.087
88015.193
87991.007
88541.282
88587.36
89074.921
89257.704
89656.2
89959.641
90320.706
90679.179
91052.405
91435.215
91827.314
92227.135
92633.08
93043.285
93455.7
93868.107
94278.16
94683.424
95081.428
95469.722
95845.943
96207.877
96553.53
96881.181
97189.428
97477.226
97743.894
97989.119
98212.931
98415.681
98597.992
98760.721
98904.904
99031.715
99142.416
99238.321
99320.758
99391.043
99450.453
99500.214
99541.481
99575.335
99602.776
99624.72
99642
99655.368
99665.498
99672.986
99678.361
99682.083
99684.551
99686.104
99687.032
99687.572
99687.92
99688.234
99688.637
99689.225
99690.067
99691.207
99692.672
99694.469
99696.586
99698.993
99701.644
99704.483
99707.438
99710.417
99713.435
99716.745
99720.084
99721.646
99722.237
99732.499
99751.243
99719.238
99638.405
87706.782
88304.312
88279.298
88900.469
88968.702
89508.024
89738.747
90177.751
90536.893
90944.685
91355.106
91778.912
92211.986
92652.978
93099.655
93549.671
94000.428
94449.155
94892.944
95328.814
95753.782
96164.951
96559.594
96935.249
97289.799
97621.534
97929.193
98211.985
98469.582
98702.093
98910.02
99094.202
99255.753
99396.001
99516.424
99618.593
99704.123
99774.633
99831.707
99876.874
99911.584
99937.193
99954.962
99966.044
99971.491
99972.25
99969.172
99963.012
99954.437
99944.033
99932.309
99919.703
99906.59
99893.283
99880.044
99867.083
99854.568
99842.625
99831.349
99820.807
99811.039
99802.065
99793.886
99786.492
99779.858
99773.947
99768.707
99764.066
99759.936
99756.215
99752.797
99749.69
99747.035
99744.411
99740.495
99737.166
99743.291
99753.125
99716.547
99648.431
87990.917
88683.336
88660.417
89362.147
89463.949
90060.987
90354.431
90842.582
91268.051
91732.953
92203.711
92685.724
93175.083
93669.349
94165.42
94660.022
95149.653
95630.678
96099.423
96552.286
96985.87
97397.104
97783.36
98142.539
98473.129
98774.224
99045.515
99287.246
99500.15
99685.372
99844.385
99978.902
100090.8
100182.04
100254.62
100310.52
100351.63
100379.8
100396.71
100403.98
100403.04
100395.22
100381.73
100363.63
100341.86
100317.27
100290.59
100262.47
100233.44
100204
100174.53
100145.37
100116.81
100089.06
100062.3
100036.66
100012.24
99989.088
99967.246
99946.722
99927.502
99909.559
99892.855
99877.342
99862.972
99849.684
99837.408
99826.052
99815.51
99805.655
99796.366
99787.604
99779.388
99771.293
99762.605
99755.772
99757.355
99758.748
99720.298
99666.758
88357.066
89162.867
89147.71
89945.194
90097.693
90762.564
91135.941
91684.159
92186.653
92719.13
93258.001
93804.544
94354.342
94903.669
95448.224
95983.528
96504.979
97008.035
97488.394
97942.178
98366.092
98757.548
99114.735
99436.646
99723.046
99974.405
100191.81
100376.84
100531.45
100657.89
100758.55
100835.89
100892.38
100930.44
100952.35
100960.29
100956.27
100942.12
100919.54
100890.02
100854.91
100815.4
100772.54
100727.25
100680.33
100632.46
100584.23
100536.15
100488.62
100442.01
100396.59
100352.59
100310.2
100269.54
100230.71
100193.77
100158.72
100125.58
100094.32
100064.89
100037.23
100011.28
99986.947
99964.166
99942.86
99922.954
99904.362
99886.985
99870.709
99855.401
99840.911
99827.129
99813.988
99801.195
99788.601
99778.614
99775.406
99769.592
99732.109
99693.956
88825.158
89770.751
89774.773
90687.737
90908.617
91651.659
92122.404
92741.968
93331.135
93940.861
94554.355
95169.445
95780.343
96381.53
96967.109
97531.249
98068.405
98573.606
99042.674
99472.401
99860.635
100206.29
100509.32
100770.55
100991.59
101174.66
101322.39
101437.71
101523.69
101583.46
101620.05
101636.4
101635.29
101619.27
101590.69
101551.69
101504.17
101449.83
101390.17
101326.51
101259.98
101191.58
101122.16
101052.44
100983.04
100914.47
100847.16
100781.46
100717.66
100655.98
100596.6
100539.63
100485.16
100433.24
100383.89
100337.08
100292.78
100250.93
100211.45
100174.26
100139.24
100106.29
100075.31
100046.18
100018.83
99993.143
99969.042
99946.428
99925.198
99905.218
99886.302
99868.273
99851.048
99834.557
99819.008
99806.233
99798.287
99786.971
99753.687
99728.971
89427.719
90550.87
90584.325
91631.374
91939.531
92768.828
93355.874
94060.465
94745.954
95441.494
96133.207
96815.366
97479.974
98119.44
98726.473
99294.593
99818.444
100294.03
100718.8
101091.69
101412.98
101684.09
101907.41
102086.06
102223.6
102323.9
102390.91
102428.56
102440.63
102430.7
102402.08
102357.77
102300.52
102232.76
102156.64
102074.06
101986.66
101895.87
101802.92
101708.85
101614.56
101520.8
101428.18
101337.23
101248.37
101161.95
101078.23
100997.42
100919.69
100845.13
100773.82
100705.78
100641.01
100579.49
100521.17
100465.95
100413.77
100364.49
100318.02
100274.21
100232.94
100194.05
100157.42
100122.92
100090.44
100059.88
100031.14
100004.15
99978.807
99954.993
99932.485
99911.075
99890.749
99871.666
99854.098
99838.959
99826.848
99812.167
99785.213
99771.347
90193.732
91530.752
91608.332
92809.508
93238.778
94166.383
94891.446
95697.766
96487.081
97270.636
98033.979
98767.789
99462.11
100108.38
100699.64
101230.86
101699.11
102103.46
102444.78
102725.45
102949.02
103119.88
103242.89
103323.17
103365.83
103375.82
103357.81
103316.15
103254.77
103177.21
103086.6
102985.71
102876.93
102762.35
102643.74
102522.64
102400.32
102277.89
102156.24
102036.14
101918.2
101802.92
101690.71
101581.88
101476.69
101375.31
101277.87
101184.44
101095.08
101009.78
100928.53
100851.26
100777.91
100708.39
100642.59
100580.37
100521.61
100466.16
100413.87
100364.58
100318.12
100274.33
100233.05
100194.16
100157.51
100123
100090.54
100060.05
100031.48
100004.69
99979.434
99955.542
99933.145
99912.549
99893.781
99876.757
99861.444
99845.521
99826.041
99821.202
91153.432
92757.675
92916.272
94288.772
94885.179
95927.188
96807.406
97725.919
98613.338
99467.671
100272.91
101017.96
101693.54
102293.34
102814.03
103255.07
103618.38
103907.83
104128.7
104287.19
104389.99
104443.87
104455.44
104430.95
104376.18
104296.35
104196.12
104079.58
103950.32
103811.41
103665.49
103514.81
103361.25
103206.42
103051.63
102897.99
102746.39
102597.57
102452.12
102310.5
102173.09
102040.16
101911.91
101788.48
101669.95
101556.37
101447.75
101344.05
101245.22
101151.17
101061.82
100977.03
100896.69
100820.65
100748.74
100680.83
100616.72
100556.25
100499.24
100445.52
100394.89
100347.18
100302.22
100259.87
100219.99
100182.45
100147.18
100114.11
100083.18
100054.24
100027.05
100001.56
99978.043
99956.835
99937.496
99919.129
99901.941
99887.035
99875.511
99877.034
92390.604
94332.461
94617.181
96181.676
96992.891
98157.96
99188.316
100203.55
101151.91
102024.65
102807.94
103493.99
104079.08
104563.57
104951.13
105247.94
105461.9
105601.85
105676.97
105696.28
105668.35
105601.05
105501.46
105375.85
105229.67
105067.64
104893.75
104711.4
104523.42
104332.18
104139.66
103947.47
103756.92
103569.08
103384.82
103204.82
103029.62
102859.61
102695.1
102536.31
102383.38
102236.39
102095.39
101960.34
101831.23
101707.96
101590.45
101478.57
101372.2
101271.19
101175.37
101084.59
100998.67
100917.42
100840.65
100768.19
100699.83
100635.38
100574.65
100517.45
100463.57
100412.84
100365.09
100320.16
100277.9
100238.2
100200.97
100166.17
100133.7
100103.4
100075.06
100048.76
100024.93
100003.74
99984.228
99965.024
99947.167
99934.994
99931.872
99937.742
94037.587
96396.483
96862.644
98617.302
99678.53
100951.78
102079.54
103124.62
104049.09
104846.64
105512.98
106050.2
106464.89
106766.92
106968.13
107081.22
107118.88
107093.17
107015.19
106894.83
106740.75
106560.38
106360.06
106145.09
105919.87
105688.07
105452.65
105216.07
104980.28
104746.87
104517.11
104291.97
104072.25
103858.52
103651.23
103450.71
103257.16
103070.72
102891.45
102719.37
102554.44
102396.58
102245.7
102101.66
101964.33
101833.54
101709.11
101590.87
101478.62
101372.17
101271.3
101175.82
101085.53
101000.2
100919.63
100843.61
100771.94
100704.41
100640.82
100580.96
100524.64
100471.68
100421.89
100375.14
100331.26
100290.15
100251.73
100215.93
100182.65
100151.67
100122.88
100096.48
100072.95
100052.18
100032.76
100013.31
99996.007
99987.371
99991.162
99999.811
96285.49
99111.262
99821.365
101716.84
102990.1
104310.8
105418.81
106365.58
107137.98
107741.71
108187.79
108492.02
108672.37
108747.29
108734.5
108650.24
108508.88
108322.83
108102.57
107856.85
107592.87
107316.49
107032.45
106744.57
106455.88
106168.78
105885.16
105606.49
105333.89
105068.23
104810.13
104560.05
104318.3
104085.08
103860.5
103644.56
103437.26
103238.49
103048.15
102866.09
102692.13
102526.08
102367.75
102216.9
102073.34
101936.82
101807.12
101684.01
101567.25
101456.62
101351.86
101252.77
101159.1
101070.62
100987.13
100908.39
100834.19
100764.32
100698.58
100636.75
100578.65
100524.1
100472.92
100424.95
100380.07
100338.15
100299.14
100262.94
100229.39
100198.31
100169.65
100143.69
100120.85
100100.72
100081.63
100062.55
100046.77
100041.84
100050.52
100059.92
99388.127
102591.57
103609.28
105571.77
106886.26
108059.38
108980.74
109675.04
110160.02
110462.38
110610.13
110630.86
110549.73
110388.79
110166.73
109899.01
109598.19
109274.37
108935.54
108588.01
108236.69
107885.37
107537
107193.81
106857.47
106529.23
106210.01
105900.43
105600.94
105311.79
105033.12
104764.97
104507.29
104259.97
104022.86
103795.77
103578.48
103370.76
103172.34
102982.98
102802.4
102630.32
102466.47
102310.58
102162.37
102021.56
101887.9
101761.11
101640.94
101527.12
101419.4
101317.54
101221.29
101130.42
101044.69
100963.88
100887.78
100816.16
100748.83
100685.58
100626.21
100570.56
100518.46
100469.75
100424.3
100382.03
100342.84
100306.62
100273.21
100242.42
100214.28
100189.12
100167.17
100147.76
100129.23
100111.11
100097.4
100095.61
100107.01
100116.08
103602.1
107020.4
108241.73
109940.25
111071.54
111906.57
112444.31
112739.57
112837.09
112780.08
112605.1
112342.5
112016.59
111646.48
111246.97
110829.37
110402.26
109972.08
109543.63
109120.47
108705.18
108299.64
107905.15
107522.6
107152.56
106795.36
106451.16
106119.95
105801.65
105496.09
105203.03
104922.22
104653.34
104396.09
104150.13
103915.12
103690.7
103476.55
103272.31
103077.64
102892.21
102715.68
102547.74
102388.06
102236.34
102092.28
101955.59
101825.97
101703.14
101586.85
101476.81
101372.77
101274.5
101181.73
101094.24
101011.81
100934.21
100861.24
100792.69
100728.36
100668.06
100611.63
100558.9
100509.73
100463.99
100421.6
100382.46
100346.43
100313.34
100283.05
100255.64
100231.38
100210.33
100191.66
100173.92
100157.17
100145.64
100145.99
100158.19
100166.64
108856.61
112237.55
113362.36
114495.21
115110.89
115397.81
115420.67
115253.05
114949.2
114551.65
114092.01
113593.59
113073.3
112543.3
112012.25
111486.26
110969.6
110465.19
109974.95
109500.15
109041.5
108599.37
108173.87
107764.9
107372.25
106995.59
106634.56
106288.73
105957.65
105640.87
105337.91
105048.3
104771.59
104507.3
104255
104014.25
103784.62
103565.69
103357.06
103158.34
102969.16
102789.15
102617.95
102455.23
102300.66
102153.92
102014.7
101882.7
101757.63
101639.21
101527.17
101421.25
101321.21
101226.78
101137.76
101053.9
100974.99
100900.83
100831.21
100765.94
100704.84
100647.74
100594.49
100544.95
100499
100456.54
100417.48
100381.66
100348.92
100319.17
100292.48
100269.07
100248.81
100230.84
100214.02
100198.82
100189.21
100190.59
100202.11
100210.01
115102.51
117624.42
118239.32
118523.36
118430.88
118103.07
117619.56
117041.07
116408.32
115748.89
115081.09
114416.98
113764.36
113128.2
112511.52
111916.06
111342.7
110791.7
110262.97
109756.14
109270.68
108805.98
108361.33
107936.04
107529.36
107140.6
106769.04
106413.99
106074.79
105750.81
105441.42
105146.05
104864.13
104595.11
104338.48
104093.75
103860.44
103638.09
103426.28
103224.58
103032.59
102849.94
102676.24
102511.15
102354.33
102205.45
102064.19
101930.26
101803.34
101683.17
101569.47
101461.98
101360.44
101264.62
101174.29
101089.22
101009.2
100934.02
100863.49
100797.42
100735.64
100677.97
100624.27
100574.41
100528.28
100485.76
100446.76
100411.13
100378.7
100349.42
100323.36
100300.62
100280.98
100263.62
100247.71
100233.96
100225.75
100227.21
100237.21
100244.75
121752.79
122196.59
121979.98
121431.54
120700.31
119876.42
119016.07
118151.1
117300.09
116473.28
115676.13
114911.19
114179.27
113480.2
112813.2
112177.15
111570.79
110992.78
110441.76
109916.42
109415.48
108937.73
108482.03
108047.29
107632.5
107236.71
106859.02
106498.59
106154.64
105826.41
105513.23
105214.42
104929.37
104657.5
104398.23
104151.06
103915.47
103690.99
103477.17
103273.56
103079.77
102895.4
102720.06
102553.4
102395.08
102244.75
102102.1
101966.83
101838.63
101717.23
101602.35
101493.73
101391.12
101294.29
101202.99
101117.02
101036.16
100960.22
100888.99
100822.3
100759.96
100701.82
100647.74
100597.58
100551.23
100508.6
100469.56
100433.98
100401.7
100372.7
100347.01
100324.66
100305.35
100288.37
100273.12
100260.36
100252.9
100253.82
100262.1
100269.47
125637.23
125011.67
124095.89
123043.07
121957.86
120884.37
119845.32
118850.03
117901.97
117001.4
116147.04
115336.85
114568.47
113839.48
113147.5
112490.24
111865.59
111271.55
110706.3
110168.15
109655.56
109167.09
108701.42
108257.36
107833.79
107429.66
107044.03
106676
106324.74
105989.49
105669.52
105364.14
105072.74
104794.69
104529.45
104276.47
104035.25
103805.29
103586.16
103377.4
103178.61
102989.38
102809.34
102638.13
102475.39
102320.8
102174.03
102034.78
101902.76
101777.66
101659.24
101547.21
101441.34
101341.39
101247.11
101158.3
101074.75
100996.26
100922.62
100853.67
100789.22
100729.11
100673.2
100621.36
100573.48
100529.47
100489.2
100452.52
100419.33
100389.57
100363.28
100340.43
100320.68
100303.38
100288.05
100275.47
100268.06
100268.32
100275.4
100282.7
103944.16
103916.81
103964.52
104012.5
104047.9
104057.26
104039.3
104009.2
103973.2
103927.83
103868.69
103796.41
103714.84
103628.84
103539.18
103445.93
103349.42
103250.11
103148.44
103044.79
102939.52
102832.98
102725.48
102617.32
102508.77
102400.09
102291.51
102183.26
102075.52
101968.51
101862.4
101757.37
101653.58
101551.2
101450.38
101351.27
101254.02
101158.79
101065.72
100974.96
100886.64
100800.92
100717.94
100637.84
100560.77
100486.86
100416.25
100349.08
100285.47
100225.53
100169.37
100117.09
100068.75
100024.42
99984.129
99947.896
99915.704
99887.515
99863.263
99842.852
99826.156
99813.017
99803.26
99796.639
99793.001
99791.833
99793.474
99796.069
99802.832
99805.658
99820.039
99817.522
99846.786
99822.369
99881.842
99820.512
99921.428
99816.618
99956.402
99808.541
103285.92
103279.64
103293.72
103310.38
103309.32
103302.19
103291.48
103274.02
103244.87
103209.98
103168.16
103121.18
103068.3
103010.65
102948.26
102881.82
102811.56
102737.81
102660.9
102581.14
102498.83
102414.25
102327.71
102239.48
102149.84
102059.04
101967.35
101875.02
101782.29
101689.41
101596.61
101504.1
101412.11
101320.86
101230.54
101141.36
101053.53
100967.23
100882.65
100799.99
100719.43
100641.14
100565.31
100492.1
100421.69
100354.24
100289.9
100228.83
100171.16
100117.02
100066.53
100019.79
99976.869
99937.837
99902.729
99871.555
99844.299
99820.918
99801.342
99785.469
99773.162
99764.258
99758.567
99755.841
99755.901
99758.266
99763.171
99768.98
99778.424
99784.346
99800.628
99801.225
99831.157
99810.609
99869.707
99811.947
99913.101
99808.655
99953.875
99799.324
102857.78
102842.64
102815.03
102786.06
102757.43
102730.72
102699.39
102668.7
102634.29
102599.32
102560.31
102519.88
102475.83
102429.63
102380.32
102328.45
102273.82
102216.6
102156.85
102094.66
102030.17
101963.51
101894.82
101824.27
101752.03
101678.29
101603.23
101527.04
101449.95
101372.14
101293.84
101215.27
101136.64
101058.17
100980.08
100902.59
100825.93
100750.31
100675.95
100603.07
100531.87
100462.56
100395.35
100330.44
100268.01
100208.27
100151.37
100097.5
100046.81
99999.441
99955.515
99915.144
99878.416
99845.397
99816.127
99790.618
99768.854
99750.791
99736.354
99725.438
99717.901
99713.571
99712.251
99713.689
99717.686
99723.788
99732.152
99741.3
99753.628
99762.677
99781.092
99784.509
99815.651
99798.469
99857.712
99802.999
99904.909
99800.73
99950.929
99790.515
102265.07
102242.74
102214.55
102183.42
102152.5
102125.05
102093.19
102064.22
102031.09
101999.9
101965.19
101931.22
101894.44
101857.26
101817.93
101777.29
101734.82
101690.68
101644.75
101597.02
101547.49
101496.17
101443.1
101388.33
101331.93
101274
101214.65
101154
101092.19
101029.38
100965.74
100901.45
100836.71
100771.7
100706.65
100641.75
100577.24
100513.33
100450.25
100388.23
100327.48
100268.24
100210.73
100155.15
100101.73
100050.68
100002.17
99956.409
99913.553
99873.759
99837.166
99803.891
99774.032
99747.657
99724.812
99705.512
99689.742
99677.457
99668.581
99663.003
99660.579
99661.132
99664.456
99670.3
99678.447
99688.467
99700.457
99713.066
99728.436
99740.665
99761.368
99767.453
99800.16
99785.989
99845.862
99793.74
99896.834
99792.837
99947.61
99781.961
101541.45
101525.35
101509.85
101491.39
101471.03
101454.95
101433
101415.42
101392.43
101372.75
101348.59
101326.26
101300.71
101275.64
101248.47
101220.48
101190.87
101159.95
101127.51
101093.54
101058.02
101020.93
100982.26
100942.02
100900.26
100857.02
100812.35
100766.34
100719.08
100670.69
100621.29
100571.03
100520.05
100468.54
100416.68
100364.65
100312.67
100260.94
100209.68
100159.12
100109.48
100061
100013.89
99968.395
99924.725
99883.097
99843.716
99806.776
99772.455
99740.918
99712.31
99686.755
99664.356
99645.185
99629.29
99616.689
99607.368
99601.28
99598.348
99598.458
99601.462
99607.179
99615.399
99625.869
99638.361
99652.466
99668.228
99684.417
99702.955
99718.418
99741.513
99750.228
99784.676
99773.336
99834.115
99784.307
99888.846
99784.989
99944.036
99773.469
100825.5
100818.98
100814.63
100809.24
100799.86
100795.68
100784.19
100778.59
100766.13
100758.25
100744.73
100734.01
100719.39
100705.9
100690.12
100673.85
100655.99
100637
100616.68
100595.03
100572.03
100547.66
100521.9
100494.75
100466.21
100436.3
100405.06
100372.53
100338.77
100303.85
100267.87
100230.94
100193.19
100154.74
100115.76
100076.41
100036.88
99997.36
99958.052
99919.17
99880.931
99843.558
99807.276
99772.309
99738.877
99707.197
99677.473
99649.901
99624.663
99601.926
99581.837
99564.523
99550.086
99538.6
99530.111
99524.639
99522.167
99522.649
99526.002
99532.111
99540.824
99551.957
99565.295
99580.586
99597.593
99615.928
99635.587
99655.457
99677.26
99696
99721.578
99732.95
99769.196
99760.611
99822.473
99774.805
99880.955
99777.203
99940.297
99765.085
100175.36
100175.23
100176.22
100179.18
100176.88
100181.3
100176.99
100180.33
100175.37
100176.61
100171.46
100170.62
100165.07
100160.85
100154.07
100147.34
100139.21
100130.29
100120.3
100109.25
100097.1
100083.8
100069.34
100053.68
100036.83
100018.78
99999.532
99979.121
99957.578
99934.956
99911.318
99886.747
99861.339
99835.208
99808.481
99781.303
99753.831
99726.235
99698.699
99671.416
99644.587
99618.42
99593.127
99568.92
99546.011
99524.604
99504.898
99487.083
99471.336
99457.817
99446.672
99438.02
99431.96
99428.561
99427.867
99429.892
99434.617
99441.991
99451.926
99464.304
99478.97
99495.735
99514.383
99534.661
99556.327
99579.013
99602.675
99626.309
99651.442
99673.483
99701.637
99715.737
99753.755
99747.902
99810.952
99765.318
99873.159
99769.494
99936.468
99756.917
99589.66
99594.577
99598.625
99606.746
99608.137
99618.272