/*--------------------------------*- C++ -*----------------------------------*\
  =========                 |
  \\      /  F ield         | OpenFOAM: The Open Source CFD Toolbox
   \\    /   O peration     | Website:  https://openfoam.org
    \\  /    A nd           | Version:  12
     \\/     M anipulation  |
\*---------------------------------------------------------------------------*/
FoamFile
{
    format      ascii;
    class       volScalarField;
    location    "0.003";
    object      alphat;
}
// * * * * * * * * * * * * * * * * * * * * * * * * * * * * * * * * * * * * * //

dimensions      [1 -1 -1 0 0 0 0];

internalField   nonuniform List<scalar> 
16000
(
5.7632378e-07
1.0467756e-05
2.1060465e-05
2.8279676e-05
2.4121423e-05
2.9855332e-05
2.022872e-05
2.9073102e-05
2.1665244e-05
3.1212466e-05
2.5113108e-05
3.1056586e-05
2.7441935e-05
2.8536771e-05
2.7280162e-05
2.713845e-05
2.6788044e-05
2.6694946e-05
2.668775e-05
2.6793453e-05
2.6994931e-05
2.7286949e-05
2.7662654e-05
2.8122089e-05
2.8671509e-05
2.9323583e-05
3.0090611e-05
3.0985104e-05
3.2015199e-05
3.3185488e-05
3.4507917e-05
3.6007847e-05
3.7723277e-05
3.9686727e-05
4.1928356e-05
4.4489947e-05
4.7431756e-05
5.0822651e-05
5.4736359e-05
5.9261329e-05
6.4505005e-05
7.0588055e-05
7.7645663e-05
8.5829769e-05
9.5333222e-05
0.00010639663
0.00011928533
0.00013428194
0.00015174239
0.00017206744
0.00019565588
0.00022295896
0.00025447387
0.00029070067
0.00033225412
0.00038036653
0.0004370923
0.00050248526
0.0005646999
0.00059007271
0.00056394054
0.00055182878
0.00067623188
0.0012217073
0.0012228274
0.00074178493
0.00080065006
0.0011816133
0.0011726921
0.0011683288
0.0011666275
0.001166248
0.0011661679
0.0011661528
0.0011661504
0.0011661501
0.00116615
0.0011661502
0.0011661538
0.0011662355
5.1665313e-07
1.0234402e-05
2.0384884e-05
2.7384998e-05
2.4005153e-05
2.6744368e-05
1.990301e-05
2.5434647e-05
2.0190995e-05
3.0828043e-05
2.288994e-05
2.7875906e-05
2.5145732e-05
2.5853798e-05
2.4883436e-05
2.4651971e-05
2.4360575e-05
2.4260423e-05
2.4263833e-05
2.4370608e-05
2.4568919e-05
2.4851453e-05
2.5212835e-05
2.5655021e-05
2.6183936e-05
2.6809522e-05
2.7539455e-05
2.8384199e-05
2.9356263e-05
3.0468409e-05
3.1732954e-05
3.3170705e-05
3.4811214e-05
3.6686542e-05
3.8830758e-05
4.1285451e-05
4.4107166e-05
4.7362765e-05
5.1125296e-05
5.5482063e-05
6.0540231e-05
6.6419944e-05
7.3258892e-05
8.1211131e-05
9.0467434e-05
0.00010126445
0.00011387167
0.00012857479
0.000145735
0.0001657748
0.00018911053
0.00021619964
0.00024756566
0.00028376141
0.00032548537
0.0003739848
0.00043092982
0.00049511502
0.00055302483
0.0005726968
0.00054660799
0.00054336103
0.00069507731
0.0012246487
0.0010249508
0.00068034649
0.00077157888
0.0011805446
0.001171995
0.0011679527
0.001166527
0.0011662247
0.001166163
0.001166152
0.0011661503
0.0011661501
0.00116615
0.0011661503
0.0011661559
0.0011662523
4.6009795e-07
1.0069727e-05
1.9877231e-05
2.6672032e-05
2.244042e-05
2.3635967e-05
1.8443529e-05
2.2370071e-05
1.9974753e-05
2.6707543e-05
2.0715802e-05
2.4769809e-05
2.2862665e-05
2.3182479e-05
2.2441512e-05
2.2164456e-05
2.1911548e-05
2.1810836e-05
2.1816119e-05
2.1918477e-05
2.210759e-05
2.2375998e-05
2.2718717e-05
2.3138376e-05
2.3640423e-05
2.4233375e-05
2.4922068e-05
2.571448e-05
2.6623734e-05
2.7667334e-05
2.8861812e-05
3.0225905e-05
3.1783694e-05
3.3563721e-05
3.5601208e-05
3.7938847e-05
4.0631347e-05
4.3743148e-05
4.7345941e-05
5.1526206e-05
5.6391273e-05
6.2058676e-05
6.8665337e-05
7.6369025e-05
8.5366558e-05
9.589365e-05
0.0001082191
0.00012262847
0.00013948254
0.00015921654
0.00018226955
0.00020911763
0.000240301
0.00027639851
0.00031813697
0.00036673567
0.00042351927
0.00048621699
0.0005395574
0.00055267948
0.00052666333
0.00053625022
0.00073453515
0.0012275119
0.00083105153
0.00061456034
0.00074543764
0.0011790693
0.0011711644
0.0011675613
0.0011664355
0.0011662042
0.001166159
0.0011661513
0.0011661502
0.00116615
0.00116615
0.0011661504
0.0011661596
0.001166267
4.1228419e-07
9.9455845e-06
1.9387949e-05
2.5994785e-05
2.0961782e-05
2.0833756e-05
1.6992832e-05
2.0204499e-05
1.715041e-05
2.249391e-05
1.8939483e-05
2.2043788e-05
2.07454e-05
2.0783397e-05
2.0217407e-05
1.9930554e-05
1.9712393e-05
1.9618147e-05
1.9626274e-05
1.9724917e-05
1.9905748e-05
2.0162422e-05
2.0490222e-05
2.0891496e-05
2.1370243e-05
2.1934016e-05
2.2586782e-05
2.3335692e-05
2.4193665e-05
2.5179952e-05
2.6313093e-05
2.7611629e-05
2.9097613e-05
3.0797061e-05
3.2744574e-05
3.4982898e-05
3.7565993e-05
4.0557212e-05
4.4027412e-05
4.8062025e-05
5.2769677e-05
5.8265912e-05
6.4686117e-05
7.2190544e-05
8.0984302e-05
9.1304984e-05
0.00010342281
0.0001176246
0.0001342663
0.0001537861
0.00017663311
0.00020329054
0.00023429781
0.00027023564
0.00031182672
0.00036026539
0.00041654073
0.00047720518
0.00052486988
0.00053047688
0.00050645577
0.00053489808
0.00080842701
0.0012300121
0.00068470268
0.00056463935
0.00073788633
0.0011773573
0.001170277
0.0011671916
0.0011663548
0.001166187
0.0011661558
0.0011661508
0.0011661501
0.00116615
0.0011661501
0.0011661507
0.001166165
0.0011662793
3.6763082e-07
9.8662969e-06
1.8806097e-05
2.4861129e-05
1.8119565e-05
1.8131678e-05
1.4242061e-05
1.6786402e-05
1.4194811e-05
1.8715577e-05
1.751889e-05
1.9574157e-05
1.8737835e-05
1.8578079e-05
1.8144555e-05
1.7873704e-05
1.7687573e-05
1.7604996e-05
1.7616985e-05
1.7712666e-05
1.7885777e-05
1.8131775e-05
1.8446345e-05
1.8831287e-05
1.9288971e-05
1.9826213e-05
2.0446906e-05
2.1158307e-05
2.1972853e-05
2.2909948e-05
2.3988883e-05
2.5228425e-05
2.6650428e-05
2.8279487e-05
3.0149079e-05
3.2301329e-05
3.4789838e-05
3.7678011e-05
4.1036846e-05
4.4950159e-05
4.9528241e-05
5.4886079e-05
6.1158477e-05
6.850631e-05
7.714218e-05
8.7306536e-05
9.9274059e-05
0.00011333926
0.00012985872
0.00014927296
0.00017203406
0.00019861797
0.00022954458
0.00026540257
0.00030698624
0.00035562944
0.00041208508
0.00047135293
0.00051286457
0.00051013521
0.00049025578
0.00054506855
0.00094783495
0.0012319432
0.00057040671
0.000528203
0.00075008144
0.0011754843
0.001169373
0.0011668747
0.0011662875
0.0011661735
0.0011661534
0.0011661504
0.0011661501
0.00116615
0.0011661501
0.0011661511
0.0011661723
0.0011662904
3.3375479e-07
9.8188238e-06
1.8222158e-05
2.2257882e-05
1.5559963e-05
1.6217866e-05
1.2026168e-05
1.4867785e-05
1.2862444e-05
1.6572291e-05
1.6059349e-05
1.7392803e-05
1.6860952e-05
1.6581646e-05
1.6238799e-05
1.5995734e-05
1.5838161e-05
1.5769621e-05
1.5786989e-05
1.5881354e-05
1.604836e-05
1.6285355e-05
1.658859e-05
1.695934e-05
1.7398851e-05
1.7913233e-05
1.8506632e-05
1.9186795e-05
1.9965661e-05
2.086217e-05
2.1895678e-05
2.3085046e-05
2.4452701e-05
2.6022871e-05
2.7828181e-05
2.9909942e-05
3.2321573e-05
3.5127226e-05
3.8399015e-05
4.2218928e-05
4.6698506e-05
5.1954311e-05
5.8123413e-05
6.5365911e-05
7.3899349e-05
8.396585e-05
9.5845653e-05
0.00010984556
0.00012632796
0.00014573932
0.00016853427
0.00019517268
0.00022614674
0.00026209002
0.00030399226
0.00035340998
0.00041061212
0.00046797967
0.0005007996
0.00048912657
0.00047819582
0.00057512102
0.0011976325
0.0010006865
0.00048688149
0.00050686998
0.00078812371
0.0011735627
0.0011685023
0.001166622
0.0011662356
0.0011661637
0.0011661519
0.0011661502
0.00116615
0.00116615
0.0011661501
0.0011661517
0.0011661817
0.0011663006
3.0399533e-07
9.797106e-06
1.7639028e-05
2.0075392e-05
1.3173868e-05
1.4366091e-05
1.0477081e-05
1.3168328e-05
1.1808432e-05
1.4760775e-05
1.4755529e-05
1.5442796e-05
1.5090143e-05
1.47626e-05
1.4483774e-05
1.427547e-05
1.4146045e-05
1.4094359e-05
1.4119768e-05
1.4215586e-05
1.4378921e-05
1.460896e-05
1.4902718e-05
1.5162806e-05
1.5574854e-05
1.6059569e-05
1.6620871e-05
1.7266544e-05
1.800769e-05
1.8862217e-05
1.9849187e-05
2.0987143e-05
2.2299083e-05
2.3809214e-05
2.5549762e-05
2.7561366e-05
2.9897167e-05
3.2621775e-05
3.5808808e-05
3.9850193e-05
4.4262207e-05
4.9451939e-05
5.5562021e-05
6.2752154e-05
7.1243477e-05
8.1279961e-05
9.3147767e-05
0.00010716772
0.00012370986
0.00014322893
0.0001661873
0.0001930417
0.00022428749
0.00026068346
0.00030353826
0.00035454593
0.00041283592
0.00046643095
0.00048649999
0.00046705937
0.00047304569
0.00063812966
0.0012349733
0.00060957498
0.00042744652
0.00050267865
0.00086245896
0.0011717136
0.0011677145
0.0011664352
0.0011661987
0.0011661572
0.0011661509
0.0011661501
0.00116615
0.00116615
0.0011661502
0.001166153
0.001166194
0.00116631
2.7470204e-07
9.7722091e-06
1.697572e-05
1.7958901e-05
1.1067529e-05
1.2732291e-05
9.4433301e-06
1.1697379e-05
1.0898067e-05
1.3179294e-05
1.3491613e-05
1.3687889e-05
1.3431828e-05
1.3107812e-05
1.28776e-05
1.2705747e-05
1.2603959e-05
1.2570632e-05
1.2524213e-05
1.2603164e-05
1.2749964e-05
1.2963412e-05
1.3240381e-05
1.3578459e-05
1.3982564e-05
1.4455633e-05
1.5001996e-05
1.5629949e-05
1.6350228e-05
1.718009e-05
1.8138783e-05
1.9244727e-05
2.052172e-05
2.1994487e-05
2.3695779e-05
2.5666366e-05
2.7959693e-05
3.0640986e-05
3.3785635e-05
3.7479701e-05
4.1824764e-05
4.694973e-05
5.3004856e-05
6.0670259e-05
6.918394e-05
7.9267728e-05
9.1215394e-05
0.00010536197
0.00012208336
0.00014183891
0.00016509957
0.0001923508
0.00022416447
0.00026152386
0.00030608836
0.00035928133
0.00041775765
0.00046317707
0.00046662209
0.0004454576
0.00048125211
0.00078208495
0.0012374294
0.00045696852
0.00039003286
0.00051975733
0.00099175814
0.0011700513
0.0011670575
0.0011663079
0.0011661749
0.0011661533
0.0011661504
0.0011661501
0.00116615
0.00116615
0.0011661504
0.0011661558
0.0011662071
0.0011663184
2.5107862e-07
9.7354317e-06
1.5427214e-05
1.5160011e-05
9.3602067e-06
1.1303136e-05
8.5502241e-06
1.0419303e-05
1.0128643e-05
1.1791037e-05
1.2262455e-05
1.2114531e-05
1.1902011e-05
1.1609307e-05
1.1417358e-05
1.1196198e-05
1.1088315e-05
1.1053276e-05
1.1085061e-05
1.1181632e-05
1.1338525e-05
1.1556215e-05
1.183354e-05
1.2168863e-05
1.2566563e-05
1.3030646e-05
1.3565775e-05
1.418064e-05
1.4885692e-05
1.5697534e-05
1.6635753e-05
1.7718733e-05
1.8971102e-05
2.0418283e-05
2.209407e-05
2.4040031e-05
2.6310219e-05
2.8970527e-05
3.2097395e-05
3.5778538e-05
4.0119842e-05
4.5252358e-05
5.133569e-05
5.8540584e-05
6.7082103e-05
7.7225936e-05
9.0077298e-05
0.0001044752
0.00012152068
0.00014167094
0.00016540044
0.00019326231
0.00022600243
0.00026492572
0.00031192891
0.00036736612
0.00042321084
0.00045387149
0.00044074744
0.00042948086
0.00051687118
0.0010820853
0.0008438654
0.00036990868
0.00037318871
0.0005656587
0.0011742815
0.0011686594
0.0011666314
0.0011662287
0.0011661612
0.0011661513
0.0011661501
0.00116615
0.00116615
0.0011661501
0.0011661507
0.0011661606
0.00116622
0.001166326
2.3098392e-07
9.7070709e-06
1.271618e-05
1.2767003e-05
8.2726073e-06
1.0037564e-05
7.7802599e-06
9.316713e-06
9.4717583e-06
1.0563316e-05
1.1042243e-05
1.0699852e-05
1.0502558e-05
1.0147292e-05
9.9470507e-06
9.815368e-06
9.7518438e-06
9.7503895e-06
9.806594e-06
9.9195165e-06
1.0086338e-05
1.030871e-05
1.0587178e-05
1.0920741e-05
1.1314285e-05
1.1772479e-05
1.2300337e-05
1.2906971e-05
1.3602628e-05
1.4403329e-05
1.5329115e-05
1.6398622e-05
1.7637348e-05
1.9071549e-05
2.0736441e-05
2.2674879e-05
2.4941861e-05
2.7604231e-05
3.0740436e-05
3.4441507e-05
3.8817248e-05
4.4002401e-05
5.0165148e-05
5.7481847e-05
6.6177743e-05
7.652916e-05
8.8868902e-05
0.00010354733
0.00012207607
0.00014280248
0.0001672055
0.0001959429
0.00023002524
0.00027110743
0.00032088306
0.00037729248
0.00042513714
0.00043525144
0.00041338313
0.0004287485
0.0006199667
0.0012403888
0.00043059296
0.00031833413
0.00037791519
0.00065480843
0.00117153
0.0011675726
0.0011663808
0.0011661843
0.0011661542
0.0011661504
0.00116615
0.00116615
0.00116615
0.0011661501
0.0011661512
0.0011661678
0.0011662324
0.0011663329
2.1292126e-07
9.6700058e-06
1.0493579e-05
1.1307946e-05
7.412325e-06
8.8944109e-06
7.1078543e-06
8.3640895e-06
8.8782032e-06
9.4521965e-06
9.8287887e-06
9.3141979e-06
9.0596927e-06
8.8186736e-06
8.6760393e-06
8.5934292e-06
8.5680119e-06
8.5959941e-06
8.6739237e-06
8.8022934e-06
8.979299e-06
9.2073704e-06
9.4885948e-06
9.8227539e-06
1.0215069e-05
1.0670973e-05
1.1195969e-05
1.1799593e-05
1.2492101e-05
1.3289061e-05
1.4129815e-05
1.5182632e-05
1.6405e-05
1.7823829e-05
1.947567e-05
2.1404659e-05
2.3666767e-05
2.6329849e-05
2.9474666e-05
3.3196172e-05
3.7609496e-05
4.3203824e-05
4.950296e-05
5.7000464e-05
6.5931509e-05
7.6584501e-05
8.9315466e-05
0.00010449793
0.00012254198
0.00014388673
0.00017060955
0.00020057597
0.00023651879
0.00028025739
0.00033229868
0.00038603491
0.00041821143
0.00040788492
0.00039289607
0.00045543921
0.00088001528
0.0010011713
0.00032069454
0.0002939166
0.00040903967
0.00081599975
0.0011693833
0.0011668009
0.0011662469
0.0011661623
0.0011661512
0.0011661501
0.00116615
0.00116615
0.00116615
0.0011661502
0.0011661525
0.0011661783
0.0011662444
0.0011663391
1.9703638e-07
9.6160918e-06
8.6567489e-06
9.9569849e-06
6.6415118e-06
7.8713653e-06
6.5249274e-06
7.5311371e-06
8.2964743e-06
8.4224463e-06
8.4798408e-06
8.0261699e-06
7.8225168e-06
7.6507088e-06
7.5567827e-06
7.5151188e-06
7.5223714e-06
7.5763215e-06
7.674316e-06
7.8177874e-06
8.0058132e-06
8.2412638e-06
8.5274853e-06
8.8651623e-06
9.2598556e-06
9.6701178e-06
1.0187068e-05
1.0783272e-05
1.1468906e-05
1.2259041e-05
1.3171941e-05
1.4231419e-05
1.5463144e-05
1.689508e-05
1.8565579e-05
2.0520678e-05
2.2818268e-05
2.5528354e-05
2.8735481e-05
3.2539989e-05
3.7063867e-05
4.2456932e-05
4.8895896e-05
5.6582269e-05
6.5763948e-05
7.7423098e-05
9.0668049e-05
0.00010648868
0.00012530493
0.00014759032
0.00017395881
0.00020736169
0.00024574596
0.00029223984
0.00034472983
0.00038946248
0.00039943973
0.00037896158
0.00039098531
0.00055424365
0.0011432237
0.0003792084
0.00026318811
0.00029306166
0.00047839642
0.0011093226
0.0011678542
0.0011664099
0.0011661833
0.0011661531
0.0011661501
0.00116615
0.00116615
0.00116615
0.0011661501
0.0011661505
0.0011661554
0.00116619
0.0011662559
0.0011663446
1.8294167e-07
9.5458703e-06
7.1287754e-06
8.7410694e-06
5.9373483e-06
6.9540458e-06
6.0257916e-06
6.7919588e-06
7.6005384e-06
7.2432808e-06
7.251486e-06
6.8998827e-06
6.7423525e-06
6.6263503e-06
6.5735151e-06
6.566703e-06
6.6025683e-06
6.6800957e-06
6.7972398e-06
6.956072e-06
7.1564858e-06
7.4015609e-06
7.6583401e-06
7.9942352e-06
8.3872772e-06
8.8423037e-06
9.3681724e-06
9.9741863e-06
1.0670944e-05
1.1473968e-05
1.2401913e-05
1.3478494e-05
1.4731688e-05
1.6190765e-05
1.7896013e-05
1.9895685e-05
2.2250294e-05
2.5032815e-05
2.8332617e-05
3.2256612e-05
3.6933526e-05
4.2520541e-05
4.921029e-05
5.7216348e-05
6.6803495e-05
7.8294042e-05
9.2071729e-05
0.00010855067
0.00012930887
0.00015273984
0.00018064004
0.00021428641
0.00025770763
0.00030626105
0.00035558054
0.00038335531
0.00037210038
0.00036014704
0.00042346284
0.00082694976
0.00064482867
0.00026747738
0.00023793353
0.00031804763
0.00061250912
0.0011696402
0.0011668354
0.0011662352
0.0011661576
0.0011661501
0.0011661499
0.00116615
0.00116615
0.00116615
0.0011661501
0.0011661509
0.0011661609
0.0011662022
0.0011662667
0.0011663496
1.7046165e-07
9.4523685e-06
5.8849655e-06
7.6490429e-06
5.3016278e-06
6.1360907e-06
5.6046616e-06
6.0483481e-06
6.7133673e-06
6.2234804e-06
6.1692988e-06
5.9149309e-06
5.8000078e-06
5.7299997e-06
5.7128369e-06
5.7367387e-06
5.7986356e-06
5.8983754e-06
6.0345107e-06
6.1831629e-06
6.3889231e-06
6.6390955e-06
6.9368907e-06
7.2861972e-06
7.6924952e-06
8.161298e-06
8.7014932e-06
9.3235193e-06
1.0038486e-05
1.0862375e-05
1.1814228e-05
1.2918381e-05
1.4131546e-05
1.5615957e-05
1.7354015e-05
1.93961e-05
2.1805749e-05
2.4659217e-05
2.8050949e-05
3.2095164e-05
3.69287e-05
4.3055658e-05
5.0062162e-05
5.8468411e-05
6.8557006e-05
8.0666905e-05
9.5204871e-05
0.00011259857
0.00013331089
0.00015942972
0.00018923106
0.00022549492
0.00026926431
0.00032082108
0.00036026315
0.00036692739
0.00034525207
0.0003639889
0.00056513076
0.00078443479
0.00030430836
0.00021531517
0.0002370537
0.00037958015
0.00087121111
0.0011677879
0.0011663628
0.001166168
0.0011661496
0.0011661495
0.0011661499
0.00116615
0.00116615
0.00116615
0.0011661502
0.001166152
0.0011661697
0.0011662145
0.0011662769
0.001166354
1.593932e-07
9.2363481e-06
4.9051752e-06
6.6727475e-06
4.7329715e-06
5.4118639e-06
5.2413265e-06
5.2489995e-06
5.8044248e-06
5.3125963e-06
5.2277169e-06
5.0552304e-06
4.9808035e-06
4.9502959e-06
4.965145e-06
5.0170024e-06
5.1032804e-06
5.2011588e-06
5.3481564e-06
5.5336875e-06
5.7595264e-06
6.0280581e-06
6.3434626e-06
6.709933e-06
7.1339215e-06
7.6214695e-06
8.1817706e-06
8.7947853e-06
9.5264574e-06
1.0369506e-05
1.1343299e-05
1.2472524e-05
1.3786867e-05
1.5323268e-05
1.7125053e-05
1.9245409e-05
2.1752264e-05
2.472655e-05
2.8268951e-05
3.2502948e-05
3.7575616e-05
4.3669193e-05
5.0996901e-05
5.981291e-05
7.0420667e-05
8.3889951e-05
9.9326468e-05
0.00011779468
0.00013980648
0.0001661344
0.00019988609
0.00023895978
0.0002846964
0.00032929149
0.00035282738
0.00033766374
0.00033273112
0.00041730611
0.00082815532
0.0004194237
0.00021355657
0.00019514102
0.00026174084
0.00050504134
0.0011693337
0.0011666866
0.0011661926
0.0011661478
0.0011661483
0.0011661497
0.00116615
0.00116615
0.00116615
0.0011661501
0.0011661505
0.0011661548
0.0011661803
0.0011662265
0.0011662863
0.001166358
1.4964281e-07
8.8187784e-06
4.293286e-06
5.804541e-06
4.2236562e-06
4.7732468e-06
4.6697205e-06
4.5325572e-06
4.9115402e-06
4.5043225e-06
4.4181285e-06
4.3113681e-06
4.2751102e-06
4.2793804e-06
4.3232627e-06
4.3829706e-06
4.4831013e-06
4.6191428e-06
4.7908637e-06
4.9991876e-06
5.2465489e-06
5.5359632e-06
5.8722304e-06
6.2600103e-06
6.6880342e-06
7.1936864e-06
7.7733112e-06
8.4377674e-06
9.2009342e-06
1.0079373e-05
1.1093223e-05
1.2268591e-05
1.3636977e-05
1.5237538e-05
1.7117919e-05
1.9334442e-05
2.1960339e-05
2.5082386e-05
2.8807949e-05
3.3271568e-05
3.8630157e-05
4.5080605e-05
5.2858067e-05
6.2236248e-05
7.3543934e-05
8.7162581e-05
0.00010445242
0.00012417162
0.00014773038
0.0001760918
0.00021057479
0.00025440228
0.00029987892
0.00033252075
0.00032899614
0.00031610859
0.00035250957
0.00060219253
0.00081455692
0.00022848084
0.00017451152
0.00019821661
0.00032323489
0.00076027165
0.0011674253
0.0011662554
0.0011661436
0.0011661449
0.001166149
0.0011661499
0.00116615
0.00116615
0.00116615
0.0011661501
0.001166151
0.0011661605
0.0011661918
0.0011662382
0.001166295
0.0011663615
1.4130367e-07
8.3803276e-06
3.7943365e-06
5.027041e-06
3.7712444e-06
4.031869e-06
4.174459e-06
3.8803359e-06
4.0911851e-06
3.7992505e-06
3.7309186e-06
3.6760749e-06
3.6746457e-06
3.7098861e-06
3.7592813e-06
3.8539891e-06
3.9829021e-06
4.1451679e-06
4.3414742e-06
4.5735421e-06
4.8444706e-06
5.1576139e-06
5.5052507e-06
5.9140722e-06
6.381869e-06
6.9164351e-06
7.5270903e-06
8.2253444e-06
9.0255846e-06
9.945795e-06
1.1007013e-05
1.223688e-05
1.3668949e-05
1.5345249e-05
1.7233887e-05
1.9543335e-05
2.2285167e-05
2.5553086e-05
2.9652394e-05
3.4386044e-05
4.0080801e-05
4.6948561e-05
5.5249182e-05
6.5281598e-05
7.7398793e-05
9.2003778e-05
0.00010954171
0.00013053348
0.00015711766
0.0001878592
0.00022516673
0.00026851211
0.00031132694
0.00032217526
0.00030464765
0.00031587538
0.00044874193
0.0006841738
0.00026161171
0.00016708883
0.00016250567
0.00022631945
0.00045241826
0.0011685968
0.0011664288
0.0011661379
0.0011661367
0.001166147
0.0011661498
0.00116615
0.00116615
0.00116615
0.0011661501
0.0011661503
0.0011661526
0.0011661693
0.0011662035
0.0011662492
0.001166303
0.0011663647
1.3461647e-07
7.1357597e-06
3.362646e-06
4.3207779e-06
3.3819956e-06
3.3541132e-06
3.6859553e-06
3.2911697e-06
3.3791806e-06
3.1941669e-06
3.1533257e-06
3.140445e-06
3.1603147e-06
3.2132488e-06
3.3041606e-06
3.428624e-06
3.5847625e-06
3.7728348e-06
3.9943838e-06
4.2516115e-06
4.5397526e-06
4.8761483e-06
5.2604084e-06
5.6982929e-06
6.1966024e-06
6.7635501e-06
7.4091212e-06
8.1455195e-06
8.9878176e-06
9.9283385e-06
1.1034851e-05
1.2316452e-05
1.3808765e-05
1.5556236e-05
1.7614141e-05
2.0050979e-05
2.2950225e-05
2.6414898e-05
3.0570719e-05
3.5570246e-05
4.1599799e-05
4.9253198e-05
5.815104e-05
6.8932714e-05
8.1976022e-05
9.7694916e-05
0.00011654624
0.00013913302
0.0001679195
0.00020133255
0.00024155321
0.00028461248
0.00031232364
0.00030013431
0.00029057983
0.00035283046
0.00065110581
0.00036387714
0.00016959359
0.00014232809
0.00017126095
0.00029277102
0.00072700008
0.0011669158
0.0011661401
0.0011661195
0.0011661417
0.0011661492
0.0011661501
0.00116615
0.00116615
0.00116615
0.0011661501
0.0011661507
0.0011661566
0.0011661794
0.0011662152
0.0011662596
0.0011663103
0.0011663676
1.2893327e-07
5.3279302e-06
2.9619148e-06
3.6664856e-06
2.8887469e-06
2.7920224e-06
3.1676576e-06
2.7651033e-06
2.7822304e-06
2.6816537e-06
2.672993e-06
2.6867148e-06
2.7374699e-06
2.8258585e-06
2.9474921e-06
3.0998798e-06
3.2825265e-06
3.4964265e-06
3.7391878e-06
4.0204146e-06
4.3414146e-06
4.7063309e-06
5.1201634e-06
5.5889745e-06
6.1200485e-06
6.7221386e-06
7.4058628e-06
8.1684553e-06
9.0514462e-06
1.0063683e-05
1.1229819e-05
1.2580361e-05
1.415371e-05
1.5997949e-05
1.8173063e-05
2.0753198e-05
2.3829535e-05
2.7514146e-05
3.1944406e-05
3.7287584e-05
4.3747234e-05
5.1572091e-05
6.1539866e-05
7.3166153e-05
8.7246146e-05
0.0001041907
0.00012446468
0.00014878168
0.00017829522
0.00021639245
0.00025921363
0.0002951965
0.00029479268
0.00027909226
0.00030595247
0.00049183574
0.0006816902
0.00018132985
0.00013184796
0.00013842987
0.00020431382
0.00043327735
0.0011677423
0.0011661885
0.0011660897
0.0011661296
0.0011661476
0.0011661501
0.0011661501
0.00116615
0.00116615
0.00116615
0.0011661502
0.0011661518
0.0011661637
0.0011661901
0.0011662264
0.0011662692
0.0011663168
0.0011663701
1.2320949e-07
4.4417043e-06
2.5519965e-06
3.065165e-06
2.4907922e-06
2.3259314e-06
2.6218515e-06
2.3004475e-06
2.2936437e-06
2.2571962e-06
2.2761393e-06
2.3243836e-06
2.4122105e-06
2.5323325e-06
2.682199e-06
2.8609861e-06
3.0692229e-06
3.3052436e-06
3.5766951e-06
3.8850108e-06
4.2338615e-06
4.6277176e-06
5.0719404e-06
5.5729453e-06
6.1384393e-06
6.7777216e-06
7.4910393e-06
8.3096824e-06
9.24311e-06
1.031235e-05
1.1543823e-05
1.2970425e-05
1.4633461e-05
1.6584728e-05
1.8889147e-05
2.1627485e-05
2.4899214e-05
2.8826499e-05
3.3559509e-05
3.9280749e-05
4.6213532e-05
5.5045958e-05
6.537529e-05
7.793525e-05
9.313532e-05
0.00011136473
0.00013311052
0.00015925081
0.00019311693
0.00023317476
0.00027581898
0.00029170872
0.00027228324
0.0002773449
0.00037549724
0.00060380397
0.00020538664
0.00012865026
0.0001184518
0.00015240869
0.00027732386
0.00076826814
0.00116642
0.0011660504
0.0011661046
0.0011661426
0.0011661501
0.0011661502
0.00116615
0.00116615
0.00116615
0.0011661501
0.0011661506
0.0011661549
0.0011661724
0.001166201
0.0011662371
0.0011662779
0.0011663228
0.0011663724
1.1916254e-07
3.5693641e-06
2.1973074e-06
2.4648194e-06
2.1659131e-06
1.9289602e-06
2.1049536e-06
1.9025189e-06
1.9062343e-06
1.920543e-06
1.9688004e-06
2.0562422e-06
2.1760655e-06
2.3241757e-06
2.4996367e-06
2.7028728e-06
2.9334293e-06
3.1961903e-06
3.4932789e-06
3.8280168e-06
4.2044391e-06
4.6273268e-06
5.1023336e-06
5.6361978e-06
6.2370322e-06
6.9081563e-06
7.671484e-06
8.5374359e-06
9.5240177e-06
1.0653744e-05
1.1955143e-05
1.3463709e-05
1.5224017e-05
1.7291834e-05
1.973697e-05
2.264673e-05
2.6129563e-05
3.031761e-05
3.537504e-05
4.1502724e-05
4.9288549e-05
5.8433271e-05
6.9582213e-05
8.3138627e-05
9.9477431e-05
0.00011895749
0.00014214682
0.00017027292
0.00020756749
0.00025142274
0.00028409029
0.00027271397
0.00025637394
0.00030516212
0.00052256966
0.0002856553
0.00013262728
0.00010682868
0.00012056473
0.0001893334
0.00042889965
0.0011670469
0.0011660267
0.0011660601
0.0011661292
0.0011661495
0.0011661506
0.0011661501
0.00116615
0.00116615
0.00116615
0.0011661502
0.0011661514
0.0011661606
0.0011661819
0.0011662116
0.0011662469
0.0011662859
0.0011663281
0.0011663744
1.1714831e-07
2.8073748e-06
1.8902632e-06
1.8927736e-06
1.8688369e-06
1.5902461e-06
1.6762003e-06
1.581088e-06
1.6136342e-06
1.6635197e-06
1.7520335e-06
1.8713329e-06
2.0179043e-06
2.1901371e-06
2.3884196e-06
2.6141032e-06
2.8679574e-06
3.1545913e-06
3.4763903e-06
3.8369927e-06
4.2406626e-06
4.6924109e-06
5.1981445e-06
5.764902e-06
6.4011685e-06
7.1173037e-06
7.926083e-06
8.8433354e-06
9.8738384e-06
1.10659e-05
1.2439887e-05
1.403423e-05
1.5897168e-05
1.8088975e-05
2.0684609e-05
2.388624e-05
2.7621257e-05
3.2117617e-05
3.7554533e-05
4.4156519e-05
5.2205231e-05
6.2044159e-05
7.4059518e-05
8.8617535e-05
0.00010601506
0.00012659543
0.00015115727
0.00018336647
0.00022382046
0.00026784205
0.00027520161
0.00024986792
0.00026525931
0.00040326094
0.00063158036
0.00014405252
0.00010172713
0.00010073379
0.00013732907
0.00026458069
0.00083618259
0.0011661115
0.0011659935
0.0011660986
0.0011661456
0.0011661512
0.0011661504
0.00116615
0.00116615
0.00116615
0.0011661501
0.0011661505
0.0011661538
0.0011661679
0.0011661915
0.0011662216
0.0011662559
0.001166293
0.0011663328
0.0011663762
1.1826092e-07
2.1509154e-06
1.6328642e-06
1.4561258e-06
1.5623888e-06
1.3054513e-06
1.3581986e-06
1.3415051e-06
1.4067246e-06
1.492375e-06
1.6110091e-06
1.7552868e-06
1.9238986e-06
2.1169869e-06
2.3358968e-06
2.5825786e-06
2.8588412e-06
3.1684871e-06
3.5144325e-06
3.9004738e-06
4.331012e-06
4.8112118e-06
5.3471853e-06
5.9462538e-06
6.6172918e-06
7.3711877e-06
8.2214417e-06
9.184902e-06
1.028267e-05
1.1541263e-05
1.2993981e-05
1.4682795e-05
1.6660358e-05
1.899254e-05
2.1761088e-05
2.5066649e-05
2.9032717e-05
3.3812409e-05
3.959901e-05
4.6642415e-05
5.5262264e-05
6.5836102e-05
7.8734942e-05
9.4233743e-05
0.00011251488
0.00013510334
0.00016132095
0.00019587138
0.00024178129
0.00027343825
0.00025317521
0.00024289002
0.00030291207
0.00045922178
0.00017307477
0.00010346995
8.9091109e-05
0.00010557657
0.00017316194
0.0004108614
0.0011666268
0.0011659259
0.0011660404
0.0011661319
0.0011661514
0.0011661511
0.0011661502
0.00116615
0.00116615
0.00116615
0.0011661501
0.0011661511
0.0011661584
0.0011661758
0.0011662008
0.0011662309
0.001166264
0.0011662993
0.001166337
0.0011663777
1.2370662e-07
1.6106934e-06
1.4218044e-06
1.1381705e-06
1.3919159e-06
1.0688639e-06
1.1396454e-06
1.1793392e-06
1.2724067e-06
1.3874074e-06
1.5286375e-06
1.6927071e-06
1.8800517e-06
2.0918929e-06
2.3301108e-06
2.596948e-06
2.8950005e-06
3.2268999e-06
3.5964735e-06
4.0074135e-06
4.4642057e-06
4.9721259e-06
5.5374504e-06
6.1677438e-06
6.8722359e-06
7.6623177e-06
8.5521915e-06
9.5597463e-06
1.0707485e-05
1.2023829e-05
1.3544525e-05
1.5314791e-05
1.7391493e-05
1.9845867e-05
2.2766199e-05
2.6260726e-05
3.0461628e-05
3.5533051e-05
4.1686439e-05
4.920121e-05
5.8853055e-05
7.0284214e-05
8.4148417e-05
0.00010056886
0.00011961096
0.00014191084
0.00017009872
0.00021009306
0.00025780008
0.00026403404
0.00023315172
0.00024851848
0.00040046349
0.00035977914
0.00011485047
8.4300499e-05
8.6317735e-05
0.00012059749
0.00023746762
0.0007924061
0.0011659562
0.0011659486
0.0011660931
0.0011661479
0.0011661524
0.0011661506
0.00116615
0.00116615
0.00116615
0.0011661501
0.0011661503
0.0011661528
0.001166164
0.0011661837
0.0011662094
0.0011662391
0.0011662711
0.0011663048
0.0011663406
0.0011663791
1.3408305e-07
1.2247295e-06
1.2394802e-06
9.9462672e-07
1.0085421e-06
9.2821176e-07
9.9472099e-07
1.0788408e-06
1.1940325e-06
1.3303303e-06
1.4889629e-06
1.6696795e-06
1.8738186e-06
2.1030692e-06
2.3595091e-06
2.6454851e-06
2.9636522e-06
3.3170163e-06
3.7090072e-06
4.1435723e-06
4.6253046e-06
5.159617e-06
5.7529747e-06
6.4132131e-06
7.1499595e-06
7.9709352e-06
8.897364e-06
9.9452545e-06
1.1151785e-05
1.2525589e-05
1.4114204e-05
1.5966126e-05
1.8142462e-05
2.0719778e-05
2.3792842e-05
2.7477541e-05
3.191578e-05
3.7286289e-05
4.3824397e-05
5.1843445e-05
6.1726448e-05
7.3839327e-05
8.8367783e-05
0.00010524455
0.00012449205
0.00014735762
0.00018005545
0.00022618427
0.00026369072
0.0002399135
0.00022496692
0.00028129244
0.00039684715
0.00014443734
8.7534736e-05
7.6006758e-05
9.0085401e-05
0.00014668336
0.00034376521
0.0011665329
0.0011658469
0.0011660088
0.0011661286
0.0011661532
0.0011661519
0.0011661502
0.00116615
0.00116615
0.00116615
0.0011661501
0.0011661507
0.0011661558
0.0011661699
0.001166191
0.0011662171
0.0011662462
0.0011662771
0.0011663095
0.0011663437
0.0011663802
1.5566404e-07
1.2969579e-06
1.0619594e-06
7.5084003e-07
8.1708006e-07
8.2373838e-07
9.1243052e-07
1.0210266e-06
1.1538847e-06
1.3064312e-06
1.4799557e-06
1.675532e-06
1.8948652e-06
2.1398237e-06
2.412568e-06
2.7155208e-06
3.0514128e-06
3.4233326e-06
3.8347946e-06
4.2898306e-06
4.7931103e-06
5.3501137e-06
5.9673666e-06
6.6527675e-06
7.416029e-06
8.2692584e-06
9.2276971e-06
1.0310636e-05
1.1542561e-05
1.2954534e-05
1.4585921e-05
1.6486655e-05
1.8719733e-05
2.136396e-05
2.451658e-05
2.8296593e-05
3.2851429e-05
3.8371204e-05
4.5111144e-05
5.3405896e-05
6.3632001e-05
7.6641986e-05
9.1431332e-05
0.00010827022
0.00012737399
0.00015102271
0.00018593077
0.00023479998
0.00025016685
0.00021667073
0.00022206648
0.00035334356
0.00041125758
0.00010411092
7.4083165e-05
7.3387051e-05
9.8391288e-05
0.00018377004
0.00054444324
0.0011659268
0.0011658704
0.0011660628
0.0011661459
0.0011661541
0.0011661512
0.00116615
0.00116615
0.00116615
0.00116615
0.0011661502
0.0011661515
0.0011661595
0.0011661755
0.0011661975
0.0011662237
0.0011662522
0.0011662821
0.0011663133
0.0011663463
0.0011663811
1.4742498e-07
8.4866052e-07
8.6239288e-07
6.371994e-07
6.9798984e-07
7.6083528e-07
8.6893366e-07
9.9554335e-07
1.1424816e-06
1.308695e-06
1.4956255e-06
1.7046872e-06
1.9376755e-06
2.196594e-06
2.4837103e-06
2.8015738e-06
3.1530551e-06
3.5413155e-06
3.9701269e-06
4.4436219e-06
4.9666075e-06
5.5446898e-06
6.1845108e-06
6.8940778e-06
7.6832156e-06
8.5641617e-06
9.5523225e-06
1.0667219e-05
1.1946853e-05
1.3401814e-05
1.5081459e-05
1.7036826e-05
1.9332023e-05
2.2046755e-05
2.5278862e-05
2.9148557e-05
3.3807895e-05
3.9459347e-05
4.6379471e-05
5.492123e-05
6.5442076e-05
7.8131296e-05
9.2863782e-05
0.00010942828
0.00012854149
0.00015393833
0.00019419223
0.00024657422
0.00024067328
0.00021203487
0.00023880481
0.00040298431
0.0001668058
8.4608957e-05
6.7464653e-05
7.3655902e-05
0.00010883395
0.00022688318
0.00086276479
0.0011657605
0.001165911
0.0011660991
0.0011661534
0.001166154
0.0011661508
0.0011661499
0.00116615
0.00116615
0.0011661501
0.0011661503
0.0011661528