/*--------------------------------*- C++ -*----------------------------------*\
  =========                 |
  \\      /  F ield         | OpenFOAM: The Open Source CFD Toolbox
   \\    /   O peration     | Website:  https://openfoam.org
    \\  /    A nd           | Version:  12
     \\/     M anipulation  |
\*---------------------------------------------------------------------------*/
FoamFile
{
    format      ascii;
    class       volScalarField;
    location    "0.003";
    object      p;
}
// * * * * * * * * * * * * * * * * * * * * * * * * * * * * * * * * * * * * * //

dimensions      [1 -1 -2 0 0 0 0];

internalField   nonuniform List<scalar> 
16000
(
90416.297
90540.029
90552.421
90681.802
90708.626
90831.382
90881.561
90995.097
91067.328
91176.408
91266.594
91376.171
91480.569
91594.582
91710.39
91831.901
91957.595
92088.152
92223.464
92363.65
92508.756
92658.826
92813.887
92973.945
93138.991
93308.994
93483.9
93663.635
93848.1
94037.173
94230.712
94428.556
94630.528
94836.43
95046.053
95259.183
95475.601
95695.092
95917.448
96142.48
96370.03
96599.975
96832.248
97066.85
97303.862
97543.457
97785.905
98031.591
98281.042
98534.944
98794.176
99059.857
99333.424
99616.738
99912.11
100221.87
100547.27
100888.12
101248.51
101654.87
102177.8
102910.71
103828.25
104631.47
104723.91
103817.48
102401.06
101186.27
100468.55
100149.89
100039.48
100008.71
100001.63
100000.26
100000.04
100000
100000
100000
100000
100000
90405.139
90545.928
90555.647
90696.999
90725.528
90859.289
90911.801
91036.788
91113.112
91232.596
91329.343
91447.961
91560.699
91683.53
91808.507
91939.331
92074.708
92215.175
92360.675
92511.29
92667.052
92827.979
92994.069
93165.295
93341.606
93522.927
93709.157
93900.17
94095.814
94295.91
94500.257
94708.626
94920.773
95136.438
95355.348
95577.227
95801.795
96028.784
96257.937
96489.03
96721.873
96956.33
97192.329
97429.878
97669.064
97910.071
98153.189
98398.837
98647.57
98900.114
99157.392
99420.567
99691.121
99970.953
100262.33
100567.34
100886.77
101220.39
101574.12
101979.29
102511.05
103257.91
104173.84
104924.58
104880.17
103819.5
102318.45
101101.67
100416.09
100126.72
100031.78
100006.67
100001.18
100000.18
100000.02
100000
100000
100000
100000
100000
90411.879
90567.429
90577.213
90731.725
90760.822
90908.299
90963.105
91100.639
91181.815
91311.472
91415.352
91542.968
91664.68
91796.788
91931.635
92072.514
92218.368
92369.588
92526.134
92688.048
92855.331
93027.968
93205.915
93389.104
93577.435
93770.781
93968.982
94171.851
94379.169
94590.687
94806.13
95025.198
95247.575
95472.927
95700.916
95931.197
96163.436
96397.311
96632.528
96868.833
97106.02
97343.95
97582.558
97821.865
98061.983
98303.126
98545.624
98789.941
99036.69
99286.657
99540.826
99800.42
100066.99
100342.47
100629.1
100928.76
101241.99
101569.13
101919.01
102328.83
102878.15
103645.51
104551.38
105211.44
104976.6
103737.29
102170.52
100984.7
100353.86
100102.41
100024.42
100004.87
100000.82
100000.12
100000.01
100000
100000
100000
100000
100000
90437.728
90604.13
90615.116
90784.787
90813.699
90977.007
91033.385
91184.256
91270.373
91411.203
91523.69
91661.585
91793.758
91936.405
92082.434
92234.629
92392.183
92555.36
92724.126
92898.488
93078.412
93263.843
93454.689
93650.829
93852.104
94058.32
94269.247
94484.621
94704.144
94927.482
95154.278
95384.149
95616.695
95851.509
96088.178
96326.297
96565.477
96805.353
97045.605
97285.961
97526.218
97766.247
98006.006
98245.549
98485.032
98724.722
98965.012
99206.438
99449.694
99695.648
99945.363
100200.15
100461.65
100731.91
101013.17
101307.15
101614.18
101935.38
102283.17
102701.39
103273.85
104062.33
104943.34
105470.09
105000.12
103575.21
101972.31
100848.6
100288.45
100078.92
100017.8
100003.35
100000.53
100000.07
100000.01
100000
100000
100000
100000
100000
90479.59
90660.76
90668.664
90857.077
90885.001
91065.731
91123.706
91289.6
91382.183
91535.692
91658.426
91807.706
91951.81
92106.229
92264.735
92429.552
92600.106
92776.552
92958.847
93146.949
93340.779
93540.224
93745.13
93955.305
94170.512
94390.475
94614.875
94843.355
95075.521
95310.946
95549.173
95789.73
96032.13
96275.886
96520.518
96765.563
97010.59
97255.208
97499.083
97741.952
97983.631
98224.026
98463.145
98701.099
98938.115
99174.543
99410.869
99647.728
99885.915
100126.4
100370.35
100619.18
100874.69
101139.07
101414.58
101702.67
102003.35
102318.88
102666.51
103097.99
103699.89
104506.14
105339.12
105676.35
104928.43
103327.08
101729.4
100699.81
100223.11
100057.29
100012.13
100002.14
100000.31
100000.04
100000
100000
100000
100000
100000
100000
90538.166
90736.334
90742.553
90951.661
90978.139
91178.431
91238.951
91421.832
91522.089
91689.124
91823.467
91985.032
92142.52
92310.082
92482.528
92661.501
92846.596
93037.865
93235.223
93438.565
93647.745
93862.571
94082.808
94308.169
94538.323
94772.888
95011.439
95253.51
95498.593
95746.152
95995.627
96246.446
96498.035
96749.833
97001.3
97251.929
97501.266
97748.915
97994.558
98237.965
98479.003
98717.644
98953.975
99188.201
99420.653
99651.795
99882.235
100112.73
100344.2
100577.73
100814.6
101056.39
101305.08
101563.01
101832.31
102113.86
102407.28
102716.71
103066.47
103517.68
104155.7
104972.12
105723.39
105802.87
104742.9
102996.11
101454.52
100548.13
100162.45
100038.84
100007.65
100001.25
100000.17
100000.02
100000
100000
100000
100000
100000
100000
90615.09
90833.143
90837.335
91069.745
91094.399
91316.909
91380.594
91581.745
91691.408
91873.172
92021.438
92196.847
92369.716
92552.323
92740.583
92935.605
93137.086
93344.983
93559.147
93779.396
94005.492
94237.148
94474.018
94715.705
94961.753
95211.655
95464.856
95720.761
95978.736
96238.124
96498.255
96758.46
97018.083
97276.5
97533.13
97787.45
98039.008
98287.439
98532.475
98773.959
99011.846
99246.214
99477.268
99705.342
99930.907
100154.57
100377.09
100599.37
100822.45
101047.54
101276.08
101509.82
101750.95
102001.87
102264.21
102537.89
102822.43
103125.77
103482.35
103963.08
104642.5
105450.81
106065.56
105812.32
104428.71
102592.43
101163.96
100404.01
100110.21
100024.32
100004.41
100000.66
100000.08
100000.01
100000
100000
100000
100000
100000
100000
90709.788
90951.328
90952.349
91211.595
91234.371
91482.632
91551.345
91772.962
91894.669
92092.748
92257.656
92448.786
92639.23
92839.034
93045.18
93258.329
93478.219
93704.705
93937.554
94176.478
94421.122
94671.069
94925.838
95184.883
95447.6
95713.328
95981.36
96250.953
96521.336
96791.725
97061.344
97329.435
97595.281
97858.22
98117.663
98373.106
98624.147
98870.495
99111.981
99348.566
99580.343
99807.54
100030.52
100249.79
100465.98
100679.87
100892.39
101104.56
101317.59
101532.82
101751.83
101976.63
102209.54
102452.69
102706.76
102970.51
103244.65
103544.14
103916.73
104440.39
105160.06
105929.51
106319.94
105662.34
103980.39
102137.51
100877.67
100277.19
100068.9
100013.89
100002.29
100000.31
100000.03
100000
100000
100000
100000
100000
100000
100000
90826.237
91094.819
91091.737
91384.665
91405.662
91682.718
91757.969
92001.889
92138.498
92354.17
92538.528
92747.419
92957.709
93177.077
93403.401
93636.978
93877.513
94124.74
94378.297
94637.751
94902.593
95172.237
95446.024
95723.229
96003.063
96284.686
96567.219
96849.758
97131.39
97411.215
97688.364
97962.019
98231.437
98495.963
98755.051
99008.273
99255.332
99496.072
99730.483
99958.7
100181
100397.82
100609.71
100817.38
101021.64
101223.47
101423.93
101624.21
101825.63
102029.67
102238.15
102453.25
102677.23
102911.5
103155.33
103406.88
103670.76
103973.33
104376.43
104956.42
105698.87
106377.83
106433.56
105320.24
103412.23
101663.09
100616.16
100174.94
100039.2
100007.1
100001.04
100000.12
100000.01
100000
100000
100000
100000
100000
100000
100000
90970.569
91270.421
91264.34
91592.79
91613.923
91921.867
92005.903
92273.427
92428.53
92663.225
92870.196
93099.472
93332.274
93574.023
93823.232
94079.891
94343.598
94613.921
94890.324
95172.183
95458.784
95749.329
96042.938
96338.666
96635.509
96932.426
97228.352
97522.224
97813.003
98099.697
98381.386
98657.243
98926.557
99188.749
99443.387
99690.196
99929.059
100160.03
100383.31
100599.29
100808.47
101011.52
101209.22
101402.49
101592.35
101779.94
101966.47
102153.25
102341.72
102533.54
102730.73
102935.53
103149.78
103373.57
103604.78
103842.83
104100.34
104419.34
104871.37
105513.96
106241.89
106727.24
106330.71
104776.56
102761.7
101206.58
100397.01
100099.91
100019.88
100003.16
100000.39
100000.04
100000
100000
100000
100000
100000
100000
100000
100000
91143.014
91479.716
91470.868
91838.557
91861.057
92202.906
92299.495
92592.204
92770.65
93026.583
93259.916
93513.038
93771.592
94039.043
94314.269
94596.979
94886.598
95182.477
95483.848
95789.838
96099.471
96411.68
96725.32
97039.187
97352.04
97662.626
97969.707
98272.086
98568.639
98858.34
99140.288
99413.731
99678.08
99932.93
100178.06
100413.44
100639.21
100855.73
101063.47
101263.11
101455.42
101641.34
101821.87
101998.16
102171.4
102342.86
102513.88
102685.87
102860.42
103039.38
103224.89
103418.97
103622.45
103833.77
104050.39
104276.64
104537.88
104892.84
105411.42
106094.68
106750.48
106912.28
105963.94
104051.57
102085.88
100803.86
100230.99
100050.69
100008.72
100001.16
100000.11
100000.01
100000
100000
100000
100000
100000
100000
100000
100000
91345.555
91725.395
91713.516
92125.312
92152.156
92531.104
92645.787
92965.562
93173.272
93453.542
93717.346
93998.441
94286.457
94583.308
94887.997
95199.936
95518.297
95842.137
96170.376
96501.81
96835.132
97168.95
97501.812
97832.236
98158.745
98479.898
98794.326
99100.763
99398.086
99685.336
99961.746
100226.76
100480.04
100721.47
100951.17
101169.43
101376.78
101573.89
101761.59
101940.86
102112.77
102278.48
102439.24
102596.37
102751.2
102905.11
103059.5
103215.9
103376.07
103542.02
103715.8
103898.72
104090.09
104286.97
104488.86
104710.18
104993.05
105405.07
105997.44
106677.33
107136.63
106812.01
105319.4
103207.61
101449.42
100482.39
100118.54
100022.12
100003.11
100000.3
100000.01
99999.998
100000
100000
100000
100000
100000
100000
100000
100000
91582.056
92012.935
91998.364
92460.512
92495.401
92915.092
93054.657
93403.599
93647.042
93955.659
94254.294
94568.057
94889.758
95220.116
95558.018
95902.497
96252.347
96606.218
96962.613
97319.917
97676.429
98030.394
98380.043
98723.635
99059.499
99386.08
99701.976
100005.98
100297.11
100574.64
100838.11
101087.3
101322.3
101543.41
101751.18
101946.36
102129.87
102302.78
102466.25
102621.56
102770.05
102913.09
103052.11
103188.55
103323.82
103459.35
103596.59
103737.21
103883.15
104036.46
104198.66
104369.66
104547.15
104728.48
104919.71
105150.07
105479.03
105969.46
106608.1
107201.03
107320.81
106376.99
104434.66
102338.21
100908.83
100254.88
100052.03
100007.77
100000.76
100000.02
99999.99
99999.998
100000
100000
100000
100000
100000
100000
100000
100000
91858.794
92350.017
92333.688
92853.106
92901.145
93364.732
93537.407
93917.923
94204.042
94546.4
94884.942
95236.903
95597.244
95965.666
96340.687
96720.813
97104.317
97489.329
97873.847
98255.79
98633.034
99003.468
99365.048
99715.85
100054.13
100378.37
100687.32
100980.05
101255.95
101514.72
101756.41
101981.36
102190.2
102383.77
102563.15
102729.54
102884.29
103028.83
103164.65
103293.25
103416.18
103534.97
103651.13
103766.15
103881.46
103998.49
104118.8
104244.18
104376.69
104518.09
104668.67
104826.43
104988.36
105155.79
105347.65
105610.44
106008.27
106571.7
107201.05
107571.61
107148.94
105597.6
103407.45
101543.22
100501.1
100114.37
100018.29
100001.78
99999.988
99999.958
99999.992
99999.999
100000
100000
100000
100000
100000
100000
100000
100000
92181.228
92744.629
92728.428
93312.267
93379.826
93890.431
94106.527
94522.829
94859.62
95243.159
95627.918
96024.463
96428.856
96839.824
97255.291
97673.101
98090.896
98506.198
98916.454
99319.092
99711.597
100091.58
100456.85
100805.51
101135.96
101447.02
101737.91
102008.24
102258.05
102487.75
102698.08
102890.08
103065.01
103224.31
103369.56
103502.41
103624.57
103737.76
103843.67
103943.99
104040.36
104134.35
104227.51
104321.27
104417.03
104516.25
104620.59
104732
104852.34
104982.44
105120.76
105263.73
105410.36
105572.01
105783.24
106103.31
106585.47
107189.61
107684.26
107660.05
106577.66
104541.09
102375.9
100899.68
100235.09
100041.05
100004.12
99999.866
99999.85
99999.971
99999.998
100000
100000
100000
100000
100000
100000
100000
100000
100000
92554.311
93203.876
93189.427
93846.503
93944.415
94507.229
94780.186
95239.588
95636.222
96069.946
96507.878
96955.289
97408.505
97865.272
98322.755
98778.013
99227.952
99669.424
100099.31
100514.6
100912.56
101290.74
101647.16
101980.28
102289.13
102573.23
102832.65
103067.91
103279.96
103470.07
103639.82
103790.95
103925.38
104045.05
104151.98
104248.14
104335.47
104415.86
104491.09
104562.9
104632.93
104702.72
104773.7
104847.22
104924.65
105007.5
105097.59
105196.77
105306.2
105425
105549.83
105677.65
105813.94
105984.72
106242
106643.97
107193.5
107751.98
107978.05
107337.68
105619.82
103353.01
101473.89
100447.69
100088.09
100009.6
99999.585
99999.549
99999.905
99999.992
100000
100000
100000
100000
100000
100000
100000
100000
100000
100000
92985.938
93738.265
93730.547
94475.153
94618.117
95241.749
95586.744
96098.396
96563.8
97056.61
97553.972
98057.174
98562.141
99065.506
99563.454
100052.09
100527.48
100985.84
101423.62
101837.74
102225.62
102585.34
102915.67
103216.08
103486.68
103728.21
103941.91
104129.43
104292.76
104434.09
104555.75
104660.11
104749.57
104826.45
104892.99
104951.32
105003.47
105051.32
105096.63
105141.07
105186.16
105233.31
105283.8
105338.87
105399.9
105468.52
105546.56
105635.38
105734.63
105841.31
105951.42
106066.5
106204.75
106409.45
106739.51
107225.52
107788.61
108155.77
107894.7
106567.12
104392.96
102216.45
100788.11
100180.39
100022.46
99999.258
99998.824
99999.719
99999.975
100000
100000
100000
100000
100000
100000
100000
100000
100000
100000
100000
93495.603
94375.132
94383.465
95232.509
95435.578
96128.408
96560.87
97134.316
97676.297
98236.18
98797.918
99359.617
99916.102
100462.56
100993.93
101505.31
101992.12
102450.32
102876.62
103268.57
103624.67
103944.32
104227.8
104476.17
104691.13
104874.86
105029.93
105159.14
105265.37
105351.56
105420.59
105475.22
105518.06
105551.57
105578.03
105599.52
105617.98
105635.16
105652.69
105672.05
105694.57
105721.45
105753.8
105792.83
105839.97
105896.96
105965.3
106045.09
106133.84
106227.08
106323.36
106434.38
106595.3
106862.17
107279.84
107813.66
108267.21
108289.76
107356.02
105416.89
103095.03
101281.6
100347.38
100051.74
99999.72
99997.336
99999.241
99999.922
100000
100000
100000
100000
100000
100000
100000
100000
100000
100000
100000
100000
94110.231
95149.505
95182.624
96154.223
96434.633
97203.043
97739.614
98386.504
99012.63
99646.343
100274.78
100893.01
101494.1
102071.63
102619.53
103132.48
103606.17
104037.5
104424.65
104767.04
105065.24
105320.85
105536.22
105714.34
105858.56
105972.5
106059.81
106124.12
106168.94
106197.56
106213.07
106218.29
106215.81
106207.97
106196.85
106184.35
106172.18
106161.87
106154.79
106152.2
106155.16
106164.65
106181.67
106207.47
106243.63
106291.72
106352.24
106423.27
106500.28
106579.67
106667.66
106791.35
107001.53
107351.66
107842.26
108345.78
108560.28
107991.43
106371.23
104063.29
101934.57
100623.98
100114.82
100003.76
99994.822
99998.14
99999.758
100000.01
100000.01
100000
100000
100000
100000
100000
100000
100000
100000
100000
100000
100000
94855.368
96087.677
96160.326
97269.31
97658.214
98512.118
99171.32
99905.803
100621.79
101330.75
102019.86
102681.22
103306.39
103888.28
104421.19
104901.16
105326.04
105695.4
106010.35
106273.3
106487.65
106657.49
106787.32
106881.83
106945.68
106983.41
106999.29
106997.28
106981.02
106953.76
106918.43
106877.64
106833.68
106788.56
106744.08
106701.8
106663.13
106629.3
106601.43
106580.44
106567.16
106562.39
106567.14
106582.8
106610.95
106652.45
106706.01
106767.32
106831.32
106899.57
106991.51
107151.5
107436.95
107873.67
108384.2
108723.55
108486.02
107228.06
105072.86
102739.4
101045.52
100240.58
100018.7
99991.701
99995.907
99999.277
100000
100000.02
100000
100000
100000
100000
100000
100000
100000
100000
100000
100000
100000
100000
95759.158
97233.168
97376.34
98638.747
99176.071
100128.82
100925.15
101756.41
102557.26
103326.88
104051.44
104721.62
105329.7
105870.61
106341.85
106743.39
107077.3
107347.29
107558.32
107716.09
107826.7
107896.29
107930.87
107936.1
107917.22
107878.96
107825.6
107760.88
107688.11
107610.17
107529.54
107448.38
107368.53
107291.6
107218.97
107151.87
107091.34
107038.34
106993.64
106957.91
106931.73
106915.86
106911.47
106920.05
106942.8
106979.1
107025.16
107075.05
107126.47
107191.7
107307.42
107530.32
107903.74
108395.97
108818.62
108852.22
107973.48
106082.65
103681.83
101639.75
100468.89
100060.42
99990.129
99991.965
99998.026
99999.918
100000.05
100000.01
100000
100000
100000
100000
100000
100000
100000
100000
100000
100000
100000
100000
96894.071
98673.79
98926.712
100361.1
101089.94
102149.52
103079.29
103995.07
104849.36
105635.09
106340.44
106959.07
107488.2
107928.61
108283.96
108560.09
108764.29
108904.65
108989.48
109026.94
109024.78
108990.08
108929.26
108847.98
108751.2
108643.21
108527.69
108407.79
108286.16
108165.05
108046.38
107931.74
107822.49
107719.76
107624.56
107537.74
107460.05
107392.11
107334.41
107287.35
107251.43
107227.52
107216.97
107221.2
107240.32
107271.42
107308.33
107345.7
107388.84
107465.41
107627.94
107932.49
108383.78
108860.77
109095.44
108598.49
107058.86
104740.19
102426.92
100852.52
100160.77
99996.441
99986.24
99995.228
99999.525
100000.1
100000.04
100000
99999.999
100000
100000
100000
100000
100000
100000
100000
100000
100000
100000
100000
98380.419
100538.86
100949.24
102555.43
103509.93
104665.05
105683.58
106626.85
107461.16
108181.52
108784.62
109272.94
109652.8
109933.42
110125.7
110241.19
110291.41
110287.26
110238.76
110154.81
110043.23
109910.75
109763.08
109605.05
109440.7
109273.4
109105.92
108940.57
108779.25
108623.52
108474.65
108333.71
108201.57
108078.97
107966.53
107864.81
107774.25
107695.2
107627.88
107572.54
107529.71
107500.51
107486.42
107488.26
107504.27
107528.84
107554.62
107580.5
107624.28
107731.1
107962.62
108352.05
108841.95
109206.79
109081.91
107964.44
105880.86
103425.66
101449.76
100373.5
100027.89
99981.042
99990.048
99998.191
100000.09
100000.1
100000.02
99999.999
99999.999
100000
100000
100000
100000
100000
100000
100000
100000
100000
100000
100000
100394.53
102982.46
103608.14
105344.29
106494.65
107691.78
108695.85
109553.8
110254.47
110803.88
111212.52
111495.09
111668.1
111748.37
111752.02
111693.75
111586.54
111441.61
111268.41
111074.85
110867.43
110651.49
110431.36
110210.52
109991.8
109777.46
109569.31
109368.8
109177.08
108995.06
108823.48
108662.91
108513.83
108376.63
108251.65
108139.17
108039.39
107952.39
107878.2
107817.06
107769.7
107737.5
107721.78
107722.07
107734.11
107750.02
107763.76
107782.81
107840.69
107996.45
108307.07
108765.99
109222.91
109395.37
108749.92
107052.27
104638.81
102319.54
100782.19
100127.15
99983.93
99982.048
99994.581
99999.699
100000.2
100000.06
100000
99999.998
100000
100000
100000
100000
100000
100000
100000
100000
100000
100000
100000
100000
103174.28
106117.89
107034.02
108825.9
110020.3
111087.56
111925.53
112558.53
113003.05
113283.92
113426.85
113457.06
113397.49
113268.15
113086.01
112865.05
112616.67
112349.97
112072.22
111789.13
111505.16
111223.81
110947.79
110679.19
110419.63
110170.32
109932.21
109706
109492.22
109291.26
109103.4
108928.85
108767.76
108620.26
108486.49
108366.5
108260.27
108167.69
108088.69
108023.63
107973.55
107940
107923.65
107922.13
107928.58
107934.16
107937.32
107957.51
108043.64
108262.5
108648.59
109139.91
109499.27
109345.86
108169.55
106025.26
103518.13
101496.47
100382.35
100020.28
99974.007
99987.003
99997.807
100000.23
100000.17
100000.02
99999.997
99999.999
100000
100000
100000
100000
100000
100000
100000
100000
100000
100000
100000
100000
106989.92
110134.35
111241.61
112796.76
113827.79
114591.1
115084.44
115358.83
115455.32
115413.53
115266.88
115043.04
114764.15
114447.59
114106.79
113752.02
113391.07
113029.78
112672.53
112322.56
111982.27
111653.4
111337.21
111034.58
110746.12
110472.23
110213.18
109969.09
109740.01
109525.95
109326.86
109142.66
108973.32
108818.77
108678.97
108553.83
108443.15
108346.67
108264.39
108196.86
108145.45
108111.61
108094.95
108090.87
108090.42
108085.77
108082.66
108114.01
108239.75
108521.93
108966.51
109437.99
109660.58
109103.57
107473.79
105058.5
102635.64
100945.91
100168.82
99980.653
99975.097
99991.685
99999.443
100000.35
100000.12
100000
99999.996
99999.999
100000
100000
100000
100000
100000
100000
100000
100000
100000
100000
100000
100000
111788.56
114894.52
115918.46
116959.2
117524.37
117791
117818.08
117673.42
117406.72
117056.96
116653.03
116216.2
115761.88
115301.15
114841.88
114389.64
113948.31
113520.54
113108.13
112712.23
112333.56
111972.51
111629.23
111303.73
110995.91
110705.58
110432.51
110176.46
109937.16
109714.33
109507.72
109317.08
109142.22
108982.99
108839.23
108710.71
108597.11
108498.13
108413.84
108345.09
108293.42
108259.95
108242.99
108235.87
108228.44
108215.42
108210.64
108259.26
108428.16
108762.81
109236.94
109655.78
109685.71
108770.98
106817.9
104287.57
102024.09
100615.91
100064.79
99966.964
99978.264
99994.939
100000.17
100000.35
100000.08
99999.996
99999.997
100000
100000
100000
100000
100000
100000
100000
100000
100000
100000
100000
100000
100000
117507.87
119839.3
120399.3
120663.28
120582.68
120288.72
119854.36
119335.45
118769.32
118181.24
117587.96
117000.48
116425.92
115868.8
115331.86
114816.69
114324.09
113854.31
113407.29
112982.73
112580.19
112199.18
111839.12
111499.46
111179.62
110879.08
110597.28
110333.75
110088.01
109859.63
109648.22
109453.43
109275.01
109112.71
108966.31
108835.48
108719.79
108618.93
108533.05
108463.2
108410.95
108376.96
108358.36
108347.01
108332.33
108311.82
108305.64
108366.73
108566.88
108936.07
109405.66
109765.47
109620.47
108465.71
106338.66
103795.48
101672.81
100445.39
100018.25
99962.262
99980.403
99996.674
100000.51
100000.34
100000.05
99999.991
99999.997
100000
100000
100000
100000
100000
100000
100000
100000
100000
100000
100000
100000
100000
123632.76
124047.34
123850.25
123350.82
122685.51
121937.47
121158.38
120377.49
119611.85
118870.84
118159.42
117479.9
116833
116218.53
115635.77
115083.68
114561.1
114066.83
113599.63
113158.35
112741.85
112349.1
111979.1
111630.95
111303.82
110996.92
110709.56
110441.07
110190.88
109958.43
109743.26
109544.95
109363.18
109197.68
109048.14
108914.12
108795.13
108690.79
108601.34
108527.91
108472.13
108434.3
108410.8
108392.77
108369.34
108339.84
108328.61
108393.06
108603.52
108987.48
109464.34
109786.92
109547.31
108332.38
106173.62
103650.43
101578.52
100399.97
100002.77
99958.739
99980.381
99997.204
100000.69
100000.35
100000.04
99999.988
99999.997
100000
100000
100000
100000
100000
100000
100000
100000
100000
100000
100000
100000
100000
127219.43
126644.79
125805.08
124841.45
123850.36
122872.4
121928.49
121027.18
120171.64
119362.07
118597.25
117875.28
117193.99
116551.12
115944.47
115371.96
114831.64
114321.71
113840.52
113386.56
112958.48
112555.01
112175.04
111817.54
111481.59
111166.35
110871.06
110595.04
110337.67
110098.38
109876.7
109672.23
109484.65
109313.7
109159.07
109020.31
108896.87
108788.38
108695.19
108618.66
108560.69
108521.8
108498.22
108480.11
108455.78
108424.9
108410.75
108478.71
108708.8
109120.64
109611.98
109974.68
109838.5
108676.31
106532.54
103948.42
101761.48
100472.19
100011.47
99954.131
99977.342
99996.409
100000.77
100000.42
100000.05
99999.986
99999.996
100000
100000
100000
100000
100000
100000
100000
100000
100000
100000
100000
100000
100000
105606.88
105540.71
105439.28
105328.5
105197.96
105061.11
104908.46
104752.9
104592.53
104433.17
104273.97
104115.17
103956.79
103799.08
103642.33
103486.66
103332.28
103179.31
103027.91
102878.22
102730.38
102584.5
102440.65
102298.91
102159.31
102021.89
101886.64
101753.55
101622.6
101493.75
101366.95
101242.08
101119.04
100997.65
100877.72
100758.99
100641.19
100523.99
100407.13
100290.38
100173.7
100057.29
99941.64
99827.58
99716.208
99608.789
99506.632
99410.97
99322.904
99243.402
99173.28
99112.972
99061.581
99014.338
98957.597
98862.631
98686.253
98391.549
97994.615
97598.038
97360.286
97409.337
97773.929
98373.033
99035.384
99583.231
99921.526
100063.55
100084.41
100059.04
100030.55
100012.68
100004.37
100001.28
100000.32
100000.07
100000.01
100000
100000
100000
103704.43
103690.82
103658.88
103628.01
103577.96
103528.38
103465.5
103400.81
103326.84
103249.48
103166.12
103078.83
102987.47
102892.5
102794.35
102693.38
102589.92
102484.29
102376.81
102267.77
102157.44
102046.07
101933.9
101821.12
101707.94
101594.52
101481.03
101367.6
101254.35
101141.39
101028.77
100916.51
100804.61
100693.03
100581.69
100470.51
100359.4
100248.3
100137.22
100026.32
99915.929
99806.632
99699.241
99594.775
99494.379
99399.218
99310.375
99228.756
99154.999
99089.349
99031.34
98979.05
98927.47
98865.608
98772.682
98617.19
98366.8
98016.318
97621.888
97301.553
97184.907
97355.793
97823.757
98509.276
99239.108
99817.006
100134.87
100220.1
100177.98
100105.18
100049.56
100019.28
100006.32
100001.77
100000.42
100000.09
100000.02
100000
100000
100000
102337.05
102336.5
102322.93
102319.03
102299.75
102285.79
102259.91
102235.87
102203.04
102168.69
102128.36
102084.48
102036.16
101983.68
101927.18
101866.79
101802.71
101735.1
101664.18
101590.13
101513.16
101433.46
101351.23
101266.67
101179.96
101091.32
101000.93
100908.99
100815.67
100721.12
100625.47
100528.84
100431.32
100332.99
100233.96
100134.32
100034.21
99933.845
99833.544
99733.772
99635.156
99538.485
99444.679
99354.721
99269.572
99190.071
99116.828
99050.101
98989.609
98934.216
98881.323
98825.798
98758.246
98662.928
98516.888
98295.189
97986.785
97619.872
97275.676
97065.597
97077.901
97353.877
97901.895
98654.107
99440.914
100046.61
100345.42
100375.29
100270.72
100150.64
100068.06
100025.6
100008.14
100002.21
100000.52
100000.11
100000.02
100000
100000
100000
101299.38
101306.53
101299.5
101305.09
101296.01
101295.09
101282.39
101274.37
101258.43
101243.23
101223.03
101200.94
101175.46
101146.8
101114.82
101079.51
101040.85
100998.88
100953.59
100905.04
100853.27
100798.35
100740.36
100679.4
100615.61
100549.12
100480.07
100408.62
100334.91
100259.1
100181.34
100101.79
100020.63
99938.055
99854.287
99769.592
99684.299
99598.822
99513.674
99429.474
99346.936
99266.83
99189.934
99116.948
99048.412
98984.588
98925.33
98869.894
98816.643
98762.588
98702.661
98628.719
98528.48
98385.23
98180.852
97905.271
97572.375
97236.684
96987.399
96905.33
97034.81
97397.358
98002.775
98805.008
99640.272
100271.7
100552.31
100527.93
100361.59
100194.82
100085.83
100031.58
100009.84
100002.62
100000.6
100000.12
100000.02
100000
100000
100000
100425.09
100434.5
100429.79
100439.57
100433.77
100440.1
100434.93
100436.51
100430.23
100426.54
100418.16
100408.55
100396.34
100381.98
100365.15
100345.8
100323.81
100299.11
100271.61
100241.27
100208.02
100171.87
100132.8
100090.84
100046.05
99998.486
99948.225
99895.361
99840.003
99782.284
99722.359
99660.413
99596.661
99531.354
99464.787
99397.309
99329.327
99261.313
99193.798
99127.346
99062.529
98999.867
98939.769
98882.441
98827.796
98775.316
98723.879
98671.523
98615.106
98549.852
98468.798
98362.346
98218.46
98024.608
97773.96
97474.506
97162.948
96905.699
96774.77
96820.285
97051.202
97476.691
98120.074
98959.826
99837.215
100492.42
100754.97
100677.04
100449.79
100237.27
100102.7
100037.18
100011.41
100003
100000.68
100000.13
100000.02
100000
100000
100000
99659.712
99673.125
99671.181
99684.81
99682.988
99693.665
99692.003
99698.926
99697.202
99699.947
99698.134
99696.62
99692.928
99687.855
99680.978
99672.281
99661.629
99648.923
99634.058
99616.943
99597.504
99575.684
99551.444
99524.757
99495.615
99464.022
99430.002
99393.606
99354.907
99314.012
99271.058
99226.211
99179.675
99131.689
99082.53
99032.514
98981.991
98931.326
98880.884
98830.992
98781.892
98733.686
98686.262
98639.207
98591.702
98542.373
98489.116
98428.866
98357.341
98268.8
98155.954
98010.389
97824.143
97593.521
97325.371
97045.053
96800.529
96652.119
96649.169
96806.044
97115.741
97582.68
98249.539
99118.017
100032.43
100708.95
100952.72
100821.62
100534.52
100277.58
100118.5
100042.35
100012.83
100003.33
100000.75
100000.15
100000.03
100000
100000
100000
98990.259
99005.164
99004.452
99020.301
99019.555
99033.519
99033.67
99044.526
99046.074
99053.15
99055.536
99059.275
99061.086
99062.278
99062.222
99060.98
99058.384
99054.345
99048.758
99041.535
99032.597
99021.871
99009.291
98994.801
98978.356
98959.927
98939.508
98917.112
98892.776
98866.563
98838.555
98808.86
98777.61
98744.957
98711.07
98676.125
98640.288
98603.696
98566.422
98528.439
98489.57
98449.431
98407.361
98362.337
98312.878
98256.922
98191.695
98113.599
98018.157
97900.149
97754.125
97575.675
97363.931
97125.783
96879.954
96661.913
96517.847
96490.056
96603.104
96851.693
97216.358
97707.852
98388.415
99279.613
100226.65
100921.38
101144.9
100960.74
100615.09
100315.37
100133.08
100047.03
100014.08
100003.61
100000.8
100000.16
100000.03
100000
100000
100000
98389.472
98405.802
98406.025
98423.773
98423.921
98440.611
98442.002
98456.115
98459.633
98470.354
98475.753
98483.497
98489.315
98495.091
98499.926
98504.046
98507.25
98509.502
98510.702
98510.779
98509.646
98507.224
98503.433
98498.201
98491.464
98483.171
98473.283
98461.769
98448.611
98433.799
98417.335
98399.227
98379.488
98358.127
98335.14
98310.496
98284.119
98255.858
98225.463
98192.544
98156.529
98116.613
98071.705
98020.367
97960.75
97890.548
97806.98
97706.855
97586.802
97443.785
97276.12
97085.169
96877.849
96669.463
96486.174
96362.021
96331.237
96418.829
96628.338
96943.157
97342.569
97846.755
98535.007
99444.824
100420.47
101129.8
101330.93
101093.62
100690.87
100350.3
100146.28
100051.15
100015.15
100003.85
100000.85
100000.16
100000.03
100000
100000
100000
97835.064
97852.22
97852.793
97872.059
97872.249
97891.147
97892.744
97909.349
97913.685
97926.963
97933.963
97944.373
97952.593
97961.354
97969.328
97976.988