/*--------------------------------*- C++ -*----------------------------------*\
  =========                 |
  \\      /  F ield         | OpenFOAM: The Open Source CFD Toolbox
   \\    /   O peration     | Website:  https://openfoam.org
    \\  /    A nd           | Version:  12
     \\/     M anipulation  |
\*---------------------------------------------------------------------------*/
FoamFile
{
    format      ascii;
    class       volScalarField;
    location    "0.003";
    object      rho;
}
// * * * * * * * * * * * * * * * * * * * * * * * * * * * * * * * * * * * * * //

dimensions      [1 -3 0 0 0 0 0];

internalField   nonuniform List<scalar> 
16000
(
1.0675818
1.0944176
1.0836084
1.0906654
1.0872041
1.0903634
1.0894225
1.0911943
1.0913633
1.0925977
1.0932359
1.0942576
1.0951239
1.0961069
1.0970799
1.0981025
1.0991551
1.100248
1.1013809
1.1025562
1.1037742
1.1050351
1.1063376
1.1076806
1.1090635
1.1104867
1.111951
1.1134568
1.1150035
1.1165891
1.1182112
1.1198682
1.1215593
1.1232837
1.1250396
1.1268247
1.1286368
1.1304739
1.1323341
1.134216
1.136118
1.1380395
1.1399802
1.14194
1.1439189
1.145918
1.1479398
1.1499876
1.1520652
1.1541791
1.1563366
1.1585461
1.1608191
1.1631712
1.165621
1.1681871
1.1708788
1.173692
1.176656
1.1799855
1.1842698
1.1903028
1.1979149
1.2046696
1.2056564
1.198321
1.1865924
1.1764197
1.1703687
1.16767
1.1667333
1.1664727
1.1664127
1.1664012
1.1663993
1.166399
1.166399
1.166399
1.166399
1.166399
1.066999
1.0946891
1.083374
1.0909115
1.0871999
1.0906155
1.0895695
1.0914944
1.0916508
1.0929828
1.0936895
1.0947904
1.0957376
1.0968005
1.0978585
1.0989641
1.1001022
1.1012812
1.1025022
1.1037674
1.1050776
1.1064324
1.1078305
1.1092705
1.1107514
1.1122728
1.1138351
1.1154378
1.11708
1.1187596
1.1204741
1.1222212
1.1239993
1.1258068
1.1276418
1.1295012
1.1313821
1.1332822
1.1351993
1.1371318
1.1390778
1.1410364
1.1430075
1.1449912
1.1469876
1.1489977
1.1510242
1.1530705
1.1551405
1.1572409
1.15938
1.1615665
1.1638125
1.1661334
1.168548
1.1710739
1.1737167
1.1764702
1.179377
1.1826882
1.1870267
1.1931508
1.2007342
1.2070575
1.206953
1.1983634
1.1859287
1.1757264
1.169935
1.1674773
1.1666693
1.1664558
1.1664091
1.1664005
1.1663992
1.166399
1.166399
1.166399
1.166399
1.166399
1.0666525
1.0950939
1.0833476
1.0913196
1.0874091
1.0910274
1.0899459
1.091985
1.0921962
1.0935974
1.0943572
1.0955302
1.0965615
1.0977064
1.0988541
1.1000488
1.1012787
1.1025508
1.1038665
1.1052281
1.1066363
1.1080909
1.1095901
1.1111324
1.1127161
1.1143406
1.1160053
1.1177091
1.1194502
1.1212259
1.1230336
1.1248707
1.1267349
1.1286239
1.1305349
1.1324644
1.1344091
1.136366
1.1383329
1.1403079
1.1422893
1.144276
1.1462676
1.1482646
1.1502673
1.1522774
1.1542976
1.1563318
1.1583839
1.160461
1.1625722
1.1647271
1.1669381
1.1692208
1.1715934
1.1740725
1.176662
1.1793603
1.1822345
1.1855849
1.1900706
1.1963671
1.2038713
1.2094483
1.2077738
1.1976841
1.1846821
1.174733
1.1694038
1.167269
1.1666063
1.1664403
1.1664059
1.1664
1.1663991
1.166399
1.166399
1.166399
1.166399
1.166399
1.066548
1.0956317
1.0834897
1.0918891
1.0877921
1.0916112
1.0904963
1.0926823
1.0928996
1.0943838
1.0952231
1.0964777
1.097605
1.098842
1.1000902
1.1013851
1.1027177
1.1040933
1.1055138
1.1069813
1.1084966
1.1100593
1.1116678
1.1133199
1.1150138
1.1167479
1.118521
1.120331
1.1221753
1.1240505
1.1259532
1.1278807
1.1298299
1.131798
1.1337812
1.1357758
1.1377778
1.1397838
1.1417915
1.1437992
1.1458051
1.1478082
1.1498082
1.1518055
1.1538011
1.1557973
1.1577975
1.1598059
1.1618273
1.1638691
1.165941
1.1680536
1.1702204
1.1724576
1.1747835
1.1772133
1.1797485
1.1823935
1.1852444
1.1886576
1.1933318
1.1998098
1.207125
1.2116282
1.2080126
1.1963568
1.1830234
1.1735833
1.1688474
1.1670685
1.1665498
1.1664273
1.1664035
1.1663996
1.1663991
1.166399
1.166399
1.166399
1.166399
1.166399
1.066641
1.0963438
1.0837848
1.0926172
1.0883282
1.0924028
1.0912016
1.0934753
1.0937989
1.095367
1.0963246
1.0976678
1.0989018
1.1002398
1.1015981
1.1030035
1.1044494
1.1059397
1.1074758
1.1090599
1.1106924
1.1123729
1.1140996
1.11587
1.1176815
1.1195319
1.1214189
1.1233396
1.1252902
1.1272665
1.1292646
1.1312808
1.1333118
1.1353538
1.1374028
1.1394542
1.1415037
1.1435478
1.1455842
1.1476113
1.1496278
1.1516326
1.1536257
1.1556079
1.157581
1.1595479
1.161513
1.1634814
1.1654588
1.1674533
1.169475
1.1715358
1.1736505
1.1758368
1.1781132
1.1804925
1.182973
1.1855682
1.188413
1.1919294
1.1968435
1.2034767
1.2104112
1.2133915
1.2074628
1.1943036
1.1809825
1.1723231
1.1682905
1.1668838
1.1665015
1.166417
1.1664016
1.1663993
1.166399
1.166399
1.166399
1.166399
1.166399
1.166399
1.0669368
1.0972057
1.0842791
1.0935064
1.0890489
1.0933003
1.0921311
1.0945942
1.0949687
1.0966325
1.0976918
1.0991297
1.1004809
1.1019303
1.1034099
1.1049381
1.1065101
1.1081281
1.109793
1.1115062
1.1132678
1.1150773
1.1169322
1.1188297
1.1207667
1.1227399
1.1247458
1.1267805
1.1288391
1.1309165
1.133008
1.1351091
1.1372157
1.1393236
1.1414282
1.1435247
1.1456085
1.1476762
1.1497255
1.1517553
1.1537647
1.1557532
1.1577213
1.1596704
1.1616032
1.1635237
1.1654374
1.1673505
1.1692699
1.1712046
1.1731654
1.1751653
1.1772209
1.1793514
1.1815743
1.1838973
1.1863143
1.1888542
1.1917103
1.1953846
1.2005984
1.2073317
1.2136059
1.214502
1.2059705
1.1915528
1.1786689
1.1710372
1.1677728
1.1667265
1.1664634
1.1664095
1.1664004
1.1663991
1.166399
1.166399
1.166399
1.166399
1.166399
1.166399
1.0674464
1.0982385
1.0849774
1.0945136
1.0899683
1.0944679
1.0933251
1.0959235
1.0963909
1.0981531
1.0993431
1.1008885
1.1023726
1.1039491
1.1055647
1.1072311
1.1089443
1.110705
1.1125132
1.1143695
1.1162733
1.1182234
1.120217
1.1222506
1.1243202
1.1264214
1.1285496
1.1306995
1.1328652
1.1350407
1.1372202
1.1393984
1.1415706
1.143732
1.1458778
1.148003
1.1501033
1.1521754
1.1542177
1.1562294
1.1582104
1.1601612
1.162083
1.1639786
1.1658518
1.1677077
1.1695529
1.1713952
1.1732425
1.1751049
1.1769943
1.1789251
1.1809158
1.1829862
1.1851495
1.1874048
1.1897444
1.1922265
1.1951309
1.1990457
1.2046095
1.2113002
1.2164774
1.2146579
1.203403
1.1881828
1.1762184
1.1698134
1.1673277
1.1666031
1.1664359
1.1664045
1.1663997
1.1663991
1.166399
1.166399
1.166399
1.166399
1.166399
1.166399
1.0681568
1.0994362
1.0858729
1.0956681
1.0910874
1.095846
1.0948064
1.0975083
1.0981093
1.099982
1.1013237
1.1029924
1.1046266
1.1063473
1.1081152
1.1099365
1.1118071
1.1137265
1.1156935
1.1177075
1.119767
1.1218696
1.1240119
1.1261895
1.1283974
1.1306299
1.132881
1.1351442
1.1374123
1.1396783
1.1419355
1.1441779
1.1464001
1.1485971
1.150764
1.1528961
1.1549896
1.1570421
1.1590525
1.1610211
1.1629488
1.1648372
1.1666893
1.1685091
1.1703019
1.1720741
1.1738335
1.1755893
1.1773508
1.179129
1.1809371
1.1827915
1.1847118
1.1867159
1.1888088
1.1909789
1.193227
1.1956684
1.1986965
1.2029656
1.2088788
1.2152802
1.2186605
1.2135
1.199705
1.184371
1.1738
1.1687355
1.1669767
1.1665148
1.1664179
1.1664015
1.1663993
1.166399
1.166399
1.166399
1.166399
1.166399
1.166399
1.166399
1.0691096
1.1008302
1.0869986
1.0971307
1.092497
1.0975171
1.0965911
1.0994163
1.1001781
1.1021699
1.1036868
1.105496
1.1072976
1.1091817
1.1111199
1.1131143
1.1151603
1.1172557
1.119398
1.121585
1.1238136
1.1260802
1.1283801
1.1307078
1.1330568
1.1354202
1.1377906
1.14016
1.1425202
1.1448631
1.1471812
1.1494679
1.1517176
1.1539253
1.1560865
1.1581972
1.1602548
1.1622579
1.1642069
1.1661033
1.1679494
1.1697485
1.1715055
1.1732262
1.1749174
1.1765869
1.1782436
1.179898
1.1815609
1.1832441
1.1849625
1.1867343
1.1885787
1.1905075
1.1925133
1.1945783
1.1967346
1.1991922
1.2024663
1.2072073
1.2133357
1.2190111
1.2196904
1.2107328
1.1949858
1.1803839
1.171588
1.1678659
1.1667254
1.1664576
1.1664075
1.1664
1.1663991
1.166399
1.166399
1.166399
1.166399
1.166399
1.166399
1.166399
1.0703595
1.1024848
1.0884299
1.0988889
1.0942723
1.099512
1.0987148
1.1016843
1.1026416
1.104764
1.1064811
1.1084534
1.1104436
1.112514
1.1146442
1.1168329
1.1190745
1.1213649
1.1236998
1.1260749
1.1284853
1.1309255
1.1333893
1.1358693
1.1383578
1.1408463
1.1433258
1.1457871
1.1482211
1.1506188
1.1529724
1.1552749
1.1575211
1.1597064
1.1618274
1.1638816
1.1658679
1.1677868
1.1696405
1.1714321
1.1731661
1.1748478
1.176484
1.1780824
1.1796516
1.1812005
1.1827391
1.1842789
1.1858321
1.187412
1.1890348
1.1907193
1.1924813
1.1943214
1.1962197
1.1981668
1.2002616
1.2028469
1.2065241
1.211798
1.2178467
1.2219752
1.2189693
1.2062707
1.1895535
1.1765388
1.1697317
1.1672306
1.1665629
1.1664247
1.1664022
1.1663993
1.166399
1.166399
1.166399
1.166399
1.166399
1.166399
1.166399
1.166399
1.0718937
1.1044027
1.0901546
1.1009848
1.0964191
1.1018509
1.1012341
1.1043493
1.105546
1.1078184
1.1097656
1.1119308
1.1141356
1.1164195
1.1187668
1.1211736
1.1236326
1.1261377
1.1286821
1.1312591
1.1338613
1.136481
1.1391098
1.1417383
1.1443572
1.1469563
1.1495254
1.1520543
1.1545332
1.1569529
1.1593057
1.1615851
1.1637869
1.1659078
1.1679462
1.1699019
1.1717761
1.1735718
1.1752933
1.1769462
1.178537
1.1800734
1.1815644
1.1830193
1.1844482
1.185861
1.1872686
1.1886834
1.1901192
1.1915906
1.1931149
1.1947093
1.1963807
1.1981152
1.1998883
1.2017296
1.2038444
1.2067208
1.2109564
1.2165948
1.2220771
1.2235817
1.2160199
1.2002654
1.1838875
1.1731421
1.1683237
1.1668164
1.1664698
1.1664082
1.1663999
1.166399
1.166399
1.166399
1.166399
1.166399
1.166399
1.166399
1.166399
1.166399
1.0737323
1.1066045
1.0921885
1.1033798
1.0989779
1.1045781
1.1042019
1.1074738
1.1089608
1.1114107
1.1136201
1.1160132
1.1184624
1.1209896
1.1235818
1.1262319
1.1289308
1.1316695
1.1344382
1.1372271
1.140026
1.1428241
1.1456105
1.1483738
1.1511027
1.1537858
1.156412
1.1589707
1.1614521
1.1638476
1.1661507
1.1683566
1.1704627
1.1724685
1.174375
1.1761849
1.1779027
1.179534
1.1810861
1.1825669
1.1839854
1.1853516
1.1866761
1.1879699
1.1892439
1.1905091
1.1917769
1.1930605
1.1943751
1.1957372
1.1971631
1.198664
1.2002338
1.2018453
1.2034902
1.2052818
1.2075665
1.2109173
1.2157808
1.2214396
1.2253522
1.2229271
1.2107353
1.1932294
1.1785378
1.170427
1.1673756
1.1665783
1.1664237
1.1664013
1.1663991
1.166399
1.166399
1.166399
1.166399
1.166399
1.166399
1.166399
1.166399
1.166399
1.075912
1.1091326
1.0945829
1.1061768
1.1019524
1.1077675
1.1077016
1.111143
1.1129734
1.1156361
1.1181412
1.1208014
1.1235288
1.1263326
1.1291995
1.1321193
1.1350798
1.138068
1.1410707
1.1440742
1.1470647
1.1500283
1.1529514
1.1558206
1.1586231
1.1613467
1.1639804
1.1665141
1.1689393
1.1712497
1.1734409
1.1755113
1.1774616
1.1792949
1.1810157
1.1826305
1.1841471
1.1855746
1.1869229
1.1882023
1.1894241
1.1906001
1.1917423
1.1928626
1.1939726
1.1950838
1.1962079
1.1973593
1.1985547
1.1998109
1.2011398
1.2025411
1.2039939
1.205472
1.2070204
1.2088774
1.2115389
1.2155503
1.2208305
1.2257962
1.2269491
1.2194182
1.2034078
1.1859492
1.1739882
1.1685037
1.1668202
1.1664602
1.1664047
1.166399
1.1663989
1.166399
1.166399
1.166399
1.166399
1.166399
1.166399
1.166399
1.166399
1.166399
1.0784911
1.1120409
1.0974152
1.109439
1.1054547
1.1115004
1.1118246
1.115452
1.1176806
1.1206034
1.1234434
1.1264168
1.1294626
1.1325799
1.135753
1.1389671
1.1422056
1.1454513
1.1486864
1.151893
1.1550537
1.1581514
1.1611701
1.1640951
1.1669129
1.1696119
1.1721824
1.1746169
1.1769102
1.1790596
1.1810653
1.18293
1.1846593
1.1862603
1.1877422
1.189115
1.1903904
1.1915802
1.1926968
1.1937528
1.1947609
1.1957341
1.1966853
1.1976268
1.1985701
1.1995267
1.2005096
1.2015339
1.2026172
1.2037738
1.2050057
1.2062958
1.2076164
1.2089733
1.2105175
1.2126336
1.2158699
1.2205131
1.2257683
1.2289197
1.2257178
1.213014
1.1948432
1.1792753
1.170553
1.1673261
1.1665427
1.1664121
1.1663987
1.1663986
1.1663989
1.166399
1.166399
1.166399
1.166399
1.166399
1.166399
1.166399
1.166399
1.166399
1.0815158
1.1153765
1.1007821
1.1132403
1.1095824
1.115859
1.1166687
1.1205167
1.1232053
1.1264535
1.1296788
1.1330183
1.1364266
1.1398935
1.1433989
1.1469225
1.1504427
1.1539371
1.1573832
1.1607588
1.1640432
1.1672167
1.170262
1.1731644
1.175912
1.1784958
1.1809103
1.1831528
1.1852236
1.1871262
1.1888668
1.1904538
1.1918981
1.1932118
1.194408
1.1955005
1.1965037
1.197432
1.1982994
1.1991197
1.1999065
1.2006734
1.2014331
1.2021976
1.2029782
1.2037866
1.2046367
1.2055449
1.206527
1.2075896
1.2087194
1.2098848
1.2110731
1.2123725
1.2140679
1.2166601
1.2206142
1.225636
1.2298228
1.2298187
1.2210733
1.2042474
1.1862067
1.173869
1.1683128
1.1667213
1.166429
1.1663973
1.1663977
1.1663987
1.166399
1.166399
1.166399
1.166399
1.166399
1.166399
1.166399
1.166399
1.166399
1.166399
1.0850299
1.1191597
1.1047793
1.1176384
1.1144337
1.1209647
1.1223803
1.1265128
1.1297324
1.1333839
1.13705
1.1408068
1.1446155
1.1484571
1.1523057
1.1561349
1.1599171
1.1636241
1.1672289
1.1707056
1.1740311
1.1771853
1.1801523
1.1829205
1.185483
1.1878371
1.1899842
1.1919296
1.1936813
1.1952504
1.1966498
1.1978945
1.1990001
1.1999831
1.2008601
1.2016475
1.2023614
1.2030174
1.2036301
1.2042139
1.2047822
1.2053482
1.2059241
1.2065209
1.2071493
1.207822
1.2085541
1.2093613
1.2102531
1.2112219
1.2122387
1.2132744
1.2143689
1.2157348
1.217808
1.2210906
1.2256372
1.2303134
1.232267
1.2272946
1.2131697
1.1943302
1.1786412
1.1700693
1.1670934
1.1664685
1.166394
1.1663952
1.1663982
1.1663989
1.166399
1.166399
1.166399
1.166399
1.166399
1.166399
1.166399
1.166399
1.166399
1.166399
1.089107
1.1234142
1.1094692
1.1227912
1.1202043
1.1270435
1.1291958
1.1336925
1.1375092
1.1416388
1.1457941
1.1500067
1.1542376
1.1584582
1.1626353
1.1667345
1.1707214
1.1745624
1.1782271
1.1816884
1.1849249
1.1879204
1.1906655
1.1931567
1.1953963
1.1973916
1.1991541
1.2006984
1.2020415
1.2032021
1.2041997
1.2050544
1.2057859
1.2064135
1.2069557
1.20743
1.2078529
1.2082399
1.2086055
1.208963
1.2093253
1.2097044
1.2101111
1.2105555
1.2110485
1.2116035
1.2122364
1.2129584
1.2137664
1.2146343
1.2155263
1.2164498
1.2175514
1.2191923
1.2218746
1.2258781
1.2305815
1.2336914
1.2318291
1.2209783
1.2029626
1.1848125
1.1728909
1.1678334
1.1665629
1.166389
1.166389
1.1663967
1.1663988
1.166399
1.166399
1.166399
1.166399
1.166399
1.166399
1.166399
1.166399
1.166399
1.166399
1.166399
1.0939283
1.1283579
1.1151525
1.1289878
1.1271868
1.1343827
1.1373975
1.1423403
1.1468084
1.1514817
1.156164
1.1608529
1.1655024
1.1700716
1.1745174
1.1787966
1.1828698
1.1867014
1.1902629
1.1935331
1.1964991
1.199156
1.2015071
1.2035619
1.2053358
1.2068481
1.2081213
1.2091792
1.2100467
1.2107485
1.2113088
1.2117508
1.2120963
1.2123653
1.2125767
1.2127473
1.2128929
1.2130278
1.2131648
1.213316
1.2134927
1.2137051
1.2139627
1.2142751
1.2146539
1.2151133
1.2156666
1.2163148
1.2170364
1.2177915
1.2185635
1.2194444
1.2207253
1.2228827
1.2263105
1.2307497
1.2345973
1.2349685
1.2274562
1.2114461
1.1921146
1.1769817
1.1691947
1.1667829
1.1663876
1.1663764
1.1663928
1.1663984
1.166399
1.166399
1.166399
1.166399
1.166399
1.166399
1.166399
1.166399
1.166399
1.166399
1.166399
1.166399
1.0997194
1.1345463
1.1221269
1.1365121
1.1356834
1.1432666
1.1472738
1.1527656
1.1579393
1.1632131
1.1684406
1.173589
1.178599
1.1834157
1.1879877
1.1922686
1.1962217
1.1998195
1.2030463
1.2058967
1.2083756
1.2104961
1.2122788
1.2137489
1.2149354
1.2158689
1.2165807
1.2171015
1.217461
1.2176869
1.2178051
1.2178394
1.2178111
1.2177396
1.217642
1.2175336
1.217428
1.2173376
1.2172732
1.2172447
1.2172612
1.2173313
1.2174634
1.2176676
1.2179565
1.2183433
1.2188329
1.2194094
1.2200332
1.22067
1.2213654
1.222342
1.2240283
1.2268888
1.2309582
1.235183
1.2370274
1.2326535
1.2193339
1.200158
1.1823982
1.1714768
1.1672727
1.16641
1.1663545
1.1663837
1.1663972
1.1663991
1.166399
1.166399
1.166399
1.166399
1.166399
1.166399
1.166399
1.166399
1.166399
1.166399
1.166399
1.166399
1.1066467
1.1421296
1.1305444
1.1455615
1.1460215
1.1540654
1.1592073
1.1653775
1.1712997
1.1771876
1.1829101
1.1884056
1.1936031
1.1984421
1.2028749
1.2068674
1.2104014
1.2134725
1.2160904
1.2182745
1.2200534
1.221461
1.222535
1.2233145
1.2238385
1.224145
1.2242697
1.2242458
1.2241038
1.2238709
1.2235719
1.2232285
1.2228598
1.2224826
1.2221114
1.2217591
1.2214369
1.2211545
1.2209204
1.2207422
1.2206264
1.2205802
1.2206121
1.2207337
1.2209578
1.2212917
1.2217248
1.2222207
1.222734
1.223272
1.2239915
1.2252645
1.227584
1.2311915
1.2354683
1.2383142
1.2366789
1.2263938
1.2085361
1.1890837
1.1749643
1.1682775
1.1665108
1.1663249
1.166365
1.1663935
1.1663991
1.1663992
1.166399
1.166399
1.166399
1.166399
1.166399
1.166399
1.166399
1.166399
1.166399
1.166399
1.166399
1.166399
1.1148546
1.151237
1.1409744
1.1566353
1.1587668
1.167385
1.1737653
1.1807035
1.1873293
1.1937094
1.1997136
1.2052666
1.2103044
1.2147845
1.2186874
1.2220126
1.2247782
1.2270152
1.2287649
1.2300744
1.2309941
1.2315746
1.2318653
1.2319128
1.23176
1.2314462
1.2310063
1.2304716
1.2298694
1.2292238
1.2285555
1.2278828
1.2272212
1.2265841
1.2259829
1.2254276
1.2249269
1.2244881
1.2241172
1.2238192
1.2235989
1.2234625
1.2234202
1.2234847
1.223666
1.2239587
1.2243307
1.2247303
1.2251341
1.2256386
1.2265485
1.2283464
1.2314155
1.2355126
1.2390873
1.2395823
1.2325144
1.2169036
1.1969179
1.1798844
1.1701483
1.1668175
1.1663015
1.166332
1.1663834
1.1663987
1.1663994
1.1663991
1.166399
1.166399
1.166399
1.166399
1.166399
1.166399
1.166399
1.166399
1.166399
1.166399
1.166399
1.166399
1.1249814
1.162597
1.1541925
1.1705507
1.1747577
1.1840276
1.1915925
1.1992052
1.2062667
1.2127617
1.2185857
1.2236881
1.2280486
1.2316749
1.2346002
1.2368734
1.2385565
1.239716
1.2404211
1.2407386
1.2407316
1.240458
1.2399697
1.2393129
1.2385276
1.2376487
1.2367062
1.2357257
1.2347291
1.2337352
1.2327597
1.2318164
1.2309165
1.2300699
1.229285
1.2285689
1.2279279
1.2273672
1.2268904
1.2265005
1.2262013
1.2259998
1.225908
1.2259381
1.2260915
1.2263431
1.2266393
1.2269314
1.2272587
1.2278493
1.2291466
1.2316349
1.2353787
1.2394005
1.2413934
1.2376308
1.2249757
1.2057141
1.186419
1.1733155
1.1675987
1.1663311
1.1662836
1.1663603
1.1663959
1.1663999
1.1663993
1.166399
1.166399
1.166399
1.166399
1.166399
1.166399
1.166399
1.166399
1.166399
1.166399
1.166399
1.166399
1.166399
1.1384249
1.1772235
1.1713505
1.1882895
1.1949023
1.2047453
1.2130885
1.2208954
1.2277684
1.2336924
1.2386415
1.2426401
1.2457454
1.2480359
1.2496041
1.2505463
1.2509579
1.2509284
1.2505396
1.2498637
1.2489641
1.2478949
1.2467019
1.2454241
1.2440935
1.2427373
1.2413777
1.2400333
1.2387195
1.2374491
1.2362327
1.2350793
1.2339964
1.2329903
1.2320665
1.2312297
1.2304842
1.2298327
1.2292773
1.2288197
1.2284642
1.22822
1.2281001
1.2281122
1.2282418
1.2284402
1.2286419
1.2288326
1.2291568
1.2299937
1.2318697
1.235093
1.2392029
1.2422481
1.2415593
1.2324404
1.2151875
1.1947268
1.1782564
1.1693248
1.1665464
1.1662319
1.1663166
1.1663856
1.1664001
1.1663998
1.1663991
1.166399
1.166399
1.166399
1.166399
1.166399
1.166399
1.166399
1.166399
1.166399
1.166399
1.166399
1.166399
1.166399
1.1565074
1.1963487
1.1938316
1.2108833
1.2196694
1.229629
1.2378527
1.2449022
1.2506341
1.2551143
1.2584347
1.260721
1.2621134
1.262752
1.2627706
1.2622894
1.2614148
1.2602374
1.2588338
1.2572674
1.2555905
1.2538456
1.2520672
1.2502831
1.2485155
1.2467825
1.2450982
1.2434743
1.2419197
1.240442
1.2390471
1.2377399
1.2365242
1.2354036
1.234381
1.2334592
1.23264
1.2319246
1.2313134
1.2308082
1.2304153
1.2301467
1.2300142
1.2300148
1.2301122
1.2302373
1.2303341
1.23046
1.2308935
1.2321386
1.2346895
1.2385001
1.2423715
1.2439439
1.2388947
1.2249027
1.2048242
1.185474
1.1726946
1.1673041
1.1662287
1.1662491
1.166356
1.1663977
1.1664007
1.1663995
1.166399
1.166399
1.166399
1.166399
1.166399
1.166399
1.166399
1.166399
1.166399
1.166399
1.166399
1.166399
1.166399
1.166399
1.1816256
1.220776
1.2228461
1.2392728
1.2484894
1.2573764
1.2642098
1.2693651
1.2729612
1.2752169
1.276349
1.2765672
1.2760614
1.2749947
1.2735053
1.2717061
1.269689
1.2675269
1.2652781
1.2629881
1.2606926
1.2584194
1.25619
1.2540209
1.2519248
1.2499114
1.247988
1.24616
1.2444315
1.2428056
1.2412844
1.2398695
1.2385622
1.2373637
1.236275
1.2352968
1.234429
1.233671
1.2330223
1.2324862
1.2320717
1.2317927
1.2316559
1.2316419
1.2316915
1.2317265
1.2317274
1.2318542
1.23252
1.2342923
1.2375076
1.2416575
1.2446256
1.2437618
1.2341397
1.2163618
1.1954554
1.1786041
1.1693693
1.1664673
1.1661732
1.1662921
1.1663833
1.1664015
1.1664004
1.1663992
1.166399
1.166399
1.166399
1.166399
1.166399
1.166399
1.166399
1.166399
1.166399
1.166399
1.166399
1.166399
1.166399
1.166399
1.2165384
1.2522672
1.2573834
1.271314
1.2795499
1.2858054
1.2897751
1.2919662
1.2927093
1.2923367
1.2911221
1.2892898
1.2870188
1.2844481
1.2816855
1.2788128
1.2758922
1.2729702
1.2700818
1.2672529
1.2645026
1.2618449
1.2592899
1.2568446
1.254514
1.2523012
1.2502082
1.2482362
1.2463853
1.2446555
1.2430464
1.2415573
1.2401877
1.2389372
1.2378052
1.236791
1.2358927
1.2351083
1.2344375
1.2338853
1.2334639
1.2331864
1.2330503
1.2330165
1.2330073
1.2329524
1.2328931
1.2331034
1.2341008
1.236413
1.2401049
1.244161
1.2460855
1.241828
1.2283989
1.2082973
1.1880719
1.1740211
1.1676123
1.1661834
1.1661907
1.1663327
1.1663965
1.1664021
1.1663999
1.166399
1.166399
1.166399
1.166399
1.166399
1.166399
1.166399
1.166399
1.166399
1.166399
1.166399
1.166399
1.166399
1.166399
1.166399
1.2597238
1.2895139
1.295931
1.3048861
1.3093427
1.3114825
1.3116552
1.3104559
1.3082819
1.3054474
1.3021833
1.2986584
1.294995
1.2912806
1.2875779
1.2839308
1.2803702
1.2769176
1.2735874
1.270389
1.2673284
1.264409
1.2616323
1.2589988
1.2565076
1.2541577
1.2519473
1.2498747
1.2479377
1.2461343
1.2444625
1.2429204
1.2415064
1.2402193
1.2390577
1.2380196
1.2371021
1.2363024
1.2356211
1.2350654
1.2346492
1.2343828
1.2342522
1.2341993
1.2341348
1.2340096
1.2339358
1.2342857
1.2356388
1.2384234
1.2423716
1.2459085
1.2465216
1.2391224
1.2229621
1.2018588
1.1829619
1.1712715
1.1667777
1.1660996
1.1662185
1.1663607
1.1664019
1.1664019
1.1663995
1.1663989
1.166399
1.166399
1.166399
1.166399
1.166399
1.166399
1.166399
1.166399
1.166399
1.166399
1.166399
1.166399
1.166399
1.166399
1.3090568
1.3280276
1.3321216
1.3343077
1.333604
1.3312259
1.3277332
1.323574
1.3190429
1.3143377
1.3095903
1.3048867
1.300283
1.2958148
1.2915043
1.2873641
1.2834011
1.2796176
1.2760136
1.2725873
1.2693355
1.2662547
1.263341
1.2605901
1.2579979
1.2555606
1.2532741
1.2511349
1.2491394
1.2472846
1.2455674
1.2439854
1.2425367
1.2412195
1.2400321
1.2389716
1.2380343
1.2372175
1.2365224
1.2359585
1.2355402
1.2352739
1.2351352
1.2350522
1.2349311
1.2347453
1.2346653
1.2351282
1.2367448
1.2398481
1.2438476
1.2467916
1.246056
1.2366168
1.2189738
1.1977437
1.1800304
1.1698517
1.1664099
1.1660743
1.1662378
1.1663757
1.1664042
1.1664018
1.1663993
1.1663989
1.166399
1.166399
1.166399
1.166399
1.166399
1.166399
1.166399
1.166399
1.166399
1.166399
1.166399
1.166399
1.166399
1.166399
1.3574652
1.360552
1.359435
1.3553831
1.3500917
1.3441385
1.3379491
1.3317441
1.3256577
1.3197617
1.3140951
1.3086761
1.3035107
1.298598
1.2939326
1.289507
1.2853126
1.2813404
1.2775811
1.2740259
1.2706664
1.2674947
1.2645033
1.2616855
1.2590347
1.2565453
1.2542119
1.2520296
1.2499939
1.2481009
1.2463468
1.2447288
1.2432446
1.241892
1.2406688
1.2395715
1.2385955
1.2377377
1.2370004
1.2363944
1.2359349
1.2356261
1.2354372
1.2352872
1.235084
1.234811
1.2346739
1.2351604
1.2368766
1.2400932
1.2441587
1.2470266
1.2453568
1.2354555
1.2175615
1.1965133
1.1792372
1.1694663
1.1662804
1.16605
1.1662384
1.1663806
1.1664056
1.1664018
1.1663992
1.1663989
1.166399
1.166399
1.166399
1.166399
1.166399
1.166399
1.166399
1.166399
1.166399
1.166399
1.166399
1.166399
1.166399
1.166399
1.3887774
1.3818325
1.3749236
1.367381
1.3595618
1.3518476
1.3443902
1.3372574
1.330475
1.3240455
1.3179607
1.312207
1.3067683
1.3016281
1.29677
1.2921784
1.2878387
1.2837375
1.2798622
1.2762015
1.2727452
1.2694837
1.2664086
1.2635121
1.2607872
1.2582276
1.2558276
1.253582
1.2514862
1.2495359
1.2477275
1.2460581
1.2445254
1.2431274
1.2418618
1.2407246
1.2397111
1.2388179
1.2380483
1.2374153
1.2369363
1.236616
1.236422
1.2362711
1.2360605
1.2357674
1.2355858
1.2361077
1.2379625
1.2414107
1.2455949
1.2485335
1.2478995
1.2383945
1.2206134
1.1990335
1.1807656
1.1700557
1.1663346
1.1660057
1.1662128
1.1663745
1.1664067
1.1664024
1.1663993
1.1663989
1.166399
1.166399
1.166399
1.166399
1.166399
1.166399
1.166399
1.166399
1.166399
1.166399
1.166399
1.166399
1.166399
1.166399
1.2260554
1.2134799
1.2095398
1.2087854
1.2081992
1.2074622
1.2064297
1.2053118
1.2041122
1.2028887
1.2016501
1.2004
1.1991401
1.1978737
1.1966066
1.1953388
1.1940783
1.192825
1.1915808
1.1903474
1.1891269
1.1879207
1.1867298
1.185555
1.184397
1.1832565
1.1821334
1.1810276
1.1799393
1.1788679
1.1778132
1.1767743
1.1757502
1.1747396
1.1737408
1.1727518
1.1717703
1.1707937
1.1698195
1.1688459
1.1678723
1.1669004
1.1659344
1.164981
1.1640494
1.1631504
1.1622951
1.1614942
1.1607571
1.1600927
1.1595086
1.1590093
1.158588
1.1582051
1.1577459
1.1569678
1.155505
1.1530425
1.1497057
1.1463435
1.1442867
1.1446259
1.1476374
1.1526702
1.1582878
1.1629596
1.1658428
1.1670347
1.1671825
1.1669382
1.1666764
1.1665138
1.1664385
1.1664106
1.1664019
1.1663996
1.1663991
1.166399
1.166399
1.166399
1.2055504
1.1984364
1.1965516
1.1963889
1.1959521
1.1955396
1.1949869
1.1944602
1.1938548
1.1932322
1.1925563
1.1918491
1.1911076
1.1903358
1.1895371
1.1887144
1.1878697
1.1870056
1.1861251
1.1852301
1.1843233
1.1834069
1.1824825
1.1815519
1.1806171
1.1796793
1.1787402
1.1778007
1.1768621
1.175925
1.1749902
1.1740577
1.1731276
1.1721995
1.1712728
1.1703469
1.1694212
1.1684952
1.1675688
1.1666434
1.1657217
1.1648087
1.1639112
1.1630378
1.1621982
1.1614023
1.1606596
1.1599779
1.1593628
1.158817
1.158337
1.1579073
1.1574861
1.1569813
1.1562178
1.1549298
1.1528411
1.1499005
1.146572
1.1438422
1.1427952
1.1441665
1.1480375
1.153783
1.1599603
1.1648926
1.167622
1.1683518
1.1679763
1.1673326
1.1668399
1.1665709
1.1664554
1.1664148
1.1664028
1.1663998
1.1663991
1.166399
1.166399
1.166399
1.1830395
1.1867783
1.1854996
1.1854414
1.1852429
1.1851806
1.184958
1.1847866
1.1845242
1.1842576
1.1839379
1.1835901
1.1832043
1.1827835
1.1823288
1.1818407
1.1813212
1.1807715
1.1801933
1.179588
1.1789577
1.1783038
1.1776281
1.1769319
1.1762173
1.1754857
1.174739
1.1739786
1.1732061
1.1724227
1.1716294
1.1708272
1.170017
1.1691994
1.1683751
1.1675452
1.1667109
1.1658739
1.1650369
1.1642039
1.1633801
1.1625723
1.1617883
1.1610365
1.1603252
1.1596616
1.1590512
1.1584964
1.1579953
1.1575386
1.1571049
1.156651
1.1560979
1.1553123
1.1540999
1.1522479
1.1496587
1.1465644
1.1436456
1.1418379
1.1418843
1.144138
1.148676
1.154969
1.1616175
1.1667909
1.169378
1.1696579
1.1687635
1.1677214
1.1669991
1.1666256
1.1664714
1.1664187
1.1664036
1.1663999
1.1663992
1.166399
1.166399
1.166399
1.1628015
1.1780259
1.1773348
1.1773204
1.1771206
1.1771282
1.1769843
1.1769289
1.1767873
1.1766647
1.176497
1.1763169
1.1761089
1.1758753
1.1756148
1.1753268
1.1750114
1.1746684
1.1742981
1.1739005
1.173476
1.1730251
1.1725485
1.1720468
1.1715212
1.1709726
1.1704024
1.1698117
1.1692018
1.1685739
1.1679293
1.1672693
1.1665953
1.1659089
1.165212
1.1645068
1.1637962
1.1630836
1.1623733
1.1616706
1.1609816
1.1603129
1.159671
1.1590622
1.1584913
1.1579605
1.1574691
1.1570109
1.1565724
1.1561287
1.155637
1.1550284
1.1541988
1.1530061
1.1512963
1.14898
1.1461723
1.1433295
1.1412018
1.1404676
1.1415163
1.144497
1.149511
1.1562097
1.1632554
1.1686503
1.1711012
1.1709407
1.1695338
1.1680987
1.1671519
1.1666774
1.1664861
1.1664223
1.1664044
1.1664001
1.1663992
1.166399
1.166399
1.166399
1.1445402
1.1700847
1.1702457
1.1702946
1.1700445
1.1700981
1.170007
1.1700296
1.169963
1.1699313
1.1698582
1.1697768
1.1696739
1.1695545
1.1694154
1.1692559
1.169075
1.1688719
1.168646
1.1683965
1.1681232
1.1678256
1.1675039
1.1671582
1.1667886
1.1663958
1.1659805
1.1655433
1.1650852
1.1646071
1.1641104
1.1635967
1.1630675
1.1625251
1.1619719
1.1614109
1.1608453
1.1602793
1.1597171
1.1591637
1.1586239
1.1581022
1.157602
1.1571254
1.1566719
1.1562372
1.1558122
1.1553803
1.1549154
1.154377
1.153706
1.1528206
1.1516186
1.1499927
1.1478829
1.1453546
1.1427161
1.1405269
1.139397
1.1397477
1.1416477
1.1451607
1.1504866
1.1574859
1.1648745
1.1704729
1.1727879
1.1721928
1.1702808
1.1684611
1.1672969
1.1667258
1.1664997
1.1664255
1.166405
1.1664002
1.1663992
1.166399
1.166399
1.166399
1.1293269
1.163598
1.1642403
1.1642672
1.163961
1.1640337
1.1639467
1.164007
1.1639588
1.1639734
1.1639431
1.163923
1.1638848
1.1638374
1.1637758
1.1637001
1.1636091
1.1635017
1.163377
1.1632341
1.1630722
1.1628909
1.1626898
1.1624686
1.162227
1.1619651
1.1616831
1.1613815
1.1610606
1.1607216
1.1603654
1.1599934
1.1596074
1.1592093
1.1588015
1.1583867
1.1579675
1.1575472
1.1571287
1.1567148
1.1563076
1.1559078
1.1555146
1.1551245
1.1547309
1.1543223
1.1538809
1.153381
1.1527865
1.1520484
1.1511047
1.1498834
1.1483165
1.1463714
1.1441038
1.1417277
1.1396491
1.1383747
1.1383182
1.1396187
1.1421873
1.1460503
1.1515663
1.1587926
1.1664805
1.1722607
1.1744326
1.1734058
1.1709979
1.1688048
1.1674326
1.1667705
1.166512
1.1664284
1.1664056
1.1664003
1.1663992
1.166399
1.166399
1.166399
1.1171718
1.1584983
1.1592157
1.1590924
1.1586663
1.1587403
1.1586368
1.1587143
1.1586779
1.1587177
1.1587105
1.1587249
1.1587231
1.1587201
1.1587083
1.1586885
1.1586589
1.1586185
1.1585663
1.1585014
1.158423
1.1583303
1.1582229
1.1581
1.1579611
1.1578061
1.1576348
1.1574474
1.1572441
1.1570254
1.156792
1.1565449
1.1562851
1.1560139
1.1557327
1.1554431
1.1551463
1.1548435
1.1545351
1.154221
1.1538995
1.1535673
1.1532186
1.1528447
1.1524332
1.1519666
1.1514214
1.1507672
1.1499659
1.1489731
1.147742
1.146235
1.1444441
1.1424263
1.1403398
1.1384849
1.1372509
1.1369913
1.1379266
1.1399969
1.143032
1.1471019
1.1527258
1.1601291
1.1680793
1.1740147
1.1760302
1.1745723
1.1716792
1.1691269
1.1675576
1.1668108
1.1665229
1.1664309
1.1664061
1.1664004
1.1663992
1.166399
1.166399
1.166399
1.106896
1.1545441
1.155045
1.1546673
1.1540737
1.1541323
1.1539862
1.1540664
1.1540128
1.1540639
1.1540613
1.1540943
1.154112
1.1541358
1.1541543
1.15417
1.1541804
1.154185
1.1541824
1.1541721
1.1541529
1.1541241
1.154085
1.1540345
1.1539722
1.1538975
1.1538102
1.1537098
1.1535962
1.1534691
1.1533288
1.1531753
1.1530086
1.1528288