/*--------------------------------*- C++ -*----------------------------------*\
  =========                 |
  \\      /  F ield         | OpenFOAM: The Open Source CFD Toolbox
   \\    /   O peration     | Website:  https://openfoam.org
    \\  /    A nd           | Version:  12
     \\/     M anipulation  |
\*---------------------------------------------------------------------------*/
FoamFile
{
    format      ascii;
    class       volScalarField;
    location    "0.003";
    object      T;
}
// * * * * * * * * * * * * * * * * * * * * * * * * * * * * * * * * * * * * * //

dimensions      [0 0 0 1 0 0 0];

internalField   nonuniform List<scalar> 
16000
(
294.38043
287.55502
290.46318
288.99611
290.00193
289.55299
289.96318
289.854
290.03917
290.05851
290.17592
290.25305
290.35481
290.45594
290.56526
290.6793
290.79842
290.922
291.04978
291.18149
291.3171
291.45675
291.60079
291.74949
291.90297
292.06097
292.22312
292.389
292.55846
292.73159
292.90853
293.08921
293.27322
293.46016
293.64979
293.84201
294.03674
294.23379
294.43295
294.63407
294.83697
295.04147
295.24741
295.4548
295.66386
295.87482
296.08781
296.30317
296.52143
296.743
296.96857
297.1993
297.43649
297.68166
297.93682
298.20402
298.48448
298.77848
299.09045
299.4435
299.89507
300.51526
301.26799
301.8963
301.91569
301.13463
299.96204
298.96661
298.38078
298.12182
298.03223
298.00713
298.00133
298.00021
298.00003
298
298
298
298
298
294.50489
287.50242
290.53638
288.97934
290.0571
289.575
290.02052
289.90706
290.10855
290.13498
290.255
290.33971
290.44636
290.55414
290.66982
290.79117
290.91809
291.04996
291.18636
291.32688
291.47142
291.62008
291.77315
291.93092
292.09345
292.26052
292.43177
292.6068
292.7854
292.96752
293.15316
293.34215
293.53415
293.72871
293.92553
294.12446
294.3254
294.52813
294.73236
294.93787
295.14451
295.35209
295.56043
295.76951
295.97956
296.19083
296.40351
296.61799
296.8349
297.05468
297.27795
297.50587
297.73978
297.98129
298.23227
298.49431
298.76817
299.0546
299.36003
299.71268
300.17437
300.80941
301.56102
302.14308
302.04135
301.12985
299.88778
298.89281
298.33553
298.10204
298.02562
298.00538
298.00095
298.00014
298.00002
298
298
298
298
298
294.62251
287.46442
290.61266
288.98189
290.11412
289.62181
290.08398
289.98007
290.18233
290.22262
290.35106
290.44508
290.55772
290.673
290.79596
290.92527
291.0607
291.20162
291.34748
291.49775
291.65224
291.81093
291.97407
292.14187
292.31437
292.49132
292.67234
292.85707
293.04531
293.23691
293.43172
293.62943
293.82962
294.03186
294.23581
294.44128
294.64811
294.85608
295.06484
295.27408
295.48363
295.69337
295.90314
296.11293
296.32294
296.53346
296.74467
296.95707
297.1714
297.3882
297.60807
297.83216
298.06184
298.2989
298.54519
298.80195
299.06963
299.34956
299.65048
300.00519
300.4788
301.12682
301.86525
302.37025
302.1136
301.06204
299.76933
298.79946
298.28606
298.08284
298.01979
298.00395
298.00066
298.00009
298.00001
298
298
298
298
298
294.73564
287.43974
290.69615
289.00006
290.18092
289.68569
290.16157
290.061
290.27723
290.33083
290.46535
290.57013
290.69024
290.81423
290.94566
291.08392
291.22878
291.37963
291.53587
291.69687
291.86231
292.03205
292.20623
292.38497
292.56824
292.75577
292.94717
293.14208
293.34026
293.54153
293.74559
293.95202
294.16029
294.36993
294.58056
294.79196
295.00395
295.21628
295.42855
295.64041
295.85166
296.06223
296.27206
296.48119
296.68984
296.89826
297.10672
297.31576
297.52624
297.73881
297.95418
298.17347
298.39809
298.62991
298.87084
299.12199
299.38378
299.6583
299.95747
300.31912
300.81019
301.47029
302.18022
302.56824
302.12154
300.92517
299.60724
298.6891
298.23355
298.0641
298.01451
298.00274
298.00043
298.00006
298.00001
298
298
298
298
298
294.84634
287.43257
290.78873
289.03746
290.26571
289.7581
290.26174
290.18551
290.39388
290.46527
290.60068
290.7178
290.84713
290.98128
291.12262
291.27108
291.42651
291.58837
291.75605
291.92887
292.10636
292.28827
292.47456
292.66522
292.86015
293.05902
293.26142
293.46698
293.67542
293.88646
294.09973
294.31467
294.53068
294.7472
294.96383
295.1803
295.39642
295.61191
295.82639
296.03945
296.25091
296.46073
296.669
296.87585
297.08152
297.28632
297.49057
297.69487
297.90016
298.10723
298.31691
298.53044
298.74925
298.9753
299.21047
299.45565
299.71122
299.98022
300.27888
300.6513
301.16489
301.83356
302.49637
302.71942
302.05278
300.72036
299.41007
298.56902
298.18133
298.04685
298.00997
298.00177
298.00026
298.00003
298
298
298
298
298
298
294.95544
287.4462
290.89303
289.10307
290.37088
289.87852
290.38148
290.30878
290.52774
290.6164
290.76134
290.8919
291.03215
291.17789
291.33068
291.49074
291.65807
291.83218
292.0125
292.1983
292.38902
292.58421
292.78368
292.98724
293.19467
293.40557
293.6195
293.83605
294.05485
294.27555
294.49768
294.72061
294.94363
295.16612
295.38765
295.60793
295.82674
296.0438
296.25875
296.47121
296.68104
296.88829
297.09315
297.29586
297.49674
297.6962
297.89464
298.09276
298.29151
298.49185
298.69475
298.90158
299.11393
299.33377
299.56286
299.80169
300.05056
300.31424
300.61462
301.00261
301.54261
302.21136
302.80063
302.8047
301.89179
300.4491
299.18718
298.44665
298.13297
298.03206
298.00637
298.00105
298.00014
298.00002
298
298
298
298
298
298
295.06509
287.48226
291.00944
289.21203
290.49671
290.00906
290.51466
290.46385
290.68766
290.79654
290.95054
291.09594
291.24909
291.40815
291.57418
291.74756
291.92837
292.11621
292.31054
292.51061
292.71574
292.92535
293.13903
293.35639
293.57706
293.80056
294.02636
294.25397
294.48296
294.71287
294.94315
295.17308
295.40193
295.62902
295.85387
296.0762
296.29578
296.51237
296.72564
296.93531
297.14134
297.34389
297.54324
297.73976
297.93388
298.12613
298.31708
298.50748
298.69836
298.89077
299.08588
299.28517
299.49042
299.70352
299.92589
300.15734
300.39841
300.65735
300.96376
301.37469
301.94316
302.59485
303.06357
302.79286
301.62838
300.12035
298.95186
298.33063
298.09108
298.02032
298.00373
298.00056
298.00007
298.00001
298
298
298
298
298
298
295.17701
287.54274
291.13762
289.3573
290.64464
290.17002
290.66369
290.65
290.87617
291.00688
291.17281
291.3346
291.50287
291.67722
291.8585
292.0471
292.24317
292.44638
292.65621
292.87188
293.09263
293.31772
293.54651
293.77842
294.01287
294.24925
294.48692
294.7253
294.96385
295.20203
295.4392
295.67462
295.90752
296.13721
296.36323
296.58529
296.8032
297.01676
297.22576
297.43008
297.6298
297.82524
298.01679
298.2049
298.39018
298.57333
298.75507
298.93623
299.11788
299.30124
299.48763
299.6787
299.87629
300.08203
300.2966
300.51919
300.75157
301.00809
301.32811
301.7718
302.36496
302.973
303.24623
302.6522
301.25923
299.75118
298.72003
298.22862
298.0577
298.01179
298.00197
298.00027
298.00003
298
298
298
298
298
298
298
295.29256
287.6317
291.28184
289.51985
290.81463
290.36187
290.84558
290.86936
291.09956
291.25364
291.43395
291.61379
291.79943
291.99121
292.18986
292.39574
292.60901
292.82935
293.05626
293.2889
293.52643
293.76791
294.01252
294.25941
294.50781
294.75691
295.00596
295.25424
295.50111
295.74595
295.98808
296.22675
296.46122
296.69084
296.91518
297.13401
297.34722
297.55471
297.75643
297.95247
298.1431
298.3288
298.51007
298.6875
298.86186
299.03403
299.20492
299.3754
299.5466
299.71988
299.89676
300.07902
300.2684
300.4659
300.6712
300.8834
301.1077
301.3676
301.71223
302.19726
302.79784
303.32409
303.31394
302.3618
300.79635
299.36667
298.50817
298.14635
298.03341
298.00616
298.00092
298.00011
298.00001
298
298
298
298
298
298
298
295.41643
287.75366
291.45
289.71493
291.00433
290.59108
291.06777
291.12728
291.36346
291.54211
291.73985
291.93972
292.1452
292.35681
292.57521
292.80064
293.03322
293.27259
293.51818
293.76912
294.02441
294.28297
294.5437
294.80555
295.06748
295.3285
295.58768
295.8442
296.09732
296.34635
296.59064
296.82947
297.06219
297.28826
297.50735
297.71935
297.92426
298.12216
298.31325
298.49783
298.67641
298.8496
299.01808
299.1826
299.34407
299.50356
299.66211
299.82069
299.98041
300.1428
300.3096
300.48258
300.66309
300.85115
301.04557
301.24693
301.4669
301.74078
302.1234
302.65168
303.2261
303.58219
303.20009
301.91365
300.26915
298.99635
298.33069
298.08521
298.01736
298.00283
298.00037
298.00004
298
298
298
298
298
298
298
298
295.55278
287.91264
291.6474
289.93932
291.21801
290.86078
291.32857
291.42804
291.67363
291.87836
292.09704
292.31951
292.54767
292.78189
293.02267
293.27012
293.52421
293.78451
294.05032
294.32067
294.59438
294.87019
295.14675
295.42277
295.69695
295.96812
296.23518
296.49721
296.75342
297.00312
297.24573
297.48065
297.70739
297.9256
298.13514
298.33608
298.52863
298.71312
298.88998
299.05981
299.22333
299.38133
299.53465
299.68422
299.83109
299.97646
300.12148
300.26719
300.41475
300.5658
300.72223
300.88557
301.0564
301.23361
301.41598
301.60856
301.833
302.13596
302.56769
303.11754
303.62299
303.70924
302.88712
301.3247
299.72199
298.66886
298.19627
298.04439
298.00788
298.00109
298.00011
298.00001
298
298
298
298
298
298
298
298
295.70235
288.11147
291.87651
290.21333
291.46066
291.17541
291.63563
291.77767
292.03745
292.27024
292.51377
292.76199
293.016
293.27585
293.54183
293.81383
294.09162
294.37457
294.66182
294.9522
295.24435
295.53677
295.82788
296.11616
296.40009
296.67832
296.94965
297.2131
297.46791
297.71351
297.94942
298.17531
298.39093
298.59621
298.7913
298.97653
299.15239
299.31949
299.47856
299.63047
299.77616
299.91657
300.05271
300.18567
300.31663
300.44684
300.57752
300.70979
300.8449
300.9846
301.13068
301.28403
301.44419
301.60941
301.78025
301.96995
302.21283
302.55925
303.04248
303.57328
303.90682
303.58681
302.35876
300.64306
299.2054
298.40701
298.10366
298.0201
298.00296
298.00031
298.00002
298
298
298
298
298
298
298
298
298
295.86736
288.35589
292.14256
290.53278
291.75661
291.54193
291.99722
292.18443
292.46416
292.72766
293.00019
293.2778
293.56111
293.84983
294.1439
294.44291
294.74629
295.05316
295.36236
295.6725
295.98197
296.28906
296.59198
296.889
297.17847
297.45896
297.72925
297.98842
298.23586
298.4712
298.69425
298.90502
299.10361
299.29036
299.46577
299.63053
299.78543
299.93139
300.06942
300.20065
300.3262
300.44717
300.56469
300.67995
300.79421
300.90873
301.02474
301.14348
301.26636
301.3951
301.53101
301.67391
301.8223
301.97507
302.13837
302.33658
302.61619
303.01992
303.52761
303.97934
304.03304
303.22041
301.64437
299.94053
298.76441
298.22142
298.04743
298.0075
298.00081
298.00003
297.99999
298
298
298
298
298
298
298
298
298
296.05172
288.65535
292.45066
290.9085
292.10804
291.96894
292.42361
292.65839
292.96466
293.26245
293.56853
293.87968
294.1961
294.51703
294.84193
295.16996
295.5001
295.83112
296.1615
296.48957
296.81349
297.13136
297.44124
297.74134
298.02999
298.30584
298.5678
298.81523
299.04779
299.2655
299.46858
299.65749
299.83282
299.99534
300.146
300.28585
300.416
300.53766
300.65209
300.7606
300.86447
300.9649
301.06306
301.16021
301.2576
301.35647
301.45807
301.56379
301.67515
301.79357
301.91939
302.05106
302.18683
302.32905
302.49428
302.71969
303.05121
303.50292
303.98633
304.25488
303.85106
302.58796
300.81833
299.29476
298.43046
298.10387
298.01779
298.00196
298.00005
297.99997
297.99999
298
298
298
298
298
298
298
298
298
296.26001
289.02184
292.80261
291.34879
292.52089
292.46601
292.92659
293.21203
293.55241
293.8894
294.23419
294.58347
294.93683
295.29296
295.65066
296.00857
296.36512
296.71864
297.06725
297.40903
297.74191
298.06395
298.37322
298.66805
298.94699
299.20901
299.45342
299.68004
299.88904
300.08097
300.25659
300.41689
300.56299
300.69614
300.81769
300.92904
301.0316
301.12678
301.21603
301.30078
301.38235
301.46199
301.54086
301.62018
301.70118
301.78506
301.87314
301.96693
302.06783
302.17649
302.29182
302.41139
302.53551
302.67469
302.85677
303.12591
303.51696
303.9867
304.34985
304.28245
303.38061
301.74125
299.98584
298.76764
298.21126
298.03997
298.00463
298.00004
297.99988
297.99997
298
298
298
298
298
298
298
298
298
298
296.49567
289.47115
293.1936
291.86376
293.00844
293.04648
293.52218
293.86292
294.24578
294.62792
295.01669
295.40837
295.80169
296.19467
296.58536
296.97178
297.35175
297.72317
298.08383
298.43163
298.76451
299.08066
299.37848
299.65674
299.91455
300.15153
300.36769
300.56352
300.73989
300.89797
301.03913
301.1649
301.27686
301.37671
301.46611
301.54672
301.62015
301.68795
301.75162
301.81263
301.87229
301.93177
301.99217
302.05463
302.12032
302.1905
302.26652
302.34984
302.44134
302.54034
302.6445
302.75234
302.86956
303.01757
303.23605
303.5651
303.99741
304.4198
304.57487
303.99524
302.6128
300.78913
299.25134
298.39516
298.08505
298.01085
298.00004
297.99963
297.99991
297.99999
298
298
298
298
298
298
298
298
298
298
296.76326
290.02832
293.64953
292.47044
293.58946
293.73119
294.23329
294.63495
295.06849
295.50157
295.9387
296.37557
296.80986
297.2388
297.65956
298.0695
298.46586
298.84623
299.20822
299.54988
299.86952
300.16591
300.43819
300.68604
300.90953
301.10922
301.28608
301.44145
301.57692
301.69431
301.79552
301.88252
301.95725
302.02166
302.07761
302.12689
302.17116
302.212
302.25092
302.28929
302.32833
302.36906
302.41246
302.45958
302.51162
302.56989
302.63571
302.71009
302.79279
302.8817
302.97432
303.07313
303.19361
303.36913
303.64208
304.0285
304.45695
304.72392
304.44795
303.37423
301.63551
299.87108
298.68617
298.17088
298.02507
298.00035
297.99904
297.99975
297.99997
298
298
298
298
298
298
298
298
298
298
298
297.07475
290.71944
294.18805
293.1969
294.29155
294.54763
295.08851
295.55655
296.04772
296.53627
297.02415
297.50627
297.97903
298.43873
298.88163
299.30453
299.70437
300.07877
300.42576
300.7441
301.03306
301.2926
301.52313
301.72563
301.90145
302.05231
302.18017
302.28719
302.37564
302.44782
302.50598
302.55233
302.58896
302.61789
302.64099
302.66001
302.67656
302.69216
302.70819
302.72592
302.74635
302.77035
302.79873
302.83252
302.873
302.92151
302.97905
303.0456
303.11939
303.19756
303.2801
303.37749
303.51735
303.74044
304.07526
304.4861
304.81409
304.78593
304.00716
302.4611
300.59596
299.10539
298.32016
298.05606
298.00208
297.99784
297.99932
297.99991
298
298
298
298
298
298
298
298
298
298
298
298
297.45299
291.50615
294.83503
294.07472
295.14753
295.52604
296.11945
296.65926
297.21327
297.75941
298.29673
298.81916
299.32165
299.79966
300.24895
300.6663
301.04911
301.39594
301.70608
301.97984
302.21815
302.42267
302.59548
302.73905
302.85602
302.94921
303.02141
303.07542
303.11388
303.13935
303.15418
303.16056
303.16051
303.15592
303.1485
303.13982
303.13134
303.12441
303.12025
303.11992
303.12426
303.13392
303.14964
303.17245
303.20371
303.24464
303.29543
303.35451
303.41879
303.4866
303.56421
303.67339
303.85188
304.13538
304.51527
304.89064
305.03876
304.5171
303.22494
301.38563
299.65473
298.55972
298.11887
298.0084
297.99594
297.99837
297.99973
298
298.00001
298
298
298
298
298
298
298
298
298
298
298
297.93144
292.42583
295.64578
295.13507
296.19614
296.70347
297.36398
297.98024
298.59835
299.1982
299.77569
300.32378
300.83658
301.30955
301.73908
302.12326
302.46127
302.75374
303.00221
303.20921
303.37779
303.51149
303.61399
303.68906
303.74038
303.77147
303.78561
303.78584
303.7749
303.75527
303.72915
303.69851
303.66512
303.63055
303.59624
303.5635
303.53354
303.50746
303.48628
303.47084
303.4618
303.45972
303.4653
303.47966
303.50408
303.53923
303.584
303.63518
303.68963
303.75003
303.83257
303.97074
304.20464
304.54625
304.92834
305.18006
304.916
303.90783
302.19991
300.32258
298.92054
298.23662
298.02716
297.9942
297.99649
297.99924
297.99997
298.00002
298
298
298
298
298
298
298
298
298
298
298
298
298.55577
293.57095
296.64768
296.42477
297.49129
298.13186
298.86944
299.56037
300.23313
300.86947
301.46292
302.00674
302.49599
302.9281
303.30202
303.61885
303.88086
304.09169
304.25562
304.37755
304.46244
304.51535
304.54105
304.54408
304.52855
304.4982
304.45632
304.40581
304.34921
304.28866
304.22605
304.16296
304.10078
304.04074
303.98393
303.93132
303.88383
303.84228
303.80742
303.77989
303.76023
303.74901
303.74703
303.7554
303.77502
303.80546
303.84393
303.88636
303.93211
303.99198
304.09441
304.28006
304.57574
304.95051
305.25635
305.22866
304.50084
303.00625
301.09373
299.42463
298.43799
298.07311
297.99549
297.99317
297.99809
297.99984
298.00004
298.00001
298
298
298
298
298
298
298
298
298
298
298
298
299.37482
295.00951
297.91935
298.0153
299.10455
299.87337
300.68172
301.42734
302.12444
302.75833
303.3233
303.81576
304.23463
304.58175
304.86052
305.0762
305.23472
305.34274
305.40687
305.4337
305.42935
305.3995
305.34925
305.28313
305.20508
305.11853
305.0264
304.93115
304.83487
304.73927
304.64579
304.55562
304.46974
304.38902
304.31419
304.24593
304.18482
304.13139
304.08611
304.04942
304.0218
304.00396
303.99683
304.00135
304.01753
304.04331
304.07448
304.10795
304.14903
304.21951
304.35801
304.60258
304.94925
305.29741
305.46438
304.99734
303.77957
301.94819
300.08164
298.76888
298.1724
298.00673
297.98848
297.99566
297.99937
298.00006
298.00003
298
298
298
298
298
298
298
298
298
298
298
298
298
300.37769
296.85095
299.55706
299.9852
301.10155
301.97422
302.81572
303.56485
304.22749
304.7962
305.27081
305.65439
305.95236
306.17243
306.323
306.41323
306.45194
306.44766
306.40812
306.34035
306.25048
306.14387
306.02509
305.89806
305.76604
305.63178
305.49758
305.36531
305.23652
305.11244
304.99409
304.88226
304.77761
304.68068
304.59194
304.51176
304.44048
304.37832
304.32549
304.28226
304.24915
304.22701
304.21684
304.21904
304.23225
304.25264
304.2756
304.30162
304.34516
304.43994
304.62956
304.9305
305.29331
305.56577
305.38569
304.49363
302.85697
300.90062
299.27786
298.36462
298.04546
297.9862
297.99139
297.99802
297.99997
298.00009
298.00002
298
298
298
298
298
298
298
298
298
298
298
298
298
301.73457
299.20502
301.65755
302.39325
303.49327
304.41905
305.21606
305.88319
306.42864
306.85631
307.17537
307.39739
307.53471
307.60015
307.60567
307.56246
307.4803
307.36783
307.23232
307.07996
306.91589
306.74439
306.56895
306.39248
306.21732
306.04542
305.87833
305.71732
305.5634
305.41737
305.27987
305.1514
305.03233
304.923
304.82366
304.7345
304.65565
304.58711
304.52889
304.48121
304.44464
304.42014
304.40851
304.40919
304.41911
304.4331
304.44796
304.47064
304.52683
304.65851
304.90351
305.25337
305.58052
305.67613
305.11106
303.77896
301.87873
300.00598
298.7186
298.14753
297.99563
297.98479
297.99484
297.99943
298.00016
298.00006
298.00001
298
298
298
298
298
298
298
298
298
298
298
298
298
303.4974
302.14545
304.23799
305.23107
306.30308
307.08848
307.73252
308.21604
308.55912
308.77889
308.89425
308.9237
308.88389
308.78972
308.65371
308.48647
308.29659
308.09113
307.87569
307.65481
307.43206
307.2103
306.99177
306.77828
306.57124
306.37178
306.18079
305.99898
305.82689
305.66495
305.5135
305.37279
305.24301
305.12435
305.01694
304.92085
304.83609
304.76255
304.70019
304.64925
304.61045
304.58476
304.57245
304.57164
304.57756
304.58467
304.59337
304.61897
304.69732
304.87614
305.16846
305.52391
305.79889
305.58255
304.65204
302.97723
300.9861
299.32733
298.37955
298.04298
297.98023
297.98856
297.99746
298.00006
298.00015
298.00003
298
298
298
298
298
298
298
298
298
298
298
298
298
298
305.68942
305.6956
307.51261
308.39492
309.21069
309.76977
310.14588
310.3581
310.43915
310.41625
310.31346
310.151
309.94509
309.70876
309.45208
309.18296
308.90737
308.62993
308.35411
308.08255
307.81724
307.55966
307.31093
307.07188
306.84313
306.62512
306.4182
306.22261
306.03851
305.86604
305.70527
305.55626
305.41906
305.29375
305.18037
305.07894
304.98938
304.91159
304.84559
304.79177
304.75104
304.72424
304.71091
304.70776
304.70877
304.70924
304.71511
304.75151
304.85938
305.08253
305.42038
305.74186
305.89057
305.38024
304.10708
302.21832
300.27479
298.8658
298.19289
297.99742
297.97901
297.99216
297.99898
298.00026
298.00011
298.00001
298
298
298
298
298
298
298
298
298
298
298
298
298
298
308.45048
309.69679
310.90957
311.54816
311.98806
312.1857
312.21637
312.11838
311.92849
311.67451
311.37755
311.05354
310.71405
310.36761
310.02035
309.67668
309.33974
309.01174
308.6942
308.38819
308.09438
307.81319
307.54489
307.28957
307.04727
306.81794
306.60152
306.39788
306.20692
306.02852
305.86255
305.70892
305.56756
305.43841
305.32146
305.21664
305.12382
305.04291
304.97402
304.91773
304.87505
304.84659
304.83111
304.82411
304.81912
304.81336
304.81813
304.86866
305.0099
305.26336
305.61973
305.92066
305.85363
305.11406
303.59486
301.60777
299.77496
298.58809
298.09628
297.97804
297.98133
297.99471
297.99977
298.0003
298.00008
298
298
298
298
298
298
298
298
298
298
298
298
298
298
298
312.0124
313.65741
314.15466
314.32761
314.28339
314.07728
313.7664
313.38964
312.97436
312.53955
312.09787
311.65798
311.22553
310.80425
310.39652
310.00381
309.62694
309.26635
308.92215
308.59429
308.28256
307.98671
307.70642
307.44134
307.19113
306.95544
306.73391
306.52624
306.3321
306.15122
305.98332
305.82818
305.68564
305.55554
305.43777
305.33216
305.23851
305.15667
305.0868
305.02954
304.98583
304.95592
304.93784
304.9264
304.91499
304.90312
304.90546
304.96313
305.12701
305.39832
305.72857
306.00976
305.78593
304.87425
303.22166
301.21594
299.48496
298.44381
298.05161
297.97049
297.98279
297.99604
298.00018
298.0003
298.00006
298
298
298
298
298
298
298
298
298
298
298
298
298
298
298
316.56889
316.90984
316.6663
316.33217
315.8591
315.32364
314.75835
314.18678
313.62178
313.07127
312.53952
312.02888
311.54036
311.07426
310.63039
310.20831
309.80742
309.42703
309.06644
308.72495
308.40187
308.09654
307.80834
307.53669
307.28103
307.04086
306.81571
306.60513
306.40873
306.22613
306.05701
305.90108
305.7581
305.62789
305.51024
305.40492
305.31164
305.23022
305.16078
305.10394
305.06049
305.03033
305.01085
304.99714
304.98139
304.96576
304.96802
305.02927
305.19747
305.48204
305.81604
306.01187
305.75341
304.78571
303.10222
301.10431
299.40848
298.40717
298.03856
297.96619
297.98257
297.99637
298.00035
298.00031
298.00006
297.99999
298
298
298
298
298
298
298
298
298
298
298
298
298
298
318.40817
318.56299
318.04092
317.34572
316.63703
315.92936
315.2414
314.58014
313.94869
313.34793
312.77753
312.23659
311.72393
311.23822
310.77816
310.34246
309.92991
309.53937
309.1698
308.82022
308.48977
308.17763
307.88306
307.6054
307.34403
307.0984
306.86799
306.65235
306.45106
306.26374
306.09007
305.92979
305.78267
305.64856
305.52726
305.41854
305.32214
305.2379
305.16599
305.10713
305.06239
305.03209
305.01366
304.99997
304.98352
304.96902
304.97402
305.03633
305.22536
305.53066
305.87543
306.16526
305.94149
305.02768
303.36645
301.33528
299.55952
298.47142
298.05064
297.96378
297.98004
297.99555
298.00032
298.00038
298.00007
297.99999
298
298
298
298
298
298
298
298
298
298
298
298
298
298
299.39567
302.30882
303.00212
302.87267
302.64407
302.43485
302.25389
302.0856
301.92362
301.77024
301.62081
301.4751
301.33274
301.19368
301.05732
300.92394
300.79222
300.66252
300.53482
300.40912
300.28533
300.16336
300.04326
299.92502
299.80858
299.69388
299.58092
299.46972
299.3602
299.25235
299.14611
299.04138
298.93808
298.8361
298.73524
298.63527
298.53596
298.43707
298.33836
298.23969
298.14104
298.04259
297.94477
297.84828
297.75408
297.66323
297.57676
297.49569
297.42089
297.35301
297.2926
297.23981
297.19372
297.15018
297.0977
297.01221
296.85764
296.60323
296.26402
295.93048
295.74022
295.80153
296.12956
296.6432
297.19212
297.63568
297.90821
298.02695
298.05131
298.03814
298.02016
298.00844
298.00293
298.00086
298.00021
298.00005
298.00001
298
298
298
299.00285
300.73828
301.11923
301.07047
301.03497
300.99469
300.95103
300.89549
300.8327
300.76432
300.69182
300.61564
300.5362
300.45374
300.36869
300.28133
300.19213
300.10133
300.00916
299.9159
299.82172
299.72681
299.63139
299.53561
299.43958
299.34342
299.24725
299.15119
299.05532
298.95971
298.86441
298.76943
298.67476
298.58038
298.48621
298.39215
298.2981
298.20402
298.10994
298.01599
297.92246
297.82983
297.73878
297.65016
297.56493
297.48404
297.40835
297.33857
297.27518
297.21828
297.16737
297.12068
297.07391
297.01767
296.93445
296.79764
296.58042
296.27944
295.94383
295.67665
295.59277
295.75765
296.17722
296.76754
297.37409
297.83933
298.08934
298.1567
298.12722
298.07486
298.03504
298.01353
298.00441
298.00122
298.00029
298.00006
298.00001
298
298
298
300.67482
299.72597
300.00948
300.01275
300.00646
299.98129
299.96172
299.93459
299.90472
299.87138
299.83396
299.79322
299.74901
299.70143
299.65058
299.59673
299.53993
299.48038
299.41822
299.35365
299.28676
299.21775
299.14675
299.07394
298.99943
298.92339
298.84596
298.76731
298.68756
298.60684
298.52525
298.4429
298.35985
298.2762
298.192
298.10732
298.02225
297.93698
297.85178
297.76702
297.68323
297.60104
297.52122
297.44456
297.37183
297.30371
297.24064
297.18277
297.1298
297.0807
297.03317
296.98285
296.92185
296.83697
296.70899
296.51708
296.25247
295.93967
295.64885
295.4774
295.50285
295.75918
296.24903
296.89867
297.5537
298.03875
298.26757
298.28497
298.20225
298.11094
298.04947
298.01838
298.00578
298.00156
298.00036
298.00007
298.00001
298
298
298
302.8061
298.91383
299.06853
299.0887
299.11263
299.10799
299.10707
299.09745
299.08635
299.07262
299.05557
299.03609
299.01369
298.98835
298.96006
298.92888
298.89478
298.85783
298.81804
298.7755
298.73022
298.68231
298.63181
298.57887
298.52357
298.46605
298.40639
298.34476
298.28126
298.21603
298.1492
298.08092
298.01132
297.9406
297.86891
297.79648
297.72357
297.65054
297.5778
297.50587
297.43531
297.36677
297.30088
297.23816
297.17902
297.12365
297.07185
297.02296
296.97552
296.927
296.87309
296.807
296.71846
296.59354
296.41699
296.18088
295.89687
295.61205
295.40394
295.34397
295.46689
295.79847
296.33889
297.03372
297.73042
298.23403
298.44272
298.41126
298.2759
298.14608
298.06336
298.02298
298.00706
298.00186
298.00043
298.00008
298.00001
298
298
298
304.98227
298.35202
298.29699
298.31359
298.36014
298.36527
298.37313
298.37206
298.3704
298.3675
298.36125
298.35347
298.34344
298.3312
298.31669
298.29986
298.28063
298.25899
298.23487
298.20826
298.17913
298.14749
298.11333
298.07671
298.03767
297.99629
297.95261
297.90672
297.85872
297.80872
297.75685
297.70328
297.64819
297.5918
297.53435
297.47614
297.4175
297.35886
297.30065
297.24332
297.18735
297.13317
297.08111
297.03126
296.98351
296.9374
296.8919
296.84535
296.79505
296.73701
296.6654
296.57227
296.44754
296.28074
296.06633
295.81111
295.54644
295.32975
295.2232
295.27116
295.48281
295.86784
296.44197
297.17112
297.90426
298.42508
298.61415
298.53467
298.34747
298.1799
298.07657
298.0273
298.00825
298.00214
298.00048
298.00009
298.00002
298
298
298
306.73502
297.7409
297.57084
297.60465
297.67751
297.69079
297.70807
297.71335
297.72052
297.72499
297.72731
297.72794
297.72668
297.72367
297.71888
297.71225
297.70373
297.69325
297.68075
297.66618
297.64951
297.63069
297.6097
297.58655
297.56125
297.53381
297.50424
297.47259
297.43893
297.40336
297.36599
297.32695
297.28643
297.24464
297.20179
297.15816
297.11406
297.06981
297.02573
296.98208
296.93908
296.89682
296.85521
296.81385
296.77202
296.72855
296.68162
296.62864
296.56597
296.48883
296.39115
296.26593
296.10644
295.9096
295.68142
295.44338
295.23645
295.11381
295.11946
295.26116
295.53962
295.95961
296.55482
297.31054
298.07582
298.61198
298.78123
298.65433
298.41628
298.21208
298.08898
298.03129
298.00933
298.00239
298.00053
298.0001
298.00002
298
298
298
307.98949
297.04745
296.86148
296.9406
297.04757
297.07048
297.09747
297.11016
297.12414
297.13516
297.14417
297.15169
297.15757
297.16193
297.16479
297.16614
297.16595
297.16418
297.16081
297.15579
297.14909
297.14067
297.13049
297.11853
297.10479
297.08925
297.07189
297.05273
297.03182
297.00922
296.98499
296.95919
296.93198
296.90347
296.87378
296.84307
296.81151
296.77921
296.74625
296.71262
296.6782
296.64271
296.60561
296.56604
296.52276
296.47404
296.41751
296.35014
296.26815
296.16716
296.0426
295.89068
295.71062
295.50834
295.29972
295.11514
294.99506
294.97744
295.0803
295.30238
295.62718
296.06758
296.67527
297.45218
298.24575
298.79481
298.94337
298.76945
298.48178
298.24231
298.10047
298.03492
298.0103
298.00261
298.00057
298.00011
298.00002
298
298
298
308.96211
296.26038
296.13257
296.28288
296.43571
296.47092
296.51266
296.53456
296.55892
296.57809
296.595
296.60986
296.62281
296.63411
296.64391
296.65228
296.65924
296.66486
296.66913
296.67202
296.67354
296.67364
296.67229
296.66949
296.66523
296.65944
296.65212
296.64324
296.63281
296.62084
296.60732
296.59222
296.57559
296.55744
296.53774
296.51647
296.49355
296.46886
296.44222
296.41332
296.3817
296.34675
296.30759
296.26308
296.2117
296.15154
296.08026
295.99516
295.89339
295.77234
295.63052
295.46892
295.29336
295.11691
294.96197
294.8583
294.83682
294.91681
295.10403
295.38269
295.73662
296.18723
296.80205
297.59629
298.41467
298.9736
299.10003
298.87934
298.54341
298.27028
298.11089
298.03813
298.01112
298.00279
298.00061
298.00012
298.00002
298
298
298
309.68612
295.38096
295.36434
295.60025
295.81453
295.86576
295.92897
295.96297
296.00014
296.02898
296.05505
296.07806
296.09862
296.11709
296.13376
296.14883
296.16239
296.17461
296.18548
296.19505
296.20331
296.21027
296.2159
296.22028
296.22333
296.22496
296.22516
296.22389
296.2211
296.21674
296.21071
296.20288
296.1932
296.18155
296.16776
296.15161
296.13281
296.11103
296.08584
296.05671
296.02294
295.98374
295.93809
295.88484
295.82262
295.74988
295.66497
295.56641
295.45325
295.32568
295.18601
295.03994
294.89829
294.77775
294.70021
294.68917
294.76191
294.92637
295.17527
295.49084
295.86096
296.31545
296.93432
297.74314
298.5829
299.14849
299.25083
298.98337
298.60068
298.29571
298.12012
298.0409
298.01181
298.00293
298.00063
298.00012
298.00002
298
298
298
310.13184
294.407
294.53129
294.84782
295.14104
295.21105
295.305
295.35439
295.40869
295.44949
295.48702
295.5198
295.54916
295.57564
295.59962
295.62158
295.64156
295.65994
295.6767
295.69198
295.7058
295.71821
295.72923
295.73899
295.7473
295.75412
295.7594
295.76312
295.76516
295.76544
295.76375
295.7599
295.75375
295.74512
295.73373
295.71921
295.70114
295.67909
295.65252