/*--------------------------------*- C++ -*----------------------------------*\
  =========                 |
  \\      /  F ield         | OpenFOAM: The Open Source CFD Toolbox
   \\    /   O peration     | Website:  https://openfoam.org
    \\  /    A nd           | Version:  12
     \\/     M anipulation  |
\*---------------------------------------------------------------------------*/
FoamFile
{
    format      ascii;
    class       volScalarField;
    location    "1400";
    object      alphat;
}
// * * * * * * * * * * * * * * * * * * * * * * * * * * * * * * * * * * * * * //

dimensions      [1 -1 -1 0 0 0 0];

internalField   nonuniform List<scalar> 
16200
(
0.0004808056381
0.001646530305
0.002739430365
0.003590535352
0.003846989718
0.003386152347
0.002492704326
0.001364418148
0.0007053951035
0.0001792703729
5.622456059e-06
2.606648151e-06
2.363084296e-06
2.324328035e-06
1.848487021e-06
1.593274582e-06
1.391743784e-06
1.249668861e-06
1.157654729e-06
1.098500372e-06
1.064672823e-06
1.053399297e-06
1.06195793e-06
1.088710288e-06
1.133342703e-06
1.19711407e-06
1.283265104e-06
1.397629215e-06
1.549930553e-06
1.756528464e-06
2.04560241e-06
2.466751915e-06
3.109104256e-06
4.138565129e-06
5.881663345e-06
9.015874993e-06
1.500226931e-05
2.706382445e-05
5.240893535e-05
0.0001073468892
0.0002291903254
0.0005041504107
0.001133048933
0.00116522626
0.001165799819
0.001165486256
0.001164490864
0.001164182637
0.001164194506
0.001164307328
0.001164435791
0.001164551702
0.001164650133
0.001164735217
0.001164814289
0.001164896948
0.001164993608
0.001165121649
0.001165294439
0.001165566378
0.0004692066708
0.001592367435
0.002619948549
0.003367169883
0.003459569093
0.00288581248
0.002014397391
0.000996523039
0.0005507229431
3.952624151e-05
2.631405257e-06
2.16889709e-06
1.976673754e-06
1.939148643e-06
1.644481592e-06
1.414106912e-06
1.231829452e-06
1.10342268e-06
1.021851729e-06
9.706066448e-07
9.424705321e-07
9.34605879e-07
9.44315012e-07
9.698922836e-07
1.010919854e-06
1.068424785e-06
1.145247228e-06
1.246642584e-06
1.381591172e-06
1.565379305e-06
1.824152074e-06
2.203193903e-06
2.782861287e-06
3.711748028e-06
5.28151265e-06
8.096757239e-06
1.346159938e-05
2.425385672e-05
4.691051241e-05
9.599420163e-05
0.0002048225472
0.0004503981477
0.001012182724
0.001165057075
0.001165669676
0.00116547635
0.00116449133
0.001164178494
0.001164190928
0.00116430644
0.001164438065
0.001164556846
0.001164657576
0.001164744277
0.001164824365
0.001164907267
0.001165003722
0.001165131153
0.001165303713
0.001165579515
0.0004595260502
0.001541320536
0.002504931742
0.003144322367
0.003083432398
0.002426656342
0.001535597153
0.0007234013049
0.0003612069471
1.371140758e-05
2.048779334e-06
1.816026477e-06
1.660490956e-06
1.62543469e-06
1.457267759e-06
1.250260239e-06
1.08641167e-06
9.709573082e-07
8.989116478e-07
8.545380644e-07
8.309301385e-07
8.251512542e-07
8.345082413e-07
8.572455811e-07
8.928835685e-07
9.423277478e-07
1.008261784e-06
1.095825759e-06
1.213921124e-06
1.377446216e-06
1.61101768e-06
1.955997445e-06
2.484732009e-06
3.330548158e-06
4.755046258e-06
7.300212794e-06
1.213403254e-05
2.183015956e-05
4.213249833e-05
8.600093e-05
0.0001830069495
0.0004013344108
0.0008995830194
0.001164987313
0.001165592386
0.001165475068
0.001164507391
0.001164188173
0.001164197789
0.001164312808
0.001164445105
0.001164564968
0.001164666779
0.001164754325
0.001164834948
0.001164917903
0.001165014059
0.001165140928
0.001165313325
0.001165593014
0.0004526511653
0.001494264627
0.002392884961
0.002896932286
0.002708866928
0.002017040861
0.001086896745
0.0005341794319
0.0001737273898
4.749118969e-06
1.713176462e-06
1.538207149e-06
1.410994541e-06
1.37819999e-06
1.293469959e-06
1.106390636e-06
9.584285072e-07
8.54226085e-07
7.902989728e-07
7.516086446e-07
7.315307176e-07
7.270464419e-07
7.355044245e-07
7.552165747e-07
7.858093437e-07
8.283351083e-07
8.857125364e-07
9.634383742e-07
1.070737288e-06
1.222349922e-06
1.441614284e-06
1.76677682e-06
2.264333791e-06
3.057165858e-06
4.387067167e-06
6.755448266e-06
1.124277158e-05
2.022826223e-05
3.901479654e-05
7.954554785e-05
0.000169020385
0.0003700465248
0.0008280403505
0.001165031183
0.001165583963
0.001165480792
0.001164541554
0.001164215391
0.001164218671
0.001164329408
0.001164459195
0.001164577738
0.001164678919
0.00116476616
0.001164846569
0.001164929171
0.001165024792
0.001165151033
0.001165323154
0.001165606149
0.0004470272551
0.001450938701
0.002285682684
0.002657094368
0.002349803681
0.001661878229
0.000782655056
0.0004041159615
4.147028811e-05
2.004717083e-06
1.454725477e-06
1.306307434e-06
1.20232099e-06
1.172367437e-06
1.141361455e-06
9.732982696e-07
8.406063948e-07
7.472673485e-07
6.909838632e-07
6.574977583e-07
6.405638518e-07
6.371790561e-07
6.448427346e-07
6.620882289e-07
6.888269658e-07
7.264770922e-07
7.784066854e-07
8.505715012e-07
9.524276537e-07
1.098373299e-06
1.310480872e-06
1.624398985e-06
2.10205033e-06
2.858392202e-06
4.120433868e-06
6.359339412e-06
1.058969704e-05
1.904231479e-05
3.667831606e-05
7.464158343e-05
0.0001582426353
0.0003455920221
0.000771358406
0.001165158039
0.001165628689
0.001165500206
0.001164589117
0.001164255556
0.001164249882
0.00116435351
0.001164478414
0.001164593843
0.001164693126
0.001164779217
0.00116485888
0.001164940857
0.001165035825
0.00116516144
0.001165333297
0.001165619361
0.0004420798278
0.001410851424
0.002181452944
0.002419039255
0.002004677086
0.001293630923
0.0005791146328
0.0002770660704
1.636669048e-05
1.493405406e-06
1.225748604e-06
1.114918148e-06
1.029199937e-06
1.001395975e-06
1.001863751e-06
8.511625087e-07
7.326648022e-07
6.496732219e-07
6.006616899e-07
5.721993187e-07
5.58459954e-07
5.565231006e-07
5.641254469e-07
5.80142223e-07
6.048910321e-07
6.402571757e-07
6.900841663e-07
7.606933624e-07
8.616200878e-07
1.006898066e-06
1.21765557e-06
1.527756183e-06
1.996021929e-06
2.732142242e-06
3.953598471e-06
6.112371443e-06
1.018105039e-05
1.829437898e-05
3.518824965e-05
7.147023611e-05
0.000151161938
0.0003292601431
0.0007328913725
0.001165351661
0.00116571918
0.001165545151
0.001164646567
0.001164306386
0.001164290041
0.001164384322
0.001164502331
0.001164613069
0.001164709308
0.001164793467
0.001164871889
0.001164952974
0.001165047173
0.001165172159
0.001165343746
0.001165632567
0.0004371361703
0.001372733344
0.002077815491
0.002171410275
0.001680106212
0.0009466925717
0.0004355185795
0.0001636126272
4.987811575e-06
1.238030509e-06
1.043832723e-06
9.508072203e-07
8.800344338e-07
8.547991449e-07
8.719158277e-07
7.382641064e-07
6.338380222e-07
5.613761839e-07
5.197870998e-07
4.965514669e-07
4.863274374e-07
4.863754128e-07
4.94771286e-07
5.10821402e-07
5.352988374e-07
5.703115052e-07
6.205785176e-07
6.92420883e-07
7.953619507e-07
9.431482443e-07
1.156902853e-06
1.468445567e-06
1.934994371e-06
2.662838401e-06
3.863632336e-06
5.978022294e-06
9.953497248e-06
1.786545089e-05
3.430539812e-05
6.952536147e-05
0.0001466673981
0.0003185506809
0.0007069149622
0.001165591137
0.00116584212
0.001165607621
0.001164710714
0.001164365014
0.001164336985
0.00116442035
0.001164529966
0.0011646348
0.001164727095
0.001164808699
0.001164885482
0.001164965464
0.001165058817
0.001165183187
0.001165354523
0.001165645838
0.0004314833507
0.001334743382
0.001971053938
0.001921537199
0.001390092924
0.0006841786648
0.0003381971429
7.411515095e-05
2.457131132e-06
1.043502052e-06
8.881018539e-07
8.113850238e-07
7.533001631e-07
7.309261671e-07
7.549492086e-07
6.374666131e-07
5.464481198e-07
4.841824297e-07
4.497724828e-07
4.316545697e-07
4.250195382e-07
4.273811773e-07
4.372044842e-07
4.542450367e-07
4.79498459e-07
5.161962972e-07
5.686610928e-07
6.436267071e-07
7.506567874e-07
9.03417377e-07
1.122191141e-06
1.43998308e-06
1.911287002e-06
2.641053402e-06
3.838251793e-06
5.938958598e-06
9.880266901e-06
1.7710351e-05
3.394742703e-05
6.864754075e-05
0.0001444361068
0.0003127880619
0.0006919834847
0.001165859401
0.001165986522
0.001165680891
0.001164778722
0.001164428954
0.001164388868
0.001164460329
0.001164560503
0.001164658534
0.001164746193
0.001164824753
0.001164899583
0.001164978294
0.001165070749
0.001165194527
0.001165365632
0.00116565918
0.0004251095552
0.001294681022
0.001837784546
0.001669711126
0.001111942333
0.0005133059548
0.0002575064275
2.99250732e-05
1.429289348e-06
8.853972011e-07
7.609907512e-07
6.963747208e-07
6.482484472e-07
6.283839072e-07
6.528635687e-07
5.498329865e-07
4.709571165e-07
4.181519577e-07
3.904439814e-07
3.77188187e-07
3.740860218e-07
3.789228689e-07
3.903167003e-07
4.089975903e-07
4.363469271e-07
4.754860875e-07
5.312619953e-07
6.1057944e-07
7.231000914e-07
8.825790758e-07
1.109373161e-06
1.43625792e-06
1.917553973e-06
2.657481494e-06
3.864820364e-06
5.976514426e-06
9.931122987e-06
1.777548416e-05
3.401163304e-05
6.86276174e-05
0.0001440228429
0.0003109947541
0.0006859043242
0.001166141633
0.001166142568
0.001165758708
0.001164848417
0.001164496046
0.001164443976
0.001164503038
0.001164593127
0.001164683755
0.001164766294
0.001164841457
0.001164914105
0.001164991426
0.001165082959
0.001165206178
0.00116537708
0.001165672617
0.0004178359961
0.001252254331
0.001689315256
0.001422340617
0.0008235401077
0.0003896666489
0.0001839552853
1.770616075e-05
1.123881582e-06
7.548650527e-07
6.543258206e-07
5.997537044e-07
5.597165821e-07
5.423325703e-07
5.637117178e-07
4.738355584e-07
4.061323323e-07
3.622084032e-07
3.407984999e-07
3.321365871e-07
3.324087971e-07
3.394359263e-07
3.531070975e-07
3.737978976e-07
4.035268369e-07
4.457830564e-07
5.056541793e-07
5.902114448e-07
7.092883952e-07
8.768813263e-07
1.113657383e-06
1.452540536e-06
1.948216785e-06
2.705214746e-06
3.934230964e-06
6.077706822e-06
1.008581203e-05
1.802620025e-05
3.443360207e-05
6.933756391e-05
0.0001451601057
0.0003125914954
0.0006873913566
0.001166426232
0.001166302409
0.001165835907
0.001164918112
0.001164564516
0.001164500865
0.001164547427
0.001164627127
0.001164710008
0.001164787123
0.001164858656
0.001164928969
0.001165004825
0.001165095436
0.001165218141
0.00116538887
0.001165686161
0.0004094195236
0.0012069122
0.001530606965
0.00118618536
0.0006005601764
0.000299303305
0.0001218555395
1.215668097e-05
9.251291866e-07
6.466484571e-07
5.650170427e-07
5.18513694e-07
4.8505269e-07
4.699990695e-07
4.864612328e-07
4.084950095e-07
3.51024867e-07
3.15348072e-07
2.997276595e-07
2.952483246e-07
2.982802322e-07
3.079333938e-07
3.236802444e-07
3.465869208e-07
3.790986606e-07
4.249910183e-07
4.895479442e-07
5.800234157e-07
7.064996554e-07
8.833422116e-07
1.131716324e-06
1.485005774e-06
1.998697148e-06
2.778508351e-06
4.038843838e-06
6.231602378e-06
1.032725851e-05
1.843325808e-05
3.515885338e-05
7.066869722e-05
0.000147619742
0.0003170815589
0.0006953351855
0.001166704392
0.001166459956
0.001165908329
0.001164986588
0.001164632969
0.001164558351
0.001164592609
0.001164661886
0.001164736892
0.001164808435
0.001164876211
0.001164944104
0.001165018462
0.001165108173
0.001165230413
0.001165401004
0.001165699825
0.000399400372
0.001157074511
0.001366818166
0.0009509042855
0.0004558506695
0.0002364499183
5.889506641e-05
6.7387147e-06
7.48213226e-07
5.562130292e-07
4.893843807e-07
4.497395046e-07
4.217487727e-07
4.089830049e-07
4.198757105e-07
3.526448266e-07
3.044762156e-07
2.763412949e-07
2.659036678e-07
2.648036995e-07
2.708356207e-07
2.826914196e-07
3.005099953e-07
3.258568635e-07
3.615067012e-07
4.114511606e-07
4.811500992e-07
5.780725743e-07
7.126222768e-07
8.996392808e-07
1.160937797e-06
1.530621966e-06
2.065348576e-06
2.872794574e-06
4.172647057e-06
6.429751376e-06
1.064255514e-05
1.897503267e-05
3.614783491e-05
7.254321217e-05
0.0001512399838
0.0003241148281
0.0007089562155
0.001166969841
0.001166610761
0.001165972816
0.001165052985
0.001164700346
0.001164615499
0.001164637865
0.001164696897
0.00116476407
0.001164830019
0.001164894002
0.001164959449
0.001165032309
0.001165121162
0.001165242996
0.001165413483
0.001165713618
0.0003875578487
0.0011003772
0.001196582062
0.0007226351122
0.0003589646323
0.0001856596081
3.04484238e-05
3.50383245e-06
6.102073331e-07
4.801723545e-07
4.254890597e-07
3.915623667e-07
3.680938454e-07
3.573840564e-07
3.625834189e-07
3.049258873e-07
2.651709013e-07
2.438763637e-07
2.380106297e-07
2.400746169e-07
2.485941438e-07
2.624760878e-07
2.824529008e-07
3.104792945e-07
3.495708401e-07
4.038897068e-07
4.790742318e-07
5.828479535e-07
7.259989633e-07
9.239263725e-07
1.19921602e-06
1.586912634e-06
2.145166774e-06
2.984299603e-06
4.33069534e-06
6.665279346e-06
1.10213548e-05
1.963444446e-05
3.736969617e-05
7.490098013e-05
0.0001558965841
0.0003334233416
0.0007276586441
0.001167218379
0.001166751751
0.001166027094
0.001165116728
0.001164765873
0.001164671599
0.001164682634
0.001164731754
0.001164791266
0.001164851701
0.001164911926
0.001164974951
0.001165046344
0.001165134396
0.001165255887
0.001165426305
0.001165727548
0.000374324195
0.001035639798
0.001023250136
0.0005468439903
0.0002796863825
0.0001390588886
1.848653802e-05
1.921235821e-06
5.040109945e-07
4.147026535e-07
3.713032126e-07
3.419926881e-07
3.220761542e-07
3.131079227e-07
3.129004467e-07
2.6391841e-07
2.31901642e-07
2.168393469e-07
2.146200127e-07
2.199087433e-07
2.30564796e-07
2.464237721e-07
2.686960835e-07
2.996205132e-07
3.423879949e-07
4.01311918e-07
4.822258863e-07
5.931457402e-07
7.452948149e-07
9.546990964e-07
1.244903421e-06
1.651827898e-06
2.235662689e-06
3.10991149e-06
4.50895787e-06
6.932686432e-06
1.145556928e-05
2.039845786e-05
3.880138505e-05
7.769782125e-05
0.0001614993568
0.000344814135
0.0007510153715
0.001167447449
0.001166880964
0.001166069631
0.001165177456
0.001164829014
0.001164726134
0.001164726492
0.001164766139
0.00116481826
0.001164873339
0.001164929899
0.001164990566
0.001165060549
0.001165147873
0.001165269083
0.001165439461
0.001165741619
0.0003607494008
0.00096498404
0.0008343873389
0.0004243438032
0.0002286726482
0.0001019876855
1.298849735e-05
1.111337984e-06
4.206126715e-07
3.578798221e-07
3.227728986e-07
2.985189974e-07
2.816782165e-07
2.744212426e-07
2.695773003e-07
2.286846075e-07
2.038823067e-07
1.944537985e-07
1.957482442e-07
2.034896869e-07
2.16073814e-07
2.339363994e-07
2.586445298e-07
2.926348216e-07
3.392354722e-07
4.029107842e-07
4.897107433e-07
6.079748296e-07
7.694014573e-07
9.90699237e-07
1.296354672e-06
1.723645695e-06
2.334751913e-06
3.247042271e-06
4.704123603e-06
7.227538539e-06
1.193883035e-05
2.125706601e-05
4.042561653e-05
8.09012474e-05
0.0001679829483
0.0003581487589
0.0007787218002
0.001167655742
0.001166997296
0.001166099497
0.001165234969
0.001164889423
0.001164778746
0.001164769132
0.001164799817
0.001164844885
0.001164894822
0.001164947855
0.001165006258
0.001165074909
0.001165161587
0.001165282581
0.001165452944
0.001165755834
0.0003474023944
0.0008865936466
0.0006815724937
0.0003524945011
0.000195074203
5.78758671e-05
8.797273858e-06
6.9957471e-07
3.547377986e-07
3.086570463e-07
2.802236779e-07
2.599712848e-07
2.464173587e-07
2.407900016e-07
2.321602016e-07
1.987543442e-07
1.805939153e-07
1.757623699e-07
1.804383634e-07
1.902344237e-07
2.04641157e-07
2.245640902e-07
2.51817915e-07
2.889792091e-07
3.394983125e-07
4.079991736e-07
5.00767132e-07
6.264895221e-07
7.973717125e-07
1.03085269e-06
1.352444515e-06
1.800912874e-06
2.440691268e-06
3.393551956e-06
4.913497743e-06
7.546307614e-06
1.246621709e-05
2.220278731e-05
4.222988165e-05
8.448840996e-05
0.0001753024211
0.0003733335141
0.0008105738416
0.001167842859
0.001167100284
0.001166121255
0.001165289188
0.001164946896
0.001164829204
0.001164810343
0.001164832616
0.001164871014
0.001164916064
0.00116496574
0.001165022
0.001165089412
0.001165175536
0.001165296376
0.001165466754
0.001165770193
0.0003367904461
0.0007993344257
0.000559998206
0.0002961793451
0.0001641620831
3.228981761e-05
4.226206403e-06
4.77259752e-07
3.020104318e-07
2.667355868e-07
2.435487182e-07
2.26583542e-07
2.155031051e-07
2.116473714e-07
2.000909866e-07
1.73616603e-07
1.615155911e-07
1.609988893e-07
1.681236722e-07
1.797090161e-07
1.958957831e-07
2.179305826e-07
2.477944355e-07
2.881727126e-07
3.426358318e-07
4.159774975e-07
5.147332572e-07
6.479573103e-07
8.283890689e-07
1.074248694e-06
1.412123934e-06
1.88241249e-06
2.552037932e-06
3.547692384e-06
5.134917555e-06
7.886234494e-06
1.303401537e-05
2.323021502e-05
4.420555368e-05
8.844423816e-05
0.0001834292289
0.0003903104933
0.0008464475668
0.001168009045
0.001167189667
0.00116614129
0.001165340117
0.001165001345
0.001164877377
0.001164849992
0.001164864421
0.001164896558
0.001164937003
0.001164983515
0.001165037769
0.001165104048
0.001165189716
0.001165310463
0.001165480921
0.001165784697
0.0003322154147
0.0007061192308
0.0004681324995
0.0002505997694
0.0001346649667
1.944922804e-05
2.042314339e-06
3.496249085e-07
2.585446917e-07
2.306679934e-07
2.116296088e-07
1.974464234e-07
1.884456674e-07
1.861167176e-07
1.727948272e-07
1.528265843e-07
1.4585959e-07
1.492732443e-07
1.583622564e-07
1.715617802e-07
1.895102492e-07
2.136843268e-07
2.461780433e-07
2.89771431e-07
3.481575646e-07
4.263085094e-07
5.310218168e-07
6.717347909e-07
8.617464653e-07
1.120083333e-06
1.474511262e-06
1.967137861e-06
2.667616323e-06
3.708061887e-06
5.366685807e-06
8.245223259e-06
1.36395367e-05
2.433568325e-05
4.634723155e-05
9.276007744e-05
0.000192348275
0.0004090510389
0.0008862843572
0.001168154982
0.001167265227
0.00116615972
0.001165387824
0.001165052762
0.001164923208
0.001164888003
0.001164895159
0.001164921455
0.001164957592
0.00116500115
0.001165053547
0.001165118809
0.001165204125
0.001165324843
0.001165495469
0.001165799345
0.0003367654692
0.000611677462
0.0003859323485
0.0002168744946
0.0001077193813
1.291357026e-05
1.007578737e-06
2.725849434e-07
2.218248663e-07
1.993509291e-07
1.837408249e-07
1.720362713e-07
1.649268823e-07
1.640180794e-07
1.499840678e-07
1.360779559e-07
1.339156244e-07
1.400880666e-07
1.507770945e-07
1.65478848e-07
1.851777679e-07
2.11493292e-07
2.466014347e-07
2.93371877e-07
3.556242438e-07
4.385164033e-07
5.491183558e-07
6.972656046e-07
8.968383032e-07
1.167710716e-06
1.538881005e-06
2.054274108e-06
2.786489726e-06
3.873563436e-06
5.607508961e-06
8.621746415e-06
1.428096345e-05
2.55169961e-05
4.865223131e-05
9.743267517e-05
0.0002020557846
0.0004295511037
0.0009300805164
0.001168281643
0.001167327039
0.00116617665
0.001165432419
0.001165101197
0.001164966699
0.00116492435
0.001164924793
0.001164945669
0.001164977803
0.001165018624
0.001165069323
0.001165133689
0.001165218758
0.001165339517
0.00116551041
0.001165814135
0.0003517949211
0.0005243519027
0.0003324692075
0.0001958116339
6.380442737e-05
9.208068259e-06
5.267473476e-07
2.21714223e-07
1.908081445e-07
1.724978011e-07
1.597620782e-07
1.502491407e-07
1.448350908e-07
1.452609861e-07
1.313739741e-07
1.229721273e-07
1.247708631e-07
1.329680709e-07
1.450182498e-07
1.611631544e-07
1.826017455e-07
2.110390167e-07
2.487189354e-07
2.986010186e-07
3.646361873e-07
4.521752814e-07
5.685708072e-07
7.240710807e-07
9.331591022e-07
1.216590621e-06
1.604651006e-06
2.143181306e-06
2.907937465e-06
4.043372936e-06
5.856451363e-06
9.014774084e-06
1.495723024e-05
2.67732112e-05
5.112016065e-05
0.0001024632909
0.0002125573706
0.0004518269592
0.0009778778649
0.001168390169
0.001167375377
0.001166192173
0.001165474039
0.001165146743
0.001165007889
0.001164959036
0.001164953308
0.00116496918
0.001164997616
0.001165035921
0.001165085087
0.001165148683
0.001165233612
0.001165354487
0.001165525688
0.00116582906
0.0003752721465
0.0004939054715
0.0002939576516
0.0001783194085
3.452899487e-05
3.846078659e-06
3.065833337e-07
1.858992742e-07
1.649938859e-07
1.499064129e-07
1.394906555e-07
1.318277501e-07
1.279165695e-07
1.294737252e-07
1.16521589e-07
1.128015857e-07
1.178037888e-07
1.275067677e-07
1.407897287e-07
1.583522894e-07
1.81511617e-07
2.120304125e-07
2.522173881e-07
3.051249494e-07
3.748406584e-07
4.669155441e-07
5.889945339e-07
7.517526952e-07
9.702967216e-07
1.266294879e-06
1.671371092e-06
2.233376304e-06
3.031428653e-06
4.216903042e-06
6.112885552e-06
9.423703199e-06
1.566791596e-05
2.810446108e-05
5.375259721e-05
0.0001078570752
0.0002238667553
0.0004759124832
0.001029758162
0.001168481776
0.001167410644
0.001166206379
0.001165512837
0.001165189517
0.001165046846
0.001164992092
0.00116498071
0.001164991983
0.001165017021
0.001165053034
0.001165100831
0.001165163785
0.001165248682
0.001165369748
0.001165541271
0.001165844106
0.0004037044824
0.0004379556498
0.0002680730405
0.000160409736
1.895232814e-05
1.484104051e-06
2.07245257e-07
1.588508663e-07
1.434006813e-07
1.308574617e-07
1.222912443e-07
1.162300803e-07
1.137094729e-07
1.14926571e-07
1.049202665e-07
1.053370503e-07
1.124946516e-07
1.233965264e-07
1.378555784e-07
1.568164599e-07
1.81661425e-07
2.142023016e-07
2.568142664e-07
3.126467324e-07
3.859293716e-07
4.824205266e-07
6.100671218e-07
7.799843375e-07
1.007921771e-06
1.316489635e-06
1.738698854e-06
2.324500687e-06
3.15658047e-06
4.393748909e-06
6.376420097e-06
9.848256997e-06
1.641309345e-05
2.951170927e-05
5.655266039e-05
0.0001136222635
0.0002360041707
0.0005018558114
0.001085835673
0.001168557697
0.001167433305
0.001166219354
0.001165548976
0.001165229653
0.001165083658
0.001165023563
0.00116500702
0.001165014081
0.001165036016
0.001165069956
0.001165116549
0.001165178991
0.001165263961
0.001165385295
0.00116555716
0.001165859255
0.0004381743358
0.0004092054652
0.0002572938746
0.000139970299
1.117136569e-05
5.416175865e-07
1.609276628e-07
1.370835044e-07
1.249900103e-07
1.145481654e-07
1.076019823e-07
1.030193852e-07
1.015691866e-07
1.013511597e-07
9.611218779e-08
9.982999821e-08
1.084760947e-07
1.204184646e-07
1.360218382e-07
1.563492375e-07
1.828267024e-07
2.173147252e-07
2.622579723e-07
3.209070531e-07
3.976390486e-07
4.984264634e-07
6.315273026e-07
8.085093772e-07
1.045783331e-06
1.366929288e-06
1.806391756e-06
2.416310855e-06
3.283145793e-06
4.573672453e-06
6.646878737e-06
1.028845504e-05
1.71932816e-05
3.099666388e-05
5.952483832e-05
0.0001197698019
0.0002489955089
0.0005297172624
0.001146249756
0.001168619145
0.001167443842
0.001166231183
0.001165582621
0.001165267292
0.001165118419
0.001165053507
0.001165032266
0.001165035486
0.001165054602
0.001165086685
0.001165132238
0.001165194294
0.001165279446
0.001165401122
0.00116557331
0.001165874492
0.0004757553661
0.0004016937707
0.0002558001489
9.610178908e-05
5.684549444e-06
2.22487104e-07
1.347419178e-07
1.188470497e-07
1.091122995e-07
1.006942294e-07
9.503733107e-08
9.167637998e-08
9.129676809e-08
9.069617475e-08
8.965352104e-08
9.571566803e-08
1.054997031e-07
1.184002998e-07
1.351128756e-07
1.567586146e-07
1.848014007e-07
2.211520116e-07
2.683276483e-07
3.296840881e-07
4.097508374e-07
5.147209905e-07
6.531721166e-07
8.371364179e-07
1.083702894e-06
1.417448643e-06
1.874297306e-06
2.50866582e-06
3.41099789e-06
4.756582603e-06
6.924273908e-06
1.074457499e-05
1.800938475e-05
3.256167021e-05
6.267477676e-05
0.0001263129037
0.0002628713467
0.0005595671255
0.001169795201
0.001168667292
0.001167442713
0.001166241944
0.001165613931
0.001165302578
0.001165151232
0.001165081986
0.001165056482
0.001165056214
0.001165072785
0.00116510322
0.001165147893
0.00116520969
0.001165295131
0.001165417217
0.001165589613
0.001165889816
0.0005326789471
0.0004107665231
0.0002599083303
4.744326266e-05
1.562333001e-06
1.386929981e-07
1.160973827e-07
1.03726224e-07
9.579674846e-08
8.881357239e-08
8.430325465e-08
8.212673228e-08
8.280888825e-08
8.270263297e-08
8.506211527e-08
9.271125365e-08
1.033873999e-07
1.171918367e-07
1.349677345e-07
1.578714031e-07
1.874038498e-07
2.255280732e-07
2.748367001e-07
3.387944022e-07
4.220877732e-07
5.311364343e-07
6.74845412e-07
8.657224498e-07
1.121551651e-06
1.46793367e-06
1.94231638e-06
2.601481872e-06
3.540074532e-06
4.942465922e-06
7.208718008e-06
1.121703337e-05
1.886252065e-05
3.420944279e-05
6.60088329e-05
0.0001332662603
0.0002776654783
0.0005914828571
0.001169876121
0.001168703263
0.001167430314
0.001166251716
0.001165643065
0.001165335652
0.001165182199
0.001165109067
0.001165079706
0.001165076284
0.001165090573
0.001165119562
0.001165163509
0.001165225172
0.001165311009
0.001165433542
0.001165605941
0.001165905236
0.0005887376219
0.0004111329585
0.0002578481606
2.254376588e-05
3.817855683e-07
1.132953592e-07
1.014610786e-07
9.121969832e-08
8.451440623e-08
7.875557328e-08
7.531159986e-08
7.427333479e-08
7.598342378e-08
7.698822355e-08
8.184181962e-08
9.054822852e-08
1.019890143e-07
1.166500218e-07
1.354352988e-07
1.59530213e-07
1.904737544e-07
2.302831848e-07
2.816293161e-07
3.480891576e-07
4.345106419e-07
5.475453549e-07
6.964331676e-07
8.941680895e-07
1.159245777e-06
1.51831689e-06
2.010398645e-06
2.694727784e-06
3.670372486e-06
5.131379285e-06
7.500412334e-06
1.170636699e-05
1.975398538e-05
3.594299315e-05
6.95339148e-05
0.0001406456706
0.0002934140472
0.0006255471315
0.001169942025
0.001168728136
0.001167406952
0.001166260572
0.001165670168
0.001165366649
0.001165211421
0.001165134815
0.001165101979
0.001165095718
0.001165107973
0.001165135711
0.001165179083
0.001165240735
0.001165327069
0.001165450045
0.001165622372
0.001165920738
0.0006447450343
0.0004070349018
0.000246162426
1.13765953e-05
1.502585854e-07
9.848029868e-08
8.925761835e-08
8.074617754e-08
7.501702526e-08
7.030739449e-08
6.78819242e-08
6.794950163e-08
7.063581991e-08
7.305669145e-08
7.957502029e-08
8.903648243e-08
1.011730123e-07
1.166421195e-07
1.363789645e-07
1.615969729e-07
1.938745866e-07
2.352854513e-07
2.885811827e-07
3.574542869e-07
4.469179141e-07
5.638606718e-07
7.178643337e-07
9.224197161e-07
1.196750476e-06
1.568583901e-06
2.078552149e-06
2.78843792e-06
3.801964668e-06
5.323471579e-06
7.799674145e-06
1.221326622e-05
2.068529342e-05
3.776567148e-05
7.325750313e-05
0.0001484679729
0.0003101551936
0.0006618466914
0.001169994197
0.001168742955
0.001167372812
0.001166268583
0.00116569538
0.001165395699
0.001165238995
0.001165159296
0.00116512334
0.001165114537
0.001165124997
0.00116515167
0.00116519461
0.00116525637
0.001165343296
0.001165466679
0.001165639039
0.001165936258
0.0006791934321
0.000401825862
0.0002217388076
6.777826879e-06
1.137785964e-07
8.651295456e-08
7.903340418e-08
7.191216424e-08
6.699595703e-08
6.323886252e-08
6.183098957e-08
6.29712502e-08
6.65537884e-08
7.039872737e-08
7.797440584e-08
8.804079673e-08
1.008241992e-07
1.170515011e-07
1.376810816e-07
1.639552699e-07
1.974936042e-07
2.404281659e-07
2.955937739e-07
3.668012845e-07
4.592326173e-07
5.80018166e-07
7.390884607e-07
9.504415815e-07
1.234045725e-06
1.618731689e-06
2.146792718e-06
2.882650838e-06
3.934925099e-06
5.518890336e-06
8.106815928e-06
1.273840914e-05
2.165793215e-05
3.968077488e-05
7.718698288e-05
0.0001567498461
0.0003279268059
0.000700467954
0.0011700338
0.001168748748
0.001167335822
0.001166275813
0.001165718832
0.001165422923
0.001165265015
0.001165182574
0.001165143829
0.001165132763
0.001165141652
0.001165167438
0.001165210085
0.001165272071
0.001165359672
0.001165483418
0.001165655947
0.001165951745
0.0006773774253
0.0004028684401
0.0001863136853
2.667901417e-06
9.436572213e-08
7.659040857e-08
7.041416794e-08
6.44195006e-08
6.021443037e-08
5.737510729e-08
5.69996916e-08
5.914465317e-08
6.347833645e-08
6.858915103e-08
7.685716901e-08
8.745284968e-08
1.008395176e-07
1.177753712e-07
1.392409452e-07
1.665087089e-07
2.012408845e-07
2.456298421e-07
3.025957256e-07
3.760702854e-07
4.714074785e-07
5.959840187e-07
7.600859271e-07
9.782290025e-07
1.271142693e-06
1.668788536e-06
2.215167717e-06
2.97743733e-06
4.069361589e-06
5.717819535e-06
8.422189225e-06
1.328251288e-05
2.26734203e-05
4.169160665e-05
8.132967529e-05
0.0001655077207
0.0003467660619
0.000741495479
0.001170061885
0.001168746218
0.001167301023
0.001166282323
0.001165740642
0.001165448437
0.001165289569
0.00116520471
0.001165163483
0.001165150418
0.00116515795
0.001165183016
0.001165225501
0.001165287829
0.001165376173
0.001165500239
0.001165673095
0.001165967169
0.000670762338
0.0004072014822
0.0001016845608
9.19315277e-07
8.140941117e-08
6.837563211e-08
6.317079061e-08
5.808577139e-08
5.452571496e-08
5.260063775e-08
5.324236494e-08
5.62728607e-08
6.103639049e-08
6.733787109e-08
7.610828034e-08
8.718552127e-08
1.011329904e-07
1.187290222e-07
1.409768698e-07
1.691803573e-07
2.050458144e-07
2.508275196e-07
3.095328066e-07
3.85216613e-07
4.83407984e-07
6.117343235e-07
7.808437943e-07
1.005780362e-06
1.308051553e-06
1.718777102e-06
2.283713531e-06
3.072850935e-06
4.20535727e-06
5.92040812e-06
8.746091669e-06
1.384620208e-05
2.373310475e-05
4.380113381e-05
8.569222215e-05
0.0001747566148
0.0003667071437
0.0007850073333
0.00117007941
0.001168735821
0.001167268267
0.00116628817
0.001165760922
0.001165472344
0.001165312738
0.001165225761
0.001165182341
0.001165167522
0.001165173898
0.001165198404
0.001165240853
0.001165303632
0.001165392773
0.001165517125
0.001165690471
0.001165982467
0.0006582962666
0.0004080353653
5.648748733e-05
3.517752213e-07
7.184057833e-08
6.155759331e-08
5.706932202e-08
5.272873696e-08
4.979382065e-08
4.879657e-08
5.038834137e-08
5.41524577e-08
5.941946044e-08
6.646449005e-08
7.564309126e-08
8.716336477e-08
1.016309334e-07
1.198418574e-07
1.428229119e-07
1.719103547e-07
2.088558513e-07
2.559769856e-07
3.163699332e-07
3.942149242e-07
4.952189868e-07
6.272644874e-07
8.013683461e-07
1.033113211e-06
1.344801627e-06
1.768739286e-06
2.352485914e-06
3.168964755e-06
4.34301487e-06
6.126822873e-06
9.078830428e-06
1.443008581e-05
2.483825275e-05
4.601208889e-05
9.028065842e-05
0.0001845100475
0.0003877805956
0.0008310728653
0.001170087261
0.001168717934
0.001167237417
0.001166293405
0.001165779775
0.001165494745
0.001165334602
0.001165245782
0.001165200436
0.001165184096
0.001165189504
0.001165213599
0.001165256133
0.00116531947
0.001165409443
0.001165534059
0.00116570805
0.001165997594
0.0006396425251
0.0003989713969
2.789592504e-05
1.588322474e-07
6.425519799e-08
5.592681614e-08
5.196075196e-08
4.822419603e-08
4.591896251e-08
4.584223047e-08
4.826033755e-08
5.260017277e-08
5.833294116e-08
6.586094701e-08
7.539599397e-08
8.732462607e-08
1.022744357e-07
1.210591396e-07
1.447298106e-07
1.746560863e-07
2.12636027e-07
2.610517498e-07