/*--------------------------------*- C++ -*----------------------------------*\
  =========                 |
  \\      /  F ield         | OpenFOAM: The Open Source CFD Toolbox
   \\    /   O peration     | Website:  https://openfoam.org
    \\  /    A nd           | Version:  12
     \\/     M anipulation  |
\*---------------------------------------------------------------------------*/
FoamFile
{
    format      ascii;
    class       volScalarField;
    location    "1400";
    object      k;
}
// * * * * * * * * * * * * * * * * * * * * * * * * * * * * * * * * * * * * * //

dimensions      [0 2 -2 0 0 0 0];

internalField   nonuniform List<scalar> 
16200
(
445.7049165
512.4339048
468.107376
424.8090895
368.0567116
281.3444896
158.4384674
46.794175
5.458849564
0.1901897037
0.002070547118
0.001014961036
0.0009689733181
0.0009436720555
0.0009295903578
0.0009212793747
0.0009158937502
0.0009126869581
0.0009110663094
0.00091055453
0.0009109053261
0.0009119739476
0.000913668807
0.0009159382452
0.0009187585193
0.0009221231237
0.0009260327939
0.000930484193
0.0009354569058
0.0009408986531
0.0009467100063
0.0009527352261
0.0009587694374
0.0009645868752
0.0009699802612
0.0009747924803
0.0009789299005
0.0009823581664
0.0009850883617
0.000987160462
0.000988627176
0.0009895384719
0.0009899267596
0.0009897879295
0.0009890344437
0.0009873694047
0.0009849989272
0.000983907549
0.0009834786921
0.0009833394432
0.0009833343923
0.00098340722
0.000983548467
0.000983774082
0.0009841184583
0.000984636061
0.0009854087201
0.0009865651767
0.0009883196349
0.0009910929681
467.5174998
530.9464734
477.1172383
424.234273
355.3333515
253.1745391
120.5905794
27.29260464
2.23667677
0.05063537628
0.001160475842
0.0009973437789
0.0009561709101
0.000933131623
0.0009203528065
0.0009129292903
0.0009082063998
0.0009055200251
0.0009043384789
0.0009042187754
0.0009049390761
0.000906373811
0.0009084468625
0.0009111192399
0.0009143771596
0.0009182207243
0.0009226524893
0.0009276639374
0.000933219612
0.0009392398049
0.0009455861787
0.000952060595
0.0009584261478
0.0009644473039
0.0009699314935
0.0009747527569
0.0009788528822
0.0009822273677
0.0009849069676
0.0009869413492
0.0009883858872
0.0009892898878
0.0009896855729
0.0009895756626
0.0009889000449
0.0009874257447
0.0009850749093
0.0009839791392
0.0009835537405
0.0009834217045
0.0009834250957
0.0009835060647
0.0009836541197
0.0009838843358
0.0009842303704
0.0009847460109
0.0009855133051
0.0009866629686
0.0009884176574
0.0009912322851
488.8384949
547.3037
483.2677184
419.8715831
337.1305364
219.3598698
84.46070758
14.10481981
0.7746431271
0.01146397694
0.001060840018
0.0009820226002
0.0009447133264
0.0009237797726
0.0009122386427
0.0009056559683
0.0009015746662
0.0008994029558
0.0008986650169
0.0008989508751
0.0009000624673
0.0009018928552
0.0009043812168
0.0009075009735
0.0009112474227
0.0009156250694
0.0009206339425
0.0009262529079
0.0009324202191
0.000939014882
0.0009458480547
0.0009526764184
0.0009592398689
0.0009653098085
0.0009707259015
0.0009754064107
0.0009793356968
0.0009825415985
0.0009850743208
0.0009869917454
0.0009883498937
0.0009891949748
0.0009895556425
0.0009894357112
0.0009887932759
0.0009874602601
0.0009851510778
0.0009840555374
0.0009836330456
0.000983506226
0.0009835160397
0.0009836036
0.0009837575175
0.000983992026
0.0009843399984
0.0009848545353
0.0009856176743
0.0009867618327
0.0009885170245
0.0009913692316
508.5450073
560.1171271
485.7627115
410.8747922
312.8382698
180.3925684
53.76774206
6.438786548
0.2306890201
0.002630608344
0.001030542607
0.0009685167758
0.0009347573464
0.0009158108178
0.0009054526859
0.0008996676598
0.0008962061888
0.0008945409094
0.0008942476951
0.0008949487538
0.0008964693137
0.0008987203171
0.0009016554514
0.0009052591132
0.000909532979
0.0009144813022
0.0009200941815
0.0009263270096
0.0009330781921
0.00094017351
0.0009473704928
0.0009543908642
0.0009609718032
0.0009669136595
0.000972104126
0.0009765126863
0.0009801663174
0.0009831216197
0.0009854437502
0.0009871947533
0.0009884280706
0.0009891842169
0.0009894856241
0.0009893329166
0.0009886931999
0.000987435368
0.000985204557
0.0009841225043
0.0009837075127
0.0009835871045
0.0009836033786
0.0009836973412
0.0009838570869
0.000984096175
0.0009844467612
0.0009849612942
0.0009857217003
0.000986861843
0.0009886182279
0.0009915053286
526.2002088
569.7400512
484.7761699
397.7834194
284.0357339
139.7072168
31.31527024
2.7082174
0.06330290195
0.001267092006
0.001011697617
0.0009569197241
0.0009264407034
0.0009093651195
0.0009001389226
0.0008951157731
0.0008922582241
0.0008910959819
0.0008912523942
0.0008923812948
0.0008943307964
0.0008970287852
0.0009004420107
0.0009045632414
0.0009093961445
0.0009149377989
0.0009211581074
0.0009279755379
0.000935235305
0.0009427037761
0.0009500922618
0.0009571079457
0.0009635104152
0.0009691490393
0.0009739695658
0.0009779935066
0.0009812858447
0.0009839256651
0.0009859874213
0.0009875330964
0.0009886106814
0.0009892530636
0.0009894747664
0.0009892705241
0.0009886111365
0.0009873858644
0.0009852455096
0.0009841852024
0.0009837800542
0.0009836661824
0.0009836883988
0.0009837882483
0.0009839535684
0.0009841973534
0.0009845510863
0.0009850665844
0.0009858255788
0.0009869631496
0.0009887214627
0.0009916406475
541.2782525
576.3277089
480.3158617
379.6752456
249.4006938
100.4260394
17.63653248
1.091542393
0.01758835581
0.001115909794
0.0009963524041
0.000947252267
0.0009198148182
0.000904500693
0.0008963552529
0.0008920599741
0.0008897913433
0.0008891299984
0.0008897426352
0.0008913139447
0.0008937137196
0.0008968847822
0.000900804157
0.0009054687478
0.0009108777239
0.0009170114423
0.0009238068312
0.0009311316872
0.0009387695427
0.0009464316705
0.0009538024137
0.0009606017719
0.0009666361611
0.0009718178912
0.00097615328
0.0009797106648
0.0009825847626
0.0009848691551
0.0009866414503
0.0009879594997
0.0009888634187
0.0009893771343
0.0009895063649
0.0009892383568
0.000988544694
0.0009873348524
0.0009852716173
0.0009842418775
0.000983849541
0.0009837428282
0.0009837708205
0.0009838762725
0.0009840470515
0.0009842957177
0.0009846531475
0.0009851705587
0.000985929437
0.0009870658744
0.0009888269493
0.0009917755757
553.6160661
580.2795341
472.6534116
355.6764576
208.6591319
66.91178115
9.377908361
0.4305438659
0.005238489659
0.001072218765
0.0009833914279
0.0009394096745
0.000914801283
0.0009011521511
0.0008940454377
0.0008904561304
0.0008887718791
0.0008886184181
0.0008897011594
0.0008917344266
0.000894608001
0.0008982771884
0.0009027256555
0.0009079486761
0.0009139322342
0.0009206281392
0.0009279268004
0.0009356349743
0.0009434750313
0.0009511192578
0.0009582525594
0.000964635581
0.0009701397528
0.0009747457159
0.0009785158533
0.0009815560552
0.0009839809877
0.0009858907629
0.0009873606782
0.0009884412031
0.0009891629055
0.0009895400703
0.0009895693757
0.0009892297338
0.0009884909611
0.0009872819943
0.0009852860247
0.0009842935824
0.0009839163599
0.0009838172763
0.0009838508857
0.0009839616932
0.0009841378393
0.0009843915684
0.0009847532164
0.0009852734371
0.0009860334375
0.00098717014
0.000988934839
0.0009919103069
563.009483
581.6039381
461.5174383
326.625433
165.1187575
40.0646473
4.712291913
0.1800746696
0.002260120705
0.001048880901
0.0009726423292
0.0009333103359
0.0009113268465
0.0008992502305
0.0008931418379
0.0008902405669
0.0008891378721
0.000889499421
0.0008910650131
0.0008935776151
0.0008969450132
0.0009011316081
0.0009061222816
0.0009119026199
0.0009184345575
0.0009256284789
0.0009333167686
0.000941241956
0.0009490769902
0.0009564810268
0.000963169702
0.0009689669583
0.0009738183996
0.000977770129
0.000980930955
0.0009834330518
0.0009854012983
0.0009869353286
0.0009881037969
0.0009889475211
0.0009894865936
0.000989725531
0.0009896522445
0.0009892370977
0.000988445993
0.0009872257995
0.0009852903287
0.0009843405338
0.000983980403
0.0009838894475
0.0009839286295
0.0009840446517
0.0009842261439
0.0009844851493
0.0009848515326
0.0009853754253
0.000986137738
0.0009872760611
0.0009890452593
0.0009920450391
569.36921
580.0177382
444.9163751
291.0229853
122.2692376
23.70932271
2.29540674
0.07831075521
0.001610234027
0.001031310039
0.0009639140881
0.0009288318001
0.0009092879409
0.0008986957836
0.0008935435835
0.000891312544
0.0008907878593
0.0008916708465
0.0008937314267
0.0008967395008
0.0009006173542
0.0009053332185
0.0009108658491
0.0009171815377
0.0009242064531
0.0009317977291
0.0009397233532
0.0009476683861
0.0009552787589
0.000962231375
0.0009682993641
0.0009733836918
0.0009775039074
0.0009807623099
0.000983301749
0.0009852693197
0.0009867915846
0.0009879622113
0.0009888402068
0.0009894554532
0.0009898173085
0.0009899208282
0.0009897457811
0.0009892542541
0.0009884065213
0.0009871649804
0.0009852869291
0.000984383401
0.0009840418074
0.000983959392
0.0009840041535
0.0009841253229
0.0009843121951
0.0009845767146
0.0009849483445
0.0009854767376
0.0009862425013
0.0009873837474
0.0009891583047
0.0009921799167
573.1286752
575.831685
422.4947202
248.3302413
83.22145059
13.58346795
1.108739478
0.03677944871
0.001431277863
0.001016842877
0.0009569873207
0.0009258024837
0.0009085325311
0.0008993466989
0.0008951142612
0.0008935428964
0.0008935982181
0.0008950129401
0.0008975822921
0.0009011003084
0.0009054990529
0.0009107443938
0.0009168008381
0.0009236050504
0.0009310357719
0.0009388880833
0.0009468673966
0.0009546190185
0.0009617917256
0.0009681102017
0.0009734237919
0.0009777140529
0.0009810665093
0.0009836265783
0.0009855582169
0.0009870133128
0.0009881133758
0.0009889422655
0.0009895475838
0.0009899478317
0.0009901418924
0.0009901159658
0.0009898425097
0.0009892759501
0.0009883696741
0.0009870982083
0.0009852778845
0.0009844227636
0.0009841006885
0.0009840271494
0.0009840775472
0.0009842038676
0.0009843962087
0.0009846665079
0.0009850438936
0.000985577586
0.0009863478896
0.0009874933027
0.0009892740463
0.0009923150576
574.5324524
569.0907086
394.411424
201.2550345
51.9463193
7.379849179
0.5330960302
0.01872114992
0.001351500748
0.001004841018
0.0009517003053
0.0009240875924
0.0009089365054
0.0009010839701
0.0008977374089
0.0008968186924
0.0008974573616
0.0008994130376
0.0009025012256
0.000906536793
0.0009114563186
0.000917216422
0.0009237581066
0.0009309769312
0.0009386937255
0.0009466389491
0.0009544679129
0.0009618134344
0.0009683591222
0.000973901108
0.0009783732506
0.0009818321404
0.0009844161929
0.000986299598
0.0009876555807
0.0009886326784
0.0009893425613
0.0009898569676
0.0009902113774
0.0009904131067
0.0009904511872
0.0009903037451
0.0009899368488
0.0009892980941
0.0009883331929
0.0009870243471
0.0009852651152
0.0009844592348
0.0009841572199
0.0009840928022
0.000984148923
0.000984280455
0.0009844784009
0.0009847547696
0.0009851384184
0.000985678181
0.0009864540634
0.0009876048248
0.0009893925322
0.0009924505491
573.6905697
559.1233625
359.8849004
153.6779692
32.33047697
4.001304483
0.2636267808
0.01011670441
0.001254106155
0.000994970049
0.0009478888084
0.0009235595775
0.0009103871121
0.0009038008623
0.0009013080895
0.0009010358004
0.0009022593562
0.0009047613035
0.0009083728568
0.0009129259362
0.0009183552318
0.0009245995287
0.0009315651028
0.0009390948794
0.0009469457741
0.0009547909665
0.0009622591435
0.0009690030059
0.0009747689505
0.0009794381507
0.0009830269659
0.0009856548398
0.0009874977298
0.000988745006
0.0009895694024
0.0009901101852
0.000990466208
0.0009906960349
0.0009908230922
0.000990844149
0.000990739228
0.0009904792423
0.0009900247974
0.0009893175943
0.0009882953597
0.0009869424639
0.0009852502089
0.0009844933663
0.0009842115888
0.0009841564555
0.0009842184074
0.0009843552581
0.0009845589848
0.0009848417343
0.0009852321516
0.0009857787284
0.0009865611796
0.000987718404
0.0009895137907
0.0009925864529
570.7711025
545.0477891
316.8078721
109.0109965
20.52460465
2.223690153
0.1378800678
0.006104246451
0.00117619423
0.0009869776432
0.000945431728
0.0009241165861
0.0009127884862
0.0009074019698
0.0009057295588
0.0009060963225
0.0009079045343
0.0009109556138
0.0009150913274
0.0009201550222
0.0009260709429
0.0009327492219
0.0009400495184
0.0009477537988
0.0009555578887
0.0009630966686
0.0009700033513
0.0009759815858
0.0009808594755
0.0009846056908
0.0009873088687
0.0009891355765
0.0009902841321
0.0009909475494
0.0009912907808
0.0009914400059
0.0009914797891
0.0009914554193
0.0009913788739
0.0009912372786
0.000991002595
0.0009906393918
0.0009901036862
0.0009893322371
0.0009882549488
0.0009868518636
0.0009852344453
0.0009845256507
0.0009842639963
0.0009842182383
0.0009842861425
0.0009844284558
0.0009846381723
0.0009849276311
0.0009853253192
0.0009858794285
0.0009866693898
0.0009878341233
0.0009896378313
0.0009927228074
566.1006045
525.709227
266.946198
73.65508359
12.04290406
1.211430283
0.07318299972
0.003862546947
0.001114362814
0.0009801147846
0.0009441989667
0.000925652719
0.0009160438582
0.0009117948039
0.0009109134779
0.00091191602
0.0009143112597
0.0009179140256
0.0009225702391
0.0009281271721
0.0009344882131
0.0009415232346
0.0009490355975
0.0009567454869
0.0009643019441
0.0009713300625
0.0009775001946
0.0009825906415
0.0009865187196
0.0009893333547
0.0009911801789
0.0009922564542
0.0009927695351
0.000992907204
0.0009928217545
0.0009926242425
0.0009923846136
0.0009921354339
0.0009918781618
0.0009915913112
0.0009912397518
0.000990782536
0.0009901718845
0.0009893405184
0.0009882111355
0.0009867520737
0.0009852187995
0.0009845565084
0.0009843146452
0.0009842782961
0.0009843522826
0.0009845002307
0.000984716172
0.0009850126828
0.0009854181399
0.0009859804745
0.0009867788389
0.0009879520564
0.0009897646452
0.0009928596293
560.2897023
499.8532599
215.2958743
48.60409447
7.282865368
0.6794010583
0.0397639516
0.002587468708
0.001070273171
0.0009748347712
0.0009439707135
0.0009280771426
0.0009200783941
0.0009169156716
0.0009168048266
0.0009184440351
0.000921427898
0.0009255788138
0.0009307401919
0.0009367542327
0.0009434918471
0.0009507723062
0.0009583390514
0.0009658603552
0.000972963355
0.0009792958534
0.0009845927492
0.0009887196806
0.0009916798148
0.0009935884176
0.0009946309932
0.0009950204992
0.0009949627521
0.0009946341419
0.000994171512
0.0009936701271
0.0009931857791
0.0009927392646
0.0009923226148
0.0009919067902
0.0009914505022
0.0009909080484
0.0009902285471
0.0009893414922
0.0009881634122
0.0009866428169
0.0009852039867
0.0009845862924
0.0009843637362
0.0009843367864
0.0009844169907
0.0009845707676
0.0009847931895
0.0009850971049
0.0009855108238
0.000986082051
0.000986889664
0.0009880722675
0.0009898942066
0.0009929969158
553.8763935
464.2010973
167.5687716
34.49092366
4.634626545
0.3918659776
0.02216805483
0.001889788525
0.001041326992
0.0009712241831
0.000944809783
0.0009313303544
0.0009248761342
0.0009227490184
0.0009233855788
0.0009256557606
0.0009292201206
0.0009339020369
0.000939534296
0.0009459425799
0.0009529542107
0.000960332344
0.0009677665709
0.0009748940012
0.0009813507256
0.0009868369358
0.0009911695373
0.0009943026457
0.0009963136965
0.0009973671779
0.0009976720882
0.0009974447693
0.0009968818858
0.0009961446913
0.0009953534245
0.0009945878589
0.0009938905944
0.0009932718183
0.0009927152685
0.0009921853732
0.0009916355496
0.0009910160199
0.0009902733965
0.0009893346347
0.0009881115117
0.0009865315711
0.0009851905067
0.000984615295
0.0009844114639
0.0009843938738
0.0009844804357
0.0009846402513
0.0009848694251
0.0009851811049
0.0009856035714
0.0009861843336
0.0009870019928
0.0009881948097
0.0009900264771
0.000993134646
547.7862651
417.1882326
126.3995678
23.77166569
2.920752937
0.2262231309
0.01247480425
0.001494198551
0.001022227156
0.0009691938119
0.0009467029355
0.0009354343911
0.0009304133793
0.0009292811482
0.0009306384094
0.000933526958
0.0009376527939
0.0009428312053
0.000948874649
0.0009555808905
0.0009627271078
0.0009700235407
0.0009771225292
0.0009836580382
0.0009893054669
0.0009938387737
0.0009971627458
0.0009993115982
0.001000420773
0.001000686678
0.001000327838
0.0009995548016
0.0009985502015
0.0009974583486
0.0009963828998
0.0009953890561
0.0009945074522
0.0009937388923
0.0009930599211
0.0009924293781
0.0009917961623
0.0009911070154
0.000990306549
0.0009893197319
0.0009880549522
0.0009864281747
0.0009851786921
0.0009846437576
0.0009844580146
0.000984449726
0.0009845427882
0.0009847088648
0.0009849450731
0.0009852648814
0.0009856965731
0.0009862874867
0.0009871159422
0.0009883197253
0.0009901614125
0.0009932727824
543.4764525
360.6224589
92.72666972
15.90637364
1.8142029
0.1283138128
0.007007693707
0.001267562539
0.00100989822
0.0009686231352
0.0009496047873
0.0009403652132
0.0009366815993
0.0009364943839
0.0009385474049
0.0009420336583
0.0009466850592
0.0009522995287
0.0009586609241
0.0009655321258
0.0009726409953
0.0009796574301
0.0009862208262
0.0009919915445
0.0009967083926
0.001000229511
0.001002543046
0.001003748788
0.001004022592
0.001003577404
0.001002630472
0.001001380386
0.000999993124
0.0009985956704
0.0009972758959
0.0009960856915
0.0009950450513
0.0009941465967
0.0009933606988
0.0009926414543
0.000991933927
0.0009911818906
0.00099032838
0.0009892968082
0.000987992966
0.0009863327077
0.0009851687493
0.0009846718793
0.0009845035655
0.0009845045105
0.0009846042186
0.000984776787
0.0009850203205
0.0009853486232
0.0009857900079
0.0009863916637
0.0009872316176
0.0009884470453
0.0009902989582
0.0009934112721
541.9459913
299.2403581
65.92648514
10.79114445
1.12813155
0.07145976109
0.004017966534
0.00114593426
0.001002611371
0.0009694415496
0.0009535019063
0.0009461234963
0.000943687305
0.0009443903406
0.0009471007359
0.0009511428784
0.0009562551104
0.0009622113303
0.000968762213
0.0009756338496
0.000982513242
0.0009890500249
0.0009948981534
0.0009997699422
0.001003481998
0.001005976304
0.001007312389
0.001007638475
0.001007154439
0.001006077409
0.00100461578
0.001002952582
0.00100123621
0.000999576896
0.0009980479683
0.0009966894135
0.0009955118976
0.0009945009773
0.0009936217655
0.0009928243586
0.0009920505769
0.0009912416607
0.0009903394242
0.0009892660732
0.0009879249991
0.0009862450376
0.000985160793
0.0009846998263
0.0009845482839
0.0009845583921
0.0009846648943
0.0009848441914
0.0009850953461
0.0009854325085
0.0009858840434
0.0009864970053
0.0009873491117
0.0009885767888
0.0009904390408
0.0009935500476
542.6225017
238.0204792
50.28483286
7.643102021
0.6953521697
0.03824478107
0.002436754971
0.001083611967
0.0009988617914
0.0009715972141
0.000958400457
0.000952720588
0.0009514340289
0.0009529529713
0.000956259693
0.00096078701
0.0009662643213
0.000972436474
0.000979020273
0.0009857081373
0.0009921619695
0.0009980358901
0.001003024268
0.001006908912
0.001009588059
0.001011078716
0.001011495858
0.001011019275
0.001009859172
0.001008227831
0.001006320062
0.001004301716
0.001002303848
0.001000421094
0.0009987136908
0.0009972111358
0.0009959159986
0.0009948077789
0.0009938471355
0.0009929808057
0.0009921478717
0.0009912874065
0.0009903403007
0.0009892278555
0.0009878506663
0.0009861648964
0.0009851548744
0.0009847277379
0.0009845923276
0.0009846115309
0.0009847249778
0.0009849112445
0.0009851703194
0.0009855167046
0.0009859788344
0.0009866036393
0.0009874685033
0.0009887089613
0.0009905815556
0.0009936890269
543.2442927
182.2993925
39.14133006
5.424128046
0.4131971497
0.01904249967
0.001638126409
0.001053191169
0.0009976987711
0.0009750315343
0.0009642760737
0.0009601283042
0.0009598789454
0.0009621175114
0.0009659415732
0.0009708597013
0.0009765817448
0.0009828205517
0.0009892624352
0.0009955763607
0.00100142089
0.001006479898
0.001010507894
0.001013363809
0.001015022196
0.001015561047
0.001015134058
0.00101393788
0.001012182641
0.001010069824
0.001007778189
0.001005456196
0.001003218545
0.001001145722
0.0009992863664
0.0009976608326
0.0009962647068
0.0009950723189
0.0009940405677
0.0009931133785
0.0009922275244
0.0009913202148
0.000990331665
0.0009891825586
0.0009877697096
0.0009860919378
0.0009851510015
0.0009847557333
0.0009846358442
0.0009846640805
0.0009847846253
0.000984978105
0.0009852453997
0.0009856013668
0.0009860745229
0.0009867116795
0.000987589857
0.0009888435521
0.0009907263753
0.0009938281135
543.8611506
144.1080043
30.42451663
3.748556941
0.2268293526
0.008638065751
0.001272961983
0.001039423632
0.0009985154722
0.0009796321798
0.000971043729
0.0009682651042
0.0009689280638
0.000971786936
0.0009760368619
0.0009812330114
0.0009870591054
0.0009931978744
0.0009993148471
0.001005072853
0.001010151115
0.001014284161
0.001017297393
0.001019125066
0.001019806444
0.001019464528
0.001018276457
0.001016444135
0.001014170408
0.001011642538
0.001009022435
0.001006441874
0.001004000578
0.001001766428
0.0009997779106
0.000998047456
0.0009965646522
0.000995299426
0.0009942055087
0.0009932244763
0.0009922911543
0.0009913411384
0.000990314174
0.0009891306298
0.0009876819524
0.0009860257765
0.0009851491546
0.000984783915
0.0009846789715
0.0009847161873
0.0009848439851
0.0009850449223
0.0009853207358
0.0009856866383
0.0009861712371
0.0009868212248
0.0009877132217
0.0009889805339
0.000990873373
0.0009939671975
542.38609
123.8983857
24.74972828
2.508394759
0.1103871157
0.003665664313
0.001134239931
0.001033934546
0.001000928438
0.0009852738599
0.0009786074283
0.0009770312816
0.000978482371
0.0009818592093
0.0009864282594
0.0009917687042
0.0009975386623
0.00100340013
0.001009013328
0.001014055835
0.001018248588
0.001021389738
0.001023377004
0.001024211083
0.001023981291
0.001022840289
0.001020976102
0.001018587502
0.001015865605
0.001012981944
0.001010081894
0.001007281779
0.001004667894
0.001002297033
0.001000198849
0.0009983789362
0.0009968217353
0.0009954934257
0.0009943450718
0.0009933162909
0.0009923402629
0.0009913511732
0.0009902884661
0.0009890725419
0.0009875872575
0.0009859660156
0.0009851492973
0.0009848123725
0.0009847218376
0.0009847679892
0.0009849031971
0.0009851118362
0.0009853964653
0.0009857726493
0.000986269091
0.0009869323589
0.0009878386304
0.0009891198634
0.0009910224024
0.0009941061581
537.0911374
115.2845583
20.39767936
1.559242624
0.04374669317
0.001740732514
0.001092722497
0.001032368868
0.001004718192
0.0009918888014
0.0009868758387
0.0009863380643
0.0009884571011
0.0009922312745
0.000996988512
0.001002316797
0.001007857056
0.001013265232
0.001018214326
0.001022416136
0.001025647544
0.001027774415
0.00102876068
0.001028660595
0.001027598603
0.00102574388
0.001023285912
0.001020414851
0.001017307783
0.001014120329
0.001010982328
0.001007996143
0.001005236202
0.001002749619
0.001000558399
0.0009986622383
0.0009970411627
0.0009956581574
0.0009944620421
0.000993390802
0.000992376225
0.0009913512475
0.0009902551498
0.000989008786
0.0009874854855
0.0009859122639
0.0009851513836
0.0009848411843
0.0009847645609
0.0009848196148
0.0009849623917
0.0009851789759
0.0009854727137
0.0009858595167
0.0009863681837
0.0009870451492
0.0009879660992
0.0009892614786
0.000991173278
0.0009942448695
526.9390282
114.3980896
16.6188471
0.8948904936
0.01392572861
0.001249073934
0.001081770119
0.001033165074
0.001009816537
0.0009993493671
0.0009957686477
0.0009961114908
0.0009987551182
0.00100278145
0.0010075714
0.001012716418
0.001017853377
0.001022648487
0.001026804546
0.001030081859
0.001032319354
0.001033447124
0.001033484494
0.001032525255
0.001030715654
0.001028231132
0.001025256164
0.001021969133
0.001018532333
0.001015086146
0.00101174623
0.001008602543
0.00100571912
0.001003134666
0.00100086457
0.0009989034383
0.0009972274976
0.0009957970063
0.0009945588925
0.0009934497844
0.0009924002887
0.0009913422199
0.0009902147992
0.0009889398733
0.0009873764562
0.0009858641471
0.0009851553631
0.0009848704199
0.0009848072501
0.0009848711835
0.0009850216891
0.0009852464597
0.0009855495941
0.0009859473431
0.0009864685983
0.0009871596458
0.000988095626
0.0009894052923
0.0009913257827
0.0009943832016
511.9094428
107.0262921
12.68253452
0.463944934
0.003845303688
0.001171542946
0.001077529598
0.001035710966
0.001015983236
0.001007561251
0.001005193569
0.001006240438
0.001009244583
0.001013360298
0.001018014927
0.00102280616
0.00102738158
0.001031433166
0.001034706611
0.001037018133
0.00103826752
0.001038440462
0.001037598952
0.001035863232
0.00103339057
0.001030355337
0.001026932997
0.001023288754
0.00101957037
0.001015904141
0.001012393039
0.001009116124
0.001006128378
0.001003461215
0.001001124292
0.0009991078118
0.0009973847209
0.0009959129415
0.0009946378072
0.0009934948194
0.0009924135808
0.000991324879
0.0009901679506
0.0009888663413
0.0009872599057
0.0009858213128
0.0009851611835
0.0009849001402
0.0009848500045
0.0009849228044
0.0009850811991
0.0009853143939
0.0009856272064
0.0009860362166
0.0009865704017
0.0009872758811
0.0009882271886
0.0009895511906
0.0009914797297
0.0009945210129
492.2167351
95.57897129
8.998480551
0.2083145764
0.001693350885
0.001155479956
0.00107568781
0.001039679691
0.001023067793
0.001016386492
0.001015009914
0.001016574839
0.001019765846
0.001023802881
0.00102815628
0.001032438571
0.00103632215
0.001039537196
0.001041879834
0.001043222909
0.001043520579
0.001042802979
0.001041162319
0.001038734308
0.001035679224
0.001032165573
0.001028357712
0.001024407449
0.001020448892
0.001016595628
0.001012939438
0.001009549868
0.00100647404
0.001003737038
0.001001343543
0.0009992799285
0.0009975162969
0.0009960085617
0.0009947007105
0.0009935273131
0.0009924171169
0.0009912999505
0.0009901151028
0.000988788771
0.0009871354463
0.0009857834332
0.0009851687927
0.0009849303989
0.0009848929136
0.0009849745765
0.0009851410205
0.0009853828732
0.0009857056372
0.0009861262099
0.0009866736436
0.0009873938688
0.0009883607437
0.0009896990405
0.000991634973
0.0009946581381
468.439572
81.88561339
5.957165548
0.09044419929
0.001427898807
0.001144785245
0.001075881414
0.001044847455
0.001030890691
0.001025659885
0.001025054536
0.001026948974
0.001030152474
0.00103394806
0.00103784905
0.001041493789
0.001044590758
0.001046915969
0.001048317783
0.001048721125
0.001048125084
0.001046592752
0.001044235718
0.001041196704
0.001037633514
0.001033706012
0.001029566703
0.00102535453
0.00102119115
0.001017178874
0.00101339969
0.001009914877
0.001006764725
0.001003968812
0.001001527475
0.0009994237438
0.0009976252393
0.0009960861399
0.0009947492974
0.0009935485157
0.0009924118139
0.0009912681044
0.0009900567164
0.0009887078107
0.000987014432
0.0009857502058
0.0009851781396
0.0009849612424
0.0009849360575
0.0009850265885
0.0009852012409
0.0009854519795
0.0009857849591
0.0009862173801
0.0009867783562
0.0009875136032
0.0009884962262
0.0009898486946
0.0009917913285
0.0009947943982
440.7828554
68.37197097
3.808974556
0.04015727605
0.001319947978
0.001137606688
0.001077783453
0.001050985404
0.001039262968
0.001035206094
0.001035156068
0.00103719425
0.001040243491
0.001043650099
0.001046972572
0.0010498849
0.001052138666
0.001053558151
0.00105404091
0.001053556193
0.001052137721
0.001049871165
0.00104687886
0.001043304529
0.001039300092
0.001035015474
0.001030591468
0.001026155122
0.001021816963
0.001017669406
0.00101378592
0.001010220599
0.001007007788
0.001004162252
0.001001680518
0.0009995426748
0.0009977141645
0.0009961476613
0.0009947850588
0.0009935595387
0.0009923985007
0.0009912299629
0.0009899932121
0.0009886237058
0.0009869039165
0.0009857213517
0.0009851891739
0.0009849927102
0.0009849795069
0.0009850789184
0.0009852619362
0.000985521782
0.00098586523
0.0009863097673
0.0009868845529
0.0009876350579
0.0009886335487
0.0009899999888
0.0009919485701
0.000994929616
409.0179557
55.4183381
2.431808949
0.01538910164
0.001269917703
0.001133332327
0.001081101807
0.001057874289
0.001047995444
0.001044847484
0.001045143682
0.00104714948
0.0010498942
0.001052788491
0.001055438392
0.001057559966
0.001058950276
0.001059479855
0.001059089186
0.001057782836
0.001055619484
0.001052698843
0.001049147636
0.00104510664
0.001040720058
0.001036127595
0.00103145901
0.001026830623
0.001022343153
0.001018080393
0.001014108418
0.001010475073
0.001007209508
0.001004322259
0.001001806489
0.0009996396793
0.0009977853499
0.0009961948646
0.0009948093113
0.0009935613749
0.0009923779328
0.0009911861126
0.0009899249907
0.0009885363992
0.0009868031575
0.0009856966146
0.0009852018464
0.0009850248352
0.0009850233227
0.0009851316331
0.0009853231699
0.0009855923362
0.0009859464924
0.0009864033945
0.0009869922275
0.0009877581851
0.0009887726001
0.0009901527405
0.0009921064586
0.0009950636055
373.1451272
43.61611399
1.493436704
0.006521071117
0.00124446779
0.001131403881
0.00108552916
0.001065285437
0.001056894801
0.00105440819
0.001054856126
0.001056672317
0.001058987385
0.001061276648
0.001063194697
0.001064501997
0.001065039546
0.001064719055
0.0010635162
0.001061462077
0.001058632124
0.001055133593
0.001051093241
0.001046646572
0.001041929352
0.001037071413
0.001032192449
0.001027399269
0.00102278403
0.001018423043
0.001014375957
0.001010685173
0.001007375274
0.001004453056
0.001001908689
0.0009997173286
0.000997840786
0.0009962292788
0.0009948232217
0.0009935549148
0.0009923508023
0.0009911371121
0.0009898524479
0.0009884457914
0.0009867114799
0.0009856757578
0.0009852161084
0.0009850576434
0.0009850675564
0.0009851847886
0.0009853849937
0.0009856636838
0.0009860287732
0.0009864982668
0.0009871013542
0.0009878829147
0.0009889132455
0.0009903067468
0.0009922647362
0.0009951961721
334.187106
32.83216424
0.8557935023
0.003227893564
0.00122922512
0.001131365651
0.00109078449
0.001073000406
0.001065775367
0.00106372396
0.001064151383
0.001065647538
0.001067438815
0.001069063337
0.001070223586
0.001070723036
0.001070442334
0.001069327772
0.001067382395
0.00106465615
0.001061234801
0.00105722852
0.001052761357
0.001047962395
0.001042958962
0.001037871742
0.001032811435
0.001027876522
0.001023151725
0.001018706864
0.001014596004
0.001010856768
0.001007509706
0.001004558281
0.001001989978
0.0009997778631
0.0009978822172
0.000996252254
0.0009948278301
0.0009935409636
0.0009923177514
0.0009910835046
0.000989775988
0.0009883517085
0.0009866282715
0.0009856585628
0.0009852319112
0.0009850911538
0.0009851122494
0.0009852384293
0.0009854474457
0.0009857358514
0.0009861120818
0.0009865943693
0.0009872118848
0.0009880091519
0.0009890553241
0.0009904617826
0.0009924231286
0.0009953271195
292.9008575