/*--------------------------------*- C++ -*----------------------------------*\
  =========                 |
  \\      /  F ield         | OpenFOAM: The Open Source CFD Toolbox
   \\    /   O peration     | Website:  https://openfoam.org
    \\  /    A nd           | Version:  12
     \\/     M anipulation  |
\*---------------------------------------------------------------------------*/
FoamFile
{
    format      ascii;
    class       volScalarField;
    location    "1400";
    object      Ma;
}
// * * * * * * * * * * * * * * * * * * * * * * * * * * * * * * * * * * * * * //

dimensions      [];

internalField   nonuniform List<scalar> 
16200
(
0.5344857978
0.6375090873
0.6957009924
0.741891047
0.7853409202
0.8316381181
0.8827288819
0.9292000932
0.945849364
0.9462718485
0.9451653607
0.9441208298
0.9428334084
0.9414140687
0.9397460435
0.9378352275
0.9356082942
0.9330252242
0.930017285
0.9265179389
0.9224472171
0.9177186752
0.9122375646
0.9059039933
0.8986171394
0.8902829043
0.8808265321
0.870211169
0.8584631302
0.8457017324
0.8321658331
0.8182205352
0.8043269033
0.7909741209
0.7785976884
0.767516318
0.7579063226
0.7498106291
0.7431673796
0.7378439636
0.733668356
0.7304546598
0.7280218831
0.7262060434
0.7248664512
0.7238875425
0.7231775113
0.722665423
0.7222976273
0.7220342305
0.721845943
0.7217114334
0.7216152603
0.7215461591
0.7214960479
0.7214587049
0.7214305818
0.7214080201
0.7213891885
0.7213676567
0.5480218205
0.654678039
0.7148215062
0.7625929169
0.8078950322
0.8566456974
0.9094340823
0.9492774093
0.9586437864
0.958328401
0.9571570475
0.9560250705
0.9546389952
0.9531013138
0.9512897676
0.9492050018
0.9467688231
0.9439332589
0.94062247
0.93676016
0.9322565587
0.9270138777
0.9209259264
0.9138816156
0.9057711725
0.8964966723
0.8859892449
0.8742337274
0.8613009319
0.8473820066
0.8328094031
0.8180418173
0.8036023342
0.7899878823
0.7775881124
0.7666436856
0.7572482208
0.7493778941
0.7429288899
0.7377503398
0.733669195
0.7305080475
0.7280976502
0.7262851051
0.7249383928
0.7239478714
0.7232253401
0.7227017602
0.7223242834
0.7220531808
0.7218590068
0.7217201532
0.721620865
0.7215496281
0.7214980541
0.721459837
0.721431
0.7214081115
0.7213890929
0.7213660109
0.5613203387
0.6715660565
0.733638196
0.7830688869
0.8303708557
0.8813794335
0.9347684661
0.9651837858
0.9693467507
0.9685090804
0.9672661048
0.9660321251
0.9645174337
0.9628263454
0.9608326868
0.9585300126
0.9558354822
0.9526920465
0.9490160957
0.9447204969
0.9397044931
0.9338577705
0.9270617659
0.9191943024
0.9101388589
0.8997995357
0.8881246131
0.8751391306
0.8609843315
0.8459513908
0.830484914
0.815134209
0.8004584194
0.7869243072
0.7748404805
0.7643459912
0.7554407067
0.7480316964
0.7419750995
0.7371051251
0.7332512987
0.730248397
0.7279427262
0.7261963313
0.7248895972
0.7239221927
0.7232124252
0.7226955342
0.7223213451
0.7220517231
0.7218581309
0.7217194576
0.7216202024
0.7215489864
0.7214974499
0.7214593444
0.7214305556
0.7214078049
0.7213891597
0.7213661087
0.5736056989
0.6870236518
0.7508410456
0.8020407742
0.8516376057
0.9046547357
0.9556204215
0.9761233354
0.9772986219
0.9763015064
0.9749782735
0.9736255026
0.97196809
0.9701046602
0.9679063324
0.965357609
0.9623707241
0.9588783661
0.9547882968
0.9500016669
0.9444060046
0.9378783468
0.9302887361
0.9215070757
0.9114166974
0.8999353605
0.8870467672
0.8728415459
0.8575598214
0.8416128782
0.8255548838
0.8099952575
0.7954814512
0.7824042767
0.770961822
0.7611813693
0.7529728169
0.7461842787
0.740642694
0.7361761921
0.7326232358
0.7298352529
0.7276774178
0.7260294052
0.7247862885
0.7238590139
0.7231740413
0.7226722156
0.7223070669
0.7220428291
0.7218524391
0.721715686
0.7216176072
0.7215471501
0.7214961274
0.7214584155
0.721429859
0.7214073068
0.7213890004
0.7213656797
0.5846342617
0.7009267183
0.7663495971
0.8192930901
0.8713506824
0.926372626
0.9705905274
0.982757211
0.9825927282
0.9814873717
0.9800816963
0.9785881286
0.976764082
0.9746997733
0.9722649689
0.9694334631
0.9661123038
0.9622228342
0.9576632078
0.9523220345
0.9460747429
0.9387865793
0.9303189969
0.9205399824
0.9093433007
0.8966771576
0.8825845855
0.8672504254
0.8510376737
0.8344822271
0.8182230104
0.8028813248
0.7889403756
0.7766768277
0.7661620706
0.7573139438
0.7499647167
0.7439181706
0.7389844329
0.7349942373
0.7318003585
0.7292740254
0.7273012453
0.7257807877
0.7246237083
0.7237534502
0.7231057516
0.722628058
0.7222784405
0.7220241739
0.7218401904
0.7217075711
0.7216121814
0.7215435011
0.7214936735
0.721456794
0.7214287758
0.7214065867
0.7213887528
0.7213653812
0.5940558038
0.7129703675
0.7798985567
0.8346166134
0.8891125521
0.9455390109
0.9803305911
0.9863317393
0.9852085783
0.9840615831
0.9824812168
0.9808308498
0.9788228615
0.976535129
0.9738367993
0.9706890836
0.966993051
0.9626577592
0.9575711938
0.9516097749
0.9446381863
0.9365130868
0.9270931117
0.9162541333
0.9039157127
0.8900785737
0.8748726057
0.8586028109
0.8417655297
0.8250030978
0.8089926274
0.7943092358
0.7813242942
0.7701761633
0.7608085045
0.7530433764
0.7466542273
0.7414178574
0.7371405177
0.7336637408
0.7308590673
0.7286195938
0.7268529967
0.7254775127
0.7244204803
0.7236182118
0.7230161662
0.7225688588
0.7222393478
0.7219983414
0.7218230926
0.7216962314
0.7216046477
0.7215384999
0.7214903714
0.7214546494
0.7214273882
0.7214056755
0.7213883717
0.7213649551
0.601793002
0.7232070504
0.7916464219
0.8483791117
0.9053566131
0.9606541595
0.9854880701
0.9881406715
0.9853656929
0.984059821
0.9823418427
0.9805082958
0.9782873236
0.9757409605
0.9727384658
0.9692275351
0.9651031243
0.9602622062
0.9545830525
0.9479312822
0.9401632238
0.9311316013
0.9207004242
0.908766887
0.8952960998
0.8803668729
0.8642225491
0.8473042341
0.8302321372
0.8137145307
0.7984073548
0.7847843306
0.7730719582
0.7632635211
0.7551873182
0.7485905099
0.7432087184
0.738808442
0.7352032449
0.7322518208
0.7298473746
0.7279056861
0.7263559194
0.7251353012
0.7241870408
0.7234601048
0.7229096489
0.7224973689
0.722191493
0.7219663677
0.7218017617
0.721682023
0.7215952049
0.7215322522
0.7214862728
0.7214520059
0.7214257051
0.7214045822
0.7213878827
0.7213644859
0.6077636482
0.7316371209
0.8017537031
0.8608307717
0.9203304855
0.9703350149
0.9849619137
0.9845266047
0.9831279336
0.9817014736
0.9798095511
0.9777635054
0.9752979673
0.9724566329
0.9691094302
0.9651899971
0.9605868558
0.9551850419
0.9488534178
0.9414485128
0.9328219639
0.9228298422
0.9113535946
0.8983295027
0.8837915514
0.8679227356
0.8510999318
0.8338998475
0.8170348843
0.8012221282
0.7870352583
0.7748039324
0.7645952181
0.7562664696
0.7495523857
0.7441493303
0.739775421
0.736201238
0.7332563741
0.730821018
0.7288114603
0.7271659325
0.7258341303
0.7247711756
0.7239352202
0.7232872314
0.7227916722
0.722417236
0.7221372759
0.7219298099
0.7217771926
0.7216655704
0.7215842362
0.7215249867
0.7214815088
0.7214489355
0.7214237598
0.7214033212
0.7213872855
0.7213639417
0.611919993
0.7382410131
0.810372431
0.8720257863
0.9334903768
0.9754158185
0.9820030194
0.9805814387
0.9787452869
0.9771496788
0.975070745
0.9727903833
0.9700554852
0.9668892281
0.9631619738
0.9587927863
0.953663209
0.9476469608
0.9406049104
0.9323883115
0.9228508236
0.9118626861
0.8993382684
0.8852734833
0.8697956848
0.8532146287
0.8360483889
0.8189880834
0.8027869885
0.7881068946
0.7753872388
0.7647895278
0.7562251676
0.7494367485
0.7440919145
0.7398599931
0.7364591369
0.7336751215
0.7313595076
0.7294163171
0.7277850416
0.7264253123
0.7253058639
0.7243982311
0.7236742665
0.7231060153
0.7226666267
0.7223314142
0.7220786523
0.7218899411
0.7217501986
0.7216473817
0.7215720506
0.7215168852
0.7214761814
0.7214454925
0.7214215773
0.7214019049
0.7213865889
0.7213633324
0.6145966242
0.7435354284
0.8179924714
0.8822953451
0.9435914386
0.9747580931
0.9758097503
0.9743713683
0.9724932018
0.970708774
0.9684182922
0.9658741009
0.962836448
0.9593066175
0.9551550226
0.9502864007
0.9445755143
0.9378867553
0.9300761868
0.9209956364
0.910509589
0.898515249
0.8849774678
0.8699742678
0.8537502319
0.8367562994
0.8196413357
0.8031681063
0.7880669063
0.7748841922
0.7638902665
0.7550744909
0.7482112733
0.7429566027
0.7389382421
0.7358194397
0.7333321232
0.7312849522
0.7295548489
0.728070337
0.7267932328
0.7257029582
0.7247854805
0.7240270629
0.7234118584
0.7229219236
0.7225383378
0.7222425349
0.7220174018
0.7218479436
0.7217215497
0.7216279472
0.7215589521
0.7215081297
0.721470395
0.7214417332
0.7214191838
0.7214003453
0.7213857973
0.7213626532
0.6159853933
0.7478531469
0.8249646825
0.8921782189
0.9497520936
0.9690125276
0.9682452504
0.9666413373
0.9646026144
0.9626027198
0.9600750732
0.9572355881
0.9538591238
0.9499244717
0.9453018162
0.9398827942
0.9335365063
0.9261210985
0.9174921344
0.9075090664
0.896057676
0.8830774295
0.8686045072
0.852823479
0.8361156848
0.8190727455
0.8024417285
0.7869967916
0.773379536
0.7619751519
0.7528708967
0.7458978203
0.7407217575
0.7369424056
0.7341723318
0.7320854754
0.7304372342
0.7290637077
0.7278684624
0.7268039249
0.72585268
0.7250120108
0.7242831764
0.7236654261
0.7231537734
0.7227391735
0.7224098238
0.7221527174
0.7219549844
0.7218048036
0.7216918985
0.7216076885
0.7215452052
0.7214988806
0.7214642421
0.7214377083
0.7214166035
0.7213986537
0.7213849151
0.7213619045
0.6161922259
0.7514770089
0.8313938158
0.9011845504
0.9517978147
0.961117685
0.9591831788
0.9574838728
0.9552763524
0.9530336909
0.9502388022
0.9470688545
0.943313989
0.9389310817
0.9337899131
0.9277707034
0.9207381724
0.9125475888
0.9030592308
0.8921491536
0.8797382049
0.865827715
0.8505495645
0.8342176308
0.8173576163
0.8006797586
0.7849755581
0.7709623742
0.7591371845
0.7496986221
0.7425574289
0.7374131202
0.7338556511
0.7314569866
0.7298348021
0.7286858834
0.7277950689
0.7270278766
0.7263142148
0.7256289514
0.7249734867
0.7243609067
0.7238058207
0.7233187654
0.7229042149
0.72256093
0.7222834132
0.7220636375
0.7218925811
0.7217613362
0.7216617947
0.7215869674
0.7215310412
0.7214892805
0.7214578069
0.7214334645
0.7214138587
0.7213968408
0.721383946
0.7213610847
0.6153557085
0.7547357959
0.837659057
0.9082157735
0.9462986005
0.9514042918
0.94889983
0.947084929
0.9446712201
0.942156678
0.9390637576
0.9355289076
0.9313570932
0.926484006
0.9207781565
0.9141098622
0.9063412598
0.8973297452
0.8869485321
0.8751033228
0.8617685276
0.8470309372
0.8311423585
0.8145594788
0.7979400842
0.782067775
0.7677113498
0.7554677282
0.74565223
0.7382739712
0.7330900181
0.729702127
0.7276565839
0.7265218638
0.7259359141
0.7256261621
0.7254097592
0.7251816774
0.7248967805
0.7245504016
0.7241606307
0.7237543096
0.7233575478
0.7229905766
0.7226660227
0.7223894223
0.7221608038
0.7219765547
0.7218311033
0.7217181855
0.7216316829
0.7215660827
0.7215166552
0.7214794521
0.7214511632
0.7214290434
0.7214109703
0.7213949168
0.7213828953
0.7213601934
0.6136707731
0.757848133
0.8440261484
0.9124870564
0.9394423009
0.9402503724
0.9375222867
0.9355598095
0.9329181733
0.9301073052
0.9266867954
0.9227524428
0.9181220018
0.9127113047
0.906387541
0.8990145911
0.8904566978
0.8805818011
0.8692880554
0.8565277466
0.8423508637
0.8269538718
0.8107258372
0.79426235
0.7783175279
0.7636855236
0.7510442821
0.7408223977
0.7331395775
0.7278319368
0.7245359215
0.7227906977
0.7221272248
0.7221291834
0.7224649268
0.7228966246
0.7232742544
0.7235209397
0.7236144585
0.7235683911
0.7234153833
0.7231940908
0.7229404183
0.7226828434
0.7224409545
0.7222261199
0.7220431714
0.7218923763
0.7217712304
0.7216758461
0.7216019137
0.7215452764
0.7215022088
0.7214694998
0.7214443751
0.7214244824
0.721407957
0.721392892
0.7213817709
0.7213592299
0.6115609751
0.7610311495
0.8499606538
0.9133591103
0.9288319965
0.9280827033
0.9252306531
0.9230629839
0.9201580753
0.9170104658
0.9132150687
0.9088290403
0.903681563
0.8976719957
0.8906681327
0.8825327896
0.8731388499
0.8623750977
0.8501793249
0.8365705438
0.8216979085
0.805887183
0.789667481
0.7737470211
0.7589203086
0.7459229481
0.735285358
0.7272423348
0.7217260138
0.7184296952
0.7169061435
0.7166641915
0.717242091
0.7182517387
0.7193976572
0.720477999
0.7213744343
0.722036113
0.7224613625
0.7226797489
0.7227364395
0.7226801226
0.7225549673
0.722396406
0.7222299291
0.7220718895
0.7219312672
0.7218117175
0.7217134447
0.7216346832
0.7215727551
0.7215247389
0.7214878334
0.7214595107
0.721437498
0.7214198144
0.7214048359
0.7213907768
0.7213805791
0.7213581941
0.6094284359
0.7646873899
0.8544088944
0.9081117033
0.9167550473
0.9149931507
0.9120069872
0.909579623
0.9063707834
0.9028406506
0.8986198307
0.8937295102
0.8880096657
0.8813468599
0.8736117029
0.8646718157
0.8544170489
0.8427707169
0.8297294888
0.8154022106
0.8000580393
0.7841596133
0.7683583499
0.7534275183
0.7401353688
0.7290964051
0.7206571105
0.7148564662
0.7114640803
0.7100675065
0.7101713966
0.7112809625
0.7129581242
0.714850908
0.7167023152
0.7183456907
0.7196922299
0.7207145608
0.7214291108
0.7218792586
0.7221208224
0.7222109297
0.7222006641
0.722131282
0.7220332441
0.7219271402
0.721825513
0.7217349614
0.7216580691
0.7215949551
0.7215444052
0.721504617
0.7214736335
0.7214495566
0.7214305789
0.7214150686
0.721401623
0.7213885814
0.7213793172
0.7213570859
0.6076906228
0.7683148238
0.8564279503
0.8989867381
0.9031239253
0.9009094899
0.8977683788
0.8950357788
0.8914902528
0.8875412366
0.8828541138
0.8774165417
0.8710784103
0.8637175206
0.8552111906
0.8454411491
0.8343277237
0.8218476044
0.8080783701
0.7932390722
0.7777290573
0.7621370346
0.7471980646
0.7336891009
0.7222870429
0.7134395659
0.7072963697
0.703718418
0.7023480111
0.702704792
0.7042759712
0.7065832528
0.7092227836
0.7118825041
0.7143436994
0.7164728092
0.718207833
0.7195421935
0.7205080437
0.7211605672
0.7215645583
0.7217841846
0.7218762719
0.7218869204
0.7218507534
0.7217919438
0.7217260813
0.7216623114
0.7216053002
0.7215568335
0.7215170047
0.7214850201
0.7214596911
0.721439696
0.7214236579
0.7214102707
0.7213983329
0.7213863143
0.72137797
0.7213559043
0.6071618626
0.7713228572
0.8554179225
0.8881817163
0.8883198674
0.8858418724
0.8825065562
0.8794295675
0.8755115558
0.8711029664
0.8659033565
0.8598701354
0.8528642634
0.8447619788
0.835455737
0.8248551384
0.812928096
0.7997240982
0.7854199272
0.770355886
0.7550563236
0.7402062802
0.7265704822
0.7148651815
0.7056232581
0.699102049
0.6952633544
0.6938213773
0.6943297569
0.6962743547
0.6991489718
0.7025054608
0.7059798999
0.7093008619
0.7122860659
0.7148322178
0.716901194
0.7185045868
0.7196880705
0.7205168305
0.7210631673
0.7213970771
0.7215801205
0.7216624008
0.7216820089
0.7216661343
0.7216329628
0.7215938364
0.7215552377
0.7215204222
0.721490648
0.7214660279
0.721446069
0.7214299763
0.7214167688
0.7214054431
0.7213949793
0.7213839815
0.7213765078
0.7213546484
0.6086431315
0.772978445
0.8514417883
0.8740649703
0.8724382118
0.8697783406
0.8661930923
0.862723275
0.8583860826
0.8534671688
0.847702264
0.841024335
0.8333094501
0.8244425691
0.8143421158
0.8029600363
0.7903276664
0.7765831678
0.7620142003
0.7470820756
0.7324150757
0.7187491507
0.7068177257
0.6972194593
0.6903100773
0.6861555711
0.6845551329
0.6851139005
0.68733355
0.6906940277
0.694712831
0.6989800351
0.7031736496
0.7070615146
0.710494965
0.7133978344
0.7157529778
0.7175877062
0.7189592298
0.719941151
0.7206120041
0.721046577
0.7213103062
0.7214565826
0.7215263692
0.7215493851
0.7215460208
0.7215295073
0.7215079085
0.721485773
0.7214653934
0.7214476953
0.7214328146
0.7214204354
0.7214099403
0.7214006061
0.7213915751
0.7213815859
0.7213749389
0.7213533179
0.6122973137
0.7727480128
0.842250808
0.8586036612
0.855443885
0.8525796472
0.8486965756
0.844789189
0.8399916809
0.834522577
0.8281567088
0.8208102922
0.8123791204
0.802767373
0.7919298437
0.7798743285
0.7667101034
0.7526768623
0.7381775704
0.7237812393
0.7101832627
0.698114678
0.6882191069
0.6809365983
0.6764346569
0.6746056358
0.6751209773
0.6775147723
0.6812680345
0.6858755346
0.6908893216
0.6959413759
0.7007510463
0.7051228006
0.7089383133
0.7121453846
0.7147451225
0.7167783416
0.7183120382
0.71942686
0.7202064863
0.7207296159
0.7210648343
0.7212682132
0.721383081
0.7214412687
0.7214650332
0.7214692269
0.7214632872
0.7214528986
0.7214412714
0.7214300582
0.7214199626
0.7214111035
0.7214031967
0.7213957777
0.7213881325
0.7213791315
0.7213733138
0.7213519148
0.6172012816
0.7706879614
0.8291656918
0.8412509189
0.8372194992
0.8341288699
0.8299125345
0.8255415688
0.8202635707
0.8142295863
0.8072550958
0.7992480703
0.790128462
0.779830398
0.7683566916
0.7557858542
0.7423196171
0.7283071773
0.7142595918
0.7008242062
0.6887135515
0.6785958694
0.6709782685
0.6661217491
0.6640146994
0.6644060609
0.666877357
0.6709256324
0.6760355687
0.6817307214
0.68760346
0.693328181
0.6986633281
0.7034466982
0.7075869247
0.7110527702
0.7138611204
0.7160643365
0.7177376855
0.718967685
0.7198422366
0.7204432061
0.7208417154
0.7210960048
0.7212513376
0.7213413004
0.721389725
0.7214128524
0.7214213115
0.7214217834
0.7214182914
0.7214131379
0.7214075378
0.7214020044
0.7213965586
0.721390974
0.7213846633
0.721376627
0.7213715957
0.7213504459
0.6210916626
0.7666210236
0.81521687
0.822423306
0.8178155703
0.8144578546
0.8098884205
0.8050367132
0.7992662858
0.7926632782
0.7850835672
0.776437409
0.766675479
0.7557752526
0.743802726
0.7309224398
0.7174385052
0.7038060528
0.6906206834
0.6785639592
0.6683101447
0.6604147339
0.6552199597
0.6528080042
0.6530122657
0.6554742915
0.659721348
0.6652410416
0.6715389671
0.678175687
0.6847858606
0.6910847112
0.6968666125
0.7019991649
0.7064147002
0.710100196
0.7130861216
0.7154346868
0.7172281294
0.7185578412
0.7195151673
0.7201845154
0.7206390298
0.7209386864
0.7211303209
0.7212489705
0.7213197921
0.7213602132
0.721381895
0.7213923922
0.7213964477
0.7213969444
0.7213955572
0.7213931571
0.7213900439
0.72138621
0.7213811782
0.721374075
0.721369802
0.7213489194
0.6241715059
0.7600894216
0.7982799822
0.8023276627
0.7973601377
0.7936705649
0.7887265244
0.7833720384
0.7770897733
0.769909684
0.7617284007
0.7524728407
0.7421349491
0.7307517379
0.7184670297
0.7055410547
0.6923785619
0.6795214053
0.6676114671
0.6573131889
0.6492119009
0.643716082
0.6409949355
0.6409688726
0.6433489424
0.6477053494
0.6535413908
0.6603557466
0.6676858868
0.6751331625
0.6823738807
0.6891612547
0.6953220262
0.7007501287
0.7053985807
0.709270129
0.7124069168
0.714879545
0.71677612
0.7181920669
0.7192215209
0.7199509085
0.7204549652
0.7207950379
0.721019229
0.7211637668
0.7212549186
0.7213111235
0.7213449362
0.7213646762
0.7213757236
0.7213814792
0.7213840318
0.7213845762
0.721383668
0.7213814993
0.7213776867
0.7213714799
0.7213679547
0.7213473389
0.6254839053
0.7509777624
0.7795962815
0.7811379772
0.7758923154
0.7717935343
0.7664439455
0.7605581528
0.7537403202
0.7459807698
0.7372192072
0.727415419
0.7166150368
0.7049274147
0.6925825626
0.6799352771
0.6674756402
0.6557999177
0.6455503529
0.637325163
0.6315828288
0.6285693737
0.6282905348
0.6305328714
0.6349201333
0.640983286
0.648225188
0.6561694566
0.6643913501
0.6725336223
0.6803119494
0.6875140793
0.6939955146
0.6996732742
0.7045183638
0.7085471627
0.7118118473
0.7143901714
0.7163751791
0.7178656235
0.7189578831
0.7197399657
0.7202878375
0.7206639101
0.7209172947
0.7210851897
0.7211947888
0.7212653917
0.7213103252
0.7213385787
0.7213560952
0.721366738
0.7213729682
0.7213762737
0.7213774446
0.7213768544
0.721374197
0.7213688542
0.7213661299
0.7213456964
0.6244217453
0.7353276591
0.7591835133
0.7587573239
0.7532880366
0.7487029219
0.7429237598
0.7364989908
0.729150239
0.7208485062
0.7115799304
0.7013506
0.6902693642
0.6785249239
0.6664335868
0.6544331898
0.6430730053
0.6329638937
0.6247026164
0.6187816787
0.6155114375
0.6149776755
0.6170448637
0.621398376
0.6276075119
0.6351900584
0.6436651972
0.6525897762
0.6615790176
0.6703156133
0.6785514348
0.686105122
0.6928575025
0.6987457419
0.7037564645
0.707917841
0.7112906851
0.713958857
0.7160195569
0.7175742754
0.7187211776
0.7195494876
0.7201360998
0.7205442357
0.7208237961
0.7210127619
0.7211390957
0.7212228272
0.7212779496
0.721314038
0.7213375336
0.7213527122
0.7213623693
0.7213682587
0.7213713856
0.7213722867
0.7213707179
0.7213662253
0.7213643816
0.7213439805
0.6206638584
0.7185406435
0.736915055
0.7349822899
0.7293423834
0.7242510886
0.7180546167
0.7111324278
0.7033106041
0.6945609101
0.6849199218
0.6744503782
0.663330971
0.6518313611
0.6403464908
0.6293764876
0.619495992
0.6112886382
0.6052662844
0.601790161
0.6010179594
0.6028911258
0.6071619104
0.6134469047
0.6212888313
0.6302117594
0.6397620069
0.6495336604
0.6591815214
0.668425528
0.6770501975
0.6849015063
0.6918824594
0.6979477734
0.7030976426
0.7073704592
0.710834493
0.7135788309
0.7157041741
0.7173142567
0.7185086496
0.7193774888
0.7199983441
0.7204350334
0.720738062
0.7209460342
0.7210875459
0.7211832444
0.7212476969
0.7212909908
0.7213200073
0.7213393901
0.7213522357
0.7213605387
0.7213655019
0.7213678061
0.7213672594
0.7213636271
0.7213625462
0.7213422098
0.6140110525
0.6998329519
0.7128919433
0.709814752
0.7040292396
0.69846443
0.6918895533
0.6845436403
0.6763439529
0.6672803338
0.6574450086
0.6469653684
0.6360924914
0.6251715899
0.6146597333
0.6050904464
0.5970261388
0.5909850069
0.5873656824
0.5863877586
0.5880657402
0.5922211799
0.5985248571
0.6065533685
0.6158446176
0.6259422894
0.6364258885
0.6469276945
0.6571400992
0.6668169854
0.6757719343
0.6838749505
0.6910484111
0.6972623279
0.7025287132
0.7068948515
0.7104354743
0.7132441571
0.7154245533
0.7170822284
0.7183178408
0.719222185
0.7198732951
0.7203354068
0.7206594736
0.7208845874
0.7210398625
0.7211464654
0.7212194575
0.7212693733
0.7213034829
0.7213267582
0.7213425658
0.7213531194
0.721359803
0.7213634221
0.7213638327
0.7213610744
0.7213606702
0.7213404226
0.6045232321
0.6797665707
0.6873648576
0.6833975667
0.6774610892
0.6714738267
0.6645733664
0.6568948093
0.6484381869
0.6392261613
0.6294103555
0.6191860895
0.6088728804
0.5988777651
0.5896954786
0.5818595065
0.575884042
0.5721922221
0.5710544822
0.572552139
0.5765757194
0.5828548749
0.5910076093
0.60059399
0.611162795
0.6222855377
0.6335774324
0.6447078933
0.6554040243
0.6654501619
0.6746855473
0.6830012296
0.6903365053
0.6966747455
0.7020382939
0.7064822063
0.7100868405
0.7129496419
0.7151767568
0.7168752373
0.7181465642
0.7190819786
0.7197598031
0.7202445413
0.7205874636
0.7208280341
0.7209957862
0.7211123218
0.7211931257
0.7212491229
0.7212879268
0.7213148015
0.7213333568
0.7213460054
0.7213542972
0.7213591428
0.7213604507
0.7213585835
0.721358698
0.7213386197
0.5924166232
0.6569648306
0.6604968789
0.6558194196
0.6497431615
0.6434028886
0.6362557377
0.6283652096
0.6198068807
0.6106478487
0.6011002322
0.5914246296
0.5819981378
0.5732689589
0.565740497
0.5599131676
0.5562234516
0.5549812143
0.5563266476
0.5602165415
0.5664417958
0.5746677469
0.5844840568
0.5954519903
0.6071415746
0.6191564127
0.6311475136
0.6428191564
0.6539298885
0.6642910813
0.673764518
0.68225966
0.6897306054
0.6961724359
0.7016165704
0.706124893
0.7097826863
0.7126907459
0.7149573258
0.7166906757
0.7179928775
0.7189554422
0.719656834
0.7201616994
0.7205215142
0.7207760174
0.7209550763
0.721080655
0.7211686008
0.7212301787
0.7212733051
0.7213035043
0.7213246047
0.7213392003
0.7213489921
0.7213549761
0.7213571268
0.7213561621
0.721356636
0.7213368336
0.5779600943
0.6319733224
0.6324078353
0.6271648174
0.6209906423
0.6143938465
0.6071096902
0.599160974
0.5906917604
0.5818201587
0.5728160264
0.5639964358
0.5557791147
0.5486285083
0.5430272713
0.5394144617
0.5381287738
0.5393602851
0.5431273707
0.5492823876
0.5575421384
0.5675322201
0.5788332381
0.5910200672
0.6036900852
0.6164804057
0.6290763632
0.6412142064
0.6526805956
0.6633107448
0.6729861971
0.681632538
0.6892168571
0.6957445497
0.7012550516
0.7058162821
0.7095178587
0.7124634904
0.7147632145
0.7165262365
0.7178550534
0.7188412992
0.7195634574
0.7200862129
0.7204611531
0.7207282091
0.7209175093
0.7210513165
0.7211457872
0.7212124821
0.7212595844
0.7212928503
0.7213163044
0.7213327065
0.7213438937
0.721350929
0.7213538756
0.7213538151
0.7213544801
0.7213350768
0.5612398822
0.6050985329
0.603223267
0.5975674366
0.5913466423
0.5846196563
0.5773394856
0.5695172133
0.5613585329
0.5530329621
0.5448604183
0.537200464
0.5304907406
0.5251862007
0.5217226053
0.5204568443
0.5216198787
0.5252855001
0.5313657663
0.5396312675
0.549748569
0.5613237764
0.5739426364
0.5872015895
0.600728274
0.6141928348
0.627312576
0.6398525958
0.6516244802
0.6624843994
0.6723312199
0.6811046862
0.6887833412
0.6953817163
0.7009463734
0.7055505997
0.7092878508
0.7122643802
0.7145917357
0.7163798743
0.7177315532
0.7187384066
0.7194788357
0.7200174765
0.7204059495
0.7206843076
0.7208828777
0.721024167
0.7211245942
0.7211959764
0.7212467319
0.7212828227
0.7213084503
0.7213265257
0.721339007
0.7213470084
0.7213507123
0.7213515444
0.7213522425
0.7213333685
0.5423860755
0.5765607653
0.5730751287
0.5671738552
0.5609916587
0.5542914216
0.54718908
0.5397038923
0.5320967835
0.5245846742
0.5175263189
0.5113068501
0.5063620609
0.5031136952
0.5019300407
0.5030733994
0.5066661965
0.5126767946
0.5209301353
0.5311373774
0.5429353825
0.5559263674
0.569710934
0.5839115723
0.5981868501
0.6122382879
0.6258123793
0.6386999796
0.6507346642
0.6617910035
0.6717830796
0.6806631194
0.6884198183
0.6950758504
0.7006841535
0.7053228199
0.7090887226
0.712090347
0.71444052
0.7162497779
0.7176210078
0.7186457423
0.7194022158
0.7199549428
0.7203555112
0.7206440364
0.7208509904
0.7209990769
0.7211049364
0.7211806076
0.7212347154
0.7212734048
0.721301036
0.7213206587
0.7213343359
0.7213432214
0.7213476529
0.7213493498
0.7213499287
0.7213317313
0.5215296037
0.5466254044
0.5419794126
0.5362274035
0.5301908908
0.523686325
0.5169505897
0.5100217381
0.5032083154
0.4967674686
0.4910828384
0.4865465485
0.483571501
0.4825263562
0.4836979944
0.4872497456
0.4932019428
0.5014328956
0.5117005485
0.5236767526
0.5369851991
0.5512354871
0.5660491378
0.5810766236
0.5960066307
0.6105697433
0.6245387408
0.637727311
0.6499883774
0.6612126751
0.6713276898
0.6802967042
0.6881174655
0.6948199508
0.7004628392
0.7051285499
0.7089170151
0.7119386853
0.714307469
0.7161343359
0.7175221936
0.718562388
0.7193329172
0.7198981144
0.7203094797
0.7206071409
0.7208216693
0.7209759246
0.7210867326
0.7211663238
0.7212235036
0.7212645793
0.7212940545
0.7213151053
0.721329883
0.7213395754
0.7213447129
0.7213472267
0.7213475487
0.7213302
0.4988512285
0.5156852789
0.5106445833
0.5049839253
0.4992238076
0.4930866291
0.48690826
0.4807520326
0.4749639567
0.4698310095
0.4657459134
0.46308916
0.4622322738
0.4634761131
0.4670190004
0.4729276744
0.481131752
0.4914368052
0.5035528051
0.5171292188
0.5317891118
0.5471570583
0.5628787873
0.5786329363
0.5941366142
0.6091468747
0.6234599566
0.6369097075
0.6493660675
0.6607340037
0.6709528579
0.6799957585
0.6878685728
0.6946078707
0.7002775334
0.7049638992
0.7087696525
0.7118069799
0.714190702
0.7160320981
0.7174340042
0.7184875094
0.7192703187
0.7198465344
0.7202675232
0.7205733838
0.7207947475
0.7209545945
0.721069905
0.7211530739
0.7212130649
0.7212563285
0.721287498
0.7213098639
0.7213256496
0.7213360783
0.7213419057
0.7213451657
0.7213451216
0.7213288182
0.4743574289
0.4841222423
0.479125425
0.4737053056
0.4683560805
0.462761493
0.4573302891
0.4521539488
0.447604205
0.4439856846
0.441684431
0.4410526069
0.4424058499
0.4459681034
0.4518480493
0.4600232552
0.4703467349
0.482568614
0.4963676185
0.5113842675
0.5272499679
0.5436089279
0.5601323638
0.5765261244
0.5925335707
0.6079355836
0.6225492161
0.6362260833
0.6488511064
0.6603418227
0.6706481108
0.6797519183
0.6876664419
0.6944342404
0.7001239356
0.7048254343
0.7086439075
0.7116930791
0.7140885359
0.7159417603
0.7173554398
0.7184203485
0.7192138525
0.7197997824
0.7202293348
0.7205425437
0.7207700676
0.7209349769
0.7210543787
0.7211408085
0.7212033677
0.721248634
0.7212813576
0.7213049315
0.721321636
0.7213327386
0.7213392415
0.7213431561
0.7213426969
0.7213276117
0.4486279738
0.4523274036
0.4476996317
0.4426458557
0.4378514151
0.4329731803
0.4284705302
0.4244630734
0.4213366325
0.4194012234
0.419021847
0.4205085703
0.4241109926
0.4299721947
0.4381149608
0.4484383719
0.4607338881
0.4747121511
0.4900345369
0.5063427318
0.5232824653
0.5405200174
0.5577519862
0.5747097907
0.5911606717
0.6069067806
0.6217835684
0.6356582989
0.6484291049
0.660024666
0.6704042707
0.6795578103
0.6875051364
0.694294278
0.6999982005
0.7047100739
0.7085373242
0.7115950391
0.7139994448
0.7158621361
0.717285587
0.7183602102
0.7191629951
0.719757469
0.7201946279
0.7205144125
0.7207474809
0.7209169669
0.7210400811
0.7211294787
0.7211943806
0.7212414769
0.7212756237
0.7213003038
0.7213178421
0.7213295648
0.7213367261
0.7213411907
0.7213403412
0.7213264826
0.421855358
0.4206923588
0.4166311378
0.4120739557
0.4079680456
0.4039630987
0.4005492115
0.3978714445
0.3963181636
0.3961929486
0.3978272195
0.401478227
0.4073233795
0.41542518
0.425727673
0.4380637997
0.4521781039
0.4677556177
0.4844513429
0.5019153391
0.519811291
0.5378283973
0.5556876464
0.5731440323
0.5899862913
0.6060354628
0.6211432303
0.6351906507
0.6480875407
0.6597724973
0.670213257
0.6794069058
0.6873793718
0.6941837072
0.6998968746
0.7046150403
0.7084476813
0.7115110961
0.7139220397
0.7157921416
0.7172236087
0.7183064545
0.7191172623
0.719719232
0.7201631348
0.7204887948
0.720726846
0.7209004641
0.7210269422
0.7211190366
0.721186072
0.721234838
0.7212702854
0.7212959752
0.7213142671
0.7213265649
0.7213343615
0.7213392678
0.7213380623
0.7213254879
0.394352807
0.389571097
0.3861855383
0.3822469459
0.3789456266
0.3759471387
0.3737538855
0.3725326106
0.3726638835
0.3744340719
0.3781303146
0.3839490442
0.3919927437
0.4022469246
0.4145862576
0.4287903586
0.4445702389
0.4615968214
0.4795270045
0.4980240284
0.5167713946
0.535480974
0.5538966208
0.571794768
0.5889833534
0.6053001282
0.6206110861
0.6348094574
0.6478154216
0.6595764404
0.670067871
0.6792933505
0.6872843827
0.6940986525
0.6998168154
0.7045377972
0.7083729437
0.7114396291
0.71385504
0.7157307743
0.7171687273
0.7182584842
0.7190762005
0.7196847303
0.7201346017
0.7204655037
0.7207080274
0.7208853712
0.7210148932
0.7211094348
0.7211784101
0.7212286969
0.7212653311
0.7212919389
0.7213109102
0.7213237452
0.721332145
0.7213373927