/*--------------------------------*- C++ -*----------------------------------*\
  =========                 |
  \\      /  F ield         | OpenFOAM: The Open Source CFD Toolbox
   \\    /   O peration     | Website:  https://openfoam.org
    \\  /    A nd           | Version:  12
     \\/     M anipulation  |
\*---------------------------------------------------------------------------*/
FoamFile
{
    format      ascii;
    class       volScalarField;
    location    "1400";
    object      omega;
}
// * * * * * * * * * * * * * * * * * * * * * * * * * * * * * * * * * * * * * //

dimensions      [0 0 -1 0 0 0 0];

internalField   nonuniform List<scalar> 
16200
(
714153.7213
283074.7872
160460.312
111249.2084
86535.00705
70377.14711
55397.41287
33579.35492
7672.683733
776.4611689
319.0651135
200.2899522
129.8349552
87.10630784
62.22014393
46.66696043
35.16126793
26.73798881
20.6083928
16.0173861
12.54022012
9.901482521
7.890708788
6.349255679
5.159083077
4.232243693
3.504437931
2.928956197
2.472116089
2.110079448
1.82542528
1.603866159
1.432324048
1.299623803
1.198024095
1.12251492
1.069190972
1.033943144
1.012238804
0.9997407487
0.9929776051
0.9895640729
0.9880434517
0.9876161376
0.9872686209
0.9865205618
0.985462871
0.9849696009
0.9847725979
0.9847110011
0.9847208679
0.9847837392
0.9849044186
0.9851026351
0.985411669
0.9858817935
0.9865882098
0.9876487108
0.9892607533
0.9918110002
750785.4818
298762.9666
169168.4134
117236.77
90917.0654
72894.24553
54816.93302
26684.18518
3989.483478
596.4102613
322.969692
204.0989971
132.3087939
88.55930189
62.8865238
47.09130033
35.38826451
26.8245296
20.62140335
15.99145199
12.49351446
9.846496676
7.835132135
6.297360698
5.11306373
4.192901933
3.471737021
2.902347057
2.450699061
2.092875235
1.811708173
1.593342593
1.42489093
1.294945188
1.195476544
1.121362514
1.068800181
1.03388885
1.012292276
0.9998025663
0.9930142312
0.9895678322
0.9880115666
0.9875456175
0.9872350064
0.9865737094
0.9855278871
0.9850361716
0.9848443487
0.9847896455
0.9848068492
0.9848766103
0.9850029959
0.985205009
0.985515237
0.9859833538
0.9866846683
0.9877388267
0.9893510007
0.9919387976
786049.1648
313998.3158
177635.2152
123054.4907
94841.06007
74834.82337
52341.37109
18907.85713
2090.120229
546.7767444
327.7738242
207.4823496
134.4734595
89.81447369
63.44459712
47.42792679
35.54460633
26.853969
20.58792097
15.92864865
12.41795249
9.769039591
7.761987967
6.231547113
5.05582104
4.144346789
3.431367444
2.869325749
2.423951882
2.071291344
1.794424647
1.579938048
1.415181615
1.288541557
1.191699334
1.119400003
1.067925895
1.033581012
1.012236902
0.9998362812
0.9930623106
0.9895997148
0.9880131863
0.9875051667
0.9872116881
0.9866152804
0.9855908395
0.9851025577
0.984915537
0.9848667485
0.9848903566
0.984966363
0.985098186
0.9853041459
0.9856161408
0.9860832471
0.9867807414
0.9878298492
0.9894425354
0.9920648572
818873.5079
328135.7569
185641.4995
128618.3289
98179.40681
76200.81039
47086.76357
11640.15459
1285.88006
536.7512322
331.5697172
210.1388976
136.1729737
90.7905112
63.85628258
47.65158466
35.61367271
26.81456898
20.50069384
15.82363894
12.30941664
9.665725061
7.668315536
6.149109913
4.984826355
4.084208006
3.381139712
2.827935996
2.390221207
2.044034786
1.772650277
1.563041093
1.402805919
1.28015631
1.186508298
1.116482587
1.066448778
1.03292121
1.011993364
0.9997797186
0.9930741751
0.9896236972
0.9880218561
0.9874795145
0.9871896432
0.9866289312
0.9856418518
0.9851626918
0.984982368
0.9849399247
0.9849699088
0.985052106
0.9851894812
0.9853997747
0.9857142506
0.9861814152
0.9868764396
0.9879218853
0.9895357198
0.992190041
848762.628
341175.4665
193094.2546
133835.2812
101211.7998
75657.06034
38150.89935
6450.970224
1009.440372
537.429466
334.3826168
212.10378
137.4167898
91.483674
64.12090093
47.75900436
35.59167082
26.70314563
20.35721583
15.67425401
12.16605079
9.534924008
7.552646494
6.048722641
4.898908191
4.011506876
3.32031758
2.777729989
2.349369774
2.011256617
1.746751381
1.543125706
1.388240956
1.270199549
1.180217616
1.112829966
1.064510903
1.031995167
1.011610418
0.9996593598
0.9930637064
0.9896467433
0.988040834
0.9874702373
0.987174006
0.9866301243
0.9856855789
0.9852190401
0.985046326
0.9850101922
0.9850462789
0.9851344626
0.985277394
0.9854923105
0.9858098887
0.9862780892
0.9869719217
0.9880150696
0.9896307586
0.9923145402
875174.0807
353138.3239
200061.2138
138544.8865
103724.8041
72632.48791
29097.79424
3786.526518
927.8435081
539.5280617
336.0658359
213.2952615
138.1549115
91.8607964
64.21965673
47.73485778
35.4665708
26.51080583
20.15084837
15.47528171
11.98373138
9.373324171
7.41229428
5.9282283
4.796396241
3.925050576
3.248182426
2.718434888
2.301497413
1.973315316
1.717215651
1.520691675
1.371916379
1.258992732
1.173039665
1.108565986
1.062174441
1.030827394
1.01109254
0.9994707538
0.9930235537
0.9896613112
0.9880633895
0.9874730029
0.987163874
0.9866291717
0.9857211684
0.9852710101
0.9851071029
0.9850774683
0.9851195415
0.9852136051
0.9853621472
0.985581987
0.9859032699
0.9863734432
0.9870673204
0.9881095198
0.9897278449
0.9924386573
897886.1144
364237.9341
206737.6601
142528.6349
106049.4615
66578.62869
20630.89236
2530.295634
901.6991587
539.7996575
336.5054173
213.7001096
138.3776336
91.90993421
64.14239755
47.56849367
35.22839393
26.22942499
19.87522746
15.2217587
11.75871859
9.178165914
7.245279136
5.78630918
4.676568739
3.824669665
3.165057327
2.650759578
2.247546391
1.931223576
1.684996067
1.49655266
1.354472805
1.247003995
1.165292727
1.103892078
1.059557616
1.029481629
1.010470706
0.9992268547
0.9929576184
0.9896671123
0.9880873338
0.9874850013
0.9871581041
0.9866260709
0.9857501612
0.9853192335
0.9851650469
0.9851420416
0.985189992
0.985289844
0.9854440536
0.9856691004
0.9859946547
0.9864676853
0.9871627878
0.988205351
0.9898271224
0.9925625865
916666.5177
374675.2407
213312.9134
146372.5959
106250.8618
55623.46109
13391.58961
1979.61591
886.2587103
538.6362392
335.8471139
213.3414965
138.0831236
91.61938911
63.87512484
47.24595478
34.86502367
25.85015347
19.52428499
14.90967534
11.48852546
8.948018479
7.05092861
5.62290317
4.539892936
3.710877184
3.071841887
2.575856027
2.188739704
1.88611597
1.651163154
1.471535841
1.336517241
1.234656601
1.157255756
1.09898088
1.05675986
1.028010362
1.009769576
0.9989371959
0.9928679629
0.9896628675
0.9881099331
0.987503026
0.987155087
0.986620301
0.9857734052
0.9853639623
0.9852202772
0.9852040517
0.9852578251
0.9853634212
0.9855233806
0.9857539194
0.9860842894
0.9865610192
0.9872584757
0.9883026712
0.989928708
0.9926865031
931403.5962
384869.1057
219639.193
149877.0489
102999.545
44256.96496
8608.527723
1717.026177
881.4499226
535.7528594
333.9823036
212.1670204
137.2437534
90.97219041
63.4031466
46.75555167
34.36780668
25.36792192
19.09545303
14.53810198
11.17326059
8.683612385
6.830386977
5.439494524
4.387531502
3.58592993
2.970909309
2.495981745
2.127037179
1.839550913
1.616666428
1.446418445
1.318598255
1.222327747
1.14917891
1.093990548
1.053875403
1.026465822
1.009015612
0.9986136014
0.9927587319
0.9896489797
0.9881297488
0.9875244594
0.9871535007
0.98661142
0.9857920912
0.9854056371
0.9852730099
0.9852636849
0.9853232553
0.9854345851
0.9856003972
0.9858367133
0.9861724226
0.9866536533
0.9873545392
0.9884015838
0.99003269
0.9928105415
942433.0913
394900.4007
225248.5035
153555.1966
95766.75033
33675.02249
5845.665496
1583.481167
873.4773719
531.0902712
330.9272115
210.1854024
135.8656356
89.97065386
62.71994212
46.09138433
33.73249524
24.78139272
18.58932196
14.10884279
10.8153237
8.387553821
6.585429607
5.237882205
4.222689368
3.452647358
2.864889198
2.413408406
2.064247286
1.792873631
1.582546295
1.421831682
1.301143652
1.210306648
1.141254412
1.089044321
1.050979192
1.024890602
1.008231065
0.9982664506
0.9926338819
0.9896261646
0.9881458492
0.9875470885
0.9871521879
0.9865989578
0.9858072504
0.9854446485
0.9853234415
0.9853211128
0.9853864826
0.9855035696
0.9856753594
0.985917742
0.9862592976
0.9867457942
0.9874511329
0.9885021869
0.9901391346
0.992934809
949963.5645
404935.5535
230464.8795
156039.4329
83043.78737
24029.58887
4270.06817
1504.467484
863.2186897
524.7692531
326.7450462
207.4285725
133.9654363
88.62368038
61.82104753
45.24973434
32.95754732
24.09241906
18.0095378
13.62637417
10.41920981
8.062828251
6.320346235
5.022403868
4.048953007
3.31433643
2.756633468
2.330402708
2.002029731
1.74721609
1.549537574
1.398242775
1.28445829
1.198797697
1.133620388
1.084233532
1.048128861
1.023318801
1.007434597
0.9979050118
0.9924973699
0.9895955647
0.9881578917
0.9875692025
0.9871502523
0.9865825199
0.9858198435
0.9854813926
0.9853717841
0.9853765162
0.9854477073
0.9855706038
0.985748516
0.9859972582
0.9863451525
0.9868376459
0.9875484095
0.9886045726
0.9902480868
0.9930593856
954111.4182
415003.2327
235702.5975
153489.5192
68979.04274
16613.41474
3395.731985
1449.287074
848.8105017
516.7770231
321.4549218
203.915293
131.5587016
86.94312089
60.70351467
44.22944835
32.04487183
23.30660315
17.36281872
13.0974046
9.989348036
7.715120891
6.039857118
4.797455412
3.870381046
3.17452499
2.648962097
2.249028795
1.941774755
1.703450121
1.518160658
1.375957601
1.268731784
1.187926952
1.126364555
1.07961899
1.045364765
1.021775482
1.006640608
0.9975368425
0.9923526934
0.9895584157
0.9881658903
0.9875895227
0.9871470275
0.9865617932
0.9858306768
0.9855162295
0.9854182467
0.9854300763
0.9855071273
0.9856359101
0.9858201072
0.9860755062
0.9864302184
0.9869294074
0.9876465181
0.9887088263
0.9903595735
0.9931843276
955059.6526
424836.2061
241446.5952
145324.3911
56269.12685
11860.13805
2911.424976
1406.335499
831.0799357
507.1539578
315.1387413
199.6933939
128.6748865
84.94903781
59.36837295
43.0333145
31.00054515
22.43329703
16.65833267
12.52831557
9.533064979
7.350238429
5.749232627
4.567946291
3.691306324
3.036705487
2.544436027
2.171005668
1.884544076
1.662182326
1.48874087
1.355145898
1.254060483
1.177758068
1.119534376
1.075236811
1.042713008
1.02027806
1.005859755
0.9971679135
0.9922028528
0.9895159584
0.9881701147
0.9876071498
0.9871420564
0.9865365613
0.9858404127
0.9855494846
0.9854630357
0.9854819764
0.9855649384
0.9856997049
0.9858903647
0.9861527212
0.9865147184
0.9870212715
0.9877456025
0.9888150264
0.990473604
0.9933096698
953137.7366
433557.5259
248822.81
131773.7215
42895.62458
8704.720645
2610.334305
1364.811256
810.7122335
494.9101332
307.8365436
194.8013194
125.3452926
82.66513623
57.8189852
41.66679809
29.83371316
21.48442753
15.9065222
11.92816183
9.057471252
6.974381138
5.454311825
4.339151033
3.516016353
2.904003918
2.445131729
2.097603359
1.831050692
1.623774122
1.461439988
1.335870699
1.240470213
1.168307906
1.113146763
1.071103921
1.040188275
1.018837598
1.00509945
0.9968027139
0.992050302
0.9894693407
0.9881709777
0.9876214903
0.9871350515
0.9865066987
0.9858495727
0.9855814438
0.9855063501
0.9855323985
0.9856213334
0.9857621984
0.9859595116
0.9862291289
0.9865988668
0.9871134238
0.9878458001
0.9889232428
0.9905901717
0.9934354271
948933.7015
441106.4459
250451.1653
113787.46
32051.25467
6719.980798
2411.79901
1322.064241
787.8648228
481.163301
299.1386661
189.3170044
121.6163886
80.11958345
56.05996727
40.13672731
28.55584024
20.47384867
15.11500285
11.30597564
8.569907091
6.594416955
5.161489522
4.116329444
3.348285119
2.778851109
2.352487223
2.029606682
1.781679522
1.588380347
1.436361591
1.318118234
1.227937968
1.159561197
1.107197333
1.067223489
1.037796794
1.017460287
1.004364508
0.996444488
0.9918969926
0.9894195823
0.9881689637
0.9876321906
0.9871258592
0.9864721599
0.9858585567
0.9856123564
0.9855483804
0.985581522
0.9856765011
0.9858235936
0.986027762
0.9863049453
0.986682868
0.9872060409
0.9879472404
0.9890335367
0.9907092543
0.9935615968
942986.4144
445157.884
242230.6336
98593.56399
24166.48133
5489.151962
2272.976244
1279.882792
763.5011715
466.2126546
289.5525383
183.0315163
117.5160444
77.33101896
54.09220084
38.45023745
27.18102398
19.41732023
14.29734344
10.67074407
8.078367906
6.218027482
4.877251268
3.904053703
3.190916679
2.662796234
2.267275763
1.967352465
1.736538462
1.555990499
1.41337447
1.301823442
1.216409538
1.151482275
1.101667842
1.063589369
1.035538812
1.016148717
1.003657742
0.9960954671
0.9917444316
0.9893675588
0.9881645752
0.9876390776
0.987114426
0.9864363049
0.985867664
0.985642438
0.9855893073
0.985629522
0.985730625
0.9858840863
0.9860953202
0.9863803757
0.9867669166
0.9872992902
0.9880500443
0.9891459593
0.990830817
0.9936881592
936186.0688
443595.5142
225958.9566
82054.37491
18297.68829
4695.498109
2163.591608
1236.876301
737.5390019
450.072646
279.1455842
176.1624334
112.9381555
74.32000457
51.91983362
36.61968163
25.72835299
18.32451043
13.46556179
10.03197998
7.591988021
5.853297835
4.607274924
3.705617605
3.045573968
2.55655034
2.189708852
1.910824977
1.695529057
1.526486507
1.392366034
1.28689072
1.205813269
1.144024148
1.096532008
1.060189654
1.03341064
1.014902979
1.0029805
0.9957570995
0.9915937571
0.9893140059
0.9881583016
0.9876421099
0.9871005992
0.9864035283
0.9858771143
0.9856718755
0.9856293011
0.9856765679
0.9857838825
0.9859438638
0.9861623809
0.9864556146
0.9868511957
0.9873933286
0.9881543224
0.9892605512
0.9909548147
0.9938150794
929879.7334
435196.2327
201557.0857
65800.88891
14014.65925
4158.195452
2065.304354
1192.277061
709.9915535
432.8218405
267.9924652
168.7854586
108.0079535
71.06569944
49.55017849
34.66261022
24.22104706
17.2203176
12.63145388
9.400232551
7.120727635
5.507456004
4.355559754
3.522852265
2.912903446
2.46016931
2.119591636
1.859765401
1.658415004
1.499712389
1.373189439
1.27320862
1.196069434
1.137134629
1.091759499
1.057009185
1.031406135
1.013721478
1.002333079
0.9954302382
0.9914458057
0.9892595296
0.9881505996
0.987641347
0.9870840956
0.9863739276
0.9858870662
0.9857008316
0.9856685219
0.9857228226
0.9858364437
0.9860031046
0.9862291281
0.9865308453
0.9869358773
0.9874883017
0.9882601746
0.9893773422
0.991081191
0.9939423082
925033.2254
420476.8262
176675.5242
52211.23371
11025.21317
3787.01625
1972.572239
1146.365342
681.2881095
414.7111157
256.2361343
160.9858455
102.7919887
67.62185398
46.99554912
32.6043051
22.67365556
16.12462928
11.80747852
8.787498338
6.67405412
5.185658931
4.1242545
3.356386086
2.792823496
2.3732788
2.056481028
1.813774909
1.624898074
1.475398638
1.355682813
1.260660991
1.187097093
1.13076079
1.087318875
1.054031438
1.029517861
1.0126016
1.001715078
0.9951153074
0.991301179
0.9892046235
0.988141886
0.987636926
0.9870647219
0.986347502
0.9858976334
0.9857294489
0.9857071197
0.9857684414
0.9858884708
0.986061978
0.9862957356
0.9866062396
0.9870211213
0.9875843432
0.9883676885
0.9894963502
0.9912098739
0.9940697829
921226.9514
400913.0954
158914.774
41514.23251
8953.471326
3515.901877
1884.708576
1097.792875
651.5695476
395.8302665
243.9349346
152.8081675
97.32703832
64.0445321
44.27600008
30.4791645
21.12716841
15.04571946
11.0071374
8.205877379
6.258908472
4.890554116
3.913981469
3.205989161
2.684771976
2.295243769
1.999798743
1.772385701
1.594611671
1.453306185
1.339681012
1.249133247
1.178817745
1.124851326
1.083179206
1.051239624
1.027737793
1.011540132
1.001125628
0.99481242
0.991160294
0.9891496823
0.9881325355
0.9876290326
0.9870423551
0.9863241871
0.9859088968
0.9857578533
0.9857452347
0.9858135717
0.9859401178
0.9861206438
0.9863623661
0.9866819575
0.9871070753
0.9876815743
0.9884769396
0.9896175803
0.9913407705
0.9941974279
916617.57
378645.1699
142165.3352
32796.68484
7503.974761
3301.940221
1799.10204
1048.059302
620.9873688
376.2939493
231.1815473
144.3278039
91.70698168
60.38265945
41.42915832
28.33237515
19.6138936
13.99784836
10.24513528
7.665231825
5.878952442
4.622848482
3.724367099
3.070904545
2.587916549
2.225304794
1.948918794
1.735120376
1.567212566
1.433199759
1.325025227
1.238517431
1.171158247
1.119358439
1.079311373
1.04861759
1.026057909
1.010533632
1.000563606
0.994521485
0.9910234323
0.9890950193
0.9881228858
0.9876178828
0.9870169247
0.9863038798
0.9859209139
0.985786157
0.9857829976
0.9858583523
0.9859915294
0.9861792517
0.9864291712
0.9867581468
0.9871938742
0.9877801032
0.9885879893
0.9897410231
0.9914737714
0.9943251551
911342.9654
350443.1374
123226.5045
25554.97804
6471.287964
3114.121655
1714.808425
997.4789017
589.8433107
356.3171351
218.1265044
135.6898231
86.0695446
56.64789049
38.50828944
26.20052286
18.16172056
12.99672653
9.534924325
7.171067878
5.535043711
4.381940592
3.55438291
2.950045764
2.501278719
2.162655094
1.903214085
1.7015105
1.542372465
1.414856584
1.311566963
1.228713931
1.164051626
1.11423836
1.075688498
1.046150171
1.024470466
1.009578613
1.000027743
0.9942422733
0.9908907721
0.989040877
0.9881132447
0.9876037087
0.9869883927
0.9862864561
0.9859337262
0.9858144605
0.9858205297
0.9859029136
0.9860428417
0.9862379413
0.9864962913
0.9868349432
0.9872816397
0.987880024
0.988700885
0.9898666544
0.9916087599
0.994452865
903762.6361
328329.5014
106090.4367
19883.67143
5755.251954
2948.516858
1631.549049
946.9103674
558.6450079
336.1968051
205.0777991
127.1316262
80.35527779
52.84406664
35.58027148
24.14749464
16.7929106
12.05854149
8.885461072
6.72478207
5.226274723
4.16642975
3.402609291
2.84215709
2.423831459
2.106497221
1.862087513
1.671123749
1.51978855
1.398072077
1.299170709
1.219632585
1.157437584
1.109451676
1.072286229
1.043823452
1.022968205
1.008671692
0.9995167297
0.9939744722
0.9907624169
0.9889874383
0.9881038992
0.9875867509
0.9869567353
0.9862717836
0.9859473639
0.9858428543
0.9858579435
0.9859473771
0.9860941808
0.9862968416
0.9865638552
0.9869124696
0.9873704799
0.9879814164
0.9888156588
0.9899944347
0.991745604
0.9945804477
892564.956
316899.1969
89330.59176
15599.04119
5269.167724
2799.98538
1548.252035
897.1853466
527.8243143
316.6546022
192.1727391
118.4993404
74.62570291
48.96370763
32.72179478
22.22232002
15.52414622
11.1971291
8.299860715
6.325117677
4.950711219
3.974437054
3.267421196
2.745925794
2.354562815
2.056076243
1.824989219
1.64356773
1.49918775
1.382662021
1.287714767
1.211192827
1.151262433
1.104963293
1.069082778
1.041624854
1.021544449
1.007809676
0.9990292675
0.9937177237
0.9906384176
0.9889348329
0.988095127
0.9875672557
0.986921925
0.9862597289
0.9859618495
0.9858714201
0.9858953427
0.9859918553
0.9861456637
0.9863560713
0.9866319799
0.9869908361
0.9874604889
0.9880843451
0.9889323275
0.9901243077
0.9918841471
0.9947077863
877034.8952
312846.7786
72783.94626
12704.79614
4947.771992
2665.161697
1469.037585
849.8879264
498.4315379
297.1678249
179.2007174
109.8754417
68.95877792
45.1009982
30.01100821
20.44671582
14.36658512
10.4200609
7.776900794
5.969434059
4.705859302
3.803854276
3.147139052
2.660068844
2.292521731
2.010701943
1.791425727
1.618494212
1.480328777
1.368463649
1.277091686
1.203323722
1.145479019
1.100742395
1.066058953
1.039543205
1.020193189
1.006989632
0.9985641242
0.9934716565
0.9905187915
0.988883144
0.9880846885
0.9875454759
0.9868839134
0.9862501631
0.9859772
0.9859002316
0.9859328224
0.9860364514
0.9861973971
0.9864157378
0.9867007703
0.9870701391
0.9875517457
0.9881888586
0.9890508902
0.9902561973
0.9920242117
0.9948347574
857250.0067
297711.6143
56908.93325
10865.52602
4703.053221
2530.615143
1396.173115
803.9670148
469.0430643
277.6525166
166.2470539
101.3622004
63.4485923
41.36779409
27.50979749
18.83855706
13.32599721
9.727440295
7.312847793
5.654255781
4.488879744
3.652469001
3.040097472
2.583364625
2.236828578
1.9697489
1.76095611
1.595594665
1.462998502
1.355333058
1.267206395
1.195962607
1.140045772
1.09676183
1.063197796
1.037568568
1.018909012
1.006208869
0.9981201358
0.9932358946
0.990403531
0.9888325093
0.9880713929
0.9875216735
0.9868426129
0.9862429638
0.9859934284
0.9859293552
0.9859704692
0.9860812597
0.9862494777
0.9864759375
0.9867703188
0.9871504612
0.9876443141
0.9882949886
0.9891713285
0.990390006
0.992165626
0.9949612278
833427.6027
273629.8755
43004.09306
9711.668425
4484.876644
2405.652155
1324.206789
758.4901695
439.8061247
258.2436334
153.459644
93.10093955
58.20217693
37.87246948
25.25294065
17.40247784
12.39767706
9.114732509
6.90291105
5.375768143
4.296862103
3.518122519
2.944730036
2.514694711
2.186693589
1.932663263
1.733193539
1.574599929
1.447011331
1.343144784
1.257975904
1.189054816
1.13492648
1.092997962
1.060484525
1.035692228
1.017687121
1.005464963
0.997696231
0.9930100744
0.9902926126
0.9887830894
0.9880554803
0.9874961276
0.9867978788
0.9862380167
0.9860105444
0.9859588503
0.9860083613
0.9861263652
0.9863019922
0.9865367556
0.986840705
0.9872318708
0.987738242
0.9884027498
0.9892936044
0.9905256187
0.9923082293
0.9950870506
806048.1417
242012.3262
32140.2851
9047.337208
4285.933085
2283.705255
1253.83551
713.8792798
410.9712253
239.1405277
141.0368713
85.24971183
53.3169254
34.69120749
23.24819472
16.13319562
11.5780695
8.575303697
6.541849812
5.130069411
4.126963824
3.398779532
2.859598584
2.453052169
2.141415676
1.898958213
1.707800273
1.555275952
1.432206092
1.331789759
1.24932798
1.182552785
1.130089681
1.08943029
1.057906309
1.033906584
1.016523292
1.004755753
0.9972914331
0.9927938508
0.9901860019
0.9887350224
0.9880371723
0.9874691449
0.9867547287
0.9862352157
0.986028555
0.9859887694
0.9860465686
0.9861718433
0.9863550167
0.9865982654
0.9869119954
0.9873144214
0.9878335606
0.9885121385
0.9894176606
0.9906629041
0.9924518369
0.9952120688
775195.0505
205300.4054
24875.24697
8594.881886
4090.931916
2165.80676
1185.479903
670.3807049
382.7183055
220.5425293
129.1862905
77.94414297
48.85853591
31.8551749
21.48462606
15.01880772
10.8587163
8.101723868
6.224282371
4.91332806
3.97648821
3.292559621
2.783400488
2.397538079
2.100375386
1.868206691
1.684481464
1.537419022
1.418442645
1.321173051
1.241199677
1.176415073
1.125508011
1.086041015
1.055452004
1.032205008
1.015413806
1.004079306
0.9969048538
0.9925868981
0.990083657
0.9886884336
0.9880166712
0.987440853
0.9867162879
0.9862344622
0.9860474644
0.9860191585
0.9860851525
0.9862177601
0.9864086168
0.9866605281
0.9869842429
0.9873981508
0.987930284
0.9886231319
0.9895434191
0.9908017133
0.9925962384
0.9953361234
740491.4684
167650.111
20599.74347
8185.895939
3895.252064
2053.125164
1119.727537
628.3248045
355.2990123
202.7204732
118.127348
71.28863355
44.8597588
29.36301468
19.94382577
14.04521821
10.2296111
7.686724183
5.945132358
4.722025545
3.843011582
3.197800681
2.714998602
2.347374732
2.06304014
1.840043086
1.662985402
1.520855533
1.405601643
1.311213783
1.23353734
1.170606371
1.121158193
1.082815033
1.053112161
1.030581851
1.014355462
1.003433941
0.9965357062
0.9923889194
0.9899855361
0.9886434473
0.9879941687
0.9874112442
0.9866822504
0.9862356651
0.986067274
0.9860500568
0.9861241659
0.9862641719
0.9864628468
0.9867235926
0.9870574861
0.9874830809
0.9880284079
0.9887356873
0.9896707807
0.9909418791
0.992741211
0.9954590486
701583.236
134045.0605
17894.39418
7788.832719
3709.98203
1945.883714
1056.723149
587.8335814
328.9025751
185.9254145
108.0125077
65.32688424
41.30277731
27.19025829
18.60255104
13.19661796
9.680051504
7.323039343
5.699486113
4.552841327
3.724291126
3.112987178
2.653367165
2.301865934
2.028935696
1.814143015
1.643089331
1.50543213
1.393577755
1.301840554
1.226293575
1.165095507
1.117019728
1.079739087
1.050878493
1.029032144
1.01334542
1.002818143
0.9961832685
0.9921996321
0.9898915925
0.988600195
0.9879698527
0.9873802901
0.9866523374
0.9862387389
0.9860879825
0.9860814968
0.9861636534
0.9863111251
0.9865177499
0.9867874948
0.9871317487
0.9875692169
0.9881279096
0.9888497414
0.9897996245
0.9910832151
0.9928865168
0.9955806724
658906.3409
105005.4906
16241.24051
7429.194903
3535.807375
1844.69942
996.7732081
549.1219905
303.8082961
170.4152807
98.93529854
60.06494187
38.18641139
25.3051432
17.43773968
12.45784708
9.200017409
7.004021975
5.482922697
4.402828467
3.618357479
3.036798868
2.597617634
2.260410967
1.997653931
1.79022784
1.624602189
1.491017458
1.382280877
1.292992345
1.219427917
1.159855905
1.113075198
1.076801963
1.048744002
1.02755167
1.012381242
1.002230596
0.9958469034
0.9920187785
0.989801781
0.9885588278
0.987943913
0.9873479278
0.986626295
0.9862436032
0.9861095851
0.9861135041
0.9862036503
0.9863586554
0.9865733573
0.9868522568
0.9872070388
0.9876565455
0.9882287457
0.9889652082
0.9899298059
0.9912255142
0.9930319035
0.9957008197
612522.4965
80861.94038
15162.31688
7107.638711
3373.272969
1750.130658
940.1664588
512.4066438
280.3160885
156.3719574
90.91429769
55.47094966
35.48080633
23.6735911
16.42711761
11.81463556
8.780278299
6.723658593
5.291501368
4.269390873
3.523491419
2.968091032
2.546983479
2.222493554
1.968845117
1.768059392
1.607361062
1.477499803
1.371634588
1.284617553
1.212906249
1.154865235
1.109310044
1.073994348
1.046702902
1.026136931
1.011460886
1.001670182
0.9955260602
0.9918461296
0.9897160582
0.9885195298
0.9879165492
0.9873140427
0.9866038917
0.9862501813
0.9861320719
0.9861460953
0.9862441809
0.9864067857
0.9866296847
0.9869178831
0.9872833442
0.9877450309
0.9883308475
0.9890819738
0.9900611513
0.9913685432
0.9931771006
0.9958193041
562073.4445
62022.59656
14478.23431
6825.856711
3222.875874
1662.60774
887.1595244
477.9057061
258.6981095
143.8710249
83.90835496
51.48897463
33.14256185
22.26256317
15.54999784
11.25395637
8.412532299
6.476607354
5.1217562
4.150262647
3.438200815
2.9058741
2.500803865
2.187669435
1.942208733
1.747433265
1.591226318
1.464783575
1.361573624
1.276672191
1.206699546
1.15010454
1.105711953
1.071308404
1.044750324
1.02478496
1.010582592
1.001135918
0.9952202452
0.9916814693
0.9896343733
0.9884825281
0.9878879802
0.9872784461
0.9865849136
0.9862583988
0.9861554293
0.98617928
0.9862852602
0.986455528
0.986686736
0.9869843643
0.9873606367
0.987834619
0.9884341261
0.9891999024
0.9901934658
0.9915120522
0.9933218275
0.9959359353
506078.8681
49159.60759
14157.63881
6553.256901
3084.925947
1582.086979
837.7726194
445.7408288
239.09868
132.8691984
77.82683262
48.04625865
31.12205212
21.03992413
14.78672409
10.76360767
8.089097454
6.257974084
4.970536267
4.043395788
3.361142683
2.849260048
2.458487013
2.155541414
1.917476476
1.728167251
1.57607374
1.452783964
1.352040277
1.269117516
1.200782333
1.145557243
1.102270228
1.068737375
1.042882081
1.023493186
1.009744813
1.000626927
0.9949290084
0.9915245904
0.9895566602
0.9884481089
0.9878584607
0.9872408494
0.9865691622
0.9862681833
0.9861796394
0.98621306
0.986326894
0.9865048831
0.9867445015
0.9870516754
0.9874388702
0.9879252354
0.9885384702
0.9893188334
0.990326531
0.9916557719
0.993465789
0.996050522
443645.7352
40816.07568
14007.31853
6283.591231
2959.051425
1508.384412
791.9599713
416.0159365
221.5582923
123.2632914
72.56506223
45.0711244
29.37355819
19.97776612
14.12040352
10.33318447
7.803466668
6.063635735
4.835198632
3.947078308
3.291197412
2.797510232
2.419541724
2.125780524
1.89442669
1.710111281
1.561801401
1.441431694
1.342987663
1.261922246
1.195134178
1.141210132
1.098976412
1.066275964
1.041094895
1.02225957
1.008946289
1.000142478
0.9946519648
0.9913753041
0.9894828303
0.988416637
0.9878283066
0.9872008313
0.9865564524
0.9862794631
0.9862046784
0.9862474287
0.9863690767
0.9865548385
0.9868029563
0.9871197741
0.9875179788
0.9880167837
0.9886437439
0.9894385806
0.9904601038
0.9917994121
0.9936086727
0.9961628852
373279.3828
35565.13639
13927.14381
6043.54581
2846.046419
1441.72494
749.831507
388.8646849
206.036184
114.920806
68.01750564
42.49702866
27.85633887
19.05178352
13.53638038
9.953689199
7.550028728
5.890044636
4.713472672
3.859840865
3.227404694
2.749991421
2.383547143
2.098105163
1.872869916
1.693137381
1.548322686
1.430668194
1.334376419
1.25506035
1.189738231
1.1370524
1.09582367
1.063919951
1.039386166
1.021082467
1.008185979
0.9996819481
0.99438878
0.9912334351
0.9894127522
0.9883885775
0.987797936
0.9871577929
0.9865466104
0.9862921661
0.9862305169
0.9862823699
0.9864117912
0.986605368
0.9868620594
0.9871885991
0.9875978752
0.9881091432
0.9887497845
0.9895589293
0.9905939156
0.9919426594
0.9937501529
0.9962728501
292244.119
32326.57012
13859.4111
5829.727142
2744.730153
1381.454384
711.0599593
364.167098
192.3337856
107.6444042
64.06494816
40.25599157
26.53126698
18.2391671
13.02108476
9.616881259
7.323690068
5.734003797
4.603324686
3.780374434
3.168913216
2.706145002
2.350133949
2.072269666
1.852642005
1.677135579
1.535563892
1.420444209
1.326173901
1.248510593
1.184581
1.13307557
1.09280678
1.061666203
1.03775399
1.019960656
1.007463083
0.9992448486
0.994139187
0.9910988344
0.9893462253
0.9883645215
0.9877679321
0.9871109815
0.9865394719
0.9863062169
0.9862571151
0.986317853
0.9864550024
0.9866564243
0.9869217455
0.9872580615
0.9876784402
0.9882021576
0.9888563903
0.9896796237
0.9907276569
0.9920851629
0.9938898796
0.9963802256
193814.5958
30563.89659
13771.55768
5643.827613
2655.914995
1327.769704
675.6668015
341.8939715
180.1875449
101.30065
60.62023217
38.29665913
25.36791432
17.52209965
12.56385872
9.316260925
7.120419778
5.592976661
4.503137981
3.707637096
3.115045029
2.665526285
2.319008545
2.048079248
1.833613337
1.662019547
1.523467636
1.410721815
1.318355353
1.242257179
1.179652656
1.129273579
1.0899221
1.059512599
1.036197074
1.01889326
1.006776984
0.9988307806
0.993902961
0.9909713729
0.9892829234
0.9883409414
0.9877391315
0.987069443
0.9865348792
0.9863215381
0.9862844269
0.9863538385
0.9864986642
0.9867079467
0.9869819336
0.987328054
0.9877595343
0.9882956484
0.9889633357
0.9898003846
0.9908609984
0.9922265557
0.9940275004
0.9964848243
62068.17007
29966.92881
13555.74204
5483.755839
2578.72656
1280.065573
641.9272355
321.1804278
169.433468
95.72868744
57.59127718
36.56815823
24.33748925
16.88397068
12.15487775
9.045891867
6.936564609
5.464679433
4.411465504
3.640701409
3.065200002
2.627743923
2.289914237
2.025364888
1.815672437
1.647715834
1.511985721
1.401469655
1.310900691
1.236287591
1.174945609
1.125641876
1.087167001
1.057457667
1.03471452
1.017879624
1.006127186
0.9984394101
0.993679911
0.9908509577
0.9892227873
0.9883173903
0.9877116665
0.9870328649
0.9865326802
0.9863380496
0.9863123985
0.9863902756
0.9865427167
0.9867598587
0.9870425243
0.9873984486
0.9878409946
0.9883894112
0.9890703674
0.9899209055