/*--------------------------------*- C++ -*----------------------------------*\
  =========                 |
  \\      /  F ield         | OpenFOAM: The Open Source CFD Toolbox
   \\    /   O peration     | Website:  https://openfoam.org
    \\  /    A nd           | Version:  12
     \\/     M anipulation  |
\*---------------------------------------------------------------------------*/
FoamFile
{
    format      ascii;
    class       volScalarField;
    location    "1400";
    object      rho;
}
// * * * * * * * * * * * * * * * * * * * * * * * * * * * * * * * * * * * * * //

dimensions      [1 -3 0 0 0 0 0];

internalField   nonuniform List<scalar> 
16200
(
0.9384868167
0.9385048534
0.9390376785
0.9402919442
0.9427991065
0.947918192
0.958792029
0.9790965461
0.9914654383
0.9930926614
0.9935335278
0.9941605102
0.9948830165
0.9957777066
0.9968389436
0.998119794
0.9996425774
1.001459154
1.003612444
1.006162005
1.009168535
1.012703479
1.016842583
1.021667425
1.027260179
1.033698426
1.041044618
1.049331237
1.058540228
1.068578142
1.079252924
1.090267075
1.101243429
1.111783885
1.12153879
1.130257867
1.137807815
1.144161355
1.149371975
1.153546381
1.156820413
1.15933994
1.161246769
1.162669434
1.163718351
1.164484278
1.16503935
1.165439276
1.165726164
1.165931297
1.166077614
1.166181778
1.166255759
1.166308155
1.166344951
1.166370743
1.166388055
1.166401292
1.166404082
1.166410816
0.9280443806
0.9282065088
0.9289379916
0.9305131841
0.9336180563
0.9400638923
0.9536972152
0.9742991049
0.9822968377
0.9833212587
0.9838441915
0.9845485481
0.9853682413
0.9863788218
0.9875749024
0.9890144727
0.9907231257
0.9927580032
0.9951677416
0.9980189449
1.00138058
1.005333401
1.009963386
1.015362352
1.021621492
1.028823555
1.037028611
1.046253954
1.056447
1.067454962
1.079004779
1.090715119
1.102151363
1.112905885
1.122667274
1.131252091
1.138598115
1.144735669
1.149754976
1.15377956
1.156947471
1.159398474
1.161265143
1.162666951
1.163706952
1.164470662
1.165026808
1.165429096
1.16571856
1.165925988
1.166074148
1.166179692
1.166254663
1.166307722
1.166344991
1.166370987
1.166388426
1.166401615
1.166404088
1.166410298
0.9193988881
0.9197472591
0.9207380265
0.9227007324
0.9265125238
0.9345389029
0.9516155803
0.9697242657
0.9745766099
0.9752443584
0.9758360184
0.9766239794
0.9775382152
0.978663055
0.9799951325
0.9815980534
0.9835024648
0.9857720498
0.9884628006
0.9916494249
0.9954100196
0.9998348925
1.005019963
1.011065991
1.018070162
1.026114584
1.03524708
1.04545431
1.056627627
1.068531805
1.080799545
1.092973566
1.104590752
1.11527134
1.124773083
1.13299637
1.139954176
1.145730759
1.150446571
1.154235496
1.157232416
1.159566691
1.161358127
1.162714149
1.16372795
1.164477738
1.165027212
1.165426843
1.165715699
1.165923443
1.166072241
1.166178449
1.166253992
1.166307487
1.166345094
1.166371265
1.166388823
1.166402015
1.166404365
1.166410891
0.9126197945
0.9131755476
0.9144730694
0.9169229942
0.9216516403
0.9315691143
0.9518263528
0.9656861103
0.9683333944
0.9689667144
0.9696484432
0.970535958
0.9715674806
0.9728332083
0.9743326557
0.976134839
0.9782757526
0.9808254041
0.9838473281
0.9874246208
0.9916452606
0.9966099043
1.002424648
1.009197773
1.017028167
1.025988839
1.03610113
1.04729984
1.059394698
1.072048338
1.084799207
1.097139053
1.108616496
1.118917861
1.127894113
1.135537426
1.141932848
1.147210742
1.151513719
1.154979671
1.157735879
1.159898204
1.161571316
1.162848547
1.163811346
1.164528918
1.165058447
1.165445923
1.165727457
1.165930815
1.166076988
1.166181614
1.166256194
1.166309089
1.166346327
1.166372229
1.166389581
1.166402588
1.166404639
1.166411094
0.908011548
0.9087881563
0.9104199238
0.9134374246
0.9193583342
0.931871072
0.9534810182
0.9625863851
0.9640985735
0.9648010239
0.9655874874
0.9665904878
0.9677564038
0.9691809266
0.9708673371
0.9728902217
0.9752922262
0.9781509179
0.9815392391
0.9855502291
0.9902827042
0.9958471786
1.002357447
1.009924194
1.01863935
1.028553179
1.039640431
1.051758743
1.064613957
1.077761743
1.090668548
1.102818605
1.113818551
1.123452957
1.131678089
1.138574054
1.144286127
1.14897762
1.152802481
1.155895179
1.158370902
1.16032948
1.161858974
1.163037596
1.163934183
1.164608114
1.16510929
1.165478542
1.165748439
1.165944393
1.166085854
1.166187471
1.166260122
1.166311776
1.166348218
1.166373587
1.16639056
1.166403289
1.166405019
1.166411487
0.9056318807
0.9066332194
0.9086137488
0.9122526653
0.9195974914
0.935597498
0.9554425842
0.9611132086
0.9619570217
0.962806376
0.9636803056
0.9648010514
0.9661077687
0.9677017183
0.9695918347
0.971859145
0.9745543384
0.9777629794
0.9815674108
0.9860695502
0.9913771477
0.9976076555
1.004878153
1.013294537
1.022929965
1.033793892
1.045790521
1.05867646
1.072043105
1.085354801
1.09804743
1.109648475
1.119862484
1.128590725
1.135893505
1.141926102
1.146877947
1.150931114
1.154240641
1.156931251
1.159102712
1.160837371
1.162206155
1.16327196
1.164090839
1.164712077
1.165177961
1.16552379
1.165778237
1.165964035
1.166098828
1.166196068
1.166265845
1.166315611
1.16635082
1.166375373
1.166391782
1.166404122
1.166405463
1.166411888
0.9052091212
0.9064556981
0.9088270824
0.9132253948
0.9223417524
0.941967567
0.9581047693
0.9615237144
0.9618269393
0.9627049719
0.9637046917
0.9649738325
0.9664565613
0.9682590424
0.9703963591
0.972955287
0.9759944092
0.9796066488
0.983883363
0.9889348175
0.9948767823
1.001831198
1.009912745
1.019211912
1.029766443
1.041522603
1.054289836
1.067708416
1.081263182
1.094363628
1.106467932
1.117194225
1.126371196
1.13401988
1.140292152
1.145400036
1.149559594
1.152958225
1.15574328
1.158024878
1.159885242
1.161388732
1.162589401
1.1635353
1.164270094
1.164833208
1.165259372
1.165578298
1.16581464
1.165988305
1.166114992
1.166206824
1.166273001
1.166320376
1.166354008
1.166377519
1.166393215
1.166405076
1.166405986
1.166412368
0.9066760318
0.9081946723
0.9110145557
0.9164182399
0.9280179783
0.9498642564
0.9610922295
0.9627453079
0.9635065806
0.9645297968
0.965671289
0.9671059458
0.9687844309
0.9708173634
0.9732271508
0.9761066115
0.9795232217
0.9835778733
0.9883713664
0.9940216158
1.000649606
1.008375558
1.017301143
1.027486044
1.038912432
1.051440281
1.064765699
1.078412442
1.091787393
1.104296582
1.115473708
1.12506227
1.133024298
1.139490029
1.144683143
1.148852097
1.152223251
1.154978193
1.157250057
1.159131252
1.160685563
1.161959698
1.162991692
1.163815682
1.164463725
1.16496593
1.165349801
1.16563962
1.165856064
1.166016198
1.166133715
1.166219354
1.166281362
1.16632594
1.166357712
1.166379987
1.166394845
1.166406146
1.166406578
1.166412907
0.9098595992
0.9116505886
0.9149905923
0.9216559766
0.9366941819
0.9581560347
0.9657273893
0.966155009
0.9669384273
0.9680846546
0.9693765019
0.970990037
0.9728824873
0.9751686603
0.977879437
0.9811138848
0.9849488134
0.9894926665
0.9948542544
1.001155788
1.008517447
1.017048521
1.02682484
1.037858374
1.050054817
1.063167504
1.076771652
1.090293579
1.10310886
1.11467683
1.124650134
1.13291482
1.139559476
1.144803463
1.148919425
1.152172937
1.154787024
1.156929151
1.158713991
1.160214719
1.161476804
1.162530255
1.163398344
1.164102508
1.164664211
1.165104995
1.165445645
1.165705319
1.16590089
1.166046651
1.166154317
1.16623323
1.166290664
1.166332149
1.166361844
1.166382731
1.166396651
1.166407324
1.166407239
1.166413515
0.9144949416
0.9165873763
0.9205682217
0.9287641437
0.9476804366
0.9660320958
0.9698798292
0.9708615864
0.9718121776
0.9731103064
0.9745800531
0.9764014188
0.9785402096
0.9811151499
0.9841664571
0.9877994559
0.9921001101
0.9971829941
1.003162044
1.010158961
1.018285946
1.027631253
1.038230764
1.050029807
1.062836265
1.076283165
1.08983405
1.102857046
1.114753808
1.125088252
1.133658512
1.140492292
1.145785827
1.149822741
1.15290226
1.155290696
1.157197478
1.158770493
1.160103746
1.161250961
1.162240158
1.163086018
1.163798522
1.164387763
1.164865733
1.165246256
1.165543999
1.165773398
1.165947767
1.166078769
1.166176214
1.166248081
1.166300681
1.166338866
1.166366328
1.166385712
1.166398613
1.166408602
1.166407966
1.166414194
0.9204418844
0.922881946
0.9277306163
0.9381119217
0.9600829181
0.9745633568
0.9760588264
0.9769547263
0.9780448103
0.9795020866
0.9811637286
0.9832111461
0.9856203211
0.9885137607
0.9919411715
0.9960129026
1.000822225
1.006487025
1.013122531
1.020844546
1.029749156
1.03989137
1.051249538
1.063680633
1.076876596
1.090350425
1.103484279
1.115643029
1.12631165
1.135195128
1.142244137
1.147612206
1.151577287
1.154461887
1.156572333
1.158163103
1.15942315
1.160477816
1.161399854
1.162224263
1.162962977
1.163616934
1.164184382
1.164665456
1.16506381
1.165386431
1.16564251
1.165842202
1.165995552
1.166111779
1.166198895
1.166263577
1.166311204
1.166345966
1.166371092
1.166388889
1.166400715
1.166409973
1.166408759
1.166414947
0.9274712684
0.9303039827
0.9362337356
0.949739021
0.972585532
0.9817403472
0.9830622854
0.9841330156
0.9853936661
0.987039989
0.9889275169
0.9912375584
0.9939562151
0.9972083861
1.001052624
1.005603388
1.0109605
1.017243754
1.024566322
1.033031469
1.042707867
1.05360058
1.065608918
1.078480806
1.091785351
1.104936466
1.117284687
1.128252083
1.137452799
1.144749434
1.150234563
1.154161968
1.156863367
1.158677345
1.159902014
1.160771363
1.161449966
1.162039624
1.162592428
1.163125993
1.1636378
1.1641167
1.164550749
1.164931456
1.165255239
1.165523101
1.165739393
1.165910442
1.166043337
1.166145053
1.166221935
1.166279437
1.166322053
1.166353339
1.166376071
1.166392229
1.16640294
1.166411431
1.166409617
1.166415777
0.9354697251
0.9388140593
0.9461000728
0.9633585863
0.9841194027
0.9902247482
0.991131265
0.9923898872
0.9938311365
0.9956818483
0.9978119149
1.000402378
1.003450779
1.00708503
1.011373768
1.01643591
1.02237647
1.029313027
1.03734894
1.046563332
1.056981407
1.068537821
1.08103134
1.094088927
1.107169098
1.11962924
1.130848744
1.140360362
1.147934097
1.153586709
1.15752926
1.160086128
1.161616703
1.162457208
1.162886674
1.163113458
1.163276213
1.163453632
1.16367849
1.163952708
1.164261038
1.164581872
1.164894522
1.165183117
1.165437855
1.165654557
1.16583334
1.165977147
1.166090416
1.166178092
1.16624499
1.166295431
1.166333079
1.16636089
1.16638121
1.1663957
1.166405273
1.166412969
1.166410536
1.166416687
0.9443099623
0.9483775812
0.9575819603
0.9783415195
0.9962171095
0.9992091348
1.000092381
1.001544158
1.003172304
1.005241261
1.007632825
1.010529278
1.013940757
1.01799794
1.022778124
1.028401285
1.034972027
1.042598152
1.051363176
1.061308672
1.072398196
1.08447503
1.097222197
1.110150435
1.122641993
1.134055193
1.14385673
1.151726465
1.157595522
1.161615523
1.164085937
1.16537274
1.165841207
1.165811699
1.165537398
1.165198705
1.164908539
1.164723846
1.16465987
1.164704655
1.164831929
1.165011145
1.165214199
1.165418959
1.165610331
1.165779681
1.165923454
1.166041621
1.166136266
1.166210513
1.166267787
1.166311369
1.166344155
1.166368538
1.166386459
1.166399275
1.166407699
1.16641458
1.166411513
1.16641768
0.953756483
0.9587894581
0.9706348238
0.9934367391
1.006370049
1.008767107
1.009758486
1.011420047
1.013270501
1.015599965
1.018300408
1.02155469
1.025383825
1.029918891
1.035242679
1.041472482
1.048707681
1.057039484
1.066520398
1.077137616
1.088772073
1.101158193
1.113861988
1.126304024
1.137842343
1.147896525
1.156065254
1.162190246
1.166350439
1.168803428
1.169905947
1.170040452
1.169561629
1.168765176
1.167875018
1.167043368
1.166358735
1.165858219
1.165541491
1.165384533
1.165351644
1.165404723
1.165509431
1.165638376
1.165771983
1.165897818
1.166009162
1.166103392
1.166180518
1.166242036
1.166290121
1.166327106
1.16635518
1.166376216
1.166391775
1.166402928
1.166410207
1.166416256
1.166412542
1.166418759
0.9639060206
0.9703068674
0.9852554776
1.007619547
1.01718305
1.019012055
1.020222245
1.02211911
1.024223146
1.026846681
1.029891566
1.033540007
1.037822799
1.042870582
1.04876995
1.055632626
1.063546396
1.072574354
1.082720351
1.093896046
1.105881427
1.118297065
1.130610823
1.142198258
1.152452297
1.160904434
1.167309429
1.171665052
1.174172149
1.175162114
1.175020823
1.17412756
1.172815215
1.171349985
1.169925655
1.168667423
1.16764138
1.166866912
1.166330091
1.165996546
1.165822597
1.16576382
1.165780679
1.165841384
1.165922598
1.166008664
1.166090144
1.166162167
1.166222922
1.166272462
1.166311838
1.166342527
1.166366072
1.166383868
1.166397123
1.166406637
1.166412784
1.16641799
1.16641363
1.166419925
0.9748190859
0.9830109391
1.001085809
1.022345301
1.028430543
1.030088468
1.031537269
1.033677793
1.036054839
1.038993593
1.042407074
1.046476982
1.051243692
1.056836336
1.063341342
1.070856958
1.079446148
1.089126433
1.099833454
1.111386713
1.123458857
1.135569612
1.147126167
1.157514223
1.166215393
1.172905504
1.177498038
1.180125636
1.181079272
1.180733652
1.179480967
1.177683419
1.175645478
1.173602029
1.171717568
1.170092291
1.168772177
1.167761066
1.167033301
1.166545714
1.166247936
1.166090288
1.166028933
1.166028433
1.166062305
1.166112171
1.166166272
1.166217792
1.166263328
1.166301658
1.166332829
1.166357548
1.166376769
1.16639145
1.166402471
1.166410385
1.166415421
1.166419777
1.166414806
1.166421183
0.9866940811
0.9969708257
1.017566516
1.036673014
1.04028388
1.041946914
1.043642045
1.046043462
1.048720825
1.0520068
1.055826438
1.060359531
1.065653063
1.071828817
1.078963726
1.087129993
1.096350474
1.106581515
1.117676919
1.129357342
1.141195888
1.152640801
1.163087692
1.171986594
1.178946846
1.183799903
1.18660301
1.187593871
1.187121693
1.185578753
1.183346764
1.180762111
1.178097802
1.175557731
1.173279026
1.171339319
1.169766847
1.168551973
1.167659014
1.167037391
1.166631168
1.166386329
1.166255503
1.166200245
1.166191459
1.166208473
1.166237556
1.166270215
1.16630166
1.166329543
1.166353022
1.166372107
1.166387221
1.166398923
1.166407794
1.166414153
1.166418107
1.166421615
1.16641609
1.166422535
0.9998443854
1.012127948
1.034255829
1.049313375
1.052740684
1.05457559
1.056545786
1.059244425
1.062267144
1.0659471
1.070219963
1.075258854
1.081111552
1.087884312
1.095634561
1.104397521
1.114144335
1.124759087
1.136005982
1.147509518
1.15876456
1.169189831
1.178221625
1.185417937
1.190535289
1.193553041
1.194645935
1.194124637
1.192368463
1.189767587
1.18668213
1.183418087
1.180216555
1.177252112
1.174637003
1.172428853
1.170640441
1.169250542
1.168214971
1.167476939
1.166975903
1.1666543
1.166461873
1.166357712
1.166310559
1.166297826
1.166304103
1.16631946
1.166337898
1.16635608
1.166372371
1.166386161
1.166397393
1.16640626
1.16641307
1.166417927
1.166420833
1.166423504
1.166417498
1.166423986
1.014535088
1.028532866
1.050699743
1.063569538
1.066024349
1.068136984
1.070413262
1.073437411
1.076835745
1.080935433
1.085680656
1.091232544
1.097634599
1.104970817
1.113270954
1.122524065
1.132638577
1.14341651
1.154530276
1.165522544
1.175844917
1.184935515
1.19231746
1.197683185
1.200936319
1.202182735
1.2016837
1.19979313
1.196898095
1.193373026
1.189550078
1.185703374
1.18204334
1.178717669
1.175816423
1.173379705
1.171406934
1.169866991
1.168708506
1.167869514
1.167285688
1.166896577
1.166649587
1.166501803
1.16642019
1.16638056
1.166366087
1.166365602
1.16637206
1.166381256
1.166390853
1.166399683
1.166407256
1.166413438
1.16641828
1.166421694
1.166423591
1.166425446
1.166418988
1.166425536
1.030658684
1.046244684
1.06768516
1.078198748
1.080308289
1.082734223
1.085315509
1.08867002
1.092447853
1.096964517
1.1021716
1.108213458
1.11512485
1.12296067
1.131713443
1.141314254
1.151596589
1.162275093
1.172939812
1.183080853
1.192151493
1.199656007
1.205236234
1.208726312
1.210161401
1.209745353
1.207795643
1.204684833
1.200791581
1.196466176
1.192010034
1.187666007
1.183616091
1.17998385
1.176839827
1.174208915
1.172079051
1.170410688
1.169146409
1.168219954
1.1675639
1.167115465
1.166820181
1.166633513
1.166520975
1.166457051
1.166423718
1.166408751
1.166404196
1.166405085
1.16640846
1.166412655
1.166416793
1.166420436
1.166423409
1.166425442
1.166426372
1.166427437
1.166420547
1.166427181
1.04789601
1.065024989
1.08575976
1.093558999
1.095504713
1.098246062
1.101136209
1.104823217
1.108980399
1.113906559
1.119560648
1.126064615
1.133437525
1.141694744
1.150778093
1.160548021
1.170756632
1.181038287
1.190925614
1.19989685
1.207452538
1.213198409
1.216908701
1.218549879
1.218263669
1.216322069
1.213072548
1.208887788
1.204127489
1.199113509
1.19411627
1.189349234
1.184968686
1.181076857
1.177727272
1.174931686
1.172668193
1.170890083
1.169534861
1.168532707
1.167813684
1.167313145
1.166975134
1.166753821
1.166613544
1.16652769
1.16647723
1.166449038
1.166434371
1.166427593
1.166425196
1.166425071
1.166425989
1.166427243
1.166428443
1.16642916
1.166429169
1.166429476
1.166422192
1.166428914
1.066135486
1.084390543
1.102897878
1.109523562
1.111492443
1.114538411
1.117741432
1.121766787
1.126311371
1.131648238
1.137740344
1.144677161
1.152449839
1.161021399
1.170271043
1.179983714
1.189836361
1.199404643
1.208199758
1.215730826
1.221582228
1.225479815
1.227326883
1.227201643
1.225324113
1.222007418
1.217608491
1.212487449
1.206979056
1.201375412
1.195917292
1.190791332
1.186130959
1.18201973
1.178496414
1.175561441
1.173184477
1.171312725
1.169879421
1.168811811
1.168037924
1.167491642
1.167115838
1.166863665
1.166698514
1.166592872
1.166526868
1.166486607
1.166462663
1.166448817
1.166441075
1.166436929
1.166434836
1.166433845
1.166433371
1.166432838
1.166431977
1.166431563
1.166423892
1.166430735
1.085179529
1.104192993
1.120263547
1.126005579
1.128151883
1.13152382
1.135073713
1.139463848
1.144416553
1.1501659
1.156671795
1.163980915
1.172045589
1.180769239
1.189965259
1.199349071
1.208540334
1.217086736
1.224516562
1.230405739
1.234444498
1.236480889
1.236531514
1.234760585
1.231439479
1.226900438
1.221495178
1.215563499
1.209412651
1.20330561
1.19745577
1.192025759
1.187128916
1.182832551
1.179162669
1.176109944
1.173636812
1.171685297
1.170185049
1.169060897
1.168239241
1.167652812
1.167243585
1.166963928
1.166776473
1.16665298
1.166572873
1.166521603
1.166489156
1.166468802
1.166456114
1.166448232
1.16644333
1.166440234
1.166438183
1.166436467
1.16643479
1.166433691
1.166425575
1.166432653
1.104692987
1.123331326
1.138295107
1.143229842
1.145660399
1.149359395
1.15327121
1.158020263
1.163358682
1.169471027
1.176307089
1.18386524
1.192052272
1.200710055
1.209589763
1.218351137
1.226581689
1.23383486
1.239689982
1.243813662
1.24600861
1.246234236
1.244597989
1.24132414
1.236712588
1.231098319
1.224818319
1.218188104
1.21148716
1.204951157
1.198768785
1.193081479
1.187985047
1.183532708
1.179739422
1.176587446
1.174032999
1.172013686
1.170456141
1.169283207
1.16841999
1.167798343
1.167359564
1.167055429
1.166847977
1.16670838
1.166615481
1.166554173
1.166513937
1.166487593
1.166470335
1.166458988
1.166451468
1.166446403
1.166442868
1.16644004
1.166437603
1.166435838
1.166427159
1.166434684
1.125248382
1.143635285
1.157013463
1.161414036
1.164155251
1.168137545
1.172376401
1.177428356
1.183076737
1.189452167
1.196485756
1.204123386
1.212222029
1.220564278
1.228849276
1.236701956
1.243706962
1.24945496
1.253600859
1.25591213
1.256297779
1.2548099
1.251622662
1.246997478
1.241245138
1.234692228
1.2276556
1.220425214
1.213254012
1.20635278
1.199888279
1.193983395
1.188718697
1.184135183
1.180238245
1.177002848
1.174379844
1.172303056
1.170696575
1.169481618
1.168582279
1.167929753
1.167464852
1.167138919
1.166913539
1.166759417
1.166654916
1.16658446
1.166537091
1.166505241
1.166483763
1.166469203
1.166459249
1.166452347
1.166447421
1.166443548
1.166440411
1.166437968
1.16642874
1.166436824
1.146676979
1.165286826
1.176420006
1.180483677
1.183514967
1.187725225
1.192236723
1.19752079
1.20338356
1.20989894
1.216971655
1.224492974
1.232270784
1.24003759
1.24745806
1.254148013
1.259717885
1.263819814
1.266196956
1.266715592
1.265376331
1.26230232
1.257712199
1.251886165
1.245133392
1.237765252
1.230076069
1.222330741
1.214757705
1.207545506
1.200841647
1.194752858
1.189346473
1.184652877
1.180669135
1.177363869
1.174683278
1.172557928
1.170909767
1.169658682
1.168727987
1.168048409
1.167560427
1.167215086
1.166973634
1.166806412
1.166691391
1.1666126
1.166558704
1.166521793
1.166496424
1.166478891
1.166466676
1.166458062
1.166451833
1.166446988
1.166443205
1.166440058
1.166430435
1.166439031
1.168694175
1.18759338
1.196332238
1.200242123
1.203545477
1.207941731
1.212665518
1.218099227
1.224063146
1.230572897
1.237503141
1.244693473
1.251909693
1.25884965
1.26516555
1.270489813
1.274481722
1.276868975
1.277484305
1.276281994
1.273335568
1.268818325
1.262974896
1.256090749
1.248465337
1.240391273
1.232140011
1.223952922
1.216036354
1.20855923
1.201652245
1.195408086
1.18988258
1.185096856
1.181040703
1.177677192
1.174948459
1.172782257
1.171098718
1.169816654
1.168858787
1.168155532
1.167647168
1.167284553
1.167028696
1.166849662
1.166725104
1.166638721
1.166578855
1.166537297
1.166508343
1.166488061
1.16647375
1.166463543
1.166456098
1.166450352
1.166445974
1.1664421
1.166432246
1.16644128
1.191288658
1.209692381
1.216757849
1.220602545
1.2241242
1.228638181
1.233483829
1.238954798
1.244879095
1.251213814
1.257802473
1.26444014
1.270862605
1.276752188
1.281771003
1.285589338
1.287929755
1.288599333
1.287513063
1.284697686
1.280280641
1.274467374
1.267514423
1.259703359
1.251319261
1.242634748
1.23389934
1.225332967
1.217122381
1.209419341
1.20233992
1.195964594
1.190339151
1.185476612
1.181360366
1.177948595
1.175179867
1.172979493
1.171266063
1.169957521
1.168976161
1.168252214
1.167725867
1.167347884
1.167079121
1.16688944
1.16675624
1.166662945
1.166597622
1.166551801
1.166519546
1.166496726
1.166480475
1.166468789
1.166460212
1.166453638
1.166448708
1.166444091
1.166434194
1.166443562
1.214356888
1.231855259
1.237575578
1.241381702
1.245052507
1.249604187
1.254468788
1.259848513
1.265575346
1.271552077
1.277595156
1.283467262
1.288890014
1.293549762
1.297137317
1.299374834
1.30005354
1.299055536
1.296365652
1.292066353
1.286322007
1.279356024
1.271426905
1.262806673
1.253763885
1.244551422
1.235398533
1.226505992
1.21804335
1.210147422
1.202921572
1.196435628
1.190726583
1.185800312
1.181634534
1.178183096
1.175381414
1.173152662
1.171414123
1.170083043
1.169081427
1.168339429
1.167797235
1.167405591
1.167125272
1.166925997
1.16678497
1.166685387
1.166615078
1.166565349
1.166530059
1.166504899
1.166486855
1.166473798
1.166464169
1.16645684
1.166451395
1.16644603
1.166436284
1.166445838
1.237721121
1.254011834
1.258660797
1.262430751
1.266155759
1.270637895
1.275393384
1.280532472
1.285889188
1.291320637
1.29662411
1.301543889
1.305803041
1.309108298
1.311191936
1.311834253
1.310893128
1.308316196
1.30414387
1.298498815
1.291568516
1.283583974
1.274799191
1.265473623
1.255858845
1.24618916
1.236675536
1.227501859
1.218822682
1.210761834
1.203411612
1.196832524
1.19105381
1.186075001
1.181868761
1.178385063
1.175556515
1.173304418
1.17154494
1.17019478
1.169175761
1.168418051
1.167861912
1.167458136
1.167167476
1.166959564
1.166811452
1.166706152
1.166631292
1.166577985
1.166539907
1.166512594
1.166492895
1.166478569
1.166467968
1.166459955
1.166454021
1.166447921
1.166438517
1.166448088
1.261163239
1.276010461
1.279818443
1.28352261
1.287202711
1.291490774
1.295992823
1.300735262
1.305553291
1.31026796
1.314666606
1.318488751
1.321472275
1.323356034
1.323920296
1.32300334
1.320522799
1.316480103
1.310957499
1.304104824
1.296122254
1.28724134
1.2777078
1.267767344
1.257655165
1.247588614
1.237762449
1.228345799
1.219480183
1.21127814
1.203822297
1.197164963
1.191328495
1.186306753
1.182067858
1.178558293
1.175708156
1.173437092
1.171660319
1.170294111
1.169260205
1.168488861
1.167920474
1.167505938
1.167206036
1.166990353
1.166835834
1.166725339
1.166646331
1.16658975
1.166549115
1.166519822
1.166498599
1.166483101
1.166471605
1.166462978
1.166456573
1.16644977
1.166440891
1.166450285
1.284554455
1.297743384
1.300799952
1.304368907
1.307891935
1.311868796
1.315982261
1.320186344
1.324319469
1.328177201
1.331546665
1.334174999
1.335824931
1.336274135
1.335351904
1.332949803
1.329035866
1.323653507
1.316914902
1.308986932
1.300075115
1.290407159
1.280218643
1.269741561
1.259195933
1.248783974
1.238686238
1.229059027
1.22003255
1.211709511
1.204164055
1.197441224
1.191557229
1.186500821
1.182236005
1.178706107
1.175838958
1.173552738
1.171761856
1.170382264
1.169335694
1.168552559
1.16797344
1.167549377
1.167241223
1.167018558
1.16685825
1.166743043
1.166660256
1.166600685
1.166557708
1.166526598
1.166503974
1.166487395
1.166475081
1.166465905
1.166459035
1.166451585
1.166443403
1.166452388
1.307560776
1.318840653
1.321378555
1.324691258
1.327951516
1.331509931
1.335116521
1.338662607
1.341994027
1.344892198
1.347152843
1.348540277
1.348847925
1.347894237
1.34555451
1.341766431
1.33653861
1.329945907
1.322120913
1.313240179
1.303509742
1.293151022
1.28238892
1.27144246
1.260517989
1.249804403
1.239469904
1.229659677
1.220494108
1.212067299
1.204445912
1.197668514
1.191745778
1.186661819
1.182376893
1.178831444
1.175951253
1.173653191
1.171850981
1.170460343
1.169403072
1.168609781
1.168021284
1.167588802
1.167273293
1.167044361
1.16687883
1.166759351
1.166673127
1.166610827
1.16656571
1.166532935
1.166509025
1.166491452
1.166478395
1.166468729
1.166461396
1.166453383
1.16644604
1.166454346
1.32972379
1.339088043
1.3412667
1.344241977
1.347149421
1.350194024
1.353193057
1.355987457
1.358434422
1.360311233
1.361428298
1.361572922
1.360571076
1.358280341
1.354616659
1.349555923
1.343138288
1.335461412
1.326671175
1.316948755
1.306497805
1.295532389
1.284267004
1.272908849
1.261652183
1.250674305
1.240132722
1.230162993
1.22087695
1.212361142
1.204675583
1.197853029
1.191899131
1.186793767
1.182493754
1.178936895
1.176047102
1.173740083
1.171928974
1.170529342
1.169463099
1.168661107
1.168064441
1.167624534
1.16730248
1.167067931
1.166897692
1.166774348
1.166685002
1.166620216
1.166573145
1.166538849
1.16651376
1.166495276
1.166481549
1.166471444
1.166463647
1.16645518
1.166448764
1.166456132
1.350961417
1.358421671
1.360278366
1.362813614
1.365276972
1.367728767
1.370045571
1.372028144
1.373546699
1.374382069
1.37436256
1.373300943
1.37105462
1.367516525
1.362637029
1.35642273
1.348937736
1.340295854
1.330651214
1.320186413
1.309101211
1.297602145
1.285894085
1.274173717
1.262624766
1.251414508
1.240691223
1.230582126
1.221191578
1.212599461
1.204859852
1.198000251
1.192021724
1.186900256
1.182589487
1.179024789
1.176128369
1.17381489
1.171996995
1.170590164
1.169516472
1.168707066
1.168103309
1.167656871
1.167329002
1.167089427
1.166914952
1.166788113
1.166695935
1.166628889
1.166580037
1.166544353
1.166518186
1.166498869
1.166484543
1.166474042
1.166465784
1.166456989
1.166451503
1.166457816
1.370806876
1.376550596
1.378132903
1.380186852
1.382156791
1.383971691
1.385565744
1.386712411
1.387296059
1.387106798
1.385991604
1.383788728
1.38038422
1.375701751
1.369720106
1.36247013
1.354033895
1.344536509
1.334136986
1.323017474
1.311373258
1.299403736
1.287305156
1.275265036
1.263458008
1.252042732
1.24115953
1.230928375
1.221447076
1.212789596
1.20500467
1.19811502
1.192117498
1.186984489
1.182666691
1.179097225
1.176196735
1.17387895
1.172056099
1.170643632
1.169563829
1.168748146
1.168138257
1.167686089
1.167353064
1.167108998
1.166930717
1.166800724
1.166705981
1.166636883
1.166586411
1.166549462
1.166522311
1.166502238
1.166487379
1.166476514
1.166467806
1.166458815
1.16645421
1.166459421
1.389235356
1.3934412
1.394713529
1.396235043
1.397670643
1.398828698
1.399690893
1.400012295
1.399688707
1.398522472
1.396378395
1.393118882
1.388655243
1.382937281
1.375966914
1.36779402
1.35851416
1.348260374
1.337194467
1.325497215
1.313359452
1.300974133
1.288529989
1.276206653
1.264170977
1.252574237
1.241549893
1.231211617
1.221651446
1.212938058
1.205115359
1.198201692
1.192190019
1.187049381
1.182727737
1.179156121
1.176253743
1.173933494
1.172107262
1.170690512
1.169605763
1.168784801
1.168169633
1.167712448
1.16737486
1.167126788
1.166945091
1.166812254
1.166715193
1.166644234
1.166592292
1.166554194
1.166526145
1.166505388
1.16649006
1.166478857
1.16646972
1.166460658
1.166456821
1.16646097
1.405888138
1.408842485
1.409819837
1.410819999
1.411728948
1.41225286
1.412409837
1.411947063
1.410770136
1.40869612
1.405606445
1.401385755
1.395967184
1.389322471
1.3814723
1.372481548
1.362456042
1.351534533
1.339880418
1.327672795
1.315098434
1.302344687
1.289593862
1.277018892
1.264780017
1.253022198
1.241872977
1.23144053
1.221811784
1.213050675
1.205196717
1.198264223
1.192242546
1.187097607
1.182774813
1.179203257
1.17630083
1.173979674
1.172151396
1.170731521
1.169642833
1.168817465
1.168197766
1.167736199
1.167394577
1.167142935
1.166958175
1.166822779
1.166723622
1.16665098
1.166597706
1.166558563
1.166529699
1.166508326
1.166492586
1.166481064
1.166471533
1.166462503
1.166459302
1.166462478
1.420708186
1.422707596
1.423405357
1.423919676
1.424327879
1.424260282
1.423758751
1.422571467
1.420611671
1.417712156
1.413769116
1.408687052
1.402417674
1.394951027
1.386323082
1.376610715
1.365927785
1.354417362
1.342243858
1.329584784
1.316623419
1.303542397
1.290518635
1.277719438
1.265299457
1.253398267
1.242138303
1.231622928
1.221934535
1.213132783
1.205253167
1.19830628
1.192278112
1.187131669
1.18280997
1.179240303
1.176339347
1.174018573
1.172189364
1.170767341
1.169675572
1.168846551
1.168222974
1.167757582
1.167412397
1.167157574
1.166970071
1.166832372
1.166731323
1.166657157
1.166602678
1.166562589
1.166532985
1.166511062
1.166494959
1.166483134
1.166473248
1.166464329
1.166461629
1.166464013
1.433730489
1.435066965
1.435497671
1.435572234
1.435513859
1.434907004
1.433805419
1.431964168
1.429301179
1.425664646
1.420963345
1.415119073
1.408099214
1.399909088
1.390597258
1.3802504
1.368988909
1.356959366
1.344327014
1.331268087
1.317963036
1.304590631
1.291323351
1.278323825
1.265742004
1.253712882
1.242354486
1.231765958
1.222025647
1.213189342
1.205288851
1.198331314
1.192299584
1.187153937
1.182835155
1.179268848
1.17637058
1.174051225
1.172221991
1.170798624
1.169704492
1.168872456
1.168245561
1.167776831
1.167428496