/*--------------------------------*- C++ -*----------------------------------*\
  =========                 |
  \\      /  F ield         | OpenFOAM: The Open Source CFD Toolbox
   \\    /   O peration     | Website:  https://openfoam.org
    \\  /    A nd           | Version:  12
     \\/     M anipulation  |
\*---------------------------------------------------------------------------*/
FoamFile
{
    format      ascii;
    class       volVectorField;
    location    "1400";
    object      U;
}
// * * * * * * * * * * * * * * * * * * * * * * * * * * * * * * * * * * * * * //

dimensions      [0 1 -1 0 0 0 0];

internalField   nonuniform List<vector> 
16200
(
(184.1149731 -7.28083946e-17 -1.499306701)
(219.6141786 3.512147755e-17 -1.427580835)
(239.6063633 -2.43754539e-20 -1.603361987)
(255.36278 0 -1.777440064)
(269.9839968 0 -1.968480875)
(285.1612957 -2.524071157e-17 -2.199439131)
(301.0056236 2.887176983e-17 -2.52154391)
(313.6144036 6.224444939e-17 -2.902694878)
(317.3266621 -1.210757721e-16 -3.029066638)
(317.3170614 1.083517789e-16 -3.003387436)
(317.0035786 -4.610274065e-17 -3.057070202)
(316.7061257 0 -3.032502775)
(316.3390018 0 -3.091759885)
(315.9347033 -5.355985919e-17 -3.090365972)
(315.4586321 4.469914077e-17 -3.144872299)
(314.9131423 0 -3.172073736)
(314.2764874 0 -3.231265336)
(313.5372824 8.178524613e-19 -3.287054745)
(312.6751926 4.433497812e-17 -3.364120394)
(311.6707016 -3.59997747e-17 -3.451428768)
(310.4999909 0 -3.558387226)
(309.1371939 -2.486140658e-17 -3.683076304)
(307.5535974 2.224621003e-17 -3.828662258)
(305.7185464 3.786375658e-17 -3.994228884)
(303.6005126 -3.180756452e-17 -4.177944865)
(301.1692565 -2.720548366e-17 -4.373852774)
(298.3994723 2.287394756e-17 -4.571036281)
(295.2763216 0 -4.751720164)
(291.8031558 0 -4.890521993)
(288.0109011 5.724462376e-17 -4.955355784)
(283.9668002 -3.607758668e-17 -4.911831409)
(279.7774515 -1.038661603e-17 -4.732114991)
(275.5806633 0 -4.406102843)
(271.525509 -4.584887412e-17 -3.949111317)
(267.7474204 5.147122915e-17 -3.400683235)
(264.3482588 -8.871488268e-17 -2.81432271)
(261.3874017 7.479613461e-17 -2.243306161)
(258.8833807 0 -1.728949929)
(256.8217911 0 -1.295046195)
(255.1652858 0 -0.9484989121)
(253.863136 7.749038378e-17 -0.6838149622)
(252.8592783 -1.309654482e-16 -0.4886498433)
(252.0983937 1.102033688e-16 -0.3484595587)
(251.529931 0 -0.2495033643)
(251.1102723 1.567565038e-16 -0.1802914037)
(250.8034528 -1.318956661e-16 -0.1319647553)
(250.5808272 -5.003980679e-20 -0.09804436956)
(250.4202238 1.871070981e-16 -0.0739758545)
(250.3048528 -3.153086457e-16 -0.05663769008)
(250.2222191 2.655756262e-16 -0.04392212604)
(250.1631435 2.238921862e-16 -0.03441491413)
(250.120938 3.777402541e-16 -0.02716601747)
(250.0907597 -3.188292747e-16 -0.02153083182)
(250.0690749 8.082205925e-16 -0.01707093343)
(250.053348 -4.557863007e-16 -0.01348605635)
(250.0416251 0 -0.01057501521)
(250.0327875 1.63850677e-16 -0.008130023152)
(250.0256827 0 -0.006084851316)
(250.0197688 -4.753435727e-16 -0.003725983002)
(250.0131932 -3.971170862e-19 -0.003884452299)
(188.4576168 -1.536680666e-16 -4.165383591)
(225.1393599 1.50256195e-16 -4.429333564)
(245.7388777 -5.436280382e-17 -4.92796988)
(261.9596774 -4.882121116e-17 -5.321268794)
(277.0874274 5.04723994e-17 -5.717234361)
(292.8368615 0 -6.165322539)
(308.7043113 0 -6.731845812)
(318.8798874 6.695044509e-17 -7.162858405)
(320.8172258 -6.249037452e-17 -7.246411104)
(320.6688172 0 -7.208505592)
(320.3360756 0 -7.274766608)
(320.016822 0 -7.240196147)
(319.6229374 -6.625997895e-17 -7.304087873)
(319.1874699 5.528228567e-17 -7.296295306)
(318.6725767 -1.416542434e-18 -7.349473491)
(318.0803799 -1.186987216e-18 -7.370763938)
(317.3869405 0 -7.42369238)
(316.5791244 -2.518803945e-18 -7.470351334)
(315.6342548 0 -7.535420557)
(314.5301557 1.17236235e-18 -7.607158941)
(313.2400387 3.994184294e-18 -7.69387659)
(311.7347028 -2.886266173e-17 -7.792743572)
(309.9819375 -1.742029362e-17 -7.905209292)
(307.9476076 3.856100558e-17 -8.028310363)
(305.5972509 0 -8.157064611)
(302.8991047 6.949274391e-18 -8.281218239)
(299.829122 -1.182551708e-17 -8.384052319)
(296.3783803 0 -8.440610564)
(292.5630176 -3.464436569e-17 -8.417419324)
(288.435159 1.44584145e-17 -8.274908746)
(284.0901725 -3.775176103e-17 -7.97478825)
(279.6632103 1.075486467e-17 -7.492461982)
(275.311355 -3.68671717e-17 -6.829832022)
(271.1864718 -1.572028453e-17 -6.020896547)
(267.4102475 0 -5.125713272)
(264.0607246 4.595451689e-17 -4.215347161)
(261.1719152 -3.873690616e-17 -3.355051351)
(258.7418791 0 -2.592259157)
(256.7434283 1.121059847e-16 -1.952094943)
(255.1337941 -9.484576437e-17 -1.439418773)
(253.8621679 8.015071683e-17 -1.044573281)
(252.8753315 2.706010297e-16 -0.7499445747)
(252.1217806 -1.138634669e-16 -0.5354134004)
(251.5545286 0 -0.3819408043)
(251.132734 4.852665272e-16 -0.2733752524)
(250.822324 -5.443627049e-16 -0.1969947966)
(250.5958047 -3.435485853e-16 -0.1432683721)
(250.4316104 3.854103022e-16 -0.1053147834)
(250.3132093 0 -0.07829052055)
(250.2281616 -2.727912981e-16 -0.05884021765)
(250.1672409 2.295329307e-16 -0.04466029012)
(250.1236733 5.796240154e-16 -0.03417354787)
(250.092518 3.253721266e-16 -0.02629701702)
(250.0701634 -2.740686009e-16 -0.02028485599)
(250.0539776 9.239805341e-16 -0.01562745468)
(250.0419809 -7.793025575e-16 -0.01197384247)
(250.0329205 -4.933753306e-16 -0.009024186215)
(250.025714 5.558573627e-16 -0.006662715244)
(250.0197396 1.058118877e-15 -0.004015067979)
(250.012683 9.803956319e-17 -0.004017421169)
(192.6998137 -1.587190683e-19 -6.936619571)
(230.5376327 1.613748697e-16 -7.703274485)
(251.7243126 -2.36129001e-16 -8.512743368)
(268.4209752 1.075516608e-16 -9.152236013)
(284.0799487 1.130719645e-16 -9.784735365)
(300.2759879 -2.557746028e-16 -10.4851708)
(315.6526344 2.833814677e-16 -11.30014811)
(322.955753 3.679870603e-19 -11.69394674)
(323.6581124 -2.633046098e-16 -11.75843065)
(323.4080535 1.145119124e-16 -11.70345967)
(323.0560153 0 -11.77817633)
(322.7102632 7.846386596e-17 -11.72912093)
(322.2809861 -6.54011561e-17 -11.79296438)
(321.8046107 -2.603131303e-18 -11.77526981)
(321.2399898 4.806165024e-17 -11.82219182)
(320.5887171 3.755171151e-18 -11.83410264)
(319.8246084 -3.270074143e-17 -11.87688585)
(318.9324756 1.728196254e-18 -11.91178593)
(317.8870884 -4.63996865e-17 -11.96263739)
(316.6632681 3.645302768e-17 -12.0175093)
(315.2308996 -2.807045015e-20 -12.08305222)
(313.557065 -2.09382647e-17 -12.15516155)
(311.6057551 1.750038733e-17 -12.23269001)
(309.3393423 0 -12.30946555)
(306.7210401 -4.234915724e-17 -12.37574142)
(303.7192623 6.985778836e-18 -12.41496078)
(300.3145706 3.679475815e-17 -12.40231885)
(296.5095571 2.126624571e-17 -12.30339474)
(292.3411065 1.836915684e-17 -12.07514708)
(287.8913335 -1.481943097e-17 -11.67147669)
(283.2896802 1.974342581e-19 -11.05516898)
(278.6991741 -4.473059924e-17 -10.21349617)
(274.2882748 3.810644347e-17 -9.169603507)
(270.1998902 -9.816361992e-17 -7.982170169)
(266.5309811 2.764175455e-17 -6.732557234)
(263.3284156 0 -5.505726027)
(260.5974046 -8.066098213e-17 -4.373096179)
(258.3148167 -6.852892149e-17 -3.382504817)
(256.4412752 -1.594003927e-20 -2.556124368)
(254.9296099 4.906068882e-17 -1.894298258)
(253.7300261 -8.257145925e-17 -1.382298519)
(252.7932771 -6.971878337e-17 -0.9973882504)
(252.0728423 2.351069642e-16 -0.7145516182)
(251.5264934 2.97141675e-16 -0.5102752727)
(251.1173254 -1.665550373e-16 -0.3644949992)
(250.8142143 2.803129525e-16 -0.261206276)
(250.5917245 5.890841229e-16 -0.188233476)
(250.4296422 -3.961160887e-16 -0.1366324834)
(250.3122797 6.657180789e-16 -0.09999684913)
(250.2277002 -2.796775648e-16 -0.07381356733)
(250.166964 -4.698988442e-16 -0.05493687225)
(250.1234539 1.973301994e-16 -0.04118511562)
(250.0923095 -6.630520214e-16 -0.03104595696)
(250.0699618 0 -0.02346950715)
(250.053788 -1.871152343e-15 -0.01773438249)
(250.0418267 7.858367981e-16 -0.01333956513)
(250.0327824 3.30042132e-16 -0.009888962169)
(250.0256201 -1.386141426e-16 -0.007210098224)
(250.0197604 -9.315524326e-16 -0.004237007831)
(250.0127082 0 -0.004147476368)
(196.5917111 -3.431734543e-16 -9.837483506)
(235.4343483 -1.692586835e-19 -11.21521847)
(257.1376542 0 -12.32788733)
(274.329223 1.161880666e-19 -13.23476319)
(290.579925 -1.271737926e-16 -14.12828946)
(307.0706135 1.434545676e-16 -15.10368889)
(320.9663032 -3.013778444e-19 -16.08410816)
(325.6004192 -5.973314368e-19 -16.35812513)
(325.6762786 1.061431035e-18 -16.42081648)
(325.3971008 1.154491341e-16 -16.34678095)
(325.0215805 -9.725005532e-17 -16.43271427)
(324.644864 1.273767105e-18 -16.3722159)
(324.1757937 -6.789097842e-17 -16.43808188)
(323.6529178 5.847851946e-17 -16.41453313)
(323.0318032 4.761114085e-17 -16.4582368)
(322.313086 -4.233437114e-17 -16.46479238)
(321.4682129 -4.178326274e-18 -16.50068064)
(320.479585 0 -16.52690924)
(319.3191824 0 -16.56553164)
(317.9585274 0 -16.60429876)
(316.3639555 -3.807324799e-17 -16.64764038)
(314.4987498 1.4134671e-17 -16.68967094)
(312.3233575 3.630563861e-17 -16.72585264)
(309.7975558 -2.035613952e-17 -16.7456462)
(306.8841772 2.609574913e-17 -16.73300566)
(303.5553002 1.479027859e-17 -16.66326056)
(299.8016617 -2.53909879e-17 -16.50173174)
(295.6452135 2.136007992e-17 -16.20342815)
(291.1525159 -1.838919904e-17 -15.71675852)
(286.4421529 -3.074330756e-19 -14.99387628)
(281.6771371 2.677569035e-17 -14.00717201)
(277.0390888 4.614977964e-17 -12.76520834)
(272.6929947 0 -11.31861666)
(268.7584236 6.744138095e-17 -9.751525594)
(265.2982919 0 -8.16260777)
(262.3250544 0 -6.644468256)
(259.8162837 2.081804546e-16 -5.268590068)
(257.7308267 3.516646463e-17 -4.078610703)
(256.0205012 2.391604563e-16 -3.090972135)
(254.6364858 5.056701063e-17 -2.300287516)
(253.5319728 5.542948894e-16 -1.686646535)
(252.6630701 -2.15643193e-16 -1.222722466)
(251.9892685 -1.211424533e-16 -0.8794165765)
(251.4739333 -9.171417025e-16 -0.6295884154)
(251.0848088 -1.755932526e-19 -0.4500054858)
(250.7943354 7.201264161e-16 -0.3219694458)
(250.579651 6.050574301e-16 -0.2310911776)
(250.4223095 -1.117648606e-15 -0.1666624784)
(250.3077911 -5.117162313e-16 -0.1209117097)
(250.224905 2.862431198e-16 -0.08829471477)
(250.1651756 -1.200299045e-15 -0.06490215967)
(250.1222692 0 -0.04799581888)
(250.0914946 1.349437081e-15 -0.03566258954)
(250.0693853 1.130396945e-15 -0.02656577951)
(250.0533729 9.464179335e-16 -0.01978149821)
(250.0415354 0 -0.01466474282)
(250.0325649 6.621704331e-16 -0.01072447005)
(250.025466 6.915503671e-17 -0.007746096753)
(250.0197108 -2.078036328e-15 -0.004468900718)
(250.0125712 3.174851215e-15 -0.004281667373)
(200.0507656 -7.267940509e-16 -12.91370992)
(239.7933417 3.728778e-16 -14.92312879)
(261.9606983 -1.406783176e-16 -16.35753934)
(279.6231443 -6.382890442e-22 -17.55328266)
(296.471089 0 -18.73243867)
(313.1230678 3.140974217e-19 -20.00356921)
(324.4092586 3.1014124e-21 -21.0094923)
(327.0478228 0 -21.15165235)
(326.8799636 -2.199799266e-18 -21.23178662)
(326.5749708 -1.180835172e-16 -21.14065195)
(326.1748583 9.918626528e-17 -21.23844867)
(325.7607926 0 -21.16821971)
(325.2446674 -7.152748013e-17 -21.23521615)
(324.6668297 -1.946327174e-18 -21.20642833)
(323.9797373 4.553953702e-17 -21.24540002)
(323.1826174 -8.179338451e-17 -21.24543253)
(322.244481 7.278962019e-17 -21.27190209)
(321.1449194 3.607652705e-18 -21.28665213)
(319.8528496 0 -21.30938102)
(318.3361798 4.115256463e-17 -21.32760541)
(316.5575704 -4.319400223e-17 -21.34293493)
(314.4767184 3.676885891e-17 -21.34681476)
(312.0513511 -3.713256891e-17 -21.3299397)
(309.2404428 0 -21.27562217)
(306.0096567 -1.791023971e-17 -21.15951506)
(302.3398943 0 -20.94684084)
(298.2395062 2.627869533e-17 -20.59162625)
(293.7588236 -2.210862792e-17 -20.0386994)
(289.001782 0 -19.23192259)
(284.1251044 0 -18.13003404)
(279.3177962 0 -16.72549974)
(274.7649807 0 -15.05639686)
(270.6115965 0 -13.20342401)
(266.9418017 1.053773354e-16 -11.27295083)
(263.7793818 -1.491428694e-16 -9.374406731)
(261.1031565 1.015113074e-16 -7.601015729)
(258.8669824 -1.716274375e-16 -6.01866085)
(257.0162929 -1.822081027e-16 -4.663066177)
(255.497974 -9.201368318e-17 -3.542998013)
(254.2642463 -1.558085859e-16 -2.646705668)
(253.2729395 -5.697979644e-16 -1.949312698)
(252.4864737 -2.955507482e-16 -1.419591526)
(251.8709451 4.356688018e-16 -1.025242345)
(251.3957574 8.372861084e-16 -0.736383302)
(251.0337017 -7.038051379e-16 -0.5273945051)
(250.7611601 -7.38887438e-16 -0.3775144532)
(250.5581946 -8.683370551e-16 -0.2706165118)
(250.4084382 1.040689553e-15 -0.1945704799)
(250.2988002 1.22165291e-15 -0.1404753855)
(250.2190466 -1.462496272e-16 -0.1019136411)
(250.1613296 1.347161864e-15 -0.07431527686)
(250.1197215 -1.84490783e-15 -0.05445150727)
(250.0897913 -2.914289823e-15 -0.04005027581)
(250.0682399 -1.002676922e-15 -0.02951454242)
(250.0526028 0 -0.02173401941)
(250.0410267 1.595116773e-15 -0.01593007498)
(250.032226 -4.980877248e-16 -0.011521057)
(250.025242 -2.070572422e-16 -0.008257321303)
(250.0196335 1.832990775e-15 -0.004695229084)
(250.0124745 -3.034130185e-15 -0.004416448543)
(202.9605379 1.877796824e-19 -16.13716004)
(243.5160481 0 -18.80566385)
(266.1116325 1.504840733e-19 -20.57785044)
(284.2452174 -1.450427453e-19 -22.0851879)
(301.6394128 -3.146052676e-19 -23.57549935)
(318.0888495 0 -25.1309639)
(326.4459746 7.036085479e-19 -26.02754589)
(327.6221505 -1.301466137e-18 -26.05924664)
(327.2628299 1.129455085e-18 -26.15446205)
(326.9417453 -9.499381842e-19 -26.04348748)
(326.4906336 0 -26.14904809)
(326.0345875 8.475178487e-17 -26.06761132)
(325.4661243 -7.077242291e-17 -26.13107584)
(324.8264879 6.129711293e-17 -26.09484657)
(324.0651863 -4.972219141e-17 -26.12564401)
(323.1793823 5.233005958e-18 -26.11710858)
(322.1355093 0 -26.13171502)
(320.9099575 -6.308146158e-17 -26.13267872)
(319.4684731 4.97814778e-17 -26.13625492)
(317.775403 -1.05609315e-17 -26.12895215)
(315.7901545 8.902303161e-18 -26.1083286)
(313.4697782 0 -26.06178748)
(310.7710277 0 -25.97372947)
(307.6550663 0 -25.81959972)
(304.0951436 0 -25.56502611)
(300.0878971 -6.363251924e-17 -25.16378846)
(295.6680104 -3.989488878e-19 -24.55875027)
(290.9225163 -2.323349298e-17 -23.68789671)
(285.996221 2.821650244e-19 -22.49835893)
(281.0783902 1.682319349e-17 -20.96640306)
(276.3693264 -2.928246433e-17 -19.11434745)
(272.0392368 1.246852274e-16 -17.01401292)
(268.1979404 -8.532027744e-17 -14.77363113)
(264.8866208 -7.217130745e-17 -12.51476789)
(262.0897359 1.228151875e-16 -10.34951059)
(259.7568891 -1.04299966e-16 -8.365034678)
(257.8241988 0 -6.617269294)
(256.229143 -1.879442302e-16 -5.131763992)
(254.917709 -2.853140079e-16 -3.908825384)
(253.8456891 1.068353892e-16 -2.930453304)
(252.9769081 1.073311929e-19 -2.167408331)
(252.2807137 2.655103922e-16 -1.585391985)
(251.7300465 -5.105959691e-16 -1.149792915)
(251.3004507 4.295215604e-16 -0.8288298882)
(250.9698491 1.442574893e-15 -0.5952281647)
(250.7186773 1.513979925e-16 -0.4267598782)
(250.5300576 -1.269217893e-16 -0.3060207048)
(250.3898475 0 -0.2197980732)
(250.2865252 -1.604470392e-15 -0.1583033242)
(250.2109362 1.491909671e-16 -0.1144125671)
(250.1559619 2.246039108e-15 -0.08300820176)
(250.1161618 3.127512298e-15 -0.06044602215)
(250.0874265 4.176334426e-15 -0.04414438125)
(250.0666702 0 -0.03227820592)
(250.0515664 0 -0.02357151691)
(250.0403538 -1.60560485e-15 -0.01712552722)
(250.0317913 1.664866401e-16 -0.01227522119)
(250.0249579 -2.75606996e-16 -0.008742620729)
(250.0195145 -1.820460895e-15 -0.004916669011)
(250.012338 -5.849502126e-18 -0.004549050197)
(205.2907236 -1.992450552e-19 -19.48876475)
(246.6147129 2.169451815e-16 -22.84026262)
(269.6343389 -3.389282403e-16 -24.97402874)
(288.2969916 1.65342387e-16 -26.8217627)
(306.187002 3.526554613e-19 -28.66241013)
(321.5559923 1.923895422e-16 -30.40615502)
(327.1954009 -1.901517388e-16 -31.09375747)
(327.6586461 1.347194077e-18 -31.03053218)
(326.8591371 -1.466271543e-16 -31.12785672)
(326.50932 1.237280954e-16 -30.99156152)
(326.0168229 -1.618651935e-18 -31.10304917)
(325.5105096 0 -31.01546581)
(324.8805061 -4.787976791e-21 -31.0773064)
(324.1679487 -3.805085116e-18 -31.03729539)
(323.3197642 3.186362631e-18 -31.06115896)
(322.3305671 3.223846712e-17 -31.04498299)
(321.1643474 -3.599870567e-17 -31.04633234)
(319.7942184 0 -31.02989728)
(318.1829536 6.435880225e-18 -31.00755965)
(316.2916833 -3.270746413e-17 -30.96424447)
(314.0772823 3.652252623e-17 -30.89268295)
(311.4955491 1.5627488e-17 -30.77514844)
(308.5048008 0 -30.5883217)
(305.0725983 -2.26133815e-17 -30.29807786)
(301.1860255 0 -29.85861896)
(296.8656066 -3.928812565e-19 -29.21208952)
(292.1808915 2.786743038e-17 -28.2927828)
(287.2607711 4.773275281e-17 -27.03876123)
(282.2879245 -4.09068208e-17 -25.41126488)
(277.4711821 0 -23.41514847)
(273.0031315 0 -21.10882343)
(269.0214927 9.958408874e-19 -18.59670624)
(265.5906385 -7.187529949e-19 -16.0075365)
(262.7069058 3.751483992e-17 -13.46895074)
(260.3195865 -1.589498929e-16 -11.08775596)
(258.3558073 -2.6972196e-17 -8.939796715)
(256.7406059 2.052389711e-16 -7.068345675)
(255.4087285 -2.706330431e-16 -5.487894605)
(254.3087291 2.599491665e-16 -4.190441531)
(253.4019155 2.751366103e-17 -3.152378082)
(252.6589703 -9.237400306e-17 -2.340931895)
(252.05639 3.884432939e-17 -1.719604258)
(251.5738777 6.542814658e-17 -1.252308528)
(251.1929522 -9.338920888e-16 -0.906121689)
(250.8965293 -7.37976977e-16 -0.6527663517)
(250.6690247 0 -0.4690840068)
(250.4966103 1.037962637e-15 -0.336812819)
(250.3674014 0 -0.241975471)
(250.2715013 0 -0.1741275938)
(250.2008988 0 -0.1256038837)
(250.149266 -4.189611506e-15 -0.09085376533)
(250.1117019 -1.588518614e-15 -0.06589598759)
(250.0844627 -2.823009878e-15 -0.04789222001)
(250.0647093 -2.494819914e-15 -0.03482487849)
(250.0502801 -1.827703218e-15 -0.02527577258)
(250.0395243 0 -0.01824148547)
(250.0312638 0 -0.01298299339)
(250.0246165 1.376021631e-16 -0.009198790829)
(250.0193616 1.809387551e-15 -0.005128647929)
(250.0121878 -1.156412836e-17 -0.004679131917)
(207.0075818 2.119736095e-19 -22.98442533)
(249.0891374 0 -26.99767388)
(272.5787589 1.823758882e-19 -29.54016084)
(291.8414251 -1.205467613e-21 -31.75934592)
(310.1132033 -2.004629065e-16 -33.98833272)
(323.2657105 2.089913444e-16 -35.71617683)
(326.3553787 0 -36.1549463)
(326.1187376 0 -36.02649459)
(325.715949 1.500242642e-16 -36.15871326)
(325.3309636 2.09670038e-19 -36.01355572)
(324.7861641 -1.056025466e-16 -36.12748257)
(324.2208688 0 -36.03116537)
(323.5199184 2.313936035e-18 -36.08523511)
(322.7234186 6.622828175e-17 -36.03667767)
(321.7761963 -5.54748828e-17 -36.04614103)
(320.6698354 5.486744792e-18 -36.01425702)
(319.3659783 -4.650420363e-18 -35.99230337)
(317.8343402 7.846240872e-18 -35.94661606)
(316.0348814 -5.291492432e-17 -35.8840347)
(313.9259981 -3.8812349e-19 -35.78705958)
(311.4632121 8.512661521e-17 -35.64233105)
(308.603381 -4.787605713e-17 -35.42518811)
(305.3102389 0 -35.10270912)
(301.5634234 -2.919066555e-19 -34.62967314)
(297.3713324 1.96801576e-17 -33.94852647)
(292.7867557 3.373139176e-17 -32.99178629)
(287.9205146 0 -31.69110051)
(282.9430472 0 -29.99486686)
(278.0644829 -2.150195223e-17 -27.89031079)
(273.4946563 1.811702558e-17 -25.4191671)
(269.3988425 0 -22.67673001)
(265.8689053 -1.328758181e-16 -19.79360378)
(262.9195934 1.357219617e-16 -16.90912365)
(260.5057519 -1.91882238e-17 -14.14763753)
(258.5486896 -6.890832232e-19 -11.60414734)
(256.9607805 -2.218216832e-16 -9.339779998)
(255.6623766 -4.445886338e-16 -7.384103989)
(254.5899556 4.136557927e-16 -5.740832429)
(253.6973047 -3.327860937e-17 -4.394496478)
(252.9525457 0 -3.316856361)
(252.3336173 -4.733175679e-17 -2.472539564)
(251.8240573 -5.970950329e-16 -1.823686272)
(251.4100083 0 -1.333475986)
(251.0786052 0 -0.9684900352)
(250.8174557 -7.54121671e-16 -0.6999988871)
(250.6147455 0 -0.5043686434)
(250.4595705 -9.265412853e-16 -0.3628428794)
(250.3422447 1.661736934e-15 -0.2609597061)
(250.2544815 -9.261779264e-17 -0.1878285227)
(250.1894232 -2.397523846e-15 -0.1353951449)
(250.1415541 2.193142096e-15 -0.09778466999)
(250.1065378 -3.545946127e-15 -0.07075483065)
(250.08102 0 -0.05126309668)
(250.062429 2.37340214e-15 -0.0371353583)
(250.048785 5.897726464e-15 -0.02683552884)
(250.0385608 0 -0.0192718846)
(250.0306539 1.673177394e-16 -0.01364204789)
(250.0242224 -1.374306587e-16 -0.009625486621)
(250.0191748 1.799635415e-15 -0.00533179963)
(250.0120141 5.871414276e-15 -0.004806979222)
(208.0911169 -9.211642481e-16 -26.57858416)
(250.9305163 2.545455272e-16 -31.26626492)
(274.9927988 -2.009094583e-19 -34.26372271)
(294.8905069 4.025678907e-19 -36.89237088)
(313.1891044 4.278741592e-19 -39.51133295)
(323.6814565 -2.211023743e-16 -41.00787844)
(324.7368779 2.057759713e-16 -41.25842467)
(324.4102249 0 -41.08800724)
(323.8763303 1.53348144e-16 -41.2386614)
(323.4476738 2.392903394e-19 -41.07163782)
(322.8463817 -1.062677478e-16 -41.18225376)
(322.2153064 0 -41.0749571)
(321.4359574 2.38373016e-18 -41.11463327)
(320.546171 0 -41.0525104)
(319.4891004 -2.688263064e-20 -41.04036845)
(318.2527761 0 -40.98482984)
(316.7965846 -3.821383462e-17 -40.92952365)
(315.0869105 -1.480861118e-19 -40.8419367)
(313.0814561 2.028063971e-17 -40.7227764)
(310.7370917 4.619296324e-17 -40.55062852)
(308.0101786 -4.846938073e-17 -40.30443102)
(304.8621199 -1.669264879e-17 -39.95086885)
(301.2670567 -2.840124871e-17 -39.4462476)
(297.2233241 2.386607742e-17 -38.73400441)
(292.7685119 2.07280168e-17 -37.74642777)
(287.9948365 1.80851789e-17 -36.41127625)
(283.0565434 0 -34.66682091)
(278.1582771 -5.212456447e-17 -32.48391034)
(273.5205832 8.921244695e-17 -29.88588594)
(269.333485 5.718937764e-17 -26.95450103)
(265.7185518 1.460342701e-16 -23.81685445)
(262.7147408 1.105994959e-16 -20.61954569)
(260.2890907 0 -17.50180571)
(258.3621871 0 -14.57669349)
(256.8359921 1.003636623e-16 -11.92301841)
(255.615654 2.550791089e-16 -9.585750067)
(254.6222896 1.915803021e-16 -7.581084305)
(253.7975046 3.233861289e-16 -5.903051656)
(253.1020984 5.46274583e-16 -4.52996042)
(252.5116755 4.599677434e-16 -3.430055723)
(252.0114205 -4.837793363e-17 -2.566286482)
(251.591551 6.908333752e-16 -1.900182483)
(251.2441598 -1.093044068e-15 -1.394811798)
(250.9615192 -5.734158514e-17 -1.016785555)
(250.7355309 8.171478684e-16 -0.7373664179)
(250.5578558 -8.057375331e-17 -0.5328156255)
(250.4203163 6.741831675e-17 -0.3841826054)
(250.3153047 -3.608895978e-15 -0.2767577764)
(250.2360799 0 -0.1993855143)
(250.1769091 2.514712103e-15 -0.143757778)
(250.1330814 -2.094998955e-15 -0.1037737156)
(250.100829 6.969905081e-15 -0.07500039007)
(250.0771954 -1.808345321e-16 -0.05424063485)
(250.0598864 -2.247240857e-15 -0.03919845164)
(250.0471131 -3.838431929e-15 -0.02824371103)
(250.0374804 -3.367802064e-15 -0.02021262566)
(250.0299694 0 -0.01425070485)
(250.0237794 0 -0.01002197197)
(250.0189568 -3.582161e-15 -0.005526070893)
(250.0118197 -5.806323178e-15 -0.004932400772)
(208.6400977 6.839952267e-20 -30.25962184)
(252.291318 -2.771581692e-16 -35.66110753)
(277.0097547 0 -39.1605344)
(297.5167735 4.523499393e-19 -42.24839805)
(315.0545679 -9.404185012e-19 -45.1427172)
(322.5037431 0 -46.23148596)
(322.370832 -2.124702398e-16 -46.37328676)
(321.9713799 1.841962019e-16 -46.16633787)
(321.4180579 -1.247144461e-18 -46.32499196)
(320.9383514 0 -46.14142311)
(320.2730813 3.469393633e-18 -46.24395821)
(319.5668065 9.276907349e-17 -46.12540812)
(318.698927 -2.152170148e-18 -46.14581688)
(317.7038394 2.6717894e-19 -46.06545709)
(316.523506 -5.836502198e-17 -46.02410442)
(315.1420867 0 -45.93520154)
(313.5170541 4.863291299e-18 -45.83354753)
(311.6119938 -8.214507901e-18 -45.68687659)
(309.3834817 -2.80734296e-17 -45.48865718)
(306.7887644 1.162499791e-17 -45.21206674)
(303.7879416 2.02308995e-17 -44.82710161)
(300.3511402 8.120970936e-22 -44.29074205)
(296.4686244 0 -43.54826805)
(292.1646957 2.510472275e-17 -42.53283001)
(287.5137038 4.36183509e-19 -41.17034115)
(282.6515155 -1.812588237e-17 -39.39181507)
(277.7716752 0 -37.15395761)
(273.0983771 1.07191701e-16 -34.46161422)
(268.841498 -1.140740054e-16 -31.37987303)
(265.1521209 -5.835863714e-17 -28.02738243)
(262.0977231 -1.326820036e-16 -24.55319281)
(259.6640964 1.523871441e-17 -21.10811256)
(257.7773223 -3.608987203e-17 -17.82167877)
(256.3330844 -3.065426957e-16 -14.78998937)
(255.2226871 -2.934572784e-16 -12.07356083)
(254.3505798 -1.895114008e-16 -9.701428974)
(253.6428334 3.687575466e-16 -7.677730394)
(253.0484736 3.521192715e-16 -5.98838144)
(252.536286 -1.132844025e-15 -4.606871954)
(252.0895039 -4.397771554e-16 -3.499041783)
(251.7002421 -2.465798108e-17 -2.626996347)
(251.3648661 -4.148547786e-17 -1.952286547)
(251.0808347 1.113936733e-15 -1.438365583)
(250.8450175 9.056657456e-16 -1.052282262)
(250.6531641 4.895348011e-17 -0.7656347124)
(250.5000712 0 -0.5548686187)
(250.380048 -2.195616113e-15 -0.4010783306)
(250.2874071 1.834518738e-15 -0.2894993044)
(250.2168549 -9.570290331e-17 -0.2088618105)
(250.1637274 -1.109484614e-20 -0.1507190106)
(250.1240896 1.990535565e-16 -0.1088297961)
(250.0947293 -3.638622621e-15 -0.07863311586)
(250.0730845 0 -0.05682209411)
(250.0571386 2.570230445e-15 -0.04101080636)
(250.0452971 -1.247037072e-16 -0.02949746701)
(250.0363007 3.281491075e-15 -0.02106167604)
(250.0292187 -2.689031361e-15 -0.01480807747)
(250.0232913 0 -0.01038788775)
(250.018709 3.567244526e-15 -0.005711403962)
(250.0116034 5.759115139e-15 -0.005055194767)
(208.7092241 -5.214020601e-16 -34.02278807)
(253.2706834 -3.028550099e-16 -40.18585344)
(278.7168844 2.533445008e-16 -44.23918214)
(299.8050208 -4.962155411e-19 -47.84694413)
(315.55085 -2.578260535e-16 -50.76416406)
(319.7254531 4.865566044e-16 -51.38320691)
(319.4078101 -2.178734584e-16 -51.49903227)
(318.9987095 1.469667683e-18 -51.2743774)
(318.3913429 -1.580753558e-16 -51.44130772)
(317.8534402 -3.117025799e-19 -51.23626798)
(317.1172091 1.092739356e-16 -51.32056719)
(316.3264097 -9.791632971e-17 -51.18440237)
(315.3597725 7.948110468e-17 -51.17556815)
(314.2472089 0 -51.06711439)
(312.9300974 -4.954912504e-17 -50.98409025)
(311.3887605 9.513801208e-17 -50.84676898)
(309.5794268 -2.990156731e-17 -50.67995045)
(307.4638445 3.411184769e-17 -50.4503144)
(304.9989945 -2.862549275e-17 -50.14306889)
(302.1448584 -2.474132522e-17 -49.72466396)
(298.8687675 2.061408524e-17 -49.15529205)
(295.1546144 1.784580158e-17 -48.38168439)
(291.0155693 0 -47.33868161)
(286.5096706 0 -45.95195182)
(281.7538408 -4.37652577e-17 -44.14780886)
(276.9264651 -3.81903818e-17 -41.871644)
(272.2486384 0 -39.11102424)
(267.9437479 -1.109265711e-16 -35.91277333)
(264.1897689 -9.542499956e-17 -32.38300065)
(261.084947 2.027173787e-17 -28.6683933)
(258.6395418 1.210004695e-16 -24.92749219)
(256.7917816 -1.015058583e-16 -21.30415785)
(255.4365266 -1.857574012e-16 -17.91105185)
(254.4543788 3.122981576e-16 -14.82427755)
(253.7337052 2.814973506e-16 -12.08597141)
(253.1833583 2.375956927e-16 -9.710665718)
(252.737234 -4.258034145e-16 -7.69232051)
(252.3530755 -3.165283277e-16 -6.010483779)
(252.0079674 5.685592411e-16 -4.635210141)
(251.6925293 -2.99262221e-17 -3.530940145)
(251.4052828 8.301344461e-16 -2.659641615)
(251.1481147 4.225509437e-17 -1.9833882)
(250.9232269 2.244440416e-20 -1.466394265)
(250.7315312 -9.808540056e-16 -1.076447809)
(250.572167 -4.982071209e-17 -0.7857359538)
(250.4427146 -1.461311094e-20 -0.5711057262)
(250.3397128 4.496502031e-15 -0.4138797947)
(250.259217 0 -0.2993902533)
(250.1972647 -9.710380201e-17 -0.2163750079)
(250.1501877 1.61705273e-16 -0.1563434789)
(250.1147834 2.083573327e-15 -0.1129866905)
(250.0883711 0 -0.0816694167)
(250.0687701 0 -0.05901454489)
(250.0542358 -1.52472395e-16 -0.04257479466)
(250.0433661 4.142500806e-15 -0.03059705472)
(250.0350376 1.030077438e-16 -0.02181852772)
(250.0284093 2.610431112e-15 -0.01531381442)
(250.0227617 -1.096767691e-15 -0.01072299391)
(250.0184328 -1.777170819e-15 -0.00588764749)
(250.011365 -5.739982102e-15 -0.005174995257)
(208.3228041 0 -37.86787194)
(253.9516563 6.444260469e-19 -44.85594847)
(280.1348321 0 -49.52555839)
(301.531943 -2.79365116e-16 -53.66127567)
(314.8042211 7.73689851e-19 -56.32251752)
(316.6053909 5.05425982e-16 -56.54783369)
(315.9408295 -2.233187084e-16 -56.65937195)
(315.5120687 -1.922928068e-16 -56.38237263)
(314.8479403 -2.921014995e-18 -56.55102916)
(314.2427408 1.394899117e-16 -56.32788187)
(313.4267029 0 -56.38826813)
(312.5404274 1.001291311e-16 -56.23084908)
(311.4635338 -8.647215265e-17 -56.18455275)
(310.2206976 6.879841342e-17 -56.03783892)
(308.7534195 -5.038610912e-17 -55.89883786)
(307.0384025 0 -55.69428264)
(305.0313083 -1.024583969e-17 -55.43846669)
(302.6931311 -3.508944085e-17 -55.09599)
(299.9830844 -3.200936798e-19 -54.64315626)
(296.8669242 6.278717801e-17 -54.03855803)
(293.3238087 -2.125895095e-17 -53.23197229)
(289.3578228 -1.809868404e-17 -52.1599708)
(285.0128147 1.571739673e-17 -50.749078)
(280.3874046 -1.322248635e-17 -48.9231599)
(275.6424404 6.920840897e-17 -46.61916033)
(270.9901476 -2.012307304e-17 -43.80960168)
(266.6604328 -8.447614341e-17 -40.52285922)
(262.8534383 8.546720908e-17 -36.84959734)
(259.698025 7.267718213e-17 -32.92969194)
(257.2330846 -1.050892562e-17 -28.92526223)
(255.415371 -1.05268205e-16 -24.99177752)
(254.1451549 -1.200080373e-16 -21.25730664)
(253.2968695 1.890773413e-16 -17.81340338)
(252.7450318 1.712600234e-16 -14.71555343)
(252.3812456 0 -11.9889274)
(252.1223426 0 -9.635702655)
(251.9117249 -4.097128426e-16 -7.641762387)
(251.7163449 3.4478898e-16 -5.981994126)
(251.5214132 5.981177577e-16 -4.624264449)
(251.324431 -5.027815473e-16 -3.532465293)
(251.1296883 -1.61213833e-15 -2.668988805)
(250.9439313 6.662282113e-16 -1.996807658)
(250.7734857 1.189799587e-15 -1.481166083)
(250.6227657 -3.020605053e-17 -1.090801788)
(250.4938574 0 -0.7986686385)
(250.3867787 4.233801835e-17 -0.5821704832)
(250.3000411 -2.299176036e-15 -0.4229937352)
(250.2312602 5.904692615e-17 -0.3066824857)
(250.1776798 -4.919970379e-17 -0.2220775952)
(250.1365456 0 -0.1607211194)
(250.1053355 0 -0.116295753)
(250.0818679 1.127116358e-16 -0.08413739837)
(250.0643248 2.981920938e-15 -0.06083248559)