/*--------------------------------*- C++ -*----------------------------------*\
  =========                 |
  \\      /  F ield         | OpenFOAM: The Open Source CFD Toolbox
   \\    /   O peration     | Website:  https://openfoam.org
    \\  /    A nd           | Version:  12
     \\/     M anipulation  |
\*---------------------------------------------------------------------------*/
FoamFile
{
    format      ascii;
    class       volScalarField;
    location    "0.04";
    object      k;
}
// * * * * * * * * * * * * * * * * * * * * * * * * * * * * * * * * * * * * * //

dimensions      [0 2 -2 0 0 0 0];

internalField   nonuniform List<scalar> 
16000
(
0.050203814
0.02156562
0.022427981
0.01666393
0.014115496
0.012771146
0.01197418
0.011498342
0.011176166
0.01096008
0.010800005
0.010681318
0.010588512
0.01051536
0.010456728
0.010409198
0.010370404
0.010338907
0.010312985
0.010291884
0.010274607
0.01026068
0.010249445
0.010240497
0.010233495
0.01022817
0.010224302
0.010221735
0.010220339
0.01022
0.010220616
0.01022211
0.010224428
0.010227528
0.010231374
0.010235927
0.01024114
0.010246957
0.010253314
0.01026014
0.01026735
0.010274856
0.010282573
0.010290422
0.01029832
0.010306196
0.010313989
0.010321651
0.010329137
0.010336402
0.010343398
0.010350068
0.01035633
0.01036207
0.01036712
0.010371235
0.010374069
0.010375151
0.010373896
0.010369682
0.010362022
0.010350777
0.010336279
0.010319191
0.010300155
0.010279482
0.010257071
0.010232939
0.01020861
0.010188545
0.010179399
0.010186
0.010212068
0.010254306
0.010307164
0.010345053
0.010328872
0.01030716
0.010133112
0.010035565
0.046959864
0.020447018
0.020993928
0.016103687
0.013764982
0.01256521
0.011807627
0.011378532
0.011071541
0.010872619
0.010722928
0.010612979
0.010526607
0.010458883
0.010404757
0.010361093
0.010325519
0.010296923
0.010273553
0.010254791
0.010239539
0.010227502
0.010218037
0.010210711
0.010205239
0.010201351
0.010198832
0.010197528
0.010197316
0.010198088
0.010199742
0.0102022
0.010205404
0.010209312
0.01021389
0.0102191
0.010224904
0.010231251
0.010238084
0.010245341
0.010252947
0.010260819
0.010268877
0.010277044
0.010285245
0.010293404
0.010301459
0.010309361
0.010317065
0.010324526
0.010331698
0.010338523
0.010344922
0.01035078
0.010355927
0.01036012
0.010363022
0.010364192
0.010363088
0.010359128
0.010351832
0.010341032
0.010327005
0.010310352
0.01029164
0.010271083
0.010248527
0.010224054
0.010199457
0.010179668
0.010171669
0.010180129
0.010208137
0.01025205
0.010303132
0.010336822
0.010315541
0.01027321
0.010124342
0.010030423
0.042956304
0.019651772
0.019677155
0.015530097
0.013405972
0.012333324
0.011635278
0.011248201
0.010964995
0.010784253
0.010645815
0.010545078
0.010465639
0.01040365
0.01035433
0.010314805
0.01028269
0.010257196
0.01023653
0.010220279
0.010207202
0.010197164
0.010189589
0.010183985
0.010180131
0.010177757
0.010176663
0.010176695
0.010177733
0.010179675
0.010182422
0.010185895
0.010190033
0.010194793
0.010200137
0.010206032
0.010212441
0.010219319
0.010226612
0.010234266
0.010242214
0.010250381
0.01025869
0.010267072
0.010275454
0.010283764
0.01029194
0.010299933
0.0103077
0.010315197
0.01032238
0.010329193
0.01033556
0.010341366
0.010346442
0.010350545
0.010353346
0.010354425
0.010353283
0.010349387
0.010342276
0.010331753
0.01031803
0.010301647
0.010283104
0.010262524
0.010239689
0.010214795
0.01019004
0.010170903
0.010164516
0.010175267
0.010206264
0.0102527
0.010302498
0.010328332
0.010297273
0.010240239
0.010117112
0.010024909
0.039720543
0.019106336
0.018547745
0.015015532
0.013080987
0.012124027
0.011477522
0.011129468
0.010867241
0.010703013
0.010575345
0.010483137
0.01041032
0.010353753
0.010309011
0.010273486
0.010244711
0.010222247
0.010204172
0.01019035
0.010179419
0.010171318
0.010165603
0.010161701
0.010159441
0.010158556
0.010158867
0.010160215
0.010162482
0.01016557
0.010169384
0.010173841
0.010178879
0.010184448
0.010190513
0.010197037
0.010203987
0.010211321
0.010218992
0.010226948
0.010235133
0.010243478
0.010251914
0.010260375
0.010268797
0.010277112
0.010285259
0.010293191
0.010300867
0.010308247
0.010315289
0.010321943
0.010328135
0.010333755
0.01033864
0.010342554
0.010345177
0.010346111
0.010344896
0.010341042
0.010334109
0.010323853
0.010310399
0.010294198
0.0102757
0.010254974
0.010231762
0.010206392
0.010181479
0.010162987
0.010158208
0.010171116
0.010205353
0.010254525
0.010302896
0.010320041
0.010278755
0.010215768
0.010110709
0.010020374
0.036255784
0.018797947
0.017601191
0.014539234
0.012778234
0.011926077
0.011329621
0.011017578
0.010776102
0.010627372
0.010510266
0.010426209
0.010359884
0.010308592
0.010268311
0.010236731
0.010211253
0.01019182
0.0101763
0.010164866
0.010156102
0.010149925
0.010146062
0.010143876
0.010143213
0.010143827
0.010145544
0.010148209
0.010151703
0.010155929
0.010160795
0.010166214
0.010172122
0.010178465
0.010185205
0.010192305
0.01019973
0.010207445
0.010215405
0.010223565
0.010231875
0.010240277
0.010248708
0.01025711
0.010265426
0.010273595
0.010281561
0.010289279
0.010296712
0.010303825
0.010310579
0.010316929
0.010322806
0.010328111
0.010332687
0.010336312
0.010338679
0.010339408
0.010338066
0.0103342
0.010327388
0.010317346
0.010304089
0.01028796
0.010269362
0.010248345
0.010224649
0.010198744
0.01017366
0.010155845
0.010152683
0.010167817
0.010205588
0.010257677
0.010303577
0.010312624
0.010263599
0.010197668
0.010103552
0.010017179
0.034068406
0.018723408
0.016892283
0.014103215
0.012499866
0.011741987
0.011192929
0.010913975
0.010692454
0.010558022
0.010451166
0.010374806
0.010314772
0.010268576
0.010232597
0.010204872
0.010182613
0.010166185
0.010153201
0.01014412
0.010137537
0.010133294
0.010131256
0.010130795
0.010131731
0.010133849
0.01013697
0.010140943
0.010145648
0.010150988
0.010156871
0.01016321
0.010169935
0.010176989
0.01018433
0.010191921
0.010199728
0.010207717
0.010215851
0.010224089
0.01023239
0.010240706
0.010248984
0.010257172
0.010265225
0.010273089
0.010280717
0.010288066
0.010295105
0.010301804
0.01030813
0.010314042
0.01031948
0.010324353
0.01032852
0.010331775
0.01033383
0.010334319
0.010332826
0.010328921
0.010322195
0.010312324
0.010299211
0.010283064
0.010264225
0.01024277
0.01021849
0.010192
0.010166734
0.010149787
0.010147785
0.010165459
0.010206823
0.010261402
0.010303668
0.010307788
0.010250342
0.0101809
0.010095021
0.010015023
0.031906488
0.018810127
0.016388825
0.013703796
0.012243405
0.011571054
0.011067195
0.010818488
0.010616179
0.010494873
0.01039792
0.010328864
0.01027493
0.0102337
0.010201899
0.010177964
0.010158888
0.010145449
0.010135022
0.010128303
0.010123926
0.010121724
0.010121447
0.010122721
0.010125268
0.010128891
0.010133409
0.010138675
0.010144564
0.01015098
0.010157828
0.010165021
0.010172484
0.010180158
0.010187998
0.010195965
0.010204028
0.010212156
0.01022032
0.010228485
0.010236619
0.010244685
0.010252642
0.010260449
0.01026807
0.010275465
0.010282592
0.010289417
0.010295914
0.010302059
0.010307824
0.010313174
0.010318058
0.010322397
0.010326068
0.010328886
0.010330584
0.010330813
0.010329162
0.010325207
0.010318537
0.010308796
0.010295779
0.010279535
0.010260324
0.010238284
0.010213326
0.010186219
0.010160795
0.010145188
0.010143815
0.010164212
0.010208942
0.010264853
0.010303218
0.010304187
0.010239683
0.010165607
0.010085042
0.010013406
0.029104289
0.018989694
0.015975228
0.013338288
0.012007272
0.01141303
0.010952027
0.01073094
0.010546906
0.010437765
0.010350413
0.010288371
0.010240398
0.010204068
0.010176373
0.010156184
0.010140316
0.010129846
0.010122047
0.010117705
0.010115532
0.010115784
0.010116965
0.010119981
0.010124145
0.010129262
0.010135156
0.010141679
0.010148701
0.010156124
0.010163852
0.010171798
0.010179884
0.010188047
0.010196242
0.010204431
0.010212586
0.010220683
0.010228697
0.010236606
0.010244388
0.010252019
0.01025947
0.010266715
0.010273727
0.010280481
0.010286945
0.010293093
0.010298904
0.010304362
0.010309444
0.010314123
0.010318354
0.010322072
0.010325176
0.010327503
0.010328814
0.010328775
0.010326975
0.010322974
0.010316345
0.010306698
0.010293733
0.010277333
0.010257647
0.010234891
0.010209178
0.010181464
0.010155966
0.010141751
0.010141056
0.010164257
0.010211714
0.010267496
0.010302149
0.010300152
0.01023072
0.010152592
0.010075163
0.010012866
0.027248639
0.019178229
0.015493308
0.013003399
0.011789958
0.011266968
0.010846558
0.010650309
0.010484634
0.010386896
0.010308838
0.010253587
0.010211452
0.01017999
0.010156363
0.010139858
0.010127278
0.01011968
0.010114721
0.01011268
0.01011261
0.0101146
0.010118198
0.010122948
0.010128716
0.010135296
0.010142517
0.010150226
0.010158293
0.010166613
0.010175092
0.010183641
0.010192184
0.010200657
0.010209017
0.010217228
0.010225268
0.01023312
0.010240771
0.010248211
0.010255431
0.01026242
0.010269168
0.010275659
0.010281882
0.010287824
0.010293467
0.010298791
0.010303785
0.010308435
0.010312727
0.010316638
0.010320135
0.010323165
0.010325647
0.010327446
0.01032835
0.010328044
0.010326113
0.010322085
0.010315494
0.010305908
0.010292948
0.010276349
0.010256119
0.010232547
0.010206024
0.010177749
0.010152244
0.010139302
0.010139328
0.010165678
0.01021464
0.010268743
0.010300317
0.010293835
0.010221655
0.010141884
0.010067546
0.01001389
0.025560451
0.019348434
0.014815754
0.012696313
0.011591213
0.011133499
0.010751441
0.010578015
0.010429913
0.01034268
0.010273587
0.01022494
0.010188521
0.0101619
0.010142351
0.010129403
0.010120277
0.010115093
0.010113252
0.01011165
0.010116142
0.010120158
0.010125545
0.010132022
0.010139347
0.010147322
0.010155773
0.01016455
0.010173517
0.010182567
0.010191607
0.010200551
0.010209326
0.010217871
0.010226148
0.010234129
0.0102418
0.010249157
0.010256199
0.010262931
0.010269359
0.01027549
0.010281328
0.010286875
0.010292132
0.0102971
0.010301774
0.010306144
0.010310202
0.010313943
0.010317356
0.010320425
0.010323126
0.01032542
0.010327245
0.010328493
0.01032898
0.010328413
0.010326373
0.010322349
0.010315806
0.010306253
0.010293246
0.010276406
0.010255598
0.010231145
0.010203776
0.010175006
0.010149542
0.010137915
0.010138708
0.010168104
0.010216818
0.010267688
0.010296195
0.010281661
0.010211028
0.010133139
0.010063319
0.010015978
0.023980794
0.019490172
0.014266672
0.012414403
0.011411529
0.011012882
0.010667397
0.010514735
0.010382878
0.010305474
0.010245043
0.010202875
0.010172077
0.010150285
0.010134897
0.010125156
0.010119934
0.010115311
0.010118767
0.010121904
0.010126109
0.010132218
0.01013947
0.0101476
0.010156384
0.010165623
0.010175146
0.0101848
0.01019445
0.010203989
0.010213324
0.010222381
0.010231093
0.010239408
0.010247297
0.010254746
0.010261754
0.01026833
0.010274493
0.010280262
0.010285662
0.010290717
0.010295447
0.01029987
0.010304
0.010307851
0.01031143
0.010314735
0.010317764
0.010320515
0.010322984
0.01032516
0.010327025
0.010328556
0.010329706
0.010330394
0.010330462
0.010329642
0.010327515
0.010323527
0.01031706
0.010307524
0.010294411
0.010277279
0.010255878
0.010230515
0.010202271
0.010173072
0.01014778
0.010137472
0.010139276
0.010170338
0.010217187
0.010263524
0.010286669
0.0102628
0.010199111
0.010126242
0.010062222
0.01001897
0.022581841
0.019619436
0.013789108
0.012158489
0.011250878
0.0109046
0.010594156
0.010459848
0.010343837
0.010275724
0.010223673
0.010187913
0.010162677
0.010145696
0.010134655
0.010126886
0.010126981
0.010128327
0.010131071
0.010136356
0.010143313
0.010151386
0.010160382
0.010170027
0.010180095
0.010190385
0.010200729
0.010210977
0.010220999
0.010230691
0.010239971
0.010248777
0.010257057
0.010264777
0.010271922
0.010278496
0.010284517
0.010290011
0.010295017
0.010299572
0.010303718
0.010307496
0.010310941
0.010314084
0.010316955
0.010319575
0.010321961
0.01032412
0.010326054
0.010327764
0.010329249
0.010330504
0.010331518
0.010332277
0.010332753
0.010332882
0.010332535
0.010331466
0.010329266
0.010325344
0.010318987
0.010309479
0.010296208
0.010278709
0.010256703
0.010230442
0.010201294
0.01017178
0.01014796
0.010137905
0.010141112
0.01017075
0.010214869
0.010256071
0.010273027
0.010245604
0.010187291
0.010121026
0.010062831
0.010022063
0.021316431
0.01971239
0.013355019
0.011928337
0.01110884
0.010808786
0.010531771
0.010414033
0.010313111
0.010253924
0.010210024
0.010180658
0.010160975
0.01014878
0.010142388
0.010140621
0.010141311
0.010145218
0.010151435
0.010159174
0.010168149
0.010178066
0.010188615
0.010199534
0.010210599
0.01022161
0.010232407
0.01024285
0.01025282
0.010262228
0.01027101
0.010279121
0.010286538
0.010293247
0.010299259
0.010304597
0.010309302
0.010313421
0.01031701
0.010320124
0.010322821
0.010325155
0.010327176
0.010328925
0.010330441
0.010331754
0.010332887
0.010333852
0.010334657
0.010335304
0.010335793
0.010336124
0.010336292
0.01033629
0.010336101
0.010335682
0.010334924
0.010333606
0.010331331
0.01032749
0.010321283
0.010311838
0.01029839
0.010280438
0.010257792
0.010230697
0.01020066
0.010171299
0.010149187
0.010139379
0.010142714
0.010168514
0.010209224
0.0102452
0.010256641
0.010228773
0.010176787
0.010116956
0.010063584
0.010025022
0.020177478
0.019722735
0.012960498
0.011721602
0.010984632
0.01072537
0.010480352
0.010377627
0.010291135
0.010240691
0.010204797
0.010181854
0.010167764
0.010160429
0.01015816
0.010159739
0.010164519
0.010171481
0.010180162
0.010190163
0.010201074
0.010212555
0.010224326
0.010236132
0.010247757
0.010259012
0.010269752
0.010279856
0.010289233
0.010297819
0.010305576
0.010312494
0.010318576
0.010323845
0.010328334
0.010332093
0.010335183
0.010337671
0.010339627
0.010341124
0.010342228
0.010343006
0.010343515
0.010343804
0.010343917
0.01034389
0.010343748
0.010343509
0.010343183
0.010342772
0.010342279
0.010341704
0.010341048
0.010340308
0.010339475
0.010338519
0.010337351
0.010335773
0.010333408
0.01032964
0.010323604
0.01031428
0.010300695
0.010282237
0.010258876
0.01023107
0.010200177
0.01017219
0.010150592
0.010140758
0.01014207
0.010164176
0.01020001
0.010230713
0.010237695
0.010212949
0.010167002
0.010112935
0.01006356
0.010027282
0.019152323
0.019549239
0.01260472
0.011537483
0.010877931
0.010654578
0.010440163
0.010351247
0.010278603
0.010236895
0.010208919
0.010192466
0.010184012
0.010181581
0.010183665
0.010189106
0.010197007
0.010206795
0.010217898
0.010229853
0.010242289
0.01025488
0.010267353
0.010279467
0.01029103
0.01030188
0.010311901
0.010321009
0.010329153
0.01033631
0.01034248
0.01034769
0.010351981
0.010355408
0.010358031
0.010359924
0.010361164
0.010361833
0.010362014
0.010361785
0.010361221
0.010360392
0.01035936
0.010358177
0.010356889
0.010355532
0.010354134
0.010352715
0.010351284
0.010349847
0.010348405
0.010346961
0.010345515
0.010344067
0.010342613
0.010341131
0.010339549
0.010337691
0.010335203
0.010331474
0.010325603
0.010316452
0.010302838
0.010283929
0.010259751
0.01023138
0.010200618
0.010173556
0.010151693
0.010141073
0.010141403
0.01015829
0.010187821
0.010213239
0.01021828
0.010197124
0.010156589
0.010107824
0.010062344
0.010028881
0.018225414
0.018778341
0.012284559
0.011375106
0.010788964
0.010596783
0.010411727
0.010335833
0.010276552
0.010243678
0.010223591
0.010213687
0.010210885
0.010213327
0.010219601
0.010228629
0.010239601
0.010251866
0.010264905
0.010278276
0.010291613
0.010304609
0.010317022
0.010328647
0.010339333
0.010348971
0.010357493
0.01036487
0.010371104
0.010376221
0.010380267
0.010383309
0.010385422
0.010386688
0.010387194
0.010387026
0.010386276
0.010385031
0.010383377
0.010381396
0.010379161
0.010376742
0.0103742
0.010371586
0.010368944
0.010366309
0.010363708
0.01036116
0.010358677
0.010356263
0.010353922
0.010351653
0.010349458
0.010347337
0.010345286
0.010343287
0.010341281
0.010339113
0.010336453
0.010332708
0.010326961
0.010318002
0.010304496
0.010285366
0.010260429
0.010231205
0.010201899
0.010175222
0.010152891
0.010140436
0.010139466
0.010151608
0.01017468
0.010194957
0.010198687
0.010180223
0.010144311
0.010100802
0.010060224
0.010029644
0.017387301
0.017425617
0.01200145
0.011234206
0.010716818
0.010552882
0.010396064
0.010332766
0.010286402
0.010262484
0.010250237
0.010246861
0.010249617
0.010256758
0.01026696
0.010279195
0.01029267
0.01030677
0.010320988
0.010334909
0.010348206
0.01036062
0.010371965
0.010382106
0.01039096
0.010398492
0.010404702
0.010409626
0.010413324
0.010415874
0.010417365
0.010417895
0.010417567
0.010416483
0.010414742
0.010412439
0.010409667
0.010406511
0.010403055
0.010399374
0.010395537
0.010391607
0.010387639
0.01038368
0.010379769
0.01037594
0.010372216
0.010368614
0.010365147
0.010361821
0.010358636
0.010355593
0.010352693
0.010349931
0.010347304
0.010344792
0.010342347
0.010339831
0.010336941
0.01033311
0.010327426
0.010318645
0.010305348
0.010286301
0.010261107
0.010231345
0.010203354
0.010176956
0.010154131
0.010139569
0.010136311
0.010144296
0.010160998
0.010176316
0.010178409
0.010161743
0.01012991
0.010091831
0.010056477
0.010029275
0.016633763
0.016536062
0.01176202
0.011115129
0.010662324
0.010524242
0.010394646
0.010343703
0.010309822
0.010294917
0.01029038
0.010293362
0.010301378
0.010312775
0.010326296
0.010340964
0.010356019
0.010370882
0.010385105
0.01039834
0.01041034
0.010420938
0.010430039
0.010437609
0.010443656
0.010448229
0.010451405
0.010453282
0.010453973
0.010453595
0.01045227
0.010450115
0.010447246
0.010443771
0.01043979
0.010435398
0.010430677
0.010425708
0.010420561
0.010415302
0.01040999
0.010404677
0.010399409
0.010394227
0.010389164
0.010384247
0.010379497
0.010374932
0.01037056
0.010366388
0.010362419
0.010358652
0.010355085
0.010351712
0.010348525
0.010345504
0.010342602
0.010339696
0.010336511
0.010332517
0.010326832
0.010318212
0.01030519
0.01028644
0.010261452
0.010231809
0.010204677
0.010178617
0.010155458
0.010138914
0.010132634
0.010136232
0.010147188
0.010157603
0.010157605
0.010142134
0.010114344
0.010082019
0.010051711
0.010026209
0.01595711
0.015522129
0.011557546
0.011018369
0.01062643
0.010512532
0.010409079
0.010370518
0.010348696
0.010342732
0.010345588
0.010354449
0.010367026
0.010381752
0.010397446
0.010413207
0.01042836
0.010442423
0.010455068
0.010466074
0.010475323
0.010482779
0.01048847
0.010492469
0.010494883
0.010495839
0.010495478
0.010493946
0.010491387
0.010487943
0.010483745
0.010478917
0.010473571
0.010467808
0.010461721
0.01045539
0.010448885
0.010442272
0.010435608
0.010428943
0.010422323
0.010415789
0.010409376
0.010403115
0.010397031
0.010391148
0.010385482
0.010380048
0.010374854
0.010369908
0.010365211
0.010360764
0.010356563
0.010352601
0.010348866
0.010345335
0.010341958
0.010338621
0.010335074
0.010330836
0.010325085
0.01031662
0.010303956
0.010285676
0.010261173
0.010232204
0.010205672
0.010179992
0.010156627
0.010138488
0.010128895
0.010127972
0.010133661
0.010139463
0.010137377
0.01012323
0.010099822
0.010073289
0.010047132
0.010022201
0.015351234
0.014821886
0.011390079
0.010944523
0.010610158
0.010519911
0.010441512
0.01041553
0.010405227
0.010407752
0.010417178
0.010430791
0.010446496
0.010462852
0.010478824
0.010493679
0.010506917
0.010518235
0.010527494
0.010534651
0.010539751
0.0105429
0.010544247
0.010543961
0.010542225
0.010539221
0.010535124
0.010530102
0.01052431
0.010517886
0.010510958
0.010503635
0.010496015
0.010488184
0.010480215
0.010472172
0.010464108
0.01045607
0.010448098
0.010440227
0.01043249
0.010424913
0.010417521
0.010410335
0.010403372
0.01039665
0.01039018
0.010383974
0.010378042
0.010372388
0.010367016
0.010361928
0.010357119
0.010352583
0.010348304
0.010344255
0.010340384
0.010336577
0.010332608
0.010328049
0.010322168
0.010313851
0.010301655
0.010284092
0.010260388
0.010232398
0.010206276
0.010180903
0.010157369
0.010137979
0.010125189
0.0101202
0.01012106
0.010122855
0.010119393
0.010107319
0.010088382
0.010066422
0.010042817
0.010018435
0.014810298
0.014059792
0.011256384
0.010896204
0.010615389
0.010549681
0.010494961
0.01048143
0.010481498
0.010491139
0.010505292
0.010521462
0.010537835
0.010553229
0.010566889
0.010578362
0.01058742
0.010594008
0.010598206
0.010600161
0.010600071
0.010598159
0.010594657
0.010589794
0.010583787
0.010576837
0.010569122
0.010560802
0.010552017
0.010542889
0.010533522
0.010524004
0.010514409
0.010504801
0.010495231
0.010485743
0.010476372
0.010467147
0.010458091
0.010449224
0.010440565
0.010432127
0.010423923
0.010415965
0.010408263
0.010400828
0.010393666
0.010386786
0.010380195
0.010373899
0.010367902
0.010362206
0.01035681
0.010351705
0.010346877
0.010342297
0.010337908
0.010333596
0.010329154
0.010324209
0.010318132
0.010309945
0.010298321
0.010281795
0.010259397
0.010232363
0.010206577
0.010181498
0.010157779
0.010137324
0.010122164
0.010113451
0.010110141
0.010108691
0.010104578
0.010094795
0.010079513
0.010060405
0.010038279
0.010015055
0.014333662
0.013462214
0.011160927
0.01087802
0.010646046
0.010605866
0.010572521
0.01057007
0.010578
0.010591866
0.010607489
0.010622805
0.010636464
0.010647718
0.010656211
0.010661853
0.010664728
0.01066503
0.010663028
0.010659012
0.010653276
0.010646104
0.010637755
0.010628468
0.010618451
0.010607884
0.010596925
0.010585702
0.010574326
0.010562889
0.010551464
0.010540114
0.010528888
0.010517822
0.010506949
0.010496292
0.010485867
0.010475689
0.010465765
0.010456103
0.010446707
0.010437579
0.010428722
0.010420139
0.010411833
0.010403805
0.01039606
0.0103886
0.010381432
0.010374559
0.010367987
0.010361717
0.010355751
0.010350082
0.010344696
0.010339565
0.01033463
0.010329781
0.010324826
0.010319445
0.010313116
0.010305023
0.010294004
0.01027867
0.010257926
0.010232202
0.010206735
0.010182028
0.010158267
0.010136995
0.010119904
0.010108111
0.01010123
0.010097024
0.010092166
0.010083831
0.010070935
0.010053815
0.010033428
0.010012223
0.013926516
0.012990478
0.011106265
0.010895014
0.010725234
0.010691518
0.010675302
0.010680331
0.01069167
0.010705194
0.010717814
0.010728127
0.010735433
0.010739512
0.010740445
0.010738481
0.010733953
0.01072723
0.01071868
0.010708652
0.010697456
0.010685368
0.010672624
0.010659423
0.010645935
0.010632297
0.010618623
0.010605005
0.010591515
0.010578211
0.010565138
0.01055233
0.010539812
0.0105276
0.010515706
0.010504136
0.010492892
0.010481973
0.010471377
0.010461097
0.010451129
0.010441465
0.010432099
0.010423024
0.010414237
0.010405732
0.010397508
0.010389563
0.010381899
0.010374519
0.010367426
0.010360624
0.010354112
0.010347889
0.010341941
0.010336242
0.010330737
0.010325322
0.010319827
0.010313977
0.010307351
0.010299302
0.010288875
0.010274816
0.010255897
0.01023199
0.010206901
0.010182611
0.010158952
0.01013708
0.010118406
0.01010399
0.010093956
0.010087047
0.010080879
0.010072921
0.010061566
0.010046487
0.010028607
0.010009957
0.013597745
0.012608789
0.011096477
0.010947489
0.010825482
0.010805965
0.010799723
0.010806141
0.010814777
0.010822465
0.010827355
0.010828852
0.010826914
0.010821796
0.010813903
0.010803688
0.0107916
0.010778051
0.010763404
0.010747972
0.010732015
0.010715749
0.010699348
0.010682953
0.010666673
0.010650597
0.010634791
0.010619307
0.010604183
0.010589444
0.010575108
0.010561187
0.010547685
0.010534601
0.010521931
0.010509669
0.010497804
0.010486325
0.010475218
0.010464471
0.010454069
0.010443999
0.010434245
0.010424795
0.010415636
0.010406758
0.010398154
0.010389816
0.010381743
0.010373933
0.010366387
0.010359107
0.010352094
0.010345345
0.010338849
0.010332585
0.010326502
0.010320511
0.010314465
0.010308138
0.010301191
0.010293122
0.010283189
0.010270358
0.010253424
0.01023171
0.010207208
0.010183255
0.010159747
0.010137392
0.010117374
0.010100695
0.010087802
0.010078213
0.010070365
0.010062096
0.010051895
0.010038964
0.010023914
0.010008092
0.01336375
0.012330401
0.011134506
0.011041784
0.010955812
0.010940901
0.010935813
0.010936333
0.010935959
0.010932902
0.010926493
0.010916844
0.01090437
0.010889582
0.010872998
0.010855085
0.010836251
0.010816833
0.010797105
0.010777286
0.010757547
0.010738022
0.01071881
0.010699986
0.010681607
0.010663709
0.01064632
0.010629455
0.010613123
0.010597325
0.010582057
0.010567314
0.010553083
0.010539352
0.010526105
0.010513325
0.010500995
0.010489094
0.010477604
0.010466505
0.010455777
0.010445399
0.010435353
0.010425619
0.01041618
0.01040702
0.010398125
0.010389484
0.010381088
0.010372934
0.010365017
0.010357336
0.010349888
0.010342671
0.010335677
0.010328885
0.010322256
0.010315715
0.010309142
0.010302354
0.010295086
0.010286943
0.010277353
0.010265516
0.010250435
0.01023118
0.010207811
0.010184032
0.010160632
0.01013783
0.01011662
0.010097976
0.010082576
0.010070427
0.010060683
0.010051843
0.010042254
0.010031142
0.010018903
0.010006314
0.013228229
0.012153857
0.011223273
0.011167065
0.011101415
0.011082983
0.011069353
0.011057335
0.011043305
0.011026737
0.01100774
0.010986766
0.010964335
0.010940928
0.01091696
0.010892762
0.010868595
0.01084466
0.010821106
0.01079804
0.010775542
0.010753662
0.010732436
0.010711884
0.010692013
0.010672824
0.010654312
0.010636466
0.010619272
0.010602715
0.010586775
0.010571432
0.010556666
0.010542454
0.010528774
0.010515601
0.010502914
0.010490688
0.010478898
0.010467523
0.010456537
0.010445918
0.010435642
0.010425687
0.010416031
0.010406654
0.010397538
0.010388668
0.01038003
0.010371615
0.010363415
0.010355423
0.010347633
0.01034004
0.010332636
0.010325403
0.010318311
0.010311299
0.010304269
0.010297078
0.010289515
0.010281278
0.010271931
0.010260844
0.010247169
0.010229954
0.01020871
0.01018519
0.0101618
0.010138579
0.010116259
0.010095816
0.010078096
0.01006351
0.010051684
0.01004163
0.010032411
0.01002303
0.010013637
0.010004527
0.013153322
0.012076819
0.01137612
0.011306859
0.011245908
0.011213614
0.011184594
0.011156502
0.011127617
0.011097917
0.011067655
0.011037182
0.01100682
0.010976827
0.0109474
0.010918678
0.010890754
0.010863689
0.010837516
0.010812251
0.010787894
0.010764436
0.010741861
0.010720147
0.010699271
0.010679207
0.010659926
0.010641401
0.010623604
0.010606506
0.010590079
0.010574294
0.010559124
0.010544542
0.010530521
0.010517032
0.010504051
0.010491551
0.010479505
0.010467888
0.010456675
0.010445841
0.01043536
0.010425209
0.010415363
0.010405801
0.010396502
0.010387448
0.010378623
0.010370012
0.010361603
0.010353387
0.010345353
0.010337493
0.010329798
0.010322251
0.010314825
0.010307472
0.010300114
0.010292635
0.01028487
0.010276568
0.010267366
0.010256755
0.010244077
0.010228573
0.010209546
0.010186961
0.010163507
0.010139971
0.010116644
0.010094496
0.010074506
0.010057466
0.010043574
0.010032337
0.010022973
0.01001508
0.01000842
0.010002708
0.013152896
0.012032176
0.011529377
0.011437562
0.011365703
0.011315319
0.011269488
0.011226593
0.011185326
0.01114548
0.011106994
0.011069886
0.01103417
0.01099985
0.01096691
0.010935322
0.010905046
0.010876039
0.01084825
0.010821631
0.01079613
0.010771698
0.010748286
0.010725848
0.010704337
0.010683711
0.010663929
0.010644952
0.010626744
0.010609267
0.010592489
0.010576377
0.010560899
0.010546024
0.010531724
0.01051797
0.010504733
0.010491986
0.010479704
0.010467859
0.010456426
0.01044538
0.010434695
0.010424347
0.010414312
0.010404567
0.010395091
0.010385864
0.01037687
0.010368092
0.010359518
0.010351135
0.010342932
0.0103349
0.010327027
0.010319298
0.010311686
0.010304148
0.010296619
0.010289001
0.010281151
0.010272855
0.010263802
0.010253571
0.010241635
0.01022736
0.010210039
0.010189201
0.01016587
0.010142176
0.010118116
0.010094534
0.010072519
0.010053176
0.010037167
0.010024502
0.010014846
0.010007953
0.010003578
0.010000947
0.013237163
0.012054493
0.011643685
0.01153292
0.011446
0.011379982
0.011321456
0.011268394
0.011219163
0.011173096
0.011129746
0.011088818
0.011050084
0.011013361
0.010978493
0.010945344
0.010913794
0.010883737
0.010855075
0.010827721
0.010801597
0.010776629
0.010752752
0.010729903
0.010708027
0.010687071
0.010666987
0.010647729
0.010629257
0.010611529
0.01059451
0.010578165
0.010562459
0.01054736
0.010532839
0.010518865
0.01050541
0.010492447
0.010479948
0.010467888
0.010456241
0.010444982
0.010434087
0.010423531
0.010413292
0.010403346
0.010393674
0.010384255
0.010375073
0.010366113
0.010357363
0.010348813
0.010340453
0.010332276
0.01032427
0.010316421
0.010308704
0.010301081
0.010293494
0.010285854
0.01027803
0.010269823
0.010260951
0.010251053
0.010239693
0.010226349
0.010210404
0.010191237
0.010168701
0.010144864
0.010120396
0.010095801
0.010072272
0.010051137
0.010033392
0.010019397
0.010009159
0.010002687
0.0099997607
0.0099994436
0.013358827
0.012110719
0.01170314
0.011581199
0.011484169
0.01140999
0.011345472
0.011287982
0.011235469
0.011186942
0.011141729
0.011099371
0.011059527
0.01102193
0.010986364
0.010952649
0.010920633
0.010890184
0.010861187
0.010833542
0.010807158
0.010781955
0.010757859
0.010734805
0.010712733
0.010691587
0.010671317
0.010651875
0.010633217
0.010615304
0.010598097
0.01058156
0.010565659
0.010550361
0.010535636
0.010521454
0.010507786
0.010494604
0.010481883
0.010469596
0.010457717
0.010446223
0.01043509
0.010424293
0.01041381
0.010403618
0.010393698
0.01038403
0.010374598
0.01036539
0.010356396
0.010347608
0.010339018
0.010330623
0.010322413
0.010314376
0.010306493
0.01029873
0.010291033
0.010283324
0.010275484
0.010267333
0.010258628
0.010249054
0.010238225
0.010225658
0.010210739
0.010192768
0.010171309
0.010147409
0.010122689
0.010097415
0.010072883
0.010050593
0.01003173
0.010016795
0.010005949
0.0099996923
0.0099981131
0.0099983828
75.534761
400.14931
132.26127
15.102035
0.41141766
0.022276593
0.020308839
0.019797886
0.019454598
0.018362665
0.017068529
0.015941065
0.015060413
0.014484114
0.014078337
0.01369958
0.013327564
0.012994448
0.012714636
0.012481277
0.01228308
0.012112063
0.011963244
0.011832958
0.011718147
0.01161628
0.011525363
0.011443831
0.011370461
0.011304291
0.011244526
0.011190482
0.011141565
0.01109728
0.011057244
0.011021152
0.010988741
0.010959781
0.01093406
0.010911387
0.010891594
0.010874511
0.010859969
0.010847814
0.010837902
0.010830083
0.010824201
0.01082009
0.010817578
0.010816478
0.010816578
0.010817632
0.010819352
0.010821399
0.010823371
0.010824822
0.010825294
0.010824323
0.010821481
0.010816438
0.010808822
0.010798158
0.010783841
0.010760836
0.010731921
0.010700197
0.010659936
0.010616834
0.010536664
0.010450152