/*--------------------------------*- C++ -*----------------------------------*\
  =========                 |
  \\      /  F ield         | OpenFOAM: The Open Source CFD Toolbox
   \\    /   O peration     | Website:  https://openfoam.org
    \\  /    A nd           | Version:  12
     \\/     M anipulation  |
\*---------------------------------------------------------------------------*/
FoamFile
{
    format      ascii;
    class       volScalarField;
    location    "0.04";
    object      nut;
}
// * * * * * * * * * * * * * * * * * * * * * * * * * * * * * * * * * * * * * //

dimensions      [0 2 -1 0 0 0 0];

internalField   nonuniform List<scalar> 
16000
(
4.8318071e-07
9.9026446e-06
1.8399783e-05
2.3879426e-05
1.8540636e-05
2.5104612e-05
1.8024812e-05
2.4282828e-05
1.9371335e-05
2.6103951e-05
2.2414035e-05
2.5852973e-05
2.3796432e-05
2.4275635e-05
2.3511725e-05
2.334742e-05
2.3108608e-05
2.3035755e-05
2.3044241e-05
2.3149783e-05
2.3345682e-05
2.3630589e-05
2.4001652e-05
2.4458675e-05
2.5003389e-05
2.5641356e-05
2.6380126e-05
2.7231914e-05
2.8211486e-05
2.9334606e-05
3.0618683e-05
3.2087028e-05
3.3769728e-05
3.5703782e-05
3.7934526e-05
4.0515787e-05
4.3511329e-05
4.6996909e-05
5.1066079e-05
5.5834057e-05
6.1434807e-05
6.8025322e-05
7.5802853e-05
8.5006883e-05
9.591938e-05
0.00010887583
0.00012428905
0.00014265717
0.00016458091
0.00019078531
0.00022214861
0.0002597365
0.00030483962
0.00035902914
0.00042422381
0.00050278425
0.00059764253
0.00071249339
0.00085192262
0.001021927
0.0010241441
0.001023439
0.0010226029
0.001021609
0.0010205026
0.0010192968
0.0010179826
0.0010165558
0.0010150968
0.0010138591
0.0010132386
0.0010135271
0.0010148721
0.0010170702
0.0010198024
0.0010217551
0.001020593
0.0010191918
0.0010090204
0.001002742
4.3912585e-07
9.404839e-06
1.9911695e-05
2.1605078e-05
1.6740895e-05
2.2600065e-05
1.601372e-05
2.1381468e-05
1.7075922e-05
2.3138048e-05
2.0248625e-05
2.3343782e-05
2.174273e-05
2.2006685e-05
2.1400065e-05
2.1194289e-05
2.0991291e-05
2.0914701e-05
2.0923186e-05
2.1018479e-05
2.1198119e-05
2.1460754e-05
2.1804078e-05
2.2227996e-05
2.2733812e-05
2.3326732e-05
2.4013273e-05
2.4804465e-05
2.5714352e-05
2.6758369e-05
2.795272e-05
2.9318722e-05
3.0884267e-05
3.2683705e-05
3.475961e-05
3.7162842e-05
3.9954087e-05
4.3204897e-05
4.7002923e-05
5.1458156e-05
5.6700526e-05
6.2879092e-05
7.0181477e-05
7.8838844e-05
8.9125601e-05
0.00010136491
0.0001159564
0.00013338459
0.00015423588
0.00017921968
0.00020919715
0.00024521795
0.00028855699
0.00034077253
0.00040377399
0.00047991881
0.00057214956
0.00068416622
0.00082064175
0.0009876616
0.0010235103
0.0010228312
0.0010220188
0.0010210488
0.0010199595
0.0010187591
0.0010174353
0.0010159875
0.0010145128
0.0010132953
0.0010127543
0.0010131652
0.0010146026
0.001016872
0.0010194899
0.0010211642
0.0010197681
0.001017144
0.0010084552
0.0010023813
3.9067156e-07
9.0375217e-06
1.8867415e-05
1.9733449e-05
1.5009583e-05
1.9952187e-05
1.4264527e-05
1.8620621e-05
1.5353799e-05
2.0338554e-05
1.8454464e-05
2.0809193e-05
1.9687466e-05
1.9719816e-05
1.924863e-05
1.9028753e-05
1.8856831e-05
1.8787234e-05
1.8799535e-05
1.8890446e-05
1.9058569e-05
1.9303123e-05
1.9622164e-05
2.0015883e-05
2.0485297e-05
2.1035481e-05
2.1672294e-05
2.2405776e-05
2.3249123e-05
2.4217518e-05
2.5326452e-05
2.6595761e-05
2.8051637e-05
2.9726278e-05
3.1659959e-05
3.3900986e-05
3.6507574e-05
3.9548362e-05
4.3106418e-05
4.7286811e-05
5.2216948e-05
5.8040765e-05
6.4938573e-05
7.3134773e-05
8.2899793e-05
9.4549253e-05
0.00010847462
0.00012515289
0.00014516364
0.00016921047
0.00019814902
0.00023302711
0.00027512109
0.00032599697
0.00038758009
0.00046225486
0.00055299957
0.00066357185
0.00079876253
0.00096478522
0.0010229066
0.0010222484
0.00102145
0.0010204939
0.0010194124
0.0010182091
0.0010168679
0.0010153951
0.0010139117
0.0010127366
0.0010122961
0.0010128493
0.0010144362
0.0010168229
0.0010193671
0.0010206145
0.0010186786
0.001015228
0.0010079722
0.0010020061
3.5235255e-07
8.7454681e-06
1.7936386e-05
1.8382172e-05
1.3508858e-05
1.7649558e-05
1.2715683e-05
1.6301879e-05
1.3816455e-05
1.795653e-05
1.683349e-05
1.8565549e-05
1.7794514e-05
1.7661473e-05
1.7291049e-05
1.7075421e-05
1.6931119e-05
1.687308e-05
1.6891813e-05
1.6981731e-05
1.7141876e-05
1.7371995e-05
1.7670556e-05
1.8038151e-05
1.8475613e-05
1.8988022e-05
1.9580825e-05
2.0263279e-05
2.1047767e-05
2.1949276e-05
2.2982868e-05
2.4167134e-05
2.5526903e-05
2.709253e-05
2.8902354e-05
3.1002471e-05
3.3448968e-05
3.6308287e-05
3.9659919e-05
4.3604208e-05
4.8266842e-05
5.3788149e-05
6.0342709e-05
6.8148752e-05
7.7474703e-05
8.8631089e-05
0.00010200371
0.00011806501
0.00013739117
0.00016068476
0.00018880109
0.00022279309
0.00026394695
0.00031384689
0.00037444713
0.00044817503
0.00053806787
0.00064796566
0.00078278746
0.00094890477
0.0010223799
0.0010217431
0.0010209565
0.0010200091
0.0010189281
0.0010177147
0.001016351
0.0010148516
0.0010133618
0.0010122274
0.0010118853
0.0010125597
0.001014309
0.0010168303
0.0010192956
0.0010200848
0.0010175924
0.001013827
0.0010075369
0.0010016974
3.1419322e-07
8.5298505e-06
1.7137691e-05
1.8361071e-05
1.3542488e-05
1.5631939e-05
1.1356897e-05
1.4304632e-05
1.2495886e-05
1.5895056e-05
1.5393513e-05
1.654175e-05
1.6032989e-05
1.5789692e-05
1.5494881e-05
1.5295883e-05
1.5175076e-05
1.5129145e-05
1.5153362e-05
1.5241856e-05
1.5393879e-05
1.5609789e-05
1.5888534e-05
1.6231214e-05
1.6638614e-05
1.711588e-05
1.7668189e-05
1.8304191e-05
1.9035448e-05
1.9876707e-05
2.0842793e-05
2.1951285e-05
2.3225906e-05
2.4695444e-05
2.6396602e-05
2.8373583e-05
3.0680599e-05
3.3382434e-05
3.65561e-05
4.0297398e-05
4.4730775e-05
4.9994344e-05
5.6258688e-05
6.3736288e-05
7.2695189e-05
8.3443272e-05
9.6363058e-05
0.00011192527
0.00013070591
0.0001534113
0.00018090152
0.00021424153
0.00025473593
0.00030399813
0.0003640251
0.00043730498
0.00052695847
0.00063693656
0.00077230943
0.00093965263
0.0010219332
0.0010213153
0.0010205365
0.0010195913
0.0010185026
0.001017271
0.0010158792
0.0010143513
0.0010128557
0.001011756
0.0010115274
0.0010123018
0.0010142285
0.0010169079
0.0010192375
0.0010196069
0.0010166905
0.0010127526
0.0010070584
0.0010014722
2.8881798e-07
8.3954716e-06
1.6495867e-05
1.8080511e-05
1.3256771e-05
1.3863704e-05
1.0752906e-05
1.265199e-05
1.1601519e-05
1.4154149e-05
1.413142e-05
1.4761509e-05
1.4427012e-05
1.4121031e-05
1.3874506e-05
1.3693306e-05
1.3588196e-05
1.3550229e-05
1.3576444e-05
1.3661393e-05
1.3804352e-05
1.4006166e-05
1.4266106e-05
1.4585658e-05
1.4965733e-05
1.5411422e-05
1.5927708e-05
1.6522779e-05
1.7207384e-05
1.7995983e-05
1.8903329e-05
1.9946191e-05
2.1147446e-05
2.2534593e-05
2.4143021e-05
2.6015397e-05
2.8204375e-05
3.0773513e-05
3.3798501e-05
3.7371246e-05
4.161506e-05
4.666721e-05
5.2696467e-05
5.9910148e-05
6.8577504e-05
7.9006447e-05
9.1578775e-05
0.00010676671
0.00012514932
0.00014744185
0.00017451452
0.00020745135
0.00024758402
0.00029656596
0.00035645067
0.00042980454
0.0005198548
0.00063069124
0.00076756715
0.00093731173
0.0010215717
0.0010209698
0.0010201962
0.0010192479
0.0010181435
0.0010168856
0.0010154605
0.0010139018
0.0010123997
0.0010113351
0.0010111939
0.001012082
0.0010141896
0.0010170157
0.0010191628
0.0010192875
0.0010158905
0.0010117379
0.0010064944
0.0010013097
2.6485411e-07
8.3175264e-06
1.5991846e-05
1.7121613e-05
1.3157854e-05
1.2266488e-05
1.0779642e-05
1.1646501e-05
1.115117e-05
1.2637175e-05
1.2999656e-05
1.3186252e-05
1.2940251e-05
1.2609681e-05
1.2390721e-05
1.222668e-05
1.213344e-05
1.2102131e-05
1.2129987e-05
1.2212166e-05
1.2347689e-05
1.2537777e-05
1.2781819e-05
1.3005507e-05
1.3353118e-05
1.3763751e-05
1.4241837e-05
1.4794906e-05
1.5432696e-05
1.6169031e-05
1.7018547e-05
1.7997225e-05
1.9127148e-05
2.0434572e-05
2.1953658e-05
2.3725651e-05
2.5801717e-05
2.8244153e-05
3.1128025e-05
3.4802176e-05
3.8894326e-05
4.3779089e-05
4.9625733e-05
5.663737e-05
6.5085315e-05
7.5280243e-05
8.7605835e-05
0.0001025389
0.00012066452
0.00014271196
0.00016956669
0.00020233865
0.00024239498
0.00029143959
0.00035159602
0.00042552614
0.0005165877
0.00062904207
0.00076836492
0.0009416929
0.0010212963
0.001020707
0.0010199359
0.0010189801
0.001017853
0.0010165608
0.0010150974
0.0010135051
0.0010119963
0.0010110103
0.001010906
0.0010119131
0.0010141949
0.0010171133
0.0010190733
0.0010190439
0.0010152316
0.0010107891
0.0010058377
0.00100118
2.3673708e-07
8.2731178e-06
1.5556696e-05
1.5616308e-05
1.2096465e-05
1.0697966e-05
9.3723413e-06
1.0405061e-05
9.8609758e-06
1.1357962e-05
1.1862406e-05
1.1736561e-05
1.152214e-05
1.1204941e-05
1.1009292e-05
1.0866448e-05
1.0787563e-05
1.0765673e-05
1.0733417e-05
1.0800074e-05
1.0920126e-05
1.1093751e-05
1.1318991e-05
1.1595885e-05
1.1928566e-05
1.2320201e-05
1.2775336e-05
1.330148e-05
1.3907882e-05
1.4608022e-05
1.5416823e-05
1.6349885e-05
1.7428968e-05
1.8679585e-05
2.013524e-05
2.1836362e-05
2.3833337e-05
2.618783e-05
2.8975115e-05
3.2286923e-05
3.6235165e-05
4.0961599e-05
4.6637728e-05
5.3913896e-05
6.2215886e-05
7.2263608e-05
8.4445622e-05
9.9246331e-05
0.0001172599
0.00013923509
0.00016607799
0.00019893157
0.00023920733
0.00028867071
0.00034952969
0.00042455998
0.00051727564
0.00063214832
0.00077492499
0.00095310935
0.0010211037
0.0010205229
0.0010197523
0.0010187858
0.0010176303
0.001016297
0.0010147909
0.0010131649
0.0010116548
0.001010759
0.0010106933
0.0010118082
0.0010142442
0.0010171756
0.0010189653
0.0010187672
0.0010146539
0.0010099541
0.0010051854
0.0010011161
2.1735497e-07
8.2322082e-06
1.5102821e-05
1.3700219e-05
9.9625925e-06
9.5118775e-06
7.7131297e-06
8.8738051e-06
9.1004807e-06
1.0221161e-05
1.0710816e-05
1.0384995e-05
1.0184506e-05
9.902517e-06
9.7312118e-06
9.5451974e-06
9.4578848e-06
9.4322356e-06
9.4604058e-06
9.5394343e-06
9.6655085e-06
9.8395007e-06
1.0061184e-05
1.0330339e-05
1.065114e-05
1.1027566e-05
1.1464293e-05
1.1968898e-05
1.2550301e-05
1.3221604e-05
1.3998102e-05
1.4895223e-05
1.5934675e-05
1.7141476e-05
1.854879e-05
2.0196631e-05
2.2135025e-05
2.4425479e-05
2.7143258e-05
3.0380113e-05
3.424941e-05
3.8892393e-05
4.4485399e-05
5.1233847e-05
5.9401419e-05
6.9316898e-05
8.209494e-05
9.6887304e-05
0.00011493595
0.00013701448
0.00016405556
0.00019724259
0.00023804078
0.00028828901
0.00035029558
0.00042697057
0.00052201276
0.00064014865
0.0007874588
0.00097188365
0.001020987
0.0010204104
0.0010196382
0.0010186588
0.0010174714
0.0010160914
0.0010145395
0.0010128827
0.0010113781
0.0010105743
0.0010105355
0.0010117774
0.0010143167
0.001017166
0.0010188297
0.0010183385
0.0010140517
0.0010092476
0.0010046761
0.0010011427
2.0006139e-07
8.1886307e-06
1.3789203e-05
1.1962005e-05
8.0572848e-06
8.4441282e-06
6.8195083e-06
8.0090088e-06
8.4170782e-06
9.1402575e-06
9.5740103e-06
9.1503372e-06
8.953459e-06
8.6273074e-06
8.4474509e-06
8.3318869e-06
8.2776439e-06
8.276181e-06
8.3219094e-06
8.4111661e-06
8.5442463e-06
8.7194695e-06
8.938688e-06
9.2020891e-06
9.5140834e-06
9.8790866e-06
1.0301947e-05
1.079043e-05
1.1353258e-05
1.2003169e-05
1.2755866e-05
1.3626902e-05
1.4638135e-05
1.5814347e-05
1.7188652e-05
1.8801022e-05
2.0701526e-05
2.2951991e-05
2.5628548e-05
2.8824115e-05
3.2653178e-05
3.7258011e-05
4.2820082e-05
4.9547565e-05
5.7710159e-05
6.7643852e-05
7.976481e-05
9.4565753e-05
0.00011370441
0.00013606737
0.00016352431
0.00019730661
0.0002389436
0.0002903608
0.00035398498
0.00043288467
0.00053097516
0.00065328787
0.00080631392
0.00099851671
0.0010209362
0.0010203599
0.0010195835
0.0010185892
0.0010173682
0.0010159378
0.0010143377
0.0010126536
0.0010111583
0.0010104626
0.0010104077
0.0010118113
0.0010143598
0.0010170294
0.0010185291
0.0010175398
0.0010133518
0.0010086675
0.0010043793
0.0010012283
1.8426397e-07
8.1410837e-06
1.0943675e-05
1.0008376e-05
6.6037851e-06
7.5161136e-06
6.2096365e-06
7.1921049e-06
7.8638592e-06
8.1595357e-06
8.4596563e-06
7.939303e-06
7.6947843e-06
7.4672469e-06
7.3335178e-06
7.2559139e-06
7.2300513e-06
7.2486341e-06
7.3102793e-06
7.4106817e-06
7.5485381e-06
7.7259681e-06
7.9445193e-06
8.2047728e-06
8.5112517e-06
8.86882e-06
9.2826143e-06
9.7606352e-06
1.0311596e-05
1.0947931e-05
1.1626511e-05
1.2471675e-05
1.3455455e-05
1.4602356e-05
1.5945413e-05
1.7524561e-05
1.9389941e-05
2.1603712e-05
2.424293e-05
2.7401891e-05
3.1197145e-05
3.6053514e-05
4.1638368e-05
4.8409707e-05
5.6643274e-05
6.6683374e-05
7.8964308e-05
9.399928e-05
0.00011244
0.00013510607
0.000164506
0.00019915565
0.00024196165
0.00029495066
0.00036068856
0.00044243072
0.00054434492
0.00067182017
0.00083184508
0.0010213693
0.0010209386
0.00102036
0.0010195764
0.0010185645
0.0010173093
0.0010158266
0.0010141755
0.0010124637
0.0010109744
0.001010389
0.0010102798
0.0010118518
0.0010143092
0.0010167293
0.001017893
0.0010163734
0.0010125848
0.0010082086
0.0010042683
0.0010013653
1.7043938e-07
8.0927845e-06
8.6275309e-06
8.4437228e-06
5.7749127e-06
6.6558382e-06
5.6959809e-06
6.4760341e-06
7.300383e-06
7.2415989e-06
7.2542728e-06
6.8146821e-06
6.6140704e-06
6.4465158e-06
6.3521255e-06
6.3057108e-06
6.3044987e-06
6.3425535e-06
6.4163922e-06
6.526382e-06
6.6710506e-06
6.852123e-06
7.0721396e-06
7.3321756e-06
7.636852e-06
7.957615e-06
8.3604606e-06
8.8269312e-06
9.3656332e-06
9.9885998e-06
1.0710361e-05
1.1549812e-05
1.2528339e-05
1.3670636e-05
1.5010201e-05
1.6587591e-05
1.8453834e-05
2.0672282e-05
2.3322026e-05
2.6500027e-05
3.0326502e-05
3.4952276e-05
4.0563145e-05
4.7383628e-05
5.5697322e-05
6.6431067e-05
7.8981487e-05
9.4379715e-05
0.00011330153
0.00013660834
0.00016536849
0.00020281431
0.0002471325
0.00030211353
0.00037048479
0.00045572081
0.00056228222
0.00069596742
0.00086434554
0.0010213893
0.001020978
0.0010203975
0.0010196039
0.0010185704
0.0010172804
0.0010157459
0.0010140406
0.0010123031
0.0010108798
0.0010102745
0.0010102437
0.0010117978
0.0010141129
0.0010162524
0.0010170454
0.0010153292
0.0010118363
0.001007848
0.0010042477
0.0010015111
1.5806105e-07
8.0355491e-06
6.8502714e-06
7.4072116e-06
5.1383716e-06
5.8844688e-06
5.2538874e-06
5.8411304e-06
6.6332586e-06
6.2015079e-06
6.1668305e-06
5.8294667e-06
5.6696068e-06
5.5503378e-06
5.4896451e-06
5.4712234e-06
5.4904011e-06
5.545067e-06
5.632308e-06
5.7524444e-06
5.9049036e-06
6.0916591e-06
6.2894978e-06
6.5467347e-06
6.848241e-06
7.1983277e-06
7.6041785e-06
8.073527e-06
8.6152251e-06
9.2415443e-06
9.9672126e-06
1.0810974e-05
1.1795538e-05
1.2946073e-05
1.4296779e-05
1.5889184e-05
1.7775718e-05
2.0021407e-05
2.2708054e-05
2.5936266e-05
2.9830083e-05
3.4544862e-05
4.0277243e-05
4.7259567e-05
5.578722e-05
6.6230594e-05
7.9053999e-05
9.4825967e-05
0.00011526135
0.00013939877
0.00016923698
0.00020619421
0.0002544661
0.0003118692
0.00038340513
0.00047280171
0.00058485544
0.00072582144
0.00090391245
0.0010214332
0.0010210365
0.0010204571
0.0010196523
0.0010185926
0.0010172658
0.0010156825
0.0010139228
0.0010121867
0.0010108541
0.0010102496
0.0010103129
0.0010115919
0.0010137351
0.0010155837
0.0010160525
0.0010143081
0.0010111697
0.0010075494
0.0010042345
0.0010016532
1.4701331e-07
7.9624767e-06
5.4824468e-06
6.4648799e-06
4.5742171e-06
5.1971536e-06
4.875317e-06
5.1945775e-06
5.7990494e-06
5.2969801e-06
5.2121134e-06
4.9660723e-06
4.844769e-06
4.7656884e-06
4.7346621e-06
4.7405614e-06
4.7797556e-06
4.8506478e-06
4.9512295e-06
5.063793e-06
5.2198687e-06
5.4100716e-06
5.6367311e-06
5.9029008e-06
6.2129536e-06
6.5715955e-06
6.985961e-06
7.464431e-06
8.016111e-06
8.6534714e-06
9.3914112e-06
1.0248964e-05
1.1199006e-05
1.2358267e-05
1.3720426e-05
1.5327928e-05
1.7234776e-05
1.9507684e-05
2.2231153e-05
2.5509877e-05
2.9472641e-05
3.453997e-05
4.0444701e-05
4.7650416e-05
5.6465298e-05
6.7274247e-05
8.0568531e-05
9.6948711e-05
0.00011716129
0.00014345148
0.00017459663
0.00021323498
0.00026126187
0.00032417491
0.00039939688
0.00049360156
0.00061196287
0.00076123104
0.00095029797
0.0010214805
0.0010210957
0.0010205212
0.0010197072
0.0010186182
0.0010172502
0.001015625
0.0010138133
0.0010121472
0.0010108363
0.0010102375
0.0010101676
0.0010112795
0.0010131612
0.0010147104
0.0010149175
0.0010133422
0.0010105459
0.001007257
0.0010041826
0.0010017576
1.3716635e-07
7.8470601e-06
4.4372774e-06
5.6250642e-06
4.0690999e-06
4.5839997e-06
4.5429952e-06
4.49314e-06
4.9588588e-06
4.4891341e-06
4.3838832e-06
4.2126524e-06
4.1281208e-06
4.0836911e-06
4.0796468e-06
4.1081577e-06
4.1662116e-06
4.2366136e-06
4.3456838e-06
4.4851333e-06
4.6558698e-06
4.8594915e-06
5.0990244e-06
5.3777448e-06
5.7006024e-06
6.0725823e-06
6.5009061e-06
6.9737085e-06
7.5360419e-06
8.1849037e-06
8.9352752e-06
9.8062583e-06
1.0821275e-05
1.200981e-05
1.3407212e-05
1.5057425e-05
1.7017018e-05
1.9355409e-05
2.2160724e-05
2.5543278e-05
2.963827e-05
3.4617006e-05
4.0688558e-05
4.8112746e-05
5.7212854e-05
6.8964748e-05
8.283246e-05
9.9941361e-05
0.00012108277
0.00014725005
0.00018138038
0.0002219612
0.00027247632
0.00033549332
0.00041827773
0.00051786713
0.0006432413
0.00080166679
0.0010027074
0.0010215137
0.0010211367
0.0010205701
0.0010197528
0.0010186372
0.0010172223
0.0010155642
0.0010137574
0.0010121356
0.0010107888
0.00101014
0.0010100812
0.0010108923
0.0010124172
0.0010136625
0.0010137527
0.0010123779
0.0010098922
0.001006911
0.0010040688
0.0010018271
1.2843034e-07
7.5506033e-06
3.7042741e-06
4.8786188e-06
3.6191008e-06
4.0399117e-06
4.0264104e-06
3.8586183e-06
4.1502507e-06
3.7740238e-06
3.6734667e-06
3.5616531e-06
3.5116403e-06
3.4977302e-06
3.5183141e-06
3.5550532e-06
3.6252127e-06
3.7246224e-06
3.8525284e-06
4.0092381e-06
4.1963001e-06
4.4158443e-06
4.6713278e-06
4.966326e-06
5.2943721e-06
5.6804538e-06
6.1234022e-06
6.6316146e-06
7.2156468e-06
7.888107e-06
8.6643897e-06
9.5643918e-06
1.0612524e-05
1.1839444e-05
1.3282949e-05
1.4988694e-05
1.7016354e-05
1.9438755e-05
2.2347873e-05
2.5860781e-05
3.0118536e-05
3.5301586e-05
4.1633118e-05
4.9385726e-05
5.8902198e-05
7.0608174e-05
8.5789016e-05
0.00010374089
0.00012594308
0.00015345698
0.00018759396
0.0002322219
0.0002854961
0.00035203427
0.00043534774
0.00054510133
0.00067797961
0.0008460952
0.0010217954
0.0010215161
0.0010211421
0.0010205846
0.0010197713
0.0010186415
0.0010171831
0.0010154773
0.0010137524
0.0010121523
0.001010774
0.0010099886
0.0010099023
0.0010104715
0.0010116071
0.0010125593
0.0010125777
0.0010113595
0.0010091422
0.0010064627
0.0010039056
0.0010018519
1.2086773e-07
7.1303433e-06
3.2508842e-06
4.2165582e-06
3.2180723e-06
3.4077727e-06
3.5687665e-06
3.2773731e-06
3.4195202e-06
3.1521925e-06
3.0718243e-06
3.0068064e-06
2.9881381e-06
3.0014114e-06
3.0296672e-06
3.0948725e-06
3.1880907e-06
3.3081819e-06
3.4553167e-06
3.6305429e-06
3.8359621e-06
4.0739941e-06
4.3402975e-06
4.6522087e-06
5.0091213e-06
5.416918e-06
5.8826794e-06
6.4151027e-06
7.0249679e-06
7.7256715e-06
8.5331085e-06
9.4680298e-06
1.0555965e-05
1.1829117e-05
1.3270826e-05
1.5028475e-05
1.7119802e-05
1.9621471e-05
2.276528e-05
2.6432456e-05
3.0882365e-05
3.6304326e-05
4.2936459e-05
5.1066408e-05
6.1055088e-05
7.3354357e-05
8.8526202e-05
0.00010727109
0.00013162947
0.00016062013
0.00019661446
0.00024138861
0.00030001295
0.00037029241
0.00045833673
0.00057451828
0.00071506403
0.00089290838
0.001021747
0.0010214728
0.0010210985
0.001020549
0.0010197452
0.0010186181
0.0010171442
0.0010154089
0.001013761
0.0010121843
0.00101079
0.0010098573
0.0010096173
0.0010099901
0.001010753
0.0010114307
0.0010113692
0.0010102577
0.0010082759
0.0010059076
0.0010036542
0.001001815
1.1475369e-07
6.3049573e-06
2.8630921e-06
3.6152279e-06
2.8699752e-06
2.8251488e-06
3.1135451e-06
2.7511321e-06
2.792663e-06
2.6207555e-06
2.5676783e-06
2.5404281e-06
2.5425093e-06
2.5733238e-06
2.6355861e-06
2.7252595e-06
2.8405275e-06
2.9812855e-06
3.1484651e-06
3.3435628e-06
3.5639882e-06
3.8207565e-06
4.1141336e-06
4.4483118e-06
4.8283016e-06
5.2601814e-06
5.7513469e-06
6.3108261e-06
6.9497347e-06
7.6653236e-06
8.5023184e-06
9.4698515e-06
1.0594483e-05
1.1909571e-05
1.345695e-05
1.5289093e-05
1.747115e-05
2.0085002e-05
2.3232754e-05
2.7041294e-05
3.166914e-05
3.758121e-05
4.4547695e-05
5.3096006e-05
6.360532e-05
7.6552028e-05
9.2529837e-05
0.0001122806
0.0001379867
0.00016854558
0.00020649688
0.00025370954
0.00031559628
0.00038969516
0.00048250581
0.00059907674
0.00075299773
0.0009399922
0.0010216526
0.0010213739
0.0010209967
0.0010204542
0.0010196637
0.0010185513
0.0010170876
0.0010153592
0.0010137635
0.0010122177
0.0010108214
0.0010097766
0.0010093125
0.0010094219
0.0010098848
0.0010103022
0.0010101362
0.0010090936
0.0010073415
0.0010053059
0.0010033507
0.0010016288
1.097263e-07
4.3541426e-06
2.5144931e-06
3.0571163e-06
2.4355459e-06
2.3371129e-06
2.6370779e-06
2.2830136e-06
2.2714272e-06
2.1731424e-06
2.1503238e-06
2.1484332e-06
2.1782812e-06
2.239131e-06
2.3269844e-06
2.4395697e-06
2.5762954e-06
2.7377476e-06
2.9226852e-06
3.137181e-06
3.3823646e-06
3.6611886e-06
3.9772388e-06
4.3348686e-06
4.7393248e-06
5.1969315e-06
5.715369e-06
6.2946412e-06
6.9613728e-06
7.7234122e-06
8.5986127e-06
9.6091936e-06
1.0783206e-05
1.2155956e-05
1.377182e-05
1.5686287e-05
1.7968583e-05
2.0705191e-05
2.4004205e-05
2.8000449e-05
3.2861974e-05
3.879741e-05
4.6408936e-05
5.5405211e-05
6.646968e-05
8.0103136e-05
9.6929729e-05
0.00011773002
0.0001434819
0.00017698614
0.00021692707
0.00026659413
0.000328473
0.00040952753
0.00050689768
0.00062899813
0.00079001555
0.0009849339
0.0010215054
0.0010212152
0.0010208319
0.0010202962
0.0010195239
0.0010184361
0.0010169982
0.0010153065
0.0010137456
0.0010122295
0.0010108367
0.0010097102
0.0010090267
0.0010088485
0.0010090372
0.0010092144
0.0010089378
0.0010079708
0.0010064686
0.0010047691
0.0010030619
0.0010013914
1.0432118e-07
3.5877436e-06
2.148782e-06
2.5445234e-06
2.080554e-06
1.92967e-06
2.1483439e-06
1.8727512e-06
1.8477477e-06
1.8050352e-06
1.808379e-06
1.8372406e-06
1.8984285e-06
1.9856752e-06
2.096672e-06
2.2306077e-06
2.3877973e-06
2.5675036e-06
2.7745309e-06
3.0100943e-06
3.2768151e-06
3.5778611e-06
3.9170152e-06
4.2987914e-06
4.7286083e-06
5.2130079e-06
5.7536157e-06
6.370059e-06
7.0700831e-06
7.8685958e-06
8.7843694e-06
9.8408776e-06
1.1067696e-05
1.2502079e-05
1.4191025e-05
1.619354e-05
1.8583134e-05
2.1451264e-05
2.4912145e-05
2.9107629e-05
3.4214707e-05
4.074587e-05
4.8452979e-05
5.7913515e-05
6.9550578e-05
8.3888189e-05
0.00010157898
0.00012343778
0.00015187744
0.00018564929
0.0002275334
0.00027956363
0.00034430171
0.00042898124
0.00053046198
0.00065737886
0.00082428648
0.0010216096
0.0010213052
0.0010209958
0.0010206036
0.0010200745
0.0010193267
0.0010182776
0.0010168828
0.0010152441
0.0010137037
0.0010122001
0.0010107931
0.001009606
0.0010087469
0.0010083376
0.0010082577
0.0010082192
0.0010078687
0.0010070223
0.0010057768
0.0010043419
0.0010027904
0.0010011689
1.0034104e-07
2.8635942e-06
1.8336996e-06
2.0337322e-06
1.7862476e-06
1.5808561e-06
1.6975002e-06
1.525047e-06
1.514131e-06
1.5151728e-06
1.545137e-06
1.6067834e-06
1.6942802e-06
1.8041846e-06
1.9356465e-06
2.0889444e-06
2.2641037e-06
2.4642919e-06
2.6911581e-06
2.947103e-06
3.2349894e-06
3.5581608e-06
3.9205327e-06
4.3267357e-06
4.7823199e-06
5.2904341e-06
5.8646125e-06
6.5126186e-06
7.2468648e-06
8.0829377e-06
9.0406342e-06
1.0144728e-05
1.1426452e-05
1.2925092e-05
1.4690149e-05
1.6784011e-05
1.9284876e-05
2.228909e-05
2.5917359e-05
3.0318905e-05
3.5913903e-05
4.2516553e-05
5.0602977e-05
6.0529773e-05
7.2737295e-05
8.7772211e-05
0.00010631301
0.00012920536
0.00015892265
0.00019420555
0.00023790778
0.00029210779
0.00035941374
0.00044721464
0.00055214214
0.00068290016
0.00085416067
0.0010213778
0.0010210538
0.0010207197
0.0010203154
0.001019792
0.0010190746
0.0010180818
0.0010167582
0.0010151707
0.0010136453
0.0010121521
0.0010107281
0.0010094792
0.0010085154
0.0010079003
0.001007588
0.0010073664
0.0010069821
0.0010062677
0.001005232
0.0010039653
0.0010025093
0.0010009693
9.7968318e-08
2.2296826e-06
1.5595663e-06
1.5482393e-06
1.5150639e-06
1.2828596e-06
1.3306508e-06
1.2472814e-06
1.2635244e-06
1.295492e-06
1.3585821e-06
1.4459894e-06
1.5547579e-06
1.6836052e-06
1.832843e-06
2.003535e-06
2.1965993e-06
2.415063e-06
2.6608238e-06
2.9364999e-06
3.2450942e-06
3.590064e-06
3.9754217e-06
4.4058896e-06
4.8871149e-06
5.4259626e-06
6.0308955e-06
6.7124355e-06
7.4751961e-06
8.3490575e-06
9.3489809e-06
1.05011e-05
1.1838389e-05
1.3402306e-05
1.5244834e-05
1.7501951e-05
2.013434e-05
2.3298485e-05
2.712195e-05
3.176257e-05
3.7415392e-05
4.4321146e-05
5.2778373e-05
6.3156188e-05
7.5911465e-05
9.1610479e-05
0.00011095453
0.00013599144
0.00016566313
0.00020231392
0.00024762994
0.00030371132
0.00037670695
0.00046344369
0.00057100446
0.00070447344
0.00087838307
0.0010211057
0.0010207557
0.0010203952
0.0010199758
0.0010194564
0.0010187713
0.0010178433
0.00101661
0.0010150936
0.0010135843
0.0010121102
0.001010683
0.0010093899
0.0010083252
0.0010075485
0.0010070341
0.0010066584
0.0010062341
0.0010056036
0.0010047067
0.0010035598
0.0010022131
0.0010008015
9.8000494e-08
1.6905671e-06
1.3282199e-06
1.1768686e-06
1.241852e-06
1.0334793e-06
1.0612849e-06
1.0416663e-06
1.0861075e-06
1.1474815e-06
1.2345084e-06
1.3414093e-06
1.4671656e-06
1.6119625e-06
1.776902e-06
1.9635288e-06
2.1734207e-06
2.4091991e-06
2.6730994e-06
2.9678467e-06
3.2965245e-06
3.6626623e-06
4.0703502e-06
4.5244011e-06
5.0305766e-06
5.5958912e-06
6.2290211e-06
6.9408157e-06
7.7449364e-06
8.6586661e-06
9.7038649e-06
1.0908238e-05
1.2306729e-05
1.3943322e-05
1.5873138e-05
1.8165031e-05
2.0904791e-05
2.4199303e-05
2.8181042e-05
3.3014261e-05
3.8902185e-05
4.609529e-05
5.4900584e-05
6.5699199e-05
7.8960565e-05
9.6053459e-05
0.00011626999
0.00014116028
0.00017183008
0.00020964942
0.00025631275
0.00031686273
0.00038852221
0.00047701954
0.00058633568
0.00072836222
0.00089624045
0.0010208024
0.0010204238
0.0010200356
0.0010195988
0.0010190807
0.0010184275
0.001017569
0.0010164359
0.0010150198
0.0010135312
0.0010120807
0.0010106597
0.0010093338
0.0010081815
0.0010072601
0.0010065735
0.0010060491
0.0010055538
0.0010049477
0.0010041418
0.0010031169
0.0010019214
0.0010006666
1.0124266e-07
1.2505329e-06
1.1364404e-06
9.0529749e-07
1.0829859e-06
8.2801381e-07
8.7626902e-07
9.019329e-07
9.6904716e-07
1.053463e-06
1.1578476e-06
1.2797685e-06
1.4196423e-06
1.578496e-06
1.7578371e-06
1.9594239e-06
2.1852528e-06
2.4374041e-06
2.7185664e-06
3.0314388e-06
3.3791626e-06
3.765332e-06
4.1941146e-06
4.6704208e-06
5.2001364e-06
5.7904387e-06
6.4502225e-06
7.1906805e-06
8.0259482e-06
8.973983e-06
1.0057516e-05
1.1305419e-05
1.2754127e-05
1.4449503e-05
1.6449003e-05
1.8824363e-05
2.1664805e-05
2.5080984e-05
2.920981e-05
3.4220395e-05
4.0596528e-05
4.8105711e-05
5.7289254e-05
6.8539229e-05
8.2337601e-05
9.927813e-05
0.00012009287
0.00014568433
0.0001771617
0.00021791471
0.00026595305
0.00032507391
0.00039784187
0.0004874002
0.00060341399
0.00073986836
0.00090735564
0.0010204853
0.0010200767
0.0010196607
0.0010192052
0.0010186852
0.0010180585
0.0010172673
0.0010162437
0.001014949
0.001013493
0.0010120613
0.001010649
0.0010092962
0.0010080692
0.0010070222
0.0010061776
0.0010055063
0.0010049203
0.0010043009
0.001003565
0.0010026674
0.0010016398
0.0010005553
1.077948e-07
9.5880065e-07
9.6915058e-07
7.6661694e-07
7.7069556e-07
7.060338e-07
7.5240518e-07
8.1326868e-07
8.9758733e-07
9.981075e-07
1.1155855e-06
1.2499507e-06
1.402296e-06
1.5739683e-06
1.7665938e-06
1.9819855e-06
2.2221679e-06
2.4893947e-06
2.7861883e-06
3.1153857e-06
3.4802043e-06
3.8843318e-06
4.3320523e-06
4.8284251e-06
5.3795337e-06
5.9906943e-06
6.674166e-06
7.4401253e-06
8.3105809e-06
9.2925622e-06
1.0414785e-05
1.1707393e-05
1.3208373e-05
1.4965456e-05
1.703835e-05
1.9501443e-05
2.2447094e-05
2.598964e-05
3.0270267e-05
3.5463026e-05
4.1782179e-05
4.9491251e-05
5.8913939e-05
7.0445953e-05
8.4575199e-05
0.00010190025
0.0001242526
0.00015054471
0.00018281397
0.00022242904
0.0002710645
0.00033076959
0.00040404361
0.00049861975
0.00060957755
0.00074536357
0.00091123492
0.0010201762
0.0010197381
0.0010192955
0.0010188212
0.0010182962
0.0010176877
0.0010169509
0.0010160296
0.0010148713
0.0010134786
0.0010120573
0.0010106515
0.001009274
0.0010079801
0.0010068228
0.0010058381
0.0010050253
0.0010043368
0.0010036904
0.0010029946
0.0010022054
0.0010013432
0.0010004499
1.2233672e-07
9.6498539e-07
8.0810164e-07
5.6777625e-07
6.1215524e-07
6.1536257e-07
6.7981691e-07
7.5946704e-07
8.5727368e-07
9.69976e-07
1.0986025e-06
1.2439962e-06
1.4074749e-06
1.5904754e-06
1.7946451e-06
2.0218172e-06
2.2740404e-06
2.5536045e-06
2.8630771e-06
3.2053485e-06
3.5836934e-06
4.0018577e-06
4.4641838e-06
4.9757887e-06
5.5428191e-06
6.1727995e-06
6.875096e-06
7.6615098e-06
8.5470316e-06
9.5507402e-06
1.0696882e-05
1.2016224e-05
1.3547575e-05
1.5339687e-05
1.7453486e-05
1.9964794e-05
2.2967608e-05
2.6578075e-05
3.0939321e-05
3.6227345e-05
4.2658327e-05
5.0859292e-05
6.0506633e-05
7.229853e-05
8.6726663e-05
0.00010439221
0.00012603191
0.0001525477
0.00018504235
0.00022486037
0.00027364423
0.00033646841
0.00041012384
0.00050017843
0.000610165
0.00074428169
0.00090744956
0.0010198965
0.0010194322
0.0010189662
0.0010184746
0.0010179433
0.0010173473
0.0010166514
0.0010158078
0.0010147629
0.0010134888
0.0010120827
0.0010106784
0.0010092776
0.0010079208
0.0010066617
0.0010055465
0.0010045985
0.0010037969
0.0010030874
0.0010024176
0.0010017309
0.0010010348
0.0010003452
1.1216314e-07
6.1942961e-07
6.3993518e-07
4.7012727e-07
5.1351953e-07
5.598381e-07
6.3933188e-07
7.3263833e-07
8.4114783e-07
9.641994e-07
1.1028923e-06
1.258297e-06
1.431753e-06
1.624748e-06
1.8389588e-06
2.0762615e-06
2.3387551e-06
2.6287546e-06
2.9489327e-06
3.3022219e-06
3.6919574e-06
4.1219448e-06
4.5965851e-06
5.1210542e-06
5.7015613e-06
6.3457016e-06
7.062928e-06
7.8651596e-06
8.7747108e-06
9.799803e-06
1.0969984e-05
1.2316651e-05
1.3879339e-05
1.5707644e-05
1.7863454e-05
2.0423685e-05
2.3483558e-05
2.7160585e-05
3.1599404e-05
3.6977651e-05
4.3513072e-05
5.1472098e-05
6.1180251e-05
7.3036671e-05
8.7528683e-05
0.00010525228
0.00012693567
0.00015481438
0.00018751478
0.0002275016
0.00027638327
0.00033610585
0.00040902035
0.00049795235
0.00060627175
0.00073795639
0.00089763041
0.0010196583
0.0010191743
0.0010186918
0.0010181878
0.0010176519
0.0010170632
0.0010163933
0.0010156049
0.0010146551
0.0010135046
0.0010121508
0.001010743
0.0010093246
0.0010079109
0.0010065555