/*--------------------------------*- C++ -*----------------------------------*\
  =========                 |
  \\      /  F ield         | OpenFOAM: The Open Source CFD Toolbox
   \\    /   O peration     | Website:  https://openfoam.org
    \\  /    A nd           | Version:  12
     \\/     M anipulation  |
\*---------------------------------------------------------------------------*/
FoamFile
{
    format      ascii;
    class       volScalarField;
    location    "0.04";
    object      omega;
}
// * * * * * * * * * * * * * * * * * * * * * * * * * * * * * * * * * * * * * //

dimensions      [0 0 -1 0 0 0 0];

internalField   nonuniform List<scalar> 
16000
(
1091.1974
2177.7637
1063.0698
643.20425
452.89663
315.04957
238.50327
180.22492
144.94323
117.58772
99.816511
85.530311
74.832449
65.946396
58.674588
52.556983
47.391094
42.986947
39.203142
35.928644
33.079348
30.584465
28.385814
26.437007
24.700672
23.147768
21.754302
20.501734
19.374296
18.357588
17.438681
16.60742
15.855713
15.176705
14.564521
14.013686
13.519035
13.075715
12.679682
12.327499
12.015278
11.738989
11.495713
11.28275
11.097015
10.935416
10.795547
10.675128
10.571985
10.484078
10.40957
10.346822
10.294293
10.250629
10.214633
10.185309
10.161839
10.14358
10.130171
10.121662
10.117738
10.113722
10.107813
10.10092
10.093218
10.084876
10.075881
10.066284
10.056785
10.049272
10.046399
10.050052
10.062419
10.082201
10.107021
10.124787
10.120461
10.113071
10.042525
10.008122
1133.1222
2174.0955
1054.3516
643.42588
453.21262
318.04747
239.66171
182.1048
145.83121
118.63267
100.38335
86.09702
75.201599
66.260482
58.90269
52.73234
47.518398
43.078124
39.265985
35.968875
33.101954
30.594125
28.386237
26.431173
24.69051
23.134805
21.739351
20.48526
19.35686
18.339975
17.421386
16.590575
15.839305
15.160612
14.548659
13.998049
13.503727
13.060771
12.664956
12.31298
12.001247
11.725493
11.482651
11.270155
11.08509
10.924202
10.785041
10.665337
10.56293
10.475773
10.402
10.339983
10.288167
10.245193
10.209839
10.181078
10.158072
10.140171
10.126943
10.118298
10.114048
10.110204
10.104515
10.097805
10.090244
10.081954
10.072903
10.063168
10.053552
10.046101
10.043571
10.047847
10.061217
10.081947
10.106163
10.122586
10.115576
10.100055
10.039457
10.006595
1173.4715
2174.4647
1042.9174
639.95431
449.98415
318.36936
238.66826
182.34987
145.44306
118.80837
100.25434
86.113483
75.107599
66.165167
58.773952
52.589958
47.364004
42.917415
39.103163
35.806316
32.941666
30.438212
28.236241
26.288384
24.55542
23.007802
21.620344
20.373878
19.252771
18.243198
17.331856
16.507951
15.763168
15.090454
14.484014
13.938509
13.449024
13.010679
12.619064
12.270871
11.962886
11.690719
11.45112
11.241558
11.059373
10.901192
10.764517
10.64709
10.54678
10.461561
10.389546
10.329136
10.278781
10.23713
10.202964
10.175244
10.153119
10.135943
10.123293
10.114978
10.110676
10.106891
10.101356
10.094765
10.087285
10.078995
10.069832
10.059922
10.050225
10.04299
10.041051
10.04618
10.061021
10.083074
10.10676
10.119719
10.108461
10.086639
10.037094
10.004839
1212.0345
2184.7128
1034.0849
636.55595
446.33701
318.49135
237.36052
182.43053
144.90727
118.87899
100.06974
86.064776
74.96912
66.020357
58.602769
52.407331
47.1729
42.722675
38.908977
35.614871
32.754688
30.257636
28.063407
26.12453
24.400904
22.862933
21.484981
20.247581
19.135046
18.133953
17.230999
16.415094
15.677853
15.012109
14.412118
13.872571
13.388691
12.955699
12.569028
12.225221
11.921519
11.653467
11.417618
11.211378
11.032414
10.877253
10.743335
10.62841
10.530373
10.44724
10.377096
10.318381
10.269548
10.229267
10.196325
10.169682
10.148476
10.132051
10.12
10.112096
10.107895
10.104158
10.098764
10.092261
10.084813
10.076472
10.067153
10.057028
10.04723
10.040221
10.038892
10.044955
10.061385
10.084795
10.107859
10.116846
10.101053
10.076441
10.035075
10.003395
1248.6388
2203.7839
1027.0456
632.87438
441.91482
317.85343
235.35687
182.0144
143.9876
118.66793
99.693089
85.83767
74.689355
65.742273
58.31548
52.11994
46.888143
42.44348
38.638542
35.354478
32.505128
30.020107
27.838565
25.913134
24.202898
22.678291
21.313304
20.088208
18.987165
17.997191
17.105115
16.299548
15.572069
14.915379
14.323788
13.792008
13.315376
12.889268
12.509049
12.170941
11.872679
11.609823
11.378769
11.176714
11.001723
10.850266
10.719703
10.607798
10.512459
10.431781
10.363812
10.307043
10.259939
10.221195
10.189614
10.164171
10.144003
10.128438
10.117073
10.109691
10.105737
10.102019
10.096737
10.090279
10.082804
10.074352
10.064828
10.054449
10.044531
10.03784
10.036982
10.044255
10.062415
10.087125
10.109103
10.114313
10.095107
10.069259
10.032736
10.002454
1283.1325
2230.1794
1024.0312
629.89298
438.02651
316.57698
232.8644
181.18303
142.78896
118.21408
99.169665
85.455047
74.288445
65.348623
57.927089
51.741387
46.521623
42.090398
38.301166
35.033409
32.200358
29.73225
27.567703
25.659499
23.966216
22.458264
21.109306
19.899423
18.812523
17.836054
16.957118
16.164013
15.448319
14.802579
14.221168
13.698809
13.230925
12.813066
12.440662
12.109491
11.817699
11.560974
11.33565
11.138547
10.968175
10.821
10.694301
10.585853
10.493563
10.41564
10.350088
10.295461
10.250245
10.213163
10.183047
10.158891
10.139852
10.125237
10.114624
10.107826
10.104229
10.100517
10.095324
10.088875
10.081315
10.072687
10.062912
10.052256
10.042213
10.036028
10.035449
10.044106
10.064018
10.089718
10.109933
10.112739
10.090007
10.062784
10.029883
10.001923
1315.4845
2261.5049
1024.8238
627.04185
434.12002
314.65692
230.2672
179.9732
141.40854
117.52046
98.508539
84.916157
73.763094
64.837666
57.434812
51.269065
46.070626
41.6608
37.894084
34.649005
31.837857
29.3917
27.248732
25.361227
23.688639
22.200836
20.871168
19.679607
18.609717
17.649328
16.785968
16.007609
15.305878
14.673123
14.103797
13.59263
13.135112
12.726937
12.363753
12.04099
11.756753
11.507088
11.288443
11.097105
10.931989
10.789666
10.667324
10.562765
10.473855
10.398973
10.336063
10.283761
10.240576
10.205273
10.176716
10.153924
10.13609
10.122517
10.112727
10.106546
10.103372
10.099662
10.094535
10.088062
10.08036
10.071491
10.061425
10.050486
10.040348
10.034703
10.03438
10.04455
10.066055
10.092143
10.11038
10.111623
10.086056
10.0571
10.02651
10.001604
1345.7962
2295.3491
1026.9036
623.88961
430.29864
312.08557
227.66246
178.51996
139.91912
116.60768
97.726962
84.229854
73.114897
64.21177
56.839127
50.70275
45.534386
41.153812
37.415517
34.199387
31.415799
28.996683
26.880223
25.014989
23.366963
21.90302
20.596135
19.426267
18.37654
17.435061
16.589965
15.828865
15.14349
14.525958
13.970806
13.472767
13.02739
12.630469
12.277928
11.96579
11.690238
11.448533
11.237483
11.052832
10.893576
10.756625
10.639106
10.53883
10.453591
10.381998
10.321924
10.272097
10.231062
10.197631
10.170708
10.149341
10.132767
10.120311
10.111422
10.105872
10.103132
10.099429
10.094346
10.087825
10.079934
10.070768
10.060376
10.049168
10.038963
10.033798
10.033763
10.045636
10.068299
10.094124
10.110401
10.110408
10.082965
10.052528
10.023189
10.001703
1374.161
2329.6579
1025.8553
619.98521
425.59241
308.80306
224.2023
176.6681
138.12417
115.50726
96.821137
83.395646
72.337321
63.466569
56.135405
50.037085
44.907568
40.564676
36.857774
33.676804
30.926749
28.540088
26.45593
24.621779
23.002747
21.566798
20.286458
19.141819
18.115533
17.195845
16.371687
15.630319
14.963644
14.363502
13.824518
13.341435
12.909864
12.52569
12.184898
11.883498
11.617924
11.385155
11.182601
11.006092
10.853286
10.722172
10.609975
10.514344
10.433032
10.364933
10.307851
10.260618
10.221821
10.190326
10.165095
10.145196
10.129911
10.118625
10.110717
10.105816
10.103453
10.099768
10.094707
10.088117
10.080007
10.070499
10.059759
10.048299
10.03803
10.033209
10.033618
10.047347
10.070464
10.095445
10.10995
10.10846
10.080014
10.048955
10.020689
10.00246
1400.6903
2362.8412
1017.3495
615.02405
419.1973
305.06984
219.88801
174.33872
136.24029
114.22451
95.781437
82.408603
71.42279
62.594441
55.316015
49.259634
44.176677
39.880476
36.219533
33.082394
30.373475
28.025739
25.979502
24.180877
22.595521
21.19183
19.941942
18.826219
17.826836
16.931972
16.13148
15.412417
14.766885
14.186376
13.665619
13.199362
12.783269
12.413322
12.085669
11.796379
11.541808
11.318795
11.125272
10.956774
10.811095
10.68625
10.580207
10.489545
10.412439
10.34799
10.294024
10.249463
10.212959
10.183437
10.159928
10.141526
10.127539
10.117432
10.110579
10.106379
10.104261
10.100606
10.09554
10.088863
10.080517
10.070642
10.059545
10.047864
10.03754
10.032944
10.034275
10.049407
10.072183
10.095764
10.108887
10.104432
10.076488
10.046065
10.019441
10.00369
1425.4925
2394.0514
1008.7441
609.01659
411.14717
300.92368
215.28261
171.81213
134.26069
112.75892
94.595921
81.262126
70.360162
61.575323
54.358927
48.365932
43.343359
39.10554
35.499142
32.414565
29.754399
27.452177
25.449965
23.692567
22.145807
20.778775
19.56344
18.480486
17.511646
16.644826
15.870497
15.17635
14.554453
13.995854
13.495392
13.047814
12.648847
12.294545
11.981227
11.705058
11.462481
11.25013
11.066315
10.906532
10.768425
10.649979
10.549723
10.464357
10.392009
10.331321
10.280602
10.238764
10.204576
10.177028
10.155242
10.138349
10.125651
10.116691
10.110923
10.107536
10.105465
10.10185
10.096753
10.089964
10.081376
10.071123
10.05967
10.047838
10.037622
10.033236
10.036106
10.051213
10.07305
10.094648
10.105845
10.09747
10.072352
10.043797
10.019456
10.00531
1448.6936
2424.3121
995.60045
601.55651
401.66927
296.36807
210.5045
169.02441
132.25225
111.11793
93.238013
79.926315
69.112299
60.403176
53.268011
47.353054
42.404158
38.236798
34.695364
31.672398
29.069365
26.819682
24.867723
23.15737
21.654505
20.328341
19.151847
18.105696
17.171195
16.335967
15.589016
14.922413
14.326689
13.792329
13.314265
12.887236
12.507045
12.169794
11.872014
11.60998
11.380264
11.180069
11.006427
10.855743
10.725622
10.613925
10.519653
10.439583
10.371646
10.314826
10.267678
10.228627
10.196755
10.171152
10.151053
10.135656
10.124236
10.116358
10.111612
10.109117
10.106963
10.103395
10.098243
10.091309
10.082473
10.071852
10.060045
10.048156
10.038741
10.034802
10.038282
10.052156
10.072714
10.092052
10.100853
10.090919
10.068121
10.042214
10.020268
10.006941
1470.6036
2453.1479
978.57346
593.06321
391.61491
291.3999
205.65078
166.03391
130.19051
109.27964
91.643449
78.384971
67.684701
59.072415
52.037167
46.217646
41.356789
37.272492
33.807243
30.855482
28.318383
26.128847
24.233182
22.576026
21.122924
19.840175
18.706923
17.701784
16.805504
16.005951
15.292092
14.655586
14.088405
13.580439
13.126658
12.721768
12.361705
12.042582
11.761183
11.513983
11.297467
11.108762
10.945774
10.804551
10.682745
10.578486
10.490164
10.415483
10.352154
10.299072
10.255099
10.219085
10.18955
10.165848
10.14736
10.133412
10.123252
10.116392
10.112512
10.110783
10.108632
10.105116
10.099904
10.092787
10.083689
10.072731
10.060588
10.048837
10.04021
10.036509
10.039181
10.051992
10.070899
10.087992
10.094597
10.084484
10.064371
10.041152
10.021149
10.008477
1491.4689
2476.9598
957.37595
584.03761
381.11623
286.07073
200.81061
162.84935
128.00567
107.15035
89.797259
76.627893
66.065217
57.575341
50.660743
44.95496
40.198286
36.210898
32.833976
29.963069
27.501442
25.380593
23.545044
21.947317
20.550645
19.320624
18.235596
17.275998
16.421993
15.661534
14.983407
14.379467
13.842596
13.362869
12.934983
12.55354
12.214704
11.914553
11.65011
11.418201
11.215397
11.038702
10.886388
10.75467
10.641095
10.543624
10.461243
10.39188
10.333528
10.284274
10.243337
10.209946
10.182944
10.161128
10.144153
10.131554
10.122616
10.116733
10.113576
10.11242
10.11032
10.106876
10.10162
10.0943
10.08491
10.073669
10.061199
10.05011
10.041776
10.037994
10.039987
10.050808
10.06751
10.082397
10.087219
10.07848
10.060901
10.040074
10.021643
10.009689
1511.5458
2491.2819
932.03788
574.3594
370.23427
280.41423
196.05918
159.39232
125.57883
104.73824
87.672891
74.637959
64.241991
55.90236
49.131923
43.560681
38.926047
35.049845
31.775075
28.992226
26.615826
24.573403
22.811655
21.280942
19.94725
18.775322
17.743568
16.833437
16.025457
15.307434
14.667953
14.098798
13.592243
13.142072
12.741303
12.384239
12.067413
11.786847
11.539704
11.3233
11.134322
10.970494
10.828755
10.706426
10.60116
10.51064
10.433969
10.369526
10.315521
10.270446
10.232537
10.20156
10.176712
10.156944
10.141409
10.130011
10.12221
10.117278
10.114752
10.113887
10.111872
10.108519
10.10327
10.095773
10.086046
10.074577
10.062188
10.051574
10.043338
10.039275
10.040186
10.048836
10.062869
10.075582
10.079658
10.072449
10.057102
10.038448
10.021568
10.01059
1531.0549
2486.9987
902.89514
564.07758
359.01658
274.43509
191.39235
155.5371
122.83367
101.99938
85.241527
72.393193
62.199679
54.042936
47.443725
42.029508
37.537625
33.783716
30.626324
27.951601
25.673757
23.720413
22.040812
20.584899
19.320413
18.212573
17.238996
16.380166
15.621206
14.948223
14.349453
13.817272
13.344197
12.924089
12.55101
12.218663
11.924059
11.663238
11.433295
11.232256
11.056543
10.90422
10.77294
10.659758
10.562632
10.479549
10.408498
10.34877
10.298698
10.257261
10.222673
10.194016
10.171076
10.15306
10.139068
10.12872
10.121902
10.117864
10.115971
10.115071
10.113148
10.109894
10.104713
10.09714
10.087101
10.075268
10.063502
10.053054
10.04467
10.040149
10.040046
10.046407
10.057937
10.068504
10.072005
10.06588
10.05241
10.035942
10.021086
10.011104
1550.1703
2443.8679
871.29486
553.22104
347.52226
268.0462
186.50347
151.25824
119.65777
98.887058
82.470525
69.869773
59.923144
51.988024
45.590025
40.352427
36.025848
32.423969
29.403675
26.851968
24.686357
22.833275
21.244777
19.871301
18.679494
17.640403
16.729613
15.927857
15.21999
14.593839
14.036984
13.542333
13.102733
12.712528
12.366795
12.058946
11.786252
11.545031
11.332036
11.146005
10.983335
10.842102
10.720715
10.616207
10.526509
10.449965
10.384899
10.329704
10.283277
10.2451
10.213402
10.187274
10.166065
10.149595
10.136922
10.127633
10.121589
10.118286
10.116929
10.115894
10.114036
10.110877
10.105807
10.098291
10.088154
10.076084
10.064851
10.05445
10.045737
10.040596
10.039756
10.043956
10.052899
10.061308
10.06399
10.058565
10.046764
10.032564
10.019862
10.011105
1568.7723
2405.6881
839.39167
541.73815
335.75624
260.70695
181.46786
146.45485
115.93853
95.344489
79.326064
67.04459
57.397801
49.72985
43.558833
38.54088
34.411707
30.985512
28.123156
25.711226
23.670822
21.928878
20.436456
19.152381
18.041306
17.074527
16.228915
15.485627
14.829604
14.25046
13.735666
13.278434
12.872054
12.510962
12.190416
11.906321
11.654723
11.432545
11.236955
11.065258
10.915189
10.784478
10.672287
10.575969
10.493274
10.42267
10.362688
10.311979
10.269321
10.234063
10.204959
10.181028
10.161641
10.14651
10.135031
10.126677
10.121222
10.11844
10.117443
10.116292
10.114462
10.111391
10.10646
10.099089
10.089054
10.077033
10.066132
10.055759
10.046738
10.040749
10.039145
10.041621
10.047867
10.054024
10.055678
10.050737
10.04063
10.028807
10.018143
10.009905
1586.4085
2365.9114
806.59978
529.28996
323.62037
252.18398
176.09389
141.01405
111.56942
91.312294
75.776071
63.897791
54.605668
47.254379
41.374814
36.61655
32.718332
29.49385
26.809198
24.552765
22.645427
21.02438
19.6386
18.44795
17.419777
16.526862
15.747022
15.062355
14.457619
13.922983
13.449197
13.028213
12.653932
12.321328
12.026114
11.764394
11.532665
11.32793
11.147648
10.989552
10.851585
10.731714
10.628018
10.539228
10.463031
10.397953
10.342646
10.295928
10.256745
10.224146
10.197355
10.175418
10.157706
10.143731
10.133271
10.125689
10.12078
10.118319
10.117493
10.116219
10.114383
10.111397
10.106635
10.09948
10.089667
10.077946
10.067291
10.057
10.047743
10.040988
10.038283
10.039141
10.042902
10.046887
10.047574
10.043178
10.03491
10.025477
10.016462
10.008276
1602.3951
2297.865
772.15533
515.36066
310.36912
242.33287
170.06933
134.79979
106.4527
86.733437
71.795782
60.410665
51.563584
44.608018
39.073003
34.616814
30.982494
27.982813
25.488689
23.400796
21.640156
20.145578
18.869372
17.773841
16.828664
16.008685
15.292807
14.663519
14.109053
13.618565
13.183673
12.797075
12.453019
12.146891
11.874969
11.63398
11.42075
11.23237
11.066462
10.920797
10.793541
10.68309
10.588047
10.506066
10.435782
10.375745
10.324677
10.28148
10.245209
10.215326
10.190537
10.170301
10.154011
10.141203
10.131613
10.1247
10.120221
10.117933
10.117062
10.115663
10.113787
10.11088
10.106333
10.099498
10.09004
10.078756
10.068303
10.058193
10.04891
10.04152
10.037393
10.036519
10.038167
10.040332
10.040388
10.036837
10.030439
10.022903
10.014872
10.006738
1615.658
2229.4715
735.14353
499.39945
296.32023
230.96526
162.926
127.64846
100.51372
81.578633
67.379283
56.622721
48.331264
41.847672
36.71102
32.592964
29.249108
26.488456
24.201309
22.289166
20.678577
19.312368
18.145785
17.143838
16.278926
15.528575
14.872408
14.297044
13.789532
13.339947
12.941168
12.586446
12.270468
11.988893
11.738297
11.515988
11.319511
11.145926
10.993155
10.859034
10.741717
10.64025
10.552261
10.476482
10.411485
10.355985
10.308773
10.268832
10.235322
10.207518
10.184513
10.165733
10.150654
10.138837
10.129958
10.123596
10.119477
10.117311
10.11617
10.114637
10.112689
10.109851
10.105561
10.099184
10.090302
10.079451
10.069179
10.059257
10.049962
10.042132
10.036697
10.034178
10.034003
10.034772
10.034516
10.031919
10.027051
10.02067
10.013154
10.005357
1623.4008
2146.2604
695.34908
479.70566
281.24305
217.76243
154.19103
119.42447
93.752273
75.893664
62.607829
52.638717
45.002634
39.057396
34.361143
30.604965
27.562827
25.056453
22.979734
21.244314
19.782193
18.541237
17.480596
16.568207
15.778795
15.092331
14.492631
13.966122
13.501805
13.089527
12.723419
12.397509
12.106999
11.847875
11.616796
11.411158
11.229589
11.069099
10.92792
10.804227
10.696226
10.602193
10.520708
10.450419
10.39008
10.338564
10.294784
10.257637
10.226659
10.20072
10.179241
10.161675
10.147586
10.136616
10.12828
10.122313
10.118426
10.116269
10.114885
10.113185
10.111138
10.108352
10.104332
10.09848
10.090326
10.080057
10.069942
10.060196
10.050893
10.042695
10.036349
10.032382
10.030673
10.030239
10.02964
10.02764
10.023756
10.018153
10.011272
10.004204
1620.4575
2044.0891
652.2582
453.97308
264.96078
202.38279
143.62332
110.1514
86.316306
69.802881
57.662611
48.602699
41.694645
36.330962
32.099665
28.716138
25.976655
23.723613
21.853313
20.288249
18.96733
17.84413
16.882311
16.053251
15.334257
14.707325
14.158081
13.674753
13.247591
12.868694
12.531537
12.231042
11.962958
11.723792
11.510588
11.320813
11.15229
11.003216
10.87186
10.756679
10.656206
10.568934
10.493192
10.427805
10.37156
10.323439
10.282784
10.248253
10.219152
10.194852
10.17472
10.15818
10.144977
10.134547
10.126613
10.120892
10.117146
10.114907
10.113275
10.11139
10.109223
10.106463
10.102707
10.097415
10.090058
10.080582
10.070633
10.061067
10.051802
10.043338
10.036294
10.031162
10.028036
10.026397
10.025202
10.023328
10.020064
10.015271
10.009375
10.003288
1600.6641
1912.9442
606.08892
421.52977
247.47191
184.62497
131.44017
100.14903
78.549284
63.625327
52.76076
44.67782
38.52947
33.761064
29.997984
26.982617
24.534201
22.522144
20.845664
19.438253
18.246488
17.229871
16.356782
15.602191
14.946034
14.372169
13.867779
13.422966
13.029069
12.679134
12.367156
12.088645
11.839798
11.617505
11.419149
11.242492
11.08556
10.946583
10.823946
10.71616
10.621925
10.540423
10.469654
10.408553
10.35602
10.311053
10.272753
10.2403
10.212848
10.189852
10.170922
10.155327
10.142695
10.132697
10.12504
10.1195
10.115715
10.113336
10.11146
10.109381
10.107083
10.104321
10.100784
10.096027
10.089533
10.081009
10.071316
10.061895
10.052696
10.04402
10.036389
10.030261
10.025866
10.023024
10.021058
10.019005
10.016187
10.012257
10.007504
10.002538
1555.1251
1752.0293
558.00374
383.16314
229.76443
164.76992
118.31924
90.031673
70.901586
57.681175
48.125228
41.02377
35.624075
31.432686
28.117598
25.45144
23.275559
21.477325
19.975016
18.707528
17.62935
16.705623
15.909214
15.218649
14.616622
14.088863
13.622898
13.210772
12.844784
12.519476
12.228857
11.968992
11.736468
11.528495
11.342716
11.177109
11.029894
10.89947
10.784365
10.68321
10.59472
10.517682
10.450924
10.393165
10.34344
10.300792
10.264418
10.23378
10.207829
10.186039
10.167889
10.152946
10.140804
10.13111
10.123683
10.118142
10.114267
10.111699
10.109597
10.107328
10.104899
10.102112
10.098729
10.094407
10.088717
10.081258
10.072053
10.062703
10.053546
10.044675
10.036528
10.029547
10.024054
10.020074
10.01724
10.014884
10.012271
10.009068
10.005464
10.001815
1475.4539
1586.4742
508.95407
343.758
205.88307
145.5308
105.19508
80.47917
63.825943
52.283708
43.972258
37.79658
33.089804
29.422228
26.507347
24.150286
22.21539
20.606309
19.253419
18.105659
17.123931
16.278471
15.545964
14.907917
14.349428
13.858348
13.42467
13.040104
12.697921
12.392521
12.119262
11.874494
11.655154
11.458712
11.283028
11.126254
10.986751
10.863027
10.753697
10.657455
10.573082
10.499504
10.436022
10.381033
10.333684
10.293072
10.258396
10.22893
10.204021
10.183036
10.165507
10.15102
10.139305
10.129877
10.122497
10.116921
10.112912
10.110142
10.107852
10.105416
10.102869
10.10005
10.096778
10.092784
10.087705
10.081128
10.072839
10.063594
10.054435
10.045381
10.036759
10.029007
10.022505
10.017445
10.013663
10.010723
10.008215
10.005711
10.003286
10.001075
1363.3087
1498.5822
462.87531
296.35806
182.13788
127.46087
93.31894
72.012388
57.697493
47.727888
40.520819
35.148119
31.030625
27.80018
25.214241
23.108521
21.368646
19.912836
18.680429
17.629184
16.72541
15.943435
15.262991
14.667874
14.144937
13.683434
13.27447
12.910722
12.586249
12.296574
12.036776
11.803666
11.594436
11.406784
11.238752
11.088651
10.954977
10.836363
10.731535
10.639283
10.558442
10.487871
10.426453
10.373263
10.327363
10.287916
10.254161
10.225447
10.201322
10.180954
10.163921
10.149793
10.138211
10.128869
10.121493
10.115847
10.1117
10.108751
10.106331
10.103777
10.101152
10.098314
10.095112
10.091325
10.086675
10.080837
10.073507
10.064668
10.055481
10.046293
10.03724
10.028752
10.021261
10.015115
10.010401
10.006906
10.004294
10.002394
10.001097
10.000272
1230.2126
1251.5905
422.74143
254.10286
160.03842
112.38094
83.481711
65.169925
52.851306
44.215234
37.924702
33.192224
29.531729
26.633819
24.294162
22.373741
20.775305
19.429159
18.284229
17.302282
16.45427
15.71758
15.074308
14.509992
14.012752
13.572706
13.181819
12.833344
12.521712
12.242325
11.991418
11.765852
11.563046
11.380839
11.2174
11.071136
10.940635
10.824604
10.72184
10.63122
10.551729
10.48265
10.422424
10.370224
10.32514
10.286359
10.253133
10.224791
10.200731
10.180426
10.163403
10.149251
10.137613
10.12818
10.120685
10.114896
10.110588
10.107486
10.105011
10.102394
10.09974
10.096911
10.093777
10.090154
10.085822
10.080512
10.073924
10.065852
10.056733
10.04749
10.038125
10.029009
10.020622
10.013451
10.007796
10.003667
10.000903
9.9993678
9.9989803
9.999504
1110.3391
1115.633
390.18112
223.3899
143.49164
101.27646
76.18949
60.183368
49.385321
41.749125
36.130158
31.862111
28.530115
25.869683
23.704908
21.9153
20.415981
19.145724
18.059412
17.123136
16.310915
15.602458
14.981627
14.435459
13.953832
13.526418
13.145965
12.806094
12.501569
12.228034
11.981898
11.760201
11.560497
11.380743
11.219208
11.074391
10.944954
10.829675
10.727406
10.637057
10.557578
10.487962
10.427254
10.374528
10.328922
10.289631
10.255918
10.227114
10.202618
10.181896
10.164475
10.149943
10.137941
10.128157
10.120324
10.114206
10.109589
10.10624
10.10377
10.101128
10.098483
10.095693
10.092642
10.089169
10.085087
10.08018
10.074191
10.066851
10.058094
10.048806
10.039273
10.029711
10.020645
10.012668
10.006234
10.001518
9.9985043
9.9971256
9.9973006
9.9988431
1055.3264
1072.9517
365.99673
206.32165
132.63452
93.728302
70.747954
56.215623
46.429091
39.497856
34.381526
30.477305
27.416158
24.961783
22.956943
21.293546
19.895208
18.706666
17.687102
16.805797
16.039201
15.368912
14.780256
14.261291
13.802129
13.394485
13.031341
12.706786
12.415851
12.154391
11.918971
11.706754
11.515395
11.342945
11.187759
11.048421
10.923677
10.812386
10.713482
10.625949
10.548809
10.48112
10.421973
10.370503
10.325894
10.287384
10.25427
10.225915
10.201742
10.181239
10.163952
10.149484
10.137487
10.127664
10.119755
10.113537
10.1088
10.10532
10.102734
10.100051
10.097384
10.094615
10.091643
10.088325
10.084488
10.079925
10.074377
10.067549
10.059254
10.049938
10.040293
10.030431
10.020915
10.012409
10.005457
10.000343
9.9972477
9.99629
9.9962759
9.99823
33467.754
79561.375
38333.283
11092.886
1405.2098
616.49257
435.43425
350.59388
289.89078
235.7144
192.15123
159.01818
134.43783
116.17096
102.1415
90.693225
80.999871
72.719209
65.626489
59.511865
54.196705
49.544431
45.449971
41.827836
38.6125
35.739217
33.162564
30.842544
28.747348
26.851865
25.134651
23.576586
22.160996
20.873234
19.701836
18.637136
17.670433
16.794013
16.000819
15.284443
14.639296
14.059807
13.540906
13.078027
12.66669
12.302654
11.982044
11.700795
11.455218
11.241928
11.057616
10.899131
10.76344
10.647905
10.549824
10.469016
10.40568
10.357308
10.322259
10.30112
10.291872
10.287751
10.282806
10.273699
10.262008
10.249193
10.232828
10.215301
10.182071
10.146101
10.06101
10.017914
9.9912033
9.9875447
9.97614
10.007248
10.006143
10.045599
9.9994621
10.033767
19109.768
63972.443
26835.4
5461.9066
985.0588
532.40012
397.64971
320.514
262.86153
211.7193
173.74101
145.06485
124.01731
108.21395
95.78705
85.397551
76.541376
68.964548
62.451325
56.807566
51.879094
47.549264
43.725844
40.332817
37.308244
34.599112
32.164096
29.965959
27.976772
26.174045
24.538045
23.051102
21.697922
20.465105
19.342466
18.321094
17.392897
16.550724
15.787971
15.098668
14.477607
13.91945
13.419443
12.973272
12.576643
12.22551
11.916165
11.644664
11.407499
11.201414
11.023207
10.869838
10.738388
10.62633
10.531105
10.452149
10.389912
10.342044
10.307239
10.286407
10.277467
10.273378
10.268627
10.261232
10.251327
10.239938
10.224935
10.208053
10.175693
10.142866
10.058079
10.01962
9.9920143
9.991725
9.977449
10.012087
10.008068
10.051388
9.9999995
10.03792
24970.396
42277.595
15764.182
2800.2296
845.30447
501.26737
386.14283
304.59805
249.15767
199.97836
165.74872
138.70223
119.17173
104.24771
92.42825
82.490399
74.040927
66.804711
60.573056
55.165653
50.439001
46.283004
42.60972
39.346627
36.433077
33.822016
31.473514
29.351424
27.42995
25.687574
24.105291
22.666147
21.355586
20.160863
19.072529
18.081997
17.181519
16.364264
15.623874
14.954647
14.351599
13.809509
13.323839
12.890425
12.505085
12.163901
11.863273
11.599336
11.368714
11.168236
10.994776
10.845381
10.717232
10.607906
10.514821
10.437106
10.375463
10.327769
10.292981
10.272266
10.263533
10.25954
10.254692
10.24832
10.240025
10.229969
10.216445
10.200057
10.169539
10.139387
10.057278
10.02348
9.9935172
9.9970116
9.9794971
10.018092
10.010223
10.056951
10.000839
10.040151
32927.766
26308.455
9332.9462
1666.0626
758.77165
476.96029
372.73694
288.39179
237.43845
188.9567
158.46095
132.51849
114.60718
100.46171
89.263715
79.771928
71.707598
64.784212
58.814876
53.62822
49.089179
45.094211
41.559838
38.416999
35.608469
33.086761
30.81822
28.766955
26.908806
25.222999
23.691219
22.29716
21.026938
19.868396
18.812766
17.851701
16.977782
16.184457
15.465587
14.815718
14.230061
13.703495
13.231691
12.810618
12.436195
12.104625
11.812413
11.555765
11.331442
11.136351
10.967442
10.821853
10.696924
10.590132
10.499114
10.422622
10.361544
10.314052
10.279334
10.258781
10.2503
10.246453
10.24165
10.235425
10.228114
10.21914
10.207042
10.190902
10.16309
10.134575
10.058245
10.028939
9.9959875
10.003133
9.9824902
10.025113
10.012675
10.062306
10.001965
10.041285
38299.056
21259.182
6412.6538
1248.4497
716.92908
459.21886
361.82985
275.36316
228.82878
180.50255
153.25956
127.64922
111.15679
97.424521
86.725143
77.570587
69.805102
63.121293
57.356763
52.34353
47.953219
44.087056
40.664653
37.619478
34.896409
32.450677
30.246804
28.254795
26.450066
24.812287
23.323661
21.968371
20.733062
19.60604
18.579082
17.643969
16.793561
16.021516
15.321863
14.689351
14.119339
13.606773
13.147512
12.737625
12.373112
12.05028
11.765719
11.515702
11.29711
11.106916
10.942145
10.80003
10.678002
10.573532
10.484407
10.409069
10.348457
10.301147
10.266504
10.246099
10.237883
10.23423
10.22964
10.223629
10.216587
10.208083
10.196888
10.180768
10.156132
10.128608
10.061091
10.035575
9.9996283
10.010001
9.9866912
10.032764
10.015441
10.06756
10.00333
10.041612
41794.723
19346.997
4745.3731
1150.5267
693.77281
439.15946
353.18791
264.90035
222.16934
173.65962
149.17098
123.49395
108.32832
94.793323
84.559985
75.676353
68.160143
61.675021
56.083437
51.216945
46.95312
43.196969
39.870564
36.909445
34.26036
31.880009
29.733093
27.792923
26.035046
24.439614
22.989194
21.668371
20.464243
19.36549
18.364366
17.452703
16.623625
15.87095
15.188844
14.572231
14.016585
13.516902
13.069212
12.669661
12.314315
11.999575
11.722104
11.478234
11.264961
11.079316
10.918406
10.779579
10.660182
10.557884
10.470548
10.396415
10.336228
10.289123
10.254586
10.234305
10.226391
10.222985
10.218638
10.213014
10.206291
10.19797
10.186817
10.170683
10.148447
10.122294
10.065398
10.042818
10.004863
10.017485
9.9924415
10.040485
10.018511
10.072945
10.004912
10.041822
44396.803
17671.174
3703.5141
1089.7333
676.48165
424.76798
346.91383
256.40833
216.97865
168.18021
145.93152
119.98722
106.01466
92.528962
82.723169
74.045338
66.737406
60.417388
54.971219
50.228423
46.071942
42.409639
39.16551
36.276756
33.691621
31.368157
29.272433
27.376449
25.659518
24.101401
22.684804
21.39462
20.218325
19.144914
18.167043
17.276549
16.466803
15.731736
15.065634
14.46357
13.921104
13.433264
12.996244
12.606239
12.259373
11.952129
11.681236
11.443078
11.234758
11.053371
10.896135
10.760277
10.64337
10.543135
10.457514
10.384697
10.324921
10.278054
10.243659
10.223398
10.215884
10.212781
10.208696
10.20346
10.197134
10.189024
10.177748
10.161538
10.140371
10.116188
10.070324
10.05017
10.012441
10.025395
9.999033
10.047934
10.021863
10.078706
10.006689
10.042475
46338.437
15013.964
3028.8592
1052.6711
663.60238
413.1897