/*--------------------------------*- C++ -*----------------------------------*\
  =========                 |
  \\      /  F ield         | OpenFOAM: The Open Source CFD Toolbox
   \\    /   O peration     | Website:  https://openfoam.org
    \\  /    A nd           | Version:  12
     \\/     M anipulation  |
\*---------------------------------------------------------------------------*/
FoamFile
{
    format      ascii;
    class       volScalarField;
    location    "0.04";
    object      rho;
}
// * * * * * * * * * * * * * * * * * * * * * * * * * * * * * * * * * * * * * //

dimensions      [1 -3 0 0 0 0 0];

internalField   nonuniform List<scalar> 
16000
(
1.0564814
1.0878163
1.0759468
1.083935
1.0802439
1.083511
1.0825702
1.0842969
1.0844415
1.0855942
1.0862214
1.0871951
1.0880413
1.0890028
1.0899654
1.0909796
1.0920263
1.0931129
1.0942377
1.0954015
1.0966044
1.0978463
1.0991271
1.1004464
1.1018036
1.1031979
1.1046283
1.1060933
1.1075916
1.1091212
1.1106801
1.1122658
1.1138759
1.1155074
1.1171572
1.1188221
1.1204985
1.122183
1.1238717
1.125561
1.1272468
1.1289256
1.1305935
1.1322468
1.1338823
1.1354965
1.1370864
1.1386494
1.1401828
1.1416847
1.143153
1.1445863
1.1459833
1.1473429
1.1486644
1.1499472
1.151191
1.1523952
1.15356
1.1546851
1.1557708
1.1568169
1.1578241
1.158794
1.1597295
1.1606345
1.1615127
1.1623648
1.1631839
1.1639499
1.1646239
1.1651471
1.1654448
1.1654283
1.1650766
1.1642791
1.1636845
1.1625159
1.1632949
1.1644622
1.0530237
1.0849119
1.072566
1.0809633
1.0770412
1.0805805
1.0795356
1.0814347
1.0815666
1.0828222
1.0834973
1.0845446
1.0854615
1.0864947
1.0875345
1.0886264
1.0897546
1.0909248
1.0921359
1.0933884
1.0946821
1.0960171
1.0973926
1.0988082
1.1002629
1.1017555
1.1032845
1.1048484
1.1064449
1.108072
1.1097268
1.1114067
1.1131083
1.1148285
1.1165635
1.1183096
1.1200629
1.1218192
1.1235745
1.1253247
1.1270657
1.1287934
1.1305042
1.1321943
1.1338603
1.1354992
1.1371082
1.1386848
1.1402271
1.1417332
1.1432019
1.1446322
1.1460233
1.1473749
1.1486866
1.1499586
1.151191
1.152384
1.1535379
1.1546532
1.1557303
1.1567699
1.1577732
1.1587424
1.159681
1.1605931
1.1614826
1.1623496
1.1631861
1.1639697
1.1646592
1.1651941
1.1654948
1.1654776
1.1650877
1.1643913
1.16364
1.162879
1.1633622
1.1650555
1.0498702
1.0822441
1.0694711
1.0782227
1.0741572
1.0778977
1.0768239
1.0788397
1.0790109
1.0803473
1.0810936
1.082215
1.0832144
1.0843274
1.0854542
1.0866338
1.0878535
1.0891176
1.0904251
1.0917761
1.0931703
1.0946072
1.096086
1.0976057
1.0991649
1.1007622
1.1023956
1.1040628
1.1057615
1.1074886
1.1092411
1.1110155
1.1128081
1.1146149
1.1164318
1.1182544
1.1200783
1.121899
1.123712
1.1255131
1.1272977
1.129062
1.1308021
1.1325145
1.1341959
1.1358437
1.1374554
1.1390291
1.1405633
1.1420569
1.1435092
1.1449198
1.1462886
1.147616
1.1489024
1.1501483
1.1513546
1.1525221
1.1536516
1.1547443
1.1558012
1.1568238
1.1578142
1.1587754
1.1597113
1.1606263
1.1615236
1.1624023
1.163252
1.1640477
1.164745
1.1652814
1.1655761
1.1655421
1.1651419
1.1644774
1.1637118
1.1631997
1.1635635
1.1656312
1.0470481
1.0798251
1.0666584
1.0757458
1.0715342
1.0755157
1.0744169
1.0765687
1.0767876
1.0782181
1.0790488
1.0802559
1.0813519
1.0825575
1.0837843
1.0850641
1.0863875
1.087757
1.0891719
1.0906319
1.0921365
1.0936848
1.0952757
1.0969079
1.0985796
1.1002886
1.1020326
1.1038088
1.105614
1.1074446
1.1092969
1.1111667
1.1130496
1.1149409
1.1168359
1.1187296
1.1206171
1.1224935
1.124354
1.1261941
1.1280092
1.1297956
1.1315493
1.1332673
1.1349466
1.1365851
1.138181
1.1397329
1.14124
1.142702
1.144119
1.1454913
1.1468196
1.1481049
1.1493484
1.1505513
1.1517151
1.1528412
1.1539311
1.1549868
1.15601
1.1570031
1.1579692
1.1589121
1.1598362
1.1607458
1.1616435
1.1625265
1.1633825
1.1641837
1.164884
1.1654186
1.1657045
1.1656569
1.1652571
1.1646096
1.1638932
1.1635137
1.1638719
1.1662121
1.0445894
1.0777781
1.0642272
1.0735953
1.0692048
1.0734977
1.0723855
1.0746792
1.0749658
1.0764973
1.0774307
1.0787328
1.0799382
1.0812468
1.0825835
1.0839733
1.0854093
1.0868932
1.0884243
1.0900021
1.0916257
1.0932941
1.0950055
1.0967582
1.0985497
1.1003772
1.1022377
1.1041276
1.1060428
1.1079791
1.1099316
1.1118956
1.1138657
1.1158366
1.1178027
1.1197587
1.1216992
1.1236188
1.1255126
1.127376
1.1292046
1.1309946
1.1327428
1.1344463
1.1361031
1.1377116
1.1392707
1.1407799
1.1422395
1.1436497
1.1450117
1.1463266
1.147596
1.1488216
1.1500052
1.1511489
1.1522547
1.1533247
1.1543614
1.1553671
1.1563448
1.1572977
1.1582298
1.1591458
1.1600504
1.1609479
1.1618395
1.1627208
1.1635768
1.1643774
1.1650747
1.1656027
1.1658765
1.1658171
1.1654208
1.1647937
1.1641512
1.1638957
1.1642707
1.1668228
1.0425451
1.0761288
1.0622267
1.0719169
1.0674609
1.0719129
1.070781
1.0732417
1.0736116
1.0752493
1.0762972
1.0776974
1.0790188
1.0804365
1.0818899
1.0833977
1.0849552
1.0865632
1.0882209
1.0899273
1.091681
1.0934801
1.0953225
1.0972054
1.0991256
1.1010795
1.1030628
1.1050711
1.1070993
1.1091421
1.1111939
1.1132486
1.1153003
1.1173427
1.1193699
1.1213757
1.1233545
1.1253008
1.1272097
1.1290766
1.1308976
1.1326693
1.1343892
1.1360552
1.1376661
1.1392212
1.1407205
1.1421645
1.1435545
1.1448918
1.1461785
1.1474166
1.1486085
1.1497568
1.1508641
1.151933
1.1529662
1.1539665
1.1549371
1.1558812
1.1568025
1.1577054
1.1585946
1.1594754
1.160353
1.1612311
1.1621098
1.1629826
1.1638321
1.1646258
1.1653149
1.1658321
1.1660929
1.1660262
1.165638
1.1650389
1.1644834
1.1643412
1.1647567
1.1674751
1.0409028
1.0748691
1.060654
1.0706906
1.066124
1.0707889
1.069674
1.0722897
1.0727553
1.0744751
1.0756436
1.0771455
1.0785927
1.0801316
1.0817152
1.0833561
1.0850508
1.086799
1.0885992
1.0904498
1.0923485
1.0942926
1.0962788
1.0983035
1.1003623
1.1024504
1.1045625
1.1066927
1.108835
1.1109828
1.1131293
1.1152677
1.1173911
1.1194925
1.1215654
1.1236035
1.1256008
1.1275521
1.1294526
1.1312984
1.1330861
1.1348134
1.1364785
1.1380805
1.1396193
1.1410955
1.1425102
1.1438653
1.145163
1.1464059
1.1475969
1.1487392
1.1498359
1.1508904
1.1519059
1.1528858
1.1538333
1.154752
1.1556455
1.156518
1.1573739
1.1582183
1.1590568
1.1598954
1.160739
1.1615908
1.1624497
1.1633073
1.1641437
1.1649246
1.1656002
1.1661029
1.1663507
1.1662824
1.1659095
1.1653476
1.1648861
1.1648502
1.1653332
1.1681651
1.0396075
1.0739509
1.0594479
1.0698729
1.0652126
1.0700912
1.0690319
1.0718239
1.0722902
1.0741198
1.0754421
1.0770715
1.0786704
1.0803559
1.0820932
1.0838903
1.0857442
1.0876536
1.0896164
1.09163
1.093691
1.0957958
1.0979397
1.1001179
1.1023245
1.1045534
1.1067979
1.1090507
1.1113043
1.1135511
1.115783
1.1179924
1.1201715
1.122313
1.1244101
1.1264562
1.1284459
1.1303743
1.1322373
1.134032
1.1357561
1.1374085
1.1389887
1.1404974
1.1419358
1.143306
1.1446105
1.1458524
1.1470351
1.1481625
1.1492385
1.1502671
1.1512523
1.152198
1.1531082
1.1539867
1.1548374
1.1556643
1.1564718
1.1572645
1.1580477
1.158827
1.1596086
1.1603985
1.1612018
1.1620208
1.1628532
1.1636886
1.164505
1.165267
1.1659242
1.1664089
1.1666445
1.1665811
1.1662334
1.1657204
1.1653561
1.1654143
1.1659931
1.1688865
1.0386544
1.0733629
1.0585948
1.0694795
1.0646388
1.069634
1.0686946
1.071455
1.0722898
1.0742606
1.0757665
1.0775478
1.0793227
1.0811801
1.0830955
1.0850729
1.0871094
1.0892025
1.0913491
1.0935452
1.0957864
1.0980671
1.1003816
1.102723
1.1050839
1.1074566
1.1098326
1.1122032
1.1145594
1.1168923
1.119193
1.1214529
1.1236639
1.1258185
1.1279099
1.1299322
1.1318807
1.1337514
1.1355417
1.1372498
1.1388753
1.1404187
1.1418813
1.1432653
1.1445738
1.1458103
1.146979
1.1480842
1.1491307
1.1501232
1.1510666
1.1519657
1.1528252
1.1536495
1.1544432
1.1552104
1.1559556
1.1566832
1.1573979
1.158105
1.1588101
1.1595192
1.1602389
1.1609751
1.1617325
1.1625128
1.1633122
1.1641184
1.1649082
1.1656452
1.1662787
1.166742
1.1669662
1.1669136
1.1666015
1.1661508
1.1658826
1.1660145
1.1667241
1.1696274
1.0380654
1.0731267
1.0581166
1.06945
1.0644425
1.0697305
1.0688768
1.0718783
1.0728599
1.0749743
1.0766924
1.0786521
1.080629
1.0826862
1.0848065
1.0869906
1.0892347
1.0915352
1.0938873
1.0962854
1.0987231
1.1011934
1.103688
1.1061984
1.1087151
1.1112283
1.1137278
1.1162033
1.1186444
1.1210412
1.123384
1.1256638
1.1278727
1.1300034
1.1320501
1.134008
1.1358737
1.137645
1.1393213
1.1409028
1.1423912
1.1437889
1.1450996
1.1463273
1.1474767
1.1485532
1.1495623
1.1505096
1.1514008
1.1522417
1.1530379
1.1537948
1.1545175
1.1552109
1.1558798
1.1565288
1.1571625
1.1577857
1.1584034
1.1590212
1.1596448
1.1602805
1.1609347
1.1616133
1.1623204
1.1630565
1.1638168
1.1645875
1.1653442
1.16605
1.1666542
1.1670925
1.1673056
1.1672672
1.1669977
1.1666204
1.1664513
1.1666342
1.167506
1.1703625
1.0379126
1.0733172
1.0580744
1.0695186
1.0647199
1.0702909
1.0696545
1.0728205
1.0740506
1.0763355
1.0782997
1.0804716
1.0826807
1.0849689
1.0873233
1.0897423
1.0922205
1.0947524
1.0973312
1.0999492
1.1025976
1.1052666
1.1079459
1.1106242
1.1132898
1.1159309
1.1185353
1.1210913
1.1235875
1.1260132
1.1283588
1.1306154
1.132776
1.1348347
1.1367873
1.138631
1.1403648
1.1419892
1.1435057
1.1449176
1.1462287
1.1474441
1.1485694
1.1496108
1.1505746
1.1514677
1.1522968
1.1530686
1.1537896
1.1544662
1.1551045
1.1557102
1.1562888
1.1568452
1.1573846
1.1579114
1.1584307
1.1589472
1.1594662
1.1599931
1.1605338
1.1610945
1.1616813
1.1622996
1.1629526
1.1636403
1.1643562
1.1650854
1.1658027
1.1664713
1.1670408
1.167451
1.1676523
1.1676278
1.1674013
1.1671015
1.1670425
1.1672732
1.1683073
1.1710532
1.0382762
1.0740012
1.0585697
1.0703644
1.0656578
1.071478
1.0710861
1.0744223
1.0759592
1.0784414
1.080685
1.0831058
1.0855803
1.0881334
1.0907543
1.0934384
1.0961783
1.0989658
1.101791
1.1046434
1.107511
1.110381
1.11324
1.1160742
1.1188694
1.1216116
1.1242874
1.1268839
1.1293893
1.1317931
1.1340865
1.1362624
1.1383154
1.1402424
1.1420419
1.1437143
1.1452618
1.1466879
1.1479977
1.1491969
1.1502923
1.1512913
1.1522015
1.1530308
1.1537872
1.1544786
1.1551125
1.1556964
1.1562372
1.1567417
1.157216
1.157666
1.1580972
1.1585145
1.158923
1.1593273
1.1597321
1.1601424
1.1605632
1.1609999
1.1614581
1.1619438
1.1624626
1.1630191
1.1636158
1.1642515
1.1649186
1.1656012
1.1662737
1.1668992
1.1674288
1.167808
1.1679968
1.167983
1.1677923
1.167565
1.1676098
1.1679071
1.1690858
1.1716405
1.0391512
1.0751907
1.0595943
1.0717933
1.0672506
1.0733071
1.0732425
1.0767667
1.0786652
1.0813859
1.0839484
1.0866628
1.0894428
1.0923003
1.0952242
1.0982061
1.1012354
1.1043
1.1073864
1.1104799
1.113565
1.1166253
1.1196444
1.1226055
1.1254924
1.1282896
1.1309828
1.1335593
1.1360081
1.1383204
1.14049
1.1425127
1.1443868
1.1461131
1.147694
1.1491342
1.1504396
1.1516174
1.1526759
1.1536238
1.1544703
1.1552248
1.1558967
1.1564952
1.1570291
1.1575071
1.1579371
1.1583268
1.1586833
1.1590132
1.1593225
1.1596169
1.1599017
1.1601817
1.1604615
1.1607458
1.1610391
1.1613461
1.1616716
1.1620207
1.1623986
1.1628108
1.1632622
1.1637567
1.1642959
1.1648773
1.1654922
1.1661241
1.1667471
1.1673246
1.16781
1.1681558
1.168331
1.1683241
1.1681578
1.1679849
1.1681229
1.1684997
1.1697821
1.1720721
1.0405839
1.0769327
1.061207
1.0738482
1.0695762
1.0758706
1.0762203
1.0799561
1.082278
1.0852907
1.0882188
1.0912795
1.0944124
1.0976184
1.1008834
1.1041945
1.107536
1.110891
1.1142413
1.1175678
1.1208507
1.1240702
1.1272066
1.130241
1.1331558
1.1359355
1.1385666
1.1410383
1.1433429
1.1454755
1.1474342
1.1492201
1.1508365
1.1522892
1.1535857
1.1547351
1.1557473
1.156633
1.1574035
1.1580698
1.1586432
1.1591344
1.1595538
1.1599112
1.1602159
1.1604765
1.1607011
1.160897
1.161071
1.1612293
1.1613775
1.1615209
1.1616643
1.1618123
1.161969
1.1621389
1.1623261
1.1625349
1.1627699
1.1630356
1.1633368
1.1636784
1.1640644
1.1644979
1.1649793
1.1655052
1.166066
1.1666444
1.1672146
1.1677405
1.1681786
1.1684895
1.1686497
1.1686465
1.168498
1.1683627
1.1685587
1.1690534
1.1703283
1.1723193
1.0426356
1.0792842
1.0635138
1.0766372
1.0727126
1.0792666
1.0801328
1.0841213
1.0869355
1.0903121
1.0936648
1.0971329
1.1006705
1.1042689
1.1079087
1.1115706
1.1152334
1.1188744
1.12247
1.1259962
1.1294289
1.132745
1.1359228
1.1389428
1.1417886
1.1444468
1.146908
1.1491665
1.1512204
1.1530713
1.154724
1.1561859
1.1574668
1.1585778
1.1595315
1.1603411
1.16102
1.1615819
1.1620398
1.1624066
1.1626944
1.1629144
1.1630774
1.1631931
1.1632705
1.1633178
1.1633425
1.1633513
1.1633503
1.163345
1.1633406
1.1633415
1.1633521
1.1633764
1.1634183
1.1634817
1.1635702
1.1636878
1.1638385
1.1640265
1.1642559
1.1645308
1.1648544
1.1652289
1.1656536
1.1661241
1.1666301
1.167154
1.1676699
1.1681425
1.1685326
1.1688084
1.1689518
1.168949
1.1688209
1.1687302
1.1689413
1.1695105
1.1706928
1.1723737
1.0453638
1.0822765
1.0666372
1.0802355
1.0767914
1.0836271
1.0851391
1.0894521
1.0928398
1.0966673
1.1005098
1.1044455
1.1084343
1.1124578
1.11649
1.1205044
1.1244724
1.1283647
1.1321518
1.1358047
1.1392963
1.1426023
1.145702
1.1485792
1.1512223
1.1536248
1.1557852
1.157706
1.1593941
1.1608595
1.1621146
1.1631739
1.1640532
1.1647686
1.1653369
1.1657742
1.1660963
1.1663183
1.1664544
1.1665176
1.1665201
1.1664729
1.1663861
1.1662687
1.1661289
1.165974
1.1658106
1.1656444
1.1654806
1.1653241
1.165179
1.1650491
1.1649383
1.1648498
1.1647872
1.1647536
1.1647525
1.1647872
1.1648612
1.1649781
1.1651414
1.1653544
1.1656195
1.1659378
1.166308
1.1667246
1.1671768
1.167647
1.1681092
1.1685298
1.1688738
1.1691161
1.1692413
1.1692343
1.1691217
1.1690688
1.1693063
1.1698705
1.1708896
1.1722406
1.0488347
1.0859148
1.0707054
1.0847826
1.0820054
1.0891875
1.0914922
1.0962221
1.1002621
1.1046256
1.1090164
1.1134674
1.1179374
1.1223972
1.1268116
1.1311444
1.1353586
1.1394176
1.1432869
1.1469356
1.1503379
1.1534734
1.1563283
1.1588956
1.1611742
1.1631688
1.164889
1.1663486
1.1675639
1.1685537
1.1693377
1.1699364
1.1703701
1.1706584
1.1708203
1.1708735
1.1708344
1.1707181
1.1705386
1.1703081
1.1700379
1.1697379
1.169417
1.1690831
1.168743
1.1684029
1.168068
1.1677432
1.1674327
1.1671401
1.1668689
1.1666223
1.1664031
1.1662144
1.1660589
1.1659393
1.1658585
1.1658193
1.1658248
1.1658779
1.1659815
1.166138
1.1663492
1.1666152
1.1669339
1.1672993
1.1677004
1.1681196
1.1685313
1.1689036
1.1692063
1.1694187
1.1695252
1.1695092
1.1694055
1.1693797
1.1696174
1.1700985
1.1709443
1.171979
1.0532263
1.0903439
1.0759357
1.0905992
1.0886816
1.0962712
1.0995082
1.1047473
1.1095057
1.114481
1.1194676
1.1244629
1.1294164
1.1342843
1.1390185
1.1435723
1.1479008
1.1519644
1.1557301
1.1591726
1.1622755
1.1650314
1.1674406
1.1695113
1.1712573
1.1726974
1.1738536
1.1747503
1.1754127
1.1758663
1.1761361
1.1762461
1.1762186
1.1760746
1.1758331
1.1755116
1.1751255
1.1746889
1.1742139
1.1737115
1.1731913
1.1726615
1.1721293
1.1716012
1.1710825
1.1705781
1.1700919
1.1696275
1.1691882
1.1687767
1.1683955
1.1680472
1.167734
1.1674583
1.1672221
1.1670279
1.1668778
1.1667744
1.1667199
1.1667168
1.1667674
1.1668734
1.1670358
1.167254
1.1675252
1.1678434
1.1681974
1.1685699
1.1689361
1.1692664
1.1695344
1.169722
1.1698114
1.1697861
1.1696892
1.1696767
1.1698879
1.1702844
1.170899
1.1716584
1.0588142
1.0961566
1.0827309
1.0980218
1.0971606
1.105194
1.1095062
1.1153693
1.1209135
1.1265688
1.1321779
1.1377039
1.1430797
1.1482441
1.1531383
1.1577103
1.1619173
1.1657281
1.1691234
1.1720959
1.1746491
1.1767961
1.1785572
1.1799585
1.1810298
1.1818029
1.1823101
1.1825836
1.1826539
1.1825502
1.182299
1.1819249
1.1814499
1.1808936
1.1802737
1.1796054
1.1789021
1.1781757
1.1774361
1.1766922
1.1759514
1.1752201
1.174504
1.1738075
1.1731346
1.1724888
1.1718728
1.1712891
1.17074
1.1702272
1.1697527
1.1693181
1.1689253
1.1685758
1.1682714
1.1680138
1.1678049
1.1676465
1.1675406
1.1674891
1.1674936
1.1675553
1.1676744
1.1678499
1.1680787
1.1683544
1.1686663
1.1689974
1.1693242
1.1696197
1.1698606
1.1700292
1.1701054
1.1700753
1.1699871
1.1699792
1.1701458
1.170422
1.1708247
1.171338
1.0657944
1.1038181
1.0912772
1.1072549
1.1077927
1.1163574
1.1219084
1.128542
1.134927
1.1412812
1.1474584
1.1533888
1.1589903
1.1641942
1.1689448
1.1732029
1.1769462
1.180169
1.1828802
1.1851007
1.1868607
1.1881966
1.1891488
1.1897591
1.1900692
1.1901192
1.1899471
1.1895876
1.1890725
1.1884302
1.187686
1.1868621
1.1859777
1.1850497
1.1840924
1.1831184
1.1821381
1.1811606
1.1801934
1.179243
1.1783147
1.177413
1.1765417
1.1757038
1.1749018
1.1741379
1.1734137
1.1727308
1.1720904
1.1714937
1.1709419
1.170436
1.1699773
1.1695668
1.1692059
1.1688958
1.1686379
1.1684338
1.1682848
1.1681924
1.1681577
1.1681814
1.1682632
1.1684017
1.1685935
1.1688322
1.1691073
1.1694025
1.1696963
1.1699642
1.170185
1.170341
1.1704094
1.1703834
1.1703097
1.1703009
1.1704109
1.1705611
1.1707674
1.1710686
1.0742803
1.1132255
1.1021499
1.118842
1.1212039
1.1304322
1.1373424
1.1448436
1.1520187
1.1589307
1.1654314
1.1714348
1.1768656
1.1816749
1.1858377
1.1893522
1.1922364
1.1945237
1.1962587
1.1974928
1.198281
1.1986783
1.1987386
1.1985122
1.1980456
1.1973808
1.1965549
1.1956008
1.1945471
1.1934184
1.1922358
1.1910174
1.1897783
1.1885315
1.1872878
1.186056
1.1848438
1.1836574
1.1825017
1.181381
1.1802987
1.1792574
1.1782593
1.1773061
1.176399
1.1755392
1.1747272
1.1739639
1.1732496
1.1725851
1.1719707
1.1714073
1.1708953
1.1704356
1.170029
1.1696764
1.1693788
1.1691374
1.1689532
1.1688272
1.1687601
1.1687521
1.1688027
1.1689102
1.1690708
1.1692782
1.1695219
1.1697871
1.170054
1.1703009
1.1705076
1.1706571
1.1707261
1.170715
1.1706635
1.1706538
1.1707066
1.1707412
1.17078
1.1709033
1.0849948
1.1252539
1.1162286
1.1336933
1.1383149
1.1482864
1.1564902
1.1647416
1.172398
1.1794365
1.185736
1.1912381
1.1959153
1.1997745
1.2028484
1.2051903
1.2068662
1.2079491
1.2085141
1.2086343
1.208379
1.2078113
1.2069879
1.205959
1.2047679
1.2034522
1.2020435
1.200569
1.1990512
1.197509
1.1959583
1.1944119
1.1928805
1.1913729
1.1898962
1.1884562
1.1870573
1.1857033
1.184397
1.1831406
1.1819356
1.1807834
1.1796847
1.1786401
1.1776498
1.176714
1.1758326
1.1750056
1.174233
1.1735148
1.1728512
1.1722422
1.1716882
1.1711896
1.1707469
1.1703606
1.1700316
1.1697606
1.1695484
1.1693956
1.1693026
1.1692693
1.1692949
1.1693774
1.1695129
1.1696949
1.1699132
1.170154
1.1704
1.1706324
1.1708315
1.1709791
1.1710626
1.1710775
1.1710575
1.1710533
1.1710606
1.1710084
1.1709241
1.1709063
1.0994633
1.1409758
1.1347526
1.1528508
1.1600698
1.1706766
1.1797096
1.1881619
1.1955973
1.2019947
1.2073195
1.2115955
1.2148803
1.2172582
1.2188276
1.2196929
1.2199573
1.2197185
1.2190653
1.2180769
1.2168221
1.2153602
1.2137411
1.2120069
1.2101926
1.2083268
1.2064334
1.2045317
1.2026372
1.2007628
1.1989186
1.1971126
1.1953512
1.1936394
1.191981
1.1903789
1.1888353
1.1873515
1.1859287
1.1845673
1.1832677
1.1820298
1.1808534
1.1797381
1.1786835
1.1776888
1.1767537
1.1758775
1.1750597
1.1743
1.1735981
1.1729539
1.1723674
1.1718386
1.1713679
1.1709556
1.1706023
1.1703084
1.1700746
1.1699012
1.1697882
1.1697355
1.169742
1.1698055
1.1699219
1.1700847
1.170284
1.1705069
1.1707382
1.1709617
1.1711614
1.1713209
1.1714275
1.1714815
1.1715059
1.1715202
1.171508
1.1714114
1.1712595
1.1711429
1.1191141
1.1616643
1.1591289
1.1773251
1.1868586
1.1975809
1.2064494
1.2140478
1.220214
1.225014
1.2285408
1.2309285
1.2323257
1.2328836
1.2327455
1.2320418
1.2308874
1.2293808
1.227605
1.225629
1.2235095
1.2212928
1.2190161
1.2167095
1.2143968
1.212097
1.2098252
1.207593
1.2054095
1.2032816
1.2012147
1.1992125
1.1972779
1.1954127
1.193618
1.1918945
1.1902424
1.1886615
1.1871513
1.1857112
1.1843405
1.1830381
1.1818031
1.1806345
1.1795311
1.178492
1.177516
1.1766023
1.1757501
1.1749588
1.1742277
1.1735567
1.1729453
1.1723935
1.1719015
1.1714693
1.1710975
1.1707864
1.1705363
1.1703475
1.1702198
1.1701529
1.1701456
1.1701956
1.1702986
1.1704481
1.1706351
1.1708478
1.1710734
1.1712977
1.1715068
1.1716874
1.1718313
1.1719431
1.1720246
1.1720816
1.1720866
1.171997
1.1718429
1.1716782
1.1464927
1.1881032
1.1904617
1.2080022
1.2179125
1.2274539
1.2347892
1.240307
1.2441306
1.2464928
1.2476228
1.2477461
1.247065
1.2457557
1.2439664
1.2418189
1.2394123
1.2368254
1.234121
1.2313483
1.2285458
1.2257432
1.2229636
1.2202246
1.2175394
1.2149179
1.2123676
1.2098936
1.2074996
1.2051879
1.2029598
1.2008159
1.1987563
1.1967804
1.1948874
1.1930762
1.1913456
1.1896942
1.1881206
1.1866231
1.1852002
1.1838505
1.1825723
1.1813641
1.1802245
1.179152
1.1781454
1.1772035
1.1763254
1.1755101
1.1747569
1.1740654
1.173435
1.1728657
1.1723573
1.1719101
1.1715244
1.1712003
1.1709381
1.1707379
1.1705995
1.1705226
1.1705057
1.1705466
1.170641
1.1707828
1.1709638
1.1711738
1.171402
1.1716369
1.1718677
1.1720851
1.1722844
1.1724658
1.172629
1.1727608
1.1728277
1.1728052
1.1727057
1.1725428
1.1841833
1.2220691
1.2275832
1.242432
1.2512516
1.2579215
1.2621343
1.2644247
1.2651431
1.2646449
1.2632212
1.2611127
1.2585104
1.2555639
1.2523883
1.2490719
1.245681
1.2422659
1.2388638
1.2355025
1.2322021
1.2289774
1.2258387
1.2227931
1.2198453
1.2169982
1.2142531
1.2116104
1.2090696
1.2066297
1.2042893
1.2020465
1.1998993
1.1978457
1.1958833
1.1940101
1.1922236
1.1905217
1.1889022
1.187363
1.185902
1.1845172
1.1832067
1.1819688
1.1808017
1.1797037
1.1786736
1.1777098
1.1768113
1.1759771
1.1752063
1.1744984
1.1738528
1.1732692
1.1727477
1.1722884
1.1718913
1.1715568
1.1712851
1.171076
1.1709296
1.1708451
1.1708214
1.1708561
1.1709453
1.1710835
1.1712636
1.1714773
1.1717161
1.1719713
1.1722353
1.1725029
1.1727731
1.1730466
1.1733155
1.1735578
1.1737363
1.1738215
1.1738157
1.1737015
1.2304247
1.2619854
1.2688521
1.278336
1.28305
1.2852738
1.2853825
1.2840085
1.2815731
1.278412
1.2747708
1.2708299
1.2667199
1.2625345
1.2583405
1.2541849
1.2501007
1.2461107
1.2422299
1.2384681
1.2348313
1.2313226
1.2279429
1.2246919
1.2215682
1.2185695
1.2156933
1.2129365
1.2102959
1.2077684
1.2053504
1.2030387
1.2008301
1.1987212
1.196709
1.1947905
1.1929627
1.191223
1.1895686
1.1879972
1.1865062
1.1850935
1.183757
1.1824946
1.1813045
1.180185
1.1791346
1.1781518
1.1772354
1.1763844
1.1755978
1.1748749
1.1742153
1.1736187
1.1730849
1.1726141
1.1722066
1.1718624
1.1715817
1.1713646
1.1712109
1.1711198
1.1710904
1.1711203
1.1712061
1.1713431
1.1715255
1.1717471
1.1720021
1.1722847
1.1725905
1.1729174
1.1732676
1.1736445
1.174041
1.1744259
1.1747479
1.1749688
1.1750763
1.1750394
1.2830382
1.303025
1.3073621
1.30961
1.3087826
1.3061571
1.3023279
1.2977715
1.2927997
1.2876237
1.2823833
1.2771706
1.2720451
1.2670449
1.2621934
1.2575041
1.2529841
1.2486357
1.2444586
1.2404502
1.2366068
1.2329239
1.2293966
1.2260196
1.2227876
1.2196954
1.2167378
1.2139097
1.2112065
1.2086232
1.2061557
1.2037994
1.2015504
1.1994049
1.1973592
1.1954098
1.1935534
1.191787
1.1901078
1.1885129
1.1869998
1.1855662
1.1842098
1.1829286
1.1817206
1.180584
1.1795173
1.1785191
1.177588
1.176723
1.1759231
1.1751876
1.1745159
1.1739078
1.1733632
1.1728822
1.172465
1.1721119
1.171823
1.1715983
1.1714376
1.1713404
1.1713057
1.1713314
1.1714146
1.1715515
1.1717377
1.1719692
1.1722424
1.1725544
1.1729031
1.1732891
1.1737187
1.1742007
1.1747304
1.1752694
1.175748
1.1761049
1.176319
1.176373
1.3345132
1.3375984
1.3363122
1.3319099
1.3261771
1.3197276
1.3130101
1.3062593
1.2996166
1.2931586
1.2869267
1.28094
1.2752051
1.2697209
1.2644817
1.2594795
1.254705
1.2501481
1.245799
1.2416479
1.2376852
1.2339021
1.23029
1.2268408
1.2235471
1.2204017
1.217398
1.2145298
1.2117913
1.209177
1.2066817
1.2043007
1.2020295
1.1998637
1.1977995
1.1958331
1.193961
1.1921799
1.1904869
1.188879
1.1873535
1.1859081
1.1845404
1.1832482
1.1820296
1.1808829
1.1798063
1.1787985
1.1778581
1.1769839
1.1761751
1.1754307
1.1747503
1.1741335
1.1735803
1.1730908
1.1726653
1.1723041
1.1720073
1.171775
1.1716072
1.1715035
1.1714629
1.1714839
1.1715639
1.1716999
1.1718887
1.1721278
1.1724159
1.1727519
1.1731351
1.1735686
1.1740632
1.1746345
1.1752821
1.1759604
1.1765774
1.1770465
1.1773447
1.1774848
1.3676443
1.3601895
1.3527211
1.3446159
1.3361979
1.3278789
1.3198161
1.3120815
1.3047017
1.2976793
1.2910056
1.2846658
1.278643
1.2729194
1.2674775
1.2623006
1.257373
1.2526802
1.2482084
1.2439453
1.2398795
1.2360002
1.2322977
1.2287631
1.2253881
1.222165
1.2190868
1.2161467
1.2133388
1.2106573
1.208097
1.2056528
1.2033201
1.2010946
1.1989722
1.1969492
1.195022
1.1931874
1.1914421
1.1897834
1.1882085
1.186715
1.1853006
1.183963
1.1827005
1.1815111
1.1803933
1.1793455
1.1783666
1.1774553
1.1766106
1.1758318
1.1751182
1.1744697
1.1738861
1.1733677
1.1729147
1.1725276
1.1722066
1.1719519
1.1717634
1.1716409
1.1715836
1.1715901
1.1716579
1.1717845
1.171967
1.1722041
1.1724953
1.1728405
1.1732398
1.1736981
1.1742301
1.1748569
1.1755812
1.1763512
1.1770582
1.1775984
1.1779494
1.1781479
1.1577978
1.1668571
1.1837127
1.1972054
1.2031491
1.2043956
1.204354
1.2039436
1.2039683
1.2036091
1.2032183
1.2027216
1.2021217
1.2014596
1.200757
1.200019
1.199249
1.1984521
1.1976326
1.1967942
1.1959403
1.1950738
1.1941976
1.1933141
1.1924255
1.1915337
1.1906407
1.1897479
1.188857
1.1879693
1.187086
1.1862083
1.1853374
1.1844743
1.1836199
1.1827752
1.181941
1.1811183
1.1803078
1.1795104
1.1787269
1.1779579
1.1772042
1.1764664
1.175745
1.1750406
1.1743537
1.1736844
1.1730331
1.1723998
1.1717846
1.1711875
1.1706084
1.1700474
1.1695049
1.1689813
1.1684776
1.1679952
1.1675364
1.1671037
1.1667009
1.1663325
1.1660048
1.165724
1.1655021
1.1653403
1.1652696
1.1652553
1.1653973
1.1655314
1.1659726
1.1662022
1.1669983
1.1671147
1.1680392
1.1676134
1.1684004
1.1665945
1.1662387
1.162142
1.1541277
1.1681597
1.1871212
1.1966843
1.1992495
1.1991236
1.1985664
1.1983452
1.1980701
1.1978157
1.1974821
1.1971091
1.196694
1.1962487
1.1957639
1.1952457
1.1946945
1.1941137
1.1935052
1.1928715
1.1922149
1.1915374
1.1908414
1.1901289
1.1894021
1.188663
1.1879136
1.1871559
1.1863917
1.1856227
1.1848507
1.1840773
1.1833041
1.1825326
1.1817642
1.1810003
1.1802424
1.1794916
1.1787493
1.1780167
1.1772949
1.176585
1.175888
1.1752049
1.1745366
1.1738839
1.1732473
1.1726276
1.1720251
1.1714402
1.1708732
1.1703243
1.1697938
1.169282
1.1687892
1.1683164
1.1678645
1.167435
1.1670302
1.1666525
1.1663055
1.1659933
1.165722
1.1654971
1.1653297
1.1652209
1.1651981
1.1652288
1.1654041
1.1655679
1.1660177
1.166266
1.1670377
1.1671378
1.1680188
1.167533
1.1682861
1.166342
1.166055
1.1620484
1.1558448
1.171507
1.1857136
1.192788
1.194039
1.1936615
1.1932067
1.1930105
1.1927909
1.1925715
1.192292
1.1920112
1.1916928
1.1913572
1.19099
1.1906001
1.1901837
1.1897434
1.1892795
1.1887928
1.1882844
1.1877555
1.1872072
1.1866407
1.1860576
1.185459
1.1848466
1.1842217
1.1835859
1.1829407
1.1822876
1.1816283
1.1809642
1.180297
1.1796283
1.1789595
1.1782923
1.1776281
1.1769686
1.1763151
1.1756691
1.175032
1.1744051
1.1737895
1.1731866
1.1725972
1.1720224
1.1714629
1.1709195
1.1703928
1.1698833
1.1693915
1.1689178
1.1684629
1.1680274
1.1676121
1.1672183
1.1668474
1.1665017
1.1661834
1.1658959
1.1656431
1.1654302
1.1652628
1.1651504
1.1650941
1.1651181
1.1651914
1.1653985
1.1655881
1.166046
1.1663089
1.1670583
1.1671376
1.1679799
1.1674554
1.1681511
1.1660928
1.1658659
1.1619423
1.1555761
1.1719007
1.1837657
1.189198
1.1893047
1.1889028
1.1884791
1.1883139
1.1880388
1.1878205
1.1875395
1.1872855
1.1869984
1.1867144
1.1864074
1.1860914
1.185758
1.1854103
1.1850468
1.1846674
1.184272
1.1838605
1.183433
1.1829898
1.1825312
1.1820578
1.1815702
1.1810692
1.1805558
1.180031
1.1794958
1.1789516
1.1783995
1.1778411
1.1772777
1.1767108
1.176142
1.1755728
1.1750049
1.1744398
1.1738791
1.1733243
1.1727769
1.1722384
1.1717101
1.1711933
1.1706891
1.1701986
1.1697227
1.1692622
1.1688179
1.1683906
1.1679809
1.1675896
1.1672175
1.1668656
1.1665352
1.1662279
1.1659456
1.1656907
1.1654661
1.1652753
1.1651233
1.1650147
1.1649582
1.1649545
1.1650249
1.1651397
1.1653775
1.1655915
1.1660586
1.1663327
1.1670625
1.1671179
1.1679248
1.167373
1.1679977
1.1658524
1.1656683
1.1618401
1.1522973
1.1695664
1.1802391
1.1842025
1.1837436
1.1835913
1.1832242
1.183159
1.1829188
1.1827829
1.1825589
1.1823858
1.1821696
1.1819679
1.1817424
1.181515
1.181273
1.181021
1.1807564
1.1804793
1.1801891
1.1798855
1.1795682
1.179237
1.178892
1.1785333
1.178161
1.1777756
1.1773775
1.1769673
1.1765458
1.1761139
1.1756725
1.1752228
1.1747659
1.1743032
1.1738361
1.173366
1.1728946
1.1724234
1.171954
1.171488
1.1710269
1.1705725
1.170126
1.169689
1.1692626
1.1688482
1.1684468
1.1680595
1.1676872
1.1673309
1.1669914
1.1666697
1.1663667
1.1660834
1.1658213
1.1655818
1.1653669
1.1651787
1.1650198
1.1648934
1.1648038
1.1647552
1.1647551
1.1648036
1.1649195
1.1650746
1.1653413
1.1655797
1.1660557
1.1663388
1.1670503
1.1670818
1.1678572
1.1672853
1.1678273
1.165612
1.1654724
1.1617405
1.1470439
1.1664543
1.1756973
1.1788549
1.1781717
1.1782759
1.1779385
1.1779954
1.1777997
1.1777613
1.177602
1.1775178
1.1773756
1.1772588
1.1771145
1.176973
1.1768178
1.1766554
1.1764817
1.1762976
1.1761026
1.1758961
1.175678
1.1754479
1.1752057
1.1749512
1.1746844
1.1744054
1.1741143
1.1738114
1.1734971
1.1731721
1.1728371
1.1724927
1.1721402
1.1717805
1.1714149
1.1710447
1.1706714
1.1702964
1.1699214
1.1695479
1.1691775
1.1688117
1.168452
1.1681
1.167757
1.1674242
1.167103
1.1667945
1.1664998
1.16622
1.165956
1.165709
1.1654798
1.1652697
1.1650799
1.164912
1.1647676
1.1646489
1.164558
1.1644978
1.164472
1.1644842
1.1645406
1.164641
1.1648014
1.1649956
1.1652899
1.1655533
1.1660375
1.1663286
1.1670228
1.1670326
1.1677817
1.1671933
1.167642
1.1653709
1.1652805
1.1616473
1.1422605
1.1634888
1.1709741
1.1736986
1.1728623
1.1731833
1.1728448
1.1730123
1.1728478
1.1728971
1.1727923
1.1727888
1.1727114
1.1726727
1.1726031
1.172536
1.172455
1.1723703
1.1722764
1.1721745
1.1720637
1.1719438
1.1718142
1.1716745
1.1715246
1.1713639
1.1711925
1.1710101
1.1708167
1.1706124
1.1703975
1.1701722
1.1699371
1.1696928
1.16944
1.1691798
1.1689131
1.1686411
1.1683651
1.1680866
1.1678068
1.1675274
1.1672497
1.1669753
1.1667057
1.1664423
1.1661865
1.1659397
1.165703
1.1654778
1.1652652
1.1650663
1.1648823
1.164714
1.1645627
1.1644294
1.1643154
1.1642221
1.164151
1.164104
1.1640829
1.1640903
1.1641291
1.1642025
1.1643153
1.164467
1.164671
1.1649032
1.165224
1.1655125
1.1660042
1.1663033
1.166981
1.1669739
1.1677017
1.1670971
1.1674446
1.1651307
1.1650944
1.1615696
1.1377172
1.1603517
1.1662944
1.1688659
1.1679065
1.1684172