/*--------------------------------*- C++ -*----------------------------------*\
  =========                 |
  \\      /  F ield         | OpenFOAM: The Open Source CFD Toolbox
   \\    /   O peration     | Website:  https://openfoam.org
    \\  /    A nd           | Version:  12
     \\/     M anipulation  |
\*---------------------------------------------------------------------------*/
FoamFile
{
    format      ascii;
    class       volScalarField;
    location    "800";
    object      alphat;
}
// * * * * * * * * * * * * * * * * * * * * * * * * * * * * * * * * * * * * * //

dimensions      [1 -1 -1 0 0 0 0];

internalField   nonuniform List<scalar> 
16200
(
0.0004825342536
0.001645474564
0.002738413967
0.003591740009
0.003858652207
0.003404691171
0.002511698305
0.001380017447
0.0007094761191
0.0001940846822
6.044948486e-06
2.665716425e-06
2.416299398e-06
2.37960773e-06
1.88330323e-06
1.623017658e-06
1.416892205e-06
1.271658517e-06
1.17758004e-06
1.117138907e-06
1.082612468e-06
1.071108994e-06
1.079733279e-06
1.10671907e-06
1.151663979e-06
1.21579666e-06
1.302401998e-06
1.417493956e-06
1.571197397e-06
1.780542688e-06
2.074662145e-06
2.504487026e-06
3.161322379e-06
4.215298845e-06
6.001863511e-06
9.218059599e-06
1.536863979e-05
2.777485896e-05
5.386832163e-05
0.0001104690738
0.0002360724383
0.000519638636
0.00116385462
0.001165463897
0.001165938259
0.001165521279
0.00116451611
0.001164221223
0.001164230766
0.001164336771
0.001164458188
0.001164568173
0.001164662026
0.001164743729
0.001164820309
0.001164901253
0.001164996329
0.001165124334
0.001165294738
0.001165569211
0.0004714055727
0.001593993497
0.002623449804
0.003375542972
0.003479448663
0.002911176769
0.002037796532
0.001010958918
0.0005582959095
4.270614354e-05
2.716365361e-06
2.224828866e-06
2.026936151e-06
1.990630714e-06
1.675976222e-06
1.441006864e-06
1.254625794e-06
1.123437589e-06
1.040155712e-06
9.879259939e-07
9.593676379e-07
9.515255452e-07
9.61550334e-07
9.876266844e-07
1.029278989e-06
1.087566809e-06
1.165493772e-06
1.268655397e-06
1.40655287e-06
1.595119106e-06
1.86125002e-06
2.251277641e-06
2.847521493e-06
3.80272726e-06
5.417440305e-06
8.31551573e-06
1.384344896e-05
2.497343414e-05
4.835477287e-05
9.903245218e-05
0.0002114316844
0.0004651119773
0.001045470458
0.001165302768
0.001165820584
0.001165526644
0.001164520506
0.001164220314
0.001164229814
0.001164337973
0.001164462095
0.001164574573
0.00116467043
0.001164753489
0.001164830959
0.001164911893
0.001165006843
0.001165133873
0.001165304208
0.001165582316
0.0004618587117
0.001545885947
0.002513645326
0.003163987267
0.003109803848
0.002455301349
0.001567614723
0.0007375145074
0.0003728869313
1.420127058e-05
2.099792864e-06
1.861642324e-06
1.701514891e-06
1.667146112e-06
1.48090893e-06
1.270597343e-06
1.103872574e-06
9.865554535e-07
9.135679062e-07
8.688616471e-07
8.454243975e-07
8.402185968e-07
8.504356953e-07
8.742547698e-07
9.112101578e-07
9.623356791e-07
1.030566207e-06
1.121397574e-06
1.244143289e-06
1.414136064e-06
1.656531296e-06
2.013628886e-06
2.559740694e-06
3.432383296e-06
4.901982032e-06
7.529353604e-06
1.252350122e-05
2.254880018e-05
4.355201914e-05
8.895189506e-05
0.0001893679106
0.0004153953727
0.000931205562
0.001165230007
0.00116574766
0.001165539009
0.001164538191
0.001164231416
0.001164237999
0.001164345538
0.001164470172
0.001164583566
0.00116468034
0.001164764094
0.001164842001
0.001164922821
0.001165017508
0.001165143702
0.001165313988
0.001165595807
0.0004547884586
0.001501339152
0.002405747098
0.002920500926
0.002737630144
0.00204444504
0.001115581023
0.000544590173
0.0001837079108
5.116941704e-06
1.74865935e-06
1.573368705e-06
1.44284078e-06
1.410355213e-06
1.309887833e-06
1.120686106e-06
9.709985308e-07
8.658300753e-07
8.017154421e-07
7.633609137e-07
7.440719727e-07
7.407460233e-07
7.506613943e-07
7.721241478e-07
8.048343415e-07
8.499926167e-07
9.107120689e-07
9.927063901e-07
1.105441991e-06
1.263977125e-06
1.492177691e-06
1.829291215e-06
2.343818913e-06
3.162747322e-06
4.536379141e-06
6.984156208e-06
1.162565968e-05
2.092635251e-05
4.038144046e-05
8.236801624e-05
0.0001750747736
0.0003833805917
0.0008579433309
0.001165259864
0.001165734604
0.00116555732
0.001164571672
0.001164258007
0.001164258607
0.001164362172
0.001164484487
0.001164596656
0.001164692822
0.001164776258
0.001164853922
0.001164934317
0.001165028496
0.00116515387
0.001165323959
0.001165608953
0.0004487845638
0.001459665377
0.00230125778
0.002681969665
0.002378437295
0.001688197001
0.0008013944337
0.0004142891747
4.376551665e-05
2.024933625e-06
1.473107324e-06
1.333070045e-06
1.226799918e-06
1.196963301e-06
1.152979602e-06
9.836762756e-07
8.501287057e-07
7.565211114e-07
7.006256521e-07
6.67971321e-07
6.522648202e-07
6.50448603e-07
6.599978816e-07
6.794687458e-07
7.088295572e-07
7.495733569e-07
8.051554885e-07
8.816545378e-07
9.887344758e-07
1.141152331e-06
1.361589639e-06
1.686747872e-06
2.180500774e-06
2.961684897e-06
4.265321995e-06
6.579579696e-06
1.095594408e-05
1.970652052e-05
3.797365798e-05
7.730981844e-05
0.0001639564379
0.0003581626115
0.0007995340227
0.001165366022
0.001165768002
0.001165580431
0.001164617119
0.001164296222
0.001164288491
0.001164385528
0.001164503379
0.001164612703
0.001164707118
0.001164789482
0.001164866424
0.001164946178
0.001165039729
0.001165164343
0.001165334226
0.001165622186
0.0004434337213
0.001420432865
0.002198222086
0.002443160712
0.002030762664
0.00132181555
0.0005933346303
0.0002862591997
1.678725743e-05
1.524029695e-06
1.249961311e-06
1.135822023e-06
1.04882216e-06
1.021299626e-06
1.011790258e-06
8.603379442e-07
7.414142197e-07
6.584560304e-07
6.100523657e-07
5.825948412e-07
5.702252811e-07
5.699845399e-07
5.795850391e-07
5.9788974e-07
6.25211925e-07
6.634541765e-07
7.165254024e-07
7.908933091e-07
8.963563562e-07
1.047368384e-06
1.265702323e-06
1.586248743e-06
2.069647652e-06
2.829166964e-06
4.08972461e-06
6.319178813e-06
1.052465965e-05
1.891708342e-05
3.640221102e-05
7.397066191e-05
0.0001565171966
0.0003410456973
0.0007593217347
0.00116553468
0.001165842579
0.00116561596
0.001164671533
0.001164344119
0.001164326476
0.001164414934
0.001164526483
0.001164631526
0.001164723153
0.001164803741
0.001164879518
0.001164958413
0.00116505123
0.001165175123
0.001165344783
0.001165635419
0.0004380374603
0.001382585024
0.002094746978
0.002193705163
0.001701869072
0.0009683156842
0.0004455537242
0.0001701295424
5.527589901e-06
1.262086934e-06
1.064031359e-06
9.69788975e-07
8.98094592e-07
8.729170559e-07
8.826262651e-07
7.479915747e-07
6.430015719e-07
5.704751928e-07
5.294266601e-07
5.071428741e-07
4.98213285e-07
4.998246139e-07
5.099896315e-07
5.279689109e-07
5.545206779e-07
5.918047636e-07
6.446275432e-07
7.195193253e-07
8.263018504e-07
9.791504274e-07
1.199797694e-06
1.52104804e-06
2.00176704e-06
2.751507872e-06
3.98877212e-06
6.168943386e-06
1.02716966e-05
1.844353488e-05
3.543471832e-05
7.185553898e-05
0.0001516655185
0.0003295649793
0.0007316483706
0.001165747457
0.001165947923
0.001165667286
0.001164732172
0.001164399224
0.001164370697
0.0011644491
0.001164552954
0.001164652593
0.001164740606
0.001164818854
0.001164893108
0.00116497097
0.001165062985
0.001165186204
0.001165355652
0.001165648723
0.0004318479576
0.001344164339
0.001987158056
0.001940072775
0.001406819746
0.0007023081197
0.0003448951312
5.655133921e-05
2.333851155e-06
1.063413638e-06
9.059790545e-07
8.279716436e-07
7.691162392e-07
7.467244902e-07
7.656582386e-07
6.471088395e-07
5.554832663e-07
4.931202875e-07
4.591878074e-07
4.41903749e-07
4.363479123e-07
4.399380064e-07
4.510741373e-07
4.694895237e-07
4.962183434e-07
5.345548084e-07
5.889760732e-07
6.664277829e-07
7.767648902e-07
9.340572631e-07
1.159166118e-06
1.485972955e-06
1.970502737e-06
2.720663067e-06
3.951702719e-06
6.113334085e-06
1.017257203e-05
1.824385457e-05
3.49935349e-05
7.081237801e-05
0.0001490903823
0.0003230641591
0.0007150983408
0.00116598896
0.001166074283
0.001165728471
0.001164796522
0.001164459347
0.001164419531
0.001164486919
0.001164582078
0.001164675467
0.001164759224
0.001164834682
0.001164907132
0.00116498382
0.001165074991
0.001165197586
0.00116536684
0.001165662101
0.0004250130907
0.001303103303
0.001852093454
0.001684305557
0.001127972073
0.0005208305168
0.0002617361844
3.246385476e-05
1.443695992e-06
9.003775571e-07
7.748701438e-07
7.094684846e-07
6.609631792e-07
6.411680238e-07
6.625431078e-07
5.585844915e-07
4.791741263e-07
4.262599403e-07
3.989099505e-07
3.862684331e-07
3.839228568e-07
3.895807371e-07
4.018333422e-07
4.21411734e-07
4.497622581e-07
4.901076337e-07
5.474371967e-07
6.288521984e-07
7.442834184e-07
9.078601872e-07
1.140477085e-06
1.475721897e-06
1.969314218e-06
2.728163648e-06
3.966800903e-06
6.13477219e-06
1.019843869e-05
1.826637657e-05
3.497887155e-05
7.06367778e-05
0.0001483548968
0.000320581175
0.000707509212
0.001166245605
0.001166212798
0.001165793922
0.001164862616
0.001164522554
0.001164471455
0.001164527312
0.001164613139
0.001164699698
0.001164778741
0.001164851078
0.001164921515
0.001164996929
0.001165087243
0.00116520927
0.001165378357
0.001165675578
0.0004173743237
0.001259277531
0.001700840746
0.001432898044
0.0008350056198
0.0003927214006
0.0001856127083
1.762108117e-05
1.120542625e-06
7.661942495e-07
6.650597217e-07
6.098603763e-07
5.696205e-07
5.522566504e-07
5.718922536e-07
4.811559947e-07
4.129326367e-07
3.688403533e-07
3.476274701e-07
3.393461479e-07
3.400864291e-07
3.47625698e-07
3.618356521e-07
3.831241781e-07
4.135758073e-07
4.567747025e-07
5.179365163e-07
6.043096995e-07
7.25975175e-07
8.972780336e-07
1.139388902e-06
1.48598953e-06
1.9930512e-06
2.767553774e-06
4.025462119e-06
6.220867618e-06
1.032978853e-05
1.847744954e-05
3.532773354e-05
7.12028277e-05
0.0001491948482
0.0003215420256
0.0007076035736
0.001166506546
0.001166356255
0.001165858949
0.001164928895
0.001164587231
0.001164525166
0.001164569337
0.001164645504
0.001164724884
0.001164798914
0.001164867908
0.001164936193
0.001165010271
0.001165099735
0.001165221256
0.001165390206
0.001165689164
0.0004087253446
0.001212277214
0.001539009068
0.001194067272
0.0006057901046
0.0003017717219
0.000122616069
1.195573325e-05
9.200330494e-07
6.540643175e-07
5.723672823e-07
5.254710558e-07
4.91929842e-07
4.768582884e-07
4.924642003e-07
4.138149581e-07
3.559341572e-07
3.201150712e-07
3.046137445e-07
3.00375582e-07
3.037032598e-07
3.136786634e-07
3.297841089e-07
3.531195812e-07
3.861869464e-07
4.328460081e-07
4.984969881e-07
5.905552906e-07
7.193309149e-07
8.995160303e-07
1.152750537e-06
1.513129345e-06
2.037326469e-06
2.83330119e-06
4.120291846e-06
6.360982055e-06
1.05499175e-05
1.884832118e-05
3.598630863e-05
7.240278487e-05
0.0001513834362
0.0003254519847
0.0007142752259
0.001166763382
0.001166498945
0.001165919721
0.001164994206
0.001164652086
0.00116457958
0.001164612189
0.001164678618
0.001164750667
0.001164819527
0.001164885052
0.001164951106
0.00116502382
0.001165112462
0.001165233546
0.001165402392
0.001165702872
0.0003986907083
0.001161026873
0.00137254604
0.0009562985744
0.0004584677687
0.0002377356522
5.891513044e-05
6.629973737e-06
7.471112997e-07
5.604411935e-07
4.938466723e-07
4.539307174e-07
4.259135089e-07
4.130871368e-07
4.236721635e-07
3.55996492e-07
3.075822803e-07
2.793801734e-07
2.69038613e-07
2.681060211e-07
2.74328656e-07
2.86392975e-07
3.044578971e-07
3.301211311e-07
3.662052666e-07
4.167765681e-07
4.874006824e-07
5.856942798e-07
7.222711918e-07
9.122780891e-07
1.177979362e-06
1.554149753e-06
2.098548615e-06
2.920910265e-06
4.245368433e-06
6.546775721e-06
1.084604808e-05
1.935750851e-05
3.691516564e-05
7.415883761e-05
0.0001547584695
0.0003319593747
0.0007267402433
0.00116700998
0.001166636602
0.001165973289
0.001165057719
0.001164716123
0.001164633828
0.00116465521
0.001164712022
0.001164776746
0.001164840396
0.001164902405
0.001164966203
0.001165037556
0.001165125422
0.001165246136
0.001165414916
0.001165716709
0.000386917823
0.001103076191
0.00120012059
0.0007259533048
0.0003590133836
0.0001856609748
3.029648982e-05
3.417260429e-06
6.088946356e-07
4.821083997e-07
4.275808257e-07
3.935600049e-07
3.701329495e-07
3.593851457e-07
3.646411344e-07
3.067607727e-07
2.668985607e-07
2.455903544e-07
2.397984351e-07
2.419732304e-07
2.506102356e-07
2.646220475e-07
2.847608343e-07
3.130123155e-07
3.524361474e-07
4.072601919e-07
4.832164502e-07
5.881630372e-07
7.330838958e-07
9.336671268e-07
1.212927521e-06
1.606544898e-06
2.1736982e-06
3.02660519e-06
4.395754565e-06
6.77138687e-06
1.120784033e-05
1.998790903e-05
3.808333787e-05
7.641048839e-05
0.0001591946861
0.0003407936376
0.0007443965229
0.001167242103
0.001166766192
0.001166017489
0.001165118866
0.001164778599
0.001164687241
0.001164697876
0.001164745339
0.001164802869
0.001164861363
0.001164919878
0.001164981438
0.00116505146
0.001165138613
0.001165259025
0.001165427779
0.001165730682
0.0003738158276
0.001037349842
0.001025316865
0.0005477211473
0.0002800392421
0.0001389871578
1.842312394e-05
1.88115821e-06
5.028644264e-07
4.152328293e-07
3.7181994e-07
3.425459311e-07
3.22731256e-07
3.13741928e-07
3.138003221e-07
2.647341681e-07
2.326863716e-07
2.176283575e-07
2.154556228e-07
2.208026063e-07
2.315178444e-07
2.474447547e-07
2.698101611e-07
3.00882845e-07
3.438946244e-07
4.032152153e-07
4.847599128e-07
5.966676033e-07
7.503470856e-07
9.620984367e-07
1.255874727e-06
1.668204761e-06
2.260236984e-06
3.147233281e-06
4.567381842e-06
7.029272309e-06
1.162714042e-05
2.072636367e-05
3.946750932e-05
7.911295575e-05
0.0001646004888
0.0003517584726
0.0007668091357
0.001167457046
0.001166885697
0.001166050834
0.001165177281
0.001164838989
0.001164739321
0.001164739785
0.001164778276
0.001164828835
0.001164882301
0.001164937399
0.001164996776
0.00116506552
0.001165152032
0.00116527221
0.00116544098
0.001165744796
0.0003603846928
0.000965973744
0.000835315696
0.0004244973769
0.0002287275391
0.0001016911688
1.295334197e-05
1.09079953e-06
4.194766374e-07
3.57561745e-07
3.225990419e-07
2.982423108e-07
2.814984128e-07
2.742096315e-07
2.697379715e-07
2.288445488e-07
2.040517172e-07
1.946288923e-07
1.959410647e-07
2.036960217e-07
2.162904139e-07
2.341700394e-07
2.589168634e-07
2.929940119e-07
3.397635471e-07
4.037371969e-07
4.910386737e-07
6.101214065e-07
7.728613804e-07
9.962289549e-07
1.305101635e-06
1.737337318e-06
2.356017716e-06
3.280148071e-06
4.756879378e-06
7.315926931e-06
1.209747989e-05
2.156269888e-05
4.105007842e-05
8.223309132e-05
0.0001709090612
0.0003647120802
0.0007936657253
0.001167653295
0.001166993901
0.001166074479
0.001165232753
0.001164896941
0.001164789716
0.001164780641
0.001164810608
0.001164854488
0.001164903111
0.001164954908
0.001165012186
0.001165079724
0.001165165679
0.001165285688
0.001165454523
0.001165759054
0.0003471791346
0.0008870065113
0.0006819683068
0.0003518130279
0.0001947362971
5.743851779e-05
8.623759508e-06
6.884752274e-07
3.533858486e-07
3.077597576e-07
2.794751153e-07
2.592748368e-07
2.457072666e-07
2.40063899e-07
2.318746758e-07
1.985211242e-07
1.803840306e-07
1.755464529e-07
1.802083777e-07
1.899816009e-07
2.04362013e-07
2.24264819e-07
2.515175998e-07
2.887168583e-07
3.39338837e-07
4.080485408e-07
5.012015637e-07
6.275925636e-07
7.995972375e-07
1.034906242e-06
1.359406766e-06
1.812419435e-06
2.459230542e-06
3.423143526e-06
4.961481438e-06
7.627736954e-06
1.261381905e-05
2.248924427e-05
4.281819665e-05
8.574737169e-05
0.0001780740234
0.0003795575276
0.0008247547851
0.001167830223
0.001167090084
0.001166096254
0.001165285183
0.001164952243
0.00116483819
0.001164820236
0.00116484217
0.001164879711
0.001164923712
0.001164972358
0.001165027645
0.001165094064
0.00116517955
0.001165299459
0.001165468419
0.001165773456
0.0003367273045
0.0007993645823
0.0005597567073
0.0002960288942
0.0001639893657
3.209701671e-05
4.157561067e-06
4.719817455e-07
3.00611116e-07
2.655958977e-07
2.425567913e-07
2.256668304e-07
2.146431085e-07
2.106870984e-07
1.995831737e-07
1.731658247e-07
1.610741029e-07
1.60530887e-07
1.676177775e-07
1.791577298e-07
1.952969133e-07
2.17287974e-07
2.471218699e-07
2.874956327e-07
3.420025035e-07
4.154736829e-07
5.145128153e-07
6.482769443e-07
8.296686261e-07
1.077151355e-06
1.417674575e-06
1.892168628e-06
2.568367247e-06
3.574403827e-06
5.178950318e-06
7.961851641e-06
1.317231835e-05
2.350039934e-05
4.476290162e-05
8.964008319e-05
0.0001860654943
0.0003962339728
0.0008599457208
0.001167987849
0.001167173562
0.001166116309
0.00116533456
0.001165004787
0.001164884603
0.001164858433
0.00116487285
0.001164904416
0.001164944048
0.001164989716
0.001165043135
0.001165108534
0.001165193645
0.001165313522
0.001165482677
0.001165788
0.0003323062896
0.0007059385417
0.000467807696
0.0002504303564
0.0001345020513
1.935202444e-05
2.014170382e-06
3.467273554e-07
2.572263205e-07
2.295139884e-07
2.105938304e-07
1.964754211e-07
1.875127028e-07
1.851071187e-07
1.721656265e-07
1.522427368e-07
1.452703844e-07
1.486458889e-07
1.576879017e-07
1.708329772e-07
1.887224058e-07
2.128362004e-07
2.452751492e-07
2.888251855e-07
3.472030826e-07
4.254164155e-07
5.30327589e-07
6.714741122e-07
8.623115692e-07
1.122103514e-06
1.478965123e-06
1.975518523e-06
2.682190265e-06
3.732460845e-06
5.407513301e-06
8.316081988e-06
1.377016258e-05
2.459230632e-05
4.687846907e-05
9.390197084e-05
0.0001948671646
0.0004147101477
0.0008991740603
0.001168126654
0.001167244041
0.001166134771
0.001165380934
0.001165054545
0.001164928884
0.001164895151
0.001164902571
0.001164928545
0.001164964075
0.001165006953
0.001165058643
0.001165123126
0.001165207961
0.001165327879
0.001165497298
0.001165802685
0.0003370044216
0.0006114126143
0.0003856331923
0.0002167315042
0.0001075444301
1.285971357e-05
9.95138088e-07
2.70650892e-07
2.205717871e-07
1.982213874e-07
1.827036074e-07
1.710549369e-07
1.639723309e-07
1.630065162e-07
1.492961519e-07
1.354261453e-07
1.33250255e-07
1.393822494e-07
1.500217183e-07
1.646640447e-07
1.842943781e-07
2.105341601e-07
2.455632539e-07
2.92256864e-07
3.544573583e-07
4.373573386e-07
5.480878265e-07
6.965831104e-07
8.968746598e-07
1.169068649e-06
1.542502636e-06
2.061600912e-06
2.799705594e-06
3.896154333e-06
5.645803661e-06
8.688809646e-06
1.440541119e-05
2.576258623e-05
4.916191444e-05
9.852923973e-05
0.0002044741942
0.0004349797664
0.000942431164
0.001168247429
0.001167301512
0.001166151754
0.001165424395
0.001165101548
0.00116497102
0.001164930352
0.001164931293
0.001164952059
0.001164983765
0.001165024052
0.001165074156
0.001165137838
0.001165222499
0.001165342536
0.001165512248
0.001165817505
0.0003521476166
0.0005241357222
0.0003322698105
0.0001956964267
6.354423957e-05
9.125910306e-06
5.215174797e-07
2.202550833e-07
1.896495777e-07
1.714425393e-07
1.58781621e-07
1.493187653e-07
1.439261658e-07
1.443090398e-07
1.306954052e-07
1.223168016e-07
1.240948068e-07
1.322491614e-07
1.442454667e-07
1.603241242e-07
1.816836817e-07
2.100298027e-07
2.476083452e-07
2.973867986e-07
3.633348669e-07
4.508385332e-07
5.673083402e-07
7.230903971e-07
9.328152867e-07
1.217466673e-06
1.607661687e-06
2.149728534e-06
2.920140205e-06
4.064601009e-06
5.892816113e-06
9.078917771e-06
1.507688158e-05
2.701012459e-05
5.161256914e-05
0.000103522665
0.0002148912727
0.000457057208
0.0009897547642
0.00116835114
0.001167346168
0.001166167363
0.001165465064
0.001165145866
0.001165011033
0.00116496403
0.001164958995
0.001164974937
0.0011650031
0.001165040999
0.001165089669
0.001165152666
0.001165237258
0.001165357491
0.001165527498
0.001165832451
0.0003756743193
0.0004939668976
0.0002937392401
0.0001782146305
3.440528129e-05
3.817383078e-06
3.042407186e-07
1.847413335e-07
1.639889044e-07
1.489860982e-07
1.386281826e-07
1.310055479e-07
1.271173637e-07
1.286146926e-07
1.15898047e-07
1.121855648e-07
1.171582403e-07
1.268137219e-07
1.400366564e-07
1.575251937e-07
1.805954154e-07
2.110093122e-07
2.510768046e-07
3.038594294e-07
3.734605278e-07
4.654666498e-07
5.875792203e-07
7.50570173e-07
9.696914219e-07
1.26683632e-06
1.673955168e-06
2.239376745e-06
3.042916202e-06
4.237159333e-06
6.147858655e-06
9.485722384e-06
1.57840442e-05
2.833489703e-05
5.423176501e-05
0.0001088869797
0.000226131354
0.0004809748143
0.001041223367
0.001168438856
0.001167378333
0.001166181696
0.001165503079
0.001165187598
0.001165048976
0.001164996206
0.001164985678
0.001164997171
0.001165022069
0.001165057786
0.001165105174
0.001165167605
0.001165252236
0.001165372734
0.001165543032
0.001165847513
0.000404094656
0.0004377072651
0.0002679570758
0.0001603526544
1.889603386e-05
1.474780837e-06
2.059525572e-07
1.579251572e-07
1.425669284e-07
1.300890091e-07
1.215645829e-07
1.155373835e-07
1.13021417e-07
1.143321717e-07
1.043658685e-07
1.04775462e-07
1.11896565e-07
1.227462066e-07
1.371397001e-07
1.560201162e-07
1.807676264e-07
2.131925977e-07
2.556713189e-07
3.113619946e-07
3.845094649e-07
4.809074085e-07
6.085587862e-07
7.786749373e-07
1.007149567e-06
1.316816325e-06
1.741009305e-06
2.330151089e-06
3.16760908e-06
4.413375606e-06
6.410481071e-06
9.908872864e-06
1.652687355e-05
2.973772717e-05
5.702240839e-05
0.0001146300717
0.0002382140583
0.0005067795298
0.001096948634
0.001168511679
0.0011673984
0.001166194843
0.001165538586
0.00116522686
0.001165084919
0.001165026914
0.001165011354
0.001165018762
0.001165040667
0.001165074408
0.001165120667
0.001165182654
0.00116526743
0.001165388251
0.00116555882
0.001165862682
0.0004385597028
0.0004091779734
0.0002572674614
0.0001399512131
1.114392977e-05
5.386918757e-07
1.600421628e-07
1.36340349e-07
1.243074758e-07
1.139138253e-07
1.069991546e-07
1.024348865e-07
1.009836833e-07
1.008413637e-07
9.562356811e-08
9.93233988e-08
1.079285368e-07
1.198155135e-07
1.353496922e-07
1.555920734e-07
1.819656394e-07
2.163294078e-07
2.61129218e-07
3.19624005e-07
3.962063938e-07
4.968840391e-07
6.299710675e-07
8.071312338e-07
1.044919325e-06
1.367138422e-06
1.808555079e-06
2.421776929e-06
3.293935207e-06
4.592968381e-06
6.680454524e-06
1.034832271e-05
1.730580136e-05
3.122020169e-05
5.998880905e-05
0.0001207626112
0.0002511648243
0.0005345308378
0.001157067664
0.001168570708
0.001167406785
0.001166206891
0.001165571735
0.001165263774
0.001165118945
0.0011650562
0.001165036046
0.001165039716
0.001165058897
0.001165090862
0.001165136144
0.001165197807
0.001165282835
0.001165404024
0.001165574807
0.001165877952
0.0004762216604
0.0004018663477
0.0002558411543
9.595077824e-05
5.671072306e-06
2.214437307e-07
1.34060037e-07
1.182449156e-07
1.085515023e-07
1.001683277e-07
9.453161392e-08
9.118246944e-08
9.079856996e-08
9.025800194e-08
8.922295367e-08
9.526009388e-08
1.050004196e-07
1.17844014e-07
1.344853159e-07
1.560428464e-07
1.839768822e-07
2.201972167e-07
2.672223198e-07
3.284160471e-07
4.08323995e-07
5.13174514e-07
6.516018066e-07
8.357343729e-07
1.082806433e-06
1.417618716e-06
1.876417746e-06
2.514086783e-06
3.42173623e-06
4.775808628e-06
6.957745199e-06
1.080429163e-05
1.812165648e-05
3.278456359e-05
6.313646969e-05
0.0001272976077
0.0002650139332
0.0005642985854
0.001169727531
0.001168617019
0.001167403882
0.001166217922
0.001165602674
0.00116529847
0.001165151142
0.001165084118
0.001165059782
0.001165060047
0.001165076761
0.001165107147
0.001165151601
0.001165213063
0.001165298445
0.001165420026
0.001165590933
0.001165893313
0.000533199567
0.0004109226476
0.0002599420637
4.740876683e-05
1.561648109e-06
1.380781118e-07
1.155493257e-07
1.032342274e-07
9.533210588e-08
8.83742094e-08
8.387809126e-08
8.170894495e-08
8.238516719e-08
8.232543066e-08
8.468212735e-08
9.230138022e-08
1.029324423e-07
1.166790948e-07
1.343824189e-07
1.571954977e-07
1.86615807e-07
2.24605789e-07
2.737595442e-07
3.375495891e-07
4.206793272e-07
5.29603976e-07
6.73286203e-07
8.643309443e-07
1.12066948e-06
1.468127948e-06
1.944479753e-06
2.606974679e-06
3.550923017e-06
4.961850337e-06
7.242425731e-06
1.127714669e-05
1.897549362e-05
3.443344567e-05
6.647164271e-05
0.0001342496266
0.0002797950528
0.0005961601832
0.001169806948
0.001168651654
0.001167390035
0.001166228015
0.001165631547
0.001165331073
0.0011651816
0.001165110723
0.001165082593
0.00116507977
0.001165094264
0.001165123262
0.001165167034
0.001165228415
0.001165314249
0.001165436221
0.00116560723
0.001165908737
0.0005892930621
0.0004112193292
0.0002578536553
2.253741186e-05
3.82360758e-07
1.128040535e-07
1.010173243e-07
9.081650377e-08
8.412998295e-08
7.838879997e-08
7.495467041e-08
7.392083282e-08
7.562405686e-08
7.666327263e-08
8.150540365e-08
9.017869105e-08
1.015737244e-07
1.161764424e-07
1.348881679e-07
1.588907113e-07
1.897201591e-07
2.293931371e-07
2.805822942e-07
3.46872328e-07
4.331288658e-07
5.460396289e-07
6.949035976e-07
8.928134125e-07
1.158414574e-06
1.518586266e-06
2.01267558e-06
2.700390811e-06
3.681469641e-06
5.151122721e-06
7.534663668e-06
1.176738317e-05
1.986855747e-05
3.616979699e-05
7.00011669e-05
0.0001416344128
0.0002955443605
0.0006301986489
0.001169871871
0.001168675623
0.001167365496
0.001166237242
0.001165658491
0.001165361706
0.001165210408
0.001165136075
0.001165104514
0.001165098902
0.001165111415
0.001165139209
0.001165182438
0.001165243858
0.001165330234
0.001165452578
0.001165623783
0.001165924179
0.0006450564271
0.0004069905369
0.0002461148267
1.136485612e-05
1.496985918e-07
9.808914957e-08
8.889954405e-08
8.041630527e-08
7.469901728e-08
7.00013306e-08
6.758292945e-08
6.765302508e-08
7.033160731e-08
7.277556461e-08
7.927542512e-08
8.870191482e-08
1.00792343e-07
1.162027841e-07
1.358653325e-07
1.609898626e-07
1.931526049e-07
2.344262273e-07
2.87564533e-07
3.562678327e-07
4.455679361e-07
5.623904118e-07
7.163778606e-07
9.211217561e-07
1.195998892e-06
1.568969264e-06
2.081000872e-06
2.794354209e-06
3.813430146e-06
5.343751609e-06
7.834748271e-06
1.227565764e-05
2.080232248e-05
3.799692398e-05
7.37324881e-05
0.0001494688202
0.0003123001797
0.0006665013919
0.001169923503
0.001168689911
0.001167330406
0.00116624567
0.001165683633
0.001165390488
0.001165237653
0.001165160231
0.001165125579
0.001165117461
0.001165128219
0.001165154986
0.00116519781
0.001165259387
0.001165346385
0.001165469077
0.001165640594
0.001165939604
0.0006792235588
0.0004018201637
0.0002216766012
6.764689135e-06
1.133606769e-07
8.619847257e-08
7.874246518e-08
7.164093512e-08
6.673164722e-08
6.298270782e-08
6.158058671e-08
6.272199784e-08
6.629564006e-08
7.015303381e-08
7.770538149e-08
8.773595467e-08
1.004730978e-07
1.166415073e-07
1.371963654e-07
1.633767048e-07
1.968001816e-07
2.395977844e-07
2.946066904e-07
3.656460569e-07
4.579173792e-07
5.785892166e-07
7.376547499e-07
9.492152939e-07
1.23339613e-06
1.619265977e-06
2.149461467e-06
2.888890954e-06
3.946863086e-06
5.539865604e-06
8.142969266e-06
1.280262151e-05
2.177824669e-05
3.991809797e-05
7.767299004e-05
0.0001577696119
0.0003301007321
0.0007051558277
0.001169962939
0.001168695497
0.001167294848
0.001166253363
0.001165707095
0.001165417529
0.001165263421
0.001165183247
0.001165145821
0.001165135467
0.001165144685
0.001165170593
0.001165213143
0.001165274993
0.001165362681
0.001165485697
0.001165657655
0.001165954976
0.0006774200122
0.0004028972504
0.0001862344034
2.662011779e-06
9.40520368e-08
7.633602313e-08
7.017516186e-08
6.419442551e-08
5.999315596e-08
5.715978394e-08
5.678956092e-08
5.893421287e-08
6.326728041e-08
6.837130127e-08
7.661323974e-08
8.717285795e-08
1.005132719e-07
1.173902109e-07
1.387810365e-07
1.659552197e-07
2.005729768e-07
2.448260172e-07
3.016367989e-07
3.749461084e-07
4.701284055e-07
5.946000658e-07
7.587117611e-07
9.770855135e-07
1.270612525e-06
1.669498393e-06
2.218096766e-06
2.98406183e-06
4.08186382e-06
5.739633501e-06
8.459660228e-06
1.334897174e-05
2.279782919e-05
4.193661247e-05
8.183002202e-05
0.0001665533614
0.0003489836574
0.0007462478099
0.001169991171
0.001168692955
0.001167261439
0.001166260377
0.001165728987
0.001165442933
0.001165287789
0.001165205177
0.001165165275
0.001165152936
0.001165160821
0.00116518603
0.001165228431
0.001165290668
0.0011653791
0.001165502419
0.001165674955
0.00116597024
0.0006708192268
0.0004072413049
0.0001015148261
9.166289085e-07
8.116726534e-08
6.817017021e-08
6.297182497e-08
5.789596706e-08
5.433835809e-08
5.241855009e-08
5.30649769e-08
5.609336349e-08
6.085335576e-08
6.714168836e-08
7.588482206e-08
8.692606749e-08
1.008274357e-07
1.183647515e-07
1.405381979e-07
1.686487639e-07
2.044005018e-07
2.500478711e-07
3.086003453e-07
3.841226468e-07
4.821655002e-07
6.103975103e-07
7.79533822e-07
1.004727915e-06
1.307654457e-06
1.719684258e-06
2.286936848e-06
3.079912369e-06
4.218505455e-06
5.943192059e-06
8.785104677e-06
1.391531806e-05
2.386240519e-05
4.405543817e-05
8.621027929e-05
0.0001758352825
0.000368983714
0.0007898569686
0.001170009113
0.001168682701
0.001167230037
0.001166266765
0.001165749412
0.001165466797
0.001165310833
0.001165226073
0.001165183972
0.001165169887
0.001165176632
0.001165201294
0.001165243669
0.0011653064
0.001165395616
0.001165519222
0.001165692475
0.001165985355
0.0006583625485
0.00040807897
5.640691232e-05
3.505388689e-07
7.164017684e-08
6.138993045e-08
5.690188994e-08
5.2565652e-08
4.963308487e-08
4.864159228e-08
5.023711546e-08
5.399705114e-08
5.925749819e-08
6.62853003e-08
7.54362952e-08
8.692078221e-08
1.01342519e-07
1.194951086e-07
1.424023378e-07
1.713976134e-07
2.08230415e-07
2.552191764e-07
3.154620946e-07
3.931498785e-07
4.940128037e-07
6.259758475e-07
8.001256168e-07
1.032157886e-06
1.34454837e-06
1.769861722e-06
2.356032628e-06
3.176509499e-06
4.356882987e-06
6.150698749e-06
9.119599322e-06
1.450225954e-05
2.49732371e-05
4.62773219e-05
9.08198684e-05
0.0001856291241
0.0003901320966
0.0008360543913
0.001170017611
0.001168665079
0.001167200512
0.001166272576
0.001165768465
0.001165489213
0.001165332623
0.001165245983
0.001165201943
0.001165186335
0.001165192124
0.001165216382
0.001165258847
0.001165322177
0.001165412199
0.001165536093
0.001165710188
0.001166000282
0.0006397172109
0.0003990204942
2.767271095e-05
1.585053908e-07
6.407092345e-08
5.578119107e-08
5.181772065e-08
4.808242398e-08
4.577991684e-08
4.570952524e-08
4.812973955e-08
5.246328196e-08
5.818670715e-08
6.569527142e-08
7.520275517e-08
8.709586652e-08
1.020001917e-07
1.207270532e-07
1.443245411e-07
1.741593728e-07
2.120279985e-07
2.603135248e-07
3.22204565e-07