/*--------------------------------*- C++ -*----------------------------------*\
  =========                 |
  \\      /  F ield         | OpenFOAM: The Open Source CFD Toolbox
   \\    /   O peration     | Website:  https://openfoam.org
    \\  /    A nd           | Version:  12
     \\/     M anipulation  |
\*---------------------------------------------------------------------------*/
FoamFile
{
    format      ascii;
    class       volScalarField;
    location    "800";
    object      k;
}
// * * * * * * * * * * * * * * * * * * * * * * * * * * * * * * * * * * * * * //

dimensions      [0 2 -2 0 0 0 0];

internalField   nonuniform List<scalar> 
16200
(
443.6891199
507.713502
463.1771759
420.134422
364.2475377
279.1055926
158.1931465
47.23567349
5.580675001
0.1982988954
0.002182758943
0.001017538177
0.0009713204305
0.0009459351424
0.0009318079545
0.0009234461874
0.0009180214476
0.0009147852991
0.0009131436352
0.0009126159172
0.0009129546619
0.0009140144269
0.000915703131
0.0009179684462
0.0009207854375
0.000924145431
0.0009280456586
0.0009324776964
0.000937414373
0.000942795274
0.0009485131042
0.0009544078191
0.0009602770608
0.0009659049647
0.0009710986541
0.0009757154457
0.0009796727578
0.0009829425775
0.0009855382111
0.0009874988203
0.0009888746115
0.0009897118035
0.000990037903
0.0009898415598
0.000989023148
0.0009872647925
0.0009849250599
0.0009838862667
0.0009834770488
0.0009833439485
0.0009833398887
0.0009834119815
0.0009835521005
0.0009837766738
0.0009841201633
0.0009846371759
0.0009854091767
0.0009865656711
0.0009883193361
0.0009910933679
464.0960703
525.019816
471.7975493
419.8973531
352.4971854
252.2811067
121.373543
27.86379685
2.323550797
0.05362088965
0.001173221889
0.001000544359
0.0009591948178
0.000936059288
0.0009232289311
0.0009157538383
0.0009109913396
0.0009082748312
0.0009070709324
0.000906933044
0.0009076375852
0.0009090575635
0.0009111153472
0.0009137699038
0.0009170046396
0.0009208158825
0.0009252012932
0.000930146157
0.0009356076589
0.0009414988234
0.0009476771424
0.0009539468622
0.0009600811848
0.0009658599569
0.0009711067391
0.0009757084603
0.0009796147221
0.0009828239254
0.0009853661315
0.0009872881976
0.0009886417591
0.0009894719606
0.0009898062545
0.0009896409928
0.0009889055033
0.0009873414299
0.0009850041943
0.0009839602087
0.0009835539032
0.000983427594
0.0009834316394
0.0009835116051
0.0009836583286
0.000983887332
0.000984232388
0.0009847472956
0.0009855139447
0.0009866634792
0.0009884174332
0.0009912326658
483.9308211
540.7648363
478.2068593
416.5188024
335.7279341
219.87908
85.8486559
14.60515507
0.8200309771
0.01240340351
0.001066216263
0.0009858910151
0.0009484010529
0.0009273653447
0.000915768456
0.0009091333779
0.0009050106779
0.0009028054137
0.0009020396002
0.000902299153
0.0009033834313
0.0009051830541
0.0009076345296
0.000910708078
0.0009143952035
0.0009186959042
0.0009236047561
0.0009290941893
0.0009350960164
0.000941485424
0.000948075805
0.0009546339153
0.0009609157096
0.0009667100718
0.0009718710919
0.0009763260547
0.0009800628804
0.000983108782
0.0009855107852
0.0009873224627
0.0009885953388
0.0009893713317
0.0009896746446
0.0009895036226
0.0009888083083
0.0009873970824
0.0009850821187
0.0009840375164
0.0009836338246
0.0009835126038
0.0009835229883
0.0009836094757
0.0009837620001
0.0009839952371
0.0009843421969
0.000984855934
0.0009856184413
0.0009867623687
0.0009885168564
0.0009913696157
502.4349827
553.6554548
481.4934585
408.7400794
312.7816698
181.9399903
55.26089502
6.744303681
0.2471967362
0.002813613934
0.001035365995
0.0009728725762
0.000938940426
0.0009198938733
0.0009094783736
0.0009036402427
0.0009001344503
0.0008984300102
0.0008981002168
0.0008987627664
0.0009002395308
0.0009024381977
0.0009053090797
0.0009088328073
0.0009130067453
0.0009178300999
0.0009232872078
0.0009293278419
0.0009358470613
0.0009426726834
0.0009495717177
0.0009562817939
0.0009625582936
0.0009682173183
0.0009731568805
0.0009773508854
0.0009808260284
0.0009836356357
0.0009858401485
0.0009874965604
0.0009886536287
0.0009893477782
0.0009895974895
0.0009893986934
0.0009887130136
0.0009873981277
0.0009851384476
0.000984105527
0.0009837087459
0.0009835937607
0.0009836105532
0.0009837034206
0.0009838617515
0.0009840995442
0.0009844490988
0.0009849627912
0.000985722573
0.0009868624063
0.0009886181089
0.0009915057211
519.4438413
563.966914
481.6519786
396.9743648
285.1288392
141.7008892
32.29357356
2.852804019
0.06801393703
0.001287246192
0.001016514833
0.000961462176
0.000930832137
0.0009136664202
0.0009043852031
0.0008993104386
0.0008964071674
0.0008952012324
0.0008953131452
0.0008963921
0.0008982824648
0.0009009085278
0.0009042333038
0.0009082452467
0.0009129429823
0.0009183180973
0.0009243354445
0.0009309107168
0.0009378910192
0.0009450512459
0.0009521175426
0.0009588150241
0.0009649197077
0.0009702924956
0.0009748846801
0.000978718215
0.0009818551181
0.0009843697345
0.0009863312193
0.000987796451
0.0009888089861
0.0009893980731
0.0009895748995
0.0009893301002
0.0009886301898
0.0009873644979
0.0009851825634
0.0009841690455
0.0009837813977
0.0009836728018
0.0009836955536
0.0009837943544
0.0009839582933
0.0009842008018
0.0009845535095
0.0009850681542
0.000985826534
0.0009869637407
0.0009887213856
0.0009916410532
534.4370927
571.6147095
478.4540193
380.1123587
251.3705629
102.4302689
18.23912233
1.150486142
0.01874554719
0.001122340676
0.001000987552
0.0009516799265
0.0009241212718
0.0009087323056
0.0009005377164
0.0008961945726
0.0008938805526
0.0008931725374
0.0008937345539
0.0008952470205
0.0008975759777
0.0009006603696
0.0009044728761
0.0009090053416
0.0009142516315
0.0009201876257
0.0009267479737
0.0009338021931
0.0009411410549
0.0009484887524
0.0009555460334
0.000962048981
0.0009678161974
0.0009727666837
0.0009769082709
0.0009803070914
0.0009830535513
0.0009852361029
0.0009869272279
0.0009881801093
0.0009890309588
0.0009895006563
0.0009895922628
0.0009892894584
0.0009885594577
0.0009873123219
0.0009852124948
0.0009842265936
0.0009838508461
0.0009837492269
0.0009837777952
0.0009838822822
0.0009840517488
0.0009842991862
0.0009846556158
0.0009851721797
0.0009859304564
0.0009870664914
0.0009888269085
0.0009917759966
547.1015873
576.8772917
472.0466638
357.1179212
211.0158472
68.5914652
9.685233319
0.4525751208
0.00538782654
0.001076480165
0.0009876352536
0.0009435034726
0.0009188040309
0.0009050948693
0.0008979438903
0.0008943091539
0.0008925789768
0.000892375757
0.000893402566
0.000895369753
0.0008981630873
0.0009017334795
0.0009060598626
0.000911132775
0.0009169344593
0.0009234151602
0.000930466797
0.0009379017857
0.0009454528231
0.0009528060582
0.0009596608716
0.0009657898814
0.0009710719413
0.0009754903521
0.0009791063649
0.000982022386
0.000984348498
0.0009861800239
0.0009875877564
0.0009886181873
0.000989298627
0.0009896409361
0.0009896398146
0.0009892711817
0.0009885003325
0.0009872569981
0.0009852311243
0.0009842791838
0.0009839175013
0.0009838233025
0.0009838575454
0.0009839675002
0.0009841424312
0.0009843950025
0.0009847556925
0.0009852750878
0.0009860345045
0.0009871707797
0.0009889348294
0.0009919107449
557.19634
579.6565794
462.0426475
328.6242437
167.2949817
41.55442862
4.837705788
0.181291285
0.002152919695
0.001052250298
0.0009763208726
0.0009369015262
0.0009148591842
0.0009027383202
0.0008965915725
0.0008936483065
0.0008925004279
0.0008928105285
0.0008943161138
0.0008967562279
0.0009000345936
0.000904111602
0.0009089686086
0.0009145885862
0.0009209324727
0.0009279120465
0.0009353638991
0.0009430380569
0.0009506180754
0.0009577751592
0.0009642356865
0.0009698310982
0.0009745105107
0.0009783200418
0.0009813660678
0.0009837770207
0.0009856735835
0.0009871513129
0.0009882751606
0.000989082723
0.0009895914798
0.0009898040973
0.0009897071339
0.0009892685447
0.0009884495052
0.000987197354
0.0009852399286
0.0009843270649
0.000983981321
0.0009838950092
0.0009839348834
0.0009840501793
0.0009842305713
0.0009844885056
0.0009848539857
0.0009853770866
0.0009861388379
0.0009872767192
0.0009890452761
0.0009920454955
564.5848942
579.4555845
446.3204962
293.2204865
123.9582163
24.08401374
2.344665898
0.0790219257
0.001597085943
0.001034031226
0.000966941267
0.0009318183279
0.0009122415069
0.0009016189399
0.0008964345047
0.0008941653161
0.0008935964894
0.0008944264785
0.0008964232054
0.0008993533152
0.0009031360286
0.0009077371643
0.000913134139
0.0009192930215
0.0009261409726
0.0009335379342
0.0009412570548
0.0009489909264
0.0009563945261
0.0009631537324
0.0009690485429
0.0009739838059
0.000977980019
0.0009811381481
0.0009835982685
0.0009855040563
0.0009869785522
0.000988112153
0.000988960959
0.0009895523334
0.0009898935907
0.0009899784203
0.0009897857771
0.0009892759176
0.0009884041735
0.0009871323652
0.0009852410915
0.0009843708748
0.0009840424695
0.000983964434
0.0009840099421
0.0009841305171
0.0009843164133
0.0009845799583
0.000984950749
0.0009854783924
0.000986243621
0.0009873844195
0.000989158344
0.0009921803925
569.5269171
576.4109315
424.3843579
250.3863342
84.4930896
13.66333863
1.116239575
0.03645830324
0.001410295319
0.001018817488
0.0009593239137
0.0009281343283
0.0009108510718
0.0009016448927
0.0008973841919
0.0008957768465
0.0008957882668
0.0008971490452
0.0008996534354
0.0009030935407
0.0009073997504
0.0009125369338
0.0009184696782
0.0009251357063
0.0009324155788
0.0009401074397
0.0009479216987
0.0009555102439
0.0009625285887
0.0009687072458
0.000973899362
0.000978088018
0.0009813583407
0.0009838539692
0.0009857362684
0.0009871542548
0.000988226623
0.0009890347006
0.0009896238713
0.0009900107076
0.0009901925131
0.0009901545006
0.0009898687547
0.0009892884321
0.0009883618121
0.0009870609454
0.0009852365041
0.000984411168
0.0009841010846
0.0009840316486
0.0009840828389
0.0009842086949
0.0009844001871
0.0009846696131
0.0009850462292
0.0009855792198
0.0009863490179
0.0009874939853
0.0009892741048
0.0009923155538
572.1727397
570.4967188
396.3856771
202.7684636
52.4698689
7.456052417
0.5346368569
0.01833662661
0.001330465349
0.001006083452
0.0009533397735
0.0009257501163
0.0009106012461
0.0009027368842
0.0008993666597
0.000898415948
0.0008990144014
0.0009009205082
0.0009039499002
0.0009079166472
0.0009127566924
0.0009184264081
0.0009248672681
0.0009319761531
0.0009395760798
0.0009474005592
0.0009551090698
0.0009623394664
0.000968779782
0.0009742294512
0.0009786241572
0.000982020774
0.0009845568068
0.0009864047105
0.0009877354941
0.0009886953728
0.0009893938084
0.0009899006039
0.0009902495669
0.0009904465484
0.0009904793559
0.0009903254061
0.0009899507371
0.0009893022116
0.0009883203852
0.0009869821582
0.0009852279468
0.0009844485275
0.000984157351
0.0009840967576
0.0009841537076
0.0009842848985
0.0009844821205
0.0009847577178
0.0009851406695
0.0009856797813
0.0009864551906
0.0009876055147
0.0009893926071
0.000992451066
572.4996427
561.044909
361.7812791
154.7261274
32.53473684
4.01903991
0.2629174279
0.009893267871
0.001242401748
0.0009955494008
0.000948879495
0.0009245912429
0.0009114323485
0.0009048423649
0.0009023329313
0.0009020364304
0.0009032285711
0.0009056913036
0.0009092564412
0.0009137557799
0.0009191242071
0.0009253009249
0.0009321927842
0.0009396437289
0.0009474128865
0.0009551763452
0.0009625656483
0.0009692367037
0.0009749385306
0.000979553988
0.0009831002318
0.0009856965104
0.000987517805
0.0009887519767
0.0009895699179
0.0009901090177
0.0009904663799
0.0009906990765
0.0009908292666
0.0009908525995
0.0009907481331
0.0009904862617
0.0009900278135
0.0009893142585
0.0009882783014
0.0009868952324
0.0009852169168
0.0009844834828
0.0009842114627
0.0009841598819
0.0009842226904
0.0009843593141
0.0009845624362
0.0009848445136
0.0009852343064
0.0009857802851
0.0009865622976
0.0009877190981
0.0009895138794
0.0009925869907
570.5540264
547.1794353
318.4281616
109.7440408
20.48492188
2.217474382
0.1361033602
0.005931243662
0.0011682054
0.0009870725606
0.0009458595193
0.0009245988261
0.0009132943308
0.0009079128532
0.0009062326356
0.0009065849976
0.0009083727031
0.0009113970406
0.0009155006661
0.0009205272989
0.000926401787
0.000933035213
0.0009402881583
0.0009479432811
0.0009556979393
0.0009631892886
0.000970052047
0.0009759914773
0.0009808372521
0.0009845589575
0.0009872456264
0.0009890635567
0.000990210194
0.0009908772769
0.0009912282025
0.0009913875846
0.0009914385521
0.0009914252079
0.0009913585489
0.0009912248279
0.0009909952239
0.000990633907
0.0009900972929
0.0009893223681
0.000988234387
0.0009867995963
0.0009852046443
0.000984516512
0.0009842636238
0.0009842211605
0.0009842899408
0.0009844321303
0.0009846413534
0.000984930235
0.0009853273696
0.0009858809334
0.0009866704919
0.0009878348178
0.0009896379319
0.0009927233661
566.6421552
527.8222033
268.1243845
73.87830443
12.06383628
1.208087291
0.07229183839
0.003779496597
0.001110034109
0.000979904183
0.0009441832483
0.0009256977466
0.0009161183321
0.0009118802443
0.0009109977162
0.0009119935898
0.0009143775582
0.0009179648745
0.0009226027423
0.0009281387985
0.0009344768456
0.0009414877075
0.0009489760835
0.000956662895
0.0009641973163
0.0009712054954
0.0009773584902
0.0009824353036
0.0009863544023
0.0009891654229
0.0009910143088
0.0009920981278
0.0009926234822
0.000992777045
0.0009927097329
0.000992531225
0.000992310227
0.0009920783172
0.0009918361677
0.0009915615912
0.0009912187979
0.0009907665093
0.0009901574559
0.0009893249913
0.000988187817
0.0009866948682
0.0009851920901
0.000984548029
0.0009843140395
0.0009842807455
0.0009843556208
0.000984503537
0.0009847190869
0.0009850151091
0.0009854200808
0.0009859819213
0.0009867799197
0.0009879527476
0.0009897647581
0.0009928602088
561.391175
501.8460755
216.1233306
48.6802163
7.281729298
0.6761862873
0.03919984214
0.002541553614
0.001067565345
0.0009743545162
0.0009436397658
0.0009277884888
0.0009198209867
0.0009166725783
0.0009165655828
0.00091820479
0.0009211858094
0.0009253315982
0.0009304869483
0.0009364944637
0.000943225748
0.0009505004134
0.0009580629402
0.0009655823318
0.0009726844914
0.000979017028
0.0009843154899
0.0009884460126
0.0009914128266
0.0009933319711
0.0009943892839
0.0009947976157
0.0009947621023
0.0009944581065
0.0009940211782
0.0009935453
0.0009930851313
0.0009926606008
0.0009922630797
0.0009918629454
0.00099141833
0.0009908832298
0.0009902073333
0.0009893211073
0.0009881380498
0.0009865839328
0.0009851799793
0.0009845783873
0.0009843629114
0.0009843387978
0.0009844198981
0.0009845737237
0.0009847958464
0.0009850993549
0.0009855126523
0.0009860834352
0.0009868907189
0.000988072952
0.0009898943366
0.0009929975162
555.3867495
465.9446448
168.1799817
34.42738716
4.624005252
0.3889422292
0.02180136798
0.001864348966
0.001039455564
0.000970532014
0.0009442289793
0.0009307963883
0.0009243676525
0.0009222594479
0.000922905847
0.0009251828798
0.0009287521625
0.0009334379539
0.0009390747184
0.0009454888539
0.0009525084662
0.0009598966143
0.0009673425595
0.0009744834169
0.0009809537476
0.0009864529666
0.0009907989304
0.0009939464666
0.000995974088
0.0009970471882
0.0009973751283
0.0009971741853
0.000996640354
0.0009959338705
0.0009951736938
0.0009944383437
0.0009937693355
0.000993176055
0.0009926416609
0.0009921300782
0.0009915941955
0.0009909839377
0.000990246509
0.0009893101035
0.0009880845923
0.0009864793678
0.0009851688387
0.000984607884
0.0009844104352
0.0009843954835
0.0009844829442
0.0009846428786
0.0009848718353
0.0009851831826
0.0009856052871
0.0009861856519
0.0009870030179
0.0009881954853
0.0009900266337
0.0009931352671
549.5831332
418.5828569
126.6902503
23.8057694
2.918286712
0.2250076062
0.01232090653
0.001483049109
0.001020844279
0.0009683526539
0.000945946809
0.0009347228762
0.0009297301913
0.0009286172678
0.0009299888037
0.0009328893929
0.0009370264633
0.0009422166241
0.0009482742759
0.0009549977077
0.0009621639943
0.0009694826765
0.0009766048731
0.0009831631861
0.0009888324728
0.0009933860795
0.0009967299363
0.0009988993262
0.001000030798
0.001000321775
0.0009999911395
0.0009992493635
0.0009982783692
0.0009972214083
0.0009961808264
0.0009952205582
0.0009943701641
0.0009936296797
0.0009929751213
0.0009923648795
0.0009917473572
0.0009910689855
0.0009902749613
0.0009892916835
0.0009880264934
0.0009863816864
0.000985159036
0.0009846367682
0.0009844567978
0.0009844509706
0.0009845449308
0.0009847111863
0.00098494725
0.0009852667927
0.0009856981769
0.0009862887374
0.0009871169341
0.000988320391
0.0009901616015
0.0009932734239
545.4671084
361.6849524
92.89426843
15.92460192
1.813370195
0.1277466159
0.00693972994
0.001262282589
0.001008688888
0.0009676801682
0.0009487307231
0.0009395322301
0.0009358765762
0.0009357101844
0.000937780696
0.000941284393
0.00094595411
0.000951588799
0.0009579737407
0.0009648717934
0.0009720098789
0.0009790563764
0.0009856494202
0.0009914473018
0.00099618949
0.0009997340469
0.00100207028
0.001003299395
0.001003598383
0.00100318125
0.001002265562
0.001001049775
0.000999699078
0.0009983393253
0.000997057019
0.000995902748
0.0009948954224
0.0009940269079
0.0009932670792
0.0009925696235
0.0009918791285
0.0009911390339
0.0009902929349
0.0009892658119
0.00098796303
0.0009862910916
0.0009851508167
0.0009846652484
0.000984502177
0.0009845054258
0.0009846060284
0.0009847788266
0.0009850222789
0.0009853503756
0.0009857915022
0.0009863928456
0.0009872325734
0.0009884477017
0.0009902991756
0.0009934119329
544.051691
300.0014707
66.05054537
10.80458503
1.127427898
0.07114657364
0.00398638688
0.001143087051
0.001001450905
0.0009684296145
0.0009525491121
0.0009452095352
0.0009428022099
0.0009435287597
0.0009462617298
0.0009503278224
0.0009554659287
0.0009614504267
0.0009680322969
0.0009749370868
0.0009818506969
0.0009884209421
0.0009943004936
0.0009992002877
0.001002937924
0.001005455966
0.001006815127
0.0010071653
0.001006707501
0.001005659904
0.001004231149
0.001002604042
0.001000926096
0.0009993063239
0.000997816618
0.0009964956174
0.0009953528842
0.0009943732224
0.0009935212708
0.0009927467454
0.0009919910046
0.0009911949254
0.0009903008444
0.0009892326358
0.0009878936754
0.0009862075697
0.0009851443348
0.0009846935004
0.0009845467408
0.0009845590127
0.0009846664034
0.000984845973
0.0009850971013
0.0009854341105
0.0009858854315
0.0009864981184
0.0009873500296
0.0009885774375
0.0009904392688
0.0009935507256
544.7465629
238.5474199
50.39948643
7.65394877
0.6951087171
0.03810576205
0.0024243354
0.001081856036
0.000997719748
0.0009705517856
0.000957408452
0.0009517668738
0.0009505113063
0.000952056963
0.0009553913455
0.0009599478358
0.0009654563319
0.0009716618112
0.000978280645
0.0009850040646
0.0009914931671
0.0009974002397
0.001002418513
0.001006329663
0.00100903256
0.001010545454
0.001010984587
0.001010531534
0.001009397612
0.001007796088
0.001005921927
0.001003940648
0.001001982324
0.00100014028
0.0009984732464
0.0009970093272
0.0009957499655
0.0009946739075
0.000993741355
0.0009928986894
0.0009920845421
0.0009912375909
0.0009902992022
0.0009891924235
0.0009878180588
0.0009861309615
0.000985139678
0.0009847216728
0.0009845906471
0.0009846118897
0.0009847262172
0.0009849127917
0.000985171887
0.0009855181653
0.0009859801206
0.0009866046842
0.0009874693831
0.0009887096038
0.0009905817728
0.0009936897196
545.2927184
182.6866459
39.21374864
5.431694143
0.4132112292
0.01899568272
0.001633553324
0.001051842816
0.0009965838697
0.0009739913836
0.0009632849922
0.0009591746872
0.000958957095
0.0009612244204
0.0009650787427
0.0009700284757
0.0009757838287
0.0009820574673
0.0009885349794
0.0009948837931
0.001000761737
0.001005851064
0.001009905545
0.001012784835
0.001014463957
0.001015022578
0.001014615723
0.001013441838
0.001011712114
0.001009628924
0.001007371087
0.001005086621
0.00100288914
0.001000857732
0.0009990394656
0.0009974532564
0.0009960935449
0.0009949339067
0.0009939307987
0.0009930278133
0.0009921612827
0.0009912679891
0.0009902885705
0.0009891455228
0.0009877359264
0.0009860610177
0.0009851368881
0.0009847498934
0.0009846340435
0.0009846642086
0.0009847856243
0.0009849794405
0.0009852467955
0.0009856026958
0.0009860757118
0.0009867126573
0.0009875906996
0.0009888441884
0.0009907265707
0.0009938288191
545.7922971
144.4294135
30.48706041
3.754864671
0.226937424
0.008624056868
0.00127087938
0.001038233144
0.0009974466723
0.0009786263374
0.0009700824774
0.0009673394223
0.0009680331933
0.0009709212723
0.0009752018315
0.0009804297916
0.0009862890309
0.0009924617625
0.0009986124709
0.001004402675
0.001009510614
0.001013669654
0.001016705001
0.001018552045
0.001019250645
0.001018925649
0.001017755551
0.001015943994
0.001013694828
0.0010111961
0.001008609679
0.001006066786
0.001003665969
0.001001473627
0.0009995266157
0.0009978358898
0.0009963898757
0.0009951577474
0.0009940928103
0.0009931363305
0.0009922227029
0.0009912870645
0.0009902695261
0.0009890923304
0.0009876470989
0.0009859974371
0.0009851359748
0.0009847782722
0.0009846770679
0.0009847161139
0.0009848447713
0.0009850460678
0.0009853219751
0.0009856878453
0.0009861723338
0.0009868221374
0.0009877140289
0.0009889811613
0.0009908735301
0.0009939679169
544.1752787
124.2543264
24.80994428
2.513270796
0.110476538
0.003661510638
0.001132865249
0.001032834498
0.0009999160831
0.000984316152
0.0009776903143
0.0009761471431
0.0009776280542
0.0009810337483
0.0009856328119
0.0009910042033
0.0009968058711
0.001002698995
0.001008342618
0.001013413283
0.001017630868
0.001020792981
0.001022797649
0.001023646917
0.001023430795
0.001022303846
0.001020455451
0.001018086038
0.001015387665
0.00101253254
0.001009665901
0.001006903417
0.001004330122
0.00100200125
0.0009999447783
0.0009981647911
0.0009966445591
0.0009953495131
0.0009942303099
0.0009932262799
0.0009922701852
0.0009912957221
0.0009902426391
0.000989033275
0.0009875514308
0.0009859398948
0.0009851369273
0.0009848069054
0.0009847198482
0.0009847677412
0.0009849037963
0.0009851128123
0.0009853975628
0.0009857737441
0.0009862701009
0.000986933209
0.0009878394047
0.0009891204744
0.0009910224956
0.0009941068966
538.7256279
115.6948699
20.45169848
1.562618327
0.04380642248
0.001739421978
0.001091566176
0.001031342898
0.00100376494
0.0009909839535
0.0009860080341
0.000985501618
0.0009876495736
0.0009914520369
0.0009962382859
0.00100159598
0.001007165601
0.001012602129
0.001017577445
0.001021802571
0.001025053536
0.001027196246
0.001028195331
0.001028106451
0.001027054792
0.001025211446
0.00102276723
0.001019913868
0.001016829322
0.001013669784
0.001010564868
0.001007616186
0.001004896825
0.001002452276
0.001000302825
0.0009984466386
0.0009968625645
0.0009955128494
0.0009943459253
0.0009932995161
0.0009923050061
0.0009912948146
0.00099020846
0.0009889688095
0.0009874487706
0.0009858880605
0.0009851397213
0.0009848358769
0.0009847625023
0.0009848192177
0.0009849628279
0.000985179802
0.0009854736839
0.0009858605091
0.0009863691123
0.0009870459401
0.0009879668428
0.0009892620601
0.0009911732913
0.0009942456323
528.4129004
114.7670173
16.65994934
0.8971322328
0.0139680178
0.001248089298
0.001080711149
0.001032208366
0.001008922453
0.0009984991141
0.0009949530424
0.0009953259114
0.0009979975239
0.0010020512
0.001006868577
0.001012040677
0.001017203792
0.001022023184
0.001026200709
0.001029496207
0.001031748105
0.001032886892
0.00103293289
0.001031981259
0.001030179003
0.001027703468
0.001024740437
0.001021469779
0.001018054602
0.00101463576
0.001011328606
0.001008222256
0.001005379337
0.001002836874
0.001000608503
0.0009986872835
0.0009970482671
0.0009956509854
0.000994442002
0.0009933577108
0.0009923283321
0.0009912851372
0.0009901675142
0.0009888994129
0.000987338923
0.0009858416112
0.0009851443247
0.0009848652608
0.0009848051385
0.0009848706605
0.0009850219846
0.0009852471539
0.0009855504505
0.0009859482425
0.0009864694512
0.0009871603814
0.00098809634
0.0009894058293
0.0009913257468
0.0009943839835
513.2221845
107.3110457
12.71025634
0.4652602425
0.003863603251
0.001170408029
0.001076552911
0.001034821742
0.001015149298
0.00100676734
0.001004432104
0.001005507465
0.001008538159
0.001012679514
0.001017359164
0.001022174333
0.001026772022
0.001030843365
0.001034133339
0.001036458042
0.00103771713
0.001037896762
0.001037060188
0.001035328926
0.001032861016
0.001029832702
0.001026420741
0.001022791738
0.001019094212
0.001015454839
0.001011976213
0.001008736468
0.001005789117
0.001003163847
0.001000868533
0.0009988918251
0.0009972054982
0.0009957667653
0.0009945206205
0.0009934023609
0.0009923412225
0.0009912674257
0.0009901202965
0.0009888255962
0.000987221607
0.0009858002369
0.0009851507008
0.0009848951219
0.0009848478553
0.0009849221771
0.0009850813743
0.0009853149731
0.000985627962
0.0009860370322
0.0009865711845
0.0009872765657
0.0009882278733
0.000989551674
0.0009914797087
0.000994521794
493.37685
95.75290987
9.013808634
0.2087825912
0.001692221989
0.001154440106
0.001074789757
0.001038857094
0.001022294283
0.001015649468
0.001014302915
0.001015894269
0.001019109682
0.001023169858
0.001027545157
0.001031847673
0.001035749288
0.001038979467
0.001041333867
0.001042685566
0.00104298877
0.00104227409
0.001040635187
0.001038208942
0.001035156407
0.001031647934
0.001027849152
0.001023913195
0.001019974875
0.001016148075
0.001012524126
0.001009171578
0.001006136025
0.001003440784
0.001001088735
0.0009990646938
0.0009973376029
0.0009958626865
0.0009945836208
0.0009934348029
0.0009923446368
0.0009912423619
0.0009900672704
0.0009887479192
0.0009870964151
0.0009857636453
0.0009851588101
0.0009849255166
0.0009848907415
0.0009849738648
0.0009851410942
0.000985383353
0.0009857063042
0.0009861269505
0.0009866743619
0.0009873945071
0.0009883613991
0.0009896994702
0.0009916349986
0.0009946588995
469.458152
82.02750225
5.965917489
0.09049245963
0.001426616955
0.001143841708
0.001075057395
0.00104408894
0.001030175841
0.001024978086
0.001024400067
0.001026318405
0.001029543634
0.001033359333
0.001037278716
0.001040939755
0.00104405052
0.00104638644
0.001047795682
0.001048203678
0.001047609519
0.001046076886
0.001043718926
0.001040679414
0.001037116934
0.001033193172
0.001029061883
0.001024863274
0.001020719653
0.001016733547
0.001012986433
0.00100953852
0.001006428525
0.001003674222
0.001001274135
0.0009992097351
0.0009974474994
0.0009959409402
0.0009946326283
0.0009934562294
0.0009923394449
0.0009912105791
0.0009900088663
0.0009886670143
0.0009869779855
0.0009857315631
0.000985168612
0.0009849564937
0.0009849338766
0.0009850258105
0.0009852012304
0.0009854523745
0.000985785549
0.000986218054
0.0009867790155
0.0009875142
0.0009884968521
0.0009898490755
0.0009917914038
0.0009947951297
441.6708136
68.48480145
3.813645958
0.04016030762
0.001318832162
0.001136749142
0.001077027428
0.001050286569
0.001038603
0.001034575867
0.001034550339
0.001036609642
0.001039677682
0.001043101171
0.001046438455
0.00104936324
0.001051626796
0.001053052964
0.001053539377
0.001053055928
0.001051636173
0.001049366604
0.001046371149
0.001042794438
0.001038789197
0.001034507154
0.001030090333
0.001025666983
0.001021348238
0.001017226654
0.001013375126
0.001009846617
0.001006673854
0.001003869769
0.001001429065
0.0009993302781
0.0009975377268
0.0009960034447
0.0009946690769
0.0009934677035
0.0009923264361
0.0009911726686
0.0009899454786
0.0009885829767
0.0009868697621
0.0009857037356
0.0009851800647
0.0009849880947
0.0009849773302
0.0009850780907
0.0009852618571
0.0009855221053
0.0009858657534
0.0009863103823
0.0009868851586
0.000987635618
0.0009886341444
0.0009900003274
0.0009919486973
0.0009949303038
409.7879545
55.50261325
2.434501906
0.01537884783
0.001268932817
0.001132550012
0.001080406605
0.001057229412
0.001047385261
0.001044263965
0.001044581871
0.001046605977
0.001049366547
0.001052274511
0.001054935781
0.001057066223
0.001058462693
0.001058995423
0.001058605212
0.001057297258
0.00105512992
0.00105220402
0.001048647842
0.001044602915
0.001040214304
0.001035623487
0.001030961448
0.001026345646
0.001021877368
0.001017640472
0.001013700404
0.001010103817
0.001006878203
0.00100403224
0.001001557262
0.0009994292104
0.0009976105002
0.0009960518838
0.0009946942357
0.0009934701778
0.0009923063326
0.0009911291913
0.0009898774914
0.0009884957355
0.0009867710496
0.0009856799263
0.000985193126
0.0009850203534
0.0009850211624
0.0009851307707
0.0009853230365
0.0009855926
0.0009859469593
0.000986403958
0.0009869927851
0.0009877587132
0.0009887731651
0.0009901530428
0.0009921066362
0.0009950642348
373.8065202
43.67855697
1.495147097
0.006515393892
0.001243588724
0.001130687137
0.001084887687
0.001064688559
0.001056329002
0.001053866221
0.001054333186
0.001056164938
0.00105849299
0.001060792877
0.001062719104
0.001064032035
0.001064572543
0.001064252179
0.001063047109
0.001060988938
0.00105815275
0.001054647123
0.001050600322
0.001046148455
0.001041428224
0.00103657121
0.001031698323
0.001026917458
0.001022321297
0.001017986145
0.00101397097
0.001010316921
0.00100704689
0.001004165792
0.001001661968
0.0009995090463
0.0009976677584
0.0009960877411
0.0009947092316
0.0009934645082
0.0009922797977
0.000991080684
0.0009898052869
0.0009884051751
0.0009866812117
0.0009856599149
0.0009852077527
0.0009850532968
0.0009850654237
0.0009851839052
0.0009853848188
0.0009856638991
0.0009860291927
0.0009864987854
0.0009871018686
0.0009878834152
0.0009889137794
0.0009903070189
0.0009922649618
0.0009951967342
334.7346245
32.87522521
0.8567598433
0.003223092655
0.00122842725
0.001130705348
0.001090190241
0.001072446095
0.001065248927
0.001063218623
0.001063662465
0.001065171531
0.00106697307
0.001068605391
0.00106977094
0.001070273163
0.001069992659
0.001068875675
0.001066925856
0.001064193495
0.001060764076
0.001056749201
0.001052274396
0.001047469208
0.001042461993
0.001037375154
0.001032320606
0.00102739786
0.00102269212
0.001018273138
0.00101419424
0.001010491745
0.001007184481
0.00100427401
0.001001745991
0.0009995719793
0.0009977112036
0.0009961123284
0.0009947150708
0.0009934514704
0.0009922474482
0.0009910276708
0.0009897292601
0.0009883111035
0.0009865996682
0.0009856434962
0.0009852239007
0.0009850869443
0.0009851101544
0.0009852375369
0.0009854472407
0.0009857360281
0.0009861124623
0.0009865948491
0.0009872123611
0.0009880096288
0.0009890558273
0.0009904620315
0.0009924233982
0.000995327607
293.3547043