/*--------------------------------*- C++ -*----------------------------------*\
  =========                 |
  \\      /  F ield         | OpenFOAM: The Open Source CFD Toolbox
   \\    /   O peration     | Website:  https://openfoam.org
    \\  /    A nd           | Version:  12
     \\/     M anipulation  |
\*---------------------------------------------------------------------------*/
FoamFile
{
    format      ascii;
    class       volScalarField;
    location    "800";
    object      Ma;
}
// * * * * * * * * * * * * * * * * * * * * * * * * * * * * * * * * * * * * * //

dimensions      [];

internalField   nonuniform List<scalar> 
16200
(
0.5335650431
0.6362174531
0.6941260897
0.7400152424
0.7831007318
0.8289321349
0.8795198411
0.9258025348
0.942655603
0.9431201348
0.9420068539
0.9409542876
0.939657868
0.9382285814
0.9365494263
0.9346264314
0.9323863487
0.9297893287
0.9267668904
0.923252815
0.9191675967
0.9144254414
0.9089326499
0.9025910522
0.8953026353
0.8869775739
0.8775471143
0.8669823136
0.8553192878
0.8426880192
0.8293357198
0.8156287095
0.802018784
0.7889765925
0.7769152224
0.7661333511
0.756793505
0.7489317533
0.7424847987
0.737322013
0.7332750383
0.7301624051
0.7278075821
0.7260508748
0.7247553926
0.7238088887
0.7231223002
0.7226269484
0.7222709498
0.7220157925
0.721833216
0.7217026582
0.7216092273
0.7215420475
0.7214933135
0.7214568459
0.7214295171
0.7214070029
0.7213891353
0.7213669548
0.5461369812
0.6521105709
0.7118381084
0.7592378992
0.8041437325
0.8524451708
0.9047989439
0.9447414527
0.9543365369
0.9540413568
0.9528626204
0.9517237255
0.9503293966
0.948782887
0.9469618112
0.9448671211
0.9424210203
0.9395761121
0.9362574093
0.932389756
0.9278849753
0.9226474421
0.9165739462
0.909557377
0.9014930862
0.8922894737
0.8818852508
0.8702740732
0.8575359679
0.8438688855
0.8296051111
0.8151927068
0.8011345361
0.7879030676
0.7758658094
0.765247947
0.7561353754
0.7485029383
0.7422496104
0.7372292745
0.7332742192
0.7302121906
0.7278786542
0.7261248794
0.7248224681
0.7238648651
0.7231664497
0.722660301
0.7222952687
0.7220329583
0.7218449448
0.7217103933
0.7216141094
0.7215450065
0.7214949276
0.7214577694
0.7214296917
0.721407086
0.7213889221
0.721365338
0.5583544963
0.667662698
0.7292333878
0.7782517235
0.8251636569
0.8758241434
0.9289419046
0.9596726285
0.9640260251
0.9631935759
0.9619427336
0.9607037967
0.959183461
0.9574870462
0.9554885865
0.9531823179
0.9504863415
0.9473448592
0.9436759833
0.9393948308
0.9344036154
0.9285958092
0.9218575548
0.9140722756
0.9051299279
0.8949419808
0.8834648424
0.8707315501
0.8568887059
0.8422260922
0.8271766853
0.812268305
0.7980338535
0.7849160037
0.7732064184
0.7630357224
0.7544025455
0.7472174358
0.7413423647
0.7366179694
0.7328798425
0.7299680504
0.727733405
0.7260417428
0.7247766599
0.723840529
0.723153925
0.7226539616
0.7222919892
0.7220310868
0.7218436637
0.7217093334
0.7216131365
0.7215441077
0.7214941079
0.7214571351
0.7214290846
0.7214067502
0.721388901
0.7213654338
0.5697167135
0.6820538351
0.7453362007
0.7961492028
0.8454152971
0.8981915067
0.9492024582
0.9700860535
0.9713349208
0.9703389675
0.9690043032
0.9676505042
0.9659923748
0.9641297127
0.9619341801
0.9593912899
0.9564146962
0.9529389593
0.9488743695
0.9441253441
0.9385835513
0.9321310332
0.9246436978
0.9159981453
0.9060852379
0.8948308065
0.8822260099
0.8683658569
0.8534882619
0.8379926796
0.8224118349
0.8073284214
0.7932646321
0.7805928918
0.769501793
0.7600169158
0.7520517567
0.7454607794
0.7400781049
0.7357386827
0.7322868755
0.729578964
0.7274840604
0.7258850435
0.7246796461
0.7237810426
0.7231175737
0.722631659
0.7222781332
0.7220222871
0.7218378997
0.7217054127
0.7216103692
0.7215420984
0.7214926284
0.7214560881
0.7214282569
0.7214062199
0.7213886658
0.7213649989
0.5801981553
0.6953892917
0.760297508
0.812917838
0.8647399903
0.9196147439
0.964069994
0.9766772784
0.9764956903
0.9754035086
0.9739600366
0.9724693947
0.9706494933
0.9685916604
0.9661665078
0.9633491775
0.9600486081
0.9561886196
0.9516705915
0.9463871468
0.9402185867
0.9330359102
0.9247072959
0.9151083913
0.9041410742
0.8917607315
0.8780142353
0.8630839465
0.8473216771
0.8312433748
0.8154626246
0.8005758187
0.7870471427
0.7751426528
0.7649310453
0.7563331294
0.7491873058
0.7433046218
0.7385023137
0.734617362
0.7315076734
0.7290485337
0.7271291257
0.7256507352
0.7245264725
0.7236815022
0.7230530298
0.7225897536
0.7222508044
0.7220043355
0.7218259952
0.7216974295
0.7216049569
0.7215383953
0.7214900958
0.721454387
0.7214270779
0.7214054657
0.7213883549
0.7213646889
0.5894701265
0.7073453089
0.7738147563
0.8282927639
0.8826802263
0.9390995282
0.9741109803
0.9804663039
0.9793916417
0.9782225949
0.9766531649
0.975008144
0.9730078717
0.9707313171
0.9680488085
0.9649232439
0.9612579272
0.9569647073
0.9519350551
0.9460496499
0.9391783794
0.9311841683
0.9219329328
0.9113081809
0.899235951
0.8857200957
0.8708880372
0.8550350875
0.8386405201
0.8223246019
0.8067419758
0.7924496009
0.7798078455
0.7689513211
0.7598255046
0.7522576098
0.7460276997
0.7409193095
0.7367448033
0.7333508343
0.7306130035
0.7284275139
0.7267043968
0.7253637072
0.7243342476
0.7235535627
0.7229681805
0.7225335546
0.7222135601
0.7219796034
0.7218095213
0.7216864154
0.7215975682
0.7215334276
0.7214867729
0.7214521951
0.7214256216
0.7214045235
0.7213879205
0.7213642497
0.5973321381
0.7178409914
0.7859066516
0.8424888356
0.899473477
0.9549602875
0.9798918745
0.9825477819
0.9801175887
0.9788279595
0.9771161628
0.9752942711
0.9730883428
0.9705616417
0.9675846954
0.9641069333
0.9600255843
0.955240476
0.9496335062
0.9430748171
0.9354262409
0.9265467651
0.9163067447
0.9046084531
0.891419066
0.8768148552
0.8610311312
0.8444955748
0.8278109263
0.8116669843
0.796704081
0.7833857332
0.7719342116
0.7623434667
0.7544456285
0.7479932475
0.7427277511
0.7384210921
0.7348915651
0.7320016896
0.729647611
0.7277472785
0.7262314369
0.7250384902
0.7241125798
0.7234034656
0.7228670124
0.722465567
0.7221679487
0.7219490306
0.7217890365
0.7216726935
0.7215883836
0.7215272918
0.721482706
0.7214495359
0.721423895
0.7214034047
0.7213873879
0.7213637652
0.6036660052
0.7268405615
0.7966921147
0.8557234895
0.915332905
0.9656351978
0.9817609719
0.9802216004
0.9787376576
0.9773220988
0.9754435236
0.9734144502
0.9709697716
0.9681544641
0.9648397689
0.9609611612
0.9564095864
0.9510731502
0.9448245254
0.9375247096
0.9290301675
0.9192014636
0.9079232186
0.8951324427
0.880860551
0.8652842085
0.8487702149
0.8318824276
0.815319534
0.7997864648
0.7858485841
0.7738317311
0.7638029762
0.7556222926
0.749028408
0.743722213
0.7394262795
0.7359151745
0.7330218378
0.7306290748
0.7286551077
0.7270395132
0.7257328993
0.7246910182
0.7238725027
0.7232387398
0.7227545937
0.7223891591
0.7221161808
0.721914049
0.7217654549
0.7216568373
0.7215777552
0.7215201989
0.721478016
0.7214464772
0.7214219278
0.7214021251
0.7213867548
0.721363204
0.608425945
0.7342884849
0.8062767581
0.8679888725
0.9296378438
0.9715857851
0.9782711148
0.9771868531
0.9753850095
0.9738018021
0.9717361811
0.969473664
0.9667608907
0.9636224304
0.9599300744
0.9556048122
0.9505305943
0.9445839642
0.9376289374
0.9295199454
0.9201134096
0.9092812166
0.896937555
0.8830758146
0.8678184626
0.8514682043
0.8345341406
0.8176976788
0.8017036258
0.7872078208
0.7746469134
0.7641824214
0.7557275938
0.7490278864
0.7437542307
0.739579258
0.7362242148
0.7334775537
0.7311930148
0.7292762409
0.7276678345
0.7263281043
0.7252261574
0.724333718
0.723622755
0.7230654295
0.7226350387
0.7223070885
0.7220600761
0.7218758397
0.7217395291
0.721639316
0.7215659683
0.7215123162
0.7214727966
0.7214430697
0.7214197418
0.7214006962
0.7213860289
0.7213625763
0.6118322835
0.7405588718
0.8149868057
0.8794163339
0.9410065069
0.9729924579
0.9735731346
0.9720855794
0.9702092681
0.9684383209
0.9661623638
0.9636370608
0.9606225623
0.9571214601
0.9530054252
0.9481807926
0.9425241522
0.9359017789
0.9281715216
0.919186618
0.9088122805
0.8969453206
0.8835487203
0.8686969254
0.8526293944
0.8357910309
0.8188243702
0.802486473
0.787504012
0.7744220742
0.7635113415
0.754762758
0.7479528303
0.7427398228
0.7387537955
0.7356601778
0.7331928924
0.7311622743
0.7294465469
0.7279751084
0.7267102667
0.7256316142
0.7247250779
0.7239767703
0.7233706785
0.7228887362
0.7225119695
0.7222218355
0.7220013046
0.7218355079
0.7217119767
0.7216205851
0.7215533043
0.7215038121
0.7214671441
0.721439366
0.7214173605
0.7213991295
0.7213852135
0.7213618781
0.6140224328
0.7458992044
0.823083661
0.8904505523
0.9481960805
0.967519826
0.9669645198
0.9653915387
0.9633611322
0.9613734545
0.9588588371
0.9560362965
0.9526803705
0.9487708565
0.9441787459
0.9387966355
0.9324946444
0.9251318128
0.9165643627
0.9066518954
0.8952796236
0.8823855286
0.8680034108
0.8523144949
0.8356957974
0.8187345954
0.8021748237
0.7867888523
0.7732181565
0.7618490941
0.7527704833
0.7458150743
0.740650309
0.7368773736
0.7341102842
0.7320243408
0.730376182
0.7290029061
0.7278087827
0.7267465968
0.7257989867
0.7249630418
0.7242396792
0.7236277461
0.7231218786
0.722712727
0.7223882801
0.722135421
0.7219412517
0.7217939847
0.7216834108
0.7216010387
0.7215400097
0.721494835
0.7214611441
0.721435413
0.7214148054
0.7213974362
0.7213843131
0.7213611102
0.6150233761
0.7504770447
0.8305448887
0.9005390602
0.9511769096
0.9608462598
0.958838786
0.9571447198
0.9549427691
0.9527101725
0.9499255601
0.9467687413
0.9430292162
0.9386644058
0.9335444434
0.9275499578
0.9205461187
0.9123884555
0.9029372171
0.8920678557
0.8796999227
0.865832697
0.8505955514
0.8342996997
0.8174681178
0.8008089829
0.7851137284
0.7711009596
0.7592693405
0.7498194332
0.7426634768
0.7375021434
0.7339263442
0.7315088936
0.7298683597
0.7287024014
0.7277966609
0.727017256
0.7262944307
0.7256030811
0.7249443707
0.7243309426
0.7237768532
0.7232920574
0.7228804984
0.7225404979
0.7222662321
0.7220494619
0.7218810493
0.7217520468
0.7216543522
0.7215810177
0.7215263013
0.7214855179
0.7214548747
0.7214312538
0.7214120966
0.7213956276
0.721383331
0.7213602715
0.6148725303
0.7545291124
0.8376472584
0.9084418144
0.9469303123
0.9517695773
0.9492782259
0.9474739029
0.9450634741
0.9425553705
0.9394682808
0.9359408218
0.9317772283
0.9269134343
0.9212180271
0.9145612943
0.906805292
0.8978070364
0.8874390653
0.8756060031
0.8622807201
0.8475479282
0.8316570779
0.8150630251
0.7984231064
0.782521581
0.7681293384
0.755846082
0.74598917
0.7385692744
0.7333443605
0.7299166802
0.727832967
0.7266621713
0.7260428702
0.7257031564
0.7254607937
0.7252111621
0.7249092652
0.724550272
0.7241518562
0.723740255
0.7233408834
0.722973268
0.7226493962
0.7223742683
0.7221475002
0.7219651899
0.7218215821
0.7217103145
0.721625226
0.721560806
0.7215123628
0.7214759755
0.7214484045
0.7214269271
0.7214092524
0.7213937142
0.7213822702
0.7213593615
0.6137467269
0.7582683146
0.8446596366
0.9133071972
0.9402782648
0.9411742428
0.9384484771
0.9364884988
0.933846487
0.9310375124
0.927617993
0.9236853477
0.9190565905
0.9136474204
0.9073247134
0.8999517768
0.8913922298
0.8815131522
0.8702116512
0.857438708
0.8432426932
0.8278183581
0.8115532003
0.7950422646
0.7790415646
0.7643482668
0.7516432011
0.7413577799
0.7336132283
0.7282463838
0.7248939297
0.7230950228
0.7223807979
0.7223352914
0.7226274539
0.723020112
0.723363832
0.723582094
0.7236527357
0.7235890773
0.7234232464
0.7231931958
0.7229340454
0.7226734866
0.7224303954
0.7222155362
0.7220332662
0.7218835066
0.7217635179
0.7216692698
0.721596371
0.7215406349
0.7214983479
0.7214663061
0.7214417936
0.7214224672
0.7214062901
0.7213917058
0.7213811329
0.7213583798
0.6120578421
0.7619124677
0.851075245
0.9146026242
0.9302099025
0.9293817133
0.9265288414
0.9243630628
0.9214562164
0.9183079079
0.9145104532
0.9101219239
0.9049706903
0.8989556072
0.8919439395
0.8837977456
0.8743891686
0.8636059974
0.8513847388
0.8377428059
0.8228277022
0.8069641103
0.7906812155
0.7746887015
0.7597844074
0.7467079869
0.7359924196
0.7278744112
0.7222867977
0.7189227633
0.7173348075
0.7170314827
0.7175511638
0.718506174
0.7196017541
0.7206368289
0.7214937355
0.7221220137
0.7225200434
0.7227170967
0.7227577724
0.7226900015
0.7225571142
0.7223937059
0.7222245065
0.7220652193
0.7219243067
0.7218050363
0.7217073395
0.7216292736
0.7215680488
0.7215206888
0.721484382
0.7214565919
0.7214350936
0.7214179046
0.7214032256
0.7213896118
0.72137992
0.7213573262
0.610246595
0.7659049326
0.8558603143
0.9098462061
0.9182995498
0.9165495282
0.9135616433
0.9111324268
0.9079186231
0.904383569
0.9001558521
0.8952571134
0.8895266495
0.8828504528
0.8750986235
0.8661379647
0.8558573687
0.8441787658
0.8310971122
0.8167196106
0.8013144943
0.7853445774
0.7694631472
0.7544469287
0.7410675396
0.7299430792
0.7214217933
0.7155433724
0.7120773408
0.7106105007
0.7106469515
0.7116915656
0.7133064936
0.7151403789
0.7169371469
0.7185310945
0.7198342143
0.7208196029
0.721503774
0.7219298145
0.7221529575
0.7222295471
0.7222097989
0.7221341025
0.722032129
0.7219237892
0.7218210789
0.7217301805
0.7216533774
0.7215905854
0.7215404557
0.7215011109
0.7214705662
0.7214469013
0.721428349
0.7214132665
0.721400074
0.7213874404
0.721378629
0.7213562006
0.6087496777
0.769758845
0.8580743967
0.9006776422
0.9048399977
0.9026211386
0.8994733748
0.8967355659
0.8931819957
0.8892241553
0.884526027
0.8790753519
0.8727214094
0.8653412283
0.8568113622
0.8470123663
0.835863258
0.8233392141
0.8095163577
0.7946129234
0.7790287103
0.7633541439
0.7483272689
0.7347292177
0.7232394617
0.7143079927
0.7080854295
0.7044323528
0.7029903498
0.70327793
0.7047816545
0.7070229835
0.7095984986
0.7121970077
0.7146009609
0.7166779533
0.7183669301
0.7196618801
0.7205950952
0.7212214892
0.7216052737
0.7218098246
0.7218910869
0.7218942794
0.7218532195
0.7217913836
0.7217237959
0.721659166
0.7216018402
0.7215533823
0.7215137332
0.7214820096
0.72145698
0.7214372905
0.7214215975
0.7214085767
0.7213968492
0.7213851986
0.7213772463
0.7213550028
0.6083924129
0.7729072245
0.8571792949
0.8899874676
0.8901047354
0.8876222093
0.8842798319
0.881195853
0.8772682056
0.8728485479
0.8676353178
0.8615856132
0.8545596199
0.846432532
0.8370957565
0.8264576675
0.8144850246
0.8012263898
0.786858121
0.7717208924
0.7563405159
0.7414046545
0.7276813991
0.7158904125
0.7065664221
0.6999676797
0.6960560932
0.6945446619
0.6949858759
0.6968643054
0.6996731461
0.7029641964
0.7063742174
0.7096329185
0.7125594271
0.7150518044
0.7170730199
0.7186353304
0.7197846068
0.7205857953
0.7211106255
0.7214283046
0.7215995097
0.721673458
0.7216874271
0.7216679011
0.72163249
0.7215920871
0.7215528423
0.7215177754
0.7214879791
0.7214634647
0.7214436854
0.7214278052
0.7214148714
0.7214038567
0.7213935634
0.7213828896
0.7213757593
0.721353733
0.6099938349
0.7746296021
0.8532336977
0.875872346
0.8742364771
0.8715711387
0.8679772899
0.8644984568
0.8601494897
0.8552165663
0.8494344894
0.8427356487
0.8349952878
0.82609733
0.8159592453
0.8045321112
0.7918465965
0.778040618
0.7634023018
0.7483942398
0.733646626
0.719898253
0.7078857219
0.698209768
0.691227466
0.6870045316
0.6853395128
0.6858358329
0.6879937726
0.6912919933
0.6952475198
0.699450606
0.7035802038
0.7074055496
0.710779613
0.7136277663
0.7159340911
0.717726653
0.7190629134
0.720016267
0.7206646931
0.7210821985
0.7213333401
0.7214706239
0.7215341989
0.7215530759
0.7215470645
0.7215289404
0.7215064261
0.7214838253
0.7214632558
0.7214455329
0.7214307297
0.7214184822
0.7214081982
0.7213991255
0.7213902274
0.7213805147
0.7213742189
0.7213523926
0.6137081994
0.7744002708
0.8439875114
0.860370541
0.8571991538
0.854327659
0.8504344483
0.8465157735
0.8417041302
0.8362180575
0.8298316841
0.8224605939
0.8139998561
0.8043528123
0.7934735349
0.7813693187
0.7681491824
0.7540530413
0.7394848276
0.7250153292
0.7113421454
0.6991990303
0.6892321643
0.6818825828
0.6773184893
0.6754311194
0.6758906742
0.6782292831
0.6819264706
0.6864758302
0.6914291154
0.6964187301
0.7011652115
0.7054746615
0.7092305897
0.7123824941
0.7149328234
0.7169232235
0.7184209899
0.7195065902
0.720263165
0.7207686422
0.7210907349
0.721284635
0.7213928605
0.7214465353
0.721467335
0.7214696533
0.7214625818
0.7214515539
0.7214395988
0.7214282524
0.7214181479
0.7214093514
0.7214016014
0.7213944
0.7213868518
0.7213780823
0.721372607
0.7213509845
0.6186012924
0.7722877941
0.8308410967
0.8429246099
0.8388823593
0.8357835333
0.8315561596
0.8271725817
0.8218792297
0.8158268518
0.8088304183
0.8007973083
0.7916468551
0.7813124935
0.7697965126
0.7571771508
0.7436562065
0.7295835004
0.7154714408
0.7019693174
0.6897920907
0.6796103238
0.6719328521
0.667020901
0.6648627374
0.6652056902
0.6676296482
0.6716296227
0.6766888137
0.6823297598
0.6881447264
0.6938087687
0.6990817426
0.7038032879
0.7078840438
0.7112946041
0.714053288
0.7162133504
0.7178503946
0.7190507815
0.7199018879
0.7204848191
0.7208698333
0.7211142985
0.7212626741
0.7213478437
0.7213930602
0.7214141059
0.721421262
0.721420955
0.7214170229
0.7214116471
0.7214059661
0.7214004364
0.7213951011
0.7213896956
0.7213834464
0.7213756007
0.7213709342
0.7213495125
0.6224260087
0.7681354546
0.816775177
0.8239800096
0.8193618554
0.8159953332
0.8114146489
0.8065498819
0.8007638581
0.7941422394
0.7865405046
0.7778683773
0.7680759711
0.7571402162
0.7451267498
0.7322000843
0.7186647418
0.7049768747
0.6917337227
0.6796188131
0.6693087579
0.6613607422
0.6561178616
0.6536619213
0.653825511
0.6562482899
0.6604556689
0.6659332481
0.6721852072
0.678771271
0.6853261832
0.6915660417
0.6972868286
0.7023581664
0.7067145344
0.7103448492
0.7132810866
0.7155863963
0.7173433803
0.7186432902
0.7195769574
0.7202280388
0.7206688237
0.7209584246
0.7211428811
0.7212565342
0.7213239664
0.7213621484
0.7213823941
0.7213920021
0.7213955276
0.7213957297
0.7213942023
0.7213917564
0.7213887149
0.7213850263
0.7213800208
0.7213730795
0.7213692136
0.7213479791
0.6254306123
0.7615018898
0.7997113277
0.8037638541
0.7987859266
0.7950872489
0.7901319295
0.7847641592
0.7784662312
0.7712675366
0.7630643684
0.7537831974
0.7434155221
0.7319979783
0.7196742719
0.706704922
0.6934954469
0.6805890165
0.6686292453
0.658282433
0.6501358171
0.6445988445
0.6418408155
0.6417813059
0.6441300915
0.64845534
0.6542583895
0.6610359918
0.6683242981
0.6757240017
0.6829116688
0.68964158
0.6957422553
0.7011098007
0.7056994979
0.7095161165
0.7126033605
0.7150328032
0.7168929325
0.7182790438
0.7192847662
0.7199957832
0.7204859842
0.7208158613
0.7210327307
0.7211721322
0.7212597644
0.7213136137
0.7213458892
0.7213646548
0.7213751016
0.721380505
0.721382869
0.7213833268
0.7213824583
0.7213804045
0.7213765844
0.7213705318
0.7213674749
0.7213463824
0.6266606436
0.7522594809
0.7809215378
0.7824571772
0.7772011608
0.773092858
0.7677318414
0.7618324526
0.754998752
0.7472205029
0.7384371281
0.7286081159
0.7177788079
0.7060584083
0.6936771012
0.6809902852
0.6684890717
0.6567711601
0.6464804424
0.6382167001
0.632439701
0.6293958183
0.6290902718
0.6313084769
0.6356726108
0.641711539
0.6489261272
0.6568381665
0.6650217051
0.6731190074
0.6808461678
0.6879921713
0.6944144435
0.7000323011
0.7048191053
0.7087933217
0.7120087247
0.7145440599
0.7164927612
0.7179534566
0.7190220224
0.7197857294
0.7203197054
0.7206855172
0.7209314992
0.72109417
0.7212001619
0.7212683269
0.7213116493
0.7213388641
0.7213557258
0.7213659715
0.7213719743
0.7213751598
0.7213763447
0.721375842
0.721373147
0.7213679763
0.7213657502
0.7213447209
0.6255145509
0.7364936192
0.7603928697
0.7599619972
0.7544826991
0.7498876174
0.7440969365
0.7376584376
0.7302938065
0.7219735837
0.7126836799
0.7024300344
0.6913213999
0.6795465604
0.6674222573
0.6553871521
0.6439916652
0.6338480624
0.6255545467
0.6196047602
0.6163097338
0.6157551783
0.6178045816
0.6221419734
0.6283349004
0.6358990404
0.6443515894
0.6532476788
0.66220143
0.6708951996
0.6790814195
0.6865801153
0.6932741607
0.6991031233
0.7040560541
0.7081632565
0.7114871644
0.7141126379
0.7161372673
0.7176624169
0.7187857499
0.7195957578
0.7201685035
0.7205663737
0.7208385017
0.7210221982
0.7211448723
0.7212261119
0.7212795721
0.7213145755
0.7213373762
0.7213521236
0.7213615229
0.7213672656
0.7213703865
0.7213713494
0.7213697189
0.7213654362
0.7213639889
0.7213430125
0.621671856
0.719601908
0.7380129897
0.7360737712
0.730424528
0.7253233579
0.7191157268
0.7121802403
0.7043431173
0.6955758136
0.6859147363
0.6754226211
0.6642782554
0.6527515802
0.6412381515
0.6302390355
0.6203300262
0.6120960505
0.6060501222
0.6025541357
0.6017660014
0.6036267914
0.6078874402
0.6141630714
0.6219945568
0.6309038791
0.6404354023
0.6501816026
0.6597962858
0.6689991935
0.6775755303
0.6853727886
0.692296125
0.6983027431
0.7033953187
0.7076144076
0.7110299095
0.7137319097
0.7158214921
0.7174022586
0.7185732756
0.7194239489
0.7200310228
0.7204574901
0.7207530984
0.7209557911
0.7210936198
0.7211867963
0.7212495543
0.721291732
0.7213200253
0.7213389523
0.7213515168
0.7213596524
0.7213645944
0.7213669364
0.7213663116
0.7213629275
0.7213621095
0.7213412857
0.6149298532
0.7008255618
0.7138818903
0.7107976756
0.7050038084
0.6994295182
0.6928441517
0.6854858102
0.6772718507
0.6681920151
0.6583384484
0.6478386506
0.6369439512
0.6259999836
0.6154645291
0.6058720766
0.5977861253
0.5917259978
0.5880911414
0.5871013875
0.5887712077
0.5929214869
0.599221475
0.6072462404
0.616531793
0.6266197672
0.6370877591
0.6475665363
0.6577475921
0.6673847381
0.6762923577
0.6843420861
0.691458542
0.6976142944
0.7028238778
0.7071367579
0.7106292952
0.7133960535
0.7155410555
0.7171697243
0.7183822085
0.7192685729
0.7199060319
0.7203580047
0.7206746971
0.7208945504
0.721046143
0.7211502134
0.7212214947
0.7212702758
0.7213036441
0.7213264469
0.7213419561
0.721352327
0.7213589783
0.7213626121
0.7213629368
0.7213604577
0.7213601809
0.7213395405
0.6053571922
0.6806617861
0.6882546903
0.684280705
0.6783366473
0.6723402168
0.6654298599
0.6577398799
0.6492702317
0.6400436462
0.6302117825
0.6199701409
0.6096385949
0.5996246972
0.5904239334
0.5825707168
0.576580221
0.5728765001
0.571730444
0.5732233016
0.5772454402
0.5835255321
0.5916799364
0.6012671899
0.6118341596
0.6229503505
0.6342291161
0.6453384489
0.656004644
0.6660120814
0.6752009079
0.6834639058
0.6907426909
0.6970232491
0.7023304748
0.7067216119
0.7102786373
0.7130999674
0.7152920989
0.7169619275
0.7182104169
0.7191280777
0.7197924173
0.7202671319
0.7206027534
0.7208381059
0.721002196
0.7211162048
0.721195295
0.7212501496
0.7212882026
0.7213145949
0.7213328397
0.7213452951
0.7213535468
0.7213583851
0.721359608
0.7213580393
0.7213581483
0.721337806
0.5931744738
0.6577656747
0.6612959614
0.6566117422
0.6505288444
0.644180024
0.637023585
0.6291227439
0.6205528232
0.6113810361
0.6018196776
0.5921296045
0.5826883456
0.5739446813
0.5664027619
0.5605638466
0.556865254
0.5556175267
0.5569609754
0.5608521522
0.5670816944
0.5753136702
0.5851360564
0.5961086302
0.6077994917
0.6198102822
0.6317901932
0.643442166
0.6545240218
0.6648472812
0.6742747284
0.68271765
0.6901325316
0.6965171165
0.7019053929
0.7063614308
0.7099721142
0.712839186
0.7150712277
0.7167763157
0.7180560047
0.7190010737
0.7196891759
0.7201841587
0.7205367688
0.7207861159
0.7209615495
0.7210846207
0.7211708609
0.7212312973
0.7212736704
0.7213033829
0.721324165
0.7213385613
0.7213483075
0.7213542633
0.7213563387
0.7213556789
0.7213560346
0.7213360988
0.5786496704
0.632696435
0.6331270614
0.6278758697
0.6216958243
0.6150915014
0.6077987023
0.5998406737
0.5913613004
0.5824787583
0.5734631919
0.5646320275
0.5564034733
0.5492425693
0.5436326678
0.5400135518
0.5387245912
0.5399562936
0.5437268819
0.5498884055
0.5581572597
0.5681575704
0.5794682615
0.5916627842
0.6043365663
0.6171248084
0.6297110651
0.6418303247
0.6532685993
0.6638613504
0.6734912109
0.6820856756
0.6896142815
0.6960851237
0.7015402174
0.706049658
0.7097046401
0.7126097911
0.7148754493
0.7166106268
0.7179172828
0.7188863164
0.7195954036
0.720108438
0.7204762879
0.7207382653
0.7209239902
0.7210553204
0.7211481027
0.7212136645
0.7212600173
0.7212927969
0.7213159287
0.7213321291
0.7213432669
0.7213502547
0.7213531432
0.7213533824
0.7213538313
0.7213344322
0.5618729245
0.6057531882
0.6038760654
0.5982071346
0.5919797212
0.5852462457
0.5779583773
0.570127775
0.5619603391
0.5536256855
0.5454440611
0.537775448
0.5310579824
0.5257471837
0.5222794331
0.5210122145
0.5221770018
0.525847786
0.5319362781
0.5402127367
0.5503431446
0.5619320342
0.5745634906
0.5878325963
0.6013650148
0.614829023
0.6279401782
0.6404623905
0.6522066724
0.6630295339
0.6728310154
0.6815528477
0.6891760752
0.6957179594
0.701227645
0.7057805787
0.7094717632
0.7124083374
0.7147021204
0.7164628539
0.717792745
0.7187826896
0.7195102847
0.7200393826
0.7204208942
0.720694264
0.7208893198
0.7210281716
0.7211269349
0.7211971987
0.7212472134
0.7212828221
0.7213081264
0.7213260014
0.7213384303
0.7213463668
0.7213500358
0.7213511503
0.7213515535
0.7213328212
0.5429597766
0.5771451468
0.5736098557
0.5677505242
0.5615607479
0.5548540591
0.547744953
0.5402526095
0.5326383088
0.5251191595
0.5180542214
0.5118290547
0.5068799504
0.5036291758
0.5024455533
0.5035918533
0.5071908612
0.5132109375
0.5214765443
0.5316984988
0.5435129297
0.5565204244
0.5703199549
0.5845327137
0.5988152717
0.6128673163
0.6264336262
0.6393039365
0.6513113223
0.6623307811
0.6722776493
0.6811062119
0.6888077144
0.6954075853
0.7009613425
0.7055492152
0.7092695891
0.7122317983
0.7145489085
0.7163312178
0.7176810497
0.7186891944
0.7194330851
0.7199764604
0.7203702081
0.7206538453
0.7208573545
0.7210030505
0.7211072767
0.7211818493
0.7212352294
0.7212734438
0.7213007534
0.7213201801
0.721333802
0.7213426077
0.7213470309
0.7213489812
0.7213492122
0.7213312853
0.5220435214
0.5471462896
0.5425069683
0.5367422218
0.5307007917
0.5241906074
0.5174494127
0.5105150482
0.5036963197
0.4972506495
0.4915620105
0.4870229535
0.4840468859
0.4830029458
0.4841784563
0.4877370992
0.4936994295
0.5019435809
0.5122269335
0.5242209999
0.5375486298
0.5518177348
0.566648259
0.581689433
0.5966279192
0.6111924954
0.6251542586
0.6383258417
0.6505597394
0.6617471977
0.6718170343
0.6807346576
0.6885004087
0.6951470383
0.7007357976
0.7053512148
0.7090946969
0.7120775033
0.7144137469
0.7162141347
0.7175809967
0.7186049322
0.7193631411
0.7199191877
0.7203238818
0.7206167634
0.7208279236
0.720979841
0.7210890514
0.7211675675
0.721224036
0.7212646464
0.7212938042
0.7213146659
0.7213293851
0.7213389852
0.7213441428
0.7213468727
0.7213468274
0.7213298513
0.4993173885
0.5161544675
0.5111067896
0.5054439833
0.4996801664
0.493538886
0.4873564692
0.48119636
0.4754048522
0.4702692346
0.466182622
0.4635259141
0.4626711182
0.4639195106
0.4674697593
0.4733888468
0.4816064864
0.4919279272
0.5040625337
0.5176594573
0.5323408252
0.5477294622
0.5634696016
0.5792386857
0.5947517555
0.6097640863
0.6240702684
0.6375031572
0.6499323346
0.6612633598
0.6714369821
0.6804285198
0.6882464742
0.6949302031
0.7005461468
0.7051827213
0.7089440437
0.7119430675
0.7142947818
0.7161101779
0.7174915
0.7185290859
0.7192998455
0.7198671192
0.7202815932
0.7205827886
0.7208008659
0.7209584324
0.7210721846
0.7211543056
0.7212136042
0.7212564139
0.7212872723
0.7213094583
0.7213251812
0.7213355081
0.7213413844
0.7213448201
0.7213444236
0.7213285501
0.4747798397
0.4845428679
0.4795431353
0.4741188233
0.4687661072
0.4631681523
0.457733958
0.4525551303
0.4480036971
0.4443845642
0.442084178
0.4414550675
0.4428133056
0.446383186
0.4522736399
0.4604623805
0.4708024033
0.4830433912
0.4968634644
0.5119028596
0.5277919358
0.544173102
0.5607161882
0.5771258696
0.5931433828
0.6085478659
0.6231547572
0.6368147397
0.6494124472
0.6608660877
0.6711270223
0.6801794486
0.6880392346
0.6947517366
0.700388119
0.7050403304
0.7088149303
0.7118263651
0.7141903535
0.716018064
0.7174115774
0.7184609127
0.7192426431
0.7198198449
0.7202430437
0.7205517063
0.7207760296
0.7209387191
0.721056605
0.7211420164
0.7212039044
0.7212487296
0.7212811504
0.7213045554
0.7213211911
0.7213321854
0.7213387661
0.7213428163
0.7213420416
0.7213273835
0.4490096751
0.4527041604
0.4480734097
0.4430166379
0.4382195804
0.4333389688
0.4288345537
0.4248260815
0.4216996846
0.419765669
0.419389435
0.4208813813
0.4244914876
0.4303631167
0.4385192123
0.4488589093
0.4611735493
0.4751732405
0.4905187889
0.5068516235
0.5238163077
0.5410772939
0.5583299169
0.575304405
0.5917658317
0.6075146402
0.6223846997
0.6362424005
0.6489856599
0.6605439046
0.6708779794
0.6799800831
0.6878727728
0.6946068808
0.7002578944
0.7049209869
0.7087049257
0.7117254756
0.7140989569
0.7159366244
0.7173403313
0.7183997304
0.7191910213
0.7197769843
0.7202079541
0.7205233144
0.7207532707
0.7209206001
0.7210422429
0.7211306536
0.721194907
0.7212415757
0.72127543
0.7212999535
0.7213174149
0.7213290267
0.7213362934
0.7213408536
0.7213397252
0.7213262941
0.4221998137
0.4210296333
0.4169663393
0.4124066551
0.4082988929
0.4042925457
0.4008780695
0.3982007104
0.3966491448
0.3965272459
0.3981668091
0.4018253823
0.4076806936
0.4157954598
0.4261138012
0.4384686298
0.4526042893
0.4682052141
0.4849258911
0.5024161307
0.5203383422
0.5383798835
0.556260595
0.5737342341
0.5905873594
0.6066393185
0.6217402501
0.6357703953
0.6486394272
0.6602867657
0.670681776
0.6798239066
0.6877418225
0.6944913811
0.7001520433
0.7048219369
0.7086118313
0.7116386559
0.7140192216
0.7158647919
0.7172769383
0.718344911
0.7191445057
0.7197381833
0.7201760632
0.7204974226
0.7207324521
0.7209039784
0.721029031
0.7211201716
0.721186582
0.7212349345
0.7212701018
0.7212956477
0.7213138525
0.7213260409
0.7213339667
0.7213389308
0.7213375008
0.721325329
0.39466305
0.3898727591
0.3864857606
0.3825453661
0.3792430068
0.3762441138
0.3740514585
0.3728319922
0.3729665979
0.3747419361
0.3784454957
0.3842739684
0.3923300967
0.4025995371
0.4149569584
0.4291818782
0.4449850458
0.4620367401
0.479993406
0.4985180376
0.5172927576
0.5360275868
0.5544653331
0.5723811484
0.5895807928
0.6059003261
0.6212042407
0.6353850086
0.6483627384
0.660085789
0.6705312179
0.6797050771
0.6876416358
0.694401383
0.7000674453
0.704740666
0.708533633
0.7115643041
0.7139498839
0.7158015782
0.7172206334
0.7182958675
0.7191026515
0.7197031081
0.7201471232
0.720473849
0.720713442
0.7208887597
0.7210169031
0.7211105247
0.7211788989
0.7212287869
0.7212651554
0.7212916314
0.7213105035