/*--------------------------------*- C++ -*----------------------------------*\
  =========                 |
  \\      /  F ield         | OpenFOAM: The Open Source CFD Toolbox
   \\    /   O peration     | Website:  https://openfoam.org
    \\  /    A nd           | Version:  12
     \\/     M anipulation  |
\*---------------------------------------------------------------------------*/
FoamFile
{
    format      ascii;
    class       volScalarField;
    location    "800";
    object      nut;
}
// * * * * * * * * * * * * * * * * * * * * * * * * * * * * * * * * * * * * * //

dimensions      [0 2 -1 0 0 0 0];

internalField   nonuniform List<scalar> 
16200
(
0.0005117525731
0.001744996419
0.002902283494
0.003801550235
0.004073313788
0.003575145289
0.002608327862
0.001403936114
0.0007127130304
0.0001945964893
6.058352081e-06
2.670394012e-06
2.418806141e-06
2.379951952e-06
1.881631814e-06
1.61951861e-06
1.411706163e-06
1.264725495e-06
1.168664476e-06
1.105886851e-06
1.068528775e-06
1.053497174e-06
1.057669562e-06
1.07899963e-06
1.11672805e-06
1.171608512e-06
1.246270305e-06
1.345791983e-06
1.478910299e-06
1.660485287e-06
1.916058389e-06
2.290295643e-06
2.863073925e-06
3.782748526e-06
5.341012436e-06
8.142476822e-06
1.348926602e-05
2.424909518e-05
4.682683863e-05
9.569779091e-05
0.0002039552853
0.0004480152826
0.001002006535
0.001002229459
0.001001782215
0.001000801062
0.000999487236
0.0009989096525
0.0009986851653
0.0009986097217
0.0009985951494
0.0009986049305
0.0009986253418
0.000998652838
0.0009986886212
0.0009987370684
0.0009988047415
0.0009989032012
0.0009990485004
0.0009992762712
0.0005049258069
0.001706980567
0.00280715202
0.003605857954
0.003704763171
0.003079063255
0.002125408828
0.001032379383
0.0005653846336
4.319385039e-05
2.746338811e-06
2.247835599e-06
2.046217363e-06
2.007525405e-06
1.688221503e-06
1.449446781e-06
1.259822496e-06
1.125802319e-06
1.03984438e-06
9.848327954e-07
9.531795202e-07
9.417015865e-07
9.472991356e-07
9.678673302e-07
1.002578787e-06
1.052041454e-06
1.118649296e-06
1.207137783e-06
1.32573649e-06
1.4883926e-06
1.718727575e-06
2.057390534e-06
2.576378158e-06
3.408825177e-06
4.815968974e-06
7.338785756e-06
1.214227491e-05
2.179260308e-05
4.202037561e-05
8.5773468e-05
0.0001826469035
0.0004009829712
0.0008999462706
0.001002092711
0.001001689686
0.001000815778
0.0009995001874
0.0009989161576
0.000998689635
0.0009986142915
0.0009986006616
0.0009986115695
0.0009986329891
0.0009986612058
0.0009986974031
0.0009987458036
0.0009988131983
0.0009989110816
0.000999056488
0.0009992879667
0.0004987577502
0.001668744137
0.002710544793
0.003404759573
0.003333112205
0.002609691209
0.001637088948
0.0007558667908
0.0003801686516
1.446842479e-05
2.138091619e-06
1.894089258e-06
1.729578533e-06
1.692718275e-06
1.501657655e-06
1.286326628e-06
1.115406785e-06
9.946024362e-07
9.185482394e-07
8.708313187e-07
8.441870618e-07
8.353341086e-07
8.412041877e-07
8.596906491e-07
8.899939239e-07
9.327300792e-07
9.902761111e-07
1.067338274e-06
1.172049873e-06
1.317888591e-06
1.526964915e-06
1.83635321e-06
2.310959568e-06
3.070519019e-06
4.34991799e-06
6.635229918e-06
1.097216164e-05
1.96606736e-05
3.782535672e-05
7.701386837e-05
0.0001635487324
0.0003580710935
0.0008015221221
0.001001993495
0.001001610619
0.001000820591
0.0009995146256
0.0009989269097
0.0009986983198
0.000998622209
0.0009986085603
0.0009986197874
0.0009986416082
0.000998670143
0.0009987064904
0.0009987547481
0.0009988217933
0.0009989191344
0.000999064523
0.0009992990329
0.0004943744718
0.001631065148
0.00261005773
0.003160371286
0.002947819632
0.002178677453
0.001164018335
0.0005599880056
0.0001883461638
5.242371207e-06
1.790608331e-06
1.609662619e-06
1.474588269e-06
1.43954414e-06
1.335026073e-06
1.140124905e-06
9.857211578e-07
8.767172586e-07
8.093508425e-07
7.678942124e-07
7.453707195e-07
7.384236558e-07
7.440695978e-07
7.603376692e-07
7.866133717e-07
8.237086057e-07
8.742144824e-07
9.430922296e-07
1.038664434e-06
1.174187526e-06
1.370605477e-06
1.662231237e-06
2.108772375e-06
2.820643966e-06
4.015052025e-06
6.141903642e-06
1.0169087e-05
1.822414937e-05
3.50415393e-05
7.127109096e-05
0.0001511436454
0.0003303870682
0.000738337034
0.00100191421
0.001001534319
0.001000796235
0.0009995187721
0.0009989345028
0.0009987064175
0.0009986302885
0.0009986167057
0.000998628142
0.0009986502354
0.0009986790079
0.0009987154763
0.0009987636389
0.0009988304058
0.0009989273221
0.0009990727426
0.000999310125
0.0004902113628
0.001593127778
0.002507386825
0.002912923404
0.00256718617
0.001798402776
0.0008345657592
0.0004272352877
4.505520513e-05
2.083353845e-06
1.514476426e-06
1.369111226e-06
1.258483068e-06
1.226105737e-06
1.179085142e-06
1.003900074e-06
8.655150333e-07
7.680100954e-07
7.088635425e-07
6.731367841e-07
6.542420695e-07
6.488664826e-07
6.542307982e-07
6.686295689e-07
6.917376014e-07
7.246818208e-07
7.704132675e-07
8.342643907e-07
9.247535247e-07
1.054849401e-06
1.244388844e-06
1.525356128e-06
1.953300263e-06
2.631400249e-06
3.763392034e-06
5.771757647e-06
9.564962822e-06
1.713734805e-05
3.291804895e-05
6.684541554e-05
0.0001414735626
0.0003085492721
0.0006879136419
0.001001856917
0.001001466618
0.001000753858
0.0009995177754
0.0009989414738
0.0009987152768
0.0009986393088
0.0009986255822
0.0009986369508
0.0009986590863
0.0009986879463
0.0009987244612
0.0009987725372
0.0009988390729
0.0009989356597
0.0009990811372
0.0009993211225
0.0004857791228
0.001554481301
0.002400697105
0.002657949891
0.002192162316
0.001403021473
0.0006167400256
0.0002957220535
1.732614156e-05
1.571717078e-06
1.287930795e-06
1.168987341e-06
1.078015547e-06
1.048030289e-06
1.036326691e-06
8.791895569e-07
7.556108404e-07
6.689115999e-07
6.173924578e-07
5.869765489e-07
5.715143563e-07
5.67798483e-07
5.733011769e-07
5.866418692e-07
6.078568507e-07
6.3849121e-07
6.81943145e-07
7.439109639e-07
8.330173376e-07
9.619139402e-07
1.149566152e-06
1.426286207e-06
1.844700735e-06
2.503013843e-06
3.595990745e-06
5.528179838e-06
9.169121022e-06
1.642490241e-05
3.151938954e-05
6.390532359e-05
0.0001349759245
0.0002936854388
0.0006531366409
0.001001816726
0.001001407153
0.001000702457
0.0009995103455
0.0009989468
0.0009987241746
0.0009986487868
0.0009986348786
0.0009986460197
0.000998668045
0.0009986968916
0.0009987334113
0.000998781424
0.0009988477917
0.0009989441501
0.0009990897352
0.0009993321092
0.0004803757307
0.001514289656
0.002288608867
0.002385580034
0.001832880123
0.001021434538
0.0004620563074
0.0001757843987
5.707524476e-06
1.302401554e-06
1.096909523e-06
9.984704036e-07
9.232713861e-07
8.957563934e-07
9.038024148e-07
7.639707608e-07
6.547409392e-07
5.787983076e-07
5.3487032e-07
5.098026876e-07
4.979094403e-07
4.961436586e-07
5.022967214e-07
5.154023653e-07
5.359494244e-07
5.657422647e-07
6.090328271e-07
6.715490793e-07
7.618965967e-07
8.924258467e-07
1.082019865e-06
1.359069338e-06
1.774587512e-06
2.423428058e-06
3.494588036e-06
5.381462448e-06
8.929259728e-06
1.598751376e-05
3.064460587e-05
6.202370932e-05
0.0001307105577
0.0002836752378
0.0006291434391
0.001001790343
0.001001355512
0.001000650624
0.000999497962
0.000998950887
0.000998733164
0.0009986586864
0.0009986445555
0.0009986553274
0.0009986771078
0.0009987058511
0.0009987423402
0.0009987903118
0.000998856574
0.0009989528004
0.0009990985448
0.000999343085
0.000473255105
0.001470759886
0.002167891647
0.002104409874
0.001507285965
0.0007352599855
0.0003567037854
5.841214488e-05
2.408495862e-06
1.096224092e-06
9.328525605e-07
8.51292954e-07
7.894396459e-07
7.648854839e-07
7.824035122e-07
6.593532209e-07
5.640628196e-07
4.987177322e-07
4.621981844e-07
4.423315071e-07
4.339484545e-07
4.342537229e-07
4.414458886e-07
4.550424518e-07
4.758126294e-07
5.06646392e-07
5.514509966e-07
6.1631425e-07
7.098284333e-07
8.442036766e-07
1.037498124e-06
1.319038946e-06
1.737254144e-06
2.385465388e-06
3.449644631e-06
5.317916818e-06
8.823932754e-06
1.578855674e-05
3.022631288e-05
6.106906475e-05
0.0001284092435
0.0002779538463
0.0006147174977
0.00100177384
0.001001309693
0.001000597559
0.0009994813168
0.0009989537176
0.0009987420521
0.0009986688196
0.0009986544765
0.0009986647891
0.0009986862298
0.0009987148064
0.0009987512453
0.0009987992042
0.0009988654269
0.0009989616165
0.0009991075768
0.0009993540726
0.0004646529849
0.001422016963
0.002014012636
0.001818602948
0.001198615773
0.0005410652092
0.0002697863653
3.343695401e-05
1.485985601e-06
9.256570726e-07
7.955846921e-07
7.272470792e-07
6.762346372e-07
6.544750206e-07
6.744749184e-07
5.668083365e-07
4.843752862e-07
4.289499139e-07
3.993105874e-07
3.842769921e-07
3.792199411e-07
3.816574625e-07
3.900034689e-07
4.047632631e-07
4.270987096e-07
4.598115979e-07
5.0726845e-07
5.756625817e-07
6.736147164e-07
8.133518019e-07
1.012929862e-06
1.301377267e-06
1.726807716e-06
2.381558757e-06
3.450772251e-06
5.322059822e-06
8.827877076e-06
1.578300422e-05
3.017789545e-05
6.086455271e-05
0.0001276949643
0.0002756926239
0.0006079988521
0.00100176392
0.00100126799
0.001000542552
0.0009994615143
0.000998955507
0.0009987507744
0.0009986790695
0.0009986645448
0.0009986743433
0.0009986953797
0.0009987237474
0.0009987601294
0.0009988081086
0.0009988743597
0.0009989706048
0.0009991168378
0.0009993650818
0.0004545239328
0.001368396826
0.001840477895
0.001537069371
0.0008779312287
0.0004049900747
0.0001906561256
1.808307227e-05
1.148841346e-06
7.844754429e-07
6.799195858e-07
6.223446139e-07
5.800339357e-07
5.609043812e-07
5.790932273e-07
4.854569592e-07
4.148523423e-07
3.687022752e-07
3.454655927e-07
3.349446537e-07
3.330479785e-07
3.373951642e-07
3.476706846e-07
3.640681376e-07
3.883590615e-07
4.236658029e-07
4.745336849e-07
5.472549784e-07
6.505526202e-07
7.96818406e-07
1.004328046e-06
1.302158564e-06
1.738595948e-06
2.405924917e-06
3.490318756e-06
5.382942955e-06
8.923951787e-06
1.594143797e-05
3.044452947e-05
6.130100888e-05
0.000128339346
0.0002763965944
0.0006078878724
0.001001757727
0.001001228865
0.001000484872
0.0009994395022
0.0009989564328
0.0009987592618
0.0009986893207
0.0009986746647
0.0009986839279
0.0009987045252
0.0009987326631
0.0009987689941
0.0009988170322
0.0009988833808
0.0009989797717
0.0009991263331
0.0009993761233
0.000442780086
0.001309947376
0.001654502427
0.001269627043
0.0006294074704
0.0003089100571
0.0001252979785
1.220672784e-05
9.382895069e-07
6.66030196e-07
5.818644409e-07
5.330935368e-07
4.97864146e-07
4.812202065e-07
4.952869041e-07
4.145122712e-07
3.548469958e-07
3.17367956e-07
3.000505954e-07
2.936701333e-07
2.94392493e-07
3.011382194e-07
3.132264858e-07
3.31524116e-07
3.581859571e-07
3.965669716e-07
4.513519696e-07
5.289548682e-07
6.382785962e-07
7.920025124e-07
1.008796052e-06
1.318068164e-06
1.768669274e-06
2.453622636e-06
3.561722321e-06
5.491178159e-06
9.097489296e-06
1.623872704e-05
3.097937736e-05
6.228499586e-05
0.0001301462886
0.000279638999
0.0006134320165
0.001001752973
0.001001191066
0.001000423879
0.0009994161746
0.0009989566989
0.0009987674818
0.0009986994863
0.0009986847593
0.0009986934919
0.0009987136401
0.0009987415454
0.0009987778429
0.000998825983
0.0009988924994
0.0009989891231
0.0009991360659
0.0009993872043
0.0004291146841
0.001245920956
0.001463697049
0.001005381018
0.000470657876
0.0002416920246
5.983377071e-05
6.726557152e-06
7.569952375e-07
5.668999042e-07
4.985958553e-07
4.572413472e-07
4.278605321e-07
4.1363836e-07
4.226317051e-07
3.535327753e-07
3.038517957e-07
2.74303959e-07
2.622808644e-07
2.592505918e-07
2.628293802e-07
2.715773726e-07
2.854834345e-07
3.058851729e-07
3.352207946e-07
3.770108513e-07
4.3606484e-07
5.189551494e-07
6.348370185e-07
7.967757779e-07
1.023972054e-06
1.346401079e-06
1.813809297e-06
2.520649891e-06
3.659738011e-06
5.639409838e-06
9.337264778e-06
1.665607467e-05
3.174807499e-05
6.374894936e-05
0.0001329754036
0.0002851162096
0.0006239557969
0.001001747879
0.001001153598
0.001000359035
0.0009993922733
0.0009989564877
0.0009987754165
0.0009987094982
0.0009986947655
0.0009987029931
0.0009987227029
0.0009987503889
0.0009987866799
0.0009988349695
0.0009989017243
0.0009989986639
0.0009991460378
0.00099939833
0.0004132891042
0.001174132882
0.001267655113
0.0007530699762
0.0003645567594
0.0001873720626
3.054691786e-05
3.441415081e-06
6.12247764e-07
4.838547373e-07
4.282188228e-07
3.931331184e-07
3.686154602e-07
3.566288345e-07
3.603226453e-07
3.01627767e-07
2.609169157e-07
2.384776613e-07
2.310599469e-07
2.311141862e-07
2.370172863e-07
2.47576569e-07
2.633542443e-07
2.860432271e-07
3.182824943e-07
3.637182615e-07
4.272901062e-07
5.157701549e-07
6.386284224e-07
8.093939496e-07
1.047908202e-06
1.384908936e-06
1.87132767e-06
2.603662128e-06
3.780007625e-06
5.821597984e-06
9.634202386e-06
1.717851748e-05
3.272362392e-05
6.564030701e-05
0.0001367181979
0.000292594498
0.000638940145
0.001001741121
0.001001115714
0.001000289925
0.0009993683966
0.0009989559608
0.0009987830626
0.0009987193075
0.0009987046357
0.0009987123993
0.0009987316978
0.0009987591906
0.0009987955104
0.0009988440004
0.0009989110642
0.0009990083985
0.0009991562491
0.000999409504
0.0003958564108
0.00109384342
0.001070790609
0.0005598561885
0.0002811034476
0.0001390870306
1.842048077e-05
1.878307313e-06
5.012479987e-07
4.130427075e-07
3.689847672e-07
3.389635575e-07
3.182861306e-07
3.081930787e-07
3.068167452e-07
2.574325617e-07
2.248366885e-07
2.087526766e-07
2.049498087e-07
2.080724196e-07
2.159188296e-07
2.282078928e-07
2.459485424e-07
2.710833363e-07
3.063914451e-07
3.556305664e-07
4.238903338e-07
5.181812921e-07
6.483382118e-07
8.284153083e-07
1.079056183e-06
1.431714015e-06
1.938979216e-06
2.699880244e-06
3.918951428e-06
6.032871472e-06
9.981148172e-06
1.77945368e-05
3.388567573e-05
6.792011506e-05
0.0001412952454
0.000301904116
0.0006580098099
0.001001731751
0.001001076869
0.001000216247
0.0009993449967
0.0009989552513
0.0009987904255
0.0009987288812
0.0009987143352
0.0009987216869
0.0009987406142
0.0009987679502
0.0009988043409
0.000998853085
0.0009989205278
0.0009990183305
0.0009991666989
0.000999420728
0.0003780687256
0.001008066911
0.0008610640249
0.0004274993156
0.0002273224797
0.0001008518963
1.283385634e-05
1.079032342e-06
4.14168003e-07
3.522265764e-07
3.169451195e-07
2.920848324e-07
2.746594016e-07
2.663721818e-07
2.606828477e-07
2.198405733e-07
1.946714186e-07
1.842184121e-07
1.838117866e-07
1.892030167e-07
1.98753741e-07
2.127617583e-07
2.325606269e-07
2.602577068e-07
2.987360423e-07
3.518691873e-07
4.249229821e-07
5.251781489e-07
6.628714649e-07
8.526318869e-07
1.115891995e-06
1.485233964e-06
2.014876032e-06
2.806981737e-06
4.073612275e-06
6.2692778e-06
1.037242915e-05
1.849522229e-05
3.52188511e-05
7.055949756e-05
0.000146648525
0.0003129222897
0.0006808950153
0.001001719129
0.001001036685
0.001000139559
0.0009993223993
0.000998954465
0.0009987975166
0.0009987381992
0.0009987238413
0.0009987308404
0.0009987494459
0.0009987766698
0.0009988131785
0.0009988622325
0.0009989301231
0.0009990284631
0.0009991773856
0.0009994320021
0.0003605466599
0.000915072311
0.0006928324745
0.0003494320212
0.0001916181847
5.641596437e-05
8.460684495e-06
6.74188387e-07
3.453208286e-07
2.999658343e-07
2.715915136e-07
2.510710424e-07
2.369504711e-07
2.303870127e-07
2.212744467e-07
1.882127176e-07
1.697431406e-07
1.637983458e-07
1.665698653e-07
1.738057782e-07
1.84930715e-07
2.006817536e-07
2.226098711e-07
2.529323423e-07
2.946246202e-07
3.51689468e-07
4.295919681e-07
5.359069075e-07
6.813005557e-07
8.810183335e-07
1.157353887e-06
1.544132528e-06
2.097434511e-06
2.923037296e-06
4.241569201e-06
6.527649407e-06
1.080362401e-05
1.927384659e-05
3.671189948e-05
7.353791187e-05
0.0001527376632
0.0003255649092
0.0007074127612
0.001001702849
0.001000994818
0.00100006693
0.0009993008233
0.0009989536828
0.0009988043506
0.0009987472521
0.0009987331404
0.0009987398511
0.0009987581909
0.0009987853532
0.000998822031
0.0009988714518
0.0009989398575
0.0009990387991
0.0009991883084
0.0009994433247
0.0003458886097
0.0008142444194
0.0005598391189
0.0002898933134
0.000159634084
3.11949908e-05
4.03523997e-06
4.571304936e-07
2.904727614e-07
2.559104012e-07
2.329443362e-07
2.158790884e-07
2.044005701e-07
1.995700596e-07
1.878921963e-07
1.618754545e-07
1.493707668e-07
1.475399378e-07
1.525486514e-07
1.613498927e-07
1.739872215e-07
1.91505157e-07
2.15594412e-07
2.485550348e-07
2.934602693e-07
3.544555244e-07
4.37220226e-07
5.496411565e-07
7.028362464e-07
9.127109303e-07
1.202464128e-06
1.607289652e-06
2.185339173e-06
3.046462249e-06
4.420865621e-06
6.805487455e-06
1.127135975e-05
2.012548427e-05
3.83569426e-05
7.684157302e-05
0.0001595365285
0.0003397789611
0.0007374496625
0.00100168269
0.001000950667
0.0009999985843
0.0009992804034
0.0009989529644
0.0009988109446
0.0009987560385
0.0009987422269
0.0009987487156
0.0009987668506
0.0009987940061
0.0009988309067
0.0009988807519
0.0009989497375
0.0009990493405
0.0009991994656
0.0009994546931
0.0003373057745
0.0007091355575
0.0004603691231
0.0002418851343
0.0001294631715
1.859744277e-05
1.932568086e-06
3.31902572e-07
2.455934884e-07
2.184479893e-07
1.997129111e-07
1.855252813e-07
1.761800902e-07
1.729151463e-07
1.597581679e-07
1.402058143e-07
1.326548317e-07
1.344766797e-07
1.412339744e-07
1.51417012e-07
1.655287656e-07
1.848150873e-07
2.110588438e-07
2.466344853e-07
2.947210614e-07
3.596164503e-07
4.472236137e-07
5.657559466e-07
7.268041063e-07
9.469556352e-07
1.250402155e-06
1.673776268e-06
2.277512096e-06
3.175976128e-06
4.609951116e-06
7.100870349e-06
1.177315535e-05
2.104672412e-05
4.014890869e-05
8.046228049e-05
0.0001670306997
0.0003555369057
0.0007709492146
0.001001658582
0.001000903767
0.0009999345747
0.0009992612101
0.0009989523522
0.0009988173164
0.0009987645629
0.0009987511014
0.0009987574351
0.0009987754286
0.0009988026349
0.0009988398139
0.000998890141
0.0009989597694
0.0009990600894
0.0009992108536
0.0009994661031
0.0003376178675
0.0006050567035
0.0003734182872
0.000206842932
0.0001023039388
1.221181303e-05
9.43277723e-07
2.558802743e-07
2.079366898e-07
1.862191394e-07
1.709530404e-07
1.593005742e-07
1.518745864e-07
1.500361956e-07
1.364394159e-07
1.22776789e-07
1.197416105e-07
1.240633788e-07
1.322040273e-07
1.436441948e-07
1.591976514e-07
1.802322442e-07
2.085972035e-07
2.467430926e-07
2.979579847e-07
3.666997894e-07
4.591027487e-07
5.837197058e-07
7.526323328e-07
9.831455553e-07
1.30049151e-06
1.742835981e-06
2.373086938e-06
3.310565775e-06
4.80762793e-06
7.412372318e-06
1.230728932e-05
2.203543731e-05
4.208509737e-05
8.439655041e-05
0.0001752156454
0.0003728327137
0.0008079029283
0.001001630562
0.001000853767
0.0009998748363
0.0009992432671
0.0009989518758
0.0009988234841
0.0009987728346
0.0009987597687
0.0009987660141
0.0009987839309
0.0009988112472
0.0009988487608
0.0009988996267
0.0009989699585
0.0009990710474
0.0009992224628
0.0009994775494
0.0003477027691
0.000510438448
0.0003167218052
0.0001842770886
5.969914909e-05
8.556945157e-06
4.87959354e-07
2.054922646e-07
1.763763166e-07
1.588359551e-07
1.464598583e-07
1.370270764e-07
1.313040656e-07
1.307747616e-07
1.175493925e-07
1.091014128e-07
1.096930026e-07
1.157924829e-07
1.250728284e-07
1.376951616e-07
1.5466122e-07
1.774102361e-07
2.078477671e-07
2.485040607e-07
3.027781408e-07
3.752946565e-07
4.724274657e-07
6.030806086e-07
7.798455523e-07
1.020773611e-06
1.352185901e-06
1.813868452e-06
2.471387829e-06
3.449457075e-06
5.013010838e-06
7.739001856e-06
1.287269683e-05
2.309058978e-05
4.416481067e-05
8.864484392e-05
0.000184095048
0.0003916781429
0.0008483421856
0.00100159874
0.001000800409
0.0009998192255
0.0009992265651
0.0009989515542
0.0009988294658
0.0009987808658
0.0009987682373
0.0009987744596
0.0009987923645
0.0009988198507
0.0009988577555
0.0009989092163
0.0009989803094
0.0009990822148
0.0009992342789
0.000999489025
0.0003651229066
0.0004729024428
0.0002755400685
0.0001655369916
3.189566294e-05
3.531065445e-06
2.807464364e-07
1.699442187e-07
1.503293222e-07
1.360109278e-07
1.259539887e-07
1.183758532e-07
1.141466926e-07
1.146811188e-07
1.025377575e-07
9.841334082e-08
1.018523898e-07
1.092274085e-07
1.19513132e-07
1.332788793e-07
1.516277329e-07
1.760468474e-07
2.084973307e-07
2.515912618e-07
3.088435275e-07
3.850509982e-07
4.868358241e-07
6.234642564e-07
8.080557201e-07
1.059434919e-06
1.405057516e-06
1.88641254e-06
2.571906153e-06
3.592083649e-06
5.225484581e-06
8.080141301e-06
1.34688776e-05
2.421208978e-05
4.638907817e-05
9.321103577e-05
0.0001936797081
0.0004121004058
0.0008923334138
0.001001563273
0.001000743506
0.0009997675514
0.0009992110728
0.0009989513995
0.0009988352791
0.0009987886705
0.0009987765177
0.0009987827803
0.0009988007376
0.0009988284536
0.0009988668056
0.0009989189159
0.0009989908257
0.0009990935891
0.0009992462897
0.0009995005218
0.0003862553544
0.0004116205473
0.000247154303
0.0001468448989
1.727365879e-05
1.344811537e-06
1.87304509e-07
1.431432276e-07
1.287355751e-07
1.169461129e-07
1.087281377e-07
1.027373503e-07
9.984293765e-08
1.002661181e-07
9.079941339e-08
9.038390659e-08
9.568025697e-08
1.040383668e-07
1.152671882e-07
1.301495959e-07
1.498434984e-07
1.758779381e-07
2.102719705e-07
2.557216936e-07
3.158639134e-07
3.956725229e-07
5.020261529e-07
6.445641299e-07
8.369507604e-07
1.098809992e-06
1.458775215e-06
1.960118248e-06
2.674264561e-06
3.73804038e-06
5.444642168e-06
8.435460869e-06
1.409576721e-05
2.540057865e-05
4.876028915e-05
9.810172141e-05
0.0002039861677
0.0004341392762
0.0009399715345
0.001001524351
0.001000682915
0.0009997195977
0.0009991967451
0.000998951418
0.0009988409406
0.000998796264
0.0009987846219
0.000998790986
0.0009988090588
0.0009988370636
0.0009988759179
0.0009989287309
0.0009990015095
0.0009991051657
0.0009992584814
0.0009995120312
0.0004119895068
0.0003778854216
0.0002335907935
0.0001263089614
1.00398569e-05
4.840013841e-07
1.433774194e-07
1.217029844e-07
1.105119736e-07
1.007918842e-07
9.416422931e-08
8.95984173e-08
8.773030514e-08
8.695622921e-08
8.180153555e-08
8.426323615e-08
9.080106506e-08
9.999283228e-08
1.121297597e-07
1.280958339e-07
1.490859851e-07
1.766717948e-07
2.129329452e-07
2.606526252e-07
3.235941718e-07
4.069135951e-07
5.177535235e-07
6.66136953e-07
8.662892184e-07
1.138658276e-06
1.513096834e-06
2.034737573e-06
2.778205972e-06
3.88706971e-06
5.670266902e-06
8.80489291e-06
1.475369591e-05
2.665735657e-05
5.128204376e-05
0.000103325894
0.0002150359777
0.0004578453125
0.0009913733378
0.001001482182
0.001000618514
0.0009996751375
0.0009991835289
0.0009989516127
0.0009988464663
0.0009988036621
0.0009987925628
0.0009987990868
0.0009988173366
0.0009988456883
0.0009988850986
0.0009989386654
0.0009990123617
0.0009991169377
0.0009992708343
0.0009995235442
0.0004394765923
0.0003644443569
0.0002286739101
8.532417629e-05
5.033442068e-06
1.959579925e-07
1.182570731e-07
1.039024791e-07
9.497003766e-08
8.719558626e-08
8.182379685e-08
7.842683958e-08
7.755659192e-08
7.652212287e-08
7.505682616e-08
7.950502203e-08
8.69642406e-08
9.691242789e-08
1.099228664e-07
1.269287009e-07
1.491575248e-07
1.782252858e-07
2.162745954e-07
2.661787525e-07
3.318313805e-07
4.185757245e-07
5.338255191e-07
6.87997645e-07
8.958939819e-07
1.178810585e-06
1.567860133e-06
2.110113607e-06
2.883580149e-06
4.039044526e-06
5.902309557e-06
9.188599018e-06
1.544333652e-05
2.798429004e-05
5.395897101e-05
0.0001088945626
0.0002268548575
0.0004832779855
0.001002159562
0.001001436991
0.001000550183
0.0009996339446
0.000999171367
0.0009989519834
0.000998851871
0.0009988108804
0.0009988003532
0.0009988070932
0.0009988255796
0.0009988543347
0.000998894353
0.0009989487228
0.0009990233817
0.0009991288961
0.0009992833243
0.000999535052
0.0004833183953
0.0003662744415
0.0002286400542
4.151957546e-05
1.364767064e-06
1.202796595e-07
1.00311553e-07
8.925126853e-08
8.20395383e-08
7.565247761e-08
7.138432861e-08
6.90921807e-08
6.918318911e-08
6.863184263e-08
7.007555038e-08
7.582844623e-08
8.399177315e-08
9.464615623e-08
1.084886762e-07
1.264824158e-07
1.498875592e-07
1.803658249e-07
2.201248564e-07
2.721307121e-07
3.404108665e-07
4.305006217e-07
5.500916586e-07
7.100045657e-07
9.25632782e-07
1.219144226e-06
1.622951705e-06
2.18614214e-06
2.990296352e-06
4.193909294e-06
6.140812983e-06
9.586868555e-06
1.616555783e-05
2.938358351e-05
5.67963486e-05
0.0001148200798
0.0002394714453
0.0005105032754
0.001002128975
0.001001389021
0.001000477779
0.0009995957997
0.0009991602017
0.0009989525284
0.0009988571684
0.0009988179339
0.0009988080061
0.0009988150152
0.0009988337959
0.0009988630089
0.0009989036854
0.0009989589051
0.0009990345673
0.0009991410283
0.0009992959378
0.000999546542
0.0005243510224
0.0003599953962
0.000223113782
1.942700345e-05
3.28816616e-07
9.667493367e-08
8.625909102e-08
7.7214383e-08
7.118633959e-08
6.597135034e-08
6.270869139e-08
6.144965341e-08
6.244354584e-08
6.286673588e-08
6.638459257e-08
7.298014468e-08
8.173664574e-08
9.305516077e-08
1.076835303e-07
1.266099529e-07
1.511282098e-07
1.829468075e-07
2.243404479e-07
2.783704846e-07
3.492015953e-07
4.425656601e-07
5.664388294e-07
7.320549649e-07
9.554137552e-07
1.259578665e-06
1.678302694e-06
2.262767202e-06
3.098318275e-06
4.351673445e-06
6.385902224e-06
1.000010219e-05
1.692139372e-05
3.085771606e-05
5.979996246e-05
0.0001211158179
0.0002529165449
0.0005395919926
0.001002094837
0.001001338535
0.001000401112
0.0009995604939
0.0009991499754
0.0009989532446
0.0009988623709
0.0009988248371
0.0009988155337
0.0009988228627
0.0009988419928
0.0009988717165
0.0009989130988
0.0009989692128
0.0009990459144
0.0009991533208
0.0009993086781
0.0009995579973
0.0005631837592
0.0003496345636
0.0002094242931
9.637256229e-06
1.266174138e-07
8.267008223e-08
7.464032474e-08
6.721862893e-08
6.213419199e-08
5.79118095e-08
5.558471954e-08
5.529906546e-08
5.712403627e-08
5.87370016e-08
6.360066082e-08
7.078194228e-08
8.007249627e-08
9.201388166e-08
1.073802528e-07
1.271842787e-07
1.527544068e-07
1.85847142e-07
2.288060915e-07
2.847904637e-07
3.581052438e-07
4.546832797e-07
5.827913696e-07
7.54086159e-07
9.851882397e-07
1.300080425e-06
1.733896311e-06
2.339991579e-06
3.207678043e-06
4.512429285e-06
6.637807011e-06
1.042883968e-05
1.771207662e-05
3.240947584e-05
6.297612351e-05
0.000127796108
0.0002672228128
0.0005706187343
0.001002057389
0.001001285826
0.001000319923
0.0009995278313
0.0009991406327
0.0009989541277
0.0009988674899
0.0009988316034
0.0009988229475
0.0009988306446
0.0009988501769
0.0009988804616
0.0009989225953
0.0009989796454
0.0009990574168
0.0009991657604
0.0009993215417
0.0009995694001
0.0005817843205
0.0003386713214
0.0001854731559
5.641446589e-06
9.427808199e-08
7.142631342e-08
6.499291556e-08
5.886664063e-08
5.456455557e-08
5.122565429e-08
4.980362904e-08
5.043247766e-08
5.299735996e-08
5.577040963e-08
6.146469103e-08
6.91067624e-08
7.889040543e-08
9.141358239e-08
1.074704201e-07
1.280987914e-07
1.546626513e-07
1.889680782e-07
2.334291948e-07
2.913055559e-07
3.670452853e-07
4.667864992e-07
5.990925951e-07
7.760524473e-07
1.014922317e-06
1.340628296e-06
1.789725383e-06
2.41782509e-06
3.318412732e-06
4.676272727e-06
6.89675897e-06
1.087361831e-05
1.853882763e-05
3.404162496e-05
6.633109554e-05
0.0001348752124
0.000282422834
0.0006036581276
0.001002016853
0.001001231231
0.001000242494
0.0009994976295
0.0009991321204
0.0009989551729
0.0009988725353
0.0009988382452
0.0009988302583
0.0009988383691
0.0009988583541
0.0009988892477
0.0009989321754
0.0009989902007
0.0009990690667
0.0009991783337
0.0009993345127
0.0009995807331
0.0005691786377
0.0003333523867
0.0001531904209
2.182784849e-06
7.689828455e-08
6.218331191e-08
5.693931443e-08
5.185581669e-08
4.8230632e-08
4.571927818e-08
4.518429181e-08
4.664354281e-08
4.981887801e-08
5.358860272e-08
5.981249742e-08
6.785352792e-08
7.809464905e-08
9.115965297e-08
1.078617856e-07
1.292649993e-07
1.567694971e-07
1.922326508e-07
2.381405406e-07
2.978552786e-07
3.759708424e-07
4.788347137e-07
6.153128303e-07
7.979356405e-07
1.044610041e-06
1.381229529e-06
1.845811849e-06
2.496307754e-06
3.430591546e-06
4.843334881e-06
7.163028345e-06
1.133501596e-05
1.940290539e-05
3.57569482e-05
6.987111878e-05
0.0001423672413
0.0002985487102
0.0006387834876
0.001001973437
0.001001174781
0.00100017076
0.0009994697193
0.0009991243883
0.0009989563748
0.000998877516
0.0009988447737
0.0009988374759
0.0009988460434
0.0009988665291
0.0009988980767
0.0009989418385
0.0009990008749
0.0009990808541
0.0009991910257
0.0009993475745
0.0009995919761
0.0005528772438
0.0003308562033
8.209231326e-05
7.389783601e-07
6.524297406e-08
5.459558334e-08
5.023618332e-08
4.598903378e-08
4.296714068e-08
4.125357897e-08
4.156404243e-08
4.373430892e-08
4.7245159e-08
5.193880726e-08
5.853930652e-08
6.694088876e-08
7.760548834e-08
9.117390859e-08
1.084788954e-07
1.306112135e-07
1.590081748e-07
1.955799501e-07
2.428859341e-07
3.043926822e-07
3.848427935e-07
4.907969125e-07
6.314295241e-07
8.197219066e-07
1.074246645e-06
1.4218889e-06
1.902170906e-06
2.575467838e-06
3.544266e-06
5.013720906e-06
7.436844248e-06
1.181353803e-05
2.030543126e-05
3.755795837e-05
7.360188e-05
0.00015028515
0.0003156300921
0.0006760628254
0.001001927341
0.001001116421
0.001000104306
0.0009994439451
0.0009991173888
0.0009989577276
0.0009988824397
0.0009988511991
0.0009988446088
0.0009988536738
0.0009988747055
0.0009989069495
0.0009989515826
0.0009990116627
0.0009990927666
0.0009992038205
0.0009993607085
0.0009996031082
0.0005323303239
0.0003256584042
4.484770216e-05
2.778717156e-07
5.662133973e-08
4.834833373e-08
4.464616925e-08
4.107788574e-08
3.86241408e-08
3.769281056e-08
3.876938809e-08
4.151296426e-08
4.540808251e-08
5.066471128e-08
5.756730418e-08
6.629883364e-08
7.735471384e-08
9.139084009e-08
1.092599653e-07
1.320802818e-07
1.61327337e-07
1.989650532e-07
2.476275112e-07
3.108874232e-07
3.93638795e-07
5.026590287e-07
6.47437175e-07
8.414146623e-07
1.103844844e-06
1.462629042e-06
1.958836041e-06
2.655352443e-06
3.659506954e-06
5.187554439e-06
7.718448124e-06
1.230968235e-05
2.124746672e-05
3.944698047e-05
7.752856824e-05
0.0001586406506
0.0003336935957
0.0007155568637
0.001001878766
0.001001056067
0.001000042754
0.0009994201626
0.0009991110772
0.0009989592252
0.0009988873129
0.0009988575303
0.0009988516648
0.0009988612655
0.0009988828859
0.0009989158656