/*--------------------------------*- C++ -*----------------------------------*\
  =========                 |
  \\      /  F ield         | OpenFOAM: The Open Source CFD Toolbox
   \\    /   O peration     | Website:  https://openfoam.org
    \\  /    A nd           | Version:  12
     \\/     M anipulation  |
\*---------------------------------------------------------------------------*/
FoamFile
{
    format      ascii;
    class       volScalarField;
    location    "800";
    object      omega;
}
// * * * * * * * * * * * * * * * * * * * * * * * * * * * * * * * * * * * * * //

dimensions      [0 0 -1 0 0 0 0];

internalField   nonuniform List<scalar> 
16200
(
712529.3143
281974.2509
159590.604
110516.604
85916.99923
69897.30626
55110.84502
33645.17303
7830.18517
787.5364849
318.5279012
199.7960894
129.5140265
86.90836148
62.13197141
46.57610594
35.06737503
26.64267427
20.51570236
15.9286836
12.45721068
9.825398695
7.822297656
6.288840763
5.106662718
4.18758418
3.467108678
2.898355992
2.447515285
2.090676377
1.810418224
1.59251337
1.423969295
1.293685068
1.193974389
1.119886094
1.067581695
1.033023648
1.011754143
0.999510079
0.9928847643
0.9895415247
0.9880553358
0.9876396581
0.9872636324
0.9864745654
0.9854303531
0.9849602155
0.984771861
0.9847129736
0.9847232778
0.9847858262
0.9849060095
0.9851037681
0.9854124122
0.9858822777
0.9865884049
0.9876489233
0.9892606172
0.9918111703
748023.9077
297079.4409
168069.8252
116448.6673
90359.03084
72528.18855
54703.62937
26989.88116
4109.681549
600.1425413
322.3859532
203.6788568
132.0291226
88.38456168
62.82111483
47.01831147
35.30856903
26.74046501
20.53796357
15.91031489
12.41669412
9.775440605
7.770736014
6.240070426
5.062991363
4.149933799
3.435568979
2.872506132
2.426578395
2.073777212
1.796905305
1.582135993
1.416645509
1.289089582
1.191488721
1.118777441
1.067219949
1.032987679
1.011818983
0.9995791211
0.9929261592
0.9895485268
0.9880259226
0.9875742849
0.9872373821
0.9865366348
0.985496758
0.9850278236
0.9848444089
0.9847922289
0.9848097214
0.9848790412
0.9850048409
0.9852063205
0.9855161183
0.985983913
0.9866849441
0.9877390465
0.9893508976
0.9919389594
782082.1658
311855.9901
176424.6289
122317.3791
94449.17269
74612.03924
52439.82374
19322.39285
2157.018927
547.7857433
327.3161048
207.1376468
134.2359695
89.66312463
63.39834521
47.36968753
35.47652667
26.77907283
20.51206998
15.85381692
12.3463935
9.702347239
7.701146566
6.177076982
5.007911706
4.102980723
3.396353867
2.840311842
2.400442418
2.05267244
1.780014738
1.569052557
1.407186748
1.28286987
1.187837449
1.116894577
1.066391491
1.032703311
1.011773882
0.9996162201
0.9929744303
0.9895792913
0.9880263862
0.9875349767
0.9872182754
0.9865874977
0.9855604844
0.9850946118
0.98491587
0.9848695482
0.9848934081
0.9849689423
0.9851001521
0.9853055525
0.985617102
0.9860838568
0.9867810734
0.9878300802
0.989442457
0.9920650206
813925.9911
325759.3675
184476.1719
128030.8003
97968.17804
76167.82678
47474.24792
12043.65739
1312.459629
536.7063534
331.1987893
209.8448163
135.9632998
90.65365985
63.81886238
47.59998242
35.55092397
26.74412541
20.42875519
15.75242581
12.24122382
9.602116142
7.610217044
6.097003756
4.938897299
4.044475032
3.347476687
2.800061099
2.367696679
2.026275862
1.758976611
1.552755848
1.395269018
1.274810959
1.182863585
1.114111593
1.064990891
1.032082718
1.011547685
0.9995654779
0.9929866961
0.9896013958
0.988032584
0.9875083949
0.9871983368
0.9866125519
0.9856127519
0.9851552071
0.9849829025
0.9849428482
0.9849730608
0.9850547759
0.9851915281
0.9854012515
0.9857152735
0.9861820684
0.9868768184
0.9879221285
0.9895356631
0.9921902082
843281.066
338809.1745
192093.2079
133462.1234
101192.6775
75840.06608
38695.06172
6677.360464
1016.817349
537.0551208
334.0404544
211.8306913
137.2178844
91.35066363
64.08131081
47.70553864
35.52774764
26.63226855
20.28555692
15.60412519
12.09956137
9.473401626
7.496794628
5.998862607
4.855128513
3.973784322
3.28851221
2.751550951
2.328363872
1.994815519
1.734171655
1.53369943
1.381337515
1.265293092
1.176858634
1.110633034
1.063151057
1.03120657
1.011186618
0.9994522393
0.9929764008
0.9896217113
0.9880478957
0.9874964011
0.9871823707
0.9866207258
0.9856578719
0.9852119182
0.9850469103
0.9850131005
0.9850494231
0.9851371448
0.985279468
0.9854938226
0.9858109496
0.9862787747
0.9869723369
0.9880153251
0.9896307205
0.9923147134
869610.2582
350967.6527
199297.9532
138414.1125
103864.7953
73006.91467
29573.43706
3890.430653
928.8510452
538.978843
335.6940394
213.0264439
137.9562978
91.72451356
64.16999765
47.6735843
35.39716332
26.43653925
20.0775409
15.40516208
11.91849859
9.313887038
7.359004127
5.88115378
4.755451341
3.890090967
3.218975725
2.694613339
2.282548028
1.958592616
1.706006766
1.512305917
1.365761716
1.25459702
1.170010456
1.106569586
1.060928082
1.030097288
1.010695059
0.9992727771
0.9929371342
0.9896336033
0.9880664267
0.9874954499
0.9871703581
0.9866192645
0.9856951448
0.9852642739
0.9851076715
0.9850802804
0.9851226072
0.9852162456
0.9853642096
0.9855835083
0.9859043511
0.9863741516
0.9870677641
0.988109787
0.9897278229
0.9924388374
892572.0463
362413.5375
206259.213
142635.7182
106231.4278
67152.09116
20961.15379
2574.603458
900.683679
539.2281256
336.1216085
213.4179608
138.170002
91.7657807
64.0786257
47.49731012
35.15277364
26.15193957
19.80094103
15.15262917
11.69587095
9.121990544
7.195718009
5.743134481
4.639476349
3.793352094
3.139158857
2.629824219
2.231012991
1.918440821
1.675282507
1.489273219
1.349101701
1.243138676
1.162605489
1.102104327
1.058430255
1.028813653
1.010101794
0.9990392844
0.9928727034
0.9896369683
0.9880863113
0.9875032124
0.9871622221
0.9866150822
0.9857259963
0.9853128884
0.9851655445
0.9851446905
0.9851929196
0.9852923958
0.9854460701
0.985670607
0.9859957396
0.9864684069
0.9871632527
0.9882056282
0.9898271142
0.9925627742
911906.5904
373334.9128
213129.9543
146648.2442
106576.546
56516.6464
13562.24965
1983.805584
885.3814464
537.9395265
335.4064111
213.0356292
137.8665131
91.47039284
63.79948534
47.16783917
34.78638595
25.77255178
19.45186189
14.8440916
11.43029055
8.896989583
7.006643559
5.584852481
4.507576784
3.683866116
3.049682271
2.558048805
2.174726953
1.875292027
1.642917623
1.465324859
1.331897133
1.231299423
1.154897693
1.09739566
1.055749353
1.02740436
1.009429836
0.99876076
0.9927851568
0.9896307276
0.9881051137
0.9875168477
0.987156633
0.9866077977
0.9857512212
0.9853580276
0.9852206773
0.9852064968
0.9852605746
0.9853658506
0.9855253251
0.9857553921
0.9860853644
0.9865617458
0.9872589553
0.9883029567
0.9899287115
0.9926866991
927467.6014
384057.7131
219749.4161
150249.5866
103417.8083
44512.22021
8690.824298
1715.121111
880.5401868
535.050144
333.549975
211.871656
137.0373868
90.8296039
63.32222007
46.67606323
34.29098503
25.2944103
19.02849649
14.47906115
11.12200499
8.639492049
6.792607404
5.407358896
4.360458807
3.563427674
2.952512154
2.481214062
2.115401034
1.830530315
1.609753516
1.441166465
1.314651497
1.219428403
1.147120078
1.092591543
1.052973783
1.025918506
1.008704103
0.9984483673
0.992678436
0.9896152998
0.98812153
0.9875339864
0.9871524736
0.9865970845
0.9857719156
0.9854001184
0.9852732981
0.9852659018
0.9853258005
0.9854368681
0.98560225
0.9858381368
0.9861734765
0.9866543773
0.9873550277
0.9884018756
0.9900327035
0.9928107462
939453.8248
394623.6076
225598.3597
153895.2548
96241.12555
33737.4654
5854.727047
1581.492795
872.6033775
530.3986063
330.5171949
209.9111346
135.6777251
89.84076431
62.63914248
46.01565153
33.66215873
24.71595662
18.53103344
14.0587083
10.77261897
8.351256055
6.554597838
5.21176631
4.20073192
3.43439862
2.849937718
2.401352337
2.054685756
1.78540248
1.576768251
1.417394762
1.297771639
1.207801639
1.139456431
1.087809882
1.050175236
1.024396802
1.007945843
0.9981120135
0.9925563213
0.9895913768
0.988134696
0.9875525847
0.9871487392
0.9865825791
0.9857890368
0.9854395404
0.9853236132
0.9853230912
0.9853888095
0.9855056914
0.985677107
0.9859191048
0.9862603215
0.9867465092
0.9874516253
0.9885024835
0.9901391566
0.9929350228
947999.2207
405134.0347
230938.6919
156431.7188
83363.91188
24136.64511
4266.923245
1502.173789
862.3399993
524.1069191
326.3741777
207.1878084
133.8051705
88.51284391
61.74634105
45.18276032
32.89765997
24.03790024
17.96176824
13.58610451
10.38533384
8.034208678
6.296046499
5.001770952
4.031535759
3.299777771
2.744609594
2.320608997
1.994174828
1.741008591
1.544682901
1.394471324
1.281559533
1.196621332
1.132042908
1.083140318
1.047410032
1.022872426
1.007173137
0.9977606367
0.9924226074
0.9895600378
0.9881442739
0.9875710262
0.9871446312
0.9865639749
0.9858034839
0.9854766764
0.9853718398
0.9853782555
0.9854498113
0.985572557
0.98575015
0.9859985522
0.9863461394
0.9868383463
0.9875489016
0.9886048725
0.9902481162
0.9930596087
953111.3486
415548.3907
236252.2354
153897.9995
69126.08607
16628.76513
3389.945625
1447.889453
848.3186922
516.1772482
321.1409984
203.7177353
131.4315344
86.85434446
60.63896806
44.17411141
31.99720806
23.26377535
17.32563547
13.06649707
9.963491715
7.693216591
6.021128866
4.781414839
3.856705883
3.162961177
2.639281678
2.241026518
1.935261956
1.698234304
1.514033032
1.372714337
1.266213096
1.186018314
1.12496953
1.078644512
1.044718656
1.021370291
1.006400174
0.9974016229
0.9922806771
0.9895224513
0.9881502516
0.987588074
0.9871395392
0.9865410297
0.9858160235
0.9855118765
0.9854181896
0.9854315831
0.9855090107
0.9856376929
0.9858216233
0.986076726
0.9864311632
0.9869300888
0.9876470063
0.9887091282
0.990359609
0.9931845601
954871.2624
425613.8851
241991.0306
145728.8755
56191.31
11834.60518
2903.211956
1405.106626
830.7005553
506.7237312
314.8807538
199.5384598
128.5799116
84.88111546
59.31551082
42.99014687
30.96481794
22.40125888
16.63054693
12.5054052
9.513817419
7.333734689
5.734917871
4.555504859
3.680533307
3.027441235
2.536542478
2.164365263
1.879052144
1.657723926
1.485173139
1.352314169
1.251842181
1.176064392
1.118288264
1.07436083
1.042128191
1.019908141
1.005637658
0.9970408858
0.9921334565
0.9894797941
0.9881528549
0.9876028324
0.9871330288
0.9865135815
0.9858272962
0.98554546
0.9854628705
0.9854832615
0.9855666087
0.98570132
0.9858917621
0.986153864
0.9865156174
0.9870219303
0.9877460839
0.9888153286
0.9904736449
0.9933099116
953589.18
434445.8707
249373.994
131959.4316
42916.00257
8685.837104
2605.963007
1364.287263
810.4861819
494.7539701
307.6379443
194.6869452
125.2787301
82.61460001
57.77766554
41.63491801
29.80849169
21.46142687
15.88637648
11.91153011
9.043273724
6.96193726
5.443281879
4.329367957
3.507373079
2.896421574
2.438547255
2.091966707
1.826317534
1.619884295
1.458297829
1.333356373
1.23848735
1.166785548
1.112021322
1.070309056
1.039654725
1.018497643
1.0048932
0.9966829389
0.9919833612
0.98943316
0.9881524474
0.9876146883
0.9871248127
0.986481545
0.9858378171
0.98557771
0.9855060825
0.9855334756
0.9856228013
0.9857636515
0.985960792
0.9862301938
0.9865997177
0.9871140572
0.9878462722
0.9889235437
0.9905902181
0.9934356783
949863.7936
442049.0898
250995.657
113872.0333
32032.59663
6704.745394
2409.182423
1321.842657
787.7706745
481.0973905
299.0788006
189.2326823
121.5713057
80.08186025
56.02919054
40.11464657
28.5392371
20.45785863
15.10065503
11.29391583
8.55930116
6.584827833
5.152754263
4.108395205
3.341123982
2.772447814
2.34683232
2.024694206
1.777502708
1.584913779
1.433540317
1.315848011
1.226139323
1.158175187
1.106169519
1.066495286
1.037306009
1.017145698
1.004171895
0.9963310996
0.9918323293
0.9893835253
0.9881494639
0.9876232552
0.9871147224
0.9864462653
0.9858479906
0.9856088758
0.9855480166
0.9855824064
0.9856777794
0.9858248928
0.9860289289
0.9863059327
0.9866836697
0.9872066469
0.9879477013
0.9890338348
0.9907093083
0.9935618572
944270.9318
446083.1278
242742.6367
98523.84746
24131.3488
5476.531611
2271.467129
1279.891408
763.5305989
466.2311122
289.5530194
183.0287026
117.4874545
77.30216811
54.07064331
38.43613107
27.17094612
19.4063127
14.2870471
10.66174598
8.070105547
6.210286681
4.870003381
3.897326062
3.184737886
2.657192189
2.262267411
1.962956693
1.73276784
1.552839074
1.410796438
1.299741623
1.214755616
1.150205198
1.100719265
1.062916074
1.035083749
1.015855615
1.003476861
0.9959876959
0.9916818716
0.989331732
0.9881443619
0.9876283211
0.987102605
0.986413347
0.9858581277
0.9856391752
0.9855888538
0.9856302297
0.9857317279
0.9858852409
0.9860963787
0.9863812874
0.9867676688
0.9872998674
0.9880504923
0.9891462536
0.9908308828
0.9936884289
937721.6052
444429.8985
226297.6023
82119.07036
18281.10037
4690.505682
2163.436056
1237.181235
737.7110149
450.1734935
279.1974803
176.1903281
112.949906
74.29544998
51.90548813
36.61141516
25.7226622
18.31658733
13.45777672
10.02477687
7.585065135
5.846621006
4.600905911
3.699628298
3.04002101
2.55147678
2.185146475
1.90679784
1.692056497
1.523571602
1.389974075
1.284955678
1.204274075
1.142834825
1.095648205
1.059561861
1.032985563
1.014628147
1.002809743
0.9956542801
0.9915331392
0.9892784905
0.9881375905
0.9876298085
0.9870881015
0.9863830828
0.9858684636
0.9856687986
0.9856287649
0.985677115
0.9857848244
0.9859448838
0.9861633368
0.9864564532
0.9868518988
0.9873938761
0.9881547559
0.9892608413
0.9909548949
0.9938153583
931583.909
435925.9035
201782.1434
65835.38902
14006.84205
4156.754544
2065.755895
1192.740031
710.2466375
432.9706244
268.0746766
168.8312387
108.0304952
71.05592729
49.54096333
34.65800438
24.2176637
17.21375731
12.62486577
9.393812061
7.114393932
5.501286518
4.349653055
3.517287795
2.907739122
2.455446002
2.115338617
1.856004241
1.655164253
1.496977066
1.370941974
1.271389557
1.194622393
1.136016846
1.090929206
1.05641944
1.031006424
1.013462284
1.002171108
0.995331806
0.9913869866
0.9892243879
0.9881295717
0.9876277505
0.9870709483
0.9863556242
0.9858791742
0.9856979127
0.9856679103
0.9857232248
0.9858372391
0.9860040006
0.9862299879
0.9865316141
0.9869365323
0.987488819
0.9882605923
0.9893776282
0.9910812838
0.9939425957
926832.5303
421110.0342
176880.8536
52235.69851
11020.37626
3787.109359
1973.304092
1146.89726
681.593052
414.8882145
256.3358021
161.0409507
102.8192656
67.62060117
46.98903616
32.60093342
22.67050213
16.11796025
11.80105202
8.781140253
6.667817938
5.179648215
4.118553659
3.351052983
2.787899125
2.368790001
2.05244706
1.810209968
1.621815635
1.472803125
1.353549803
1.25893524
1.185725291
1.129702188
1.086533362
1.053473872
1.02913982
1.012355906
1.00156079
0.9950207891
0.9912440349
0.9891699035
0.9881206928
0.9876222567
0.9870509641
0.9863310225
0.9858903904
0.9857266643
0.9857064401
0.9857687139
0.985889134
0.9860627606
0.9862965061
0.9866069423
0.9870217296
0.9875848304
0.9883680898
0.9894966329
0.9912099714
0.9940700782
923033.1662
401517.0628
159128.5652
41534.99942
8952.723631
3517.08321
1885.630516
1098.375042
651.9041371
396.0199026
244.0397494
152.8636834
97.35262756
64.0453933
44.26938109
30.47466571
21.12259501
15.03850019
11.00019861
8.199170339
6.252506538
4.884515912
3.908346076
3.20077785
2.679999499
2.290917792
1.995925411
1.768970176
1.591661029
1.450822357
1.337640794
1.247484141
1.177508519
1.123842496
1.082431718
1.050709624
1.027378475
1.011306211
1.000978122
0.9947214223
0.9911047195
0.9891154216
0.9881113037
0.9876134866
0.9870280322
0.9863092611
0.9859022092
0.9857551837
0.9857444947
0.985813729
0.9859406622
0.9861213232
0.9863630541
0.986682598
0.9871076388
0.9876820316
0.9884773241
0.9896178604
0.9913408635
0.9941977298
918349.5575
379208.0573
142315.9573
32812.57011
7505.722932
3303.584166
1800.097929
1048.644957
621.3202203
376.4757162
231.2775865
144.3746436
91.73091252
60.37517317
41.42008129
28.32511821
19.60699467
13.98952005
10.23737604
7.658019359
5.872283919
4.616705545
3.718732754
3.065759619
2.583246963
2.221098561
1.945168819
1.731822889
1.56436846
1.430807682
1.32306213
1.236932678
1.169902088
1.118392198
1.078596676
1.048111528
1.025714965
1.010310089
1.000422141
0.9944336827
0.9909693387
0.989061247
0.9881017215
0.9876016315
0.9870020841
0.9862902795
0.9859147031
0.9857835866
0.9857822047
0.985858408
0.985991968
0.986179838
0.9864297836
0.9867587294
0.987194395
0.9877805311
0.9885883576
0.9897413007
0.9914738548
0.9943254629
912965.1899
350879.99
123352.3351
25570.27653
6474.267681
3115.79819
1715.793503
998.0309427
590.1499266
356.4759602
218.2040648
135.727751
86.08111435
56.63071068
38.49537859
26.18982181
18.15227816
12.9871186
9.526314469
7.163352787
5.528104672
4.375680712
3.548730659
2.944944094
2.49668674
2.158543351
1.899563783
1.698310117
1.539617308
1.41254203
1.309669578
1.227184406
1.162841353
1.113309198
1.075002519
1.045665189
1.024142021
1.009364321
0.9998917185
0.9941573974
0.9908380854
0.9890076161
0.9880922374
0.9875869014
0.9869730804
0.9862739906
0.9859279263
0.9858119769
0.9858196915
0.9859028806
0.9860431866
0.9862384439
0.9864968348
0.9868354722
0.98728212
0.9878804233
0.9887012378
0.9898669282
0.9916088265
0.994453179
905257.6714
328814.8187
106211.1392
19897.80272
5758.626161
2950.150881
1632.468846
947.4101384
558.9129532
336.3252038
205.137011
127.1512107
80.35384521
52.82251512
35.56307395
24.13345012
16.78114357
12.04774696
8.876123669
6.716644521
5.219110843
4.16007455
3.396944147
2.837092966
2.419305298
2.102465404
1.858521787
1.668006273
1.51710995
1.395824766
1.297330637
1.218151455
1.15626773
1.108555337
1.071625777
1.043357281
1.022652751
1.008465736
0.9993856501
0.9938923001
0.9907110754
0.9889547063
0.9880831249
0.9875695176
0.9869409938
0.9862602937
0.9859419204
0.985840448
0.9858570675
0.9859472673
0.9860944435
0.9862972697
0.9865643363
0.9869129493
0.9873709221
0.9879817882
0.9888159973
0.9899947013
0.9917456425
0.9945807703
893927.537
317455.5119
89436.08159
15611.66733
5272.597166
2801.529482
1549.093156
897.6249165
528.0474806
316.752403
192.2054777
118.5001112
74.61149824
48.93732361
32.70057223
22.20543963
15.51049242
11.18539019
8.289970776
6.316665805
4.943387205
3.968021424
3.26175826
2.740901742
2.350097814
2.052115989
1.82149826
1.640523346
1.496576816
1.380474407
1.285925741
1.20975491
1.15012879
1.104096457
1.068445336
1.041175681
1.02124077
1.00761131
0.9989027259
0.9936380702
0.9905883697
0.988902643
0.9880746511
0.9875497097
0.9869057915
0.9862490823
0.9859567175
0.9858690841
0.9858944363
0.9859916798
0.9861458546
0.9863564333
0.9866324051
0.9869912708
0.9874608954
0.9880846909
0.9889326525
0.9901245616
0.9918841506
0.9947081198
878265.8202
313336.1335
72865.40148
12716.05146
4951.017085
2666.580655
1469.782944
850.2611016
498.6026045
297.2275033
179.206052
109.8575818
68.93265217
45.06993587
29.98653707
20.42773368
14.35155655
10.4076603
7.766633107
5.960776962
4.698440572
3.797414407
3.141495646
2.655090429
2.288116651
2.006808338
1.788002953
1.615515939
1.477778977
1.366330077
1.275348944
1.20192503
1.144378307
1.099902441
1.065442509
1.039109569
1.019900295
1.006798242
0.998441783
0.9933943664
0.9904699939
0.9888515053
0.9880639503
0.9875277161
0.9868674186
0.9862402498
0.9859723427
0.9858979609
0.9859318927
0.9860362205
0.986197526
0.9864160418
0.9867011454
0.9870705329
0.987552119
0.9881891801
0.9890512023
0.9902564316
0.9920241936
0.9948350994
858353.3746
298090.0502
56967.59845
10874.80251
4705.834133
2531.837187
1396.805127
804.2627075
469.1586894
277.6724773
166.2249352
101.3268556
63.41209769
41.33285594
27.48308715
18.81820965
13.31005886
9.714631273
7.302356521
5.645489305
4.481423373
3.646036723
3.034489458
2.578437791
2.232483566
1.965918873
1.757596894
1.592677368
1.460504909
1.353249196
1.265506252
1.194600022
1.138975397
1.095946661
1.062600727
1.037149277
1.018626087
1.006023945
0.9980017125
0.9931608367
0.9903559472
0.9888014518
0.9880504916
0.9875037875
0.9868257798
0.9862336926
0.9859888156
0.9859271465
0.9859695229
0.9860809829
0.9862495537
0.986476191
0.9867706496
0.9871508182
0.9876446566
0.9882952878
0.9891716278
0.9903902169
0.9921656145
0.9949615698
834413.7211
273865.6867
43040.8932
9718.248376
4486.944536
2406.685143
1324.721352
758.7063706
439.865266
258.2240255
153.4116681
93.05052918
58.15750237
37.83488615
25.22493913
17.3813817
12.38131917
9.101718333
6.892321855
5.366969318
4.289413742
3.511723354
2.93917033
2.509824544
2.182409111
1.928894668
1.729894429
1.57173968
1.444570113
1.34110723
1.256315444
1.187725854
1.133884358
1.09220588
1.059905504
1.0352863
1.017413488
1.005286079
0.9975814866
0.9929371361
0.9902462103
0.9887526391
0.9880344995
0.9874781936
0.9867807217
0.9862293119
0.9860061516
0.9859567014
0.9860074049
0.9861260511
0.9863020235
0.9865369653
0.9868409968
0.9872321948
0.9877385561
0.9884030287
0.9892938909
0.990525806
0.9923082384
0.995087384
806928.1613
242203.8628
32165.93507
9051.881144
4287.720307
2284.561314
1254.238775
714.0189927
410.9755089
239.0835978
140.9665024
85.18769256
53.26652664
34.65224198
23.21963847
16.11180429
11.56157089
8.562239886
6.531258633
5.121296322
4.119557819
3.392432679
2.854096884
2.448242459
2.137192013
1.895249328
1.704558525
1.552469624
1.429814179
1.329795769
1.247704846
1.181255429
1.129074108
1.088659895
1.057344231
1.033513196
1.016258379
1.004582546
0.9971801633
0.9927229346
0.9901407521
0.9887052023
0.9880161825
0.9874512341
0.9867387068
0.9862270145
0.9860243624
0.9859866793
0.9860456082
0.9861715001
0.9863550109
0.9865984377
0.9869122533
0.9873147161
0.9878338489
0.9885123992
0.9894179341
0.99066307
0.9924518679
0.9952123893
775979.2521
205442.6612
24894.80698
8598.621443
4092.457895
2166.499312
1185.779459
670.4485681
382.6708748
220.4523653
129.0984408
77.87433687
48.80470842
31.81584635
21.4560375
14.99743961
10.8422697
8.088723878
6.213758636
4.904622528
3.96914916
3.286278765
2.777963562
2.392791314
2.096212455
1.864555967
1.681294775
1.534664028
1.416097506
1.319220361
1.23961192
1.175147655
1.124517571
1.085291134
1.054905941
1.031823461
1.015157124
1.003911466
0.9967968815
0.9925179179
0.9900395328
0.9886592643
0.9879957313
0.9874229705
0.9867012728
0.9862267125
0.9860434558
0.986017127
0.9860841939
0.986217395
0.9864085808
0.9866606689
0.9869844716
0.9873984196
0.9879305487
0.9886233765
0.9895436795
0.9908018606
0.9925962924
0.9953364248
741191.5739
167754.4888
20617.71087
8188.790884
3896.549696
2053.66964
1119.930992
628.3262664
355.2044396
202.6029225
118.0275425
71.21455937
44.8052941
29.32402873
19.91555808
14.02408795
10.21334589
7.673866353
5.934723777
4.713416299
3.83575614
3.191594954
2.709630756
2.342692234
2.058937457
1.836449013
1.65985174
1.51814966
1.403301131
1.309300475
1.231983313
1.169367481
1.120191685
1.082084667
1.052581316
1.030211545
1.01410659
1.003271196
0.9964308757
0.9923217977
0.9899425118
0.9886149485
0.9879733302
0.987393389
0.9866681341
0.9862283234
0.9860634366
0.9860480841
0.9861232146
0.9862637915
0.9864627869
0.9867237072
0.9870576899
0.9874833271
0.9880286515
0.9887359178
0.9896710277
0.9909420105
0.9927412873
0.9954593244
702207.8274
134123.8439
17911.94376
7790.761408
3711.108577
1946.305709
1056.8383
587.773631
328.7664972
185.7874697
107.9058649
65.25126282
41.24883809
27.15205691
18.57483254
13.17586393
9.664051389
7.310374753
5.689223793
4.544347019
3.717129865
3.106862216
2.648070811
2.297248103
2.02489245
1.810604097
1.64000686
1.50277344
1.391320012
1.299964974
1.224771859
1.163883934
1.116076118
1.079027372
1.050362172
1.028672553
1.013103985
1.002660255
0.996081441
0.992134298
0.9898496429
0.9885723855
0.9879491614
0.9873624545
0.9866390292
0.986231769
0.9860843055
0.9860795836
0.9861627142
0.9863107353
0.9865176717
0.9867875881
0.9871319317
0.9875694434
0.9881281342
0.9888499598
0.9897998578
0.9910833333
0.9928866143
0.9955809188
659448.62
105060.9182
16258.18601
7430.34747
3536.753806
1845.020736
996.8077225
549.004555
303.6371727
170.2640645
98.82593451
59.98971143
38.1337507
25.26797861
17.41070644
12.43755158
9.18433235
6.991581203
5.472825221
4.394460021
3.611296421
3.030757663
2.592393741
2.255857484
1.993669044
1.786742574
1.621569209
1.488404214
1.380064262
1.291153037
1.217937266
1.158670586
1.112153578
1.076108136
1.048241594
1.027202327
1.012146915
1.00207735
0.9957479532
0.991955166
0.9897608802
0.9885317266
0.9879234104
0.9873300956
0.9866137182
0.9862369748
0.9861060599
0.9861116512
0.9862027277
0.9863582618
0.9865732659
0.9868523331
0.9872072046
0.9876567549
0.9882289536
0.9889654163
0.9899300257
0.9912256223
0.9930320204
0.9957010334
612999.294
80905.63982
15168.956
7109.433928
3373.972579
1750.350813
940.1274467
512.2363003
280.1175521
156.2138336
90.80522963
55.39736041
35.42983177
23.63758992
16.40083991
11.794841
8.764934166
6.711457513
5.281578226
4.261153583
3.516533307
2.962134653
2.541831946
2.21800357
1.964917317
1.76462627
1.604375977
1.474930426
1.369457625
1.282813212
1.21144555
1.153705225
1.108409603
1.073317727
1.046213855
1.025797416
1.011233369
1.001521383
0.9954298718
0.9917841755
0.9896761788
0.9884931566
0.9878962747
0.9872961885
0.9865919812
0.9862438687
0.9861286915
0.9861443037
0.9862432788
0.9864063928
0.9866295846
0.9869179464
0.9872834962
0.9877452256
0.9883310407
0.9890821732
0.9900613581
0.9913686443
0.9931772332
0.9958194833
562488.5733
62055.56315
14484.37128
6827.229867
3223.405054
1662.719473
887.0496635
477.6880773
258.4806704
143.7111107
83.801615
51.41774333
33.09344617
22.22777072
15.52450069
11.23467782
8.397538381
6.464651638
5.112010537
4.142157947
3.4313461
2.900002237
2.495723819
2.183241738
1.938336612
1.744050785
1.588287613
1.462256602
1.359434961
1.274901625
1.205267782
1.148968976
1.104831953
1.070648367
1.044274134
1.024454887
1.010361609
1.000991387
0.9951267106
0.9916211123
0.9895954848
0.9884569041
0.9878679733
0.9872605333
0.9865736137
0.9862523801
0.9861521877
0.9861775506
0.9862843822
0.9864551401
0.9866866311
0.9869844181
0.9873607779
0.9878348012
0.9884343066
0.9892000945
0.9901936604
0.9915121488
0.9933219692
0.9959360818
506434.0666
49185.90519
14163.19036
6554.448349
3085.328149
1582.115153
837.6009555
445.4842373
238.8707857
132.711232
77.72363043
47.9777264
31.07482887
21.00633534
14.76200358
10.74484279
8.074452414
6.246262791
4.960967123
4.035422656
3.354390318
2.843471492
2.453477093
2.151174573
1.913658558
1.724833939
1.573179984
1.450298037
1.349938671
1.267379629
1.19937857
1.144445333
1.101409989
1.068093345
1.042418282
1.023172199
1.00953011
1.000486497
0.9948380258
0.9914657701
0.989518728
0.9884232569
0.9878387633
0.9872228282
0.9865584251
0.9862624401
0.9861765314
0.9862113938
0.9863260432
0.9865045038
0.9867443951
0.9870517229
0.9874390032
0.9879254068
0.9885386399
0.9893190197
0.9903267139
0.991655865
0.9934659317
0.9960506445
443942.925
40838.02803
14012.34738
6284.57599
2959.339633
1508.336093
791.7319189
415.7284864
221.3266905
123.1096488
72.46598356
45.00539021
29.32818403
19.94534534
14.09643796
10.31492019
7.78916257
6.052163808
4.8258025
3.939234173
3.284545388
2.791803217
2.414600286
2.121472958
1.890661463
1.706825688
1.558951222
1.438985533
1.340921946
1.260216009
1.193757537
1.140121132
1.098135295
1.065647401
1.040643048
1.021947331
1.008737626
1.00000599
0.9945634362
0.9913179598
0.9894458137
0.9883925825
0.9878089675
0.9871826358
0.9865462365
0.9862739791
0.9862016998
0.9862458261
0.9863682557
0.9865544708
0.9868028515
0.9871198179
0.9875181059
0.9880169459
0.9886439045
0.9894387622
0.9904602757
0.9917995024
0.9936088116
0.9961629924
373519.1322
35584.01459
13931.52923
6044.360433
2846.237092
1441.608117
749.552188
388.5548056
205.8058738
114.7728151
67.92272924
42.43404825
27.8127304
19.02047755
13.51313784
9.935906241
7.536053831
5.878804654
4.70424457
3.852122193
3.220850424
2.744363875
2.378672385
2.093855191
1.869155847
1.689898082
1.545514763
1.428260578
1.332345482
1.253384782
1.188387874
1.135985602
1.095001067
1.063306339
1.038945851
1.020778656
1.007983126
0.9995492515
0.9943026107
0.9911775055
0.9893766018
0.9883653484
0.9877790151
0.9871393374
0.9865368795
0.986286927
0.9862276635
0.9862808314
0.986411002
0.9866050145
0.9868619586
0.9871886416
0.9875979982
0.9881092974
0.988749938
0.9895591073
0.9905940769
0.9919427482
0.9937502859
0.996272946
292424.9104
32343.28423
13863.06415
5830.39706
2744.835397
1381.274938
710.7335833
363.8425775
192.1081754
107.5029088
63.97449674
40.19567367
26.489327
18.20891723
12.99853003
9.59955831
7.31003134
5.72298752
4.594259051
3.772777292
3.16245388
2.700594729
2.345323976
2.068075571
1.848977567
1.673941179
1.532796943
1.418073961
1.324176676
1.246864748
1.183256119
1.132030287
1.092002098
1.06106704
1.0373248
1.019664961
1.007265819
0.999115796
0.9940552836
0.991044257
0.9893108797
0.9883421482
0.9877495085
0.987093425
0.9865301936
0.9863012098
0.986254383
0.9863163787
0.9864542467
0.986656087
0.9869216507
0.9872581047
0.9876785605
0.9882023049
0.9888565384
0.9896797986
0.9907278085
0.9920852512
0.9938900022
0.9963803132
193929.9607
30579.73168
13774.34587
5644.376018
2655.94533
1327.532438
675.2969059
341.5614345
179.9698197
101.1658283
60.53392589
38.23885422
25.32753998
17.49284483
12.54195522
9.299375775
7.107063562
5.582175328
4.494228803
3.700157297
3.108677623
2.660050914
2.314261304
2.043939285
1.829996991
1.658868661
1.520740398
1.408387779
1.316390793
1.240640128
1.178352453
1.128249135
1.089134758
1.058927391
1.035778611
1.018605376
1.006585092
0.998705228
0.9938212314
0.9909180848
0.9892483046
0.9883189353
0.9877211885
0.9870527207
0.9865260246
0.9863167513
0.9862818123
0.986352428
0.9864979431
0.9867076272
0.9869818465
0.9873280996
0.9877596531
0.9882957898
0.9889634801
0.9898005568
0.9908611411
0.9922266426
0.9940276057
0.9964849114
62076.3845
29982.20084
13557.44611
5484.202405
2578.690636
1279.774076
641.5201322
320.8493681
169.2250698
95.60039239
57.50888672
36.512713
24.29858363
16.85565349
12.13359091
9.029423414
6.923497765
5.454084389
4.402706732
3.633334812
3.05892149
2.622340975
2.285227592
2.021277324
1.812102646
1.644607083
1.50929694
1.399170689
1.308967758
1.23469841
1.17366929
1.124637595
1.086396417
1.056885924
1.034306386
1.017599249
1.005940452
0.9983172151
0.9936002632
0.9907988972
0.9891888519
0.9882957312
0.9876941829
0.987016918
0.9865242231
0.9863334723
0.9863098978
0.9863889284
0.986542031
0.9867595581
0.9870424462
0.9873984978
0.9878411127
0.9883895475