/*--------------------------------*- C++ -*----------------------------------*\
  =========                 |
  \\      /  F ield         | OpenFOAM: The Open Source CFD Toolbox
   \\    /   O peration     | Website:  https://openfoam.org
    \\  /    A nd           | Version:  12
     \\/     M anipulation  |
\*---------------------------------------------------------------------------*/
FoamFile
{
    format      ascii;
    class       surfaceScalarField;
    location    "800";
    object      phi;
}
// * * * * * * * * * * * * * * * * * * * * * * * * * * * * * * * * * * * * * //

dimensions      [1 0 -1 0 0 0 0];

internalField   nonuniform List<scalar> 
32120
(
-0.0006255858316
-0.04530094966
0.04592653549
-0.001403221305
-0.06438655687
0.06516419345
-0.00236206515
-0.08371819291
0.08467703751
-0.003518215261
-0.1064075296
0.1075636805
-0.004798130346
-0.1343730705
0.1356529866
-0.005994208796
-0.1700495925
0.1712456724
-0.007032406366
-0.216295322
0.2173335217
-0.009895917595
-0.2728641302
0.2757276451
-0.01754237957
-0.3313195485
0.3389660161
-0.02798184211
-0.3950202171
0.4054596873
-0.04041955138
-0.4701888643
0.4826265832
-0.05518296988
-0.559785074
0.5745485041
-0.07273091102
-0.6663775819
0.6839255367
-0.09358944457
-0.79330543
0.8141639794
-0.1183762071
-0.9443529517
0.9691397324
-0.1478303407
-1.124151203
1.153605357
-0.1828235765
-1.33811155
1.37310481
-0.2243958782
-1.592725318
1.634297645
-0.2737791245
-1.895657202
1.945040476
-0.3324409502
-2.25602785
2.314689706
-0.4021262215
-2.684630523
2.754315826
-0.4849163219
-3.194253098
3.277043232
-0.5832966415
-3.800005173
3.898385523
-0.7002450753
-4.519716317
4.636664784
-0.8393396
-5.374374591
5.513469141
-1.004893708
-6.388632094
6.55418623
-1.202122983
-7.591381043
7.788610334
-1.437342277
-9.016437997
9.251657308
-1.718180779
-10.7033992
10.98423772
-2.053779466
-12.69878472
13.03438344
-2.454925127
-15.05763405
15.45877974
-2.934095235
-17.84572166
18.32489183
-3.505465653
-21.14244932
21.7138198
-4.185021899
-25.04428106
25.72383736
-4.99092379
-29.66847817
30.47438012
-5.944163527
-35.15701667
36.11025647
-7.069415848
-41.68080816
42.80606054
-8.395900417
-49.44453543
50.77102008
-9.95810317
-58.69241924
60.25462204
-11.79627192
-69.71525234
71.55342118
-13.95667407
-82.85898706
85.01938924
-16.49159385
-98.53527322
101.0701931
-19.45899256
-117.2343003
120.201699
-22.92165177
-139.5404374
143.0030967
-26.94546975
-166.1511718
170.1749898
-31.59642491
-197.9000491
202.5510043
-36.9354722
-235.7844048
241.1234521
-43.01033
-280.9990049
287.0738628
-49.84265068
-334.9769502
341.8092709
-57.40841036
-399.4396259
407.0053856
-65.60840608
-476.4579465
484.6579422
-74.2244172
-568.5278072
577.1438183
-82.85462469
-678.6635466
687.293754
-90.81920735
-810.5143107
818.4788934
-97.02309756
-968.5099446
974.7138348
-99.75730086
-1158.045009
1160.779212
-96.41261635
-1385.713733
1382.369048
-83.06696241
-1659.611175
1646.265521
-53.89479164
-1989.702981
1960.530811
-2388.363425
2334.790386
-0.0005519573438
-0.0447489918
-0.001247726577
-0.06369078653
-0.002097016695
-0.0828689019
-0.003101131539
-0.1054034138
-0.004191227986
-0.1332829727
-0.005208589125
-0.1690322293
-0.006187983522
-0.2153159242
-0.01007775922
-0.2689743492
-0.01755911411
-0.3238381861
-0.02681926846
-0.385760053
-0.03782648191
-0.459181639
-0.05092584429
-0.5466856977
-0.06650794611
-0.650795464
-0.08504676769
-0.77476659
-0.1070975715
-0.9223021269
-0.1333274867
-1.097921264
-0.1645225618
-1.306916449
-0.2016218583
-1.555625992
-0.2457376269
-1.851541402
-0.2981963279
-2.203569115
-0.3605775243
-2.622249293
-0.4347709939
-3.120059591
-0.5230430739
-3.71173306
-0.6281232759
-4.41463608
-0.753312552
-5.249185289
-0.9026219479
-6.239322669
-1.080944107
-7.413058866
-1.294250598
-8.80313148
-1.549789949
-10.4478598
-1.856240473
-12.39233413
-2.223761715
-14.69011272
-2.663930627
-17.40555261
-3.189654228
-20.61672563
-3.815245579
-24.41868948
-4.556812109
-28.92691159
-5.432952398
-34.28087602
-6.465617528
-40.648143
-7.680951743
-48.22920073
-9.10997967
-57.26339131
-10.78907515
-68.03615636
-12.76019962
-80.88786259
-15.07089246
-96.22458
-17.77394594
-114.531247
-20.92660373
-136.3877795
-24.58899282
-162.4887827
-28.82135439
-193.6676874
-33.67940483
-230.9263543
-39.20688155
-275.4715281
-45.42390609
-328.7599255
-52.30919745
-392.5543345
-59.77331356
-468.9938303
-67.61886945
-560.6822513
-75.48197349
-670.8004425
-82.74653411
-803.2497501
-88.41973645
-962.8367421
-90.95175951
-1155.512986
-87.9759347
-1388.689558
-75.93439258
-1671.652717
-49.54178157
-2016.095592
-2436.886597
-0.0004299962573
-0.04431899484
-0.0009554683793
-0.06316531297
-0.001581807111
-0.08224256198
-0.00227503034
-0.1047101892
-0.002920717066
-0.1326372841
-0.003393958959
-0.1685589844
-0.004093392492
-0.2146164859
-0.008239695244
-0.2648280392
-0.01503643788
-0.3170414335
-0.02328765426
-0.3775088241
-0.03309305563
-0.4493762227
-0.04475989151
-0.5350188445
-0.05863647793
-0.6369188576
-0.07514566814
-0.7582573769
-0.09478025507
-0.9026675141
-0.1181341674
-1.074567322
-0.14590699
-1.279143595
-0.1789368191
-1.522596128
-0.2182195021
-1.812258683
-0.2649480692
-2.15684051
-0.3205507275
-2.566646598
-0.3867458206
-3.053864461
-0.4656070801
-3.632871769
-0.5596514882
-4.320591638
-0.6719535013
-5.136883255
-0.8062924661
-6.104983681
-0.9673276697
-7.252023653
-1.160784528
-8.609674609
-1.393614673
-10.21502964
-1.67407235
-12.11187642
-2.01165343
-14.35253161
-2.416927298
-17.00027869
-2.901420213
-20.13223269
-3.477749212
-23.8423604
-4.160098075
-28.24456271
-4.964955304
-33.47601869
-5.911944018
-39.70115428
-7.02458627
-47.11655834
-8.330910086
-55.9570675
-9.86386611
-66.5032002
-11.66154186
-79.09018687
-13.76715575
-94.11896602
-16.2287618
-112.069641
-19.09851556
-133.5180257
-22.43125022
-159.1560481
-26.28195505
-189.8169825
-30.70156978
-226.5067396
-35.73023051
-270.4428673
-41.386727
-323.103429
-47.65238659
-386.2886749
-54.44683331
-462.1993836
-61.5919447
-553.5371399
-68.7587624
-663.6336248
-75.3898513
-796.6186612
-80.58640356
-957.6401899
-82.944851
-1153.154538
-80.32128743
-1391.313121
-69.4921951
-1682.481809
-45.66809151
-2039.919696
-2480.756008
-0.0003211721186
-0.04399782195
-0.0007019210199
-0.06278456261
-0.001141904686
-0.08180257709
-0.001574346232
-0.1042777462
-0.001828295956
-0.1323833323
-0.001780104141
-0.168607173
-0.002709996353
-0.2136865886
-0.006980216248
-0.2605578118
-0.01307503258
-0.3109466071
-0.02035886229
-0.3702249821
-0.02901451763
-0.4407205528
-0.03931407607
-0.5247192691
-0.05156270675
-0.6246702074
-0.06613576129
-0.7436843001
-0.08346957434
-0.885333676
-0.1040928634
-1.053944005
-0.1286297622
-1.254606665
-0.1578307712
-1.493395086
-0.1925906609
-1.777498759
-0.2339849479
-2.115446186
-0.2833067055
-2.517324806
-0.342121321
-2.995049809
-0.4123359066
-3.562657155
-0.4962950839
-4.236632431
-0.5969046971
-5.036273624
-0.7177829905
-5.98410537
-0.8634290144
-7.10637762
-1.039382909
-8.433720709
-1.252326663
-10.00208588
-1.510056558
-11.8541465
-1.821303506
-14.04128463
-2.195507371
-16.62607478
-2.642752538
-19.6849875
-3.174024002
-23.31108889
-3.801777855
-27.61680884
-4.540685572
-32.7371109
-5.408388861
-38.83345097
-6.426156253
-46.09879086
-7.619397149
-54.76382659
-9.018018053
-65.10457921
-10.65661963
-77.4515853
-12.57449687
-92.2010887
-14.81538118
-109.8287567
-17.42678136
-130.9066254
-20.45869419
-156.1241353
-23.96132329
-186.3143533
-27.98127365
-222.4867892
-32.55544099
-265.8687
-37.70147543
-317.9573946
-43.40320447
-380.5869458
-49.5886998
-456.0138882
-56.09766413
-547.0281756
-62.63337295
-657.097916
-68.69243602
-790.5595981
-73.46254868
-952.8700772
-75.67462509
-1150.942462
-73.38948361
-1393.598263
-63.69077339
-1692.180519
-42.24442909
-2061.36604
-2520.330701
-0.0002190034738
-0.04377881751
-0.000454988931
-0.06254857561
-0.0007035132654
-0.0815540514
-0.0008762837715
-0.104104974
-0.0007626174653
-0.1324969962
-0.0002186731376
-0.1691511136
-0.001523909297
-0.2123813465
-0.005598818889
-0.2564828937
-0.01094528359
-0.3056001316
-0.0173085533
-0.3638616993
-0.02487711429
-0.4331519766
-0.03389005029
-0.5157063155
-0.04461585017
-0.6139443874
-0.05738767458
-0.7309124529
-0.07259172361
-0.8701296015
-0.09069729782
-1.035838403
-0.1122587375
-1.233045195
-0.137943891
-1.4677099
-0.168551909
-1.746890708
-0.2050490627
-2.078948999
-0.2486087355
-2.473765102
-0.3006704816
-2.94298803
-0.3630166961
-3.500310915
-0.4378744754
-4.161774624
-0.5280423322
-4.946105753
-0.6370387271
-5.875108961
-0.7692566762
-6.974159662
-0.9300825743
-8.272894805
-1.125908764
-9.806259676
-1.363980837
-11.6160744
-1.652127481
-13.75313796
-1.998555451
-16.27964678
-2.41191427
-19.27162865
-2.901695747
-22.82130737
-3.478868326
-27.03963623
-4.156578652
-32.05940052
-4.950797364
-38.03923223
-5.880855141
-45.16873302
-6.969862602
-53.67481911
-8.245014062
-63.82942768
-9.737765983
-75.95883337
-11.48385288
-90.45500176
-13.52306833
-107.7895412
-15.89868164
-128.5310121
-18.65627983
-153.3665371
-21.84171373
-183.1289194
-25.49766271
-218.8308403
-29.65812044
-261.7082422
-34.33978238
-313.2757327
-39.52888725
-375.3978409
-45.16139967
-450.3813758
-51.09355042
-541.0960248
-57.05843361
-651.1330328
-62.60246678
-785.015565
-66.99306265
-948.4794814
-69.08489848
-1148.850626
-67.12711015
-1395.556051
-58.48574148
-1700.821888
-39.24527569
-2080.606506
-2555.935774
-0.0001387884417
-0.04364002814
-0.0002476509102
-0.06243971175
-0.0003179326006
-0.08148376844
-0.0002298208361
-0.1041930842
0.0002449845222
-0.1329717992
0.001033234444
-0.1699393598
-0.0005365441365
-0.2108115622
-0.00410283354
-0.2529165966
-0.008765416933
-0.3009375385
-0.01431351943
-0.3583135853
-0.02091298873
-0.4265524938
-0.02877340307
-0.5078458857
-0.0381279147
-0.6045898581
-0.04926831855
-0.7197720291
-0.06253228803
-0.8568656099
-0.07833193507
-1.020038732
-0.0971565512
-1.214220553
-0.1195999378
-1.445266486
-0.1463804572
-1.720110161
-0.1783779952
-2.046951431
-0.2166775712
-2.435465499
-0.2626313763
-2.897034197
-0.3179398469
-3.445002424
-0.3847574828
-4.094956966
-0.4658225863
-4.865040636
-0.5646011712
-5.776330364
-0.6854144639
-6.853346358
-0.8334873877
-8.124821868
-1.014841659
-9.624905389
-1.236029124
-11.39488691
-1.503841342
-13.48532571
-1.825213995
-15.95827409
-2.20746005
-18.88938256
-2.658786256
-22.36998113
-3.188932388
-26.50949007
-3.809786171
-31.4385467
-4.535903599
-37.31311478
-5.384930247
-44.31970632
-6.377939178
-52.68181015
-7.539692978
-62.66767383
-8.898809259
-74.59971707
-10.48779341
-88.86601757
-12.34285903
-105.9344756
-14.50341774
-126.3704534
-17.01105053
-150.8589043
-19.90766156
-180.2323084
-23.23239072
-215.5061111
-27.01664796
-257.923985
-31.27635923
-309.0160214
-36.00010138
-370.6740988
-41.13124885
-445.2502283
-46.54140344
-535.6858702
-51.99123857
-645.6831976
-57.07322272
-779.9335808
-61.12827387
-944.4244302
-63.12509593
-1146.853804
-61.48621771
-1397.194929
-53.83751942
-1708.470586
-36.64847113
-2097.795554
-2587.865026
-7.186622569e-05
-0.04356816104
-6.246794259e-05
-0.0624491088
4.897655134e-05
-0.08159521178
0.0004254494999
-0.1045695557
0.001316606623
-0.1338629542
0.001993667128
-0.1706164168
0.0002845712745
-0.2091024613
-0.003056524474
-0.2495754941
-0.007068459576
-0.2969255952
-0.0118428008
-0.3535392343
-0.01752088009
-0.4208744033
-0.02428524771
-0.5010815052
-0.03233723437
-0.5965378568
-0.04193166849
-0.7101775785
-0.05336457967
-0.8454326805
-0.06700008482
-1.006403207
-0.08327480589
-1.197945811
-0.1027241796
-1.425817089
-0.1260045861
-1.696829732
-0.1539310129
-2.019024981
-0.187523789
-2.401872703
-0.2280745559
-2.856483408
-0.2772339185
-3.395843045
-0.3371237971
-4.035067068
-0.4104683196
-4.791696102
-0.5007203702
-5.686078303
-0.6121336862
-6.741933028
-0.749706202
-7.987249336
-0.9189504954
-9.455661073
-1.12556904
-11.18826834
-1.375236627
-13.2356581
-1.673674903
-15.65983579
-2.027041832
-18.53601561
-2.442503207
-21.95451973
-2.92881806
-26.02317519
-3.496838167
-30.87052656
-4.159906941
-36.65004598
-4.934183273
-43.54542995
-5.838916495
-51.77707691
-6.896675396
-61.60991488
-8.133509906
-73.36288254
-9.578996778
-87.42053067
-11.26610141
-104.247371
-13.23073761
-124.4058171
-15.51085524
-148.5787867
-18.14479516
-177.5983684
-21.16852148
-212.4823848
-24.61116689
-254.4813395
-28.48806345
-305.1391248
-32.79008431
-366.3720779
-37.46758038
-440.5727323
-42.40648366
-530.7469669
-47.39307316
-640.6966081
-52.06240763
-775.2642463
-55.82329309
-940.6635448
-57.74965144
-1144.927445
-56.42379468
-1398.520786
-49.71094686
-1715.183434
-34.4350153
-2113.071486
-2616.383357
-1.366148922e-05
-0.04355449881
0.0001043097588
-0.06256707904
0.0004022993429
-0.08189320039
0.001075688149
-0.1052429432
0.002373399186
-0.1351606633
0.002754664782
-0.1709976795
0.0007819975088
-0.2071297899
-0.002178805901
-0.2466146853
-0.005567751658
-0.2935366429
-0.009607943708
-0.3494990346
-0.01441889323
-0.4160634449
-0.02015999358
-0.4953403947
-0.02700590025
-0.5896919387
-0.03517991458
-0.7020035513
-0.04494319729
-0.8356693837
-0.05661942121
-0.9947269672
-0.07060130775
-1.183963908
-0.08737589078
-1.409042489
-0.1075492927
-1.676656313
-0.1318865951
-1.99468766
-0.1613645348
-2.372394747
-0.197244843
-2.820603081
-0.2411693151
-3.35191856
-0.295274083
-3.980962284
-0.3623088727
-4.7246613
-0.4457234222
-5.602663744
-0.5496532369
-6.638003198
-0.6787434179
-7.858159134
-0.8378339124
-9.296570555
-1.031664045
-10.99443818
-1.264805425
-13.00251669
-1.541915978
-15.38272521
-1.868230465
-18.20970109
-2.250116091
-21.57263408
-2.695560764
-25.57773049
-3.214552782
-30.35153451
-3.819374747
-36.04522399
-4.524853387
-42.83995128
-5.348589486
-50.95334079
-6.311166114
-60.64733822
-7.43630554
-72.2377431
-8.750934268
-86.10590192
-10.28507664
-102.7132286
-12.07148272
-122.619411
-14.14482602
-146.5054434
-16.54024442
-175.20295
-19.29087209
-209.7317571
-22.42385368
-251.3483579
-25.95410924
-301.6088693
-29.8747773
-362.4514098
-34.14281605
-436.3046935
-38.65756279
-526.2322202
-43.22910335
-636.1250676
-47.53199247
-770.9613572
-51.03784676
-937.1576905
-52.91776732
-1143.047525
-51.90154641
-1399.537007
-46.07509551
-1721.009885
-32.58895698
-2126.557624
-2641.728998
4.08093352e-05
-0.04359530754
0.0002695984377
-0.06279586714
0.0007624971575
-0.08238609815
0.001725154372
-0.1062055992
0.003255395487
-0.1366909025
0.003300531964
-0.1710428132
0.001315461162
-0.2051447152
-0.001070469079
-0.2442287502
-0.003921510845
-0.2906855952
-0.007325843028
-0.3460946956
-0.01138139218
-0.4120078879
-0.01622616511
-0.4904956127
-0.02201108458
-0.583907009
-0.02893132811
-0.6950832964
-0.03721794286
-0.8273827566
-0.04716024382
-0.9847846527
-0.0591150649
-1.172009073
-0.07353202595
-1.394625513
-0.09098251333
-1.659205811
-0.1122039332
-1.973466224
-0.1381597935
-2.346438874
-0.1701196861
-2.788643173
-0.209757361
-3.312280875
-0.2592576283
-3.931462003
-0.3214064125
-4.662512502
-0.3996115388
-5.524458605
-0.4977826416
-6.53983208
-0.6200536772
-7.735888077
-0.7704549678
-9.146169238
-0.9527340457
-10.81215907
-1.170472513
-12.78477819
-1.427478921
-15.12571877
-1.728304659
-17.90887533
-2.078727128
-21.22221158
-2.486123318
-25.17033428
-2.959741416
-29.87791639
-3.510915089
-35.4940503
-4.153261828
-42.19760451
-4.902883189
-50.20371941
-5.778558621
-59.77166276
-6.801904081
-71.21439763
-7.997448115
-84.91035786
-9.392561757
-101.318115
-11.01714327
-120.9948295
-12.9029241
-144.6196625
-15.0821792
-173.0236949
-17.5855381
-207.2283982
-20.4384395
-248.4954565
-23.65556679
-298.391742
-27.23232079
-358.8746558
-31.13194852
-432.4050658
-35.26636895
-522.0977998
-39.46788401
-631.9235525
-43.44772785
-766.9815134
-46.73574355
-933.8696748
-48.59294847
-1141.19032
-47.88544062
-1400.244515
-42.90287856
-1725.992447
-31.09719684
-2138.363306
-2664.115436
9.730391914e-05
-0.043692611
0.0004495241136
-0.06314808644
0.001153912567
-0.08309048575
0.002439789498
-0.107491475
0.003941292729
-0.1381924041
0.003421780675
-0.1705232987
0.001782282985
-0.2035052143
-0.0002015270672
-0.2422449361
-0.002550107457
-0.28833701
-0.005361834825
-0.3432829626
-0.008719027786
-0.4086506884
-0.01274127721
-0.4864733559
-0.0175599155
-0.5790883624
-0.02334623111
-0.6892969714
-0.03030638036
-0.8204225971
-0.03870221529
-0.9763888065
-0.04886449792
-1.161846779
-0.06122004441
-1.382269954
-0.07632598416
-1.644099859
-0.0949186141
-1.954873581
-0.1179786214
-2.323378856
-0.1468140849
-2.759807697
-0.1831565747
-3.275938375
-0.229249894
-3.885368673
-0.2878903961
-4.603871986
-0.3623574449
-5.449991542
-0.4561905783
-6.44599893
-0.5728643259
-7.619214309
-0.7155337547
-9.003499787
-0.8870259477
-10.64066685
-1.090121389
-12.58168273
-1.328013859
-14.88782627
-1.604783865
-17.6321053
-1.925777544
-20.90121788
-2.297870732
-24.79824107
-2.729655972
-29.44613113
-3.231601543
-34.99210471
-3.816217488
-41.61298854
-4.498237215
-49.52169967
-5.294803328
-58.97509662
-6.225626216
-70.28357472
-7.313073198
-83.82291086
-8.582127617
-100.0490605
-10.06013085
-119.5168263
-11.7761832
-142.9036102
-13.76001926
-171.0398588
-16.04007598
-204.9483414
-18.64035272
-245.8951798
-21.57547925
-295.4566154
-24.84312919
-355.6070059
-28.41257095
-428.835624
-32.20758794
-518.3027828
-36.08125829
-628.0498822
-39.77899171
-763.28378
-42.88470863
-930.7639578
-44.74279729
-1139.332231
-44.34549606
-1400.641816
-40.17089254
-1730.167051
-29.9493705
-2148.584828
-2683.733234
0.0001518970779
-0.04384450751
0.0006350831323
-0.06363127151
0.001553805312
-0.08400920695
0.003166290806
-0.1091039592
0.00445825362
-0.139484365
0.003671548175
-0.1697365906
0.002323566978
-0.2021572297
0.0007149430033
-0.2406363079
-0.001196597656
-0.2864254644
-0.003491135706
-0.3409884187
-0.006237211394
-0.4059046061
-0.009537466516
-0.4831730933
-0.01350633765
-0.5751194829
-0.01829561431
-0.6845076855
-0.02409361177
-0.8146245897
-0.03114544287
-0.9693369648
-0.03977001225
-1.153222199
-0.05038900041
-1.371650954
-0.06356585941
-1.63092299
-0.08005870646
-1.938380723
-0.1008898711
-2.302547682
-0.1274285373
-2.73326902
-0.1614756579
-3.241891245
-0.2053187841
-3.841525538
-0.2616995918
-4.547491165
-0.3336443661
-5.378046752
-0.4241730312
-6.355470249
-0.5360059081
-7.507381413
-0.6714512644
-8.868054407
-0.832572073
-10.47954602
-1.021570975
-12.3926838
-1.241242551
-14.66815467
-1.495359479
-17.37798835
-1.78894262
-20.60763472
-2.128435402
-24.45874827
-2.521831465
-29.05273505
-2.978800295
-34.53513587
-3.510833747
-41.08095506
-4.131417548
-48.90111585
-4.85621008
-58.25030406
-5.703204142
-69.43658065
-6.692825613
-82.83328938
-7.847919369
-98.89396676
-9.193544158
-118.1712015
-10.75646636
-141.340688
-12.56418232
-169.2321429
-14.64323168
-202.8692921
-17.01643879
-243.5219727
-19.69855729
-292.7744969
-22.68956909
-352.6159941
-25.9645433
-425.5606498
-29.4584958
-514.8088303
-33.04401908
-624.4643589
-36.4984506
-759.8293484
-39.45605076
-927.8063577
-41.33864884
-1137.449633
-41.25548761
-1400.724977
-37.85916934
-1733.563369
-29.13773836
-2157.306259
-2700.751637
0.0001983352093
-0.04404284217
0.0008190894027
-0.06425202464
0.001955967023
-0.08514608351
0.00377126073
-0.1109192515
0.00451720766
-0.1402303099
0.00380046499
-0.1690198452
0.00273218477
-0.201088946
0.00146674672
-0.2393708656
-4.091433475e-05
-0.2849177983
-0.001858457231
-0.33917087
-0.004045160354
-0.4037178963
-0.006691269169
-0.480526977
-0.009901226722
-0.5719095171
-0.01381592547
-0.6805929778
-0.01861565034
-0.8098248553
-0.02453898641
-0.9634136186
-0.03190367758
-1.145857497
-0.04113826314
-1.362416358
-0.05282731719
-1.619233926
-0.06776959936
-1.923438431
-0.08705045406
-2.283266818
-0.1121162454
-2.708203219
-0.1448318504
-3.20917563
-0.1874791484
-3.798878231
-0.2426399412
-4.492330363
-0.3129462194
-5.307740461
-0.4007841862
-6.267632266
-0.508108768
-7.400056813
-0.6365001362
-8.73966302
-0.7874615439
-10.32858459
-0.9628333894
-12.21731193
-1.165181053
-14.46580699
-1.39807797
-17.14509142
-1.666281375
-20.3394313
-1.975841999
-24.14918763
-2.334195737
-28.69438129
-2.750270443
-34.11906115
-3.234623057
-40.59660243
-3.799604097
-48.3361348
-4.459532808
-57.59037533
-5.230859161
-68.66525428
-6.1322725
-81.93187602
-7.184714249
-97.841525
-8.411220105
-116.9446956
-9.836498275
-139.9154098
-11.48609661
-167.5825445
-13.38494248
-200.9704462
-15.55493593
-241.3519792
-18.01114041
-290.3182924
-20.75589671
-349.8712378
-23.76990061
-422.5466459
-26.9988649
-511.579866
-30.33376179
-621.129462
-33.58185657
-756.5812537
-36.42442381
-924.9637904
-38.35539032
-1135.518667
-38.59274236
-1400.487625
-35.95101288
-1736.205098
-28.65709496
-2164.600177
-2715.319972
0.0002481816325
-0.04429102325
0.001022649327
-0.06502649162
0.002413493669
-0.08653692706
0.004274260861
-0.1127800176
0.004625151063
-0.1405811986
0.003995066145
-0.1683897583
0.003189862792
-0.2002837402
0.002233790458
-0.2384147904
0.001082243299
-0.2837662477
-0.000322178862
-0.3377664438
-0.002032698618
-0.402007372
-0.004131956695
-0.4784277138
-0.00671748219
-0.5693239859
-0.00992244054
-0.6773880133
-0.01392252957
-0.8058247596
-0.01895573261
-0.9583804085
-0.02534898724
-1.139464236
-0.03355446117
-1.354210876
-0.04419896963
-1.60858941
-0.05814391655
-1.909493476
-0.07655245837
-2.264858269
-0.1009463408
-2.683809328
-0.1332195404
-3.176902419
-0.175562113
-3.756535647
-0.230266559
-4.437625905
-0.2994480865
-5.238558921
-0.38481555
-6.18226479
-0.4876376785
-7.297234669
-0.6089455784
-8.6183551
-0.7498930994
-10.18763705
-0.9121348107
-12.0550702
-1.098122115
-14.27981966
-1.311289904
-16.93192361
-1.556161767
-20.09455942
-1.838419137
-23.86693025
-2.164973771
-28.36782665
-2.54406661
-33.7399683
-2.98539965
-40.15526937
-3.500295836
-47.8212386
-4.101872755
-56.9887984
-4.805202019
-67.96192501
-5.627431781
-81.10964625
-6.587818301
-96.88113847
-7.70761761
-115.8248963
-9.009744707
-138.6132827
-10.5180734
-166.0742158
-12.25618992
-199.2323296
-14.24531911
-239.36285
-16.50102065
-288.0625909
-19.02806511
-347.3441933
-21.81264587
-419.7620651
-24.81070533
-508.5818065
-27.93063131
-618.009536
-31.00783755
-753.5040474
-33.76760819
-922.2040198
-35.77120456
-1133.51507
-36.3379004
-1399.920929
-34.43283002
-1738.110169
-28.50472241
-2170.528285
-2727.568978
0.0002991103976
-0.04459013301
0.001226726341
-0.06595410659
0.002848570302
-0.08815876996
0.004579369557
-0.1145108154
0.004718222328
-0.1407200495
0.004228711946
-0.1679002455
0.003627912627
-0.1996829379
0.002905722177
-0.2376925964
0.002028143834
-0.2828886652
0.0009453058723
-0.3366836012
-0.0003896630489
-0.4006723979
-0.00205162693
-0.4767657442
-0.004134599259
-0.5672410074
-0.006769207352
-0.6747533987
-0.01013639061
-0.8024575696
-0.01448889139
-0.9540279009
-0.02018196834
-1.133771152
-0.02771167869
-1.346681159
-0.03776508582
-1.598535996
-0.05127742066
-1.895981134
-0.06948667547
-2.246649007
-0.09396164903
-2.659334346
-0.1265569366
-3.144307122
-0.1692597755
-3.713832798
-0.2239504393
-4.382935234
-0.2921598577
-5.170349494
-0.3749617081
-6.099462928
-0.473087075
-7.199109288
-0.5872166733
-8.504225486
-0.7183352414
-10.05651846
-0.8680350433
-11.90537038
-1.038718074
-14.10913661
-1.233706671
-16.736935
-1.457302303
-19.87096378
-1.71483345
-23.60939909
-2.012720598
-28.06993948
-2.358571985
-33.3941169
-2.761313751
-39.75252759
-3.231346497
-47.35120585
-3.78071488
-56.43943
-4.423270742
-67.31936914
-5.174802063
-80.35811492
-6.053088076
-96.00285246
-7.077837933
-114.8001464
-8.270421432
-137.4206992
-9.653301842
-164.6913354
-11.24898691
-197.6366446
-13.07827053
-237.5335664
-15.15739931
-285.9834621
-17.4936642
-345.0079284
-20.07866666
-417.1770627
-22.87819872
-505.7822744
-25.81722047
-615.0705143
-28.75770815
-750.5635597
-31.46633314
-919.4953948
-33.56739219
-1131.414011
-34.47476914
-1399.013552
-33.29400224
-1739.290936
-28.68029124
-2175.141996
-2737.611905
0.0003791729484
-0.04496930569
0.001488709115
-0.06706364243
0.003257029251
-0.08992708973
0.004579125046
-0.1158329107
0.004520647268
-0.140661571
0.004170294129
-0.1675498916
0.003761837693
-0.1992744805
0.003259936427
-0.237190694
0.002638800505
-0.2822675279
0.001853224123
-0.3358980232
0.0008572722316
-0.399676444
-0.0004222447921
-0.4754862249
-0.002084348249
-0.5655789013
-0.004269652738
-0.6725680911
-0.007176399439
-0.7995508193
-0.01108416961
-0.9501201269
-0.0163867016
-1.128468615
-0.02363202891
-1.339435828
-0.03357374518
-1.588594274
-0.04722131616
-1.882333557
-0.0658716279
-2.227998687
-0.09108673977
-2.634119226
-0.1245853124
-3.110808538
-0.1680373952
-3.670380704
-0.2228297292
-4.32814289
-0.2899179174
-5.103261296
-0.3698565987
-6.019524236
-0.4630200175
-7.105945856
-0.5699182741
-8.397327214
-0.6914986899
-9.934938029
-0.829362994
-11.76750606
-0.9858899392
-13.95260965
-1.16429402
-16.5585309
-1.368658765
-19.66659902
-1.603975723
-23.37408212
-1.876208433
-27.79770676
-2.192388947
-33.07793638
-2.560745899
-39.38417062
-2.990858842
-46.9210929
-3.493824816
-55.93646401
-4.082425186
-66.73076876
-4.771259824
-79.66928027
-5.576830542
-95.19728173
-6.517514643
-113.8594623
-7.613379547
-136.3248343
-8.885728537
-163.4189864
-10.35624743
-196.1661257
-12.04553781
-235.844276
-13.97073284
-284.0582671
-16.14175281
-342.8369084
-18.55555949
-414.763256
-21.18749149
-503.1503424
-23.97833991
-612.2796658
-26.81530647
-747.7265932
-29.50407271
-916.8066286
-31.72818503
-1129.189899
-32.99015995
-1397.751577
-32.5267603
-1739.754335
-29.18587204
-2178.482884
-2745.545545
0.0004887000982
-0.04545800535
0.00177972741
-0.06835466895
0.003572799503
-0.09172016097
0.004425553598
-0.1166856637
0.004365002795
-0.1406010188
0.004157041471
-0.1673419285
0.003918177195
-0.1990356141
0.003604629255
-0.2368771436
0.003194495011
-0.2818573909
0.002642920473
-0.3353464455
0.001899768223
-0.3989332884
0.0008867980851
-0.4744732511
-0.0005043971894
-0.5641877021
-0.002428852913
-0.6706436315
-0.00510735303
-0.7968723151
-0.008851185517
-0.9463762905
-0.01410025851
-1.123219538
-0.02146516766
-1.332070914
-0.03177291946
-1.578286517
-0.04609791021
-1.868008559
-0.06575485879
-2.208341729
-0.09221949856
-2.607654577
-0.1269672916
-3.076060739
-0.1712639198
-3.62608407
-0.2259873569
-4.273419448
-0.2916010617
-5.037647586
-0.3682986454
-5.942826643
-0.456271427
-7.017973064
-0.5559968083
-8.29760182
-0.6684650486
-9.822469774
-0.7953173435
-11.64065375
-0.9389116779
-13.8090153
-1.102350262
-16.39509231
-1.289501838
-19.47944743
-1.505040258
-23.15854369
-1.754510443
-27.54823657
-2.044425898
-32.78802092
-2.382395986
-39.04620052
-2.777277688
-46.52621119
-3.239341971
-55.47439972
-3.780439486
-66.18967124
-4.414149354
-79.0355704
-5.15588052
-94.45555056
-6.022891962
-112.9924509
-7.034174586
-135.3135516
-8.210117043
-162.2430439
-9.571832678
-194.80441
-11.13997077
-234.2761379
-12.93275434
-282.2654835
-14.96286251
-340.8068002
-17.23261114
-412.4935074
-19.72663972
-500.6563139
-22.40098323
-609.6053223
-25.16686593
-744.9607105
-27.86694664
-914.1065479
-30.24062368
-1126.816222
-31.87373944
-1396.118462
-32.12609092
-1739.501984
-30.02583348
-2180.583141
-2751.451119
0.00064789565
-0.04610590091
0.002077151279
-0.06978392415
0.003786533073
-0.09342954233
0.004445776359
-0.1173449065
0.004414821253
-0.140570063
0.004305080451
-0.1672321868
0.004175494045
-0.1989060267
0.003979780093
-0.2366814284
0.003696048206
-0.2815736576
0.003278241146
-0.3349286368
0.002670754845
-0.3983258
0.001788275843
-0.4735907698
0.0005097518848
-0.5629091755
-0.001338659155
-0.6687952177
-0.004008191995
-0.794202779
-0.007855218467
-0.9425292611
-0.01338016167
-1.117694591
-0.02126476379
-1.324186309
-0.03240145585
-1.567149819
-0.04789331792
-1.85251669
-0.06900222726
-2.187232809
-0.09702447736
-2.579632316
-0.1331074401
-3.039977766
-0.178077812
-3.58111369
-0.2323593826
-4.219137871
-0.2960553343
-4.973951627
-0.36916075
-5.86972122
-0.4518246628
-6.935309141
-0.5445805674
-8.204845903
-0.6484985337
-9.718551794
-0.765262609
-11.52388966
-0.8972002954
-13.6770776
-1.047295794
-16.2449968
-1.21921029
-19.30753293
-1.417323594
-22.96043038
-1.646803569
-27.31875659
-1.913704584
-32.5211199
-2.225094477
-38.73481062
-2.589203848
-46.16210182
-3.015592654
-55.0480109
-3.515317904
-65.68994599
-4.101095218
-78.44979307
-4.787421199
-93.76922457
-5.59063653
-112.1892355
-6.528878155
-134.37531
-7.621856392
-161.1500657
-8.890357268
-193.5359091
-10.35531859
-232.8111766
-12.03626635
-280.5845357
-13.94878707
-338.8942795
-16.10058182
-410.3417126
-18.48542826
-498.2714674
-21.07409663
-607.0166539
-23.80084318
-742.2339639
-26.54350166
-911.3638894
-29.09437372
-1124.26535
-31.11790401
-1394.094931
-32.08961121
-1738.530277
-31.20687697
-2181.465876
-2755.395056
0.000872407012
-0.04697830751
0.002375445138
-0.07128696153
0.003923911977
-0.09497800837
0.004340595865
-0.1177615894
0.004325467998
-0.1405549339
0.00427497336
-0.1671816907
0.004206404505
-0.1988374561
0.004075523058
-0.236550545
0.003858050629
-0.2813561829
0.003504541235
-0.3345751249
0.00295078542
-0.3977720416
0.002098938074
-0.4727389198
0.0008065607506
-0.5616167953
-0.001131099246
-0.666857555
-0.004009175314
-0.7913246997
-0.008241014419
-0.9382974193
-0.01439081992
-1.111544781
-0.023198787
-1.315378337
-0.03558886311
-1.554759736
-0.05263475698
-1.835470787
-0.07546708571
-2.164400471
-0.1051232899
-2.549976102
-0.1423815958
-3.002719456
-0.1876568054
-3.535838478
-0.2410234542
-4.165771219
-0.3023713068
-4.91260377
-0.3716355784
-5.800456941
-0.4490191887
-6.857925522
-0.5351567074
-8.118708374
-0.6312047403
-9.62250375
-0.7388788962
-11.4162155
-0.8604643563
-13.55549213
-0.9988249288
-16.10663621
-1.157426594
-19.14893125
-1.340383588
-22.77747338
-1.552531115
-27.10660905
-1.799525263
-32.27412575
-2.087968773
-38.4463671
-2.425560158
-45.82451043
-2.821258709
-54.65231234
-3.285461253
-65.22574344
-3.830169281
-77.90508504
-4.469140321
-93.13025353
-5.217992316
-111.4403835
-6.094222545
-133.4990798
-7.117096317
-160.1271919
-8.307314622