/*--------------------------------*- C++ -*----------------------------------*\
  =========                 |
  \\      /  F ield         | OpenFOAM: The Open Source CFD Toolbox
   \\    /   O peration     | Website:  https://openfoam.org
    \\  /    A nd           | Version:  12
     \\/     M anipulation  |
\*---------------------------------------------------------------------------*/
FoamFile
{
    format      ascii;
    class       volVectorField;
    location    "800";
    object      U;
}
// * * * * * * * * * * * * * * * * * * * * * * * * * * * * * * * * * * * * * //

dimensions      [0 1 -1 0 0 0 0];

internalField   nonuniform List<vector> 
16200
(
(183.8572407 -7.295678099e-17 -1.498879258)
(219.2347252 3.522662129e-17 -1.424215152)
(239.1315021 -2.446848071e-20 -1.598417215)
(254.7875477 0 -1.770173755)
(269.2912909 0 -1.958332086)
(284.3281942 -2.522469151e-17 -2.185728931)
(300.04324 2.884331163e-17 -2.502723989)
(312.6471736 6.22331083e-17 -2.882490601)
(316.4233445 -1.211512412e-16 -3.013590791)
(316.421389 1.08476703e-16 -2.990818871)
(316.1053427 -4.619043452e-17 -3.048244652)
(315.8051245 0 -3.027582374)
(315.4348152 0 -3.091768837)
(315.0269953 -5.370744728e-17 -3.095762467)
(314.5469345 4.482822095e-17 -3.156850551)
(313.9970338 0 -3.191402002)
(313.3555237 0 -3.259253962)
(312.6110508 8.210316835e-19 -3.324828344)
(311.7433111 4.447871615e-17 -3.413058946)
(310.7328466 -3.611813101e-17 -3.512842868)
(309.5559277 0 -3.633585745)
(308.1868331 -2.494510027e-17 -3.773162219)
(306.5971085 2.232303372e-17 -3.934373841)
(304.7565607 3.799547083e-17 -4.115650581)
(302.6344538 -3.191903662e-17 -4.31419486)
(300.2017982 -2.730029591e-17 -4.522792555)
(297.4350941 2.295397959e-17 -4.729089397)
(294.3219466 0 -4.913799048)
(290.8688139 0 -5.050103581)
(287.1101077 5.742250251e-17 -5.104938103)
(283.1159723 -3.618891736e-17 -5.044076911)
(278.9938035 -1.041664763e-17 -4.841505261)
(274.878974 0 -4.490305478)
(270.9151438 -4.593660621e-17 -4.009274102)
(267.230941 5.157283589e-17 -3.440590314)
(263.9219697 -8.883517367e-17 -2.839001721)
(261.0431585 7.489665012e-17 -2.25774441)
(258.610685 0 -1.737273817)
(256.6094762 0 -1.300197393)
(255.002614 0 -0.9522842125)
(253.7403678 7.752357063e-17 -0.687159109)
(252.7679525 -1.310030618e-16 -0.4918989644)
(252.0313738 1.102337649e-16 -0.3516452551)
(251.4813782 0 -0.2525260017)
(251.0755108 1.567734767e-16 -0.1830320862)
(250.7788307 -1.31909171e-16 -0.134336808)
(250.5635441 -4.825398869e-20 -0.1000104996)
(250.4081816 1.871162749e-16 -0.07554456096)
(250.2965051 -3.153161422e-16 -0.05785011243)
(250.2164517 2.655823407e-16 -0.04483674614)
(250.1591641 2.238955015e-16 -0.03509440301)
(250.1181955 3.777427271e-16 -0.02766779385)
(250.088875 -3.188312488e-16 -0.02190126042)
(250.067791 8.082226478e-16 -0.01734529056)
(250.0524945 -4.557872651e-16 -0.01369113453)
(250.041045 0 -0.01072400859)
(250.0324559 1.638506832e-16 -0.008251269309)
(250.0253651 0 -0.006179825961)
(250.0197515 -4.753432693e-16 -0.003756214512)
(250.0129686 -3.97116697e-19 -0.004024897107)
(187.8972729 -1.540617613e-16 -4.155154195)
(224.357231 1.507231499e-16 -4.411913835)
(244.8216721 -5.452652985e-17 -4.906283358)
(260.9245586 -4.891530955e-17 -5.294996235)
(275.9330772 5.04873603e-17 -5.68598427)
(291.5624744 0 -6.128816324)
(307.3470408 0 -6.689271798)
(317.6043432 6.700290366e-17 -7.124322783)
(319.6026298 -6.261628308e-17 -7.213711241)
(319.4568712 0 -7.178600223)
(319.1211809 0 -7.249067885)
(318.7991924 0 -7.218841658)
(318.4020065 -6.651787291e-17 -7.288242109)
(317.9629678 5.550576656e-17 -7.286496526)
(317.4441014 -1.423346513e-18 -7.347020684)
(316.8476312 -1.192805837e-18 -7.37649265)
(316.1496645 0 -7.438935311)
(315.3372091 -2.530428518e-18 -7.496229199)
(314.3877762 0 -7.573197245)
(313.2794744 1.179870135e-18 -7.657940616)
(311.9859212 4.01472409e-18 -7.758602174)
(310.4784954 -2.899314327e-17 -7.871950959)
(308.7258119 -1.749529088e-17 -7.998826833)
(306.6948739 3.873778101e-17 -8.135394379)
(304.3527281 0 -8.275589131)
(301.6695287 6.982794027e-18 -8.40793022)
(298.6235983 -1.188047489e-17 -8.514387239)
(295.2088628 0 -8.568677093)
(291.444559 -3.477615631e-17 -8.536269159)
(287.3853102 1.45143343e-17 -8.377433557)
(283.1269422 -3.787672109e-17 -8.055290835)
(278.80184 1.078533062e-17 -7.548249379)
(274.5612288 -3.696062348e-17 -6.861890362)
(270.5495865 -1.575368487e-17 -6.033265108)
(266.8817092 0 -5.124018478)
(263.6306578 4.601533719e-17 -4.205294164)
(260.8277913 -3.878791575e-17 -3.341402974)
(258.4704905 0 -2.578403149)
(256.5321976 1.121837426e-16 -1.940048722)
(254.9714302 -9.489658169e-17 -1.43007712)
(253.7388972 8.018248686e-17 -1.038045985)
(252.7828849 2.706808573e-16 -0.7458820054)
(252.0532919 -1.13894382e-16 -0.5332667607)
(251.5043904 0 -0.3811358531)
(251.0964456 4.853237027e-16 -0.2734117737)
(250.7963356 -5.444136847e-16 -0.1974862776)
(250.5773662 -3.435707268e-16 -0.1439463389)
(250.4186309 3.854266266e-16 -0.1060132074)
(250.3041277 0 -0.07892185334)
(250.2218338 -2.727964016e-16 -0.05937031588)
(250.1628423 2.295363853e-16 -0.04508693135)
(250.1206216 5.796288112e-16 -0.03451001144)
(250.0904065 3.253734979e-16 -0.0265599041)
(250.0687194 -2.740694332e-16 -0.0204896981)
(250.053001 9.239822723e-16 -0.01578887035)
(250.0413353 -7.793032027e-16 -0.0120932886)
(250.0325124 -4.933753535e-16 -0.009132132706)
(250.0253939 5.558572066e-16 -0.006747240394)
(250.0196855 1.058118135e-15 -0.004037077753)
(250.0124674 9.803945245e-17 -0.00416204853)
(191.7975431 -1.591949619e-19 -6.903129265)
(229.3349011 1.61862087e-16 -7.661088123)
(250.3647729 -2.366867715e-16 -8.462516285)
(266.938132 1.076574107e-16 -9.095382481)
(282.490787 1.130435689e-16 -9.721594098)
(298.6148661 -2.55507471e-16 -10.4167735)
(313.9834814 2.832391112e-16 -11.22854354)
(321.4195913 3.683041452e-19 -11.63212983)
(322.1631635 -2.64122732e-16 -11.702387)
(321.912456 1.149938134e-16 -11.64992209)
(321.5571053 0 -11.72862061)
(321.2088891 7.884558587e-17 -11.6836933)
(320.7766993 -6.572945925e-17 -11.75267801)
(320.2973543 -2.616606777e-18 -11.74053886)
(319.7296385 4.831031501e-17 -11.79417595)
(319.0753594 3.77436037e-18 -11.81344167)
(318.3085168 -3.287546142e-17 -11.8646463)
(317.4142498 1.73648181e-18 -11.90882048)
(316.3677547 -4.664930419e-17 -11.96986351)
(315.144449 3.665279447e-17 -12.03563476)
(313.7150188 -2.46884051e-20 -12.11251495)
(312.0476012 -2.104764665e-17 -12.19590749)
(310.107532 1.759783585e-17 -12.28400899)
(307.8588291 0 -12.36982799)
(305.2666701 -4.256496215e-17 -12.4426658)
(302.3017849 7.024141561e-18 -12.48487498)
(298.9473973 3.696270737e-17 -12.47046939)
(295.2088674 2.135112786e-17 -12.36399789)
(291.1251939 1.843103789e-17 -12.12210158)
(286.7786491 -1.488886288e-17 -11.69971902)
(282.2956937 1.90038261e-19 -11.06220618)
(277.8331988 -4.48549149e-17 -10.20025843)
(273.551755 3.820055307e-17 -9.140085718)
(269.5868102 -9.835016215e-17 -7.942109417)
(266.0298889 2.769343469e-17 -6.687888958)
(262.9249682 0 -5.46144304)
(260.2765761 -8.074196162e-17 -4.332718045)
(258.0623848 -6.858106802e-17 -3.34804301)
(256.2445964 -1.631874897e-20 -2.528326788)
(254.7778549 4.90833009e-17 -1.872996264)
(253.6141164 -8.260844014e-17 -1.366753563)
(252.7056852 -6.974268265e-17 -0.9865858081)
(252.007381 2.351601715e-16 -0.7074209372)
(251.478118 2.971854229e-16 -0.5058300352)
(251.0819698 -1.66577304e-16 -0.3619086197)
(250.7886437 2.80336098e-16 -0.2598349134)
(250.5734059 5.8912058e-16 -0.1876075036)
(250.4166252 -3.961326524e-16 -0.136430848)
(250.3030895 6.657371961e-16 -0.1000147212)
(250.2212415 -2.79682362e-16 -0.07392998291)
(250.1624376 -4.699037747e-16 -0.05508690278)
(250.1202875 1.973323514e-16 -0.04133804316)
(250.0901004 -6.630556432e-16 -0.0311877344)
(250.068437 0 -0.02359556206)
(250.0527437 -1.871156004e-15 -0.01784501937)
(250.0411365 7.858374418e-16 -0.0134256173)
(250.0323232 3.30042178e-16 -0.009979991371)
(250.0252909 -1.38614178e-16 -0.007281679352)
(250.0196788 -9.315519392e-16 -0.004254411446)
(250.0124921 0 -0.004293897138)
(195.3955454 -3.443628213e-16 -9.774910782)
(233.8970824 -1.697026102e-19 -11.13969119)
(255.4394361 0 -12.24223373)
(272.5245565 1.162792129e-19 -13.14171312)
(288.6995578 -1.271496684e-16 -14.0293499)
(305.1675109 1.433981857e-16 -15.00073931)
(319.1626025 -3.017417732e-19 -15.9852777)
(323.9152247 -5.986204922e-19 -16.2702856)
(324.0060087 1.065890621e-18 -16.33729381)
(323.7261693 1.160200222e-16 -16.2648265)
(323.346163 -9.777034226e-17 -16.35342015)
(322.967887 1.280211103e-18 -16.29573271)
(322.4970501 -6.826413072e-17 -16.36511285)
(321.9726521 5.880394542e-17 -16.34517874)
(321.3502612 4.787768843e-17 -16.39341342)
(320.6308202 -4.257344731e-17 -16.40490958)
(319.7860864 -4.20232017e-18 -16.44650649)
(318.798957 0 -16.47901808)
(317.6420664 0 -16.52448525)
(316.2878235 0 -16.57040449)
(314.7037074 -3.828557778e-17 -16.62090203)
(312.8544199 1.421773451e-17 -16.66966126)
(310.7021127 3.650344652e-17 -16.71163072)
(308.2085726 -2.046800598e-17 -16.73561981)
(305.3389784 2.62290572e-17 -16.72475569)
(302.0680412 1.486224117e-17 -16.65340721)
(298.3890982 -2.550590329e-17 -16.48604221)
(294.3259317 2.145838264e-17 -16.17736505)
(289.9450487 -1.846254062e-17 -15.67654982)
(285.3620587 -2.988084274e-19 -14.93779124)
(280.7339239 2.686537056e-17 -13.9363488)
(276.2343402 4.627436204e-17 -12.68350041)
(272.0205432 0 -11.23153131)
(268.2062567 6.756778469e-17 -9.664825035)
(264.8511852 0 -8.081176529)
(261.9669491 0 -6.571726178)
(259.5319416 2.083691776e-16 -5.206401982)
(257.5067198 3.519596496e-17 -4.027505047)
(255.8451159 2.392887178e-16 -3.050484888)
(254.5002578 5.058760517e-17 -2.26931354)
(253.4270463 5.544740689e-16 -1.663743548)
(252.5830098 -2.157006941e-16 -1.20634903)
(251.9288055 -1.211641764e-16 -0.8681012991)
(251.4287597 -9.172732441e-16 -0.6220336157)
(251.0514235 -1.702606803e-19 -0.4451378216)
(250.7699199 7.20184825e-16 -0.3189480584)
(250.5619676 6.050892886e-16 -0.2292892157)
(250.4096094 -1.117692912e-15 -0.1656347768)
(250.2987321 -5.117297769e-16 -0.1203570608)
(250.2184749 2.862479574e-16 -0.08801891934)
(250.1606258 -1.200315367e-15 -0.06478608381)
(250.1190555 0 -0.04796973785)
(250.0892312 1.349444818e-15 -0.03568473188)
(250.067806 1.130401041e-15 -0.02661314056)
(250.0522792 9.464198519e-16 -0.01984066924)
(250.0408082 0 -0.01471700304)
(250.0320646 6.621707454e-16 -0.01079742779)
(250.0251266 6.915498756e-17 -0.007803630595)
(250.0196055 -2.078035618e-15 -0.004480843721)
(250.0123533 3.174849032e-15 -0.004423893595)
(198.6786385 -7.293674553e-16 -12.82027141)
(238.0790128 3.737462218e-16 -14.81427987)
(260.0976774 -1.408707702e-16 -16.2377286)
(277.6810028 -6.504456352e-22 -17.4264667)
(294.4932027 0 -18.60189982)
(311.1660751 3.141424185e-19 -19.87093066)
(322.5937549 3.171774923e-21 -20.88883951)
(325.3527333 0 -21.03783568)
(325.1764805 -2.209546355e-18 -21.12058245)
(324.8755943 -1.186802332e-16 -21.02933655)
(324.4635963 9.970199096e-17 -21.12771451)
(324.0489981 0 -21.05862755)
(323.5323546 -7.190483541e-17 -21.12749924)
(322.9544661 -1.954642384e-18 -21.10040927)
(322.2678656 4.578566353e-17 -21.14173973)
(321.4721812 -8.223331185e-17 -21.14425894)
(320.5368744 7.318584778e-17 -21.17353916)
(319.4422052 3.626489527e-18 -21.19116183)
(318.1579502 0 -21.21673596)
(316.6531205 4.13720765e-17 -21.23756542)
(314.891737 -4.34250823e-17 -21.25508813)
(312.8351436 3.695979517e-17 -21.26051698)
(310.443053 -3.732687924e-17 -21.24420034)
(307.6767868 0 -21.18891475)
(304.5046074 -1.799750841e-17 -21.06967083)
(300.9098821 0 -20.8511896)
(296.9025774 2.638373225e-17 -20.48747768)
(292.5328591 -2.219940266e-17 -19.92410153)
(287.9018956 0 -19.10652975)
(283.1608744 0 -17.99571086)
(278.4913948 0 -16.58624963)
(274.0710373 0 -14.91753942)
(270.0387845 0 -13.07042902)
(266.4752964 1.055142814e-16 -11.15043008)
(263.4032511 -1.493087896e-16 -9.265547578)
(260.8021083 1.01598118e-16 -7.507465461)
(258.6273639 -1.717703222e-16 -5.94071095)
(256.826475 -1.823093174e-16 -4.599975607)
(255.3483418 -9.207105412e-17 -3.493338921)
(254.146972 -1.558722782e-16 -2.608669438)
(253.1816757 -5.699831962e-16 -1.920953592)
(252.4160525 -2.956187268e-16 -1.399006779)
(251.8171314 4.357381951e-16 -1.010694453)
(251.3550645 8.37398217e-16 -0.7263707403)
(251.0032619 -7.038720252e-16 -0.5206814586)
(250.7386304 -7.389421868e-16 -0.3731274386)
(250.5416837 -8.683836306e-16 -0.2678193933)
(250.3964427 1.040728897e-15 -0.1928286593)
(250.2901468 1.221683302e-15 -0.1394156191)
(250.2128363 -1.462519952e-16 -0.1012850289)
(250.1568871 1.347178998e-15 -0.07395537186)
(250.1165486 -1.844923799e-15 -0.05425843329)
(250.0875318 -2.914306098e-15 -0.03995888506)
(250.0666434 -1.002680359e-15 -0.02948594608)
(250.0514842 0 -0.021742613)
(250.0402744 1.595118482e-15 -0.01594883382)
(250.0316955 -4.980879872e-16 -0.01157519914)
(250.024892 -2.0705726e-16 -0.008300711273)
(250.0195084 1.832990077e-15 -0.004697173488)
(250.012253 -3.034128147e-15 -0.004552631764)
(201.5374131 1.883389221e-19 -16.01660826)
(241.7749938 0 -18.66957512)
(264.244127 1.505474434e-19 -20.4312461)
(282.3298183 -1.450624409e-19 -21.93327202)
(299.733788 -3.143585406e-19 -23.42318139)
(316.2550074 0 -24.98003694)
(324.719052 7.051429638e-19 -25.89391671)
(325.9895065 -1.305549332e-18 -25.92611638)
(325.6359895 1.134471898e-18 -26.02331388)
(325.3143456 -9.545138592e-19 -25.91224222)
(324.8650194 0 -26.01767671)
(324.4091202 8.515351328e-17 -25.93629113)
(323.8411374 -7.111042234e-17 -26.00041442)
(323.2027963 6.159044715e-17 -25.96409292)
(322.4437806 -4.996043638e-17 -25.99478697)
(321.5617494 5.256099451e-18 -25.98562263)
(320.5236903 0 -25.99924333)
(319.3067488 -6.338021485e-17 -25.99870371)
(317.8776059 5.001969233e-17 -26.0003037)
(316.2017837 -1.060587115e-17 -25.99051379)
(314.2401611 8.945284929e-18 -25.9668368)
(311.951617 0 -25.91648525)
(309.2951023 0 -25.82355415)
(306.2341778 0 -25.66318907)
(302.7442621 0 -25.40096411)
(298.8232906 -6.384687982e-17 -24.99104804)
(294.5056805 -3.811482185e-19 -24.37722239)
(289.8760777 -2.328916166e-17 -23.49885652)
(285.0746184 2.662272652e-19 -22.30472554)
(280.284214 1.686637165e-17 -20.77260644)
(275.6984673 -2.933395317e-17 -18.92571535)
(271.4820054 1.248695971e-16 -16.83583899)
(267.7411313 -8.541883352e-17 -14.61032695)
(264.5156791 -7.226238439e-17 -12.36936645)
(261.7904492 1.229416916e-16 -10.22354493)
(259.5164172 -1.043871812e-16 -8.258689101)
(257.6315354 0 -6.529666872)
(256.0751739 -1.880106513e-16 -5.061290703)
(254.7950485 -2.854125052e-16 -3.853430609)
(253.7484049 1.068699738e-16 -2.887899048)
(252.9002254 1.047629649e-19 -2.135458622)
(252.2207486 2.65565936e-16 -1.561947123)
(251.6835963 -5.106783534e-16 -1.132976612)
(251.2648456 4.295618029e-16 -0.8170358643)
(250.9428554 1.442701782e-15 -0.5871351827)
(250.6984336 1.514068846e-16 -0.4213210827)
(250.5150298 -1.269289629e-16 -0.3024355747)
(250.3787914 0 -0.2174758565)
(250.2784504 -1.604510453e-15 -0.1568228275)
(250.2050701 1.491940715e-16 -0.1134831532)
(250.1517145 2.246064742e-15 -0.08243572871)
(250.1130906 3.127537266e-15 -0.06010415202)
(250.0852122 4.176357001e-15 -0.04394966749)
(250.065084 0 -0.03217898935)
(250.0504412 0 -0.02353208432)
(250.0395866 -1.605606537e-15 -0.01711198067)
(250.0312392 1.664866884e-16 -0.01231033281)
(250.0245981 -2.75607017e-16 -0.008773914918)
(250.0193727 -1.820460392e-15 -0.004908189505)
(250.0121124 -5.849496636e-18 -0.004684542318)
(203.9020548 -1.998889464e-19 -19.34602646)
(244.9547593 2.171908418e-16 -22.68472278)
(267.8783424 -3.390125483e-16 -24.8095143)
(286.5249668 1.65327757e-16 -26.65402081)
(304.4641288 3.527083838e-19 -28.49587768)
(319.9576613 1.925055851e-16 -30.24918967)
(325.6406353 -1.904268065e-16 -30.9599333)
(326.1037855 1.352175184e-18 -30.89476993)
(325.3999894 -1.472697863e-16 -30.99526719)
(325.0521172 1.242779461e-16 -30.85988631)
(324.5602626 -1.624740505e-18 -30.96958132)
(324.0562246 0 -30.87840571)
(323.4291281 -2.820060897e-21 -30.93717865)
(322.7206411 -3.818290687e-18 -30.89323406)
(321.8778997 3.200055259e-18 -30.91299643)
(320.8960232 3.236350358e-17 -30.89214728)
(319.7395742 -3.613856922e-17 -30.88846588)
(318.3824471 0 -30.86652039)
(316.7884138 6.456333133e-18 -30.83818104)
(314.9198908 -3.281983116e-17 -30.78821847)
(312.7353578 3.665676827e-17 -30.70917227)
(310.1924893 1.567273113e-17 -30.58312586)
(307.2515616 0 -30.38676131)
(303.8817913 -2.267156912e-17 -30.08632673)
(300.0711088 0 -29.63683282)
(295.839604 -3.624192329e-19 -28.98153514)
(291.2548077 2.794612806e-17 -28.05598226)
(286.4419554 4.785293905e-17 -26.79950241)
(281.5787509 -4.099699167e-17 -25.17439102)
(276.8685945 0 -23.1860406)
(272.4993699 0 -20.89270266)
(268.6056431 9.511497809e-19 -18.39794672)
(265.2504081 -6.880799281e-19 -15.82921801)
(262.4300926 3.754172119e-17 -13.31273158)
(260.0950295 -1.590447196e-16 -10.95397632)
(258.17385 -2.698572109e-17 -8.827711195)
(256.5932184 2.053225392e-16 -6.976404968)
(255.289407 -2.706906633e-16 -5.414025401)
(254.2122901 2.600373011e-16 -4.13229484)
(253.324242 2.751853356e-17 -3.10753236)
(252.5967648 -9.239316076e-17 -2.307044596)
(252.0069607 3.885143208e-17 -1.69451639)
(251.5349772 6.54356199e-17 -1.234109681)
(251.1626689 -9.339922172e-16 -0.8931817258)
(250.8732225 -7.38036842e-16 -0.6437418275)
(250.6512899 0 -0.4629040215)
(250.483258 1.038003816e-15 -0.3326506611)
(250.3574422 0 -0.2392132945)
(250.2641289 0 -0.1723179146)
(250.1954712 0 -0.1244320782)
(250.1452833 -4.1896572e-15 -0.09010514387)
(250.1087828 -1.588530858e-15 -0.0654274125)
(250.0823289 -2.823024736e-15 -0.04760716685)
(250.063158 -2.494828105e-15 -0.0346622505)
(250.0491647 -1.827706851e-15 -0.02519209082)
(250.038752 0 -0.01819754486)
(250.030698 0 -0.01299924787)
(250.0242487 1.376021514e-16 -0.009219722245)
(250.0192062 1.809387037e-15 -0.005116149265)
(250.0119574 -1.156411762e-17 -0.004813663615)
(205.7272732 2.12349041e-19 -22.82797972)
(247.6057915 0 -26.83561944)
(271.0353483 1.822074727e-19 -29.3720692)
(290.3160924 -8.030273545e-22 -31.59185256)
(308.6689263 -2.004075026e-16 -33.82641229)
(321.95894 2.090822172e-16 -35.5812665)
(325.4962888 0 -36.03878603)
(324.921708 0 -35.89739564)
(324.4949151 1.505500351e-16 -36.02004015)
(324.1129566 2.072144577e-19 -35.87021205)
(323.5709634 -1.059027301e-16 -35.98224442)
(323.0096024 0 -35.88227421)
(322.3134334 2.321479126e-18 -35.93285507)
(321.5230789 6.640968633e-17 -35.87979247)
(320.5836142 -5.562438207e-17 -35.88435632)
(319.4871725 5.504130936e-18 -35.84668629)
(318.1960432 -4.659732653e-18 -35.8181451)
(316.6808136 7.8615962e-18 -35.76484234)
(314.90253 -5.305300121e-17 -35.6935321)
(312.8208873 -3.816660337e-19 -35.58661858)
(310.3928335 8.532265385e-17 -35.43080288)
(307.5765849 -4.799643001e-17 -35.20171776)
(304.3368829 0 -34.86708165)
(300.6536962 -2.770715268e-19 -34.3826609)
(296.5348292 1.971892736e-17 -33.69210123)
(292.0314088 3.380186017e-17 -32.72908284)
(287.2514854 0 -31.42622254)
(282.3618426 0 -29.73265504)
(277.5686066 -2.152231088e-17 -27.63599289)
(273.0780058 1.81368904e-17 -25.17780181)
(269.052829 0 -22.45267172)
(265.5838014 -1.329879399e-16 -19.59012826)
(262.6856812 1.358192241e-16 -16.72825374)
(260.3140918 -1.919975287e-17 -13.9901725)
(258.3915129 -6.64405239e-19 -11.46981058)
(256.8316066 -2.218910072e-16 -9.22742419)
(255.5559702 -4.447328952e-16 -7.291942878)
(254.5021779 4.138137134e-16 -5.66667173)
(253.6249272 -3.328726527e-17 -4.335942656)
(252.893044 0 -3.271491273)
(252.2849821 -4.733869763e-17 -2.43805109)
(251.7846351 -5.971625812e-16 -1.797957472)
(251.3783858 0 -1.314638871)
(251.0535366 0 -0.9549498807)
(250.7978271 -7.541658087e-16 -0.6904368685)
(250.5995628 0 -0.4977270675)
(250.4479593 -9.265781929e-16 -0.3582984149)
(250.3334523 1.661778064e-15 -0.2578905521)
(250.2478763 -9.261940431e-17 -0.1857786721)
(250.1844892 -2.397555363e-15 -0.1340393126)
(250.1378805 2.193164608e-15 -0.09689733912)
(250.1038053 -3.545969866e-15 -0.07018296536)
(250.0789927 0 -0.05090192629)
(250.0609316 2.373409863e-15 -0.03691754021)
(250.0476927 5.897737922e-15 -0.0267121198)
(250.0377921 0 -0.01919994393)
(250.0300811 1.6731779e-16 -0.01363999772)
(250.0238487 -1.374306963e-16 -0.009635367255)
(250.0190082 1.799635026e-15 -0.00531501682)
(250.0117784 5.871410586e-15 -0.004940113643)
(206.9947979 -9.228364531e-16 -26.42215831)
(249.7080299 2.545349925e-16 -31.11373297)
(273.7481674 -2.008360423e-19 -34.1093826)
(293.6939248 4.023533898e-19 -36.74238029)
(312.0917375 4.277909718e-19 -39.3705176)
(322.6074388 -2.211224238e-16 -40.88537008)
(323.7101424 2.059998651e-16 -41.13110431)
(323.4678656 0 -40.95918549)
(322.9421333 1.536049199e-16 -41.11241482)
(322.5166635 2.366529743e-19 -40.94130676)
(321.9185674 -1.064418546e-16 -41.04871233)
(321.2920922 0 -40.93653429)
(320.5183677 2.385834065e-18 -40.9713831)
(319.6358134 0 -40.90305371)
(318.5878787 -2.279827793e-20 -40.88396467)
(317.3631858 0 -40.82023046)
(315.9217858 -3.825877766e-17 -40.7555648)
(314.2308807 -1.544574805e-19 -40.65731069)
(312.2490768 2.030432801e-17 -40.52626677)
(309.9341642 4.624479607e-17 -40.34123609)
(307.2433099 -4.853318869e-17 -40.08162548)
(304.1384102 -1.67001907e-17 -39.71482948)
(300.5935856 -2.842490877e-17 -39.19806416)
(296.606489 2.388947438e-17 -38.47575564)
(292.2133489 2.074102383e-17 -37.48115841)
(287.5043797 1.80793284e-17 -36.14286402)
(282.6312346 0 -34.39970726)
(277.7957106 -5.213398955e-17 -32.22278152)
(273.2158485 8.922834885e-17 -29.63537278)
(269.0799384 5.719704231e-17 -26.71878462)
(265.508804 1.460667344e-16 -23.59934094)
(262.5415192 1.106216495e-16 -20.42270481)
(260.1457806 0 -17.32709874)
(258.2430964 0 -14.42459922)
(256.736423 1.004028877e-16 -11.79312998)
(255.531857 2.55157021e-16 -9.476915994)
(254.5513675 1.916317248e-16 -7.491587914)
(253.7372723 3.234608425e-16 -5.830806366)
(253.0509349 5.463504979e-16 -4.472695706)
(252.4683661 4.600237498e-16 -3.38547863)
(251.9750192 -4.838336208e-17 -2.532203965)
(251.5612655 6.909113097e-16 -1.874585113)
(251.2192739 -1.09312223e-15 -1.375923652)
(250.9413489 -5.734508607e-17 -1.00308625)
(250.719412 8.171948835e-16 -0.7275931832)
(250.5451497 -8.05767266e-17 -0.5259497214)
(250.4104251 6.742071154e-17 -0.3794252028)
(250.3076874 -3.608979179e-15 -0.2735002313)
(250.2302637 0 -0.1971768943)
(250.1724948 2.514744869e-15 -0.1422726828)
(250.1297423 -2.095016344e-15 -0.1027837425)
(250.0983054 6.969948402e-15 -0.07434842611)
(250.0752929 -1.808352081e-16 -0.05381785296)
(250.0584574 -2.247247054e-15 -0.0389341201)
(250.0460545 -3.83843919e-15 -0.02808552796)
(250.0367227 -3.367805354e-15 -0.02011538678)
(250.0293955 0 -0.01423123685)
(250.0234018 0 -0.01002091219)
(250.018781 -3.582160239e-15 -0.005505186133)
(250.0115783 -5.806319528e-15 -0.005063823634)
(207.7681242 6.702207158e-20 -30.11522731)
(251.3703252 -2.770118369e-16 -35.53085564)
(276.1003867 0 -39.03294425)
(296.6713284 4.514757186e-19 -42.12851665)
(314.3258887 -9.390800096e-19 -45.04305595)
(322.0326222 0 -46.1508529)
(321.7451859 -2.126866606e-16 -46.28763805)
(321.33519 1.843641425e-16 -46.07055015)
(320.7824553 -1.245670905e-18 -46.22506088)
(320.3067762 0 -46.0361346)
(319.6455464 3.468773196e-18 -46.13420893)
(318.9448009 9.280234343e-17 -46.00894969)
(318.0835405 -2.157566402e-18 -46.02269345)
(317.0967461 2.639438989e-19 -45.93420083)
(315.926644 -5.837319386e-17 -45.88387805)
(314.5579045 0 -45.78471253)
(312.9485061 4.866857079e-18 -45.67167804)
(311.0625801 -8.220194502e-18 -45.51252747)
(308.8572069 -2.807375967e-17 -45.30099727)
(306.2900254 1.163356728e-17 -45.01066378)
(303.3213222 2.022937712e-17 -44.61213875)
(299.9210767 8.38739749e-21 -44.06320231)
(296.0789745 0 -43.31001331)
(291.8182502 2.510034383e-17 -42.28648689)
(287.2117302 4.195300851e-19 -40.91912851)
(282.3934621 -1.813622184e-17 -39.13943498)
(277.5550687 0 -36.90439411)
(272.919034 1.071865142e-16 -34.21880147)
(268.6941907 -1.140913451e-16 -31.14751719)
(265.0313232 -5.837372863e-17 -27.80880783)
(261.9981994 -1.327099821e-16 -24.35116432)
(259.5812804 1.521169303e-17 -20.92473891)
(257.7074427 -3.609348026e-17 -17.65832029)
(256.2731571 -3.065550571e-16 -14.64720565)
(255.1704511 -2.93478551e-16 -11.95113222)
(254.3044028 -1.895252832e-16 -9.598438362)
(253.6016167 3.687896672e-16 -7.592705171)
(253.0115376 3.521519176e-16 -5.919468994)
(252.5032559 -1.132971767e-15 -4.552015902)
(252.0601904 -4.398306309e-16 -3.456140224)
(251.674539 -2.466030944e-17 -2.594023255)
(251.3426689 -4.148838176e-17 -1.927375622)
(251.0619895 1.114015266e-15 -1.419860367)
(250.8292994 9.057080568e-16 -1.038758792)
(250.6402808 4.895577851e-17 -0.7559048079)
(250.4896826 0 -0.5479683985)
(250.371792 -2.195667403e-15 -0.3962471591)
(250.2809259 1.834557257e-15 -0.2861533148)
(250.2118153 -9.570414244e-17 -0.2065647851)
(250.1598349 -1.085337385e-20 -0.1491532113)
(250.1210938 1.990571474e-16 -0.1077700027)
(250.092426 -3.638643814e-15 -0.07792273621)
(250.0713179 0 -0.05635165366)
(250.0557882 2.570237462e-15 -0.04070857881)
(250.0442803 -1.247039789e-16 -0.0293095964)
(250.0355603 3.28149414e-15 -0.0209420138)
(250.0286485 -2.689032745e-15 -0.014772303)
(250.0229114 0 -0.01037599322)
(250.0185258 3.567243821e-15 -0.005686620645)
(250.011356 5.759111669e-15 -0.005184636104)
(208.0848587 -5.216128736e-16 -33.9039721)
(252.664367 -3.025555399e-16 -40.09079494)
(278.1501858 2.529189854e-16 -44.15170689)
(299.3049241 -4.95743462e-19 -47.7672834)
(315.1122577 -2.575883694e-16 -50.69536214)
(319.3259221 4.863549856e-16 -51.31812631)
(319.0519802 -2.179153495e-16 -51.43565989)
(318.6509292 1.471192633e-18 -51.20795958)
(318.0459688 -1.580595612e-16 -51.37186118)
(317.5121825 -3.089852884e-19 -51.16064031)
(316.779984 1.091967913e-16 -51.24035255)
(315.9947051 -9.783971623e-17 -51.09700113)
(315.034603 7.941906063e-17 -51.0807611)
(313.9300928 0 -50.96325787)
(312.6226822 -4.950104937e-17 -50.8702736)
(311.0930157 9.505375173e-17 -50.72177035)
(309.2975837 -2.988092933e-17 -50.54285975)
(307.1983826 3.407961462e-17 -50.30037662)
(304.7525601 -2.86007008e-17 -49.97985806)
(301.9201086 -2.470648474e-17 -49.54816015)
(298.668141 2.059673388e-17 -48.96603496)
(294.9800355 1.782341563e-17 -48.18091234)
(290.8681595 0 -47.12838734)
(286.3894584 0 -45.73473546)
(281.6594781 -4.374781476e-17 -43.92658436)
(276.8552147 -3.815591641e-17 -41.6494673)
(272.1967457 0 -38.89104212)
(267.9069228 -1.108762915e-16 -35.69803027)
(264.1637773 -9.537556982e-17 -32.17638877)
(261.0660817 2.026586362e-17 -28.47268736)
(258.624801 1.209633614e-16 -24.7452181)
(256.7789148 -1.01505805e-16 -21.13744387)
(255.4239616 -1.857331848e-16 -17.76146354)
(254.4411147 3.12316216e-16 -14.69267844)
(253.7192243 2.815180574e-16 -11.97248242)
(253.1675368 2.376159824e-16 -9.614707676)
(252.7202646 -4.25841139e-16 -7.612735138)
(252.3353743 -3.165576647e-16 -5.945701036)
(251.9900813 5.686088993e-16 -4.583422144)
(251.675039 -2.992808386e-17 -3.490260732)
(251.3887231 8.301747934e-16 -2.628229841)
(251.1329132 4.225723642e-17 -1.95953456)
(250.9096713 2.224415772e-20 -1.448572748)
(250.7197616 -9.808987023e-16 -1.063340383)
(250.5621916 -4.982224101e-17 -0.7762377979)
(250.4344376 -1.440775102e-20 -0.564316108)
(250.3329683 4.496595865e-15 -0.4090840557)
(250.253802 0 -0.2960364214)
(250.1929658 -9.710485716e-17 -0.214047862)
(250.1468016 1.617067642e-16 -0.1547382824)
(250.1121276 2.083587942e-15 -0.1118857566)
(250.0862909 0 -0.08092009891)
(250.0671451 0 -0.05850934686)
(250.0529706 -1.524726997e-16 -0.04224289505)
(250.0423972 4.142506765e-15 -0.03038450974)
(250.0343196 1.030078125e-16 -0.02167937812)
(250.0278469 2.610432378e-15 -0.01526301873)
(250.0223812 -1.0967676e-15 -0.01070052525)
(250.0182439 -1.777170465e-15 -0.005859200697)
(250.0111117 -5.739978619e-15 -0.005302221512)
(207.9453465 0 -37.78395415)
(253.638434 6.435815032e-19 -44.80171977)
(279.880079 0 -49.48134838)
(301.350651 -2.788805668e-16 -53.62607571)
(314.621292 7.741445367e-19 -56.30057811)
(316.5116559 5.048465683e-16 -56.52905678)
(315.8430787 -2.231513022e-16 -56.63976407)
(315.4167517 -1.921899382e-16 -56.35814497)
(314.754714 -2.916033381e-18 -56.52317968)
(314.1536749 1.393451544e-16 -56.29229681)
(313.3415477 0 -56.34668698)
(312.4604205 9.99739457e-17 -56.18087183)
(311.3893258 -8.633220743e-17 -56.1261826)
(310.1533299 6.868458085e-17 -55.96969437)
(308.6939296 -5.030628506e-17 -55.82027029)
(306.9880021 0 -55.60433858)
(304.9913146 -1.023339717e-17 -55.33645256)
(302.6649246 -3.503124804e-17 -54.98135546)
(299.9679957 -3.181891307e-19 -54.51568415)
(296.8660408 6.269365266e-17 -53.8984601)
(293.3377459 -2.12272488e-17 -53.07995563)
(289.3864732 -1.807860038e-17 -51.99724148)
(285.0551738 1.569559533e-17 -50.57734729)
(280.4414909 -1.320588078e-17 -48.74459808)
(275.7052961 6.911966074e-17 -46.43610763)
(271.0580912 -2.008796041e-17 -43.62426977)
(266.7296976 -8.439245305e-17 -40.33745169)
(262.920661 8.541291001e-17 -36.6664067)
(259.7604911 7.264635043e-17 -32.75111787)
(257.2888784 -1.050420158e-17 -28.75388944)
(255.4632927 -1.052437548e-16 -24.83021189)
(254.184612 -1.199700282e-16 -21.10792438)
(253.3277633 1.890567768e-16 -17.67811401)
(252.7676516 1.712337198e-16 -14.59559791)
(252.3962047 0 -11.88479971)
(252.1305104 0 -9.547172849)
(251.9141646 -4.09703382e-16 -7.567988307)
(251.7142307 3.447886979e-16 -5.92168676)
(251.5159458 5.98126425e-16 -4.575862231)
(251.3167501 -5.027931748e-16 -3.49429586)
(251.1208032 -1.61219839e-15 -2.639394835)
(250.9346707 6.662464937e-16 -1.974235608)
(250.7644757 1.189830105e-15 -1.464220347)
(250.6144307 -3.020698108e-17 -1.078271193)
(250.486443 0 -0.7895336587)
(250.3803856 4.233883139e-17 -0.5755963431)
(250.2946633 -2.299218364e-15 -0.4183151519)
(250.2268229 5.904762205e-17 -0.3033830444)
(250.1740705 -4.9200256e-17 -0.2197666875)
(250.1336387 0 -0.1591103447)
(250.1030071 0 -0.1151778452)
(250.080007 1.127120358e-16 -0.08336604176)
(250.0628424 2.981928923e-15 -0.06030406776)
(250.0500462 -2.304923946e-16 -0.04354327324)