/*--------------------------------*- C++ -*----------------------------------*\
  =========                 |
  \\      /  F ield         | OpenFOAM: The Open Source CFD Toolbox
   \\    /   O peration     | Website:  https://openfoam.org
    \\  /    A nd           | Version:  12
     \\/     M anipulation  |
\*---------------------------------------------------------------------------*/
FoamFile
{
    format      ascii;
    class       volScalarField;
    location    "0.071";
    object      Ma;
}
// * * * * * * * * * * * * * * * * * * * * * * * * * * * * * * * * * * * * * //

dimensions      [];

internalField   nonuniform List<scalar> 
16000
(
0.62631574
0.74457708
0.69948289
0.72418116
0.70913791
0.71604711
0.71035358
0.71185585
0.70921051
0.70875891
0.70713509
0.70599542
0.70457777
0.70319377
0.70172748
0.70021463
0.69864392
0.69701691
0.69533233
0.69358967
0.69178851
0.68992866
0.68801019
0.68603343
0.68399903
0.68190798
0.67976162
0.67756167
0.67531027
0.67300994
0.67066367
0.66827483
0.66584725
0.66338515
0.66089314
0.6583762
0.65583964
0.65328902
0.65073017
0.64816906
0.64561176
0.64306438
0.64053298
0.63802347
0.6355416
0.6330928
0.63068219
0.62831449
0.62599395
0.62372434
0.62150891
0.61935031
0.61725067
0.61521148
0.61323368
0.61131758
0.60946297
0.6076691
0.60593472
0.60425809
0.60263703
0.60106942
0.59955336
0.59808698
0.59666854
0.59529609
0.59396689
0.59267665
0.59141906
0.59018599
0.58896857
0.58775769
0.58654268
0.58530785
0.58401215
0.58267218
0.58082106
0.58026339
0.5772731
0.57897001
0.63091492
0.74989318
0.70317082
0.72892326
0.713053
0.72043306
0.71428747
0.71591492
0.71308384
0.71256256
0.71085069
0.70959606
0.70808697
0.70658889
0.70501391
0.70338438
0.70169433
0.69994366
0.69813174
0.69625809
0.69432255
0.69232522
0.69026648
0.68814708
0.6859681
0.68373105
0.6814378
0.67909071
0.67669253
0.67424652
0.67175636
0.66922619
0.66666061
0.66406462
0.66144362
0.65880332
0.65614975
0.65348916
0.65082798
0.64817268
0.64552977
0.64290567
0.64030663
0.63773864
0.63520738
0.63271812
0.63027568
0.62788438
0.62554798
0.62326966
0.62105203
0.61889705
0.6168061
0.61477996
0.61281883
0.61092234
0.6090896
0.60731925
0.60560952
0.60395826
0.60236292
0.60082101
0.59933032
0.59788875
0.59649426
0.59514464
0.59383688
0.59256638
0.59132646
0.59010864
0.58890366
0.58770167
0.58649174
0.58526018
0.58397337
0.5825418
0.58094413
0.57977055
0.57760445
0.57868988
0.63522732
0.75477235
0.70679153
0.73308497
0.7167561
0.72423784
0.71793355
0.71945042
0.7165641
0.71588597
0.71410588
0.71271344
0.71109994
0.70947499
0.70777541
0.70601476
0.70418966
0.70229974
0.7003446
0.6983241
0.69623841
0.69408802
0.69187378
0.68959693
0.68725916
0.68486255
0.68240971
0.6799037
0.6773481
0.67474697
0.67210491
0.66942695
0.66671861
0.66398583
0.66123488
0.65847238
0.65570514
0.65294016
0.65018446
0.64744507
0.64472885
0.64204247
0.63939224
0.63678411
0.63422353
0.63171539
0.62926404
0.62687315
0.62454577
0.62228429
0.62009041
0.61796523
0.61590918
0.61392213
0.61200338
0.61015171
0.60836546
0.60664254
0.60498056
0.60337685
0.60182849
0.60033261
0.59888669
0.59748837
0.59613533
0.59482509
0.59355428
0.59231798
0.59110916
0.58991911
0.5887382
0.58755612
0.58636257
0.5851445
0.58385892
0.5824156
0.58090685
0.57953458
0.57775804
0.57855419
0.63918229
0.75924085
0.70991847
0.73676034
0.72000818
0.72759461
0.7211249
0.7225115
0.71956165
0.71870678
0.71684397
0.71529762
0.71356162
0.71179354
0.70995169
0.7080429
0.70606579
0.70401994
0.70190532
0.69972215
0.69747102
0.69515289
0.69276916
0.69032167
0.68781279
0.68524538
0.68262286
0.67994921
0.67722897
0.67446724
0.67166964
0.66884231
0.66599184
0.66312521
0.66024972
0.65737289
0.65450238
0.65164587
0.64881099
0.64600512
0.64323539
0.64050847
0.63783058
0.63520733
0.63264369
0.63014392
0.62771158
0.62534946
0.62305963
0.62084343
0.61870148
0.61663377
0.61463966
0.61271795
0.61086694
0.60908449
0.60736807
0.60571487
0.60412183
0.60258577
0.60110335
0.59967137
0.59828698
0.59694756
0.59565056
0.59439318
0.59317179
0.59198117
0.59081412
0.58966176
0.58851416
0.58736091
0.58619253
0.58499449
0.58371702
0.58229298
0.58081623
0.57934406
0.57784784
0.57846884
0.6427681
0.76323262
0.71281665
0.73977515
0.7226636
0.73039461
0.72380915
0.72500294
0.7220107
0.72094207
0.71898563
0.71726731
0.71538986
0.71346251
0.71146084
0.7093873
0.70724155
0.70502336
0.70273301
0.70037112
0.69793876
0.69543745
0.69286929
0.69023691
0.68754355
0.68479308
0.68199
0.67913945
0.67624721
0.67331963
0.67036364
0.66738666
0.66439652
0.66140137
0.65840959
0.65542966
0.65247004
0.64953903
0.64664465
0.64379451
0.6409957
0.6382547
0.63557725
0.63296833
0.63043208
0.62797183
0.62559001
0.62328822
0.62106729
0.61892725
0.61686744
0.61488655
0.61298274
0.61115364
0.60939648
0.60770814
0.60608522
0.60452414
0.60302125
0.60157284
0.6001752
0.59882481
0.59751857
0.59625362
0.59502718
0.59383621
0.59267681
0.59154356
0.59042913
0.58932461
0.58821997
0.58710504
0.58597088
0.58480028
0.58354217
0.58214922
0.58069607
0.57919978
0.57788692
0.57843284
0.64593503
0.76666098
0.7152572
0.7423395
0.72494381
0.73255709
0.72585577
0.72684311
0.72382576
0.7225168
0.72045339
0.71855119
0.7165155
0.71441517
0.71223783
0.70998354
0.70765243
0.70524464
0.70276088
0.70020238
0.69757092
0.69486891
0.69209943
0.68926623
0.6863738
0.68342733
0.68043277
0.67739675
0.67432656
0.67123013
0.6681159
0.66499275
0.66186988
0.65875669
0.65566263
0.65259704
0.64956903
0.6465873
0.64366
0.64079463
0.63799788
0.6352756
0.63263267
0.63007303
0.6275996
0.62521433
0.62291822
0.62071136
0.61859305
0.61656179
0.61461547
0.61275139
0.61096638
0.60925687
0.60761901
0.60604871
0.60454177
0.60309389
0.60170087
0.60035856
0.59906295
0.59781027
0.59659721
0.59542077
0.59427795
0.59316554
0.59207943
0.59101404
0.58996206
0.58891463
0.58786184
0.58679411
0.58570261
0.58456732
0.58333933
0.58198705
0.58056197
0.57906856
0.57790895
0.57841973
0.6486433
0.76950085
0.71724541
0.74440521
0.72676724
0.73405357
0.7273559
0.72798018
0.72496873
0.72340106
0.72121591
0.71911872
0.71690509
0.71461362
0.71223961
0.70978256
0.70724314
0.70462225
0.70192143
0.69914289
0.69628955
0.69336509
0.69037398
0.68732152
0.68421383
0.68105785
0.67786132
0.67463271
0.67138116
0.66811639
0.66484853
0.66158805
0.65834555
0.6551316
0.65195658
0.64883048
0.64576271
0.64276201
0.63983622
0.63699222
0.63423583
0.63157172
0.62900344
0.62653335
0.62416269
0.62189166
0.61971944
0.61764434
0.61566389
0.61377493
0.61197375
0.61025622
0.60861783
0.60705386
0.60555943
0.60412958
0.60275938
0.60144399
0.60017871
0.5989591
0.59778093
0.5966403
0.59553379
0.59445827
0.59341068
0.59238764
0.59138491
0.59039688
0.58941628
0.58843445
0.58744184
0.58642969
0.58538895
0.58429704
0.58310969
0.5818081
0.58041896
0.57894313
0.5779199
0.57841866
0.65092304
0.77177453
0.71881321
0.7459965
0.72818019
0.73506562
0.72839543
0.72885573
0.72547217
0.72361155
0.72127087
0.71895379
0.71652904
0.71401551
0.71141273
0.70872086
0.70594132
0.70307612
0.70012799
0.69710052
0.69399816
0.69082629
0.68759121
0.68430021
0.68096147
0.6775841
0.674178
0.67075383
0.66732281
0.66389662
0.66048721
0.65710657
0.65376659
0.65047876
0.64725403
0.64410259
0.64103369
0.63805546
0.63517482
0.63239741
0.62972749
0.62716795
0.62472035
0.622385
0.62016098
0.61804634
0.61603816
0.61413273
0.61232568
0.61061211
0.60898674
0.60744401
0.60597821
0.60458357
0.60325432
0.60198482
0.60076957
0.5996033
0.59848107
0.59739823
0.59635048
0.5953339
0.59434507
0.59338088
0.5924382
0.5915136
0.59060282
0.58970024
0.58879879
0.58789006
0.58696515
0.58601622
0.58503366
0.58399309
0.58285683
0.58161607
0.58027057
0.57882214
0.57792286
0.57841776
0.65284196
0.7735132
0.71992571
0.74711631
0.72893999
0.73519694
0.72859323
0.72829532
0.72523333
0.72310273
0.72055765
0.71798484
0.71530698
0.71253199
0.70966127
0.70669619
0.70363927
0.70049392
0.69726452
0.69395646
0.69057624
0.68713145
0.68363076
0.68008394
0.67650178
0.67289595
0.66927892
0.6656638
0.66206406
0.65849341
0.65496546
0.65149355
0.64809043
0.64476807
0.64153735
0.63840798
0.63538822
0.63248483
0.62970298
0.62704621
0.62451645
0.62211414
0.61983824
0.61768647
0.61565537
0.61374054
0.61193678
0.61023829
0.60863877
0.60713168
0.60571026
0.60436774
0.60309737
0.60189256
0.60074689
0.59965424
0.59860878
0.59760505
0.59663799
0.59570297
0.59479575
0.59391254
0.59305003
0.5922052
0.59137499
0.590556
0.58974399
0.58893349
0.58811764
0.58728843
0.5864378
0.58555882
0.58464106
0.58365947
0.58258444
0.58141337
0.58011904
0.5787099
0.57792164
0.57840962
0.6544103
0.77469876
0.72050948
0.74760135
0.72897557
0.7347895
0.72817264
0.72749011
0.72424395
0.72175858
0.71895841
0.71609121
0.71311587
0.71003622
0.70685475
0.70357462
0.7002
0.69673629
0.69319013
0.68956939
0.68588327
0.68214226
0.67835809
0.67454364
0.6707128
0.66688029
0.66306144
0.65927193
0.65552749
0.65184363
0.64823527
0.64471651
0.6413003
0.63799819
0.63482009
0.63177414
0.62886661
0.62610178
0.62348207
0.62100801
0.61867842
0.61649056
0.6144403
0.61252237
0.61073055
0.60905789
0.60749691
0.60603978
0.60467854
0.60340514
0.60221169
0.60109046
0.60003397
0.5990351
0.59808709
0.59718362
0.59631878
0.59548713
0.59468374
0.59390415
0.59314437
0.59240083
0.59167049
0.5909505
0.59023797
0.58952962
0.58882135
0.58810789
0.58738266
0.58663818
0.58586735
0.58506396
0.58421669
0.58330123
0.58229655
0.58120154
0.57996521
0.5786111
0.5779197
0.57838801
0.65557208
0.77523577
0.72049041
0.7465966
0.72823115
0.73345559
0.72697865
0.72570277
0.72231917
0.71945711
0.71634362
0.71313578
0.70981338
0.70638048
0.70284087
0.69920002
0.69546455
0.69164265
0.68774404
0.68377998
0.67976329
0.67570822
0.6716303
0.66754621
0.66347343
0.65943002
0.65543427
0.65150429
0.6476577
0.64391119
0.64028021
0.63677857
0.63341823
0.63020901
0.62715848
0.62427186
0.62155204
0.61899968
0.61661333
0.61438964
0.61232362
0.61040887
0.60863789
0.60700229
0.6054931
0.60410098
0.60281642
0.60162992
0.60053214
0.59951401
0.59856682
0.59768231
0.59685266
0.59607057
0.59532927
0.59462252
0.59394462
0.59329039
0.59265522
0.59203501
0.59142613
0.59082542
0.59023016
0.58963781
0.58904572
0.58845083
0.58784927
0.58723604
0.58660493
0.5859491
0.58526242
0.58453911
0.58376711
0.58292428
0.58199745
0.58098233
0.57981006
0.57852786
0.57792099
0.57835276
0.65622999
0.7749486
0.71975032
0.74479236
0.7268407
0.73125015
0.72483653
0.72295184
0.71933576
0.71605586
0.71256541
0.70896212
0.70523662
0.70139558
0.69744508
0.69339377
0.68925184
0.68503146
0.68074666
0.67641329
0.67204885
0.6676723
0.66330377
0.65896419
0.65467493
0.65045735
0.64633233
0.64231982
0.63843831
0.63470448
0.63113276
0.62773504
0.62452047
0.62149536
0.61866314
0.61602452
0.61357762
0.61131828
0.6092403
0.60733586
0.60559576
0.60400985
0.60256728
0.60125682
0.60006711
0.59898685
0.598005
0.5971109
0.59629438
0.59554584
0.59485626
0.59421729
0.59362119
0.59306086
0.59252984
0.59202228
0.59153291
0.59105707
0.59059064
0.59013001
0.58967207
0.58921417
0.588754
0.5882894
0.58781805
0.5873372
0.58684328
0.58633165
0.58579656
0.58523191
0.58463245
0.58399251
0.58329968
0.58253516
0.58169188
0.58075903
0.5796569
0.57846017
0.57792746
0.57830677
0.65631433
0.77375482
0.71814673
0.74231735
0.72458645
0.72799916
0.72162351
0.71907712
0.71514448
0.71139585
0.70745606
0.70339076
0.6991965
0.69488413
0.69046368
0.6859485
0.68135399
0.67669789
0.67200005
0.6672822
0.66256764
0.65788083
0.65324695
0.64869136
0.64423902
0.63991391
0.6357384
0.6317327
0.62791434
0.62429776
0.62089403
0.61771069
0.61475176
0.61201789
0.60950651
0.60721229
0.60512745
0.60324221
0.60154524
0.6000241
0.59866558
0.59745612
0.59638207
0.59542997
0.59458675
0.59383985
0.5931774
0.59258825
0.59206204
0.59158918
0.59116089
0.59076918
0.59040679
0.59006718
0.5897445
0.58943353
0.5891297
0.58882898
0.58852791
0.58822351
0.58791328
0.58759513
0.58726726
0.58692795
0.58657529
0.58620687
0.58581952
0.58540904
0.58497024
0.58449781
0.58398722
0.58343271
0.58282209
0.58214043
0.58138445
0.58053571
0.57951122
0.5784094
0.57793979
0.57825274
0.65580597
0.77155829
0.71560751
0.73872349
0.72130636
0.72361013
0.71719184
0.71393182
0.70957183
0.70528256
0.70080776
0.69619951
0.69145967
0.68660504
0.68165194
0.67662051
0.67153335
0.66641556
0.66129428
0.65619834
0.65115762
0.6462025
0.64136307
0.63666844
0.63214586
0.62782003
0.62371236
0.61984046
0.61621772
0.61285313
0.60975126
0.60691244
0.6043331
0.60200621
0.59992179
0.59806751
0.59642922
0.59499154
0.59373828
0.59265297
0.59171916
0.59092077
0.59024227
0.58966892
0.58918683
0.58878311
0.58844582
0.58816405
0.58792786
0.58772829
0.58755724
0.58740749
0.58727264
0.58714698
0.58702553
0.5869039
0.58677833
0.58664561
0.58650302
0.5863483
0.58617958
0.58599543
0.58579458
0.58557578
0.58533756
0.58507796
0.58479423
0.58448267
0.58413877
0.58375803
0.58333644
0.58286813
0.58234174
0.58174598
0.58107857
0.58031438
0.57937606
0.578378
0.57795908
0.5781932
0.65464896
0.76818933
0.71207973
0.73395122
0.71684905
0.71790873
0.71134049
0.70729824
0.70238285
0.69745753
0.69234718
0.6871024
0.68173292
0.67626386
0.67072053
0.66513218
0.65953065
0.65395011
0.64842635
0.64299609
0.63769598
0.63256169
0.62762676
0.62292165
0.61847271
0.61430152
0.61042427
0.60685161
0.60358853
0.60063474
0.59798504
0.59562999
0.59355661
0.5917491
0.59018964
0.588859
0.58773727
0.58680431
0.58604025
0.58542581
0.58494258
0.58457322
0.58430154
0.58411263
0.58399284
0.58392977
0.58391223
0.58393022
0.58397481
0.5840381
0.58411311
0.58419371
0.58427458
0.5843511
0.58441928
0.58447572
0.58451758
0.58454249
0.58454855
0.58453425
0.58449841
0.58444023
0.58435898
0.58425392
0.58412405
0.58396785
0.58378308
0.58356661
0.58331464
0.58302344
0.58268935
0.58230657
0.58186513
0.58135649
0.58077657
0.58009557
0.57925148
0.57836724
0.57798725
0.57812795
0.65278751
0.76340813
0.70760426
0.72780171
0.71100317
0.71066982
0.70379923
0.69887817
0.69325779
0.68757821
0.6817207
0.67574151
0.66966198
0.66351806
0.65734685
0.65118923
0.64508841
0.63908922
0.63323686
0.62757553
0.62214704
0.61698932
0.61213513
0.60761104
0.60343671
0.59962456
0.59617984
0.59310099
0.59038037
0.58800508
0.58595794
0.5842185
0.58276405
0.58157046
0.58061301
0.57986702
0.5793084
0.57891404
0.5786621
0.57853221
0.57850556
0.578565
0.57869494
0.57888141
0.5791119
0.57937533
0.57966192
0.5799631
0.58027139
0.58058029
0.58088421
0.58117833
0.58145858
0.5817215
0.58196421
0.58218435
0.58238001
0.58254972
0.58269235
0.58280718
0.58289369
0.58295168
0.58298097
0.58298132
0.58295217
0.58289251
0.5828006
0.58267393
0.58250944
0.58230404
0.58205437
0.58175493
0.58139747
0.5809751
0.58048006
0.57988015
0.57913536
0.57837377
0.5780234
0.57805406
0.65016397
0.75682635
0.70208127
0.72001314
0.70346109
0.70154682
0.69417976
0.6882574
0.68177188
0.67521029
0.66849611
0.66169533
0.65484535
0.64799667
0.64120173
0.63451603
0.627996
0.62169732
0.61567275
0.6099702
0.60463081
0.59968757
0.59516436
0.59107553
0.58742612
0.58421242
0.58142303
0.57904007
0.57704053
0.57539767
0.57408228
0.57306387
0.5723116
0.57179514
0.57148524
0.57135418
0.57137611
0.57152716
0.57178557
0.57213169
0.57254789
0.57301849
0.57352966
0.57406924
0.57462664
0.57519268
0.57575942
0.57632009
0.57686892
0.57740101
0.57791228
0.57839932
0.57885935
0.57929011
0.57968985
0.58005719
0.58039118
0.58069117
0.58095682
0.58118809
0.58138515
0.58154831
0.58167793
0.58177421
0.58183707
0.58186593
0.58185962
0.58181626
0.58173347
0.58160868
0.58143884
0.58121901
0.58094252
0.58060311
0.58018906
0.5796681
0.57902389
0.578395
0.57806581
0.57795616
0.64664487
0.74777194
0.69488472
0.71013273
0.69376512
0.69006326
0.68197525
0.67491787
0.66740916
0.65984104
0.65217601
0.64449518
0.63685859
0.62933686
0.62200148
0.61492379
0.60817152
0.60180609
0.59587983
0.59043407
0.58549787
0.58108759
0.57720722
0.57384947
0.57099726
0.56862551
0.56670309
0.56519466
0.56406241
0.56326755
0.5627715
0.56253686
0.56252811
0.56271206
0.56305814
0.56353855
0.56412824
0.56480486
0.56554863
0.56634217
0.56717031
0.56801991
0.56887964
0.56973981
0.57059217
0.57142978
0.57224679
0.57303838
0.57380057
0.57453012
0.57522445
0.57588156
0.57649992
0.57707843
0.57761636
0.57811331
0.57856917
0.57898408
0.57935842
0.57969275
0.57998786
0.58024455
0.58046361
0.58064567
0.58079106
0.58089967
0.58097085
0.58100331
0.58099527
0.58094466
0.58084873
0.58070324
0.5805026
0.58024029
0.57990219
0.5794594
0.57891229
0.57839534
0.578104
0.57782757
0.64194197
0.73623918
0.68558603
0.69759725
0.68133416
0.6756565
0.66658299
0.65823864
0.64955374
0.64087168
0.63220271
0.62365183
0.6153085
0.60726644
0.59961413
0.59243163
0.58578651
0.57973112
0.57430091
0.56951405
0.56537219
0.56186217
0.55895834
0.55662521
0.55482022
0.5534963
0.55260418
0.55209423
0.55191805
0.55202946
0.55238536
0.55294609
0.55367569
0.55454192
0.55551619
0.55657332
0.55769136
0.55885127
0.56003668
0.56123359
0.56243012
0.56361623
0.56478356
0.56592513
0.56703524
0.56810924
0.56914343
0.57013488
0.57108136
0.57198121
0.57283328
0.57363685
0.57439154
0.5750973
0.57575434
0.57636311
0.57692427
0.57743865
0.57790724
0.57833117
0.57871171
0.57905009
0.5793475
0.57960491
0.57982303
0.58000218
0.58014217
0.58024224
0.58030114
0.58031724
0.58028823
0.58021037
0.58007849
0.57988553
0.57961742
0.57925217
0.57879977
0.5783717
0.57809159
0.57771107
0.63569242
0.72327186
0.67362603
0.68181824
0.66544892
0.65760392
0.64723337
0.63743109
0.62745228
0.61762347
0.608015
0.59876133
0.58997842
0.58177309
0.57423387
0.56742795
0.56139874
0.55616576
0.55172605
0.54805703
0.54512009
0.54286463
0.54123193
0.54015881
0.5395806
0.53943361
0.53965687
0.54019343
0.54099101
0.54200243
0.54318564
0.54450356
0.54592386
0.54741854
0.54896356
0.55053842
0.55212578
0.55371104
0.55528202
0.55682863
0.5583426
0.5598172
0.56124707
0.56262795
0.56395659
0.56523055
0.56644809
0.56760806
0.56870979
0.56975306
0.57073796
0.57166491
0.57253455
0.5733477
0.57410541
0.57480885
0.57545932
0.57605823
0.57660713
0.57710761
0.57756131
0.57796983
0.57833466
0.57865709
0.57893815
0.57917851
0.57937838
0.57953743
0.57965486
0.57972954
0.57975958
0.57974148
0.57966985
0.5795374
0.57933276
0.57904273
0.57868022
0.57832161
0.57802983
0.57760858
0.62756893
0.70628372
0.65816878
0.66190726
0.6450635
0.63484484
0.62289274
0.6115296
0.60028799
0.58948902
0.57925957
0.56975034
0.56107838
0.55333164
0.54656356
0.54079401
0.53601175
0.5321792
0.52923812
0.52711569
0.5257302
0.52499609
0.52482801
0.5251438
0.52586661
0.52692613
0.52825924
0.52981008
0.53152986
0.53337644
0.53531371
0.53731102
0.53934257
0.54138673
0.54342558
0.54544432
0.54743089
0.5493755
0.55127033
0.55310922
0.55488743
0.55660136
0.55824843
0.5598269
0.56133568
0.5627743
0.56414275
0.56544139
0.56667093
0.56783232
0.56892675
0.56995556
0.57092022
0.57182234
0.57266359
0.57344577
0.5741707
0.57484027
0.57545645
0.57602121
0.57653651
0.57700421
0.57742605
0.57780356
0.57813805
0.57843047
0.57868132
0.5788906
0.57905796
0.57918278
0.57926352
0.57929659
0.57927611
0.57919528
0.57904749
0.57882812
0.57854728
0.57824465
0.57794098
0.57750496
0.61692503
0.68430193
0.6378169
0.63644508
0.61870067
0.60598972
0.59238772
0.5796298
0.56749876
0.55629208
0.54615154
0.53719822
0.52949796
0.52306939
0.51788697
0.51388927
0.51098794
0.50907714
0.50804195
0.50776547
0.5081342
0.50904172
0.51039097
0.51209536
0.51407898
0.51627625
0.51863124
0.52109667
0.52363299
0.52620736
0.52879275
0.53136706
0.53391237
0.53641429
0.53886141
0.54124475
0.54355744
0.54579427
0.54795149
0.5500265
0.55201766
0.55392416
0.55574582
0.55748299
0.55913647
0.56070739
0.56219717
0.56360744
0.56494
0.56619678
0.56737981
0.5684912
0.56953309
0.57050766
0.57141715
0.57226379
0.57304984
0.57377755
0.57444922
0.57506711
0.57563339
0.57615015
0.57661932
0.57704262
0.57742156
0.57775729
0.57805051
0.57830152
0.57851039
0.57867698
0.57880002
0.57887564
0.57889765
0.57886068
0.57876347
0.57860799
0.5783978
0.57813992
0.57782997
0.57740453
0.60260633
0.65521811
0.61064977
0.60367325
0.5847504
0.56966165
0.55483031
0.5413785
0.52927087
0.51872404
0.50981067
0.50254794
0.49688562
0.49272414
0.48992816
0.48834168
0.48780084
0.48814404
0.48921899
0.49088716
0.49302583
0.49552866
0.49830506
0.50127893
0.50438712
0.50757775
0.51080856
0.51404545
0.51726112
0.52043393
0.52354691
0.52658689
0.52954387
0.53241038
0.53518106
0.5378522
0.54042149
0.54288771
0.54525054
0.54751038
0.54966817
0.55172536
0.55368371
0.55554528
0.55731233
0.55898729
0.56057268
0.56207113
0.56348528
0.56481782
0.56607144
0.56724881
0.56835259
0.56938542
0.57034991
0.57124866
0.57208423
0.57285916
0.57357597
0.57423712
0.57484496
0.57540171
0.57590945
0.57637007
0.57678522
0.57715617
0.57748378
0.57776859
0.57801112
0.57821163
0.57836893
0.57847901
0.57853602
0.57853693
0.57848505
0.5783853
0.5782328
0.57801065
0.57770448
0.57731211
0.58263886
0.61668543
0.57447692
0.56179249
0.54219763
0.52516457
0.51025666
0.49753707
0.48697362
0.47860919
0.47234621
0.46802472
0.46543315
0.46433695
0.4644977
0.46568828
0.46770203
0.47035741
0.47349923
0.47699759
0.48074563
0.48465662
0.48866101
0.49270358
0.49674095
0.50073934
0.50467277
0.50852149
0.51227077
0.51590986
0.51943118
0.52282964
0.52610216
0.5292472
0.53226445
0.53515455
0.53791889
0.54055943
0.54307859
0.54547908
0.54776389
0.54993616
0.55199917
0.55395626
0.5558108
0.55756619
0.55922578
0.56079292
0.56227091
0.56366296
0.56497226
0.56620188
0.56735485
0.56843414
0.56944264
0.5703832
0.57125858
0.57207152
0.5728247
0.57352069
0.57416196
0.57475084
0.57528954
0.57578004
0.57622411
0.5766231
0.57697802
0.57728967
0.57755897
0.57778642
0.57797083
0.57810827
0.57819411
0.57822826
0.5782173
0.57816522
0.57805754
0.57786361
0.57757392
0.57723614
0.55440853
0.56619837
0.52794519
0.50945709
0.48876453
0.47325172
0.46024029
0.45033098
0.4432589
0.43878068
0.43654944
0.43620108
0.43737721
0.4397508
0.44303665
0.4469951
0.45143012
0.45618481
0.46113561
0.46618664
0.47126438
0.47631313
0.48129119
0.48616786
0.4909209
0.49553465
0.4999985
0.50430571
0.50845251
0.51243735
0.5162604
0.51992311
0.52342787
0.52677778
0.52997642
0.53302775
0.53593596
0.53870538
0.54134043
0.54384557
0.54622525
0.54848388
0.55062581
0.5526553
0.55457653
0.55639357
0.55811038
0.55973081
0.56125859
0.56269734
0.56405055
0.5653216
0.56651375
0.56763019
0.56867401
0.56964819
0.57055565
0.57139923
0.57218171
0.57290571
0.57357379
0.57418837
0.57475171
0.57526592
0.57573282
0.57615386
0.57653021
0.57686299
0.57715338
0.57740203
0.5776077
0.57776695
0.57787691
0.57794031
0.57796534
0.57795309
0.57788124
0.57771327
0.57745052
0.57717789
0.5137991
0.50122256
0.46393396
0.44599855
0.4285428
0.41631512
0.40798683
0.40334166
0.40172471
0.40254907
0.405245
0.40932464
0.41438509
0.42010745
0.42624589
0.43261511
0.43907778
0.44553377
0.45191122
0.45815945
0.46424357
0.47014038
0.47583525
0.48131982
0.48659032
0.49164626
0.49648951
0.50112361
0.50555325
0.5097839
0.51382151
0.51767235
0.52134281
0.52483931
0.52816826
0.53133595
0.53434854
0.53721203
0.53993226
0.54251487
0.54496533
0.54728891
0.5494907
0.55157559
0.55354829
0.55541334
0.55717509
0.55883773
0.56040528
0.5618816
0.56327039
0.56457521
0.56579949
0.56694653
0.56801953
0.56902157
0.56995563
0.57082462
0.57163134
0.57237846
0.57306857
0.57370414
0.57428751
0.57482083
0.57530601
0.57574462
0.57613802
0.57648764
0.57679485
0.57706031
0.57728288
0.57745994
0.57759056
0.57767955
0.57773503
0.57775487
0.57771299
0.57757401
0.57734858
0.5771363
0.45187847
0.41926155
0.38951923
0.37464626
0.36379088
0.35897872
0.35840807
0.36115882
0.3662383
0.37288568
0.38051467
0.38870007
0.39714094
0.40562985
0.41402694
0.42224025
0.43021135
0.43790502
0.44530196
0.45239374
0.45917926
0.46566223
0.47184955
0.47775008
0.48337382
0.48873139
0.49383362
0.49869132
0.50331508
0.50771519
0.51190158
0.51588375
0.5196708
0.52327138
0.52669374
0.52994572
0.53303479
0.53596803
0.5387522
0.54139372
0.5438987
0.54627297
0.54852209
0.55065135
0.55266579
0.55457024
0.5563693
0.55806736
0.5596686
0.56117704
0.5625965
0.56393064
0.56518296
0.56635685
0.56745555
0.56848217
0.56943973
0.57033114
0.5711592
0.5719266
0.57263593
0.5732897
0.57389027
0.57443987
0.57494043
0.57539368
0.57580122
0.57616469
0.57648563
0.57676471
0.57700105
0.57719309
0.57734162
0.57745243
0.57753254
0.57757749
0.57756157
0.5774547
0.57727243
0.57711041
0.35600135
0.32248509
0.30484893
0.30035805
0.30173785
0.30800604
0.31718292
0.32800117
0.33958608
0.35138553
0.3630633
0.37442305
0.3853569
0.39581172
0.40576781
0.41522552
0.42419689
0.43270044
0.44075793
0.44839243
0.4556271
0.46248449
0.46898618
0.47515253
0.48100264
0.48655434
0.49182423
0.49682773
0.50157918
0.50609189
0.51037824
0.51444976
0.51831721
0.52199059
0.52547929
0.52879209
0.53193724
0.53492247
0.53775508
0.54044195
0.54298959
0.54540415
0.54769145
0.54985702
0.55190609
0.55384364
0.55567441
0.5574029
0.5590334
0.56056998
0.56201652
0.56337672
0.56465414
0.56585217
0.56697407
0.56802296
0.56900184
0.56991361
0.57076105
0.57154682
0.57227353
0.57294366
0.5735596
0.57412358
0.5746376
0.57510351
0.5755231
0.5758982
0.57623045
0.57652061
0.57676829
0.57697301
0.57713675
0.57726542
0.57736447
0.57742853
0.57743517
0.57736085
0.57722125
0.57709693
0.21676099
0.21547479
0.22085964
0.23426455
0.25158106
0.26997934
0.28825392
0.30575381
0.32224961
0.33767719
0.3520616
0.36546318
0.37795567
0.38961434
0.40051099
0.41071166
0.42027612
0.4292579
0.43770478
0.44565931
0.45315942
0.46023897
0.46692822
0.47325431
0.47924166
0.48491228
0.49028609
0.49538117
0.50021399
0.50479958
0.50915174
0.51328313
0.51720542
0.52092941
0.5244651
0.52782179
0.53100817
0.53403233
0.53690187
0.53962391
0.54220518
0.54465199
0.54697031
0.54916579
0.55124376
0.55320929
0.55506717
0.55682197
0.558478
0.56003938
0.56151002
0.56289362
0.56419376
0.56541382
0.56655706
0.56762659
0.56862538
0.5695563
0.57042209
0.57122541
0.57196879
0.57265472
0.57328556
0.57386353
0.57439067
0.57486892
0.57530021
0.57568649
0.57602942
0.57632991
0.57658796
0.57680398
0.5769807
0.57712366
0.57723705
0.57731558
0.57734094
0.57729512
0.57719106
0.57709167
0.092011834
0.12193301
0.15938123
0.19305204
0.22320496
0.24974966
0.27330662
0.29434191
0.3132718
0.3304226
0.34605733
0.36038667
0.37358162
0.3857821
0.39710389
0.40764358
0.41748257
0.42668998
0.43532494
0.44343845
0.45107477
0.45827251
0.46506562
0.47148406
0.47755446
0.48330054
0.48874359
0.49390276
0.49879538
0.50343718
0.50784249
0.51202443
0.51599502
0.51976535
0.52334568
0.52674548
0.5299736
0.53303825
0.53594715
0.53870751
0.54132611
0.54380933
0.54616318
0.54839335
0.55050521
0.55250385
0.55439408
0.55618049
0.5578674
0.55945895
0.56095903
0.56237138
0.56369954
0.56494692
0.56611676
0.56721216
0.56823606
0.56919132
0.57008066
0.57090669
0.57167191
0.57237876
0.57302958
0.57362654
0.57417172
0.57466714
0.57511486
0.57551678
0.57587434
0.57618862
0.57645986
0.57668866
0.57687819
0.5770337
0.57715876
0.57724846
0.5772872
0.57726003
0.57717739
0.57709051
0.010701868
0.29630178
0.47175395
0.51994282
0.52971822
0.53020311
0.52986898
0.53100076
0.53250858
0.53400375
0.53549075
0.5369398
0.53836682
0.53977933
0.54118745
0.54260134
0.54402263
0.54545187
0.54688878
0.54833241
0.54978132
0.55123377
0.5526878
0.55414132
0.5555922
0.5570383
0.55847747
0.55990761
0.56132668
0.56273268
0.56412364
0.56549767
0.56685288
0.56818743
0.56949949
0.57078724
0.57204886
0.57328255
0.57448647
0.57565878
0.57679764
0.57790116
0.57896747
0.57999467
0.58098084
0.58192408
0.58282249
0.58367419
0.58447732
0.58523006
0.58593061
0.58657724
0.58716824
0.58770195
0.58817674
0.58859107
0.58894347
0.58923253
0.58945707
0.58961577
0.58970698
0.58972913
0.58968054
0.58955953
0.5893623
0.58908873
0.58872891
0.58829878
0.58776093
0.58720245
0.58646535
0.58584246
0.58484789
0.58435356
0.58292285
0.58272461
0.58075005
0.58072247
0.57840026
0.5776988
0.063197708
0.38382344
0.52236695
0.54765084
0.54849573
0.54663108
0.54576616
0.54591304
0.54611346
0.546414
0.54680269
0.54735857
0.54803426
0.54880016
0.54962808
0.55051508
0.55145453
0.55244191
0.55347181
0.55453908
0.55563897
0.55676704
0.55791907
0.5590911
0.56027932
0.56148013
0.5626901
0.56390594
0.56512447
0.56634267
0.5675576
0.56876642
0.5699664
0.57115485
0.57232916
0.57348678
0.5746252
0.57574196
0.57683463
0.5779008
0.57893811
0.5799442
0.58091675
0.58185345
0.58275206
0.58361033
0.58442609
0.5851972
0.58592162
0.58659733
0.58722241
0.58779502
0.58831337
0.58877577
0.58918059
0.5895263
0.58981151
0.59003489
0.59019536
0.59029172
0.59032245
0.59028612
0.5901812
0.59000606
0.58975731
0.58943455
0.58902952
0.58855602
0.58798273
0.58738716
0.58662767
0.58597209
0.58497204
0.58444232
0.5830174
0.58278654
0.58079767
0.58077342
0.57836287
0.57776982
0.1463615
0.46462436
0.5422916
0.5551094
0.55371327
0.55274259
0.5527222
0.55327201
0.55367829
0.55419195
0.55468731
0.55524589
0.5558253
0.55644706
0.55710244
0.55779627
0.55852461
0.55928768
0.56008388
0.56091148
0.56176864
0.56265335
0.56356348
0.56449674
0.56545073
0.56642294
0.56741078
0.5684116
0.56942268
0.57044126
0.57146455
0.57248973
0.57351398
0.57453446
0.57554833
0.57655275
0.57754488
0.5785219
0.57948102
0.58041944
0.58133438
0.58222313
0.58308297
0.58391123
0.5847053
0.58546264
0.58618077
0.58685728
0.58748988
0.58807637
0.58861465
0.58910272
0.58953871
0.58992085
0.59024748
0.59051705
0.59072822
0.59087971
0.59097054
0.59099958
0.5909654
0.59086668
0.59070203
0.59046984
0.59016703
0.58979314
0.58934102
0.58882331
0.58821259
0.58757998
0.58679516
0.58611099
0.58509777
0.58453927
0.5831084
0.58285343
0.5808431
0.58082085
0.57833267
0.5778364
0.22795093
0.51246517
0.55589256
0.56346003
0.56073936
0.56092761
0.56098238
0.56157214
0.56183735
0.56228126
0.56265046
0.56310084
0.56355414
0.56403962
0.56454254
0.56507115
0.56562265
0.56619917
0.56680051
0.56742658
0.56807704
0.56875136
0.56944878
0.57016829
0.57090868
0.57166853
0.57244623
0.57323997
0.57404777
0.57486749
0.57569687
0.57653347
0.57737478
0.57821816
0.57906088
0.57990016
0.58073313
0.58155688
0.58236846
0.58316491
0.58394323
0.58470046
0.58543363
0.58613981
0.58681612
0.58745975
0.58806797
0.58863816
0.58916781
0.58965451
0.59009601
0.59049019