/*--------------------------------*- C++ -*----------------------------------*\
  =========                 |
  \\      /  F ield         | OpenFOAM: The Open Source CFD Toolbox
   \\    /   O peration     | Website:  https://openfoam.org
    \\  /    A nd           | Version:  12
     \\/     M anipulation  |
\*---------------------------------------------------------------------------*/
FoamFile
{
    format      ascii;
    class       surfaceScalarField;
    location    "0.071";
    object      phi;
}
// * * * * * * * * * * * * * * * * * * * * * * * * * * * * * * * * * * * * * //

dimensions      [1 0 -1 0 0 0 0];

internalField   nonuniform List<scalar> 
31760
(
-0.0006401665
-0.050839104
0.051477099
-0.0016098947
-0.064316153
0.065284426
-0.002602351
-0.062939639
0.063933234
-0.0036288553
-0.068616697
0.069641473
-0.0047097766
-0.070288461
0.0713675
-0.0058189042
-0.074553545
0.07566087
-0.0069991987
-0.077482065
0.078660466
-0.0082177708
-0.081488487
0.08270519
-0.0094976922
-0.085111698
0.086389671
-0.010836252
-0.089229619
0.090566212
-0.012230955
-0.093364378
0.094757051
-0.013693268
-0.097776402
0.09923664
-0.01521797
-0.10235288
0.10387544
-0.016813296
-0.10715581
0.10874894
-0.018478865
-0.11217399
0.11383731
-0.020219436
-0.11742407
0.11916233
-0.022037697
-0.12291411
0.12473
-0.023936864
-0.12865551
0.13055225
-0.025920198
-0.1346593
0.13664015
-0.027991112
-0.14093673
0.14300511
-0.030153057
-0.1475002
0.14965955
-0.032409807
-0.15436166
0.15661576
-0.034764972
-0.1615347
0.16388716
-0.03722247
-0.16903301
0.17148776
-0.039785287
-0.1768711
0.17943112
-0.042458013
-0.18506308
0.18773297
-0.045244554
-0.19362516
0.19640883
-0.048148345
-0.20257393
0.20547483
-0.051172892
-0.21192629
0.21494794
-0.054322254
-0.22170029
0.22484675
-0.057599752
-0.23191483
0.23518945
-0.06100873
-0.2425897
0.24599582
-0.064552016
-0.25374634
0.25728683
-0.06823267
-0.26540584
0.26908377
-0.072052694
-0.27759223
0.28140964
-0.07601376
-0.29032973
0.29428833
-0.080117207
-0.30364401
0.30774517
-0.084363517
-0.3175627
0.32180695
-0.088752515
-0.3321137
0.33650092
-0.093282893
-0.34732838
0.35185731
-0.097952662
-0.36323838
0.36790709
-0.10275841
-0.37987735
0.38468248
-0.10769554
-0.39728118
0.40221821
-0.11275827
-0.41548756
0.42055076
-0.11793887
-0.43453662
0.43971837
-0.12322823
-0.45446974
0.459761
-0.1286148
-0.47533152
0.48072087
-0.13408572
-0.49716796
0.50264261
-0.13962552
-0.52002869
0.5255733
-0.14521596
-0.54396496
0.54956139
-0.15083608
-0.56903052
0.57465793
-0.15646247
-0.59528262
0.60091771
-0.16206782
-0.62278065
0.62839627
-0.16762127
-0.65158709
0.65715251
-0.1730884
-0.68176714
0.68724812
-0.17842938
-0.7133899
0.71874675
-0.18360016
-0.74652674
0.75171562
-0.18855133
-0.78125249
0.78622417
-0.19322641
-0.81764581
0.82234403
-0.19756304
-0.85578855
0.86015116
-0.20149077
-0.89576636
0.89972311
-0.20493127
-0.93766892
0.94114162
-0.20779665
-0.98159132
0.98449212
-0.20998907
-1.027634
1.029865
-0.21139957
-1.0759018
1.0773538
-0.21190748
-1.126506
1.1270579
-0.21137734
-1.1795613
1.179077
-0.20966486
-1.235183
1.2335179
-0.20660462
-1.2934919
1.2904804
-0.20201095
-1.3546058
1.3500631
-0.19568259
-1.4186415
1.4123686
-0.18740059
-1.4857149
1.4774968
-0.17691248
-1.555943
1.5455332
-0.16396593
-1.6294073
1.6165597
-0.14815566
-1.7061759
1.6904903
-0.1296574
-1.7861397
1.7677904
-0.10672899
-1.869102
1.8463451
-0.081831749
-1.9574417
1.9326731
-0.050193212
-2.0477514
2.0162112
-2.1500836
2.1153113
-0.00063622616
-0.050204695
-0.0015108149
-0.06344287
-0.0024072921
-0.062047023
-0.0033726831
-0.06765265
-0.0043493629
-0.069313348
-0.0054035876
-0.07350086
-0.0064733933
-0.076413931
-0.0076233776
-0.080340203
-0.0087996326
-0.083937243
-0.010050561
-0.087980547
-0.011344873
-0.092072006
-0.012706976
-0.096416308
-0.014126959
-0.10093498
-0.015613896
-0.10567103
-0.01716801
-0.11062211
-0.018793477
-0.11580091
-0.020492508
-0.12121745
-0.022268899
-0.12688157
-0.024125891
-0.13280483
-0.026067086
-0.13899813
-0.028096164
-0.14547378
-0.030216401
-0.15224415
-0.032431921
-0.15932197
-0.034746437
-0.16672134
-0.037164768
-0.17445568
-0.039689751
-0.18254105
-0.042326105
-0.1909918
-0.045077594
-0.19982547
-0.047948532
-0.20905842
-0.050942523
-0.21870938
-0.054063682
-0.22879676
-0.057315376
-0.23934107
-0.060700947
-0.25036381
-0.064223423
-0.26188635
-0.067885268
-0.27393328
-0.07168885
-0.28652893
-0.075635381
-0.29970011
-0.079726419
-0.3134741
-0.083961361
-0.32788097
-0.088339862
-0.34295181
-0.092860381
-0.35871947
-0.097519883
-0.37521907
-0.10231407
-0.39248777
-0.10723794
-0.41056395
-0.11228449
-0.42948974
-0.11744522
-0.44930799
-0.12270998
-0.47006497
-0.12806622
-0.49180906
-0.13349975
-0.51459153
-0.13899412
-0.53846591
-0.14453003
-0.56348873
-0.15008556
-0.58971993
-0.15563557
-0.61722204
-0.16115186
-0.64606062
-0.16660243
-0.67630468
-0.17195105
-0.70802749
-0.17715731
-0.74130461
-0.18217564
-0.776216
-0.18695464
-0.81284615
-0.19143726
-0.85128255
-0.19555911
-0.8916182
-0.19924835
-0.9339503
-0.20242434
-0.97838283
-0.2049984
-1.0250244
-0.20687072
-1.0739911
-0.20793218
-1.1254037
-0.20805791
-1.1793927
-0.20711393
-1.2360825
-0.20495101
-1.2956087
-0.20140195
-1.3581061
-0.19628382
-1.4237058
-0.18939123
-1.4925445
-0.18050039
-1.5647558
-0.16935256
-1.6404556
-0.15569654
-1.7197067
-0.13929568
-1.8023891
-0.11945874
-1.8887702
-0.096939924
-1.9798282
-0.069154356
-2.0754581
-2.1812932
-0.00057450582
-0.049631962
-0.0013905357
-0.062628019
-0.002205961
-0.061232841
-0.0031131834
-0.066746821
-0.0040105759
-0.068417558
-0.0049948327
-0.072518172
-0.0059809534
-0.075429508
-0.0070507681
-0.079272109
-0.0081401504
-0.082849678
-0.0093026321
-0.086819936
-0.010505315
-0.090871274
-0.011772246
-0.095151393
-0.013094494
-0.099614822
-0.014480325
-0.10428736
-0.015930432
-0.10917424
-0.017448414
-0.11428524
-0.019037625
-0.11963062
-0.020701026
-0.12522063
-0.022442895
-0.13106549
-0.024266067
-0.13717756
-0.026175042
-0.14356748
-0.028173359
-0.15024858
-0.030264914
-0.15723323
-0.032454511
-0.16453462
-0.034745442
-0.17216768
-0.037142938
-0.18014655
-0.039650473
-0.18848731
-0.04227314
-0.19720589
-0.04501452
-0.20632015
-0.047879788
-0.21584725
-0.050872084
-0.22580761
-0.053995764
-0.23622053
-0.057254668
-0.24710802
-0.060651515
-0.25849256
-0.064189932
-0.27039785
-0.067872129
-0.28284962
-0.07170039
-0.2958746
-0.075675283
-0.30950179
-0.079797881
-0.32376075
-0.084067734
-0.33868409
-0.088483125
-0.35430592
-0.093042015
-0.37066168
-0.097741107
-0.38778978
-0.10257503
-0.40573065
-0.10753789
-0.42452697
-0.11262181
-0.44422354
-0.11781769
-0.46486785
-0.12311374
-0.48651097
-0.12849758
-0.50920478
-0.13395372
-0.53300589
-0.13946415
-0.55797334
-0.14500965
-0.58416827
-0.15056711
-0.61165711
-0.1561108
-0.64050802
-0.16161172
-0.67079326
-0.16703713
-0.70258985
-0.17235057
-0.73597702
-0.17750996
-0.77104034
-0.1824698
-0.80786771
-0.18717749
-0.84655371
-0.1915753
-0.88719651
-0.19559775
-0.92990109
-0.19917268
-0.97477819
-0.20221875
-1.0219457
-0.20464583
-1.0715288
-0.20635302
-1.1236589
-0.20723297
-1.1784731
-0.20716101
-1.236113
-0.20599931
-1.2967268
-0.20360149
-1.3604571
-0.19979588
-1.427459
-0.19440236
-1.4978756
-0.18721051
-1.5718696
-0.17799428
-1.6495719
-0.16652675
-1.7310484
-0.1525124
-1.8162514
-0.1356162
-1.9055008
-0.11583473
-1.9994773
-0.09186032
-2.0993623
-2.2087826
-0.00051860169
-0.049115133
-0.001274022
-0.061873837
-0.0020147127
-0.060493461
-0.0028703859
-0.065892572
-0.0037012017
-0.067588347
-0.0046187355
-0.071602219
-0.0055277045
-0.074522232
-0.0065239438
-0.078277584
-0.007532771
-0.081842653
-0.0086141812
-0.085740379
-0.0097326859
-0.089754698
-0.010912532
-0.09397354
-0.01214576
-0.098383659
-0.013439638
-0.10299562
-0.014795848
-0.10782024
-0.01621817
-0.1128652
-0.017709916
-0.11814123
-0.019274485
-0.12365848
-0.020915371
-0.1294271
-0.022636947
-0.13545855
-0.02444241
-0.14176466
-0.02633685
-0.14835685
-0.028324203
-0.15524865
-0.030408483
-0.16245318
-0.032594875
-0.16998419
-0.034887359
-0.17785701
-0.037291002
-0.18608666
-0.039810174
-0.19468975
-0.042450356
-0.20368303
-0.045214935
-0.21308575
-0.048109075
-0.22291655
-0.051137168
-0.23319551
-0.054302941
-0.24394528
-0.057610311
-0.25518818
-0.061062723
-0.26694836
-0.064662673
-0.27925248
-0.068412418
-0.29212754
-0.072313925
-0.30560281
-0.076367598
-0.31970941
-0.080573542
-0.33448024
-0.084931224
-0.34995006
-0.089438044
-0.36615635
-0.094091283
-0.38313764
-0.098886672
-0.40093592
-0.10381839
-0.41959539
-0.10888006
-0.43916142
-0.11406214
-0.45968468
-0.11935584
-0.48121543
-0.12474854
-0.50380943
-0.1302268
-0.52752408
-0.13577514
-0.55242044
-0.14137516
-0.5785626
-0.14700681
-0.60601862
-0.15264742
-0.63485924
-0.15827011
-0.66516095
-0.16384668
-0.69700207
-0.16934377
-0.73046696
-0.17472461
-0.7656446
-0.17994798
-0.80262731
-0.18496729
-0.84151503
-0.18973057
-0.88241136
-0.19417949
-0.92542766
-0.19824931
-0.97068116
-0.20186725
-1.018298
-0.20495268
-1.0684111
-0.20741798
-1.1211592
-0.20915876
-1.1766959
-0.21007061
-1.2351627
-0.21002703
-1.2967294
-0.20889759
-1.3615417
-0.20653127
-1.4297741
-0.20275386
-1.5015914
-0.19738901
-1.5771568
-0.19022742
-1.6566341
-0.18105965
-1.7400912
-0.16961416
-1.8275472
-0.15564089
-1.9193139
-0.13892532
-2.0160654
-0.11866088
-2.1195736
-2.2323596
-0.00046288292
-0.048653944
-0.0011704652
-0.061167467
-0.001832874
-0.059832681
-0.0026335468
-0.065093283
-0.003391476
-0.066831955
-0.0042508433
-0.070744381
-0.0050921656
-0.073682548
-0.0060229952
-0.077348418
-0.0069596744
-0.080907723
-0.0079678492
-0.084734005
-0.0090117442
-0.088712677
-0.01011434
-0.092872882
-0.01126984
-0.097230166
-0.012484451
-0.10178308
-0.013760593
-0.10654624
-0.015101401
-0.1115266
-0.016510665
-0.11673425
-0.017992189
-0.12217931
-0.019549697
-0.12787202
-0.021187245
-0.13382349
-0.022909572
-0.14004489
-0.02472005
-0.14654899
-0.026624217
-0.15334716
-0.028626683
-0.16045345
-0.030731996
-0.16788166
-0.032945463
-0.17564637
-0.035272322
-0.18376267
-0.037717546
-0.19224742
-0.040286101
-0.20111739
-0.04298323
-0.21039153
-0.045813857
-0.22008883
-0.048782508
-0.23022974
-0.051893598
-0.24083703
-0.055151545
-0.25193301
-0.058559578
-0.26354301
-0.062120859
-0.27569378
-0.06583797
-0.28841286
-0.069712902
-0.30173015
-0.073746498
-0.31567787
-0.077939244
-0.33028932
-0.082290198
-0.34560063
-0.086798287
-0.36164946
-0.091460334
-0.3784764
-0.096272769
-0.39612385
-0.10123125
-0.41463678
-0.10632891
-0.43406306
-0.11155867
-0.45445359
-0.11691152
-0.47586054
-0.1223769
-0.49834124
-0.1279434
-0.52195392
-0.13359667
-0.54676256
-0.13932143
-0.57283223
-0.14509976
-0.60023355
-0.15091147
-0.62903959
-0.1567343
-0.65932886
-0.16254253
-0.69118312
-0.16830699
-0.72469019
-0.17399629
-0.75994126
-0.17957363
-0.79703399
-0.18499878
-0.83607182
-0.19022559
-0.87716425
-0.19520302
-0.92042757
-0.19987356
-0.9659856
-0.20417356
-1.0139706
-0.20803196
-1.0645233
-0.2113685
-1.1177913
-0.21409895
-1.1739322
-0.21611915
-1.233107
-0.2173305
-1.2954796
-0.21760181
-1.3612274
-0.21680724
-1.4305186
-0.21479504
-1.5035427
-0.21139988
-1.5804752
-0.20644243
-1.6614938
-0.19972347
-1.7466881
-0.19100297
-1.836123
-0.18006685
-1.9300989
-0.16664478
-2.029371
-0.1502118
-2.1359778
-2.2518165
-0.00041245544
-0.048243107
-0.001078348
-0.06050274
-0.0016774857
-0.059234983
-0.0024193749
-0.064352726
-0.0031017944
-0.066151021
-0.0039092525
-0.069938401
-0.0046849146
-0.072908465
-0.0055562709
-0.076478668
-0.0064300717
-0.08003561
-0.0073754056
-0.083790407
-0.0083579038
-0.087731983
-0.0093971349
-0.091835515
-0.010489564
-0.096139666
-0.011639883
-0.10063476
-0.012850939
-0.10533724
-0.014126607
-0.11025306
-0.015470396
-0.11539264
-0.016886191
-0.12076577
-0.018378494
-0.12638202
-0.019951303
-0.13225305
-0.021609721
-0.13838889
-0.023358569
-0.14480262
-0.025202999
-0.15150526
-0.027148128
-0.15851089
-0.029199587
-0.16583281
-0.031363205
-0.1734854
-0.033643738
-0.1814848
-0.036047515
-0.18984632
-0.038579863
-0.19858771
-0.041246193
-0.20772786
-0.04405213
-0.21728552
-0.047002289
-0.22728216
-0.050102113
-0.23773973
-0.053354949
-0.24868261
-0.056765364
-0.26013492
-0.06033676
-0.27212458
-0.064071412
-0.28468024
-0.067971393
-0.297832
-0.072038344
-0.31161253
-0.076272439
-0.32605656
-0.080673684
-0.34120042
-0.085240201
-0.35708361
-0.089970392
-0.37374648
-0.094861147
-0.39123291
-0.09990755
-0.40958968
-0.10510467
-0.42886467
-0.11044691
-0.44910945
-0.11592558
-0.47037928
-0.12153291
-0.49273056
-0.12725765
-0.51622499
-0.13308937
-0.54092578
-0.13901425
-0.56690131
-0.14501742
-0.59422331
-0.15108193
-0.62296688
-0.15718858
-0.65321279
-0.16331571
-0.68504526
-0.16943965
-0.71855408
-0.17553232
-0.75383485
-0.18156315
-0.79098773
-0.18749689
-0.83012081
-0.193295
-0.87134691
-0.19891308
-0.91478823
-0.20430191
-0.9605735
-0.20940608
-1.0088413
-0.21416393
-1.0597385
-0.21850669
-1.1134199
-0.22235817
-1.1700504
-0.22563591
-1.2297967
-0.22823992
-1.2928398
-0.23007142
-1.359355
-0.23100813
-1.4295334
-0.2309207
-1.5035705
-0.22966414
-1.5816567
-0.22707819
-1.6639848
-0.22298258
-1.7506666
-0.21716735
-1.841802
-0.20942957
-1.9376984
-0.199523
-2.0391772
-0.18705606
-2.1484402
-2.2669417
-0.00036981311
-0.047874829
-0.0010042493
-0.059869419
-0.0015478626
-0.058692759
-0.0022417486
-0.06366012
-0.002863064
-0.065531137
-0.003623571
-0.069179302
-0.004342053
-0.072191496
-0.0051516162
-0.075670638
-0.0059824986
-0.079206333
-0.0068809731
-0.082893582
-0.0078168906
-0.086797778
-0.0088060928
-0.09084808
-0.0098482028
-0.095099382
-0.010947247
-0.099537596
-0.012107264
-0.10417916
-0.01333173
-0.10903059
-0.014625497
-0.11410093
-0.015992657
-0.11940072
-0.017438011
-0.12493883
-0.018966961
-0.13072631
-0.020584117
-0.13677399
-0.022295698
-0.14309334
-0.024106931
-0.14969636
-0.026023525
-0.15659666
-0.028051856
-0.16380686
-0.030197585
-0.17134206
-0.032467627
-0.17921715
-0.034867571
-0.18744876
-0.037403183
-0.19605446
-0.040081108
-0.20505226
-0.042906397
-0.2144625
-0.045884687
-0.22430607
-0.04902071
-0.2346058
-0.052319648
-0.24538565
-0.055784625
-0.25667179
-0.059419383
-0.26849149
-0.06322712
-0.28087398
-0.067209603
-0.29385076
-0.071368047
-0.30745506
-0.075703197
-0.32172208
-0.080215108
-0.33668884
-0.084902632
-0.35239603
-0.089764321
-0.36888429
-0.094797128
-0.38619912
-0.099998255
-0.40438703
-0.10536328
-0.42349754
-0.11088687
-0.4435831
-0.11656366
-0.46469903
-0.12238581
-0.48690419
-0.12834604
-0.51025972
-0.13443446
-0.53483144
-0.14064086
-0.56068807
-0.14695368
-0.58790265
-0.1533589
-0.61655276
-0.1598415
-0.64672017
-0.1663837
-0.67849182
-0.17296625
-0.71195901
-0.17956664
-0.74722053
-0.18615941
-0.78437953
-0.19271629
-0.8235469
-0.19920429
-0.86484021
-0.20558715
-0.90838496
-0.21182327
-0.95431532
-0.21786653
-1.0027744
-0.22366522
-1.0539148
-0.22916094
-1.107898
-0.23428938
-1.1648943
-0.23897958
-1.2250768
-0.24314826
-1.2886379
-0.24670515
-1.3557596
-0.24955273
-1.4266393
-0.25157435
-1.5014912
-0.2526426
-1.5805161
-0.25262527
-1.6639119
-0.2513556
-1.7518267
-0.24864563
-1.8443876
-0.24432327
-1.9418998
-0.23816602
-2.0452559
-0.22990673
-2.1567213
-2.2774793
-0.00032729128
-0.047548981
-0.00093610464
-0.059261659
-0.0014301728
-0.058200002
-0.0020778723
-0.063013629
-0.0026535652
-0.064956789
-0.0033837578
-0.068450431
-0.0040676871
-0.071508984
-0.0048591088
-0.074880664
-0.00565083
-0.078416117
-0.0065036295
-0.08204233
-0.0073975179
-0.085905493
-0.0083438853
-0.089903366
-0.0093452371
-0.094099736
-0.010405007
-0.098479583
-0.011527637
-0.10305834
-0.01271771
-0.10784237
-0.013979194
-0.11284135
-0.015318075
-0.11806378
-0.016739195
-0.12351969
-0.018248241
-0.12921929
-0.019851065
-0.13517322
-0.021553685
-0.14139279
-0.023362424
-0.14788971
-0.025284541
-0.15467664
-0.027325529
-0.16176797
-0.029492896
-0.16917678
-0.031792806
-0.17691931
-0.034232118
-0.18501148
-0.036817373
-0.19347119
-0.039554666
-0.20231688
-0.042449765
-0.21156923
-0.045508453
-0.22124909
-0.048735905
-0.23137994
-0.052136222
-0.24198676
-0.0557137
-0.25309556
-0.059471905
-0.26473432
-0.063413086
-0.27693359
-0.067539582
-0.28972479
-0.071852815
-0.30314203
-0.076353455
-0.3172213
-0.081041447
-0.33200031
-0.085916899
-0.3475196
-0.09097785
-0.36382189
-0.096222864
-0.38095213
-0.10164958
-0.39895775
-0.10725482
-0.41788911
-0.11303511
-0.43779894
-0.11898628
-0.45874325
-0.1251033
-0.48078179
-0.13138048
-0.50397632
-0.13781159
-0.52839324
-0.14438863
-0.55410301
-0.15110331
-0.58117899
-0.15794562
-0.60970045
-0.16490453
-0.63975019
-0.17196726
-0.67141689
-0.17911856
-0.70479433
-0.1863416
-0.73998285
-0.19361704
-0.77708813
-0.20092246
-0.81622413
-0.20823239
-0.8575115
-0.2155178
-0.90107936
-0.2227455
-0.94706613
-0.2298787
-0.9956186
-0.23687499
-1.046895
-0.24368805
-1.1010605
-0.25026483
-1.158292
-0.25654494
-1.2187694
-0.26246324
-1.2826892
-0.26794738
-1.3502398
-0.27290314
-1.42164
-0.27724286
-1.497097
-0.28085393
-1.5768368
-0.28362244
-1.6610596
-0.28540748
-1.7499424
-0.28604487
-1.8436415
-0.2853801
-1.9424656
-0.28322925
-2.0473548
-0.27943011
-2.1605777
-2.2831402
-0.00028592789
-0.047264405
-0.00087570033
-0.058672872
-0.0013289891
-0.057747941
-0.0019512058
-0.06239254
-0.0025041851
-0.064405068
-0.0032087581
-0.067747089
-0.0038667652
-0.070852303
-0.0046343706
-0.074114384
-0.0053963781
-0.077655509
-0.0062164837
-0.08122366
-0.0070828646
-0.085040596
-0.0080022339
-0.088985523
-0.0089794705
-0.093124068
-0.010018013
-0.097442651
-0.011122945
-0.10195506
-0.012299107
-0.1066679
-0.013552173
-0.11159
-0.014887563
-0.11673014
-0.016311295
-0.12209774
-0.01783015
-0.12770222
-0.019450176
-0.133555
-0.021178909
-0.13966587
-0.023022736
-0.14604769
-0.024989058
-0.15271211
-0.027085471
-0.15967333
-0.029318772
-0.16694521
-0.031696513
-0.17454325
-0.034225577
-0.18248403
-0.036912423
-0.19078587
-0.039763878
-0.19946685
-0.042786028
-0.20854838
-0.045983955
-0.21805232
-0.049362572
-0.2280023
-0.052926718
-0.2384234
-0.056680111
-0.24934272
-0.060625566
-0.26078916
-0.064766033
-0.27279313
-0.069103455
-0.28538704
-0.07363896
-0.29860584
-0.078373723
-0.31248544
-0.083307847
-0.32706465
-0.088441115
-0.34238431
-0.093773366
-0.35848708
-0.099304058
-0.37541829
-0.10503163
-0.3932264
-0.11095477
-0.41196151
-0.11707154
-0.43167698
-0.12337986
-0.45242896
-0.12987736
-0.4742775
-0.13656064
-0.49728539
-0.14342652
-0.5215188
-0.15047084
-0.54704921
-0.15768843
-0.57395093
-0.16507388
-0.60230354
-0.17262003
-0.63219154
-0.18031892
-0.66370442
-0.18816035
-0.69693822
-0.19613369
-0.73199366
-0.20422504
-0.76897973
-0.21241861
-0.80801228
-0.22069646
-0.84921416
-0.22903731
-0.89271785
-0.2374169
-0.93866487
-0.24580685
-0.98720619
-0.25417645
-1.0385024
-0.26248938
-1.0927241
-0.27070626
-1.1500512
-0.27877874
-1.2106718
-0.28665651
-1.2747838
-0.2942757
-1.3425883
-0.30157126
-1.4143047
-0.30846303
-1.4901552
-0.31486456
-1.5703727
-0.32067521
-1.6551734
-0.32577854
-1.7447525
-0.3300355
-1.8392951
-0.33330925
-1.9391189
-0.33546746
-2.0451752
-0.33644952
-2.1596938
-2.2835888
-0.00024741744
-0.047018243
-0.00082541581
-0.058095786
-0.0012483374
-0.057326156
-0.0018922615
-0.061749663
-0.0024305319
-0.063867963
-0.0031157145
-0.067063054
-0.003750334
-0.070218901
-0.0044771467
-0.073388805
-0.0052240824
-0.076909856
-0.0060276558
-0.0804214
-0.0068832965
-0.084186307
-0.0077938501
-0.088076355
-0.0087664404
-0.092152897
-0.0098050018
-0.096405539
-0.010915291
-0.10084624
-0.012103068
-0.10548162
-0.01337457
-0.11032002
-0.014736483
-0.11536976
-0.0161956
-0.12064016
-0.017758635
-0.12614073
-0.019434214
-0.13188095
-0.021228794
-0.1378728
-0.023151245
-0.14412673
-0.025208853
-0.15065595
-0.027409454
-0.15747412
-0.029761143
-0.16459485
-0.032271327
-0.17203431
-0.034946978
-0.17980952
-0.0377955
-0.18793837
-0.040822875
-0.19644035
-0.044034699
-0.20533726
-0.047436632
-0.21465091
-0.051033116
-0.22440612
-0.054828365
-0.2346282
-0.058825685
-0.24534517
-0.063027918
-0.2565864
-0.067437334
-0.26838283
-0.072055677
-0.28076744
-0.076884737
-0.2937751
-0.081925235
-0.30744281
-0.087178129
-0.32180911
-0.092644231
-0.33691501
-0.098324054
-0.35280346
-0.10421764
-0.36952027
-0.11032586
-0.38711305
-0.11664924
-0.40563225
-0.12318779
-0.42513176
-0.12994197
-0.44566726
-0.13691203
-0.46729906
-0.14409821
-0.49008991
-0.15149981
-0.51410695
-0.15911711
-0.53942069
-0.16694867
-0.56610714
-0.17499303
-0.59424593
-0.18324818
-0.6239221
-0.1917108
-0.65522644
-0.20037694
-0.68825563
-0.2092408
-0.72311225
-0.21829562
-0.75990624
-0.22753269
-0.7987554
-0.23694066
-0.83978528
-0.24650699
-0.88312963
-0.25621608
-0.9289331
-0.26605015
-0.97734896
-0.27598782
-1.0285413
-0.28600491
-1.0826838
-0.29607312
-1.1399598
-0.30616093
-1.2005604
-0.31622838
-1.2646911
-0.32623192
-1.3325559
-0.33612142
-1.40438
-0.34582884
-1.4804035
-0.35529109
-1.5608552
-0.36443017
-1.6459687
-0.37315347
-1.7359578
-0.38134245
-1.8310395
-0.38888897
-1.9315296
-0.39568819
-2.0383906
-0.40179954
-2.1537307
-2.2784523
-0.00021294322
-0.046806458
-0.00079064998
-0.057518914
-0.001190303
-0.056927547
-0.0018543918
-0.061086523
-0.0023707548
-0.063352665
-0.0030475404
-0.066387308
-0.0036740713
-0.069593477
-0.0043943605
-0.072669632
-0.0051433287
-0.076162045
-0.0059465958
-0.079619313
-0.0068093436
-0.083324769
-0.0077317073
-0.087155225
-0.0087221394
-0.09116372
-0.0097854456
-0.095343506
-0.010928287
-0.099704688
-0.01215737
-0.10425383
-0.013479866
-0.10899882
-0.014903104
-0.11394781
-0.016435512
-0.11910904
-0.018085009
-0.1244925
-0.019859865
-0.13010733
-0.021768991
-0.13596487
-0.023820528
-0.14207633
-0.026023186
-0.14845436
-0.028385682
-0.15511261
-0.03091542
-0.162066
-0.033620241
-0.16933025
-0.036507444
-0.17692294
-0.039583793
-0.18486248
-0.042854533
-0.19316989
-0.046326104
-0.20186576
-0.050002375
-0.21097446
-0.053888134
-0.22051992
-0.05798617
-0.23052943
-0.062299313
-0.24103097
-0.066830506
-0.25205378
-0.071581682
-0.26362983
-0.076554378
-0.27579248
-0.08175034
-0.2885764
-0.087171379
-0.30201851
-0.092819012
-0.31615765
-0.098695033
-0.33103455
-0.10480111
-0.34669229
-0.11113982
-0.36317573
-0.11771353
-0.38053277
-0.12452457
-0.3988138
-0.13157661
-0.41807146
-0.13887212
-0.43836257
-0.1464151
-0.45974594
-0.15420887
-0.48228501
-0.16225726
-0.50604641
-0.17056316
-0.5311016
-0.17913037
-0.55752569
-0.18796216
-0.58539882
-0.19706098
-0.61480688
-0.20642912
-0.6458408
-0.21606844
-0.67859769
-0.22597936
-0.7131816
-0.23616152
-0.74970323
-0.24661308
-0.78828187
-0.25733189
-0.82904345
-0.26831265
-0.87212494
-0.27954942
-0.91767175
-0.29103424
-0.96583926
-0.302757
-1.0167939
-0.31470538
-1.0707112
-0.32686451
-1.1277771
-0.33921401
-1.1881878
-0.35173375
-1.2521479
-0.36439363
-1.3198705
-0.37715386
-1.3915898
-0.38997968
-1.4675402
-0.40281453
-1.5479737
-0.4156033
-1.6331259
-0.42827679
-1.72323
-0.44075987
-1.8185155
-0.45294907
-1.9193313
-0.4647824
-2.026612
-0.47642371
-2.1422916
-2.2673173
-0.0001913971
-0.04661612
-0.00078798423
-0.05692308
-0.0011833633
-0.056533117
-0.0018410068
-0.060429736
-0.0023500967
-0.062844533
-0.0030290641
-0.065709274
-0.0036705278
-0.068953003
-0.0043976215
-0.071943532
-0.0051679743
-0.075392717
-0.0059922499
-0.078796078
-0.006884035
-0.082434041
-0.0078425579
-0.086197773
-0.0088773698
-0.090129987
-0.0099945297
-0.094227429
-0.01120175
-0.09849855
-0.012506912
-0.10294974
-0.013918457
-0.10758834
-0.015445214
-0.11242209
-0.017095813
-0.11745944
-0.018880196
-0.12270907
-0.020807167
-0.12818126
-0.022886387
-0.13388648
-0.025126678
-0.13983679
-0.027537132
-0.14604455
-0.030126264
-0.15252401
-0.032902129
-0.15929052
-0.035871731
-0.16636088
-0.039042194
-0.17375253
-0.042418967
-0.18148556
-0.046008033
-0.18958044
-0.04981319
-0.19805997
-0.053838567
-0.20694817
-0.058087463
-0.2162698
-0.062562441
-0.22605288
-0.067265952
-0.23632551
-0.072200214
-0.24711715
-0.077366893
-0.25846034
-0.08276843
-0.27038763
-0.088406738
-0.28293425
-0.094284522
-0.2961363
-0.10040465
-0.31003247
-0.10677046
-0.324663
-0.1133861
-0.34007018
-0.12025579
-0.35629879
-0.12738435
-0.37339611
-0.13477769
-0.39141145
-0.14244162
-0.41039758
-0.15038274
-0.43041049
-0.15860776
-0.45150892
-0.16712414
-0.47375556
-0.17593936
-0.497217
-0.18506185
-0.5219638
-0.19449923
-0.54807183
-0.20425975
-0.57562065
-0.21435104
-0.60469678
-0.22478169
-0.63539015
-0.23555862
-0.66779958
-0.24668915
-0.70202869
-0.25818004
-0.73818877
-0.27003742
-0.77639972
-0.28226619
-0.81678881
-0.29487088
-0.85949345
-0.3078549
-0.90466029
-0.32122059
-0.95244593
-0.33496951
-1.0030177
-0.34910142
-1.0565529
-0.36361413
-1.1132394
-0.3785028
-1.1732756
-0.39376306
-1.236865
-0.40937668
-1.304234
-0.42533086
-1.3756103
-0.44159597
-1.4512447
-0.45814565
-1.5313871
-0.47494792
-1.6162828
-0.49195761
-1.706185
-0.50912467
-1.8013348
-0.5263736
-1.9021083
-0.54368175
-2.0094012
-0.56129419
-2.1249408
-2.2497235
-0.00017307576
-0.046444005
-0.00079840792
-0.056298418
-0.0012006401
-0.056131739
-0.0018673326
-0.05976381
-0.0023883953
-0.062324323
-0.0030824114
-0.065016083
-0.0037539422
-0.068282341
-0.0045041119
-0.071194229
-0.0053140151
-0.074583701
-0.006181617
-0.077929368
-0.0071264722
-0.081490084
-0.0081485487
-0.085176594
-0.0092581557
-0.089021273
-0.010463002
-0.093023465
-0.011772133
-0.097190282
-0.013194876
-0.10152784
-0.014740984
-0.10604303
-0.016420569
-0.11074326
-0.018243913
-0.11563679
-0.020220959
-0.12073265
-0.022362134
-0.12604063
-0.024677052
-0.13157201
-0.02717493
-0.13733924
-0.029864969
-0.14335471
-0.032754964
-0.14963405
-0.035852218
-0.15619314
-0.039163949
-0.16304882
-0.042695024
-0.17022091
-0.046450666
-0.17772912
-0.050434793
-0.18559525
-0.054650812
-0.19384259
-0.059101752
-0.20249555
-0.063788963
-0.21158054
-0.068715671
-0.22112375
-0.073883298
-0.23115502
-0.079293792
-0.24170334
-0.084950041
-0.25280027
-0.090854325
-0.26447898
-0.097010833
-0.27677278
-0.10342335
-0.28971819
-0.11009652
-0.303353
-0.11703591
-0.31771658
-0.12424821
-0.33285003
-0.13174036
-0.34879793
-0.1395204
-0.36560642
-0.14759728
-0.38332392
-0.15598035
-0.40200282
-0.16467973
-0.42169832
-0.17370659
-0.44246812
-0.18307212
-0.4643749
-0.19278865
-0.4874841
-0.202868
-0.51186683
-0.21332399
-0.53759694
-0.22416934
-0.56475511
-0.23541821
-0.59342641
-0.24708379
-0.62370176
-0.25918065
-0.65567859
-0.27172245
-0.6894614
-0.284723
-0.72516138
-0.29819686
-0.76289769
-0.31215706
-0.80279917
-0.32661749
-0.84500251
-0.3415918
-0.88965473
-0.35709328
-0.93691298
-0.37313462
-0.98694528
-0.38972878
-1.0399289
-0.4068878
-1.0960523
-0.424623
-1.1555146
-0.44293979
-1.2185247
-0.46184452
-1.2853074
-0.48133673
-1.3560962
-0.50141361
-1.4311439
-0.52206549
-1.5107084
-0.54327698
-1.5950447
-0.56504183
-1.6844039
-0.58732712
-1.7790614
-0.61009352
-1.8794007
-0.63336151
-1.9862725
-0.65745729
-2.1011671
-2.2251573
-0.0001588875
-0.046285978
-0.00082588087
-0.055632011
-0.0012416157
-0.055716759
-0.0019382446
-0.059067849
-0.0024892211
-0.061774089
-0.0032112295
-0.064294785
-0.0039330578
-0.067561257
-0.0047274129
-0.070400609
-0.0055997084
-0.073712147
-0.0065376841
-0.07699213
-0.0075648446
-0.080463652
-0.0086833341
-0.08405882
-0.0099045383
-0.087800763
-0.011238242
-0.091690428
-0.01269503
-0.095734123
-0.014285988
-0.099937461
-0.016022267
-0.10430727
-0.017915115
-0.10885087
-0.019975675
-0.11357661
-0.022214767
-0.11849384
-0.024642517
-0.12361304
-0.027268872
-0.12894568
-0.030103034
-0.13450496
-0.033152541
-0.14030492
-0.036424926
-0.1463612
-0.039926159
-0.15269122
-0.04366111
-0.15931295
-0.047634112
-0.16624673
-0.0518483
-0.17351348
-0.05630602
-0.18113577
-0.061009032
-0.18913748
-0.065959424
-0.19754269
-0.071158651
-0.20637846
-0.076608472
-0.21567063
-0.082311372
-0.22544836
-0.088270024
-0.23574042
-0.094487897
-0.24657758
-0.10097008
-0.25799139
-0.10772097
-0.27001584
-0.11474761
-0.28268478
-0.12205692
-0.29603618
-0.12965822
-0.31010694
-0.13755994
-0.32493908
-0.1457729
-0.34057479
-0.15430906
-0.35705905
-0.16318008
-0.37444061
-0.17239961
-0.39276985
-0.18198209
-0.41210117
-0.1919422
-0.43249207
-0.20229624
-0.45400359
-0.21306044
-0.47670126
-0.22425301
-0.5006542
-0.23589131
-0.52593715
-0.24799435
-0.55262912
-0.26058203
-0.58081428
-0.27367424
-0.61058361
-0.28729137
-0.642034
-0.30145534
-0.6752684
-0.31618761
-0.71039849
-0.33150992
-0.74754316
-0.34744531
-0.78683005
-0.3640174
-0.82839537
-0.38125003
-0.87238609
-0.39916736
-0.91895922
-0.41779576
-0.96828081
-0.43716079
-1.020529
-0.45728839
-1.075892
-0.47820428
-1.1345689
-0.49993179
-1.1967707
-0.52249615
-1.2627196
-0.54591553
-1.3326557
-0.57020511
-1.4068345
-0.59538005
-1.4855153
-0.62145665
-1.568955
-0.64844387
-1.6574178
-0.67634511
-1.7511929
-0.70513732
-1.850695
-0.73489933
-1.9566872
-0.76601158
-2.0704284
-2.1930374
-0.00015075985
-0.046135982
-0.00087843329
-0.054904841
-0.0013129639
-0.055282886
-0.0020529104
-0.058328472
-0.0026542852
-0.061173347
-0.0034225575
-0.063527109
-0.0042177069
-0.066766722
-0.0050810301
-0.069537886
-0.006041363
-0.072752406
-0.0070810111
-0.075953057
-0.0082255953
-0.079319621
-0.009480821
-0.082804117
-0.010859585
-0.086422484
-0.012373721
-0.09017673
-0.014035623
-0.0940726
-0.015857655
-0.09811574
-0.017852152
-0.10231301
-0.02003102
-0.10667214
-0.022405802
-0.11120185
-0.024987266
-0.11591227
-0.027785481
-0.12081458
-0.030809143
-0.12592161
-0.034065885
-0.13124763
-0.037562511
-0.1368075
-0.041303736
-0.14261896
-0.045293909
-0.1486998
-0.049535236
-0.15507011
-0.054029884
-0.16175028
-0.058779271
-0.16876198
-0.063784101
-0.17612849
-0.069045627
-0.18387313
-0.07456469
-0.1920204
-0.080343436
-0.20059605
-0.08638404
-0.2096259
-0.092690331
-0.21913744
-0.099266223
-0.22915935
-0.10611793
-0.2397201
-0.11325161
-0.25085129
-0.12067623
-0.26258409
-0.12840025
-0.27495289
-0.13643531
-0.28799241
-0.144792
-0.30174066
-0.15348399
-0.31623652
-0.16252566
-0.3315215
-0.17193177
-0.3476402
-0.18171885
-0.36463959
-0.19190441
-0.38256907
-0.20250688
-0.40148212
-0.21354608
-0.42143489
-0.22504215
-0.44248804