/*--------------------------------*- C++ -*----------------------------------*\
  =========                 |
  \\      /  F ield         | OpenFOAM: The Open Source CFD Toolbox
   \\    /   O peration     | Website:  https://openfoam.org
    \\  /    A nd           | Version:  12
     \\/     M anipulation  |
\*---------------------------------------------------------------------------*/
FoamFile
{
    format      ascii;
    class       volScalarField;
    location    "0.071";
    object      rho;
}
// * * * * * * * * * * * * * * * * * * * * * * * * * * * * * * * * * * * * * //

dimensions      [1 -3 0 0 0 0 0];

internalField   nonuniform List<scalar> 
16000
(
1.0568272
1.0897912
1.0775057
1.0858903
1.0820274
1.0854712
1.0844914
1.0863155
1.0864625
1.0876722
1.0883258
1.0893416
1.0902218
1.091221
1.0922199
1.0932711
1.0943548
1.0954787
1.096641
1.0978425
1.0990832
1.1003631
1.101682
1.1030396
1.1044351
1.1058677
1.1073364
1.1088397
1.1103759
1.1119433
1.1135394
1.1151619
1.1168079
1.1184744
1.1201579
1.1218551
1.123562
1.1252747
1.1269891
1.1287009
1.1304058
1.1320995
1.1337777
1.1354361
1.1370707
1.1386774
1.1402526
1.1417927
1.1432946
1.1447553
1.1461721
1.1475429
1.1488655
1.1501383
1.1513599
1.1525294
1.1536458
1.1547086
1.1557174
1.1566722
1.1575727
1.1584192
1.1592123
1.1599526
1.1606412
1.1612794
1.1618685
1.1624102
1.1629055
1.1633541
1.1637533
1.1640964
1.1643722
1.1645599
1.1646334
1.1645617
1.1645551
1.163615
1.1649472
1.1625069
1.0534192
1.0868927
1.0740901
1.0829305
1.0788387
1.0825525
1.0814694
1.0834668
1.0836058
1.0849182
1.0856232
1.0867143
1.0876684
1.088742
1.0898214
1.0909535
1.0921224
1.0933336
1.0945861
1.0958805
1.0972165
1.098594
1.1000125
1.1014713
1.1029694
1.1045057
1.1060785
1.1076861
1.1093264
1.1109969
1.1126949
1.1144173
1.1161608
1.1179217
1.1196963
1.1214804
1.1232697
1.1250598
1.1268461
1.128624
1.1303889
1.1321363
1.1338617
1.1355609
1.1372298
1.1388645
1.1404616
1.142018
1.1435306
1.1449971
1.1464152
1.1477832
1.1490997
1.1503634
1.1515737
1.1527299
1.1538317
1.1548791
1.155872
1.1568108
1.1576957
1.1585272
1.159306
1.160033
1.1607095
1.1613366
1.1619158
1.1624487
1.1629359
1.1633769
1.1637684
1.1641038
1.1643709
1.1645468
1.164605
1.1645745
1.1643903
1.163796
1.1646708
1.162696
1.050317
1.0842295
1.0710579
1.0801995
1.0759657
1.0798805
1.0787687
1.080886
1.0810668
1.0824623
1.0832414
1.0844093
1.0854491
1.0866056
1.0877754
1.0889988
1.090263
1.0915721
1.0929252
1.0943226
1.0957637
1.0972482
1.0987751
1.1003433
1.1019516
1.1035983
1.1052813
1.1069983
1.1087467
1.1105234
1.1123252
1.1141484
1.1159889
1.1178427
1.1197051
1.1215716
1.1234373
1.1252972
1.1271466
1.1289803
1.1307936
1.1325819
1.1343406
1.1360656
1.137753
1.1393993
1.1410013
1.1425563
1.1440621
1.1455166
1.1469183
1.148266
1.1495591
1.1507969
1.1519794
1.1531065
1.1541784
1.1551957
1.1561588
1.1570684
1.1579251
1.1587297
1.1594832
1.1601867
1.1608415
1.1614488
1.1620103
1.1625269
1.1629992
1.1634261
1.1638038
1.1641256
1.1643777
1.1645362
1.1645871
1.1645461
1.1642953
1.1638991
1.1645043
1.1628173
1.0475395
1.0818112
1.0682065
1.0777369
1.0733636
1.0775088
1.0763731
1.0786281
1.0788598
1.080351
1.0812179
1.0824741
1.0836139
1.0848664
1.08614
1.0874678
1.0888399
1.0902591
1.0917246
1.0932361
1.094793
1.0963945
1.0980393
1.0997261
1.1014529
1.1032176
1.1050176
1.10685
1.1087115
1.1105984
1.1125066
1.1144317
1.116369
1.1183136
1.1202604
1.122204
1.1241391
1.1260603
1.1279623
1.1298398
1.1316881
1.1335023
1.1352782
1.1370118
1.1386997
1.1403387
1.1419264
1.1434605
1.1449395
1.1463623
1.1477279
1.1490361
1.1502868
1.1514803
1.1526171
1.1536978
1.1547234
1.1556947
1.1566129
1.1574789
1.1582938
1.1590587
1.1597748
1.1604434
1.1610659
1.1616436
1.1621779
1.1626696
1.1631188
1.1635237
1.1638804
1.1641814
1.1644119
1.1645497
1.1645883
1.164522
1.1642465
1.1639522
1.164397
1.1628773
1.0451206
1.0797654
1.0657764
1.0755908
1.0710844
1.0754975
1.0743532
1.0767508
1.0770556
1.0786492
1.0796227
1.0809771
1.0822308
1.0835906
1.0849789
1.0864217
1.0879117
1.0894508
1.0910382
1.0926733
1.0943554
1.0960831
1.0978548
1.0996685
1.1015218
1.1034118
1.1053352
1.1072882
1.1092667
1.1112661
1.1132815
1.1153076
1.1173389
1.1193696
1.1213938
1.1234057
1.1253994
1.127369
1.1293091
1.1312143
1.1330797
1.134901
1.136674
1.1383954
1.1400623
1.1416723
1.1432236
1.1447149
1.1461456
1.1475153
1.1488241
1.1500727
1.1512617
1.1523923
1.1534657
1.1544833
1.1554465
1.1563568
1.1572158
1.1580248
1.1587853
1.1594986
1.1601663
1.1607896
1.1613702
1.1619094
1.1624081
1.1628671
1.1632858
1.1636619
1.1639908
1.1642646
1.1644675
1.1645808
1.1646014
1.1645063
1.1642183
1.1639935
1.164315
1.1629073
1.0431117
1.0781131
1.0637765
1.0738942
1.069298
1.0739234
1.072772
1.0753276
1.0757264
1.0774261
1.0785196
1.0799769
1.0813523
1.0828265
1.0843372
1.0859036
1.087521
1.0891902
1.0909102
1.0926802
1.0944988
1.0963639
1.0982734
1.1002243
1.1022134
1.1042369
1.1062904
1.1083692
1.110468
1.1125813
1.114703
1.1168269
1.1189465
1.1210552
1.1231466
1.125214
1.1272513
1.1292523
1.1312116
1.1331239
1.1349847
1.13679
1.1385365
1.1402214
1.1418427
1.1433991
1.1448898
1.1463145
1.1476737
1.148968
1.1501986
1.151367
1.1524749
1.1535242
1.1545169
1.1554549
1.1563404
1.1571754
1.1579616
1.158701
1.1593953
1.1600461
1.160655
1.1612235
1.1617531
1.1622452
1.1627006
1.1631194
1.1635005
1.163841
1.1641358
1.1643761
1.1645461
1.1646309
1.1646283
1.1645026
1.1642059
1.1640331
1.164246
1.1629192
1.0415212
1.0768735
1.0622238
1.0726722
1.0679816
1.0728211
1.0717122
1.0743965
1.0749012
1.0766946
1.0779148
1.0794786
1.0809852
1.0825858
1.0842322
1.0859374
1.0876979
1.0895133
1.0913823
1.0933031
1.0952735
1.0972907
1.0993514
1.1014516
1.103587
1.1057524
1.1079425
1.110151
1.1123716
1.1145973
1.1168211
1.1190357
1.1212336
1.1234075
1.1255503
1.1276551
1.1297154
1.1317253
1.1336794
1.135573
1.1374024
1.1391642
1.1408562
1.1424768
1.144025
1.1455009
1.1469048
1.1482377
1.1495013
1.1506975
1.1518284
1.1528965
1.1539045
1.1548549
1.1557506
1.156594
1.1573878
1.1581343
1.1588359
1.1594945
1.1601121
1.1606906
1.1612316
1.1617367
1.1622075
1.162645
1.1630498
1.1634216
1.1637587
1.1640576
1.1643126
1.1645139
1.1646462
1.1646988
1.1646684
1.16451
1.1642076
1.1640785
1.1641886
1.1629279
1.0402913
1.075994
1.0610581
1.0718815
1.0671017
1.0721571
1.0710837
1.0739569
1.0745006
1.0764034
1.0777823
1.0794773
1.0811406
1.0828929
1.0846987
1.086566
1.0884921
1.0904755
1.0925142
1.0946055
1.096746
1.0989318
1.1011583
1.1034203
1.1057118
1.1080264
1.110357
1.1126962
1.1150361
1.1173684
1.1196848
1.1219771
1.124237
1.1264565
1.1286283
1.1307454
1.1328015
1.134791
1.1367095
1.138553
1.140319
1.1420053
1.1436112
1.1451364
1.1465816
1.1479482
1.149238
1.1504535
1.1515976
1.1526733
1.1536839
1.1546328
1.1555234
1.1563591
1.1571431
1.1578787
1.1585685
1.1592155
1.159822
1.1603904
1.1609226
1.1614206
1.1618861
1.1623208
1.1627258
1.1631022
1.1634502
1.1637691
1.1640564
1.1643083
1.1645183
1.1646758
1.1647667
1.1647839
1.1647211
1.1645281
1.1642231
1.1641302
1.1641382
1.1629315
1.0394086
1.0754538
1.0602556
1.0715344
1.066578
1.0718079
1.0708143
1.0737565
1.0745726
1.0766216
1.07819
1.0800418
1.0818874
1.0838182
1.085809
1.0878642
1.0899806
1.0921558
1.0943867
1.0966691
1.0989985
1.1013692
1.1037752
1.1062094
1.1086642
1.1111314
1.1136022
1.1160674
1.1185176
1.1209434
1.1233353
1.1256842
1.1279813
1.1302184
1.1323883
1.1344843
1.1365009
1.1384337
1.1402793
1.1420355
1.1437011
1.1452759
1.1467608
1.1481575
1.1494684
1.1506964
1.1518451
1.1529183
1.1539201
1.1548547
1.1557263
1.1565392
1.1572974
1.1580048
1.1586651
1.1592818
1.159858
1.1603966
1.1609
1.1613708
1.1618108
1.1622221
1.1626062
1.1629646
1.1632985
1.1636085
1.1638946
1.1641554
1.1643882
1.1645885
1.1647492
1.1648591
1.1649058
1.1648849
1.1647858
1.1645575
1.1642526
1.1641843
1.1640941
1.1629394
1.0388983
1.0752775
1.0598425
1.0715546
1.0664528
1.0720573
1.0710942
1.0742063
1.07523
1.0774271
1.0792162
1.0812539
1.0833098
1.0854487
1.087653
1.0899237
1.0922569
1.0946488
1.0970947
1.0995888
1.1021246
1.1046946
1.1072906
1.1099034
1.1125234
1.1151402
1.1177431
1.1203213
1.1228638
1.1253601
1.1277999
1.1301736
1.1324724
1.1346885
1.1368154
1.1388476
1.1407811
1.1426132
1.1443424
1.1459688
1.1474932
1.1489178
1.1502455
1.15148
1.1526256
1.153687
1.1546693
1.1555775
1.1564169
1.1571926
1.1579097
1.1585729
1.1591867
1.1597555
1.1602831
1.160773
1.1612286
1.1616525
1.1620475
1.1624156
1.1627589
1.1630792
1.1633778
1.1636561
1.163915
1.1641547
1.1643748
1.1645736
1.1647479
1.1648928
1.1650008
1.1650605
1.1650612
1.1650003
1.1648615
1.1645995
1.1642979
1.164237
1.1640518
1.1629548
1.0388332
1.0755415
1.0598783
1.0718143
1.0668209
1.0725658
1.071956
1.0752399
1.0765308
1.0789054
1.0809502
1.0832086
1.0855059
1.0878852
1.0903335
1.0928491
1.0954267
1.0980607
1.100744
1.1034687
1.1062259
1.1090053
1.1117963
1.114587
1.1173654
1.1201189
1.1228349
1.1255009
1.1281049
1.1306354
1.133082
1.1354354
1.1376876
1.1398321
1.141864
1.1437801
1.1455787
1.1472596
1.1488242
1.1502751
1.1516159
1.1528511
1.1539861
1.1550266
1.1559786
1.1568485
1.1576427
1.1583672
1.1590282
1.1596315
1.1601826
1.1606865
1.161148
1.1615715
1.1619608
1.1623194
1.1626504
1.1629566
1.1632402
1.1635033
1.1637476
1.1639747
1.1641859
1.1643819
1.1645634
1.1647304
1.1648818
1.1650158
1.1651288
1.1652157
1.1652685
1.1652762
1.1652303
1.1651277
1.1649476
1.1646552
1.1643594
1.1642884
1.1640104
1.1629778
1.0393017
1.0763264
1.0604671
1.0726745
1.0678742
1.0738968
1.0735121
1.0769725
1.0785786
1.0811578
1.0834923
1.0860094
1.0885827
1.0912377
1.0939638
1.096756
1.0996071
1.1025083
1.10545
1.1084208
1.1114086
1.1144002
1.1173814
1.120338
1.123255
1.1261178
1.1289121
1.1316243
1.1342418
1.1367534
1.1391494
1.1414219
1.1435652
1.1455751
1.1474499
1.1491894
1.1507954
1.1522711
1.1536211
1.154851
1.1559672
1.1569769
1.1578875
1.1587066
1.1594418
1.1601007
1.1606904
1.1612181
1.16169
1.1621124
1.1624909
1.1628306
1.1631362
1.1634117
1.1636609
1.1638871
1.164093
1.1642811
1.1644533
1.1646115
1.164757
1.164891
1.1650144
1.1651278
1.1652314
1.1653246
1.1654063
1.165474
1.1655241
1.1655513
1.1655474
1.1655025
1.16541
1.165265
1.1650432
1.1647244
1.1644348
1.1643395
1.1639726
1.1630077
1.0403006
1.0776387
1.0616117
1.0742416
1.0695993
1.0758561
1.0758177
1.0794723
1.081454
1.084281
1.0869465
1.0897689
1.09266
1.0956321
1.0986739
1.1017772
1.1049307
1.1081222
1.1113378
1.1145622
1.1177794
1.1209724
1.1241238
1.1272163
1.1302328
1.1331568
1.1359732
1.1386684
1.1412305
1.1436501
1.14592
1.1480356
1.1499946
1.1517972
1.1534457
1.1549442
1.1562986
1.1575159
1.158604
1.1595718
1.1604283
1.1611826
1.1618441
1.1624217
1.1629241
1.1633595
1.1637355
1.1640594
1.1643378
1.1645766
1.1647812
1.1649566
1.1651069
1.165236
1.1653472
1.1654432
1.1655265
1.165599
1.1656625
1.1657181
1.1657671
1.1658101
1.1658476
1.1658798
1.1659064
1.1659266
1.1659387
1.1659401
1.165927
1.165894
1.1658333
1.1657361
1.1655975
1.1654101
1.165148
1.1648064
1.1645198
1.1643917
1.163944
1.1630443
1.0418809
1.0795255
1.0633661
1.0764408
1.0720718
1.0785874
1.0789772
1.0828512
1.0852714
1.0884019
1.091447
1.0946296
1.0978879
1.1012231
1.104621
1.1080679
1.1115481
1.115044
1.1185368
1.1220068
1.1254333
1.1287956
1.132073
1.1352457
1.1382952
1.1412047
1.1439598
1.146549
1.1489637
1.1511984
1.1532506
1.1551209
1.1568124
1.1583308
1.1596833
1.1608789
1.1619276
1.1628401
1.1636276
1.1643013
1.1648722
1.1653511
1.1657484
1.1660735
1.1663358
1.1665433
1.1667038
1.1668242
1.1669107
1.1669689
1.1670036
1.1670191
1.1670193
1.1670072
1.1669857
1.166957
1.1669229
1.1668851
1.1668447
1.1668025
1.1667592
1.166715
1.1666701
1.1666241
1.1665763
1.1665256
1.1664699
1.1664065
1.1663314
1.1662391
1.1661225
1.1659745
1.1657908
1.1655619
1.165263
1.1649037
1.1646153
1.1644451
1.1639281
1.1630904
1.0441032
1.0820474
1.0658425
1.0794076
1.075402
1.0821818
1.0831073
1.0872437
1.0901742
1.093683
1.0971691
1.1007754
1.1044551
1.1081992
1.111988
1.1158018
1.1196185
1.1234147
1.1271659
1.1308472
1.1344333
1.1378999
1.1412242
1.1443855
1.1473662
1.1501521
1.1527328
1.1551019
1.1572571
1.1591995
1.1609337
1.162467
1.163809
1.1649712
1.1659662
1.1668072
1.1675079
1.1680821
1.1685429
1.1689034
1.1691755
1.1693706
1.1694994
1.1695714
1.1695953
1.169579
1.1695296
1.1694534
1.1693557
1.1692414
1.1691147
1.1689792
1.1688378
1.1686931
1.1685471
1.1684017
1.1682579
1.168117
1.1679795
1.1678458
1.1677161
1.1675902
1.1674678
1.167348
1.1672299
1.1671118
1.1669915
1.1668661
1.1667315
1.1665825
1.1664126
1.1662161
1.165989
1.1657205
1.1653897
1.1650182
1.1647237
1.1645053
1.1639327
1.1631525
1.0470254
1.0852363
1.0691687
1.0832131
1.0797072
1.0867791
1.0883737
1.0928476
1.0963722
1.1003495
1.1043442
1.1084367
1.1125861
1.1167734
1.1209721
1.1251547
1.1292918
1.1333528
1.1373067
1.1411235
1.1447744
1.1482338
1.1514798
1.1544949
1.1572667
1.159788
1.1620566
1.1640749
1.1658495
1.1673904
1.1687103
1.1698238
1.170747
1.1714964
1.1720889
1.1725411
1.1728691
1.1730881
1.1732124
1.1732553
1.1732289
1.1731443
1.1730114
1.172839
1.1726351
1.1724066
1.1721595
1.1718991
1.1716299
1.1713558
1.17108
1.1708053
1.1705339
1.1702675
1.1700077
1.1697553
1.1695113
1.169276
1.1690496
1.1688322
1.1686232
1.1684222
1.1682283
1.1680404
1.1678571
1.1676764
1.167496
1.1673128
1.1671229
1.1669211
1.1667018
1.1664605
1.1661929
1.165888
1.1655315
1.1651532
1.164849
1.1645804
1.1639691
1.1632454
1.0507178
1.0891005
1.0734743
1.0880078
1.0851941
1.0926241
1.0950383
1.099945
1.1041451
1.1086787
1.1132429
1.1178715
1.1225223
1.1271652
1.1317638
1.1362807
1.140677
1.1449146
1.1489574
1.1527727
1.1563332
1.1596173
1.1626102
1.1653039
1.167697
1.1697939
1.1716044
1.1731421
1.1744239
1.175469
1.1762976
1.1769306
1.1773887
1.1776923
1.1778606
1.1779116
1.1778623
1.1777278
1.1775222
1.177258
1.1769463
1.1765971
1.1762189
1.1758195
1.1754054
1.1749821
1.1745547
1.174127
1.1737026
1.1732843
1.1728744
1.1724748
1.1720867
1.1717114
1.1713495
1.1710016
1.1706677
1.1703479
1.1700418
1.1697491
1.1694688
1.1692001
1.1689418
1.1686922
1.1684499
1.1682125
1.1679775
1.167742
1.1675019
1.1672528
1.1669896
1.1667084
1.1664048
1.166069
1.1656939
1.1653129
1.1649953
1.1646743
1.1640558
1.1634025
1.0553703
1.0937852
1.0789887
1.0941202
1.0921959
1.1000472
1.1034246
1.1088601
1.1138046
1.1189739
1.1241579
1.1293536
1.134509
1.1395787
1.1445127
1.1492621
1.1537801
1.158025
1.1619619
1.1655642
1.1688143
1.171704
1.1742334
1.1764102
1.1782487
1.179768
1.1809908
1.1819418
1.1826473
1.1831334
1.1834257
1.1835489
1.1835261
1.1833786
1.1831261
1.182786
1.1823745
1.1819053
1.1813911
1.1808427
1.1802694
1.1796795
1.17908
1.1784768
1.177875
1.1772787
1.1766916
1.1761164
1.1755554
1.1750104
1.1744828
1.1739736
1.1734834
1.1730127
1.1725614
1.1721296
1.171717
1.1713229
1.1709468
1.1705877
1.1702446
1.1699161
1.1696007
1.1692966
1.169002
1.1687146
1.1684316
1.1681501
1.1678665
1.1675765
1.167276
1.1669613
1.1666281
1.166269
1.165883
1.1655014
1.1651677
1.1648052
1.1642085
1.1636596
1.0612659
1.0998683
1.08611
1.1018891
1.1010591
1.1093727
1.1138625
1.1199464
1.1257064
1.131583
1.1374151
1.1431642
1.1487605
1.1541406
1.1592428
1.1640128
1.1684057
1.1723885
1.1759406
1.1790542
1.1817323
1.1839882
1.1858427
1.1873226
1.1884584
1.189283
1.1898297
1.1901316
1.1902203
1.1901256
1.1898751
1.189494
1.1890047
1.1884276
1.1877804
1.1870788
1.1863363
1.1855647
1.1847741
1.1839732
1.1831692
1.1823684
1.1815758
1.1807957
1.1800316
1.1792862
1.1785616
1.1778597
1.1771815
1.176528
1.1758996
1.1752966
1.1747189
1.1741663
1.1736384
1.1731346
1.1726541
1.1721961
1.1717595
1.1713432
1.1709456
1.1705654
1.1702006
1.1698496
1.16951
1.1691796
1.1688558
1.1685356
1.1682158
1.1678927
1.1675625
1.1672219
1.1668671
1.166494
1.1661054
1.1657259
1.165378
1.1649913
1.1644394
1.1640074
1.0685927
1.1078925
1.095044
1.1115418
1.1121535
1.1210193
1.126791
1.1336754
1.1403082
1.1469113
1.1533344
1.1595044
1.1653361
1.1707576
1.1757108
1.1801544
1.1840649
1.1874359
1.1902763
1.1926073
1.19446
1.195872
1.1968848
1.1975416
1.1978853
1.1979575
1.1977973
1.1974405
1.19692
1.196265
1.1955014
1.194652
1.1937366
1.1927723
1.1917738
1.1907536
1.1897223
1.1886889
1.1876607
1.186644
1.1856438
1.1846644
1.1837088
1.1827799
1.1818794
1.1810089
1.1801693
1.1793613
1.1785851
1.1778407
1.1771279
1.1764462
1.1757951
1.1751738
1.1745814
1.1740168
1.1734791
1.1729671
1.1724793
1.1720144
1.1715708
1.1711468
1.1707404
1.1703498
1.1699727
1.1696067
1.1692495
1.1688984
1.1685505
1.1682025
1.1678509
1.1674929
1.1671261
1.1667491
1.1663656
1.1659915
1.1656347
1.1652441
1.1647588
1.1644186
1.0774817
1.1177182
1.1063917
1.1236263
1.1261242
1.1356795
1.1428577
1.1506425
1.1580941
1.1652755
1.1720333
1.1782779
1.183931
1.1889413
1.1932827
1.1969528
1.1999698
1.2023682
1.2041937
1.2054995
1.2063421
1.2067786
1.2068644
1.2066517
1.2061883
1.2055176
1.204678
1.2037033
1.202623
1.2014623
1.2002431
1.1989836
1.1976994
1.1964035
1.1951069
1.1938184
1.1925455
1.1912942
1.1900693
1.1888746
1.1877132
1.1865872
1.1854983
1.1844475
1.1834357
1.182463
1.1815294
1.1806347
1.1797783
1.1789595
1.1781775
1.1774313
1.1767198
1.1760418
1.1753961
1.1747814
1.1741963
1.1736394
1.1731092
1.1726041
1.1721223
1.171662
1.1712215
1.1707986
1.1703913
1.1699972
1.1696143
1.1692401
1.1688721
1.1685075
1.1681431
1.1677767
1.1674079
1.1670369
1.1666657
1.1663013
1.1659458
1.1655731
1.1651648
1.1648919
1.088679
1.1302611
1.1210598
1.1390906
1.1439225
1.1542475
1.162761
1.1713211
1.1792679
1.1865769
1.1931228
1.1988445
1.2037134
1.207736
1.2109461
1.2133984
1.2151609
1.2163089
1.21692
1.2170697
1.2168294
1.2162643
1.2154332
1.2143876
1.2131724
1.2118262
1.2103818
1.208867
1.207305
1.2057152
1.2041136
1.2025136
1.2009257
1.1993589
1.1978201
1.1963149
1.1948476
1.1934217
1.1920395
1.1907028
1.1894128
1.1881702
1.1869751
1.1858275
1.184727
1.1836728
1.1826642
1.1817002
1.1807796
1.1799011
1.1790634
1.1782651
1.1775049
1.1767811
1.1760922
1.1754368
1.1748132
1.1742199
1.1736552
1.1731174
1.1726047
1.1721154
1.1716477
1.1711995
1.1707689
1.1703539
1.1699524
1.1695628
1.1691826
1.1688093
1.1684402
1.1680744
1.1677128
1.1673562
1.1670029
1.1666523
1.1663083
1.1659719
1.1656498
1.1654326
1.1037534
1.14662
1.1403236
1.1590031
1.1665124
1.1774895
1.186852
1.195614
1.2033262
1.2099664
1.2154987
1.2199473
1.2233716
1.2258581
1.2275084
1.2284302
1.2287299
1.2285082
1.2278569
1.2268578
1.2255819
1.2240903
1.2224346
1.2206582
1.2187971
1.216881
1.2149342
1.2129765
1.2110241
1.2090898
1.2071839
1.2053145
1.203488
1.2017091
1.1999815
1.1983078
1.1966898
1.1951285
1.1936246
1.1921781
1.1907887
1.1894557
1.1881783
1.1869555
1.1857859
1.1846682
1.1836009
1.1825825
1.1816114
1.1806858
1.1798042
1.1789647
1.1781656
1.1774053
1.1766821
1.1759942
1.1753399
1.1747175
1.1741254
1.1735617
1.1730249
1.172513
1.1720244
1.1715573
1.1711098
1.1706803
1.1702671
1.1698688
1.1694833
1.1691083
1.1687419
1.1683843
1.1680376
1.1677015
1.1673701
1.1670382
1.1667151
1.1664261
1.1661917
1.1660243
1.1241818
1.1680908
1.1656097
1.1843777
1.1942664
1.2053559
1.2145378
1.2224091
1.2288035
1.2337879
1.2374579
1.2399518
1.2414223
1.2420254
1.2419089
1.2412073
1.240039
1.2385057
1.236693
1.2346721
1.2325015
1.2302289
1.2278928
1.225524
1.2231471
1.2207818
1.2184432
1.2161434
1.2138916
1.2116948
1.2095582
1.2074854
1.2054792
1.203541
1.2016719
1.199872
1.198141
1.1964784
1.1948832
1.1933541
1.1918898
1.1904886
1.1891489
1.1878689
1.1866468
1.1854805
1.1843682
1.1833079
1.1822977
1.1813356
1.1804196
1.1795479
1.1787185
1.1779297
1.1771794
1.176466
1.1757876
1.1751426
1.1745291
1.1739456
1.1733902
1.1728615
1.1723576
1.1718772
1.1714185
1.1709801
1.1705609
1.1701595
1.1697743
1.1694033
1.1690454
1.168702
1.1683752
1.1680629
1.167756
1.167448
1.1671553
1.1669182
1.1667593
1.1666356
1.1525779
1.1954664
1.1980075
1.216102
1.2263556
1.2362227
1.2438177
1.2495377
1.2535106
1.2559758
1.2571696
1.2573239
1.2566475
1.2553219
1.2534996
1.2513065
1.2488446
1.2461952
1.2434231
1.2405791
1.2377027
1.2348247
1.2319688
1.229153
1.226391
1.223693
1.2210664
1.2185165
1.2160467
1.2136595
1.2113559
1.2091363
1.2070003
1.2049473
1.2029759
1.2010847
1.199272
1.1975358
1.195874
1.1942847
1.1927654
1.191314
1.1899282
1.1886056
1.1873441
1.1861413
1.1849949
1.1839028
1.1828628
1.1818726
1.1809303
1.1800337
1.1791808
1.1783697
1.1775985
1.1768653
1.1761684
1.1755059
1.1748762
1.1742777
1.1737087
1.1731678
1.1726534
1.1721642
1.1716987
1.171256
1.1708352
1.170435
1.1700541
1.169691
1.1693456
1.1690199
1.1687153
1.1684278
1.1681465
1.1678665
1.1676105
1.1674244
1.1673235
1.1672307
1.1915001
1.2305487
1.2363066
1.2516234
1.2607492
1.2676514
1.2720235
1.2744138
1.2751834
1.2746983
1.273258
1.2711104
1.2684524
1.2654379
1.2621857
1.2587867
1.2553094
1.2518055
1.2483135
1.2448619
1.2414717
1.2381578
1.2349311
1.2317987
1.2287655
1.2258342
1.2230062
1.2202817
1.2176601
1.2151401
1.21272
1.2103977
1.2081709
1.206037
1.2039935
1.2020376
1.2001665
1.1983775
1.1966678
1.1950345
1.193475
1.1919865
1.1905663
1.1892118
1.1879205
1.1866898
1.1855173
1.1844005
1.1833372
1.1823251
1.181362
1.1804457
1.1795742
1.1787455
1.1779577
1.1772088
1.1764972
1.1758211
1.1751788
1.1745688
1.1739896
1.1734398
1.1729181
1.1724232
1.1719541
1.1715099
1.17109
1.1706934
1.1703191
1.169966
1.1696348
1.1693276
1.1690449
1.1687811
1.1685253
1.1682759
1.168058
1.167916
1.1678554
1.1677853
1.2391288
1.2716709
1.2788175
1.2886087
1.2935002
1.2958235
1.2959684
1.2945849
1.2921064
1.2888788
1.2851545
1.2811197
1.2769086
1.272618
1.2683166
1.2640531
1.2598614
1.2557651
1.2517797
1.2479154
1.2441783
1.2405715
1.2370962
1.2337519
1.2305369
1.2274491
1.2244855
1.221643
1.2189181
1.2163073
1.2138068
1.2114131
1.2091224
1.2069311
1.2048357
1.2028327
1.2009186
1.1990901
1.197344
1.195677
1.1940861
1.1925683
1.1911206
1.1897402
1.1884245
1.1871707
1.1859762
1.1848387
1.1837556
1.1827246
1.1817435
1.1808102
1.1799225
1.1790785
1.1782762
1.1775137
1.1767894
1.1761015
1.1754484
1.1748288
1.174241
1.173684
1.1731565
1.1726573
1.1721858
1.1717412
1.171323
1.1709304
1.1705628
1.1702196
1.1699021
1.1696118
1.1693484
1.1691057
1.1688743
1.1686551
1.1684728
1.1683645
1.1683289
1.1682784
1.2932363
1.3138847
1.318424
1.3207785
1.3199702
1.3173063
1.3134009
1.3087439
1.3036564
1.298356
1.2929867
1.2876433
1.2823875
1.2772585
1.2722806
1.2674679
1.2628276
1.2583625
1.254072
1.2499536
1.2460037
1.2422175
1.2385899
1.2351154
1.2317887
1.2286042
1.2255564
1.2226401
1.2198502
1.2171815
1.2146294
1.2121892
1.2098565
1.207627
1.2054965
1.2034611
1.2015171
1.1996607
1.1978885
1.196197
1.1945829
1.1930432
1.1915747
1.1901746
1.18884
1.1875681
1.1863564
1.1852023
1.1841034
1.1830573
1.1820619
1.1811148
1.180214
1.1793576
1.1785436
1.1777702
1.1770356
1.1763383
1.1756767
1.1750493
1.174455
1.1738924
1.1733605
1.1728584
1.1723853
1.1719408
1.1715244
1.1711356
1.1707738
1.1704393
1.1701331
1.1698566
1.1696086
1.1693833
1.1691733
1.1689812
1.1688281
1.1687428
1.1687205
1.1686872
1.3461346
1.3494147
1.3481738
1.3436959
1.3378469
1.3312538
1.3243803
1.3174682
1.3106635
1.3040455
1.2976569
1.291518
1.2856356
1.280009
1.2746324
1.2694977
1.2645955
1.2599157
1.2554481
1.2511826
1.2471096
1.2432198
1.2395044
1.2359552
1.2325643
1.2293244
1.2262285
1.22327
1.2204429
1.2177413
1.2151598
1.2126932
1.2103365
1.2080851
1.2059345
1.2038807
1.2019194
1.200047
1.1982597
1.1965539
1.1949264
1.1933738
1.1918931
1.1904812
1.1891353
1.1878527
1.1866305
1.1854664
1.1843579
1.1833026
1.1822982
1.1813426
1.1804337
1.1795695
1.1787482
1.1779678
1.1772268
1.1765235
1.1758565
1.1752244
1.1746258
1.1740597
1.1735251
1.173021
1.172547
1.1721025
1.1716872
1.1713007
1.1709428
1.170614
1.1703152
1.1700476
1.1698097
1.1695963
1.169402
1.1692297
1.1690968
1.1690244
1.1690073
1.1689875
1.3801868
1.3725935
1.365029
1.356748
1.3481436
1.3396318
1.331378
1.3234566
1.3158959
1.3086992
1.3018579
1.2953573
1.2891802
1.2833086
1.2777248
1.2724117
1.2673534
1.2625348
1.2579422
1.2535627
1.2493846
1.2453971
1.2415899
1.237954
1.2344806
1.2311619
1.2279904
1.2249592
1.2220619
1.2192925
1.2166452
1.2141148
1.2116963
1.2093848
1.2071759
1.2050654
1.2030491
1.2011231
1.1992839
1.1975277
1.1958513
1.1942513
1.1927246
1.1912682
1.1898793
1.188555
1.1872927
1.1860899
1.184944
1.1838528
1.1828139
1.1818252
1.1808846
1.1799901
1.1791399
1.1783321
1.177565
1.176837
1.1761468
1.1754928
1.174874
1.1742891
1.173737
1.1732172
1.1727288
1.1722718
1.1718457
1.17145
1.1710843
1.1707495
1.1704471
1.1701777
1.1699395
1.1697278
1.1695384
1.1693741
1.1692494
1.1691812
1.1691646
1.1691522
1.1643936
1.1688651
1.1835325
1.1955946
1.2011454
1.2024008
1.2024594
1.2021213
1.2021554
1.2018614
1.2015969
1.2010396
1.2004429
1.1997971
1.1991062
1.198375
1.1976081
1.1968112
1.195989
1.1951458
1.1942853
1.193411
1.1925262
1.1916337
1.190736
1.1898356
1.1889347
1.1880351
1.1871389
1.1862476
1.1853629
1.1844863
1.1836192
1.182763
1.181919
1.1810885
1.1802727
1.1794729
1.1786901
1.1779256
1.1771805
1.1764559
1.1757529
1.1750728
1.1744164
1.1737851
1.1731797
1.1726013
1.1720509
1.1715295
1.1710377
1.1705765
1.1701464
1.1697477
1.1693809
1.1690457
1.168742
1.168469
1.1682258
1.1680109
1.1678223
1.1676575
1.1675141
1.1673886
1.1672787
1.1671781
1.16709
1.1669953
1.1669272
1.1668083
1.1667891
1.1666092
1.166718
1.1663595
1.1667169
1.1660467
1.166762
1.1655026
1.1664039
1.1639656
1.1599046
1.1707008
1.1872776
1.1957699
1.1980567
1.1979617
1.1974265
1.1971819
1.19687
1.1965726
1.1961841
1.1957927
1.1953537
1.1948777
1.194362
1.1938143
1.1932352
1.1926275
1.1919935
1.1913356
1.1906562
1.1899575
1.1892417
1.1885112
1.1877681
1.1870146
1.1862529
1.1854851
1.1847132
1.1839391
1.1831649
1.1823923
1.1816232
1.1808594
1.1801026
1.1793545
1.1786166
1.1778907
1.1771781
1.1764806
1.1757994
1.1751361
1.174492
1.1738686
1.1732672
1.172689
1.1721354
1.1716074
1.1711063
1.170633
1.1701884
1.1697735
1.1693887
1.1690345
1.1687111
1.1684184
1.1681561
1.1679234
1.1677193
1.167542
1.1673897
1.1672597
1.1671494
1.1670554
1.1669753
1.1669033
1.1668415
1.1667735
1.1667277
1.1666359
1.166634
1.1664839
1.1666005
1.1662774
1.1666328
1.165989
1.1666985
1.1654271
1.1663579
1.1638634
1.1601411
1.1737138
1.1857909
1.1922566
1.1932467
1.1927755
1.1922762
1.1920255
1.1917421
1.1914676
1.1911424
1.1908136
1.1904491
1.1900712
1.1896656
1.1892395
1.1887899
1.1883186
1.187826
1.1873128
1.18678
1.1862287
1.18566
1.1850754
1.184476
1.1838635
1.1832394
1.1826053
1.1819628
1.1813137
1.1806598
1.1800028
1.1793445
1.1786867
1.1780313
1.1773801
1.1767349
1.1760974
1.1754694
1.1748528
1.1742491
1.17366
1.1730873
1.1725325
1.1719972
1.1714828
1.1709909
1.1705228
1.1700797
1.1696628
1.1692731
1.1689114
1.1685786
1.1682749
1.1680006
1.1677556
1.1675394
1.1673512
1.16719
1.1670539
1.1669409
1.1668484
1.1667738
1.1667137
1.1666654
1.1666236
1.1665899
1.1665495
1.1665277
1.1664633
1.1664806
1.1663577
1.1664861
1.166194
1.1665493
1.1659289
1.1666354
1.1653507
1.1663068
1.1637639
1.1579875
1.1726343
1.1835074
1.1883018
1.1881547
1.1877669
1.1873263
1.1871328
1.1868218
1.1865746
1.1862663
1.1859872
1.1856762
1.1853682
1.1850395
1.1847018
1.1843485
1.183982
1.1836007
1.1832045
1.1827934
1.1823674
1.1819265
1.1814713
1.1810022
1.1805199
1.1800253
1.1795194
1.1790032
1.1784781
1.1779455
1.1774067
1.1768634
1.1763172
1.1757697
1.1752228
1.1746782
1.1741378
1.1736032
1.1730765
1.1725593
1.1720537
1.1715612
1.1710838
1.1706232
1.170181
1.1697588
1.169358
1.1689802
1.1686265
1.1682982
1.167996
1.1677207
1.1674728
1.1672525
1.1670596
1.1668937
1.1667538
1.1666389
1.1665471
1.1664762
1.1664237
1.1663869
1.1663625
1.1663478
1.1663378
1.1663335
1.1663218
1.1663253
1.1662888
1.1663266
1.1662291
1.1663723
1.1661083
1.1664701
1.1658666
1.1665724
1.1652734
1.1662508
1.1636671
1.1525048
1.1691837
1.1791958
1.1827851
1.1822416
1.1821513
1.1817907
1.1817325
1.1814923
1.1813591
1.1811384
1.1809651
1.1807488
1.1805453
1.1803194
1.1800889
1.1798436
1.1795877
1.1793189
1.1790373
1.1787424
1.1784342
1.1781126
1.1777776
1.1774296
1.1770687
1.1766956
1.1763108
1.1759151
1.1755093
1.1750946
1.174672
1.1742428
1.1738084
1.1733703
1.17293
1.1724892
1.1720497
1.1716132
1.1711815
1.1707565
1.17034
1.169934
1.1695403
1.1691606
1.1687968
1.1684505
1.1681233
1.1678167
1.1675321
1.1672705
1.1670331
1.1668204
1.166633
1.166471
1.1663343
1.1662224
1.1661343
1.1660688
1.1660241
1.1659979
1.1659877
1.1659908
1.166004
1.1660244
1.1660475
1.166074
1.1660919
1.1661219
1.1661138
1.1661728
1.1660999
1.1662593
1.1660217
1.1663921
1.1658025
1.166509
1.165195
1.1661914
1.1635707
1.1464985
1.1657047
1.1743057
1.1772464
1.1765464
1.1767149
1.1763975
1.1764767
1.1762996
1.1762773
1.1761365
1.1760639
1.1759358
1.1758295
1.1756974
1.1755641
1.1754158
1.1752586
1.1750899
1.1749099
1.1747186
1.1745156
1.1743007
1.1740739
1.1738353
1.1735849
1.1733229
1.1730498
1.1727658
1.1724718
1.1721683
1.1718562
1.1715366
1.1712105
1.1708793
1.1705442
1.1702067
1.1698685
1.1695311
1.1691963
1.168866
1.1685418
1.1682258
1.1679196
1.1676251
1.1673441
1.1670783
1.1668293
1.1665987
1.1663876
1.1661975
1.1660291
1.1658832
1.1657603
1.1656605
1.1655836
1.165529
1.1654957
1.1654824
1.1654873
1.1655081
1.1655423
1.165587
1.1656394
1.1656964
1.1657538
1.1658121
1.1658605
1.1659179
1.1659385
1.1660193
1.1659709
1.1661468
1.1659345
1.1663149
1.1657372
1.1664448
1.1651158
1.1661297
1.1634743
1.1412714
1.1623989
1.1694499
1.1720856
1.1712801
1.1716531
1.1713424
1.1715327
1.1713939
1.1714601
1.1713814
1.1713957
1.171342
1.1713133
1.1712547
1.1712004
1.1711324
1.1710587
1.1709757
1.1708837
1.1707824
1.1706713
1.1705502
1.1704189
1.1702773
1.1701252
1.1699628
1.1697903
1.1696078
1.1694157
1.1692147
1.1690052
1.1687881
1.1685642
1.1683347
1.1681006
1.1678633
1.1676241
1.1673845
1.1671462
1.1669107
1.1666798
1.1664551
1.1662385
1.1660317
1.1658364
1.1656543
1.1654868
1.1653355
1.1652017
1.1650865
1.1649907
1.1649152
1.1648601
1.1648257
1.1648115
1.164817
1.1648412
1.1648825
1.1649393
1.1650091
1.1650894
1.1651774
1.1652703
1.1653651
1.1654579
1.1655488
1.1656286
1.1657139
1.1657636
1.1658665
1.165843
1.1660351
1.1658474
1.1662383
1.165671
1.1663798
1.1650359
1.1660667
1.163384
1.1364202
1.1593662
1.1648816
1.1673981
1.1664826