/*--------------------------------*- C++ -*----------------------------------*\
  =========                 |
  \\      /  F ield         | OpenFOAM: The Open Source CFD Toolbox
   \\    /   O peration     | Website:  https://openfoam.org
    \\  /    A nd           | Version:  12
     \\/     M anipulation  |
\*---------------------------------------------------------------------------*/
FoamFile
{
    format      ascii;
    class       volVectorField;
    location    "0.071";
    object      U;
}
// * * * * * * * * * * * * * * * * * * * * * * * * * * * * * * * * * * * * * //

dimensions      [0 1 -1 0 0 0 0];

internalField   nonuniform List<vector> 
16000
(
(215.51115 -3.1340794e-17 -8.3852643)
(252.61067 0 5.3883776)
(238.61069 0 -7.5693647)
(246.35958 4.9578953e-17 3.7933393)
(241.66313 -4.8938666e-17 -5.944013)
(243.87049 0 1.7624495)
(242.07658 0 -4.3068118)
(242.58037 8.3763641e-17 -0.015733878)
(241.7413 -7.9581166e-17 -3.1335792)
(241.61873 0 -1.2469043)
(241.10559 7.1906429e-17 -2.5350343)
(240.75781 -2.0485972e-16 -1.9544322)
(240.3143 1.296622e-16 -2.3874513)
(239.88556 -1.2333828e-16 -2.3213981)
(239.42881 1.170227e-16 -2.4779987)
(238.95819 -3.4710041e-18 -2.5456685)
(238.46894 -3.2972975e-18 -2.6445754)
(237.96197 -9.7307065e-17 -2.7326266)
(237.4367 1.9064381e-16 -2.8222771)
(236.89301 -9.0452704e-17 -2.9095596)
(236.33071 1.7205385e-16 -2.994857)
(235.74972 -1.6309173e-16 -3.0774704)
(235.15005 0 -3.1569008)
(234.53175 1.5181303e-16 -3.2325661)
(233.89503 -4.1075278e-18 -3.303876)
(233.24014 -2.6496216e-16 -3.3702086)
(232.5675 1.2558279e-16 -3.4309348)
(231.87762 0 -3.4854122)
(231.17113 0 -3.533001)
(230.44882 2.1810025e-16 -3.5730694)
(229.71159 -2.0321108e-16 -3.6050056)
(228.96049 0 -3.6282281)
(228.1967 0 -3.6421955)
(227.42154 0 -3.646422)
(226.63643 5.1265208e-18 -3.6404865)
(225.84295 1.5559601e-16 -3.624045)
(225.04274 -1.4243537e-16 -3.5968415)
(224.23757 -1.3950809e-16 -3.5587155)
(223.42925 1.235265e-16 -3.5096106)
(222.61968 0 -3.4495816)
(221.81077 -1.1823097e-16 -3.3787951)
(221.00446 1.1159686e-16 -3.2975342)
(220.20267 -2.1150523e-16 -3.2061949)
(219.40728 1.9954994e-16 -3.1052837)
(218.62012 -1.9489822e-16 -2.9954111)
(217.84294 3.5683368e-16 -2.8772807)
(217.07738 5.5946982e-18 -2.751678)
(216.32494 3.0102819e-19 -2.6194551)
(215.58703 -1.5020643e-16 -2.4815134)
(214.86485 1.4207092e-16 -2.338787)
(214.15947 -1.2549342e-16 -2.1922259)
(213.47178 0 -2.0427792)
(212.80248 7.4586113e-18 -1.8913809)
(212.15209 0 -1.7389332)
(211.52095 6.6378322e-18 -1.5862925)
(210.9092 2.0672028e-16 -1.434259)
(210.31681 -3.7784669e-16 -1.283569)
(209.74358 1.0901885e-17 -1.1348927)
(209.18916 1.6791777e-16 -0.98883462)
(208.65303 -1.4864855e-16 -0.84595352)
(208.13453 1.4001948e-16 -0.70675817)
(207.63303 -8.8108641e-18 -0.57176239)
(207.14795 0 -0.4414711)
(206.67872 0 -0.31636327)
(206.22479 -1.1107018e-16 -0.1968891)
(205.78552 1.1174997e-16 -0.083407581)
(205.35999 -9.9034602e-17 0.023886394)
(204.94676 1.9331822e-16 0.12503025)
(204.54372 -1.8867458e-16 0.22032475)
(204.14825 8.3645907e-17 0.3103369)
(203.75767 5.2821742e-18 0.39575751)
(203.36956 0 0.47693543)
(202.98145 4.7497235e-18 0.5542071)
(202.58958 -4.5121072e-18 0.62967071)
(202.18187 0 0.70670125)
(201.76413 -3.3758923e-17 0.7820742)
(201.18529 6.2490731e-17 0.84075487)
(201.03268 -3.1772871e-17 1.1214743)
(200.08577 0 0.53954711)
(200.64084 0 2.0805771)
(216.85097 0 -11.207464)
(254.26512 -3.7170434e-18 3.3429391)
(239.64329 -1.1948733e-16 -10.49864)
(247.83827 1.1015523e-16 1.7060683)
(242.78514 0 -8.810682)
(245.22711 1.0134843e-16 -0.39686362)
(243.22658 -1.8715165e-16 -7.0569058)
(243.82149 -1.0225017e-19 -2.297768)
(242.88996 8.4339808e-17 -5.7281426)
(242.76912 0 -3.6471825)
(242.21512 -1.5234481e-16 -5.0141776)
(241.83874 1.4901952e-16 -4.4003131)
(241.36337 1.4173151e-16 -4.8201009)
(240.90044 -2.6090652e-16 -4.7545572)
(240.40935 1.199396e-16 -4.8911641)
(239.90252 1.1026168e-17 -4.9514432)
(239.37607 1.1530346e-16 -5.0347976)
(238.8306 -1.0269072e-16 -5.109118)
(238.2657 0 -5.1827289)
(237.68124 0 -5.252931)
(237.07714 5.6659777e-18 -5.3196086)
(236.45341 -1.7776387e-16 -5.3820551)
(235.81015 3.3707329e-16 -5.4396391)
(235.14757 -3.1497211e-16 -5.49168)
(234.46598 1.4236568e-16 -5.5374816)
(233.76583 0 -5.576334)
(233.04769 1.2417017e-16 -5.607517)
(232.31227 -1.331459e-16 -5.6303173)
(231.56043 0 -5.6440337)
(230.79315 3.5177297e-18 -5.6479908)
(230.01159 -1.334544e-17 -5.6415484)
(229.21701 0 -5.6241191)
(228.41086 0 -5.5951742)
(227.59468 -1.7031558e-16 -5.5542649)
(226.77017 3.3818842e-16 -5.5010303)
(225.9391 -1.6239664e-16 -5.4352104)
(225.10338 -1.588123e-16 -5.356659)
(224.26494 1.4535425e-16 -5.2653493)
(223.42582 -1.1196017e-16 -5.1613834)
(222.58806 -2.8759722e-19 -5.0449964)
(221.75369 -2.6921014e-19 -4.9165579)
(220.92474 2.3239708e-16 -4.7765709)
(220.1032 -1.0964929e-16 -4.6256674)
(219.29095 0 -4.4646005)
(218.4898 2.0205143e-16 -4.2942341)
(217.70143 1.1921813e-17 -4.1155285)
(216.92738 -5.1055226e-18 -3.9295227)
(216.16903 -1.6428359e-16 -3.7373166)
(215.42759 0 -3.5400498)
(214.7041 -1.4634403e-16 -3.3388821)
(213.99942 -8.8518607e-18 -3.1349748)
(213.3142 2.5975207e-16 -2.9294705)
(212.64891 -1.2991146e-16 -2.7234763)
(212.00384 0 -2.518047)
(211.37909 -2.0356489e-17 -2.31417)
(210.77459 -2.109571e-16 -2.1127568)
(210.19009 3.6085484e-16 -1.9146354)
(209.6252 -2.1502903e-16 -1.7205503)
(209.07941 0 -1.5311638)
(208.55207 -1.7063067e-16 -1.3470757)
(208.04241 1.7930733e-16 -1.1688225)
(207.54968 2.6661477e-17 -0.9969163)
(207.07322 0 -0.83185824)
(206.61238 -1.4178368e-16 -0.67409644)
(206.16652 7.3073163e-18 -0.52402889)
(205.73492 1.1163382e-16 -0.38194297)
(205.31659 -1.9724814e-17 -0.2479438)
(204.90999 9.2955949e-17 -0.12189513)
(204.51292 -1.0507037e-16 -0.0033842421)
(204.12268 5.506545e-18 0.10828486)
(203.7365 -5.1960096e-18 0.21388313)
(203.35177 0 0.31374194)
(202.96594 -4.6366781e-18 0.40839256)
(202.57589 4.3860119e-18 0.50090502)
(202.17187 8.3073002e-18 0.59301468)
(201.72529 9.8461931e-19 0.67090762)
(201.22891 0 0.77589904)
(200.87325 3.0258257e-17 0.9837896)
(200.19393 -5.7601063e-17 0.52277808)
(200.55133 2.588547e-17 1.9289612)
(218.05592 0 -14.103634)
(255.76656 -1.2226414e-16 1.0966054)
(240.61117 2.4935038e-16 -13.511883)
(249.11843 -2.2267383e-16 -0.54663607)
(243.80381 1.099766e-16 -11.750026)
(246.38176 -3.2567205e-18 -2.7470637)
(244.25398 9.911611e-17 -9.8519894)
(244.87447 -9.3869885e-17 -4.7772983)
(243.88634 -5.5718538e-18 -8.3850525)
(243.74205 -5.2904053e-18 -6.2134163)
(243.15288 -1.0049798e-17 -7.5911615)
(242.74057 1.3866653e-16 -6.9829421)
(242.22985 -1.4055766e-16 -7.3715554)
(241.72853 1.3794755e-16 -7.3129115)
(241.19845 -1.1850407e-16 -7.4281931)
(240.65099 -1.5531518e-17 -7.4803752)
(240.08264 0 -7.5481094)
(239.49399 -1.3581097e-20 -7.6075663)
(238.88471 -2.2589932e-16 -7.664095)
(238.25478 -3.6704581e-19 -7.7156681)
(237.60423 1.7314646e-16 -7.7618543)
(236.93319 1.7007227e-17 -7.8018618)
(236.24191 -2.1512547e-17 -7.8349365)
(235.53077 0 -7.8602914)
(234.80026 9.0002275e-21 -7.8771314)
(234.05104 -1.6514223e-16 -7.884659)
(233.28389 1.4753816e-16 -7.882083)
(232.49976 8.2352344e-18 -7.8686292)
(231.69975 0 -7.843557)
(230.88513 -7.388209e-18 -7.8061679)
(230.05731 1.1897187e-21 -7.755824)
(229.21788 -1.9886736e-16 -7.6919618)
(228.36853 2.0028295e-16 -7.6141056)
(227.51112 1.1864997e-17 -7.5218877)
(226.64762 -1.7967082e-16 -7.4150558)
(225.78007 1.4828461e-16 -7.2934905)
(224.91062 -1.8068536e-16 -7.1572136)
(224.04144 1.5144816e-16 -7.006397)
(223.17475 -1.4340575e-16 -6.8413651)
(222.31272 1.3515015e-16 -6.6626004)
(221.45753 1.5979127e-17 -6.4707395)
(220.61124 0 -6.2665656)
(219.77586 1.9935747e-16 -6.051002)
(218.95325 -2.4129601e-16 -5.8250967)
(218.14512 0 -5.5900062)
(217.35303 1.7910217e-16 -5.3469771)
(216.57835 -1.5716884e-16 -5.0973222)
(215.82225 1.6958554e-16 -4.8423986)
(215.08572 -1.7937386e-16 -4.5835836)
(214.36952 0 -4.3222531)
(213.67423 1.7689183e-16 -4.0597595)
(213.00021 -1.3294312e-16 -3.7974105)
(212.34765 0 -3.536451)
(211.71653 0 -3.2780482)
(211.10667 1.245843e-16 -3.0232762)
(210.51773 -2.0806609e-16 -2.7731114)
(209.94923 1.2214438e-16 -2.5284267)
(209.40054 1.8384156e-16 -2.2899936)
(208.87095 2.0788114e-19 -2.0584863)
(208.35968 1.857776e-19 -1.8345005)
(207.86582 -3.2363065e-16 -1.6185639)
(207.38852 8.9317096e-17 -1.4111529)
(206.92701 0 -1.2127312)
(206.48058 1.4198485e-16 -1.0236933)
(206.04849 -1.6286995e-16 -0.84436274)
(205.62996 1.113358e-16 -0.67493791)
(205.22387 1.3149046e-17 -0.5154215)
(204.8286 -8.5913716e-17 -0.36556768)
(204.44187 1.1539118e-17 -0.22483749)
(204.06094 2.1698645e-17 -0.09240915)
(203.68296 -1.0205362e-16 0.032518615)
(203.30523 9.5981687e-17 0.1503099)
(202.92542 -7.2327201e-17 0.26202799)
(202.54056 1.3625121e-16 0.37087193)
(202.13776 -5.6193247e-17 0.47496477)
(201.68797 -6.0642791e-17 0.56765301)
(201.22065 5.0119802e-17 0.70338915)
(200.80073 0 0.85167487)
(200.2447 3.2091566e-18 0.50082052)
(200.50889 -1.2171056e-17 1.7974149)
(219.10329 0 -17.069663)
(257.1203 0 -1.2844693)
(241.38578 0 -16.661416)
(250.22579 1.0640509e-16 -2.9075462)
(244.63949 -1.2355402e-16 -14.819974)
(247.37236 -2.2004878e-16 -5.2154823)
(245.10235 2.0928447e-16 -12.766199)
(245.75135 -1.2394297e-17 -7.3843423)
(244.69912 5.9029449e-18 -11.153253)
(244.52735 -1.7356774e-16 -8.9114638)
(243.89832 1.6992179e-16 -10.280123)
(243.44461 1.0099235e-17 -9.691294)
(242.89363 -1.5334477e-16 -10.040779)
(242.34859 1.3621783e-16 -9.9905488)
(241.77439 -1.5295936e-20 -10.083234)
(241.18109 -8.1670028e-18 -10.12537)
(240.56579 0 -10.175915)
(239.929 -7.3752638e-18 -10.218109)
(239.27055 -2.0992122e-16 -10.254966)
(238.59052 2.1196314e-16 -10.284902)
(237.88909 1.2583059e-17 -10.307253)
(237.16655 -1.1929861e-17 -10.321136)
(236.42331 2.1495828e-16 -10.325694)
(235.65995 -1.7122572e-16 -10.320047)
(234.87719 1.0155155e-17 -10.303308)
(234.07591 1.9254227e-16 -10.274607)
(233.25719 -1.2736831e-16 -10.233089)
(232.42224 0 -10.177938)
(231.57249 1.4717327e-16 -10.108391)
(230.70951 -1.2353536e-16 -10.023755)
(229.83507 2.4897675e-16 -9.9234228)
(228.95105 -1.3297439e-17 -9.8068958)
(228.05953 -2.0913653e-16 -9.6737969)
(227.16266 1.7346404e-16 -9.5238903)
(226.26272 -1.8686679e-16 -9.3570918)
(225.36205 -2.5958003e-20 -9.1734845)
(224.46303 2.0891022e-16 -8.9733249)
(223.56806 -3.1528282e-16 -8.7570479)
(222.67949 9.2795155e-17 -8.5252684)
(221.79964 3.5130066e-17 -8.278777)
(220.93071 -4.9678998e-17 -8.0185338)
(220.07478 0 -7.7456536)
(219.23378 -8.8402728e-17 -7.4613916)
(218.40947 1.3846114e-16 -7.1671211)
(217.60339 -2.0907073e-16 -6.864312)
(216.81687 1.9644175e-16 -6.5545066)
(216.05103 -2.0837047e-16 -6.2392898)
(215.30677 3.9180413e-16 -5.9202644)
(214.58472 -3.0705738e-16 -5.5990254)
(213.88533 3.079213e-16 -5.2771344)
(213.20883 -1.445362e-16 -4.9560974)
(212.55522 1.3605884e-16 -4.6373451)
(211.92435 -9.5648372e-17 -4.3222131)
(211.31586 2.9991219e-17 -4.0119319)
(210.72926 0 -3.7076134)
(210.16393 0 -3.4102493)
(209.6191 0 -3.1207094)
(209.09393 2.3223867e-17 -2.8397459)
(208.58751 0 -2.5680021)
(208.09889 -1.6346474e-16 -2.3060321)
(207.62704 1.9135816e-16 -2.0543154)
(207.17102 -1.0772051e-16 -1.8132662)
(206.72995 -1.257925e-19 -1.5832769)
(206.30305 2.5204923e-16 -1.3646654)
(205.8895 2.961542e-17 -1.1576602)
(205.48844 -1.3825484e-16 -0.96235552)
(205.09867 5.1860312e-17 -0.77864461)
(204.7185 -1.4567347e-16 -0.60616973)
(204.3456 -4.5519827e-17 -0.44427191)
(203.97724 -6.3994307e-17 -0.29203632)
(203.61053 -6.0016815e-17 -0.14865888)
(203.24273 5.6241897e-17 -0.01362892)
(202.87181 0 0.11466695)
(202.49427 0 0.23869459)
(202.09488 -1.5509719e-17 0.35454139)
(201.6519 0 0.46469176)
(201.19505 6.8549744e-18 0.61623631)
(200.74193 5.1644684e-17 0.72584237)
(200.27521 -7.2916842e-17 0.47286478)
(200.48239 -1.6097394e-20 1.6395618)
(219.97495 0 -20.234541)
(258.30381 -8.7947124e-18 -3.7438946)
(242.03388 2.6606443e-16 -19.948489)
(251.10377 -2.4849035e-16 -5.3943979)
(245.24389 2.5357409e-16 -18.005979)
(248.16161 -2.3198961e-16 -7.8369767)
(245.75276 -2.2114794e-16 -15.786742)
(246.4182 2.0934312e-16 -10.149814)
(245.30531 0 -14.02501)
(245.09483 0 -11.759804)
(244.42369 1.7940886e-16 -13.083862)
(243.92175 -1.6996113e-16 -12.532938)
(243.32568 -1.0097812e-17 -12.83365)
(242.7316 2.8717785e-17 -12.791212)
(242.1082 -9.0891596e-18 -12.859353)
(241.4641 3.4469724e-17 -12.887817)
(240.79696 0 -12.918318)
(240.10725 0 -12.93957)
(239.39492 -2.354067e-16 -12.952978)
(238.66021 2.0877262e-16 -12.957181)
(237.90342 0 -12.951329)
(237.12504 0 -12.934437)
(236.32572 -1.8996361e-16 -12.90552)
(235.50627 3.5949418e-16 -12.863592)
(234.66772 -1.7002896e-16 -12.80767)
(233.81126 -2.014539e-17 -12.736801)
(232.9383 -3.8152219e-17 -12.650076)
(232.05044 -1.4456649e-16 -12.546652)
(231.14948 1.1935987e-16 -12.425771)
(230.2374 0 -12.286781)
(229.31636 -3.0569049e-17 -12.129157)
(228.38866 0 -11.952525)
(227.45673 0 -11.756674)
(226.5231 2.0639139e-16 -11.541577)
(225.59037 -2.1875664e-16 -11.307399)
(224.66116 2.2950407e-17 -11.05451)
(223.73808 -2.1655428e-17 -10.783486)
(222.8237 -4.0934421e-17 -10.49511)
(221.92048 -7.8756023e-20 -10.190366)
(221.03078 7.4860853e-20 -9.8704223)
(220.15677 -7.0658647e-20 -9.5366263)
(219.30044 0 -9.1904722)
(218.46356 -1.2154083e-16 -8.833585)
(217.64765 1.1413221e-16 -8.4676873)
(216.85399 0 -8.0945711)
(216.08358 -5.0585703e-17 -7.716071)
(215.33719 1.9015131e-16 -7.3340271)
(214.61532 -2.2291553e-16 -6.9502606)
(213.91821 -2.0972703e-16 -6.5665449)
(213.24588 1.5724362e-16 -6.1845806)
(212.59816 1.1090748e-16 -5.8059741)
(211.97465 -1.3844138e-16 -5.4322202)
(211.37479 -3.2462465e-17 -5.0646858)
(210.79789 -2.1325081e-16 -4.7046036)
(210.24312 1.1405677e-16 -4.3530632)
(209.70953 -1.069847e-16 -4.0110138)
(209.19612 1.0006766e-16 -3.6792669)
(208.70179 2.3448243e-16 -3.3585043)
(208.22545 -1.7537663e-16 -3.0492916)
(207.766 0 -2.7521002)
(207.32231 -3.8387616e-17 -2.4673215)
(206.89332 -7.1866228e-17 -2.1952769)
(206.4781 1.342695e-16 -1.9362576)
(206.07579 1.2564061e-16 -1.6904799)
(205.68552 -2.3480076e-16 -1.4580572)
(205.30633 8.2242693e-17 -1.238964)
(204.93698 5.1273664e-17 -1.0329731)
(204.57572 9.5856042e-17 -0.83960695)
(204.22022 1.3439854e-16 -0.65809026)
(203.86777 2.7232448e-20 -0.48744867)
(203.51548 0 -0.3268832)
(203.16074 0 -0.17565204)
(202.80166 -3.4210051e-17 -0.031766069)
(202.43382 9.600285e-17 0.10611058)
(202.04142 -8.9802065e-17 0.23382472)
(201.609 -8.4085832e-17 0.36177129)
(201.15982 5.2488637e-17 0.52299372)
(200.69809 0 0.60429188)
(200.28907 4.6095396e-17 0.43920868)
(200.47163 3.0312665e-20 1.4975554)
(220.64994 0 -23.572732)
(259.28991 2.0610538e-20 -6.2814168)
(242.48748 9.0539854e-18 -23.332981)
(251.81637 2.8778753e-16 -8.0208488)
(245.68178 3.3347262e-19 -21.297608)
(248.72062 -5.0477984e-16 -10.611404)
(246.16218 -3.2359785e-19 -18.904245)
(246.84491 4.5527141e-16 -13.0789)
(245.67549 -2.0946615e-16 -16.998712)
(245.4166 -1.2423881e-17 -14.758286)
(244.70154 1.1801827e-17 -16.001922)
(244.14603 -1.7918884e-16 -15.501854)
(243.50091 1.9090074e-16 -15.746004)
(242.85338 -1.8139189e-16 -15.707408)
(242.17626 3.0555458e-16 -15.748725)
(241.4767 -3.078587e-16 -15.759009)
(240.75288 1.3720837e-16 -15.765987)
(240.00526 0 -15.762207)
(239.23401 0 -15.747944)
(238.43952 1.4617019e-17 -15.721857)
(237.62236 -2.7711174e-17 -15.682885)
(236.7833 0 -15.629885)
(235.9233 1.9900918e-16 -15.561722)
(235.04355 4.7295362e-19 -15.477285)
(234.14546 -3.5617347e-16 -15.375494)
(233.23065 1.682942e-16 -15.25533)
(232.301 1.9914447e-17 -15.115863)
(231.35856 0 -14.956263)
(230.40561 -1.7838463e-16 -14.775837)
(229.44462 1.3451478e-16 -14.574049)
(228.47821 -2.2306719e-16 -14.350536)
(227.50913 2.0996535e-16 -14.105144)
(226.54021 -2.2724499e-16 -13.837923)
(225.57437 2.1390087e-16 -13.549164)
(224.61449 7.5826876e-17 -13.239387)
(223.66347 0 -12.909353)
(222.72407 0 -12.56006)
(221.79895 4.2268668e-17 -12.192732)
(220.8906 3.9812456e-17 -11.808801)
(220.00129 -3.7483501e-17 -11.409886)
(219.13304 3.5276007e-17 -10.997772)
(218.28763 6.6545037e-17 -10.57437)
(217.4665 -6.2514566e-17 -10.141693)
(216.67085 3.5243838e-16 -9.7018141)
(215.90153 -2.7568811e-16 -9.2568357)
(215.15912 5.1751449e-17 -8.8088533)
(214.4439 -4.8688988e-17 -8.3599216)
(213.75589 0 -7.9120266)
(213.09486 2.140383e-16 -7.4670576)
(212.46034 -1.6031588e-16 -7.0267866)
(211.85169 0 -6.5928476)
(211.26808 0 -6.1667267)
(210.70856 1.3193537e-16 -5.7497496)
(210.17205 -6.165961e-17 -5.3430806)
(209.65738 0 -4.9477213)
(209.16332 -1.620448e-16 -4.5645162)
(208.68861 1.0087297e-16 -4.194162)
(208.23196 1.4160229e-16 -3.83722)
(207.79211 -1.7614449e-16 -3.4941334)
(207.36781 1.6466436e-16 -3.1652518)
(206.95786 -1.5359668e-16 -2.8508446)
(206.56113 5.3685985e-20 -2.5511112)
(206.17664 0 -2.2662165)
(205.80347 6.2457877e-17 -1.996252)
(205.44071 -2.9117361e-16 -1.7411979)
(205.08735 1.6286112e-16 -1.5008944)
(204.74209 0 -1.2749833)
(204.40316 -1.416294e-16 -1.0628584)
(204.06828 8.7975829e-17 -0.86363675)
(203.73478 1.230815e-16 -0.6763135)
(203.39984 3.9836189e-20 -0.50008553)
(203.06105 -7.1248851e-17 -0.33394897)
(202.71656 9.9662971e-17 -0.17579032)
(202.36093 -1.548385e-16 -0.025461373)
(201.97894 8.6611553e-17 0.11393615)
(201.56006 2.6916317e-17 0.25872577)
(201.11989 5.0253476e-17 0.42529937)
(200.65817 0 0.48650893)
(200.29724 -4.3761931e-17 0.4023999)
(200.46811 2.0411024e-17 1.3483774)
(221.10882 0 -27.080489)
(260.06868 9.786599e-18 -8.9241863)
(242.74058 -3.0519618e-16 -26.841554)
(252.34296 2.4917544e-16 -10.790117)
(245.92728 2.5595688e-16 -24.68903)
(249.03583 -4.9919544e-16 -13.541693)
(246.35612 2.2961817e-16 -22.105253)
(247.01007 2.3247079e-16 -16.171909)
(245.79547 -2.2031101e-16 -20.060649)
(245.47887 3.9214222e-17 -17.895917)
(244.71898 0 -19.023846)
(244.10446 0 -18.5835)
(243.40542 -2.2305159e-17 -18.767152)
(242.69872 -1.6933136e-16 -18.727916)
(241.9617 1.4013496e-16 -18.741458)
(241.20015 1.9008383e-17 -18.729855)
(240.41289 -3.6032386e-17 -18.710188)
(239.60052 3.0744883e-16 -18.677387)
(238.7635 -2.2593527e-16 -18.630926)
(237.90255 2.4523098e-16 -18.569354)
(237.01862 -2.0264728e-16 -18.491398)
(236.11288 2.7474178e-17 -18.395756)
(235.18676 1.5610312e-16 -18.281157)
(234.24193 -1.9633709e-16 -18.146399)
(233.28032 0 -17.990345)
(232.30411 0 -17.811974)
(231.31572 0 -17.610402)
(230.3178 -1.9665277e-16 -17.384906)
(229.31319 1.8525359e-16 -17.134956)
(228.30488 -3.5100123e-17 -16.860239)
(227.29603 0 -16.560684)
(226.28984 -2.8140034e-16 -16.236477)
(225.28957 2.351969e-16 -15.888071)
(224.29845 -5.5627795e-17 -15.516196)
(223.31963 1.5732844e-16 -15.121864)
(222.35614 -4.8883249e-17 -14.706345)
(221.41083 -1.8545198e-16 -14.271168)
(220.4863 2.1878154e-16 -13.818088)
(219.5849 -1.6425058e-16 -13.34906)
(218.70868 7.747421e-17 -12.866209)
(217.85935 -7.2711238e-17 -12.371788)
(217.03826 1.3666096e-16 -11.868135)
(216.24643 -6.404833e-17 -11.357643)
(215.48452 -2.4105058e-16 -10.842706)
(214.75285 5.0829966e-16 -10.325689)
(214.05143 -2.1170201e-16 -9.8088862)
(213.37997 -1.4919179e-16 -9.2944958)
(212.73791 9.2764762e-17 -8.7845854)
(212.12447 8.725414e-17 -8.2810741)
(211.53867 -1.6325111e-16 -7.7857144)
(210.97938 1.525294e-16 -7.3000801)
(210.44532 0 -6.8255614)
(209.93513 1.3352345e-16 -6.3633613)
(209.44738 -1.8701985e-16 -5.9145006)
(208.98059 5.8281915e-17 -5.4798234)
(208.53328 5.4328358e-17 -5.0600084)
(208.10397 0 -4.655584)
(207.6912 0 -4.2669444)
(207.29357 0 -3.8943711)
(206.90977 0 -3.5380584)
(206.53852 0 -3.1981258)
(206.17867 -7.1405663e-17 -2.8746278)
(205.82921 0 -2.5675836)
(205.48919 -4.2904297e-20 -2.2769416)
(205.15768 2.3060931e-16 -2.002535)
(204.83364 -2.1453891e-16 -1.7440582)
(204.51575 -9.9875314e-17 -1.5010112)
(204.20225 -1.8572088e-16 -1.2726531)
(203.89091 2.588801e-16 -1.0580029)
(203.57914 1.9854534e-20 -0.85604486)
(203.26428 7.4574768e-17 -0.66594923)
(202.94419 0 -0.48647379)
(202.61688 0 -0.31565707)
(202.27603 0 -0.15439735)
(201.90776 -1.1137338e-16 -0.0038114784)
(201.50555 0 0.15638742)
(201.07678 -9.6283889e-17 0.32529731)
(200.61974 1.3425152e-16 0.37198269)
(200.30155 8.3184316e-17 0.36448056)
(200.46804 -1.9333375e-17 1.2109365)
(221.35237 0 -30.76542)
(260.64423 0 -11.675418)
(242.7967 3.2107491e-16 -30.481426)
(252.68566 1.9265032e-17 -13.717115)
(245.98606 -2.6866174e-16 -28.18868)
(249.15616 0 -16.649181)
(246.35995 1.6098218e-17 -25.386506)
(247.04458 -3.0511171e-17 -19.421087)
(245.67377 0 -23.189758)
(245.28276 1.9233854e-16 -21.154496)
(244.47159 -4.1641183e-16 -22.143797)
(243.78799 1.9717654e-16 -21.770567)
(243.02558 2.3401757e-17 -21.895594)
(242.2501 0 -21.851154)
(241.44347 2.100158e-17 -21.836066)
(240.61036 -3.3875068e-16 -21.798282)
(239.75026 7.4676181e-17 -21.747516)
(238.86404 2.4964133e-16 -21.680099)
(237.95258 2.3708601e-16 -21.595)
(237.01704 -2.5573028e-16 -21.49064)
(236.05886 0 -21.365576)
(235.07978 -2.8695118e-16 -21.218391)
(234.08179 2.4364124e-16 -21.04773)
(233.06721 -2.0536356e-16 -20.852361)
(232.03861 1.9355855e-16 -20.631181)
(230.99885 -1.8344033e-16 -20.383255)
(229.95101 3.4605477e-16 -20.107865)
(228.89841 -1.632992e-16 -19.804519)
(227.84452 1.5445167e-16 -19.472995)
(226.79292 -2.9118701e-16 -19.113357)
(225.74728 1.370538e-16 -18.725982)
(224.71124 1.294413e-16 -18.311565)
(223.6884 -2.442298e-16 -17.871119)
(222.68224 5.6700685e-17 -17.405972)
(221.69602 -5.7715425e-19 -16.917762)
(220.73278 2.5410701e-16 -16.408392)
(219.79523 0 -15.88002)
(218.88576 1.8731916e-19 -15.33501)
(218.00638 0 -14.77589)
(217.15867 -7.9330202e-17 -14.205306)
(216.34382 -1.4909288e-16 -13.625979)
(215.5626 6.9990872e-17 -13.040646)
(214.81538 0 -12.452021)
(214.10215 -6.1681853e-17 -11.86275)
(213.42255 2.8873086e-16 -11.275369)
(212.7759 -3.2415397e-16 -10.692277)
(212.16125 -3.0374405e-16 -10.115701)
(211.57743 2.836192e-16 -9.5476822)
(211.02306 -1.7700101e-16 -8.9900573)
(210.49663 0 -8.4444523)
(209.99653 0 -7.912279)
(209.52106 7.224309e-17 -7.394738)
(209.0685 6.7422816e-17 -6.8928256)
(208.63709 1.2566878e-16 -6.4073442)
(208.22512 -5.8596133e-17 -5.9389154)
(207.83089 -1.0916813e-16 -5.4879972)
(207.45276 -2.0359947e-16 -5.0549033)
(207.08917 -9.4989373e-17 -4.6398239)
(206.73864 1.7635628e-16 -4.2428484)
(206.39981 0 -3.8639923)
(206.0714 -7.6392173e-17 -3.5032051)
(205.75225 -1.4202539e-16 -3.1603822)
(205.44137 1.3193933e-16 -2.8353858)
(205.13782 6.1208651e-17 -2.5280091)
(204.84067 5.6926457e-17 -2.2379309)
(204.54888 0 -1.9646922)
(204.26112 1.9631742e-16 -1.7076441)
(203.97568 1.8217972e-16 -1.465908)
(203.6904 -2.5354273e-16 -1.2384164)
(203.40282 7.8386577e-17 -1.0241487)
(203.11049 -7.2704504e-17 -0.82221969)
(202.81156 -5.4718916e-20 -0.6312254)
(202.50382 2.4989884e-16 -0.44961706)
(202.18023 -2.3164127e-16 -0.27903062)
(201.82896 5.3636875e-17 -0.11797353)
(201.44656 1.4923534e-16 0.055634953)
(201.03153 -4.6110663e-17 0.224461)
(200.58231 -4.2731828e-17 0.26082828)
(200.30306 0 0.32535089)
(200.46798 3.6647425e-17 1.0701514)
(221.39138 3.9055651e-16 -34.638089)
(261.02265 5.4243554e-19 -14.542745)
(242.63645 -3.5784496e-16 -34.268888)
(252.83978 0 -16.808487)
(245.78384 0 -31.766947)
(248.95407 -2.6696689e-16 -19.931471)
(246.05284 2.7007359e-16 -28.723558)
(246.57592 6.4053717e-17 -22.83061)
(245.27215 -2.431232e-16 -26.416432)
(244.80635 2.2995876e-16 -24.556629)
(243.9334 -2.4577447e-16 -25.386759)
(243.16789 2.065746e-16 -25.076704)
(242.32998 -4.9007252e-17 -25.143002)
(241.47393 -4.6469907e-17 -25.084146)
(240.58607 -1.7610516e-16 -25.035682)
(239.6702 1.6633413e-16 -24.964203)
(238.7265 -3.5522373e-16 -24.874567)
(237.75627 5.9710726e-16 -24.763805)
(236.76091 -2.821264e-16 -24.630488)
(235.7422 -2.6769914e-16 -24.4729)
(234.70223 2.5244269e-16 -24.289462)
(233.64343 -3.0058144e-17 -24.078686)
(232.56857 -2.2630803e-16 -23.839213)
(231.48072 2.131837e-16 -23.56988)
(230.38327 2.5254589e-16 -23.26973)
(229.27987 -1.4240653e-16 -22.938068)
(228.17437 0 -22.574494)
(227.07081 2.5468809e-16 -22.178932)
(225.97332 -3.1990018e-16 -21.751661)
(224.88606 1.1256651e-16 -21.293326)
(223.81314 -2.845981e-16 -20.804948)
(222.75856 2.0050768e-16 -20.287923)
(221.72612 -6.3179764e-17 -19.744007)
(220.71933 2.3744676e-16 -19.175284)
(219.74138 -2.2272983e-16 -18.58415)
(218.79506 -2.0992924e-16 -17.973247)
(217.88272 1.9676163e-16 -17.345432)
(217.00625 -4.6153261e-17 -16.703714)
(216.16702 0 -16.051196)
(215.36594 8.1668059e-17 -15.391017)
(214.60343 -7.6235603e-17 -14.726302)
(213.87945 0 -14.060098)
(213.19355 1.342412e-16 -13.395334)
(212.54489 -6.2791551e-17 -12.734779)
(211.93233 -1.7609842e-16 -12.081008)
(211.35442 5.4927598e-16 -11.436379)
(210.80953 -2.0564374e-16 -10.803012)
(210.29583 9.5934095e-17 -10.182783)
(209.81137 -2.6897636e-16 -9.57732)
(209.35416 -1.8884258e-19 -8.9880045)
(208.92214 1.5596892e-16 -8.4159819)
(208.51326 -1.4551014e-16 -7.8621721)
(208.12549 -6.7725524e-17 -7.3272854)
(207.75686 -6.3088712e-17 -6.8118402)
(207.40546 -1.177925e-16 -6.3161823)
(207.06947 2.1876501e-16 -5.8405061)
(206.74717 0 -5.3848779)
(206.43695 9.4559595e-17 -4.9492586)
(206.13731 -3.5186174e-16 -4.5335284)
(205.84691 2.448928e-16 -4.1375118)
(205.5645 7.5801538e-17 -3.7609793)
(205.28899 1.4082082e-16 -3.4036622)
(205.01942 1.3083636e-16 -3.0652631)
(204.75488 -1.2104903e-16 -2.7454163)
(204.49449 -1.1219771e-16 -2.4436455)
(204.23722 -3.121728e-16 -2.1593369)
(203.98179 -4.8239424e-20 -1.8916909)
(203.72654 -8.9235825e-17 -1.6396945)
(203.46941 0 -1.4022057)
(203.20809 -2.2942972e-16 -1.1781905)
(202.94042 7.073584e-17 -0.96668298)
(202.66481 0 -0.76623911)
(202.37872 1.2105734e-16 -0.57591619)
(202.07479 0 -0.39762459)
(201.74366 1.0347226e-16 -0.22698404)
(201.38379 -1.4342786e-16 -0.042462603)
(200.98478 1.3257015e-16 0.12461049)
(200.5472 -8.1675546e-17 0.15663596)
(200.30299 7.5425664e-17 0.2822363)
(200.46517 0 0.94241938)
(221.21697 -4.1026543e-16 -38.706155)
(261.19366 3.6229133e-16 -17.544571)
(242.22422 -3.3196588e-16 -38.235083)
(252.74798 3.3007689e-16 -20.078887)
(245.29528 3.1610104e-16 -35.408027)
(248.51204 -1.7964859e-17 -23.398529)
(245.49717 -2.8302534e-16 -32.138708)
(245.9675 -2.6867747e-16 -26.430185)
(244.58033 2.8596359e-16 -29.762066)
(244.00592 0 -28.105654)
(243.06036 2.853593e-17 -28.761589)
(242.19998 0 -28.502829)
(241.27355 -1.2834315e-16 -28.510024)
(240.32438 2.423278e-16 -28.425251)
(239.34284 0 -28.335678)
(238.33231 0 -28.220266)
(237.29377 0 -28.080834)
(236.2291 3.9026789e-17 -27.914695)
(235.14049 0 -27.72013)
(234.03048 -2.4411056e-16 -27.495327)
(232.90206 3.2889409e-16 -27.238641)
(231.75855 1.2445327e-16 -26.948624)
(230.60368 1.7647693e-16 -26.624037)
(229.44148 -2.7719026e-16 -26.263945)
(228.27627 -5.2239693e-17 -25.867728)
(227.11261 -2.4722101e-16 -25.43514)
(225.95519 1.8606423e-16 -24.966336)
(224.80878 -2.1977398e-16 -24.461908)
(223.67812 8.2228945e-17 -23.922879)
(222.56784 7.7747558e-17 -23.350722)
(221.48235 0 -22.747341)
(220.42579 2.7659557e-16 -22.115036)
(219.40189 -2.597759e-16 -21.456483)
(218.41394 0 -20.774667)
(217.4647 -2.2967838e-16 -20.07284)
(216.55641 2.1512879e-16 -19.354444)
(215.69068 -1.0138165e-16 -18.623045)
(214.86857 1.8982402e-16 -17.882266)
(214.09054 -2.6671811e-16 -17.135714)
(213.35652 1.2873194e-19 -16.386913)
(212.66592 -1.558479e-16 -15.639252)
(212.01771 -7.2944835e-17 -14.895929)
(211.41047 -1.3690698e-16 -14.159915)
(210.84245 2.5521656e-16 -13.433921)
(210.31165 -1.1911007e-16 -12.720379)
(209.81586 0 -12.021434)
(209.35277 -3.6778787e-19 -11.338934)
(208.91995 9.690868e-17 -10.674446)
(208.51497 0 -10.029255)
(208.1354 8.4300334e-17 -9.4043875)
(207.77886 7.881877e-17 -8.8006259)
(207.44304 -7.3178114e-17 -8.2185319)
(207.12572 2.7248358e-16 -7.6584673)
(206.82478 -2.5331771e-16 -7.1206187)
(206.53824 -1.1781677e-16 -6.6050198)
(206.26424 -1.0945662e-16 -6.1115769)
(206.00104 1.016403e-16 -5.6400925)
(205.74708 1.8857313e-16 -5.1902899)
(205.50092 -3.49808e-16 -4.7618367)
(205.26126 4.0543754e-16 -4.3543668)
(205.02697 -1.5024888e-16 -3.9674746)
(204.79702 1.3926178e-16 -3.6007319)
(204.57054 -1.2893979e-16 -3.2536881)
(204.34672 2.3880961e-16 -2.9258232)
(204.12471 -3.315221e-16 -2.6165122)
(203.90355 2.0437203e-16 -2.3249923)
(203.68201 -6.0018542e-20 -2.0503192)
(203.45853 8.736369e-17 -1.7913577)
(203.23116 0 -1.5469026)
(202.99778 0 -1.3158866)
(202.75653 0 -1.0972561)
(202.50602 -1.2702852e-16 -0.88966961)
(202.24335 -2.9097977e-21 -0.69286233)
(201.96127 0 -0.50846987)
(201.65309 0 -0.32935099)
(201.31766 9.1937196e-17 -0.13675209)
(200.93673 -1.6947058e-16 0.02764114)
(200.51585 0 0.064369959)
(200.30244 0 0.23510327)
(200.45761 -1.3210357e-16 0.8200958)
(220.7972 2.7691866e-17 -42.978433)
(261.12196 -7.8435416e-16 -20.703025)
(241.53238 3.4728245e-16 -42.346118)
(252.13893 -2.169362e-17 -23.531812)
(244.49058 3.7255171e-16 -39.164013)
(247.73917 -3.5132243e-16 -27.089687)
(244.63674 0 -35.672426)
(244.9743 -3.1646851e-16 -30.223597)
(243.53428 2.3264407e-16 -33.225418)
(242.83558 2.2097292e-16 -31.795753)
(241.80362 -2.3851934e-16 -32.272096)
(240.83407 0 -32.045635)
(239.80454 1.8460534e-19 -31.991372)
(238.74849 0 -31.866711)
(237.65994 3.8422198e-16 -31.724517)
(236.54225 -7.2583239e-16 -31.55141)
(235.39738 3.4267109e-16 -31.347377)
(234.2281 -4.0481914e-17 -31.10983)
(233.03758 -3.8464529e-17 -30.83687)
(231.82947 3.6555495e-17 -30.526672)
(230.60787 -6.8276037e-17 -30.177678)
(229.37728 -3.2343671e-16 -29.788637)
(228.14258 3.0441121e-16 -29.358663)
(226.90894 5.738917e-17 -28.887301)
(225.68173 -2.7196756e-16 -28.374552)
(224.46645 -7.0029639e-19 -27.820935)
(223.26861 2.8887092e-16 -27.227481)
(222.09361 -1.8130828e-16 -26.595756)
(220.94664 -6.0561511e-19 -25.927839)
(219.83254 0 -25.226303)
(218.75575 0 -24.494165)
(217.72015 -7.1350662e-17 -23.734834)
(216.72903 1.3358579e-16 -22.952043)
(215.785 0 -22.149768)
(214.88999 -1.1807344e-16 -21.332144)
(214.04519 2.2094673e-16 -20.503379)
(213.25112 -1.0350769e-16 -19.667665)
(212.50763 -1.9399607e-16 -18.829102)