/*--------------------------------*- C++ -*----------------------------------*\
  =========                 |
  \\      /  F ield         | OpenFOAM: The Open Source CFD Toolbox
   \\    /   O peration     | Website:  https://openfoam.org
    \\  /    A nd           | Version:  12
     \\/     M anipulation  |
\*---------------------------------------------------------------------------*/
FoamFile
{
    format      ascii;
    class       volScalarField;
    location    "0.142";
    object      alphat;
}
// * * * * * * * * * * * * * * * * * * * * * * * * * * * * * * * * * * * * * //

dimensions      [1 -1 -1 0 0 0 0];

internalField   nonuniform List<scalar> 
16000
(
4.9547379e-07
1.0785536e-05
1.956123e-05
2.5886217e-05
1.9764739e-05
2.7178181e-05
1.9201073e-05
2.6322085e-05
2.0542105e-05
2.8326287e-05
2.3853624e-05
2.8044103e-05
2.5584243e-05
2.6286517e-05
2.541717e-05
2.5293687e-05
2.5050544e-05
2.5001044e-05
2.5037033e-05
2.5180843e-05
2.5424691e-05
2.5768037e-05
2.620851e-05
2.6746456e-05
2.7384592e-05
2.8129697e-05
2.8990878e-05
2.9982523e-05
3.1122154e-05
3.2428687e-05
3.3922907e-05
3.5632353e-05
3.7592541e-05
3.9847253e-05
4.2450387e-05
4.5466316e-05
4.8971815e-05
5.3058534e-05
5.7839974e-05
6.3456881e-05
7.0074707e-05
7.7888578e-05
8.7144623e-05
9.8144689e-05
0.00011124854
0.0001268881
0.00014559924
0.0001680355
0.00019499331
0.00022744415
0.00026657826
0.00031385742
0.00037107115
0.00044041574
0.00052458854
0.0006269176
0.00075152431
0.00090353714
0.0010893781
0.0011804387
0.0011811223
0.0011816941
0.0011821466
0.0011824478
0.0011825998
0.001182592
0.0011824075
0.001182026
0.001181434
0.0011806336
0.0011796365
0.0011784299
0.0011770072
0.0011757819
0.0011748294
0.0011740363
0.0011732899
0.0011729011
0.0011726362
0.0011728473
4.3862926e-07
1.0212831e-05
2.1283561e-05
2.3130002e-05
1.77957e-05
2.4352113e-05
1.7025604e-05
2.3039295e-05
1.8134092e-05
2.5001923e-05
2.1577117e-05
2.5262091e-05
2.3376336e-05
2.3799847e-05
2.3126931e-05
2.2948681e-05
2.2750319e-05
2.2696008e-05
2.2733134e-05
2.2865987e-05
2.3092369e-05
2.3411329e-05
2.3821188e-05
2.432237e-05
2.4917089e-05
2.561171e-05
2.6414172e-05
2.7337473e-05
2.8398202e-05
2.96148e-05
3.1006632e-05
3.2598894e-05
3.4424477e-05
3.6523944e-05
3.8947745e-05
4.1756435e-05
4.5022712e-05
4.8832751e-05
5.3292361e-05
5.853486e-05
6.4719307e-05
7.2029562e-05
8.0697568e-05
9.1011252e-05
0.00010331629
0.00011802349
0.00013564422
0.00015680437
0.00018226842
0.00021296956
0.0002500516
0.00029492309
0.00034931088
0.00041533823
0.00049561508
0.00059336445
0.00071258141
0.00085823007
0.0010365076
0.0011799428
0.0011806375
0.0011811788
0.001181611
0.001181894
0.0011820286
0.0011820044
0.0011818054
0.0011814129
0.0011808153
0.001180017
0.0011790342
0.0011778608
0.0011764765
0.0011752914
0.0011743745
0.0011736009
0.0011728805
0.0011723377
0.0011721937
0.0011725727
3.9267499e-07
9.7696641e-06
2.0096773e-05
2.1151534e-05
1.5922837e-05
2.1421351e-05
1.5147814e-05
2.0007761e-05
1.6293778e-05
2.1922106e-05
1.9661255e-05
2.2482086e-05
2.1163854e-05
2.1303955e-05
2.0791057e-05
2.0589305e-05
2.0425473e-05
2.037643e-05
2.0416279e-05
2.0542508e-05
2.0754477e-05
2.1051575e-05
2.1432465e-05
2.1897822e-05
2.244946e-05
2.3093508e-05
2.3837085e-05
2.4691983e-05
2.5673668e-05
2.6800099e-05
2.808967e-05
2.9565709e-05
3.1258925e-05
3.3207097e-05
3.5457607e-05
3.8067489e-05
4.1105812e-05
4.4654435e-05
4.8812677e-05
5.3706404e-05
5.9489381e-05
6.6336717e-05
7.4468112e-05
8.4158388e-05
9.5741844e-05
0.00010961195
0.00012625933
0.00014628635
0.00017043052
0.00019959345
0.00023487981
0.00027765338
0.00032958786
0.00039274505
0.00046966123
0.00056347016
0.00067805944
0.00081826222
0.00099009902
0.0011796248
0.0011803191
0.0011808122
0.0011812039
0.0011814493
0.0011815479
0.0011814889
0.0011812579
0.0011808381
0.0011802203
0.0011794111
0.0011784285
0.0011772713
0.001175918
0.0011747837
0.0011739089
0.0011731691
0.0011724518
0.0011718228
0.0011716728
0.0011717442
3.5282708e-07
9.4346565e-06
1.9055909e-05
1.9617445e-05
1.4300479e-05
1.8901379e-05
1.3489301e-05
1.7475914e-05
1.4656867e-05
1.9314873e-05
1.793866e-05
2.002637e-05
1.912696e-05
1.9060732e-05
1.8666676e-05
1.8463476e-05
1.8329787e-05
1.829137e-05
1.8336878e-05
1.8460354e-05
1.8661871e-05
1.8941243e-05
1.9297491e-05
1.9731678e-05
2.0245348e-05
2.0844554e-05
2.1535869e-05
2.2330135e-05
2.3241759e-05
2.4288311e-05
2.5487548e-05
2.6861217e-05
2.8438266e-05
3.0254091e-05
3.2353492e-05
3.479048e-05
3.7631008e-05
4.0953566e-05
4.4852321e-05
4.9446231e-05
5.4885004e-05
6.1337126e-05
6.9012481e-05
7.8174278e-05
8.91486e-05
0.0001023156
0.00011814946
0.00013723434
0.00016028693
0.00018818565
0.00022200545
0.00026307722
0.00031303566
0.00037389857
0.00044815038
0.00053886213
0.00064984572
0.00078584498
0.00095276867
0.001157971
0.0011802026
0.0011806312
0.0011809642
0.0011811548
0.0011812008
0.0011810919
0.001180815
0.001180356
0.0011797077
0.0011788772
0.001177882
0.0011767269
0.0011753872
0.0011743013
0.0011734672
0.0011727594
0.0011720372
0.001171347
0.0011711819
0.0011710199
3.2129131e-07
9.1847695e-06
1.8146789e-05
1.9592853e-05
1.4225422e-05
1.6706826e-05
1.2034322e-05
1.5306047e-05
1.3251004e-05
1.7066726e-05
1.6408517e-05
1.7816766e-05
1.7230039e-05
1.7024544e-05
1.6718449e-05
1.6529146e-05
1.642044e-05
1.6393432e-05
1.6443449e-05
1.6563682e-05
1.6754484e-05
1.7016303e-05
1.7348573e-05
1.7752859e-05
1.823059e-05
1.8787833e-05
1.9430774e-05
2.0169501e-05
2.1017385e-05
2.1991563e-05
2.3109372e-05
2.4391253e-05
2.5864698e-05
2.7563054e-05
2.9528911e-05
3.1813654e-05
3.4480466e-05
3.7605112e-05
4.1277912e-05
4.5611263e-05
5.0751476e-05
5.6862086e-05
6.4145334e-05
7.285356e-05
8.3306642e-05
9.5874373e-05
0.00011101743
0.00012930504
0.00015143669
0.00017827279
0.00021086387
0.00025051457
0.00029882786
0.00035778627
0.00042983297
0.00051798881
0.00062600486
0.00075855289
0.00092145362
0.0011219425
0.0011802666
0.0011806152
0.0011808715
0.0011809904
0.0011809681
0.0011807949
0.0011804595
0.0011799503
0.0011792617
0.0011784001
0.0011773793
0.0011762128
0.0011748886
0.0011738503
0.0011730554
0.0011723766
0.0011716488
0.0011709145
0.0011706663
0.0011703039
2.9340945e-07
9.0312235e-06
1.7415469e-05
1.9335027e-05
1.3986172e-05
1.4791005e-05
1.1348276e-05
1.3515675e-05
1.2240976e-05
1.5173103e-05
1.5072422e-05
1.5881332e-05
1.5502905e-05
1.52153e-05
1.4964651e-05
1.4791531e-05
1.4698847e-05
1.4678771e-05
1.4729406e-05
1.4844099e-05
1.5023172e-05
1.5267632e-05
1.5577152e-05
1.5953706e-05
1.6398701e-05
1.6918193e-05
1.7518045e-05
1.8207766e-05
1.899972e-05
1.9910585e-05
2.0957477e-05
2.2159781e-05
2.3543849e-05
2.5141334e-05
2.6993021e-05
2.914814e-05
3.1667541e-05
3.4624845e-05
3.8107924e-05
4.2223548e-05
4.7114959e-05
5.2942492e-05
5.99035e-05
6.8240534e-05
7.8269459e-05
9.0353205e-05
0.0001049424
0.0001225956
0.00014399941
0.00017000276
0.00020163866
0.00024019407
0.00028725019
0.00034476598
0.00041515819
0.00050141504
0.00060724758
0.00073728009
0.0008972777
0.0010944022
0.0011804986
0.0011807522
0.0011809154
0.0011809472
0.0011808428
0.0011805932
0.0011801888
0.0011796197
0.0011788822
0.0011779812
0.0011769238
0.0011757309
0.0011744297
0.0011734381
0.00117268
0.0011720264
0.0011712963
0.0011705259
0.0011701766
0.0011696816
2.6016947e-07
8.9454025e-06
1.6850063e-05
1.8290057e-05
1.386135e-05
1.3064213e-05
1.1403767e-05
1.2440556e-05
1.1829896e-05
1.3546147e-05
1.3876933e-05
1.4176085e-05
1.3906191e-05
1.3582223e-05
1.3362699e-05
1.320576e-05
1.3124708e-05
1.3110232e-05
1.3161091e-05
1.327118e-05
1.3440415e-05
1.3670287e-05
1.3960448e-05
1.4229058e-05
1.4635686e-05
1.5113807e-05
1.5668463e-05
1.6308368e-05
1.7044683e-05
1.7893263e-05
1.8870967e-05
1.9996159e-05
2.1294143e-05
2.2794956e-05
2.4537714e-05
2.6569675e-05
2.8949509e-05
3.1748734e-05
3.5053643e-05
3.9260397e-05
4.3950774e-05
4.9551018e-05
5.6256402e-05
6.4301109e-05
7.3998274e-05
8.5707363e-05
9.9872327e-05
0.00011704496
0.00013790267
0.00016328905
0.00019422561
0.0002319895
0.00027814903
0.00033464993
0.00040389543
0.0004888567
0.00059322295
0.00072159197
0.00087969999
0.0010746725
0.0011808795
0.0011810246
0.0011810801
0.0011810115
0.0011808133
0.0011804776
0.0011799954
0.0011793584
0.0011785637
0.0011776158
0.001176514
0.0011752786
0.0011740188
0.0011730729
0.0011723481
0.0011717156
0.0011709872
0.0011701806
0.0011697095
0.001169062
2.3954072e-07
8.8956265e-06
1.6369718e-05
1.6637131e-05
1.2711824e-05
1.1383153e-05
9.8690689e-06
1.1110224e-05
1.0397968e-05
1.2175244e-05
1.2676945e-05
1.2613101e-05
1.2385828e-05
1.2069581e-05
1.1875385e-05
1.1739434e-05
1.1672615e-05
1.1666903e-05
1.1650006e-05
1.1741423e-05
1.1891948e-05
1.2102048e-05
1.2369693e-05
1.2695314e-05
1.3083839e-05
1.3538937e-05
1.4065958e-05
1.4673538e-05
1.5372234e-05
1.6177423e-05
1.7106182e-05
1.8176336e-05
1.9412693e-05
2.0844277e-05
2.2509236e-05
2.4453593e-05
2.673472e-05
2.9422856e-05
3.2603756e-05
3.6381902e-05
4.0884738e-05
4.6273666e-05
5.2743991e-05
6.1033426e-05
7.0492485e-05
8.1937782e-05
9.5810371e-05
0.00011265907
0.00013315596
0.00015814577
0.00018864502
0.0002259292
0.00027156347
0.00032749138
0.0003961164
0.00048040955
0.00058405792
0.0007116558
0.00086893789
0.0010630317
0.0011813875
0.0011814121
0.001181348
0.0011811685
0.0011808675
0.001180438
0.0011798715
0.0011791601
0.0011783007
0.0011772981
0.0011761484
0.0011748554
0.0011736608
0.0011727598
0.0011720643
0.0011714492
0.0011707263
0.0011698833
0.0011692897
0.0011684711
2.2028017e-07
8.8474086e-06
1.5877518e-05
1.4561412e-05
1.0447392e-05
1.0117909e-05
8.1336841e-06
9.4746784e-06
9.6702604e-06
1.0955559e-05
1.1461323e-05
1.1162096e-05
1.095473e-05
1.0671871e-05
1.0503414e-05
1.0318229e-05
1.0240426e-05
1.0228985e-05
1.0276748e-05
1.0380521e-05
1.0536101e-05
1.0745672e-05
1.1008183e-05
1.132399e-05
1.1697965e-05
1.2134764e-05
1.2639781e-05
1.3221692e-05
1.3890641e-05
1.4661519e-05
1.5551734e-05
1.6578831e-05
1.7767454e-05
1.9145932e-05
2.0751837e-05
2.2630466e-05
2.4838433e-05
2.7445307e-05
3.0536175e-05
3.4214632e-05
3.8608528e-05
4.3876973e-05
5.0218416e-05
5.7863204e-05
6.7106689e-05
7.8316479e-05
9.274635e-05
0.00010942711
0.00012974796
0.00015456098
0.00018488456
0.00022200089
0.00026748182
0.0003232801
0.0003918134
0.00047607001
0.00057975543
0.00070748403
0.00086501602
0.0010595173
0.0011819978
0.0011818923
0.0011816999
0.0011814016
0.0011809915
0.0011804627
0.0011798072
0.0011790165
0.0011780861
0.0011770204
0.0011758219
0.0011744832
0.0011733599
0.0011725028
0.0011718326
0.0011712319
0.0011705186
0.0011696402
0.0011689422
0.0011680774
2.0146661e-07
8.8026288e-06
1.4275867e-05
1.2680649e-05
8.4486813e-06
8.9943167e-06
7.2319456e-06
8.5528676e-06
8.9579123e-06
9.8041486e-06
1.0259837e-05
9.8415081e-06
9.640743e-06
9.3060467e-06
9.1267989e-06
9.0168452e-06
8.9735737e-06
8.9877664e-06
9.0527793e-06
9.1677042e-06
9.330095e-06
9.5395675e-06
9.7984563e-06
1.0107013e-05
1.0470352e-05
1.0893556e-05
1.138219e-05
1.1945108e-05
1.2592203e-05
1.3337916e-05
1.4200059e-05
1.5196243e-05
1.6351207e-05
1.76929e-05
1.9258683e-05
2.1093591e-05
2.3253979e-05
2.5809357e-05
2.8845195e-05
3.2465593e-05
3.6798537e-05
4.200272e-05
4.8280226e-05
5.586152e-05
6.5044586e-05
7.6199367e-05
8.9782201e-05
0.00010632913
0.00012767688
0.00015253519
0.00018294847
0.00022021381
0.00026592043
0.00032204221
0.00039102585
0.00047589527
0.00058039643
0.00070918954
0.00086808877
0.0010643339
0.0011826836
0.0011824412
0.001182115
0.0011816932
0.0011811699
0.0011805386
0.001179791
0.0011789178
0.0011779123
0.0011767754
0.0011755241
0.0011741764
0.0011731185
0.001172304
0.0011716565
0.0011710681
0.0011703694
0.0011694658
0.0011686881
0.0011678848
1.8615042e-07
8.755916e-06
1.1342056e-05
1.0529952e-05
6.9402866e-06
8.0117786e-06
6.5954668e-06
7.6896532e-06
8.386191e-06
8.7618353e-06
9.0827613e-06
8.5495415e-06
8.297585e-06
8.0671735e-06
7.9367483e-06
7.8669736e-06
7.8528053e-06
7.8895221e-06
7.9708687e-06
8.0961283e-06
8.2632833e-06
8.4747176e-06
8.7323427e-06
9.0369368e-06
9.3937146e-06
9.8082419e-06
1.0286379e-05
1.0837229e-05
1.1470657e-05
1.2200739e-05
1.2978821e-05
1.394525e-05
1.5068481e-05
1.6376055e-05
1.7905122e-05
1.9700488e-05
2.1818339e-05
2.4328183e-05
2.7316021e-05
3.0886779e-05
3.5169745e-05
4.064135e-05
4.6920644e-05
5.4517609e-05
6.3733052e-05
7.4940683e-05
8.8609576e-05
0.00010528812
0.0001256681
0.00015061227
0.000182836
0.0002205724
0.00026689093
0.00032379922
0.00039378857
0.00047993829
0.00058605825
0.00071688272
0.00087831074
0.0010776902
0.0011834174
0.0011830342
0.0011825718
0.0011820246
0.0011813865
0.0011806511
0.0011798099
0.0011788525
0.00117777
0.0011765582
0.0011752428
0.0011739363
0.001172938
0.0011721646
0.0011715391
0.0011709624
0.0011702823
0.001169374
0.0011685396
0.0011678174
1.7241233e-07
8.712211e-06
8.9519462e-06
8.9582466e-06
6.1066456e-06
7.1018829e-06
6.0614427e-06
6.9379653e-06
7.8060886e-06
7.790637e-06
7.8060287e-06
7.3526915e-06
7.1480317e-06
6.980589e-06
6.8916711e-06
6.8554762e-06
6.8671929e-06
6.9225433e-06
7.0180199e-06
7.1535494e-06
7.3278361e-06
7.5430089e-06
7.8020878e-06
8.1063525e-06
8.4611176e-06
8.8341564e-06
9.3000731e-06
9.8380878e-06
1.0457932e-05
1.1173219e-05
1.2000348e-05
1.296065e-05
1.407821e-05
1.5380702e-05
1.6905691e-05
1.869853e-05
2.0816181e-05
2.3329173e-05
2.6325335e-05
2.9911935e-05
3.4221439e-05
3.9419436e-05
4.5708883e-05
5.3333226e-05
6.2598368e-05
7.4526823e-05
8.8413418e-05
0.00010537869
0.00012612651
0.00015154581
0.00018272303
0.00022307931
0.00027040471
0.0003285743
0.00040014035
0.00048825886
0.00059682904
0.00073069019
0.00089586156
0.0010998327
0.0011841718
0.0011836466
0.0011830487
0.0011823766
0.0011816242
0.0011807848
0.0011798499
0.0011788077
0.0011776482
0.0011763662
0.0011749756
0.0011737624
0.0011728187
0.0011720847
0.0011714837
0.0011709199
0.001170257
0.0011693677
0.0011685268
0.0011678713
1.6023474e-07
8.6612051e-06
7.1244998e-06
7.8701348e-06
5.4469064e-06
6.2910042e-06
5.605227e-06
6.2738565e-06
7.1149893e-06
6.6868737e-06
6.6548204e-06
6.3070246e-06
6.1459021e-06
6.0293724e-06
5.9760472e-06
5.9687713e-06
6.0030962e-06
6.0765644e-06
6.1861896e-06
6.3326975e-06
6.5155414e-06
6.7370732e-06
6.9710953e-06
7.2723636e-06
7.6238467e-06
8.0304491e-06
8.5003558e-06
9.0423437e-06
9.6664075e-06
1.038642e-05
1.1218988e-05
1.2185235e-05
1.331071e-05
1.4623556e-05
1.6162047e-05
1.7972498e-05
2.0113264e-05
2.2656474e-05
2.5692604e-05
2.9332432e-05
3.3711849e-05
3.9000256e-05
4.5411093e-05
5.3194008e-05
6.2664506e-05
7.4215177e-05
8.8333951e-05
0.00010561087
0.00012788909
0.00015400862
0.00018606389
0.00022544132
0.00027646346
0.0003363809
0.00041010983
0.00050090621
0.00061278627
0.00075072761
0.00092091177
0.0011310057
0.0011849207
0.0011842547
0.0011835245
0.0011827301
0.0011818656
0.0011809241
0.0011798966
0.0011787707
0.0011775338
0.0011761936
0.0011747895
0.0011736529
0.0011727605
0.0011720641
0.0011714923
0.0011709449
0.0011702945
0.0011694463
0.0011686601
0.0011680737
1.4943931e-07
8.5999905e-06
5.7196356e-06
6.8843334e-06
4.8616171e-06
5.571302e-06
5.2188685e-06
5.5976127e-06
6.2429991e-06
5.729423e-06
5.6453361e-06
5.3929275e-06
5.2728532e-06
5.1989166e-06
5.1772871e-06
5.1962458e-06
5.251944e-06
5.3430118e-06
5.467364e-06
5.6050531e-06
5.7919264e-06
6.0174802e-06
6.2844493e-06
6.5963559e-06
6.9582147e-06
7.375368e-06
7.8559313e-06
8.4094141e-06
9.0460859e-06
9.7800374e-06
1.0628052e-05
1.1611562e-05
1.2699006e-05
1.4023376e-05
1.5576441e-05
1.7405448e-05
1.9570382e-05
2.2145041e-05
2.5222604e-05
2.8917959e-05
3.3371592e-05
3.9052179e-05
4.5645264e-05
5.3660482e-05
6.3424248e-05
7.5340424e-05
8.992027e-05
0.00010777982
0.00012967372
0.00015797537
0.00019118288
0.00023199333
0.00028217443
0.0003472126
0.00042370404
0.00051790492
0.00063398002
0.00077707975
0.00095359702
0.0011714231
0.0011856392
0.0011848366
0.0011839794
0.0011830671
0.0011820944
0.0011810537
0.0011799358
0.0011787294
0.0011774187
0.0011760165
0.0011746753
0.0011736085
0.0011727629
0.0011721024
0.0011715652
0.0011710397
0.0011703946
0.0011696008
0.0011689319
0.0011684221
1.3988548e-07
8.4789407e-06
4.6492366e-06
6.0086682e-06
4.340001e-06
4.9320572e-06
4.8832555e-06
4.8608043e-06
5.3623993e-06
4.8757648e-06
4.7706868e-06
4.5970329e-06
4.5161854e-06
4.4792394e-06
4.4866227e-06
4.5300677e-06
4.6064723e-06
4.6965074e-06
4.8302285e-06
4.9984037e-06
5.2021828e-06
5.4434545e-06
5.7257254e-06
6.052745e-06
6.4301773e-06
6.8636692e-06
7.3614283e-06
7.9095806e-06
8.5598919e-06
9.308583e-06
1.0172522e-05
1.1173207e-05
1.2336927e-05
1.3696725e-05
1.5292031e-05
1.7171703e-05
1.9398514e-05
2.2049118e-05
2.5220482e-05
2.9033411e-05
3.3634938e-05
3.9210398e-05
4.5983984e-05
5.4231936e-05
6.4294714e-05
7.7234166e-05
9.2401008e-05
0.0001109923
0.00013379962
0.0001617995
0.0001980381
0.00024061105
0.00029297688
0.00035740655
0.00044088988
0.00053923318
0.00066040633
0.00080976863
0.00099397635
0.0011872131
0.0011863051
0.0011853727
0.0011843957
0.0011833715
0.0011822956
0.00118116
0.0011799543
0.0011786706
0.0011773008
0.0011758524
0.0011746289
0.0011736274
0.0011728255
0.0011721993
0.0011716998
0.001171202
0.001170557
0.0011698181
0.0011693054
0.0011688609
1.3148925e-07
8.1517619e-06
3.9123181e-06
5.2326159e-06
3.8769289e-06
4.3669291e-06
4.3484736e-06
4.194444e-06
4.5129945e-06
4.1212375e-06
4.0214827e-06
3.9108059e-06
3.8669612e-06
3.8628924e-06
3.8970841e-06
3.949079e-06
4.0387275e-06
4.1615446e-06
4.3168375e-06
4.5050567e-06
4.7280403e-06
4.9882511e-06
5.289669e-06
5.6363655e-06
6.0207028e-06
6.4715948e-06
6.9874814e-06
7.5778696e-06
8.2547084e-06
9.0322315e-06
9.9277748e-06
1.0963748e-05
1.2167569e-05
1.3573594e-05
1.5224043e-05
1.7169642e-05
1.9476622e-05
2.2225354e-05
2.5516916e-05
2.9479448e-05
3.4266015e-05
4.007146e-05
4.7134769e-05
5.5744743e-05
6.6261256e-05
7.9125932e-05
9.5724703e-05
0.00011519645
0.0001390926
0.00016844929
0.00020451449
0.0002512185
0.00030616162
0.00037378055
0.00045701149
0.00056479319
0.00069197166
0.00084871229
0.0010419801
0.0011879224
0.0011868993
0.001185847
0.0011847586
0.0011836299
0.0011824563
0.0011812312
0.0011799431
0.0011785833
0.0011771694
0.0011757738
0.001174642
0.0011737064
0.001172947
0.0011723537
0.0011718908
0.0011714232
0.0011707826
0.0011700953
0.0011697554
0.0011694316
1.2433402e-07
7.7367453e-06
3.4496852e-06
4.5450853e-06
3.4663587e-06
3.7043582e-06
3.8771021e-06
3.5839314e-06
3.7442325e-06
3.4660152e-06
3.3878943e-06
3.3271825e-06
3.3172334e-06
3.342849e-06
3.3849163e-06
3.4688829e-06
3.5847908e-06
3.7314898e-06
3.9092679e-06
4.1193714e-06
4.3642374e-06
4.646632e-06
4.9613549e-06
5.3286141e-06
5.7475251e-06
6.224771e-06
6.7683815e-06
7.3882114e-06
8.0964675e-06
8.9083069e-06
9.8416438e-06
1.0919881e-05
1.2171727e-05
1.3633319e-05
1.5283739e-05
1.729171e-05
1.9674694e-05
2.2517385e-05
2.6081354e-05
3.022303e-05
3.5231231e-05
4.1310277e-05
4.8715304e-05
5.7750858e-05
6.8795414e-05
8.2317562e-05
9.8892211e-05
0.00011922493
0.00014547041
0.00017638693
0.00021438292
0.0002611019
0.00032158675
0.00039285888
0.00048059647
0.00059437587
0.00072844839
0.00089367273
0.0010973621
0.0011885397
0.0011874084
0.0011862474
0.001185057
0.0011838321
0.0011825676
0.0011812579
0.0011798956
0.0011784706
0.0011770066
0.0011757567
0.0011747104
0.0011738397
0.001173124
0.0011725635
0.0011721318
0.0011716922
0.0011710741
0.0011704546
0.0011702744
0.0011701413
1.1871161e-07
6.7066226e-06
3.0562097e-06
3.9214525e-06
3.1128931e-06
3.0923308e-06
3.4075535e-06
3.0310707e-06
3.0838296e-06
2.9064722e-06
2.8577094e-06
2.8378255e-06
2.8502859e-06
2.8950771e-06
2.9756873e-06
3.0877603e-06
3.2293368e-06
3.4003669e-06
3.6019549e-06
3.8358203e-06
4.098801e-06
4.4038178e-06
4.7510318e-06
5.1452153e-06
5.5920651e-06
6.0984889e-06
6.6728877e-06
7.325508e-06
8.0689544e-06
8.8994143e-06
9.8687452e-06
1.0986679e-05
1.2283147e-05
1.3795648e-05
1.5571077e-05
1.7668057e-05
2.0159055e-05
2.3134777e-05
2.6707757e-05
3.1017012e-05
3.623514e-05
4.2881135e-05
5.0674153e-05
6.0192883e-05
7.1835724e-05
8.6097946e-05
0.00010358869
0.0001250578
0.0001528167
0.00018547851
0.00022563339
0.0002750158
0.00033903081
0.00041438337
0.00050716379
0.00062143487
0.00076942671
0.00094419269
0.0011596209
0.0011890558
0.0011878243
0.0011865661
0.0011852834
0.0011839715
0.0011826242
0.0011812354
0.0011798041
0.0011783438
0.0011769367
0.0011757889
0.0011748266
0.0011740192
0.0011733504
0.0011728245
0.001172419
0.0011720018
0.0011714245
0.0011708889
0.001170839
0.001170791
1.1419585e-07
4.7094954e-06
2.7007577e-06
3.3434402e-06
2.6628523e-06
2.5796879e-06
2.912512e-06
2.5387123e-06
2.5340073e-06
2.4354631e-06
2.4197574e-06
2.4274317e-06
2.470926e-06
2.5499825e-06
2.6602352e-06
2.7991867e-06
2.9661917e-06
3.1619296e-06
3.3848413e-06
3.642074e-06
3.9348382e-06
4.2664898e-06
4.6411055e-06
5.0636409e-06
5.5400713e-06
6.0775982e-06
6.684965e-06
7.361716e-06
8.1389062e-06
9.0251097e-06
1.0040584e-05
1.121049e-05
1.2566537e-05
1.4148543e-05
1.6006419e-05
1.8202356e-05
2.0813637e-05
2.3936398e-05
2.7690225e-05
3.2223476e-05
3.7719955e-05
4.4406247e-05
5.2953323e-05
6.3003298e-05
7.5303791e-05
9.0378893e-05
0.00010887375
0.00013158401
0.00015949061
0.00019554067
0.00023804914
0.00029033848
0.00035468745
0.00043797773
0.00053626198
0.00065733215
0.00081426701
0.00099952894
0.0011907923
0.0011894668
0.0011881443
0.0011868003
0.0011854349
0.0011840449
0.0011826246
0.0011811674
0.001179675
0.0011781862
0.0011769254
0.0011758674
0.0011749814
0.0011742348
0.0011736166
0.0011731301
0.0011727481
0.0011723442
0.0011718075
0.0011713646
0.0011714209
0.0011715089
1.0943558e-07
3.9131768e-06
2.3290067e-06
2.8108366e-06
2.2962746e-06
2.1516231e-06
2.399788e-06
2.1064591e-06
2.0870732e-06
2.0489896e-06
2.06218e-06
2.104415e-06
2.1839502e-06
2.2938147e-06
2.4314163e-06
2.5958303e-06
2.7873939e-06
3.0051133e-06
3.2546628e-06
3.5373475e-06
3.8561398e-06
4.2146416e-06
4.6171609e-06
5.0688449e-06
5.5758783e-06
6.1457305e-06
6.7799138e-06
7.5013981e-06
8.3187741e-06
9.2490345e-06
1.0313557e-05
1.1539027e-05
1.2959005e-05
1.4615674e-05
1.6562122e-05
1.8864792e-05
2.1606157e-05
2.4888394e-05
2.8838552e-05
3.3613618e-05
3.9408418e-05
4.6799811e-05
5.5484219e-05
6.6101777e-05
7.910468e-05
9.5047364e-05
0.00011461281
0.00013864314
0.00016973459
0.00020633466
0.00025134149
0.00030671763
0.0003748804
0.00046312755
0.00056727794
0.0006956098
0.00086205253
0.0010585828
0.001191167
0.0011897724
0.0011883705
0.0011869522
0.0011855138
0.0011840537
0.0011825689
0.0011810561
0.0011795307
0.0011781209
0.0011769583
0.001175984
0.0011751666
0.0011744775
0.0011739105
0.0011734691
0.0011731114
0.0011727187
0.0011722274
0.001171897
0.0011720505
0.0011721722
1.0623879e-07
3.1526108e-06
2.0084505e-06
2.2717744e-06
1.9957649e-06
1.7853691e-06
1.9230265e-06
1.7398851e-06
1.7362312e-06
1.7467868e-06
1.7900274e-06
1.8702101e-06
1.9806913e-06
2.1175189e-06
2.2796751e-06
2.467434e-06
2.6806999e-06
2.9231892e-06
3.196733e-06
3.504053e-06
3.8484062e-06
4.2336044e-06
4.6641168e-06
5.1452363e-06
5.6833144e-06
6.281744e-06
6.9563661e-06
7.7159325e-06
8.574656e-06
9.550375e-06
1.0665735e-05
1.1949029e-05
1.3435864e-05
1.5170938e-05
1.7210449e-05
1.9625048e-05
2.2503024e-05
2.5952713e-05
3.0109361e-05
3.5139406e-05
4.1520218e-05
4.902405e-05
5.8185322e-05
6.9393197e-05
8.312469e-05
9.9967273e-05
0.00012064343
0.00014604456
0.00017886647
0.00021755542
0.00026514473
0.0003237117
0.00039582287
0.0004891494
0.00059938714
0.00073527349
0.00091155516
0.001119863
0.0011914374
0.001189979
0.0011885096
0.0011870277
0.0011855272
0.0011840057
0.0011824647
0.0011809132
0.0011793888
0.001178112
0.0011770333
0.0011761303
0.001175374
0.0011747426
0.0011742235
0.0011738284
0.0011734967
0.0011731184
0.0011726756
0.0011724514
0.001172686
0.0011728066
1.0491711e-07
2.4866075e-06
1.7313921e-06
1.7540913e-06
1.7188121e-06
1.4719964e-06
1.5337455e-06
1.4478951e-06
1.4751186e-06
1.5206622e-06
1.6025909e-06
1.7132921e-06
1.8492649e-06
2.0089404e-06
2.1926034e-06
2.4014234e-06
2.636355e-06
2.9009444e-06
3.1973097e-06
3.5284351e-06
3.8977487e-06
4.309203e-06
4.7673907e-06
5.2777242e-06
5.8466842e-06
6.4821583e-06
7.1938796e-06
7.9939545e-06
8.8872957e-06
9.9089333e-06
1.1075767e-05
1.2417797e-05
1.3972823e-05
1.5788284e-05
1.7923544e-05
2.0536024e-05
2.3576239e-05
2.7223926e-05
3.1623255e-05
3.6951997e-05
4.3429011e-05
5.1323339e-05
6.0967258e-05
7.2769672e-05
8.7234102e-05
0.00010498105
0.00012677392
0.00015489433
0.00018805959
0.00022884049
0.00027901458
0.00034077752
0.0004207896
0.0005152014
0.00063156296
0.00077507544
0.0009612224
0.0011814818
0.0011916176
0.001190101
0.0011885732
0.0011870366
0.0011854851
0.0011839142
0.0011823241
0.0011807448
0.0011793298
0.0011781453
0.0011771454
0.0011763029
0.0011755959
0.0011750192
0.0011745499
0.0011741956
0.0011738902
0.001173535
0.0011731491
0.0011730122
0.0011732939
0.0011733967
1.065276e-07
1.9160445e-06
1.5004671e-06
1.3573023e-06
1.4366896e-06
1.2092261e-06
1.2488701e-06
1.2341215e-06
1.2941023e-06
1.3740506e-06
1.4845715e-06
1.6187675e-06
1.7753093e-06
1.954312e-06
2.1569863e-06
2.3850735e-06
2.6403326e-06
2.9258089e-06
3.2440357e-06
3.5981303e-06
3.9916228e-06
4.4285592e-06
4.9136344e-06
5.4523818e-06
6.0514355e-06
6.7188851e-06
7.4647489e-06
8.3015653e-06
9.2451271e-06
1.0315412e-05
1.1537675e-05
1.2943899e-05
1.4574378e-05
1.6479765e-05
1.8723443e-05
2.1384447e-05
2.4561076e-05
2.8375571e-05
3.2979116e-05
3.8558767e-05
4.534544e-05
5.3623053e-05
6.3738662e-05
7.6122078e-05
9.1301104e-05
0.00011083588
0.00013388094
0.00016218953
0.00019698748
0.00023978889
0.0002924621
0.0003606702
0.00044114972
0.00054032339
0.0006626233
0.0008214577
0.0010092153
0.0011933138
0.0011917263
0.0011901574
0.0011885798
0.0011869945
0.0011853987
0.0011837932
0.0011821855
0.0011806175
0.0011793192
0.0011782159
0.0011772875
0.0011765039
0.0011758446
0.0011753043
0.0011748833
0.0011745611
0.0011742776
0.0011739528
0.0011736328
0.0011735712
0.0011738756
0.0011739629
1.122288e-07
1.4476683e-06
1.313106e-06
1.0676114e-06
1.2822648e-06
9.9097138e-07
1.0555751e-06
1.0928035e-06
1.1797091e-06
1.2873146e-06
1.418864e-06
1.5712732e-06
1.7449131e-06
1.9409085e-06
2.1609659e-06
2.4070908e-06
2.6815668e-06
2.9867597e-06
3.3257743e-06
3.7016963e-06
4.1181313e-06
4.5792109e-06
5.0897344e-06
5.6553668e-06
6.2829122e-06
6.9806821e-06
7.7589926e-06
8.6308407e-06
9.6126495e-06
1.0725286e-05
1.1995154e-05
1.3455782e-05
1.5149442e-05
1.7129305e-05
1.9461916e-05
2.223028e-05
2.553752e-05
2.9511406e-05
3.4309873e-05
4.0127833e-05
4.7527524e-05
5.6231469e-05
6.6867172e-05
7.988552e-05
9.5840528e-05
0.00011541446
0.00013944831
0.00016897909
0.00020528263
0.00025227684
0.00030765636
0.00037583534
0.00045983087
0.00056338906
0.00069790929
0.00085686512
0.0010532799
0.0011934001
0.0011917783
0.0011901686
0.0011885522
0.0011869271
0.0011852903
0.0011836461
0.0011820257
0.0011805697
0.0011793482
0.0011783149
0.0011774459
0.0011767163
0.0011761046
0.0011755974
0.0011752148
0.0011749165
0.0011746494
0.0011743573
0.0011741056
0.0011741082
0.0011744122
0.0011744697
1.2267013e-07
1.1468344e-06
1.1518661e-06
9.2686518e-07
9.3867143e-07
8.6685472e-07
9.285032e-07
1.0078276e-06
1.115544e-06
1.2427146e-06
1.3901365e-06
1.5575848e-06
1.7462689e-06
1.9577116e-06
2.1937706e-06
2.456521e-06
2.748283e-06
3.071642e-06
3.4294946e-06
3.8251029e-06
4.262172e-06
4.7449566e-06
5.2784092e-06
5.8683918e-06
6.5219687e-06
7.2452194e-06
8.0525891e-06
8.9558834e-06
9.981048e-06
1.1135879e-05
1.2454101e-05
1.3970914e-05
1.5730669e-05
1.7789066e-05
2.0215763e-05
2.3097515e-05
2.6542018e-05
3.0682594e-05
3.5683916e-05
4.1749093e-05
4.9128378e-05
5.8129926e-05
6.9132852e-05
8.2601474e-05
9.9109539e-05
0.00011936274
0.00014551433
0.00017630628
0.00021415115
0.00026069753
0.0003179839
0.0003885385
0.00047549807
0.00058830102
0.00072168602
0.00088647642
0.0010902956
0.0011934474
0.0011917945
0.0011901517
0.0011885066
0.0011868565
0.0011851994
0.0011835427
0.0011819313
0.0011805764
0.00117942
0.0011784412
0.0011776147
0.0011769251
0.0011763732
0.0011758832
0.001175531
0.0011752506
0.0011749975
0.0011747409
0.0011745537
0.0011746004
0.0011748799
0.0011749152
1.4418646e-07
1.1851802e-06
9.9182228e-07
7.0729922e-07
7.6686214e-07
7.747999e-07
8.5836431e-07
9.6051002e-07
1.0846783e-06
1.2266446e-06
1.3875453e-06
1.5682971e-06
1.7703994e-06
1.9954894e-06
2.2454532e-06
2.5223931e-06
2.8286616e-06
3.1668926e-06
3.5400436e-06
3.9514491e-06
4.4048935e-06
4.9047139e-06
5.4559486e-06
6.0645484e-06
6.7376779e-06
7.4841268e-06
8.3148554e-06
9.2436929e-06
1.0288222e-05
1.1470833e-05
1.2819988e-05
1.4371807e-05
1.6171857e-05
1.8277381e-05
2.0759935e-05
2.3708599e-05
2.7233884e-05
3.1472469e-05
3.659302e-05
4.2803332e-05
5.0359253e-05
6.0002071e-05
7.1354261e-05
8.5245901e-05
0.00010226782
0.00012314641
0.00014877777
0.00018026799
0.00021898379
0.00026661379
0.00032525418
0.00040117361
0.00049090454
0.0006016134
0.00073835301
0.00090744464
0.0011168014
0.0011934974
0.0011918126
0.001190137
0.0011884627
0.0011867874
0.0011851124
0.0011834566
0.0011819084
0.0011806247
0.0011795274
0.0011785973
0.0011778069
0.0011771452
0.001176595
0.0011761598
0.0011758209
0.0011755546
0.0011753143
0.0011750919
0.0011749578
0.0011750315
0.0011752808
0.0011752987
1.3747941e-07
7.9059824e-07
8.1346005e-07
6.0303456e-07
6.6018539e-07
7.2075102e-07
8.2290299e-07
9.4182724e-07
1.0790738e-06
1.2336437e-06
1.4067781e-06
1.5996784e-06
1.8138736e-06
2.0510669e-06
2.3131842e-06
2.6023845e-06
2.9210881e-06
3.2719654e-06
3.6581127e-06
4.0829247e-06
4.5502708e-06
5.0645743e-06
5.6309616e-06
6.2554755e-06
6.9453817e-06
7.709588e-06
8.5592014e-06
9.5082478e-06
1.0583183e-05
1.1793418e-05
1.3173921e-05
1.4761743e-05
1.660355e-05
1.8757919e-05
2.1298002e-05
2.4314806e-05
2.7921161e-05
3.2256571e-05
3.7493172e-05
4.384303e-05
5.1567099e-05
6.0986154e-05
7.2494232e-05
8.6577417e-05
0.0001038334
0.00012499912
0.00015098384
0.00018451533
0.00022405969
0.00027270163
0.00033258521
0.00040637068
0.00049737006
0.00060971579
0.00074857726
0.00092043845
0.001133435
0.0011936004
0.0011918869
0.0011901804
0.001188476
0.0011867728
0.0011850763
0.0011834193
0.0011819421
0.001180702
0.0011796465
0.0011787506
0.0011779885
0.0011773591
0.0011768268
0.0011764202