/*--------------------------------*- C++ -*----------------------------------*\
  =========                 |
  \\      /  F ield         | OpenFOAM: The Open Source CFD Toolbox
   \\    /   O peration     | Website:  https://openfoam.org
    \\  /    A nd           | Version:  12
     \\/     M anipulation  |
\*---------------------------------------------------------------------------*/
FoamFile
{
    format      ascii;
    class       volScalarField;
    location    "0.146";
    object      k;
}
// * * * * * * * * * * * * * * * * * * * * * * * * * * * * * * * * * * * * * //

dimensions      [0 2 -2 0 0 0 0];

internalField   nonuniform List<scalar> 
16000
(
0.048698562
0.021657891
0.022466739
0.016514808
0.014016636
0.012692701
0.011904599
0.011434143
0.011114679
0.01089983
0.010741378
0.010623416
0.010531375
0.01045852
0.010399916
0.010352487
0.010313724
0.01028199
0.010256156
0.010234799
0.010217335
0.010203121
0.010191704
0.010182541
0.010175433
0.010169985
0.01016603
0.010163399
0.010161949
0.01016155
0.010162079
0.010163435
0.010165536
0.010168315
0.010171711
0.01017567
0.010180132
0.010185041
0.010190338
0.010195963
0.010201849
0.010207923
0.010214114
0.010220351
0.01022656
0.010232667
0.010238613
0.010244346
0.010249819
0.010254986
0.0102598
0.010264218
0.010268198
0.010271704
0.010274704
0.010277167
0.010279056
0.010280317
0.010280885
0.010280673
0.010279576
0.010277473
0.010274253
0.010269789
0.010263933
0.010256537
0.010247479
0.010236692
0.010224149
0.010209789
0.010193309
0.010173822
0.010150803
0.010129006
0.010111865
0.010097402
0.010083775
0.010084017
0.010069434
0.010091791
0.045350341
0.020485581
0.021024781
0.015969466
0.013671498
0.012488055
0.011741738
0.011316565
0.011013627
0.010816013
0.010667866
0.01055867
0.010473048
0.010405675
0.010351554
0.010307994
0.01027258
0.010243704
0.010220481
0.010201447
0.010186081
0.010173764
0.010164134
0.010156599
0.010151037
0.010147036
0.010144436
0.010143075
0.010142816
0.010143538
0.010145123
0.010147466
0.010150486
0.010154112
0.010158287
0.010162953
0.010168054
0.010173534
0.010179334
0.010185397
0.010191661
0.010198052
0.010204501
0.010210943
0.010217305
0.010223515
0.010229512
0.010235248
0.010240678
0.010245762
0.01025046
0.010254733
0.010258545
0.010261866
0.010264666
0.010266921
0.010268597
0.010269649
0.01027001
0.010269601
0.010268319
0.01026605
0.010262686
0.010258105
0.010252161
0.010244705
0.010235617
0.010224836
0.01021233
0.010198032
0.010181694
0.010162545
0.010140021
0.010119203
0.01010291
0.01008885
0.010077018
0.010072553
0.010067012
0.010090035
0.042322488
0.019659299
0.019695212
0.015407663
0.013318979
0.012261448
0.011573236
0.011190085
0.010910391
0.010730977
0.010593998
0.01049401
0.010415287
0.010353689
0.010304352
0.010264887
0.010233054
0.01020723
0.010186783
0.010170223
0.010157099
0.010146797
0.010139068
0.010133259
0.010129326
0.010126851
0.010125679
0.010125654
0.010126647
0.010128541
0.010131223
0.010134589
0.010138556
0.010143054
0.01014802
0.0101534
0.010159136
0.010165174
0.010171454
0.01017792
0.010184513
0.010191164
0.010197805
0.010204372
0.010210798
0.010217014
0.01022296
0.01022859
0.010233864
0.010238747
0.010243206
0.01024721
0.01025073
0.010253739
0.010256213
0.010258132
0.010259467
0.010260175
0.010260196
0.01025945
0.010257842
0.010255265
0.010251617
0.010246784
0.010240626
0.010232994
0.010223766
0.010212883
0.010200317
0.010185974
0.010169629
0.010150647
0.010128518
0.01010888
0.010093518
0.010080357
0.010069298
0.010062984
0.010061525
0.010082032
0.038508364
0.019097347
0.018544934
0.01490418
0.012999873
0.012056266
0.011418968
0.011074494
0.01081563
0.010652719
0.010526413
0.010434937
0.010362798
0.010306666
0.010261902
0.010226348
0.010197972
0.010175089
0.010157333
0.01014318
0.010132251
0.010123913
0.01011805
0.010113937
0.0101116
0.010110624
0.010110854
0.01011214
0.010114356
0.01011739
0.010121133
0.010125482
0.01013035
0.010135665
0.010141363
0.010147388
0.010153684
0.010160194
0.010166862
0.010173632
0.010180448
0.010187246
0.01019396
0.01020053
0.010206895
0.01021299
0.010218757
0.010224153
0.010229144
0.010233702
0.0102378
0.010241416
0.010244526
0.010247109
0.010249148
0.010250623
0.010251509
0.01025177
0.010251346
0.010250163
0.010248131
0.010245153
0.010241135
0.010235972
0.010229529
0.010221658
0.010212229
0.010201179
0.010188482
0.010174023
0.010157576
0.010138684
0.010116833
0.010098407
0.010084041
0.010071842
0.010061182
0.010054123
0.010055802
0.010070203
0.03537555
0.018781179
0.017553558
0.014437524
0.012702803
0.011862329
0.011274316
0.01096555
0.010727179
0.01057973
0.010463888
0.010380535
0.010314839
0.010264017
0.010223738
0.010192006
0.010167044
0.01014706
0.010131967
0.010120203
0.010111467
0.010105089
0.010101088
0.010098689
0.010097933
0.010098456
0.010100086
0.010102678
0.010106107
0.010110265
0.010115044
0.010120341
0.010126068
0.010132148
0.010138518
0.010145117
0.010151889
0.010158781
0.010165735
0.010172699
0.010179621
0.01018644
0.010193096
0.010199534
0.010205699
0.010211532
0.01021698
0.010222004
0.010226575
0.010230673
0.010234279
0.010237378
0.010239954
0.010241993
0.010243478
0.010244394
0.01024472
0.010244422
0.010243445
0.010241719
0.010239162
0.010235686
0.010231207
0.010225629
0.010218824
0.010210642
0.010200942
0.01018965
0.010176741
0.010162089
0.010145434
0.010126548
0.010105111
0.010087932
0.010074611
0.010063356
0.010053059
0.010045909
0.010049252
0.01005858
0.033448399
0.018710988
0.016816362
0.014009811
0.012429438
0.011681936
0.011140629
0.010864607
0.010645948
0.010512744
0.010407048
0.010331357
0.010271894
0.010226187
0.010190267
0.010162242
0.01014063
0.010123494
0.010111025
0.010101629
0.010095078
0.010090681
0.01008851
0.010087885
0.01008866
0.010090676
0.010093697
0.01009758
0.0101022
0.010107448
0.01011322
0.01011941
0.010125929
0.010132697
0.010139647
0.010146718
0.010153854
0.010161003
0.010168112
0.010175129
0.010182007
0.010188694
0.010195137
0.010201284
0.01020709
0.010212504
0.010217479
0.010221981
0.010225989
0.010229488
0.010232468
0.010234922
0.010236843
0.010238219
0.010239039
0.010239289
0.01023895
0.010237991
0.010236363
0.010234001
0.010230831
0.010226774
0.010221757
0.01021569
0.010208455
0.010199898
0.010189867
0.010178266
0.010165068
0.01015015
0.010133202
0.010114209
0.010093428
0.010077528
0.010065285
0.010054951
0.010045105
0.010038111
0.010042173
0.010047881
0.03105478
0.018807527
0.016294629
0.013617682
0.012177558
0.011514417
0.011017673
0.010771514
0.010571834
0.010451694
0.0103558
0.010287374
0.01023395
0.010193207
0.010161556
0.010137163
0.010118869
0.01010457
0.010094706
0.010087687
0.01008332
0.010081039
0.010080599
0.010081987
0.010084099
0.010087601
0.010092002
0.010097154
0.01010293
0.01010922
0.010115921
0.010122927
0.010130145
0.010137493
0.010144903
0.010152312
0.010159668
0.010166919
0.010174017
0.010180918
0.010187578
0.010193955
0.010200005
0.010205684
0.010210956
0.010215781
0.01022012
0.010223945
0.01022724
0.01023
0.010232222
0.010233907
0.010235052
0.010235654
0.010235703
0.010235186
0.010234085
0.010232372
0.010230005
0.010226925
0.010223063
0.010218353
0.010212728
0.010206108
0.010198378
0.010189387
0.010178968
0.010166997
0.010153435
0.010138184
0.010120885
0.01010163
0.010081933
0.010067326
0.01005617
0.010046751
0.010037499
0.010030842
0.010034438
0.010038329
0.028550527
0.018994529
0.015871281
0.013258694
0.011945696
0.011359524
0.010904874
0.01068612
0.010504495
0.010396458
0.010310068
0.010248615
0.010201093
0.010165225
0.010137803
0.010117013
0.010102028
0.0100906
0.010083301
0.010078698
0.010076476
0.010076817
0.01007771
0.01008054
0.010084625
0.010089594
0.010095346
0.010101724
0.010108596
0.010115852
0.010123385
0.010131092
0.010138878
0.010146658
0.010154365
0.010161939
0.010169328
0.010176488
0.010183377
0.010189957
0.010196195
0.010202059
0.010207516
0.010212533
0.010217084
0.010221141
0.010224675
0.010227665
0.010230101
0.010231986
0.010233324
0.010234122
0.010234383
0.010234109
0.010233292
0.010231918
0.010229971
0.010227426
0.010224245
0.010220376
0.01021576
0.010210334
0.010204044
0.010196813
0.010188533
0.010179052
0.010168194
0.010155804
0.010141809
0.010126155
0.010108507
0.01008883
0.010070722
0.010057422
0.010047349
0.010038853
0.010030345
0.01002415
0.010027131
0.010029675
0.026725084
0.019179832
0.01537994
0.012929649
0.011732221
0.01121645
0.010801572
0.010607674
0.010443982
0.010347271
0.010270083
0.010215384
0.010173648
0.010142595
0.010119385
0.010102196
0.010090481
0.010082029
0.010077072
0.010074953
0.010074351
0.010076963
0.010080435
0.010085034
0.010090624
0.010097037
0.010104083
0.01011161
0.010119479
0.010127579
0.010135802
0.010144046
0.010152218
0.010160234
0.010168028
0.010175544
0.010182737
0.01018957
0.010196013
0.010202037
0.010207622
0.010212749
0.010217398
0.010221548
0.010225186
0.010228296
0.010230859
0.010232862
0.010234302
0.010235186
0.010235526
0.010235332
0.010234615
0.010233377
0.010231612
0.010229307
0.010226446
0.010223005
0.010218951
0.010214239
0.010208817
0.010202628
0.010195624
0.010187734
0.010178854
0.010168834
0.010157491
0.010144642
0.010130164
0.010114026
0.010096086
0.01007616
0.010059899
0.010047918
0.01003892
0.010031361
0.010023752
0.010018085
0.010020163
0.010021244
0.025092004
0.019351143
0.014710989
0.012627809
0.011537084
0.011085633
0.010708609
0.010537254
0.010390868
0.010304587
0.010236281
0.010188148
0.010152088
0.010125803
0.010106795
0.010093242
0.010084587
0.010079426
0.010075813
0.010075863
0.010080171
0.010083862
0.010089086
0.010095388
0.010102529
0.010110303
0.01011854
0.010127085
0.010135798
0.01014456
0.010153269
0.010161826
0.01017014
0.010178134
0.010185746
0.010192931
0.010199652
0.010205884
0.010211611
0.010216819
0.010221501
0.010225654
0.010229272
0.010232351
0.010234888
0.010236879
0.010238318
0.010239197
0.010239519
0.010239296
0.010238541
0.010237271
0.010235498
0.010233227
0.010230452
0.010227161
0.010223334
0.010218951
0.010213982
0.010208389
0.010202123
0.010195135
0.01018738
0.010178792
0.01016927
0.01015867
0.010146802
0.010133461
0.010118474
0.010101775
0.010083559
0.010064118
0.010049561
0.010038907
0.010030971
0.010024364
0.010017783
0.010012698
0.010013664
0.010013782
0.023568657
0.019492555
0.014173166
0.012351066
0.011360801
0.01096744
0.010626495
0.010475541
0.010345331
0.010268804
0.010209083
0.010167394
0.010136929
0.010115391
0.010100582
0.010090781
0.010084318
0.010083466
0.010084324
0.010087054
0.010091144
0.010097145
0.010104221
0.010112152
0.010120717
0.010129716
0.010138974
0.010148335
0.010157659
0.010166828
0.010175741
0.01018431
0.010192452
0.010200099
0.010207204
0.010213732
0.010219662
0.010224987
0.010229704
0.01023382
0.010237343
0.010240287
0.010242662
0.010244478
0.010245743
0.010246464
0.010246647
0.010246289
0.010245397
0.010243982
0.010242063
0.010239655
0.010236772
0.01023342
0.010229594
0.01022528
0.010220457
0.010215104
0.010209194
0.010202696
0.010195565
0.010187755
0.010179223
0.010169908
0.010159712
0.010148495
0.010136069
0.010122209
0.010106709
0.010089434
0.010070804
0.010052742
0.010039807
0.010030466
0.010023582
0.010017925
0.01001245
0.010008051
0.010007968
0.010007626
0.022213951
0.019621228
0.01370746
0.012099646
0.011203291
0.01086151
0.010555026
0.010422257
0.010307705
0.010240399
0.010188992
0.010153677
0.010128759
0.010111981
0.010101364
0.010095575
0.010093662
0.010094272
0.010097515
0.010102755
0.010109575
0.010117471
0.010126269
0.010135684
0.010145493
0.010155489
0.010165505
0.010175385
0.010184992
0.010194215
0.010202961
0.010211157
0.010218737
0.010225651
0.010231868
0.010237373
0.010242167
0.01024626
0.010249671
0.010252424
0.010254546
0.010256065
0.010257008
0.010257396
0.010257249
0.010256583
0.01025541
0.010253734
0.010251561
0.010248902
0.010245775
0.010242194
0.010238173
0.010233716
0.01022882
0.010223468
0.010217637
0.010211305
0.010204448
0.010197037
0.010189033
0.01018039
0.010171066
0.010161003
0.010150109
0.01013825
0.010125242
0.01011084
0.010094827
0.010077091
0.010057929
0.01004212
0.010030719
0.010022657
0.01001681
0.010012084
0.010007724
0.010004149
0.010003341
0.010002565
0.02098929
0.019706639
0.013278857
0.011873535
0.011064115
0.010767857
0.010494336
0.010377983
0.01027834
0.0102199
0.010176589
0.010147639
0.010128263
0.010116285
0.010109909
0.010107813
0.010109063
0.010113077
0.010119106
0.010126728
0.010135554
0.010145282
0.0101556
0.010166247
0.010176997
0.010187648
0.010198036
0.010208015
0.010217462
0.010226279
0.010234392
0.010241749
0.010248311
0.010254055
0.010258972
0.010263074
0.010266384
0.010268933
0.01027076
0.010271909
0.010272421
0.010272339
0.010271702
0.010270541
0.010268885
0.010266755
0.010264166
0.010261127
0.010257642
0.01025372
0.010249372
0.010244612
0.01023945
0.010233889
0.010227925
0.010221541
0.01021471
0.010207408
0.010199611
0.010191294
0.010182421
0.010172947
0.010162827
0.010152007
0.0101404
0.010127879
0.010114274
0.010099328
0.010082786
0.010064794
0.010046223
0.010032297
0.010022362
0.010015522
0.010010696
0.010006868
0.010003561
0.010000944
0.0099998205
0.0099984848
0.01988708
0.019711402
0.01289054
0.011670712
0.010942513
0.01068652
0.010444542
0.010343067
0.010257712
0.010207963
0.010172612
0.010150064
0.010136265
0.010129141
0.010127057
0.0101288
0.010133476
0.010140394
0.010149026
0.010158905
0.010169641
0.010180897
0.010192391
0.010203865
0.010215102
0.010225909
0.010236136
0.010245658
0.010254379
0.010262227
0.010269159
0.010275154
0.010280207
0.010284328
0.010287539
0.010289875
0.010291385
0.010292121
0.010292138
0.010291495
0.010290246
0.010288444
0.010286136
0.010283359
0.010280145
0.01027652
0.010272499
0.010268092
0.010263301
0.010258127
0.010252577
0.010246658
0.010240378
0.010233737
0.010226728
0.010219334
0.010211529
0.010203282
0.010194568
0.010185365
0.010175639
0.010165346
0.010154438
0.010142861
0.010130537
0.010117346
0.010103128
0.010087662
0.010070646
0.010052328
0.010035582
0.010023368
0.010014783
0.010009083
0.010005259
0.010002299
0.0099999164
0.0099983404
0.0099975503
0.0099958658
0.018893956
0.019484126
0.012540021
0.011490148
0.010838286
0.01061773
0.010405956
0.010318181
0.01024655
0.010205495
0.01017803
0.010161958
0.010153791
0.010151569
0.010153783
0.010159292
0.010167247
0.010177004
0.01018801
0.010199815
0.010212038
0.010224352
0.010236482
0.010248183
0.010259259
0.010269546
0.010278924
0.010287306
0.010294635
0.010300884
0.010306049
0.010310148
0.010313215
0.010315296
0.010316442
0.010316715
0.010316181
0.010314907
0.010312964
0.010310417
0.010307329
0.010303756
0.010299748
0.010295345
0.01029058
0.010285476
0.010280049
0.010274306
0.010268245
0.010261863
0.010255156
0.010248125
0.010240771
0.010233092
0.01022508
0.010216717
0.010207975
0.010198821
0.010189227
0.010179168
0.010168614
0.010157525
0.010145846
0.010133521
0.010120486
0.01010663
0.01009179
0.010075806
0.010058543
0.010040328
0.010026012
0.010015376
0.01000802
0.010003358
0.010000498
0.0099983932
0.0099967772
0.0099961692
0.0099962593
0.0099944442
0.017994943
0.018614406
0.012224762
0.011331136
0.010751697
0.010561907
0.010379138
0.010304296
0.010245933
0.010213681
0.010194084
0.010184554
0.010182038
0.010184692
0.010191111
0.01020022
0.010211198
0.010223409
0.010236326
0.0102495
0.010262563
0.010275206
0.01028718
0.01029828
0.010308352
0.010317283
0.010325004
0.010331482
0.010336719
0.010340737
0.010343579
0.010345306
0.010345989
0.010345703
0.010344526
0.010342536
0.010339813
0.010336434
0.010332471
0.010327995
0.010323067
0.010317742
0.010312069
0.010306086
0.010299823
0.010293301
0.010286531
0.010279517
0.010272252
0.010264727
0.010256931
0.010248854
0.01024049
0.010231833
0.010222872
0.010213592
0.010203963
0.010193951
0.010183522
0.010172647
0.010161298
0.010149441
0.010137019
0.01012397
0.010110236
0.010095732
0.010080291
0.010063768
0.010046402
0.010029848
0.010017471
0.010008335
0.010002097
0.0099983591
0.0099963921
0.0099951287
0.0099941588
0.0099942815
0.0099953023
0.0099941381
0.017182404
0.017255806
0.01194701
0.011193437
0.010681834
0.010519995
0.010365156
0.010302842
0.010257321
0.010234003
0.010222233
0.010219231
0.010222274
0.010229626
0.010239965
0.010252264
0.010265727
0.010279732
0.010293769
0.010307418
0.010320348
0.010332297
0.010343075
0.010352545
0.010360624
0.010367276
0.0103725
0.010376333
0.010378834
0.010380079
0.010380157
0.010379163
0.010377195
0.01037435
0.010370722
0.010366396
0.010361456
0.010355979
0.010350034
0.010343687
0.010336993
0.010330002
0.010322756
0.010315287
0.010307621
0.010299774
0.010291753
0.010283556
0.010275173
0.01026659
0.010257786
0.010248744
0.010239448
0.010229885
0.010220044
0.010209906
0.010199446
0.01018863
0.010177418
0.010165775
0.010153672
0.01014108
0.010127951
0.010114214
0.010099804
0.010084663
0.010068684
0.010051761
0.010034389
0.01002057
0.010009967
0.010002222
0.0099970182
0.009994102
0.0099929089
0.0099924227
0.0099920657
0.0099927851
0.0099947364
0.0099951474
0.016452214
0.016400153
0.01171268
0.011077463
0.010629611
0.010493399
0.010365518
0.01031551
0.010282419
0.010268104
0.01026404
0.010267397
0.010275699
0.010287299
0.010300936
0.010315631
0.010330616
0.010345309
0.010359256
0.010372104
0.010383603
0.010393585
0.010401954
0.010408675
0.01041376
0.010417258
0.010419247
0.010419827
0.010419112
0.010417222
0.010414275
0.010410388
0.010405674
0.010400237
0.010394172
0.010387565
0.010380492
0.010373022
0.010365216
0.010357128
0.010348805
0.010340284
0.0103316
0.010322777
0.010313834
0.01030478
0.010295619
0.010286344
0.010276943
0.010267395
0.010257674
0.010247755
0.010237612
0.010227226
0.010216578
0.01020565
0.01019442
0.010182855
0.010170916
0.010158559
0.010145751
0.010132465
0.010118666
0.010104288
0.010089249
0.010073487
0.010056994
0.010039981
0.010024228
0.010012388
0.010003442
0.0099969869
0.0099927605
0.0099905884
0.0099900265
0.0099901817
0.0099904305
0.0099917313
0.0099944868
0.0099963292
0.015796412
0.015400584
0.011512678
0.010983746
0.010595982
0.010483829
0.010381882
0.010344224
0.01032316
0.010317782
0.010321109
0.010330339
0.010343184
0.010358076
0.01037383
0.01038954
0.010404522
0.010418293
0.010430519
0.010440977
0.010449552
0.010456206
0.01046097
0.010463921
0.010465169
0.010464845
0.010463091
0.010460057
0.010455889
0.010450731
0.010444713
0.010437957
0.010430573
0.010422661
0.010414306
0.010405582
0.010396553
0.010387274
0.010377792
0.010368147
0.010358372
0.010348495
0.010338537
0.010328514
0.010318437
0.010308309
0.01029813
0.01028789
0.010277574
0.010267157
0.010256611
0.010245904
0.010235004
0.010223879
0.010212506
0.01020086
0.010188922
0.010176664
0.010164051
0.010151039
0.010137583
0.010123653
0.010109222
0.010094248
0.010078648
0.010062349
0.01004546
0.010028644
0.010015455
0.010005322
0.0099978324
0.0099925577
0.0099892604
0.0099877821
0.0099877297
0.0099883616
0.0099891799
0.0099910426
0.0099943754
0.0099975972
0.015209427
0.014726448
0.011349512
0.010913009
0.010581992
0.010493509
0.01041646
0.010391363
0.010381795
0.010384897
0.010394775
0.01040872
0.010424632
0.01044107
0.010456991
0.010471659
0.010484569
0.010495419
0.01050407
0.010510481
0.010514702
0.010516842
0.010517054
0.010515513
0.010512407
0.010507922
0.010502236
0.010495519
0.010487929
0.010479607
0.010470677
0.010461249
0.010451419
0.010441268
0.010430865
0.010420268
0.010409524
0.010398669
0.010387735
0.010376747
0.010365723
0.010354679
0.010343625
0.010332567
0.010321508
0.010310446
0.010299375
0.010288283
0.010277153
0.010265962
0.010254678
0.010243267
0.01023169
0.010219911
0.010207894
0.010195609
0.010183032
0.010170138
0.010156902
0.010143287
0.010129249
0.010114739
0.010099725
0.010084188
0.010068092
0.010051377
0.010034337
0.010019344
0.01000794
0.0099993301
0.0099930894
0.0099888605
0.009986423
0.0099855933
0.0099859704
0.0099869393
0.0099882396
0.009990696
0.0099943628
0.0099981381
0.014685685
0.013976348
0.01121983
0.010867912
0.010589456
0.010525812
0.01047233
0.010459663
0.010460428
0.010470602
0.010485136
0.01050154
0.010517994
0.010533316
0.010546748
0.010557837
0.010566358
0.010572261
0.010575632
0.010576622
0.010575436
0.010572304
0.010567463
0.010561149
0.010553583
0.010544968
0.010535488
0.010525303
0.010514556
0.010503367
0.010491841
0.010480064
0.010468108
0.010456031
0.010443883
0.0104317
0.01041951
0.010407334
0.010395187
0.010383079
0.010371015
0.010358997
0.010347026
0.010335098
0.010323209
0.01031135
0.010299512
0.01028768
0.010275836
0.010263957
0.010252014
0.010239972
0.010227791
0.010215431
0.010202848
0.010190003
0.010176862
0.010163399
0.010149592
0.010135421
0.010120854
0.010105841
0.010090321
0.010074265
0.01005772
0.010040868
0.010024311
0.010011556
0.010001685
0.0099943593
0.0099891729
0.0099858329
0.0099841463
0.0099838924
0.0099846353
0.0099858472
0.0099875001
0.009990465
0.009994483
0.009998528
0.014224983
0.013398418
0.011128378
0.010853224
0.010622228
0.010584824
0.010552613
0.010550965
0.010559497
0.010573776
0.010589631
0.010604999
0.010618534
0.01062949
0.010637519
0.010642536
0.010644634
0.010644016
0.010640959
0.010635761
0.010628724
0.010620137
0.010610267
0.010599356
0.010587616
0.010575231
0.010562358
0.010549129
0.010535653
0.010522021
0.010508307
0.010494569
0.010480854
0.010467196
0.010453621
0.010440147
0.010426785
0.010413541
0.010400414
0.010387401
0.010374496
0.01036169
0.010348973
0.010336335
0.010323762
0.01031124
0.010298756
0.010286293
0.010273831
0.010261347
0.010248816
0.010236206
0.010223479
0.010210595
0.010197509
0.010184175
0.010170551
0.010156599
0.010142292
0.010127614
0.010112554
0.010097089
0.010081168
0.010064713
0.010047727
0.010030713
0.010016271
0.010005087
0.0099965789
0.0099903394
0.0099860344
0.0099834256
0.0099823499
0.0099825645
0.0099836186
0.009985059
0.0099870192
0.0099903582
0.0099946719
0.0099988283
0.013832831
0.012938987
0.011077618
0.010874082
0.010706328
0.010673587
0.010658351
0.010664028
0.010675781
0.0106895
0.010702106
0.010712211
0.010719121
0.010722631
0.010722832
0.010719986
0.01071444
0.01070657
0.010696756
0.010685352
0.010672677
0.010659012
0.010644597
0.010629634
0.010614293
0.010598714
0.01058301
0.010567274
0.010551576
0.010535973
0.010520508
0.01050521
0.010490102
0.010475197
0.010460501
0.010446016
0.010431736
0.010417655
0.010403761
0.010390039
0.010376475
0.01036305
0.010349746
0.010336544
0.010323424
0.010310369
0.010297357
0.010284369
0.010271384
0.01025838
0.010245331
0.01023221
0.010218985
0.010205619
0.010192072
0.010178299
0.010164255
0.010149897
0.010135183
0.010120084
0.010104582
0.010088673
0.010072371
0.010055703
0.010038782
0.01002224
0.010009679
0.0099998485
0.009992475
0.0099871543
0.0099835897
0.00998158
0.0099809768
0.0099815328
0.009982824
0.009984491
0.0099867619
0.0099903728
0.0099948654
0.0099989536
0.013518524
0.012569965
0.011071652
0.010930292
0.010809724
0.01079133
0.010785772
0.010792566
0.010801317
0.010808889
0.010813449
0.010814425
0.01081179
0.010805819
0.010796932
0.010785598
0.010772275
0.010757386
0.010741301
0.010724339
0.010706765
0.010688798
0.010670614
0.010652352
0.010634126
0.01061602
0.010598101
0.010580419
0.010563008
0.010545894
0.01052909
0.010512604
0.010496437
0.010480584
0.010465038
0.010449784
0.010434808
0.010420091
0.010405614
0.010391354
0.010377287
0.01036339
0.010349638
0.010336005
0.010322466
0.010308997
0.010295572
0.010282168
0.010268761
0.010255325
0.010241838
0.010228271
0.010214597
0.010200786
0.010186804
0.010172616
0.010158182
0.010143465
0.010128423
0.010113015
0.010097198
0.010080936
0.010064217
0.010047136
0.010030203
0.01001567
0.010004372
0.0099956864
0.009989232
0.0099846661
0.0099817162
0.0099802
0.0099799637
0.0099807591
0.009982218
0.0099840834
0.0099866355
0.0099904437
0.0099950263
0.0099990642
0.013299107
0.012302917
0.0111133
0.011028514
0.010943622
0.01092941
0.010924631
0.010925149
0.010924515
0.010920976
0.010913892
0.010903403
0.010889945
0.010874049
0.010856246
0.010837018
0.010816778
0.010795872
0.010774579
0.010753119
0.010731667
0.010710355
0.010689284
0.010668528
0.010648139
0.010628155
0.010608599
0.010589485
0.010570818
0.010552596
0.010534812
0.010517456
0.010500512
0.010483963
0.010467789
0.010451968
0.010436476
0.010421288
0.010406378
0.010391717
0.010377277
0.01036303
0.010348946
0.010334995
0.010321148
0.010307375
0.010293647
0.010279935
0.010266211
0.010252447
0.010238614
0.010224687
0.010210638
0.010196438
0.010182061
0.010167477
0.010152659
0.010137581
0.010122213
0.01010653
0.010090498
0.010074083
0.010057273
0.010040179
0.010023496
0.010010511
0.010000264
0.0099924769
0.0099867509
0.0099827764
0.0099803067
0.0099791735
0.0099792186
0.0099801867
0.0099817743
0.0099838139
0.009986593
0.0099905438
0.0099952037
0.009999146
0.013172879
0.01213668
0.011209325
0.011157493
0.011092462
0.011074266
0.011060467
0.011048008
0.011033309
0.011015893
0.010995901
0.010973809
0.010950157
0.010925442
0.010900086
0.01087443
0.01084874
0.010823218
0.010798015
0.010773239
0.010748968
0.010725253
0.010702125
0.010679602
0.01065769
0.010636386
0.010615682
0.010595563
0.010576012
0.010557009
0.010538531
0.010520555
0.010503055
0.010486004
0.010469374
0.010453138
0.010437267
0.01042173
0.010406497
0.010391538
0.010376821
0.010362315
0.010347987
0.010333806
0.010319739
0.010305753
0.010291816
0.010277895
0.010263958
0.010249972
0.010235905
0.010221728
0.010207409
0.010192918
0.010178229
0.010163316
0.010148153
0.010132721
0.010117003
0.010100985
0.010084652
0.010067997
0.010051058
0.010034116
0.010018551
0.010006602
0.0099972125
0.0099901263
0.0099849707
0.0099814505
0.0099793323
0.009978453
0.0099786657
0.0099797593
0.0099814273
0.0099836081
0.0099865252
0.0099904475
0.0099949641
0.0099988685
0.01310923
0.012066088
0.011369247
0.011300681
0.011239667
0.01120705
0.01117735
0.011148384
0.011118463
0.011087609
0.011056098
0.011024301
0.01099255
0.010961112
0.010930188
0.010899919
0.0108704
0.010841691
0.010813824
0.010786813
0.010760656
0.01073534
0.010710847
0.010687153
0.010664229
0.010642045
0.010620571
0.010599774
0.010579621
0.010560081
0.010541121
0.010522708
0.010504809
0.010487394
0.01047043
0.010453884
0.010437726
0.010421922
0.01040644
0.010391249
0.010376315
0.010361606
0.010347089
0.010332732
0.0103185
0.010304361
0.01029028
0.010276223
0.010262154
0.010248039
0.010233843
0.010219531
0.010205068
0.010190422
0.01017556
0.010160453
0.010145073
0.010129397
0.010113407
0.010097093
0.010080453
0.010063506
0.010046362
0.010029511
0.010015085
0.010003846
0.0099951027
0.009988538
0.0099838128
0.0099806432
0.0099788029
0.0099781249
0.0099782762
0.0099795311
0.0099812187
0.0099834913
0.0099864634
0.0099902798
0.009994612
0.0099985485
0.013120237
0.012026402
0.011524455
0.011434146
0.011361357
0.011310133
0.011263186
0.011219072
0.011176498
0.011135285
0.011095384
0.01105682
0.011019613
0.010983769
0.01094927
0.010916088
0.010884182
0.010853505
0.010824005
0.010795629
0.010768323
0.010742034
0.010716708
0.010692296
0.010668749
0.010646019
0.01062406
0.010602831
0.01058229
0.010562395
0.010543111
0.010524398
0.010506221
0.010488545
0.010471335
0.010454557
0.010438178
0.010422164
0.010406483
0.010391103
0.01037599
0.010361113
0.010346438
0.010331933
0.010317565
0.0103033
0.010289106
0.010274948
0.010260792
0.010246602
0.010232342
0.010217978
0.010203474
0.010188794
0.010173904
0.01015877
0.010143361
0.010127646
0.010111599
0.010095198
0.010078431
0.010061316
0.010043987
0.010027069
0.010013217
0.010002366
0.0099939719
0.0099876946
0.009983209
0.0099802435
0.0099785802
0.0099780406
0.0099780568
0.0099795318
0.0099812401
0.0099836056
0.0099865996
0.0099902719
0.0099943715
0.0099983031
0.013214254
0.012052647
0.011641207
0.011531071
0.011442746
0.011375481
0.01131555
0.011261051
0.011210349
0.011162791
0.011117933
0.011075479
0.011035202
0.010996915
0.010960459
0.010925696
0.010892503
0.010860768
0.010830393
0.010801285
0.010773362
0.010746547
0.01072077
0.010695965
0.010672073
0.010649035
0.010626801
0.010605321
0.010584547
0.010564438
0.010544951
0.010526046
0.010507685
0.010489831
0.010472449
0.010455504
0.010438961
0.010422788
0.010406951
0.010391417
0.010376154
0.010361131
0.010346314
0.010331673
0.010317175
0.010302788
0.010288479
0.010274215
0.010259963
0.01024569
0.01023136
0.010216941
0.010202398
0.010187701
0.010172816
0.010157714
0.010142365
0.010126743
0.010110823
0.010094588
0.010078028
0.010061158
0.010044096
0.010027381
0.010013322
0.010002412
0.0099939754
0.0099876836
0.0099831963
0.0099802363
0.0099785732
0.0099780258
0.0099779972
0.0099795592
0.0099812976
0.0099837343
0.0099867398
0.0099902924
0.0099942048
0.0099981396
0.013339964
0.01210926
0.011702614
0.011579941
0.011481382
0.011405733
0.011339679
0.011280656
0.011226604
0.011176536
0.011129777
0.011085867
0.011044459
0.011005284
0.01096812
0.010932785
0.010899122
0.010866996
0.010836287
0.010806891
0.010778715
0.010751672
0.010725688
0.010700691
0.010676617
0.010653408
0.010631007
0.010609365
0.010588433
0.010568166
0.010548522
0.01052946
0.010510942
0.01049293
0.01047539
0.010458284
0.010441581
0.010425245
0.010409244
0.010393546
0.010378118
0.010362929
0.010347946
0.010333138
0.010318474
0.01030392
0.010289445
0.010275016
0.0102606
0.010246162
0.010231669
0.010217088
0.010202385
0.010187527
0.010172484
0.010157226
0.010141725
0.010125953
0.010109888
0.010093512
0.010076819
0.01005983
0.010042687
0.010026029
0.010012553
0.010001935
0.0099937294
0.0099875855
0.0099831892
0.0099802736
0.0099786195
0.0099780587
0.0099781676
0.009979517
0.0099813293
0.0099837829
0.0099867844
0.0099902647
0.0099940824
0.009998046
67.022954
364.5364
122.67908
14.80428
0.40899397
0.021527846
0.020188339
0.019875621
0.019599902
0.018535974
0.017192654
0.016004698
0.015102256
0.014527398
0.014119606
0.01373277
0.013355227
0.013020907
0.012741048
0.012507288
0.012308627
0.012137253
0.011987996
0.011857087
0.011741513
0.011638783
0.011546889
0.01146423
0.011389553
0.01132187
0.01126036
0.01120431
0.011153095
0.011106192
0.011063185
0.011023741
0.010987575
0.010954433
0.010924082
0.010896312
0.010870936
0.010847776
0.010826648
0.010807383
0.010789817
0.010773788
0.010759135
0.010745705
0.010733366
0.010722002
0.010711498
0.010701739
0.010692609