/*--------------------------------*- C++ -*----------------------------------*\
  =========                 |
  \\      /  F ield         | OpenFOAM: The Open Source CFD Toolbox
   \\    /   O peration     | Website:  https://openfoam.org
    \\  /    A nd           | Version:  12
     \\/     M anipulation  |
\*---------------------------------------------------------------------------*/
FoamFile
{
    format      ascii;
    class       volScalarField;
    location    "0.146";
    object      Ma;
}
// * * * * * * * * * * * * * * * * * * * * * * * * * * * * * * * * * * * * * //

dimensions      [];

internalField   nonuniform List<scalar> 
16000
(
0.62666373
0.74436901
0.6996584
0.7240246
0.70901538
0.71592055
0.71022956
0.71173612
0.70909252
0.70864264
0.7070187
0.70588051
0.70446365
0.7030804
0.70161481
0.70010261
0.69853257
0.69690628
0.69522252
0.69348082
0.69168081
0.68982233
0.68790548
0.68593066
0.68389855
0.68181019
0.67966695
0.6774706
0.67522333
0.67292772
0.67058677
0.66820394
0.66578308
0.66332849
0.66084482
0.65833714
0.65581082
0.65327151
0.65072512
0.64817772
0.64563547
0.64310459
0.64059125
0.63810151
0.63564122
0.63321601
0.63083117
0.62849159
0.62620175
0.62396565
0.62178676
0.61966803
0.61761185
0.61562002
0.61369378
0.61183374
0.61003996
0.60831192
0.60664854
0.60504814
0.60350845
0.60202693
0.60060071
0.59922617
0.59789882
0.59661315
0.59536269
0.59414049
0.59293959
0.59175318
0.59057396
0.58939316
0.5882011
0.58699033
0.58575883
0.58451097
0.58316265
0.58215757
0.57998437
0.58001542
0.63117904
0.74961305
0.70294763
0.72871168
0.71287914
0.72024312
0.71410698
0.71572926
0.71290319
0.71237969
0.71066754
0.70941288
0.7079039
0.70640581
0.70483099
0.70320162
0.70151187
0.69976161
0.69795025
0.69607735
0.69414279
0.69214669
0.69008949
0.68797196
0.68579526
0.6835609
0.68127084
0.67892744
0.67653354
0.67409242
0.67160782
0.66908393
0.66652541
0.66393732
0.66132511
0.65869458
0.65605183
0.65340319
0.65075516
0.64811432
0.64548728
0.64288055
0.6403005
0.63775326
0.63524466
0.63278013
0.63036465
0.62800274
0.62569837
0.62345494
0.62127528
0.61916164
0.61711567
0.61513843
0.61323044
0.61139159
0.60962126
0.60791829
0.60628103
0.6047073
0.60319439
0.60173933
0.60033894
0.59898944
0.59768625
0.59642382
0.5951956
0.59399443
0.59281307
0.59164452
0.59048139
0.58931493
0.5881353
0.58693492
0.5857099
0.58445299
0.58317981
0.58195517
0.58023278
0.57970405
0.63540056
0.75443122
0.70656924
0.73279614
0.71650638
0.72397382
0.71767844
0.7191902
0.71630871
0.71562857
0.713848
0.71245538
0.71084183
0.70921669
0.70751705
0.70575637
0.70393137
0.70204166
0.70008693
0.69806705
0.69598224
0.69383303
0.69162032
0.6893454
0.68700997
0.68461619
0.68216669
0.67966459
0.6771135
0.67451755
0.67188136
0.66921004
0.66650918
0.66378474
0.66104309
0.65829091
0.65553509
0.6527827
0.65004086
0.64731667
0.64461711
0.64194894
0.63931862
0.6367322
0.63419529
0.63171297
0.62928971
0.62692941
0.62463531
0.62241001
0.62025547
0.61817302
0.6161634
0.61422675
0.61236267
0.6105702
0.60884792
0.60719391
0.60560584
0.60408099
0.60261611
0.6012078
0.59985252
0.59854627
0.59728435
0.59606118
0.59487017
0.59370405
0.59255543
0.59141714
0.59028179
0.58914082
0.58798456
0.58680474
0.58559584
0.58435652
0.58310929
0.58180854
0.58029326
0.57949842
0.6392552
0.75882671
0.70964564
0.7363732
0.71967512
0.72724964
0.72078979
0.72217108
0.71922607
0.71836964
0.71650642
0.7149597
0.71322355
0.71145516
0.70961315
0.70770428
0.70572725
0.70368166
0.70156753
0.69938513
0.69713506
0.69481834
0.69243639
0.6899911
0.68748487
0.6849206
0.68230175
0.67963236
0.67691701
0.67416086
0.67136957
0.66854936
0.66570686
0.66284912
0.6599835
0.65711759
0.65425914
0.65141591
0.64859559
0.64580567
0.64305336
0.64034547
0.63768832
0.63508765
0.63254858
0.63007555
0.62767227
0.62534172
0.62308618
0.6209072
0.61880565
0.61678177
0.61483519
0.612965
0.6111698
0.6094477
0.60779639
0.60621319
0.60469509
0.60323875
0.60184045
0.60049637
0.59920263
0.59795503
0.5967488
0.59557836
0.59443716
0.59331789
0.59221302
0.59111526
0.59001729
0.58891082
0.58778631
0.58663464
0.58545025
0.58423723
0.58300563
0.58169376
0.58030935
0.57932939
0.64273591
0.76273887
0.71245078
0.73931953
0.72223393
0.72996566
0.72338817
0.72457952
0.72158852
0.72052114
0.71856424
0.71684547
0.714968
0.71304055
0.71103904
0.70896579
0.70682055
0.70460309
0.70231372
0.69995306
0.69752223
0.69502278
0.69245685
0.6898271
0.68713682
0.68438992
0.68159096
0.67874513
0.67585826
0.67293676
0.66998762
0.66701831
0.66403672
0.66105107
0.65806981
0.65510148
0.65215461
0.64923758
0.64635848
0.64352502
0.6407444
0.63802317
0.63536722
0.63278165
0.63027076
0.62783801
0.62548601
0.62321656
0.62103068
0.61892862
0.61690996
0.61497367
0.61311815
0.61134133
0.60964072
0.60801346
0.60645635
0.60496594
0.60353853
0.60217023
0.60085688
0.59959428
0.59837825
0.59720445
0.59606806
0.59496358
0.59388457
0.59282376
0.59177358
0.59072666
0.5896758
0.58861307
0.587529
0.58641397
0.58526349
0.58408352
0.58287226
0.58157938
0.58027531
0.57918414
0.64579059
0.76608373
0.71480808
0.74181021
0.72444846
0.73203947
0.72533338
0.72633515
0.72330224
0.72200924
0.71994643
0.71804467
0.71600987
0.71391035
0.71173399
0.70948076
0.70715084
0.70474439
0.70226216
0.69970539
0.69707593
0.69437623
0.69160941
0.68877927
0.68589036
0.68294793
0.67995798
0.6769272
0.67386294
0.67077317
0.66766641
0.66455157
0.66143794
0.65833495
0.65525212
0.65219886
0.64918433
0.64621731
0.64330602
0.64045804
0.63768017
0.63497835
0.63235758
0.62982191
0.62737442
0.62501721
0.62275144
0.62057741
0.61849459
0.61650173
0.61459696
0.61277783
0.61104144
0.60938451
0.60780345
0.60629445
0.60485347
0.60347633
0.60215875
0.60089634
0.59968458
0.59851898
0.59739515
0.59630865
0.59525473
0.59422799
0.5932222
0.59223024
0.59124457
0.59025781
0.58926293
0.58825235
0.58721671
0.58614639
0.58503806
0.58389686
0.58271419
0.5814584
0.58021746
0.57904325
0.64839001
0.76884297
0.71671247
0.74380683
0.72619754
0.73345262
0.72677908
0.72740436
0.72438404
0.72281333
0.72063021
0.71853436
0.71632232
0.71403222
0.7116596
0.70920395
0.70666599
0.70404668
0.70134762
0.69857107
0.69572001
0.69279818
0.6898101
0.68676112
0.68365743
0.68050602
0.67731468
0.67409194
0.67084699
0.66758958
0.66432993
0.66107853
0.65784604
0.65464309
0.65148008
0.64836708
0.64531355
0.64232829
0.6394192
0.63659326
0.63385635
0.63121327
0.62866763
0.62622194
0.62387759
0.62163491
0.61949327
0.61745116
0.61550631
0.61365579
0.61189613
0.61022346
0.60863355
0.60712195
0.60568405
0.60431514
0.60301047
0.60176525
0.60057472
0.59943412
0.59833869
0.59728375
0.59626482
0.59527746
0.59431701
0.59337832
0.59245542
0.59154146
0.59062901
0.58971076
0.5887799
0.58782918
0.58684943
0.58583154
0.58477294
0.58367603
0.58252974
0.58132388
0.58013906
0.57890191
0.65057609
0.7710474
0.71820698
0.74533813
0.72753787
0.73442904
0.72773295
0.72822759
0.7248041
0.72295546
0.72061634
0.71830016
0.71587654
0.71336402
0.71076234
0.70807166
0.70529351
0.70242991
0.69948368
0.69645844
0.69335869
0.69018986
0.68695831
0.68367137
0.68033728
0.67696518
0.67356503
0.67014753
0.66672394
0.66330599
0.65990566
0.65653499
0.6532059
0.64992992
0.64671805
0.64358051
0.64052659
0.63756448
0.63470118
0.63194236
0.62929238
0.62675422
0.62432955
0.62201879
0.61982116
0.61773486
0.61575715
0.61388451
0.61211277
0.61043726
0.60885294
0.60735452
0.60593656
0.60459354
0.60331998
0.60211047
0.60095966
0.59986235
0.59881345
0.59780801
0.59684114
0.59590813
0.59500453
0.59412599
0.59326804
0.59242585
0.59159381
0.59076542
0.58993349
0.58909087
0.58823095
0.58734676
0.58642955
0.58547115
0.58446899
0.58342146
0.58231893
0.58117357
0.58004268
0.57875571
0.65241565
0.77272475
0.71924867
0.74640187
0.72822219
0.73446493
0.72786164
0.72756293
0.72451567
0.72238196
0.71983767
0.71726512
0.71458791
0.71181372
0.70894405
0.70598029
0.70292501
0.69978164
0.69655461
0.69324936
0.68987241
0.68643138
0.68293502
0.67939313
0.67581652
0.67221691
0.66860682
0.66499938
0.6614081
0.65784671
0.65432886
0.6508679
0.64747662
0.644167
0.64094997
0.63783525
0.63483114
0.63194445
0.62918038
0.62654255
0.62403298
0.62165215
0.61939917
0.61727186
0.6152669
0.61338005
0.61160628
0.60993998
0.60837507
0.60690522
0.60552394
0.60422469
0.603001
0.60184653
0.60075515
0.59972093
0.59873819
0.5978015
0.59690565
0.59604567
0.59521672
0.5944142
0.59363381
0.59287139
0.59212275
0.59138345
0.59064835
0.58991138
0.58916569
0.5884044
0.58762108
0.58680894
0.58595999
0.58506731
0.58412732
0.58313374
0.58208236
0.58100647
0.57992747
0.57860291
0.65390682
0.77384845
0.71976361
0.74679868
0.7281839
0.73395959
0.72738968
0.72670536
0.7234577
0.72097251
0.71817341
0.71530702
0.71233291
0.70925473
0.70607503
0.70279699
0.69942483
0.69596398
0.69242111
0.68880413
0.68512231
0.68138614
0.67760741
0.67379902
0.66997491
0.66614982
0.66233912
0.65855848
0.65482368
0.65115021
0.64755304
0.64404627
0.64064284
0.63735432
0.63419064
0.63115995
0.62826855
0.62552077
0.62291905
0.620464
0.61815451
0.61598792
0.61396022
0.61206626
0.61029996
0.60865452
0.60712265
0.60569673
0.60436897
0.60313158
0.60197689
0.60089742
0.59988596
0.59893565
0.59803997
0.59719279
0.59638832
0.59562114
0.59488614
0.5941785
0.59349362
0.59282714
0.59217503
0.59153344
0.59089855
0.59026634
0.5896322
0.58899059
0.58833516
0.58765934
0.58695681
0.58622099
0.58544494
0.58462315
0.58374991
0.58281425
0.58182088
0.58082083
0.5797921
0.57844405
0.65498774
0.77431644
0.71967486
0.74566563
0.72737196
0.73260551
0.72612883
0.72485053
0.72147122
0.71861
0.71549874
0.71229293
0.70897287
0.70554253
0.70200581
0.69836817
0.69463632
0.69081846
0.68692438
0.68296536
0.67895428
0.6749054
0.6708343
0.66675767
0.66269303
0.65865844
0.65467218
0.6507524
0.6469167
0.64318177
0.63956304
0.63607433
0.63272759
0.62953263
0.62649703
0.62362602
0.62092252
0.61838721
0.61601871
0.61381373
0.61176734
0.60987326
0.60812409
0.60651157
0.60502689
0.60366086
0.60240415
0.60124746
0.60018165
0.59919787
0.59828766
0.59744298
0.59665627
0.59592048
0.59522904
0.59457589
0.59395543
0.59336248
0.59279222
0.59224018
0.59170214
0.59117413
0.5906525
0.59013378
0.58961458
0.58909137
0.58856012
0.5880159
0.58745294
0.58686506
0.586246
0.58558942
0.58488976
0.58414273
0.58333951
0.58246537
0.58153635
0.58061526
0.5796338
0.57827971
0.65556812
0.77396329
0.71886992
0.74386504
0.72594063
0.73033234
0.72393169
0.72204645
0.71843459
0.71515695
0.71166972
0.70806959
0.70434756
0.70051028
0.69656391
0.69251714
0.68838021
0.68416532
0.67988654
0.67555976
0.67120251
0.66683376
0.66247365
0.65814313
0.65386357
0.64965632
0.64554224
0.64154124
0.63767183
0.63395063
0.63039206
0.62700799
0.62380754
0.62079702
0.61797987
0.61535681
0.612926
0.6106833
0.6086226
0.60673612
0.60501478
0.60344851
0.60202661
0.60073797
0.59957137
0.5985157
0.59756007
0.59669404
0.59590762
0.59519143
0.59453668
0.59393523
0.59337959
0.59286287
0.59237881
0.59192169
0.59148634
0.59106804
0.59066246
0.59026562
0.58987382
0.58948359
0.58909177
0.58869533
0.58829135
0.58787681
0.58744827
0.5870015
0.58653143
0.58603227
0.58549779
0.58492201
0.58430096
0.58363108
0.58289977
0.58209055
0.58123201
0.58039013
0.57945031
0.57811054
0.65558551
0.77271445
0.71721175
0.741329
0.72363562
0.72703917
0.72067357
0.71812762
0.71420002
0.71045475
0.7065192
0.70245831
0.69826884
0.69396166
0.68954686
0.68503781
0.68044997
0.6758011
0.67111107
0.66640162
0.66169607
0.65701887
0.6523952
0.64785037
0.64340935
0.63909605
0.63493281
0.6309398
0.62713449
0.62353129
0.62014123
0.61697183
0.6140271
0.61130767
0.60881101
0.6065318
0.6044623
0.60259281
0.60091207
0.59940772
0.59806665
0.59687543
0.59582053
0.59488863
0.5940668
0.59334267
0.59270453
0.59214141
0.59164314
0.59120034
0.59080443
0.59044764
0.5901229
0.58982388
0.58954488
0.58928082
0.58902713
0.58877975
0.588535
0.58828949
0.58804015
0.58778411
0.58751873
0.58724149
0.58694997
0.58664165
0.5863137
0.58596262
0.58558408
0.58517274
0.58472242
0.58422772
0.58368619
0.58309411
0.58243528
0.58169442
0.58091235
0.58014749
0.5792401
0.57794105
0.65502029
0.77047189
0.7146297
0.73770003
0.72031857
0.7226123
0.71620529
0.71294726
0.70859328
0.70430895
0.69983984
0.69523759
0.69050425
0.68565659
0.68071102
0.67568768
0.6706092
0.66550067
0.66038926
0.65530377
0.65027406
0.64533047
0.64050305
0.63582084
0.63131105
0.62699828
0.62290389
0.61904543
0.61543623
0.61208523
0.60899698
0.60617181
0.60360613
0.60129294
0.5992223
0.59738193
0.59575775
0.59433445
0.59309593
0.59202583
0.59110781
0.59032591
0.58966473
0.58910968
0.58864702
0.58826401
0.58794887
0.58769088
0.58748027
0.58730824
0.58716691
0.58704924
0.58694899
0.58686065
0.58677932
0.58670074
0.58662115
0.58653722
0.58644602
0.5863449
0.5862314
0.58610335
0.58595866
0.58579536
0.58561149
0.58540507
0.58517382
0.58491499
0.58462501
0.584299
0.58393103
0.5835165
0.583054
0.58253864
0.58195168
0.58128273
0.58058237
0.57989013
0.57900675
0.57776899
0.65381417
0.76706506
0.71107042
0.73289655
0.71583041
0.71688309
0.71032672
0.70628853
0.70138056
0.6964621
0.69135931
0.68612255
0.68076168
0.67530178
0.66976824
0.66419027
0.65859974
0.65303077
0.64751913
0.64210146
0.63681438
0.63169343
0.62677211
0.62208074
0.61764562
0.6134882
0.60962464
0.6060655
0.60281574
0.59987504
0.59723821
0.59489582
0.59283492
0.59103976
0.58949258
0.58817425
0.58706492
0.58614457
0.58539341
0.58479228
0.58432289
0.58396803
0.58371164
0.58353895
0.58343644
0.58339186
0.58339418
0.58343356
0.58350121
0.5835894
0.58369132
0.58380101
0.58391328
0.58402365
0.58412822
0.58422366
0.58430707
0.584376
0.58442827
0.58446199
0.58447542
0.58446701
0.58443529
0.58437881
0.58429612
0.58418567
0.58404576
0.58387435
0.58366853
0.58342396
0.58313528
0.58279889
0.58241361
0.5819723
0.58145565
0.58086219
0.58024779
0.57962131
0.57875485
0.57759648
0.65191239
0.76225586
0.70657679
0.72672665
0.7099637
0.70962627
0.70276858
0.6978541
0.692243
0.68657263
0.68072506
0.67475636
0.66868797
0.66255582
0.65639702
0.65025237
0.64416508
0.63817987
0.63234184
0.62669511
0.62128135
0.61613836
0.61129879
0.60678909
0.60262883
0.59883035
0.59539885
0.59233275
0.5896244
0.58726091
0.58522513
0.58349669
0.58205293
0.58086981
0.57992269
0.579187
0.57863874
0.57825491
0.57801378
0.5778951
0.57788019
0.577952
0.57809509
0.57829558
0.57854113
0.57882077
0.57912486
0.57944496
0.57977374
0.58010483
0.58043279
0.58075293
0.58106128
0.58135451
0.58162978
0.58188475
0.58211744
0.58232624
0.58250979
0.58266691
0.58279656
0.58289785
0.58296989
0.58301174
0.58302243
0.58300085
0.5829458
0.58285584
0.58272865
0.58256049
0.58234702
0.5820857
0.58177456
0.58140348
0.58095497
0.58044002
0.57991479
0.57934716
0.57849197
0.57742769
0.64925731
0.75565674
0.70103593
0.71892726
0.70241065
0.7004961
0.69314341
0.6872307
0.68075697
0.67420742
0.66750605
0.6607187
0.65388282
0.64704883
0.64026914
0.63359911
0.62709508
0.62081254
0.61480413
0.60911757
0.60379387
0.59886588
0.59435733
0.59028252
0.58664641
0.58344526
0.58066767
0.57829578
0.57630663
0.57467354
0.57336739
0.57235777
0.57161395
0.57110569
0.57080386
0.57068085
0.5707109
0.57087026
0.5711373
0.57149245
0.57191822
0.57239903
0.57292117
0.57347259
0.57404281
0.57462276
0.57520464
0.57578178
0.57634852
0.57690009
0.57743252
0.5779425
0.57842734
0.57888486
0.57931331
0.5797113
0.58007779
0.58041196
0.5807132
0.58098104
0.58121511
0.58141511
0.58158071
0.58171148
0.58180687
0.58186622
0.58188878
0.58187353
0.58181862
0.58172107
0.58157788
0.58138753
0.58114641
0.5808412
0.58045856
0.58002339
0.57958811
0.57907569
0.57823297
0.57726195
0.64571489
0.74659962
0.69383311
0.70904678
0.69271485
0.68901732
0.68094578
0.6739016
0.66640781
0.65885506
0.65120617
0.64354207
0.63592279
0.62841876
0.62110136
0.6140417
0.60730733
0.60095944
0.5950502
0.58962075
0.58470001
0.58030423
0.57643736
0.57309207
0.57025127
0.56788994
0.565977
0.56447721
0.56335283
0.56256519
0.56207582
0.56184744
0.56184464
0.56203434
0.5623861
0.56287222
0.56346775
0.56415046
0.56490067
0.5657011
0.56653669
0.56739438
0.56826296
0.56913283
0.56999584
0.57084513
0.57167497
0.57248062
0.5732582
0.57400457
0.57471725
0.57539429
0.57603423
0.576636
0.57719887
0.57772239
0.57820633
0.57865063
0.57905536
0.57942069
0.57974685
0.58003409
0.58028258
0.58049236
0.58066333
0.58079522
0.58088767
0.58093995
0.58095054
0.58091733
0.58083888
0.58071442
0.58053825
0.58029473
0.57997625
0.5796197
0.57926944
0.57881014
0.57799181
0.57709302
0.64099757
0.73508694
0.68453977
0.696524
0.6802968
0.67462874
0.66557443
0.65724728
0.648581
0.63991806
0.63126884
0.62273808
0.61441509
0.60639329
0.59876094
0.59159783
0.5849713
0.57893349
0.57351969
0.56874796
0.56461988
0.56112228
0.55822952
0.55590618
0.55410979
0.55279338
0.55190779
0.55140354
0.55123233
0.55134815
0.55170801
0.55227236
0.55300537
0.55387493
0.55485252
0.5559131
0.55703479
0.55819866
0.55938843
0.56059019
0.56179214
0.56298435
0.5641585
0.56530774
0.56642641
0.56750997
0.56855477
0.56955797
0.57051742
0.57143154
0.57229924
0.57311985
0.57389302
0.5746187
0.57529709
0.57592855
0.57651359
0.57705282
0.5775469
0.57799656
0.57840256
0.5787656
0.57908632
0.57936518
0.57960251
0.57979845
0.57995293
0.58006541
0.58013465
0.58015946
0.58013983
0.5800753
0.57995822
0.57977252
0.57951734
0.5792364
0.57896021
0.57854673
0.57776456
0.57695097
0.6347449
0.72213806
0.67259705
0.68077139
0.66443853
0.65660902
0.64626124
0.63648061
0.62652449
0.61671865
0.6071333
0.59790252
0.58914201
0.58095822
0.57343942
0.56665256
0.56064086
0.55542371
0.55099812
0.54734149
0.54441528
0.54216896
0.54054395
0.53947718
0.53890416
0.53876134
0.53898791
0.53952707
0.54032668
0.5413397
0.5425242
0.54384322
0.54526454
0.54676026
0.54830642
0.54988264
0.55147163
0.55305889
0.55463231
0.55618188
0.55769941
0.55917823
0.56061305
0.56199969
0.56333495
0.56461645
0.56584252
0.56701206
0.56812449
0.56917961
0.57017759
0.57111885
0.57200406
0.57283404
0.57360976
0.57433231
0.57500281
0.57562243
0.57619238
0.57671382
0.57718795
0.57761587
0.5779986
0.57833698
0.57863175
0.57888342
0.5790922
0.57925766
0.57937892
0.57945565
0.57948883
0.57947766
0.57941319
0.57928136
0.57908875
0.57888011
0.57866594
0.5782875
0.5775488
0.57683865
0.62663014
0.70518626
0.65717092
0.66090195
0.64409598
0.63389929
0.62197421
0.61063721
0.59942205
0.58864907
0.57844487
0.56895968
0.56031028
0.55258427
0.54583496
0.54008204
0.53531426
0.53149406
0.52856331
0.5264493
0.5250705
0.52434154
0.52417724
0.52449564
0.52522007
0.5262804
0.52761366
0.52916415
0.53088321
0.5327288
0.53466495
0.5366611
0.53869152
0.54073469
0.54277274
0.54479097
0.54677736
0.54872221
0.55061775
0.55245791
0.55423797
0.55595441
0.55760472
0.55918717
0.56070076
0.56214505
0.56352008
0.56482628
0.56606439
0.56723541
0.56834056
0.56938119
0.57035879
0.57127493
0.57213123
0.57292934
0.57367093
0.57435761
0.57499102
0.57557272
0.57610422
0.57658696
0.57702225
0.5774113
0.57775516
0.5780547
0.57831035
0.5785219
0.57868891
0.57881184
0.578892
0.57892759
0.57890913
0.57882679
0.57869486
0.57855457
0.57839263
0.57804005
0.57735037
0.57676561
0.61600749
0.68325678
0.63686643
0.6354992
0.61779435
0.60511165
0.59154057
0.57881222
0.5667098
0.55553011
0.54541459
0.53648397
0.52880388
0.52239282
0.51722526
0.51323983
0.51034835
0.50844515
0.50741554
0.50714288
0.50751389
0.50842238
0.50977152
0.51147491
0.51345683
0.51565186
0.51800418
0.52046667
0.52299987
0.52557105
0.52815326
0.53072445
0.53326681
0.53576599
0.53821063
0.54059184
0.54290277
0.5451383
0.5472947
0.54936943
0.55136092
0.55326839
0.55509169
0.55683124
0.55848786
0.56006273
0.56155732
0.56297329
0.56431248
0.56557687
0.56676851
0.56788951
0.56894201
0.56992819
0.57085018
0.57171011
0.57251003
0.57325195
0.57393783
0.57456954
0.57514885
0.57567746
0.57615692
0.57658869
0.57697413
0.57731436
0.57760999
0.57786116
0.57806805
0.57823179
0.57835338
0.5784297
0.57845149
0.57841422
0.57833864
0.5782598
0.57814368
0.57782056
0.57719169
0.57672008
0.60172401
0.65424531
0.60976556
0.6028058
0.58392382
0.56886847
0.55407002
0.54064872
0.52856906
0.51804723
0.50915568
0.50191148
0.49626443
0.49211511
0.48932838
0.48774853
0.48721202
0.48755754
0.48863313
0.49030053
0.49243728
0.49493727
0.4977101
0.50067985
0.50378352
0.50696934
0.51019517
0.51342699
0.5166376
0.51980541
0.5229135
0.52594878
0.52890128
0.5317636
0.53453039
0.53719801
0.53976419
0.54222775
0.54458841
0.54684662
0.54900336
0.55106011
0.55301868
0.55488114
0.55664982
0.55832716
0.55991574
0.56141822
0.56283728
0.56417564
0.56543602
0.5666211
0.56773355
0.56877598
0.56975095
0.57066092
0.57150827
0.5722953
0.57302423
0.57369716
0.57431608
0.57488286
0.57539926
0.57586693
0.57628743
0.57666203
0.57699154
0.57727651
0.57751783
0.57771707
0.5778747
0.57798652
0.57804439
0.57804882
0.57802377
0.57799563
0.5779173
0.57763433
0.57708857
0.57669282
0.581808
0.61580578
0.57367714
0.56102076
0.54146449
0.52446932
0.50959301
0.49690127
0.48636169
0.47801703
0.47176983
0.46746032
0.4648773
0.46378658
0.46395018
0.46514139
0.46715394
0.46980665
0.47294461
0.4764382
0.48018077
0.48408578
0.48808382
0.49211981
0.49615045
0.50014205
0.50406871
0.50791073
0.51165343
0.51528611
0.51880122
0.52219371
0.52546053
0.52860017
0.53161235
0.53449777
0.53725783
0.53989454
0.54241035
0.54480801
0.54709053
0.5492611
0.55132303
0.55327968
0.55513447
0.55689083
0.55855216
0.56012185
0.56160322
0.56299955
0.56431404
0.56554981
0.5667099
0.56779725
0.56881472
0.56976504
0.57065083
0.57147462
0.5722388
0.57294568
0.57359738
0.57419594
0.57474326
0.57524115
0.57569126
0.57609496
0.57645324
0.57676707
0.57703792
0.57726755
0.57745587
0.57759835
0.57768907
0.57773296
0.57775371
0.57776674
0.57771567
0.57746796
0.57701003
0.57673339
0.55364622
0.56543211
0.52724123
0.50879395
0.48814158
0.47265966
0.45967493
0.44978711
0.44273152
0.43826512
0.43604155
0.43569725
0.43687446
0.43924667
0.4425292
0.44648282
0.45091188
0.45565973
0.46060309
0.46564625
0.47071584
0.47575627
0.48072595
0.48559424
0.49033895
0.49494449
0.49940027
0.50369959
0.50783869
0.51181606
0.51563189
0.51928764
0.52278572
0.52612927
0.52932188
0.53236756
0.53527049
0.53803507
0.54066574
0.54316699
0.54554329
0.54779909
0.54993876
0.55196662
0.55388686
0.55570362
0.55742088
0.55904256
0.56057243
0.56201415
0.56337128
0.56464723
0.56584532
0.56696872
0.5680205
0.56900359
0.56992078
0.57077474
0.57156804
0.57230308
0.57298215
0.57360738
0.57418081
0.57470435
0.57517971
0.57560832
0.57599135
0.57633014
0.57662647
0.57688196
0.57709603
0.57726462
0.57738469
0.57746448
0.57752531
0.57757278
0.57754808
0.57734359
0.576975
0.57678335
0.51312407
0.50057945
0.46335292
0.44545154
0.42802707
0.41582377
0.40751327
0.40287985
0.40126949
0.40209611
0.40479085
0.40886663
0.41392121
0.41963622
0.42576628
0.43212638
0.43857948
0.44502563
0.4513931
0.4576313
0.46370545
0.46959239
0.47527752
0.48075253
0.48601365
0.49106042
0.49589473
0.50052011
0.50494128
0.5091637
0.51319334
0.51703648
0.52069952
0.52418892
0.52751107
0.5306723
0.53367881
0.5365366
0.53925156
0.54182936
0.54427548
0.54659523
0.54879373
0.55087592
0.55284655
0.55471021
0.55647129
0.55813405
0.55970257
0.56118078
0.56257246
0.56388123
0.56511057
0.56626384
0.56734423
0.5683548
0.56929845
0.57017799
0.57099607
0.5717552
0.57245775
0.57310597
0.57370198
0.57424777
0.5747451
0.57519547
0.57560028
0.5759611
0.57627979
0.57655763
0.57679377
0.57698514
0.57713121
0.57724124
0.57733191
0.57740184
0.57739885
0.57724532
0.57697506
0.57686948
0.45132129
0.41875584
0.38905757
0.37421237
0.36337747
0.35857716
0.35801168
0.36076223
0.36583748
0.37247774
0.38009763
0.38827259
0.39670221
0.40517942
0.41356458
0.42176592
0.42972512
0.43740705
0.44479245
0.45187293
0.45864739
0.46511958
0.47129639
0.47718667
0.48280043
0.48814828
0.49324105
0.49808954
0.50270434
0.50709575
0.51127368
0.51524765
0.51902676
0.52261968
0.52603467
0.52927959
0.53236193
0.5352888
0.53806698
0.54070291
0.54320274
0.54557233
0.54781728
0.54994291
0.55195433
0.55385641
0.55565382
0.55735102
0.55895229
0.5604617
0.5618832
0.56322051
0.56447726
0.56565687
0.56676263
0.5677977
0.56876503
0.56966751
0.57050786
0.57128866
0.57201234
0.57268124
0.57329754
0.57386327
0.57438025
0.57485011
0.57527441
0.5756549
0.57599335
0.57629078
0.57654649
0.57675879
0.57692883
0.57706476
0.5771774
0.57726131
0.57727681
0.57717559
0.5769943
0.57693074
0.35558837
0.32211669
0.30450688
0.30002748
0.30141007
0.30767407
0.31684201
0.32764835
0.33921962
0.35100453
0.36266741
0.37401225
0.38493138
0.3953718
0.40531387
0.41475798
0.42371619
0.43220698
0.44025214
0.4478747
0.45509781
0.461944
0.46843482
0.47459062
0.48043048
0.48597222
0.49123243
0.4962265
0.50096876
0.50547253
0.50975018
0.51381323
0.51767243
0.52133782
0.52481879
0.52812413
0.5312621
0.53424047
0.53706657
0.53974729
0.54228916
0.54469838
0.5469808
0.549142
0.55118728
0.55312167
0.55494999
0.55667683
0.55830655
0.55984335
0.56129122
0.56265399
0.56393531
0.56513868
0.56626745
0.56732478
0.56831371
0.56923713
0.57009783
0.57089841
0.57164136
0.57232906
0.57296372
0.57354741
0.574082
0.57456923
0.57501081
0.57540851
0.57576397
0.57607815
0.5763509
0.57658188
0.57677302
0.57693024
0.57705935
0.5771544
0.57718982
0.57713987
0.57703332
0.57699113
0.21652006
0.21523955
0.22062197
0.2340148
0.25131333
0.26969131
0.28794486
0.30542395
0.32189962
0.33730789
0.35167391
0.36505798
0.3775338
0.38917662
0.40005813
0.41024437
0.41979501
0.42876355
0.43719772
0.44514003
0.45262837
0.45969655
0.46637482
0.47269028
0.47866732
0.48432794
0.48969203
0.49477765
0.49960126
0.50417788
0.50852129
0.51264416
0.51655814
0.52027405
0.5238019
0.52715101
0.53033006
0.53334718
0.53620998
0.53892562
0.54150084
0.54394199
0.54625509
0.54844582
0.55051958
0.55248151
0.55433649
0.55608916
0.55774395
0.55930509
0.56077662
0.5621624
0.5634661
0.56469125
0.56584122
0.56691921
0.56792825
0.56887126
0.56975104
0.57057022
0.57133131
0.5720367
0.57268863
0.57328918
0.57384027
0.57434372
0.57480127
0.57521464
0.57558533
0.5759143
0.57620201
0.57644909
0.57665757
0.57683119
0.5769725
0.57707699
0.57713095
0.57712345
0.57707244
0.57703924
0.09191347
0.12180366
0.15921197
0.19284595
0.22296515
0.24947945
0.27300882
0.29401891
0.31292566
0.33005505
0.34566987
0.35998061
0.37315809
0.38534213
0.39664836
0.4071733
0.41699827
0.4261923
0.43481448
0.44291575
0.45054031
0.45772676
0.46450898
0.47091693
0.47697718
0.48271344
0.48814697
0.49329692
0.49818058
0.50281368
0.50721053
0.51138424
0.51534684
0.51910942
0.52268223
0.52607477
0.52929588
0.53235382
0.5352563
0.53801055
0.54062338
0.54310119
0.54545005
0.54767567
0.54978348
0.55177864
0.55366604
0.55545035
0.557136
0.55872725
0.56022813
0.56164251
0.56297408
0.56422638
0.56540277
0.56650647
0.56754052
0.56850785
0.56941125
0.57025338
0.57103675
0.57176375
0.57243663
0.57305749
0.57362826
0.57415078
0.5746268
0.57505793
0.5754455
0.57579045
0.57609348
0.57635569
0.57657909
0.57676614
0.57691772
0.5770307
0.5770984
0.57711715
0.57709707
0.57706677
0.010948921
0.29679255
0.47156449
0.51954698
0.52929657
0.5298077
0.52948282
0.53062141
0.53210237
0.53358549
0.53506439
0.53650792
0.53792822
0.53933417
0.54073651
0.54214519
0.54356177
0.54498676
0.54641991
0.54786026
0.54930634
0.55075639
0.55220842
0.55366032
0.55510992
0.55655502
0.55799346
0.5594231
0.56084185
0.56224767
0.56363856
0.56501258
0.56636782
0.56770241
0.5690145
0.57030227
0.57156389
0.57279756
0.57400147
0.57517381
0.57631278
0.57741654
0.57848327
0.57951116
0.58049836
0.58144307
0.58234347
0.58319778
0.58400427
0.58476122
0.58546703
0.58612015
0.58671914
0.58726272
0.58774973
0.58817919
0.58855036
0.58886267
0.58911581
0.58930941
0.58944286
0.5895159
0.58952854
0.58948073
0.58937147
0.58919988
0.58896165
0.58865861
0.5882772
0.58784072
0.58729519
0.58674635
0.5859778
0.58536328
0.58424843
0.58374297
0.58211466
0.58183222
0.57975423
0.57948355
0.064152872
0.38455003
0.52203217
0.54712729
0.54798361
0.5461534
0.54529745
0.54543935
0.5456435
0.54594755
0.54633779
0.54689299
0.54756856
0.54833495
0.54916367
0.55005147
0.55099175
0.55197999
0.55301079
0.55407901
0.5551799
0.55630901
0.55746213
0.55863529
0.55982468
0.5610267
0.5622379
0.56345497
0.56467474
0.56589415
0.56711025
0.5683202
0.56952123
0.57071066
0.57188587
0.57304432
0.57418351
0.575301
0.57639438
0.5774613
0.57849943
0.57950648
0.5804802
0.58141837
0.58231881
0.58317939
0.58399804
0.58477272
0.58550149
0.58618249
0.58681396
0.58739426
0.58792192
0.58839558
0.58881412
0.58917657
0.58948226
0.58973069
0.58992163
0.59005479
0.59012966
0.5901461
0.59010426
0.59000416
0.58984494
0.58962567
0.58934251
0.58899659
0.58857622
0.58810124
0.58752461
0.58693894
0.5861507
0.58550029
0.58438013
0.5838328
0.58220855
0.58190487
0.57978232
0.57957478
0.14908206
0.46556599
0.5417694
0.55452982
0.55317014
0.55222746
0.55221778
0.55277488
0.55318917
0.55371028
0.55421286
0.55477718
0.55536227
0.55598916
0.55664936
0.55734757
0.55807992
0.55884668
0.55964629
0.56047706
0.5613372
0.56222472
0.56313753
0.56407335
0.5650298
0.56600439
0.56699453
0.56799756
0.56901077
0.5700314
0.57105664
0.57208368
0.57310969
0.57413182
0.57514724
0.57615312
0.57714665
0.57812504
0.5790855
0.58002531
0.58094175
0.58183214
0.58269387
0.58352435
0.58432106
0.58508156
0.58580347
0.5864845
0.58712247
0.58771532
0.58826112
0.58875811
0.5892047
0.58959949
0.58994131
0.59022919
0.59046247
0.59064071
0.59076374
0.59083131
0.590843
0.59079875
0.59069882
0.59054326
0.59033134
0.59006209
0.58973198
0.58934169
0.58888075
0.58836672
0.587757
0.58713539
0.58632419
0.58564189
0.58450973
0.58392772
0.58229772
0.58197757
0.57981309
0.57966011
0.23141072
0.51289378
0.55540307
0.56290728
0.56024602
0.5604665
0.56052898
0.56112397
0.56139692
0.56184753
0.56222272
0.56267727
0.5631352
0.56362486
0.56413179
0.56466409
0.56521907
0.56579884
0.56640326
0.56703228
0.56768558
0.56836265
0.56906274
0.56978487
0.57052784
0.57129022
0.57207041
0.57286659
0.57367678
0.57449883
0.57533047
0.57616926
0.57701268
0.5778581
0.57870279
0.57954397
0.5803788
0.58120439
0.58201785
0.58281623
0.58359663
0.58435614
0.58509186
0.58580098
0.58648069
0.5871283
0.58774118
0.58831682
0.58885282
0.58934693
0.58979708
0.59020137
0.59055811