/*--------------------------------*- C++ -*----------------------------------*\
  =========                 |
  \\      /  F ield         | OpenFOAM: The Open Source CFD Toolbox
   \\    /   O peration     | Website:  https://openfoam.org
    \\  /    A nd           | Version:  12
     \\/     M anipulation  |
\*---------------------------------------------------------------------------*/
FoamFile
{
    format      ascii;
    class       volScalarField;
    location    "0.146";
    object      rho;
}
// * * * * * * * * * * * * * * * * * * * * * * * * * * * * * * * * * * * * * //

dimensions      [1 -3 0 0 0 0 0];

internalField   nonuniform List<scalar> 
16000
(
1.0575216
1.090315
1.0782159
1.0864298
1.082582
1.0860273
1.0850483
1.0868732
1.0870228
1.088234
1.0888879
1.0899051
1.0907857
1.0917856
1.0927849
1.0938365
1.0949204
1.0960444
1.0972067
1.0984081
1.0996487
1.1009284
1.102247
1.1036041
1.1049991
1.1064311
1.107899
1.1094014
1.1109366
1.1125026
1.1140973
1.1157181
1.1173621
1.1190263
1.1207073
1.1224015
1.1241051
1.1258141
1.1275242
1.1292314
1.1309311
1.1326191
1.134291
1.1359427
1.13757
1.139169
1.140736
1.1422674
1.1437602
1.1452114
1.1466185
1.1479793
1.1492918
1.1505545
1.1517661
1.1529256
1.1540324
1.155086
1.1560862
1.157033
1.1579265
1.158767
1.159555
1.1602911
1.1609756
1.1616092
1.1621922
1.1627252
1.1632084
1.163642
1.1640257
1.1643594
1.1646436
1.1648788
1.1650652
1.1652087
1.1653315
1.1651648
1.16573
1.1644908
1.054232
1.0875385
1.0747748
1.0836003
1.0795254
1.0832395
1.0821594
1.084156
1.0842991
1.0856128
1.0863187
1.0874114
1.0883665
1.0894411
1.0905214
1.0916543
1.0928238
1.0940357
1.0952889
1.0965837
1.0979202
1.0992981
1.1007169
1.1021759
1.1036741
1.1052103
1.1067829
1.1083902
1.1100299
1.1116996
1.1133966
1.1151177
1.1168597
1.1186188
1.1203912
1.1221727
1.1239591
1.1257457
1.1275281
1.1293015
1.1310615
1.1328034
1.1345228
1.1362153
1.137877
1.1395041
1.1410929
1.1426405
1.1441438
1.1456005
1.1470085
1.148366
1.1496717
1.1509245
1.1521236
1.1532687
1.1543595
1.155396
1.1563785
1.1573072
1.1581827
1.1590055
1.1597764
1.1604962
1.1611654
1.1617846
1.1623545
1.1628754
1.1633476
1.1637712
1.1641458
1.1644711
1.1647472
1.1649741
1.1651539
1.1652954
1.1653653
1.1653425
1.1656472
1.164623
1.0512534
1.0850128
1.0718488
1.0810037
1.0767856
1.0807021
1.0795926
1.0817093
1.0818941
1.0832913
1.0840715
1.0852412
1.0862824
1.0874404
1.0886118
1.0898366
1.0911022
1.0924126
1.0937671
1.0951656
1.0966079
1.0980933
1.0996211
1.1011901
1.1027991
1.1044462
1.1061295
1.1078466
1.1095949
1.1113714
1.1131726
1.114995
1.1168345
1.1186868
1.1205475
1.1224118
1.1242749
1.1261319
1.1279777
1.1298074
1.1316161
1.1333993
1.1351523
1.136871
1.1385516
1.1401905
1.1417845
1.1433309
1.1448275
1.1462723
1.1476639
1.149001
1.1502831
1.1515096
1.1526804
1.1537957
1.1548557
1.155861
1.1568122
1.1577101
1.1585555
1.1593493
1.1600925
1.1607858
1.1614303
1.1620265
1.1625751
1.1630764
1.1635307
1.1639379
1.1642977
1.1646094
1.1648728
1.1650881
1.1652587
1.1653861
1.1654388
1.1654669
1.1656023
1.1647794
1.0485946
1.0827284
1.0691773
1.0786642
1.0743105
1.0784604
1.0773279
1.0795832
1.0798195
1.0813136
1.0821823
1.0834413
1.0845834
1.0858383
1.0871142
1.0884441
1.0898183
1.0912394
1.0927066
1.0942198
1.0957782
1.0973811
1.0990272
1.1007151
1.102443
1.1042085
1.1060093
1.1078423
1.1097041
1.1115911
1.1134992
1.115424
1.1173607
1.1193044
1.1212498
1.1231918
1.1251247
1.1270433
1.1289422
1.1308163
1.1326604
1.1344701
1.1362408
1.1379687
1.1396502
1.1412823
1.1428624
1.1443884
1.1458587
1.1472722
1.148628
1.1499258
1.1511656
1.1523477
1.1534727
1.1545414
1.1555545
1.1565133
1.1574187
1.1582719
1.1590741
1.1598265
1.1605302
1.1611864
1.1617959
1.1623595
1.1628779
1.1633515
1.1637802
1.1641641
1.1645026
1.1647948
1.16504
1.1652388
1.1653942
1.1655028
1.1655466
1.165583
1.165616
1.1649336
1.0463013
1.0808199
1.0668665
1.0766551
1.0721607
1.076584
1.0754418
1.0778413
1.07815
1.0797484
1.0807246
1.0820823
1.0833388
1.0847012
1.086092
1.087537
1.0890292
1.0905702
1.0921595
1.0937964
1.0954802
1.0972096
1.0989828
1.100798
1.1026527
1.1045439
1.1064685
1.1084224
1.1104017
1.1124017
1.1144175
1.1164437
1.1184748
1.120505
1.1225284
1.1245391
1.1265311
1.1284987
1.1304362
1.1323385
1.1342005
1.1360177
1.1377863
1.1395027
1.141164
1.1427677
1.1443123
1.1457963
1.147219
1.1485801
1.1498798
1.1511186
1.1522974
1.1534171
1.1544792
1.1554849
1.1564358
1.1573335
1.1581794
1.1589752
1.1597223
1.1604221
1.161076
1.1616851
1.1622506
1.1627732
1.1632536
1.163692
1.1640885
1.1644428
1.1647542
1.1650215
1.1652439
1.165422
1.1655573
1.1656448
1.1656784
1.1657036
1.1656641
1.1650939
1.0444186
1.0793064
1.0650068
1.0751009
1.0705125
1.0751472
1.0739938
1.0765578
1.0769552
1.0786632
1.0797587
1.0812186
1.0825961
1.0840723
1.0855852
1.0871536
1.0887731
1.0904443
1.0921665
1.0939386
1.0957591
1.0976263
1.0995377
1.1014906
1.1034815
1.1055067
1.1075618
1.109642
1.111742
1.1138563
1.1159788
1.1181032
1.1202231
1.1223318
1.1244228
1.1264895
1.1285256
1.1305252
1.1324826
1.1343926
1.1362507
1.1380528
1.1397956
1.1414764
1.1430931
1.1446443
1.1461293
1.1475478
1.1489001
1.150187
1.1514096
1.1525695
1.1536682
1.1547077
1.1556899
1.156617
1.157491
1.1583139
1.1590876
1.1598141
1.160495
1.161132
1.1617264
1.1622797
1.1627928
1.1632668
1.1637019
1.1640985
1.1644566
1.1647755
1.1650545
1.1652921
1.1654874
1.1656405
1.1657512
1.1658157
1.1658357
1.1658375
1.1657434
1.1652707
1.0429438
1.0781959
1.063582
1.0740152
1.0693355
1.0741754
1.0730682
1.0757622
1.0762641
1.0780586
1.0792803
1.0808463
1.0823552
1.0839582
1.0856071
1.0873149
1.089078
1.0908961
1.0927678
1.0946913
1.0966644
1.0986842
1.1007473
1.10285
1.1049876
1.1071552
1.1093472
1.1115575
1.1137797
1.1160069
1.1182318
1.1204473
1.1226459
1.1248202
1.1269631
1.1290677
1.1311274
1.1331365
1.1350894
1.1369816
1.1388091
1.1405687
1.1422581
1.1438757
1.1454205
1.1468925
1.1482921
1.1496203
1.1508786
1.1520689
1.1531935
1.1542546
1.155255
1.1561973
1.1570841
1.1579181
1.1587018
1.1594377
1.160128
1.1607747
1.1613798
1.1619451
1.1624719
1.1629617
1.1634155
1.1638341
1.164218
1.1645671
1.1648814
1.1651601
1.1654021
1.1656058
1.1657702
1.1658946
1.1659771
1.1660171
1.1660208
1.1659912
1.1658513
1.1654704
1.0418153
1.0774296
1.0625269
1.0733443
1.0685664
1.0736318
1.0725538
1.0754432
1.0759711
1.0778811
1.0792632
1.080962
1.0826289
1.0843848
1.0861943
1.0880652
1.0899948
1.0919817
1.0940238
1.0961183
1.098262
1.1004509
1.1026803
1.1049451
1.1072392
1.1095563
1.1118892
1.1142305
1.1165722
1.1189062
1.1212242
1.1235177
1.1257786
1.127999
1.1301714
1.1322888
1.1343449
1.1363344
1.1382525
1.1400955
1.1418606
1.1435459
1.1451505
1.1466741
1.1481175
1.1494818
1.1507691
1.1519818
1.1531225
1.1541944
1.1552007
1.1561448
1.15703
1.1578597
1.1586372
1.1593655
1.1600475
1.1606859
1.1612832
1.1618417
1.1623631
1.1628494
1.163302
1.1637222
1.164111
1.1644691
1.1647966
1.1650937
1.1653599
1.1655943
1.1657955
1.1659619
1.1660923
1.1661847
1.1662364
1.1662509
1.1662349
1.1661672
1.1659907
1.1656999
1.0410281
1.076994
1.0618255
1.0731081
1.0681444
1.0733761
1.0723887
1.0753198
1.0761572
1.0782113
1.0797843
1.081641
1.0834912
1.0854263
1.0874215
1.0894807
1.0916011
1.0937802
1.0960148
1.0983008
1.1006336
1.1030077
1.1054168
1.107854
1.1103116
1.1127814
1.1152546
1.1177221
1.1201745
1.1226021
1.1249958
1.1273462
1.1296447
1.1318831
1.134054
1.1361509
1.1381684
1.140102
1.1419482
1.143705
1.145371
1.1469462
1.1484314
1.1498283
1.1511392
1.152367
1.1535154
1.1545879
1.1555888
1.156522
1.157392
1.1582027
1.1589582
1.1596625
1.1603191
1.1609315
1.1615027
1.1620356
1.1625327
1.1629963
1.1634283
1.1638304
1.1642039
1.1645501
1.1648697
1.1651633
1.1654311
1.1656728
1.1658877
1.1660748
1.1662325
1.1663591
1.1664532
1.1665111
1.1665302
1.1665187
1.1664795
1.1663684
1.1661646
1.1659631
1.040617
1.0769251
1.0615176
1.073226
1.0681235
1.0736151
1.0727744
1.0759017
1.076925
1.0791281
1.080922
1.0829644
1.0850249
1.0871682
1.0893768
1.0916516
1.0939889
1.0963848
1.0988344
1.1013322
1.1038715
1.1064448
1.109044
1.1116598
1.1142826
1.116902
1.1195074
1.1220879
1.1246327
1.127131
1.1295727
1.1319482
1.1342488
1.1364667
1.1385952
1.1406291
1.1425644
1.1443983
1.1461294
1.1477577
1.1492842
1.1507109
1.1520408
1.1532775
1.1544254
1.1554891
1.1564735
1.1573837
1.158225
1.1590024
1.1597209
1.1603851
1.1609996
1.1615686
1.162096
1.1625851
1.1630393
1.1634613
1.1638535
1.1642182
1.164557
1.1648716
1.1651632
1.1654326
1.1656806
1.1659076
1.1661134
1.1662976
1.1664593
1.1665973
1.1667097
1.1667952
1.1668513
1.1668731
1.1668592
1.1668219
1.166756
1.1665984
1.1663771
1.166263
1.0406497
1.0772936
1.0616556
1.0735579
1.068599
1.0743793
1.0737473
1.0770355
1.0783314
1.0807109
1.0827602
1.085023
1.0873248
1.0897084
1.092161
1.0946807
1.0972623
1.0999001
1.1025871
1.1053154
1.1080759
1.1108585
1.1136525
1.1164461
1.1192272
1.1219832
1.1247016
1.1273699
1.1299761
1.1325088
1.1349576
1.1373132
1.1395676
1.1417145
1.1437489
1.1456677
1.1474691
1.1491532
1.1507213
1.1521758
1.1535206
1.15476
1.1558994
1.1569446
1.1579015
1.1587764
1.1595757
1.1603054
1.1609715
1.1615799
1.1621358
1.1626445
1.1631105
1.1635381
1.1639312
1.1642931
1.1646271
1.1649356
1.1652209
1.165485
1.1657294
1.1659555
1.1661641
1.1663561
1.1665318
1.1666913
1.1668344
1.1669605
1.1670684
1.1671565
1.1672232
1.167267
1.1672845
1.1672698
1.1672236
1.1671612
1.1670655
1.1668609
1.1666335
1.1666035
1.0412075
1.0781722
1.0623395
1.0745414
1.0697492
1.0757707
1.0753973
1.0788638
1.0804739
1.0830582
1.0853974
1.0879189
1.0904966
1.0931559
1.0958861
1.0986823
1.1015371
1.104442
1.1073871
1.1103612
1.1133521
1.1163465
1.1193305
1.1222896
1.1252091
1.1280742
1.1308708
1.1335852
1.136205
1.138719
1.1411175
1.1433928
1.145539
1.1475522
1.1494306
1.1511741
1.1527845
1.154265
1.1556203
1.1568559
1.1579784
1.1589948
1.1599125
1.160739
1.1614821
1.1621491
1.1627473
1.1632835
1.1637643
1.1641955
1.1645829
1.1649314
1.1652456
1.1655297
1.1657873
1.1660216
1.1662352
1.1664307
1.1666098
1.1667742
1.1669252
1.1670637
1.1671904
1.1673059
1.1674102
1.1675032
1.1675844
1.167653
1.1677076
1.1677465
1.1677681
1.1677707
1.1677499
1.1676993
1.1676231
1.1675367
1.1674079
1.167158
1.1669366
1.166989
1.0422854
1.0795666
1.063566
1.0761897
1.0715586
1.0778233
1.0777892
1.0814495
1.0834359
1.0862677
1.0889379
1.0917646
1.0946599
1.097636
1.1006817
1.1037886
1.1069455
1.1101402
1.1133588
1.116586
1.1198058
1.1230012
1.1261549
1.1292496
1.1322682
1.1351944
1.138013
1.1407105
1.1432751
1.1456975
1.1479706
1.1500897
1.1520527
1.1538598
1.1555134
1.1570176
1.1583783
1.1596025
1.1606982
1.1616742
1.1625395
1.1633033
1.1639749
1.1645631
1.1650766
1.1655236
1.1659117
1.166248
1.1665391
1.1667908
1.1670086
1.1671973
1.167361
1.1675035
1.167628
1.1677373
1.1678338
1.1679192
1.1679953
1.1680632
1.1681239
1.1681779
1.1682256
1.1682672
1.1683026
1.1683314
1.1683528
1.1683659
1.1683691
1.1683605
1.1683387
1.1683015
1.1682436
1.1681593
1.1680564
1.1679471
1.1677828
1.1674923
1.1672899
1.1674196
1.0439373
1.0815289
1.0653971
1.0784681
1.0741128
1.0806311
1.0810269
1.0849063
1.0873311
1.090466
1.0935155
1.0967021
1.0999642
1.103303
1.1067041
1.1101541
1.1136371
1.1171356
1.1206308
1.1241029
1.1275314
1.1308956
1.1341748
1.1373493
1.1404007
1.1433122
1.1460697
1.1486616
1.1510794
1.1533176
1.155374
1.1572491
1.1589462
1.1604707
1.1618302
1.1630336
1.1640908
1.1650127
1.1658104
1.1664951
1.1670778
1.1675693
1.1679798
1.168319
1.1685959
1.1688188
1.1689953
1.1691321
1.1692356
1.1693111
1.1693636
1.1693972
1.1694157
1.1694223
1.1694195
1.1694097
1.1693947
1.1693759
1.1693544
1.169331
1.1693063
1.1692805
1.1692537
1.1692256
1.169196
1.1691641
1.1691292
1.1690899
1.1690444
1.1689912
1.1689287
1.1688541
1.1687613
1.1686467
1.1685215
1.1683903
1.1681892
1.1678673
1.1676966
1.1678911
1.0462237
1.084118
1.0679435
1.0815047
1.077512
1.0842952
1.0852264
1.0893675
1.0923024
1.0958152
1.0993051
1.1029148
1.1065977
1.1103445
1.1141359
1.1179519
1.1217706
1.1255685
1.1293213
1.1330039
1.1365914
1.1400593
1.143385
1.146548
1.1495307
1.1523189
1.1549025
1.1572751
1.1594344
1.1613817
1.1631216
1.1646614
1.1660109
1.1671815
1.1681857
1.1690369
1.1697488
1.1703351
1.1708091
1.1711835
1.1714706
1.1716817
1.1718273
1.1719169
1.1719592
1.1719622
1.1719329
1.1718773
1.171801
1.1717088
1.1716047
1.1714923
1.1713745
1.1712539
1.1711325
1.1710119
1.1708934
1.1707779
1.1706662
1.1705584
1.1704549
1.1703554
1.1702597
1.1701673
1.1700777
1.1699899
1.1699029
1.1698153
1.1697251
1.169631
1.1695313
1.1694224
1.1692978
1.1691574
1.1690148
1.1688626
1.1686254
1.1682854
1.1681592
1.1683975
1.0492023
1.087366
1.0713321
1.0853714
1.0818786
1.0889531
1.0905531
1.095031
1.0985594
1.1025399
1.1065376
1.1106326
1.1147842
1.1189733
1.1231735
1.1273573
1.1314954
1.1355571
1.1395118
1.1433292
1.1469809
1.1504414
1.1536888
1.1567058
1.1594802
1.1620047
1.1642773
1.1663004
1.1680808
1.1696284
1.170956
1.1720782
1.1730111
1.1737714
1.1743758
1.174841
1.175183
1.1754172
1.1755577
1.1756179
1.1756098
1.1755446
1.1754321
1.1752811
1.1750996
1.1748944
1.1746715
1.1744362
1.174193
1.1739457
1.1736976
1.1734513
1.173209
1.1729724
1.1727431
1.1725219
1.1723096
1.1721066
1.1719131
1.1717291
1.1715543
1.1713883
1.1712305
1.1710801
1.1709363
1.1707981
1.1706642
1.1705331
1.1704029
1.1702724
1.1701396
1.1699999
1.1698477
1.169687
1.1695314
1.1693592
1.1690881
1.1687456
1.1686755
1.1689315
1.0529437
1.0912816
1.0756899
1.0902193
1.087418
1.0948497
1.0972688
1.1021783
1.1063813
1.110917
1.1154831
1.120113
1.1247647
1.1294081
1.1340071
1.1385239
1.1429202
1.1471577
1.1512005
1.1550162
1.1585775
1.1618629
1.1648578
1.1675544
1.1699512
1.1720529
1.1738691
1.1754136
1.1767033
1.1777574
1.1785961
1.1792403
1.1797109
1.1800281
1.1802111
1.1802781
1.1802458
1.1801296
1.1799435
1.1796999
1.17941
1.1790837
1.1787296
1.1783554
1.1779676
1.1775718
1.1771728
1.1767748
1.1763811
1.1759945
1.1756174
1.1752515
1.1748982
1.1745586
1.1742334
1.173923
1.1736276
1.1733472
1.1730815
1.17283
1.1725923
1.1723674
1.1721547
1.1719531
1.1717617
1.1715791
1.171404
1.1712347
1.1710697
1.1709077
1.1707464
1.1705802
1.1704053
1.1702298
1.1700651
1.1698742
1.1695741
1.169243
1.1692371
1.1694864
1.0576382
1.0960133
1.0812503
1.0963763
1.094463
1.1023149
1.1056961
1.111133
1.1160792
1.1212492
1.1264336
1.1316291
1.136784
1.1418528
1.1467859
1.1515342
1.1560514
1.1602959
1.1642328
1.1678358
1.1710875
1.1739797
1.1765125
1.1786939
1.180538
1.1820641
1.1832948
1.1842551
1.1849709
1.1854686
1.1857738
1.185911
1.1859034
1.1857724
1.1855375
1.1852165
1.184825
1.1843774
1.1838858
1.1833613
1.1828133
1.1822498
1.1816781
1.1811039
1.1805324
1.1799677
1.1794135
1.1788724
1.1783468
1.1778385
1.1773489
1.1768789
1.1764292
1.1760001
1.1755918
1.1752041
1.1748368
1.1744893
1.174161
1.1738513
1.1735591
1.1732835
1.1730234
1.1727778
1.1725453
1.1723246
1.1721142
1.1719125
1.1717182
1.1715299
1.1713446
1.1711567
1.1709646
1.1707799
1.1706085
1.1704011
1.1700821
1.1697729
1.1698291
1.1700654
1.0635672
1.1021387
1.0884093
1.1041796
1.1033593
1.1116722
1.1161643
1.1222483
1.1280082
1.1338839
1.1397146
1.1454618
1.1510562
1.1564343
1.1615347
1.1663033
1.1706955
1.1746783
1.1782315
1.181347
1.1840283
1.1862885
1.1881486
1.1896353
1.1907793
1.1916132
1.1921705
1.1924842
1.192586
1.1925057
1.1922708
1.1919064
1.1914353
1.1908775
1.1902509
1.1895711
1.1888518
1.1881048
1.1873401
1.1865664
1.1857911
1.1850202
1.1842591
1.1835118
1.1827819
1.1820722
1.1813848
1.1807215
1.1800834
1.1794715
1.1788863
1.1783279
1.1777963
1.1772914
1.1768127
1.1763595
1.1759312
1.1755269
1.1751458
1.1747867
1.1744485
1.1741301
1.1738301
1.1735473
1.1732805
1.173028
1.1727883
1.17256
1.1723419
1.1721324
1.1719279
1.1717232
1.17152
1.1713307
1.1711541
1.1709332
1.1706081
1.1703319
1.1704438
1.1706601
1.0709183
1.1101889
1.0973683
1.1138575
1.1144768
1.1233404
1.1291123
1.1359947
1.1426254
1.1492257
1.1556457
1.1618127
1.1676416
1.1730608
1.1780124
1.1824553
1.1863663
1.1897389
1.1925822
1.1949174
1.1967757
1.1981946
1.1992156
1.1998818
1.2002364
1.2003206
1.2001737
1.1998315
1.1993268
1.1986888
1.1979434
1.1971136
1.196219
1.1952768
1.1943017
1.1933063
1.1923011
1.1912952
1.190296
1.1893098
1.1883415
1.1873955
1.1864749
1.1855825
1.1847201
1.1838893
1.1830911
1.1823261
1.1815946
1.1808967
1.1802321
1.1796004
1.179001
1.1784331
1.177896
1.1773885
1.1769097
1.1764584
1.1760334
1.1756335
1.1752573
1.1749035
1.1745708
1.1742576
1.1739627
1.1736844
1.1734213
1.1731719
1.1729353
1.1727095
1.1724904
1.1722744
1.1720657
1.171876
1.1716954
1.1714641
1.1711453
1.1709132
1.1710727
1.1712604
1.0798243
1.1200336
1.1087322
1.1259567
1.1284595
1.1380106
1.1451864
1.1529673
1.1604149
1.167592
1.174346
1.1805873
1.1862381
1.1912471
1.1955884
1.1992597
1.2022795
1.204682
1.2065131
1.2078258
1.2086767
1.209123
1.2092198
1.2090193
1.2085694
1.2079134
1.2070897
1.2061322
1.2050702
1.2039292
1.2027307
1.2014933
1.2002325
1.1989613
1.1976908
1.1964298
1.1951858
1.1939649
1.192772
1.1916108
1.1904844
1.1893951
1.1883446
1.1873339
1.1863639
1.1854348
1.1845467
1.1836993
1.1828921
1.1821244
1.1813955
1.1807043
1.1800498
1.179431
1.1788464
1.1782948
1.177775
1.1772855
1.176825
1.1763921
1.1759851
1.1756029
1.1752438
1.1749064
1.1745892
1.1742907
1.1740094
1.1737443
1.173494
1.1732564
1.1730273
1.1728049
1.1725959
1.1724089
1.1722261
1.171989
1.1716868
1.1715075
1.1717016
1.1718488
1.0910297
1.1325847
1.1234047
1.141424
1.1462573
1.1565764
1.1650853
1.1736401
1.1815821
1.188887
1.1954297
1.2011494
1.2060179
1.2100414
1.2132542
1.2157106
1.2174787
1.2186339
1.2192535
1.2194131
1.219184
1.2186314
1.2178139
1.2167832
1.215584
1.2142549
1.2128288
1.2113335
1.2097922
1.2082243
1.2066459
1.2050702
1.2035082
1.2019685
1.2004582
1.1989831
1.1975474
1.1961545
1.194807
1.1935067
1.1922548
1.191052
1.1898986
1.1887945
1.1877393
1.1867325
1.1857732
1.1848605
1.1839933
1.1831703
1.1823903
1.1816519
1.1809537
1.1802941
1.1796718
1.1790852
1.1785327
1.1780128
1.1775241
1.1770649
1.1766337
1.176229
1.1758493
1.1754931
1.1751588
1.174845
1.1745504
1.1742739
1.1740143
1.1737687
1.1735338
1.1733098
1.1731043
1.1729221
1.1727387
1.1725026
1.1722264
1.172099
1.1723081
1.1724073
1.1061003
1.1489407
1.1426603
1.1613274
1.1688348
1.1798054
1.1891626
1.1979195
1.2056279
1.2122657
1.2177972
1.2222467
1.2256735
1.2281642
1.2298204
1.2307495
1.231058
1.2308464
1.2302066
1.2292201
1.227958
1.2264813
1.2248416
1.2230823
1.2212394
1.2193425
1.2174161
1.2154801
1.2135504
1.21164
1.2097594
1.2079165
1.2061179
1.2043684
1.2026716
1.2010303
1.1994463
1.1979206
1.196454
1.1950466
1.193698
1.1924078
1.1911751
1.1899989
1.188878
1.1878111
1.1867968
1.1858334
1.1849196
1.1840536
1.1832338
1.1824586
1.1817261
1.1810348
1.1803829
1.1797687
1.1791906
1.1786469
1.1781361
1.1776564
1.1772064
1.1767844
1.1763889
1.1760185
1.1756715
1.1753466
1.1750427
1.1747588
1.1744931
1.174243
1.1740059
1.173784
1.1735846
1.1734077
1.1732256
1.1729975
1.1727546
1.1726711
1.1728746
1.1729371
1.1265133
1.1703982
1.1679269
1.1866837
1.1965682
1.2076519
1.2168298
1.2246984
1.2310919
1.236077
1.2397498
1.242248
1.2437247
1.2443355
1.2442281
1.2435369
1.2423803
1.2408597
1.2390609
1.2370549
1.2349003
1.2326447
1.2303265
1.2279767
1.2256198
1.2232756
1.2209592
1.2186827
1.2164555
1.2142844
1.2121749
1.2101306
1.2081542
1.2062474
1.2044111
1.2026457
1.2009509
1.1993262
1.1977707
1.1962832
1.1948623
1.1935066
1.1922144
1.1909839
1.1898134
1.1887011
1.187645
1.1866432
1.1856938
1.1847949
1.1839445
1.1831409
1.182382
1.1816661
1.1809913
1.1803558
1.1797578
1.1791958
1.1786679
1.1781725
1.177708
1.1772729
1.1768656
1.1764846
1.1761285
1.1757959
1.1754859
1.1751974
1.1749285
1.1746765
1.1744403
1.174223
1.1740307
1.1738589
1.1736797
1.1734646
1.1732585
1.1732139
1.1734024
1.1734192
1.1548805
1.197752
1.2002991
1.2183835
1.2286345
1.2384984
1.2460923
1.2518131
1.255789
1.2582589
1.2594592
1.2596216
1.2589547
1.2576398
1.2558295
1.2536494
1.2512014
1.2485669
1.2458107
1.2429834
1.2401246
1.2372652
1.2344288
1.2316335
1.2288931
1.2262177
1.2236147
1.2210897
1.218646
1.2162861
1.2140112
1.2118217
1.2097173
1.2076974
1.2057607
1.2039059
1.2021313
1.200435
1.1988151
1.1972695
1.1957959
1.1943924
1.1930565
1.1917861
1.1905789
1.1894328
1.1883455
1.1873148
1.1863386
1.1854148
1.1845413
1.1837159
1.1829368
1.182202
1.1815096
1.1808576
1.1802444
1.1796681
1.179127
1.1786196
1.1781441
1.177699
1.1772829
1.1768942
1.1765316
1.1761939
1.1758801
1.175589
1.1753187
1.175067
1.1748338
1.1746226
1.1744372
1.17427
1.174096
1.1738987
1.173729
1.1737124
1.1738775
1.1738688
1.1937685
1.2328063
1.2385699
1.2538813
1.2630062
1.2699094
1.2742848
1.2766804
1.2774571
1.2769806
1.2755503
1.2734139
1.270768
1.2677667
1.2645286
1.2611444
1.2576827
1.2541953
1.2507206
1.2472871
1.2439158
1.2406218
1.2374158
1.2343051
1.2312946
1.2283871
1.225584
1.2228856
1.2202914
1.2178
1.21541
1.2131192
1.2109254
1.2088262
1.206819
1.2049011
1.2030698
1.2013225
1.1996564
1.1980687
1.1965569
1.1951183
1.1937502
1.1924501
1.1912154
1.1900438
1.1889327
1.1878799
1.1868829
1.1859397
1.1850479
1.1842055
1.1834104
1.1826605
1.1819539
1.1812887
1.1806631
1.1800753
1.1795237
1.1790065
1.1785222
1.1780692
1.177646
1.1772513
1.1768838
1.1765423
1.1762259
1.1759332
1.1756625
1.1754124
1.1751831
1.1749779
1.1747982
1.1746354
1.1744697
1.1742945
1.1741577
1.1741529
1.1742816
1.1742591
1.2413625
1.2739017
1.2810527
1.2908451
1.2957408
1.2980701
1.2982229
1.2968487
1.2943808
1.2911647
1.287453
1.2834315
1.2792344
1.2749585
1.2706726
1.2664252
1.2622503
1.2581715
1.2542043
1.2503591
1.2466418
1.2430558
1.2396021
1.2362804
1.2330891
1.2300259
1.2270882
1.2242728
1.2215763
1.2189951
1.2165258
1.2141647
1.2119082
1.2097528
1.2076949
1.2057312
1.2038584
1.202073
1.200372
1.1987522
1.1972106
1.1957443
1.1943504
1.1930263
1.191769
1.1905762
1.1894451
1.1883734
1.1873587
1.1863986
1.1854909
1.1846334
1.183824
1.1830606
1.1823413
1.1816642
1.1810274
1.1804291
1.1798678
1.1793417
1.1788492
1.1783889
1.1779593
1.1775591
1.177187
1.176842
1.1765231
1.1762289
1.175958
1.1757094
1.1754838
1.1752832
1.1751073
1.1749484
1.1747932
1.1746419
1.1745319
1.1745236
1.1746054
1.1745795
1.2954371
1.3160919
1.320639
1.3230011
1.322202
1.3195485
1.3156546
1.3110097
1.3059352
1.3006483
1.295293
1.2899642
1.2847235
1.2796102
1.2746486
1.2698528
1.26523
1.260783
1.2565114
1.2524127
1.2484832
1.2447184
1.241113
1.2376618
1.2343594
1.2312002
1.228179
1.2252905
1.2225297
1.2198915
1.2173714
1.2149647
1.212667
1.2104742
1.2083823
1.2063872
1.2044854
1.2026733
1.2009473
1.1993041
1.1977407
1.1962538
1.1948404
1.1934978
1.1922231
1.1910136
1.1898667
1.1887799
1.1877508
1.186777
1.1858563
1.1849863
1.1841651
1.1833906
1.1826606
1.1819735
1.1813273
1.1807203
1.1801507
1.1796171
1.1791177
1.1786512
1.1782161
1.1778111
1.1774351
1.177087
1.1767658
1.1764702
1.176199
1.1759518
1.1757289
1.1755312
1.1753576
1.1752024
1.1750583
1.1749281
1.1748368
1.1748176
1.1748569
1.1748356
1.3483058
1.3516035
1.3503769
1.3459112
1.3400754
1.3334956
1.3266358
1.3197376
1.3129472
1.3063438
1.2999702
1.2938466
1.2879801
1.2823697
1.2770099
1.2718927
1.2670085
1.2623473
1.257899
1.2536536
1.2496016
1.2457336
1.242041
1.2385155
1.2351494
1.2319354
1.2288665
1.2259364
1.223139
1.2204685
1.2179195
1.2154869
1.213166
1.210952
1.2088406
1.2068278
1.2049095
1.203082
1.2013416
1.199685
1.1981088
1.1966098
1.195185
1.1938314
1.1925462
1.1913267
1.1901703
1.1890743
1.1880363
1.187054
1.1861251
1.1852473
1.1844185
1.1836367
1.1828999
1.1822062
1.1815537
1.1809408
1.1803657
1.1798268
1.1793226
1.1788517
1.1784125
1.178004
1.1776249
1.1772741
1.1769507
1.1766535
1.1763816
1.1761346
1.1759126
1.1757157
1.1755426
1.1753898
1.1752541
1.1751388
1.1750575
1.1750252
1.1750319
1.1750188
1.3823472
1.374768
1.3672251
1.3589581
1.3503684
1.3418708
1.3336312
1.3257241
1.3181779
1.3109959
1.3041696
1.2976843
1.2915229
1.2856675
1.2801003
1.2748044
1.2697638
1.2649637
1.2603902
1.2560306
1.2518733
1.2479073
1.2441226
1.2405102
1.2370614
1.2337684
1.2306237
1.2276207
1.2247529
1.2220144
1.2193995
1.2169031
1.2145201
1.212246
1.2100762
1.2080067
1.2060333
1.2041524
1.2023602
1.2006533
1.1990283
1.1974821
1.1960117
1.194614
1.1932861
1.1920255
1.1908294
1.1896952
1.1886206
1.187603
1.1866403
1.1857302
1.1848706
1.1840593
1.1832944
1.182574
1.1818962
1.1812593
1.1806616
1.1801015
1.1795774
1.1790877
1.1786313
1.1782067
1.1778129
1.1774487
1.1771131
1.1768051
1.1765238
1.1762689
1.1760402
1.1758373
1.1756589
1.1755031
1.1753689
1.1752589
1.1751799
1.1751373
1.1751252
1.1751182
1.1637219
1.1683947
1.1830517
1.1950059
1.2005369
1.2018079
1.2018785
1.2015471
1.2015821
1.2012891
1.2010247
1.2004795
1.1998872
1.1992435
1.198555
1.197826
1.1970611
1.1962659
1.1954453
1.1946035
1.1937444
1.1928715
1.191988
1.1910969
1.1902008
1.1893019
1.1884027
1.1875049
1.1866105
1.1857212
1.1848386
1.1839642
1.1830994
1.1822456
1.181404
1.1805761
1.1797628
1.1789656
1.1781855
1.1774237
1.1766814
1.1759597
1.1752597
1.1745825
1.1739292
1.1733008
1.1726983
1.1721226
1.1715748
1.1710555
1.1705656
1.1701056
1.1696761
1.1692774
1.1689098
1.1685734
1.168268
1.1679933
1.1677489
1.1675339
1.1673472
1.1671871
1.1670521
1.1669401
1.1668487
1.1667743
1.1667154
1.1666642
1.1666271
1.1665788
1.1665621
1.1664774
1.1665061
1.1663094
1.1664638
1.1659966
1.1664202
1.1655131
1.1662887
1.1647892
1.1594676
1.1704445
1.1868695
1.1952661
1.1975465
1.1974578
1.1969269
1.1966785
1.1963623
1.1960615
1.1956708
1.1952745
1.1948315
1.1943523
1.1938337
1.1932832
1.1927016
1.1920917
1.1914558
1.1907963
1.1901155
1.1894158
1.1886993
1.1879684
1.1872252
1.1864719
1.1857107
1.1849436
1.1841726
1.1833998
1.1826269
1.181856
1.1810887
1.1803269
1.1795722
1.1788262
1.1780908
1.1773673
1.1766573
1.1759624
1.175284
1.1746236
1.1739825
1.173362
1.1727636
1.1721884
1.1716376
1.1711123
1.1706135
1.1701423
1.1696993
1.1692854
1.168901
1.1685465
1.1682222
1.1679282
1.1676643
1.1674301
1.1672251
1.1670484
1.1668986
1.1667742
1.1666735
1.1665943
1.1665341
1.1664894
1.1664582
1.1664336
1.1664204
1.1663964
1.1663985
1.166338
1.1663776
1.1662065
1.1663617
1.1659276
1.1663483
1.1654593
1.1662588
1.1647235
1.1600312
1.1735465
1.1853874
1.1918009
1.1927816
1.1923033
1.1917976
1.1915388
1.1912472
1.1909657
1.1906342
1.1902996
1.1899297
1.1895467
1.1891364
1.1887061
1.1882526
1.1877779
1.1872823
1.1867664
1.1862314
1.1856782
1.1851081
1.1845222
1.1839221
1.1833092
1.182685
1.182051
1.1814091
1.1807608
1.1801079
1.1794522
1.1787954
1.1781394
1.1774859
1.1768368
1.1761937
1.1755586
1.1749332
1.1743191
1.1737181
1.1731319
1.1725621
1.1720103
1.1714779
1.1709664
1.1704772
1.1700116
1.1695707
1.1691557
1.1687673
1.1684065
1.1680737
1.1677696
1.1674942
1.1672478
1.16703
1.1668406
1.1666789
1.1665439
1.1664343
1.1663485
1.1662845
1.1662403
1.1662132
1.1661998
1.1661979
1.166201
1.1662129
1.1662136
1.1662359
1.166199
1.1662515
1.1661037
1.1662632
1.165858
1.1662781
1.1654055
1.1662285
1.1646607
1.1578294
1.1722999
1.183057
1.187804
1.1876444
1.1872555
1.1868124
1.1866134
1.1862973
1.1860459
1.1857338
1.1854505
1.1851355
1.1848239
1.1844917
1.1841508
1.1837946
1.1834253
1.1830415
1.1826432
1.1822302
1.1818025
1.1813604
1.1809042
1.1804344
1.1799517
1.179457
1.1789513
1.1784356
1.1779113
1.1773796
1.1768421
1.1763002
1.1757557
1.1752101
1.1746652
1.1741228
1.1735846
1.1730526
1.1725284
1.172014
1.1715111
1.1710216
1.1705471
1.1700893
1.1696498
1.1692302
1.1688318
1.168456
1.168104
1.1677767
1.167475
1.1671997
1.1669511
1.1667296
1.1665353
1.1663679
1.166227
1.1661121
1.1660221
1.1659555
1.1659106
1.1658857
1.1658784
1.1658861
1.1659054
1.165934
1.1659658
1.1660038
1.1660296
1.166073
1.1660596
1.1661264
1.1660002
1.1661669
1.1657868
1.1662102
1.1653521
1.1661973
1.1646016
1.1522491
1.1687359
1.1786614
1.1822247
1.1816826
1.1815946
1.181234
1.1811729
1.1809306
1.1807961
1.1805739
1.1803986
1.1801805
1.1799751
1.1797475
1.1795152
1.1792684
1.1790109
1.1787408
1.1784578
1.1781619
1.1778528
1.1775305
1.1771951
1.1768468
1.1764859
1.176113
1.1757287
1.1753337
1.1749288
1.1745152
1.1740939
1.1736663
1.1732336
1.1727974
1.1723591
1.1719206
1.1714834
1.1710493
1.1706202
1.1701979
1.1697843
1.1693811
1.1689901
1.1686132
1.168252
1.1679081
1.1675831
1.1672784
1.1669951
1.1667344
1.1664973
1.1662843
1.1660961
1.1659329
1.1657947
1.1656815
1.1655928
1.1655278
1.1654856
1.1654646
1.1654631
1.1654792
1.1655106
1.1655546
1.1656079
1.1656681
1.1657294
1.1657943
1.1658458
1.165911
1.1659209
1.1660029
1.1658976
1.1660728
1.1657163
1.166144
1.1652996
1.166166
1.1645457
1.1462375
1.165186
1.1737298
1.1766503
1.1759548
1.1761252
1.1758091
1.1758862
1.1757088
1.1756864
1.1755455
1.1754721
1.1753435
1.1752364
1.1751038
1.1749698
1.1748208
1.174663
1.1744938
1.1743134
1.1741218
1.1739185
1.1737035
1.1734768
1.1732384
1.1729884
1.172727
1.1724546
1.1721717
1.1718787
1.1715765
1.171266
1.170948
1.1706237
1.1702944
1.1699614
1.1696262
1.1692904
1.1689555
1.1686234
1.1682957
1.1679743
1.167661
1.1673575
1.1670657
1.1667872
1.1665237
1.1662767
1.1660476
1.1658377
1.1656482
1.1654799
1.1653335
1.1652097
1.1651086
1.1650304
1.1649747
1.1649412
1.164929
1.1649372
1.164964
1.1650079
1.1650668
1.1651384
1.1652201
1.1653086
1.1654012
1.1654929
1.1655851
1.1656627
1.1657501
1.1657832
1.1658811
1.1657966
1.1659809
1.1656467
1.1660797
1.1652484
1.1661363
1.1644925
1.1410107
1.1618162
1.1688573
1.1714697
1.1706683
1.1710424
1.170734
1.1709223
1.170784
1.1708506
1.1707724
1.1707864
1.1707329
1.1707038
1.1706451
1.1705905
1.1705224
1.1704486
1.1703654
1.1702735
1.1701722
1.1700613
1.1699404
1.1698095
1.1696684
1.169517
1.1693555
1.1691839
1.1690026
1.1688118
1.1686122
1.1684044
1.168189
1.1679671
1.1677396
1.1675077
1.1672727
1.167036
1.166799
1.1665632
1.1663304
1.1661022
1.1658803
1.1656663
1.165462
1.165269
1.165089
1.1649233
1.1647734
1.1646406
1.1645258
1.1644299
1.1643537
1.1642977
1.164262
1.1642467
1.1642515
1.1642758
1.164319
1.1643797
1.1644565
1.1645475
1.1646507
1.1647639
1.1648843
1.1650088
1.1651347
1.1652572
1.1653773
1.1654812
1.165591
1.165647
1.1657614
1.165698
1.1658912
1.1655787
1.1660173
1.1651991
1.1661096
1.1644407
1.1361474
1.1587734
1.1642838