/*--------------------------------*- C++ -*----------------------------------*\
  =========                 |
  \\      /  F ield         | OpenFOAM: The Open Source CFD Toolbox
   \\    /   O peration     | Website:  https://openfoam.org
    \\  /    A nd           | Version:  12
     \\/     M anipulation  |
\*---------------------------------------------------------------------------*/
FoamFile
{
    format      ascii;
    class       volScalarField;
    location    "0.146";
    object      T;
}
// * * * * * * * * * * * * * * * * * * * * * * * * * * * * * * * * * * * * * //

dimensions      [0 0 0 1 0 0 0];

internalField   nonuniform List<scalar> 
16000
(
294.51448
286.05882
289.30652
287.5505
288.65675
288.14946
288.57137
288.46079
288.65742
288.69139
288.81227
288.89706
289.00238
289.10509
289.21376
289.32574
289.44183
289.5619
289.68602
289.81421
289.94648
290.0828
290.22316
290.36751
290.51575
290.66781
290.82354
290.98281
291.14542
291.31116
291.47979
291.65105
291.82462
292.0002
292.17741
292.3559
292.53526
292.71509
292.89495
293.07442
293.25307
293.43046
293.60618
293.7798
293.95095
294.11924
294.28434
294.44593
294.60373
294.7575
294.90702
295.05214
295.19272
295.32868
295.45997
295.58658
295.70855
295.82595
295.93889
296.04753
296.15204
296.25265
296.34959
296.44312
296.53358
296.62134
296.70679
296.7904
296.87267
296.95419
297.03564
297.11773
297.20106
297.28603
297.37302
297.46274
297.56179
297.64168
297.80323
297.83798
294.20934
285.6565
289.07889
287.19534
288.36883
287.82466
288.28174
288.16187
288.37288
288.41239
288.54025
288.63397
288.74647
288.85803
288.97513
289.09612
289.2214
289.35097
289.48483
289.62302
289.7655
289.91226
290.06321
290.2183
290.37739
290.54036
290.70704
290.87722
291.05067
291.22713
291.40631
291.58788
291.77148
291.95673
292.14322
292.33053
292.51822
292.70582
292.89288
293.07893
293.26352
293.4462
293.62652
293.8041
293.97854
294.14948
294.31662
294.47967
294.63839
294.79258
294.94208
295.08677
295.22659
295.36149
295.49148
295.61661
295.73695
295.85263
295.96379
296.07062
296.17334
296.27217
296.36738
296.45925
296.54811
296.63434
296.71834
296.80059
296.88159
296.96194
297.04232
297.12348
297.20604
297.29041
297.37704
297.46727
297.56134
297.65636
297.78971
297.85873
293.91841
285.28152
288.81501
286.88372
288.09709
287.54283
288.0137
287.90163
288.11755
288.1689
288.30229
288.40659
288.52722
288.64856
288.77526
288.90632
289.04193
289.18213
289.32689
289.47621
289.63003
289.7883
289.95092
290.11776
290.28866
290.46345
290.6419
290.82375
291.00872
291.19647
291.38664
291.57885
291.77268
291.96768
292.16337
292.35928
292.5549
292.74974
292.9433
293.13507
293.32459
293.5114
293.69506
293.87518
294.05139
294.22338
294.39087
294.55362
294.71146
294.86424
295.01186
295.15428
295.29149
295.42351
295.55041
295.67231
295.78933
295.90164
296.00944
296.11295
296.21242
296.30811
296.40029
296.48927
296.57538
296.659
296.74055
296.8205
296.89935
296.9777
297.05625
297.13574
297.21681
297.29989
297.3855
297.47452
297.56681
297.66674
297.78584
297.87074
293.65142
284.93775
288.58229
286.60955
287.85914
287.29464
287.7796
287.67689
287.89826
287.96296
288.1029
288.219
288.34908
288.48139
288.61897
288.76132
288.90848
289.06048
289.21727
289.37881
289.54502
289.7158
289.891
290.07046
290.25396
290.44127
290.6321
290.82612
291.02297
291.22226
291.42354
291.62635
291.83019
292.03455
292.23889
292.44266
292.64532
292.84632
293.04513
293.24123
293.43414
293.62341
293.80863
293.98943
294.16549
294.33654
294.50236
294.66279
294.81773
294.96709
295.11087
295.2491
295.38183
295.50918
295.63127
295.74828
295.86041
295.96786
296.07089
296.16974
296.26471
296.35607
296.44412
296.52917
296.61156
296.69167
296.76992
296.84678
296.92276
296.99844
297.07452
297.15173
297.23075
297.31204
297.39608
297.4833
297.57444
297.67494
297.78521
297.88058
293.40865
284.63085
288.37604
286.38125
287.66653
287.08837
287.58366
287.49492
287.72031
287.80098
287.94826
288.07748
288.21838
288.3628
288.5125
288.66729
288.82714
288.99206
289.16198
289.33682
289.51646
289.70076
289.88952
290.0825
290.27944
290.48001
290.68384
290.89053
291.09962
291.31062
291.52302
291.73624
291.94972
292.16285
292.37503
292.58567
292.79415
292.99991
293.2024
293.40109
293.59552
293.78526
293.96994
294.14925
294.32293
294.4908
294.65271
294.80859
294.95841
295.10221
295.24006
295.37207
295.49839
295.61921
295.73473
295.84518
295.95083
296.05193
296.14878
296.24166
296.33088
296.41676
296.49959
296.5797
296.65742
296.73314
296.80727
296.88027
296.95265
297.02498
297.09795
297.17228
297.24865
297.32759
297.40942
297.49438
297.58401
297.68299
297.78741
297.88885
293.19387
284.36715
288.20097
286.1911
287.49909
286.93046
287.43668
287.362
287.59098
287.68877
287.84423
287.98736
288.14022
288.29767
288.46056
288.62888
288.80256
288.98158
289.16581
289.35516
289.54942
289.74839
289.95178
290.15929
290.37054
290.58511
290.80253
291.02229
291.24381
291.46651
291.68976
291.9129
292.13527
292.35618
292.57497
292.791
293.00362
293.21225
293.41635
293.61542
293.80903
293.99681
294.17846
294.35375
294.52253
294.68469
294.84021
294.98912
295.13151
295.2675
295.39728
295.52104
295.63903
295.75151
295.85877
295.96108
296.05877
296.15215
296.24153
296.32725
296.40962
296.48897
296.56562
296.63989
296.71211
296.78265
296.85192
296.92038
296.98851
297.05688
297.12615
297.19704
297.27024
297.34629
297.42535
297.50766
297.59517
297.69136
297.79105
297.89633
293.01009
284.14861
288.05945
286.03777
287.36774
286.82263
287.32725
287.28094
287.50926
287.62807
287.79272
287.95054
288.11677
288.28855
288.46613
288.64954
288.83867
289.03342
289.23361
289.43904
289.64943
289.86447
290.08379
290.30694
290.53344
290.76274
290.99423
291.22728
291.4612
291.69527
291.92874
292.16086
292.39089
292.61807
292.84169
293.06107
293.27558
293.48465
293.68775
293.88447
294.07445
294.2574
294.43315
294.60157
294.76262
294.91635
295.06284
295.20226
295.33481
295.46073
295.58031
295.69384
295.80166
295.9041
296.00151
296.09423
296.18262
296.26703
296.34781
296.42531
296.49985
296.57178
296.64142
296.70906
296.77505
296.83974
296.90351
296.96682
297.03013
297.094
297.15905
297.22598
297.2955
297.36813
297.44392
297.52319
297.60802
297.70049
297.79582
297.9035
292.85511
283.97315
287.94858
285.91991
287.26644
286.74803
287.25517
287.2185
287.47751
287.61733
287.79377
287.96816
288.15024
288.3386
288.5332
288.73398
288.94078
289.15341
289.37158
289.595
289.82328
290.05596
290.29254
290.53243
290.775
291.01954
291.26531
291.51151
291.75731
292.00188
292.24436
292.4839
292.71969
292.95093
293.17689
293.39689
293.61035
293.81674
294.01564
294.20672
294.38976
294.5646
294.73121
294.88961
295.03993
295.18234
295.31709
295.44447
295.56481
295.67848
295.78584
295.88731
295.98327
296.07414
296.16031
296.24217
296.32012
296.39452
296.46575
296.53415
296.60007
296.66385
296.72578
296.78618
296.84535
296.90363
296.96139
297.01905
297.07707
297.13597
297.19634
297.25887
297.32427
297.393
297.46508
297.54096
297.62257
297.71052
297.80155
297.91067
292.72395
283.8388
287.87158
285.83782
287.21498
286.74519
287.24547
287.26867
287.49934
287.66062
287.85243
288.04597
288.24689
288.45462
288.66893
288.88971
289.11668
289.34955
289.58791
289.83132
290.07923
290.33104
290.58606
290.84353
291.10264
291.3625
291.62219
291.88077
292.13726
292.3907
292.64015
292.88468
293.12345
293.35566
293.5806
293.79767
294.00636
294.20628
294.39714
294.57877
294.75111
294.9142
295.06818
295.21326
295.34973
295.47794
295.59828
295.71118
295.81709
295.91649
296.00984
296.09762
296.18029
296.2583
296.33209
296.40209
296.46868
296.53227
296.59322
296.65188
296.70859
296.76366
296.8174
296.87008
296.922
296.97346
297.02482
297.07645
297.12881
297.18238
297.23771
297.29546
297.35634
297.42075
297.48873
297.56092
297.63875
297.7215
297.80829
297.91801
292.61589
283.74785
287.8341
285.80678
287.21827
286.78344
287.28134
287.3339
287.5793
287.76691
287.97766
288.19296
288.41576
288.64575
288.88265
289.12618
289.37593
289.63145
289.89218
290.15748
290.4266
290.69874
290.97298
291.24835
291.52383
291.79834
292.07078
292.34003
292.605
292.86463
293.11792
293.36393
293.60182
293.83087
294.05048
294.26017
294.45959
294.64855
294.82696
294.99487
295.15244
295.29994
295.4377
295.56614
295.68574
295.797
295.90047
295.99671
296.08626
296.1697
296.24755
296.32036
296.38862
296.45281
296.5134
296.5708
296.62543
296.67766
296.72786
296.77636
296.82348
296.86952
296.91475
296.95943
297.00382
297.0482
297.09289
297.13826
297.1847
297.23267
297.28269
297.33539
297.39143
297.45116
297.51474
297.58297
297.65655
297.73355
297.81612
297.92555
292.53469
283.70841
287.84213
285.89471
287.28035
286.88642
287.37688
287.47408
287.72923
287.9448
288.17854
288.41873
288.66674
288.92224
289.18481
289.45401
289.72923
290.00982
290.29496
290.58379
290.8753
291.16841
291.46195
291.75472
292.04543
292.33282
292.6156
292.89254
293.16245
293.42423
293.67688
293.91953
294.15146
294.37211
294.58104
294.77803
294.96297
295.13593
295.29709
295.44679
295.58543
295.71351
295.8316
295.94032
296.04032
296.13225
296.21678
296.29457
296.36625
296.43245
296.49375
296.5507
296.60382
296.65361
296.7005
296.74493
296.78728
296.82791
296.86715
296.90532
296.94271
296.97958
297.01619
297.05276
297.08952
297.12672
297.16464
297.20361
297.244
297.28622
297.33077
297.37823
297.42918
297.48395
297.54292
297.60698
297.67585
297.7468
297.82523
297.93331
292.48676
283.73345
287.9041
286.03304
287.38924
287.05912
287.54313
287.68589
287.95791
288.20414
288.46528
288.73406
289.011
289.29555
289.58714
289.88506
290.18843
290.49631
290.80759
291.12105
291.43538
291.74918
292.06099
292.36932
292.67268
292.96962
293.25871
293.53866
293.80827
294.0665
294.31247
294.54551
294.76511
294.97099
295.16304
295.34133
295.50612
295.65779
295.79685
295.92391
296.03967
296.14486
296.24026
296.32666
296.40485
296.4756
296.53967
296.59779
296.65062
296.69882
296.74297
296.78364
296.82134
296.85652
296.88962
296.92103
296.9511
296.98016
297.00851
297.03643
297.06416
297.09196
297.12002
297.14855
297.17773
297.20779
297.23897
297.27155
297.30587
297.34231
297.38133
297.42345
297.46916
297.51879
297.573
297.6327
297.69648
297.76129
297.83582
297.94136
292.47694
283.82904
288.0302
286.22455
287.56372
287.30882
287.78902
287.98099
288.27578
288.55603
288.84946
289.15116
289.46123
289.77878
290.10293
290.43261
290.7666
291.10352
291.44187
291.78004
292.11633
292.44901
292.77631
293.0965
293.40789
293.70892
293.99816
294.27435
294.53643
294.78359
295.01523
295.23101
295.43083
295.61478
295.78319
295.93655
296.07549
296.20076
296.31321
296.41374
296.50327
296.58276
296.65314
296.71534
296.77024
296.81869
296.86146
296.89931
296.93292
296.96291
296.98987
297.01431
297.03672
297.05751
297.07706
297.09573
297.11383
297.13164
297.14941
297.16738
297.18576
297.20476
297.22453
297.24524
297.26706
297.29017
297.31475
297.34108
297.36943
297.40016
297.43368
297.47047
297.51086
297.55526
297.60467
297.65982
297.71817
297.77693
297.84803
297.94957
292.50722
284.00279
288.22548
286.50235
287.81385
287.64345
288.12509
288.36958
288.69483
289.01372
289.34501
289.68476
290.03266
290.38737
290.74754
291.11162
291.47787
291.84443
292.20931
292.57046
292.92577
293.27317
293.61065
293.93632
294.24842
294.54545
294.82612
295.08945
295.33474
295.56159
295.76989
295.95983
296.13181
296.28646
296.42458
296.54711
296.65508
296.74959
296.83177
296.90277
296.96369
297.01563
297.05963
297.09666
297.12765
297.15344
297.17481
297.19249
297.20712
297.21927
297.22947
297.2382
297.24586
297.25283
297.25943
297.26595
297.27265
297.27976
297.28748
297.29601
297.30552
297.31615
297.32804
297.34132
297.35611
297.37257
297.39084
297.41115
297.43373
297.45892
297.48709
297.51861
297.55372
297.59294
297.63753
297.68793
297.74062
297.79368
297.86188
297.95775
292.58249
284.26791
288.4933
286.86813
288.15159
288.07469
288.56521
288.86644
289.23082
289.5944
289.96981
290.35323
290.74374
291.1394
291.53822
291.93802
292.33646
292.73109
293.11941
293.4989
293.86711
294.22174
294.56066
294.88202
295.18427
295.46621
295.72702
295.96626
296.18385
296.38005
296.55543
296.7108
296.84718
296.96575
297.0678
297.15468
297.22775
297.28839
297.33794
297.37768
297.40882
297.43252
297.44981
297.46169
297.46903
297.47265
297.47325
297.47149
297.46795
297.46313
297.45748
297.45139
297.44521
297.43924
297.43375
297.42895
297.42504
297.42221
297.4206
297.42036
297.42161
297.42446
297.429
297.43534
297.44356
297.45377
297.46611
297.48072
297.49783
297.51773
297.54075
297.56717
297.59714
297.63132
297.67113
297.71653
297.76342
297.81135
297.87699
297.96614
292.7071
284.64285
288.82985
287.33621
288.59083
288.61785
289.12767
289.49154
289.90477
290.32022
290.74626
291.17866
291.61567
292.05459
292.49265
292.92694
293.3544
293.77199
294.17669
294.56566
294.93627
295.28625
295.61369
295.91716
296.1957
296.44883
296.67653
296.87921
297.05765
297.21292
297.34635
297.45944
297.55377
297.63103
297.69289
297.741
297.77694
297.80225
297.81833
297.82652
297.82803
297.82396
297.81532
297.80299
297.78779
297.77042
297.75151
297.7316
297.71119
297.69067
297.67043
297.65075
297.63191
297.61413
297.5976
297.5825
297.56895
297.55707
297.54697
297.53874
297.53247
297.52821
297.52604
297.52601
297.52819
297.53265
297.53948
297.5488
297.5608
297.57574
297.59389
297.61542
297.64048
297.66988
297.70498
297.74509
297.78611
297.82969
297.89309
297.97438
292.88569
285.15732
289.2426
287.92454
289.15289
289.29627
289.83835
290.27196
290.74377
291.21814
291.70031
292.18537
292.6705
293.15204
293.62631
294.08951
294.53792
294.96795
295.37635
295.76026
296.11735
296.44589
296.74477
297.0135
297.25218
297.46145
297.64238
297.79643
297.92531
298.03095
298.11535
298.18059
298.22871
298.26169
298.28145
298.28976
298.28828
298.27855
298.26193
298.23969
298.21293
298.18266
298.14975
298.11498
298.07901
298.04244
298.00576
297.96942
297.93378
297.89916
297.86582
297.83399
297.80384
297.77553
297.74919
297.7249
297.70276
297.68282
297.66516
297.6498
297.6368
297.62618
297.61797
297.61221
297.60893
297.60817
297.60998
297.61447
297.62177
297.63212
297.64572
297.66264
297.68311
297.70804
297.73853
297.77314
297.80821
297.84811
297.90957
297.98213
293.12982
285.85812
289.7746
288.6643
289.86864
290.14121
290.72978
291.24001
291.77881
292.31777
292.8593
293.39756
293.92828
294.44666
294.94796
295.42764
295.88156
296.30612
296.69843
297.05641
297.37877
297.66508
297.91565
298.13144
298.314
298.46529
298.58756
298.68328
298.755
298.80529
298.83665
298.85148
298.85204
298.84043
298.81856
298.78819
298.75088
298.70803
298.66087
298.6105
298.55787
298.5038
298.44902
298.39413
298.33966
298.28606
298.23369
298.18288
298.13388
298.08691
298.04213
297.99969
297.95968
297.92219
297.88729
297.855
297.82536
297.7984
297.77411
297.75252
297.73361
297.71739
297.70385
297.69302
297.68488
297.67946
297.67678
297.6769
297.67996
297.68612
297.69551
297.70815
297.72438
297.74521
297.77123
297.80027
297.82951
297.86604
297.92559
297.98944
293.46627
286.72902
290.45286
289.59266
290.77581
291.18743
291.83819
292.43172
293.04391
293.65029
294.25001
294.83591
295.40205
295.94254
296.45201
296.92587
297.36051
297.75339
298.10311
298.40933
298.67272
298.89479
299.07771
299.22417
299.33716
299.41987
299.47553
299.50734
299.51835
299.51147
299.48936
299.45448
299.40904
299.35502
299.29418
299.22807
299.15804
299.08528
299.01079
298.93546
298.86002
298.78512
298.71128
298.63895
298.5685
298.50025
298.43442
298.37122
298.3108
298.25328
298.19874
298.14725
298.09884
298.05353
298.01131
297.9722
297.93615
297.90316
297.8732
297.84623
297.82223
297.80116
297.783
297.76774
297.75535
297.74582
297.73917
297.73543
297.73469
297.73708
297.74262
297.75135
297.76374
297.78077
297.80251
297.82623
297.85007
297.88321
297.94024
297.99785
293.93526
287.71287
291.31962
290.74534
291.91839
292.47685
293.20651
293.88904
294.57624
295.24559
295.89255
296.50864
297.08695
297.62149
298.1077
298.54251
298.9244
299.25334
299.53056
299.75838
299.9399
300.0788
300.17909
300.2449
300.28035
300.28941
300.27583
300.24308
300.19431
300.13237
300.05978
299.97878
299.89132
299.79909
299.70354
299.60595
299.50736
299.40869
299.31071
299.21403
299.11921
299.02667
298.93677
298.84978
298.76594
298.68542
298.60835
298.53481
298.46487
298.39856
298.33589
298.27685
298.22142
298.16957
298.12125
298.0764
298.03498
297.99692
297.96216
297.93064
297.90232
297.87712
297.85501
297.83594
297.81987
297.80678
297.79665
297.78952
297.78543
297.78445
297.78653
297.79175
297.80069
297.81423
297.83187
297.85066
297.86997
297.90022
297.95417
298.00541
294.59254
288.98158
292.42278
292.1744
293.3572
294.06773
294.8874
295.65655
296.40731
297.1189
297.78409
298.39462
298.9447
299.43065
299.85094
300.20607
300.49821
300.73087
300.90855
301.0363
301.11951
301.16356
301.17371
301.15489
301.11168
301.04821
300.9682
300.87491
300.7712
300.65955
300.5421
300.42066
300.29679
300.17179
300.04676
299.92261
299.80012
299.67988
299.56243
299.44816
299.3374
299.2304
299.12736
299.02841
298.93365
298.84313
298.7569
298.67494
298.59724
298.52376
298.45445
298.38925
298.32808
298.27086
298.21752
298.16795
298.12209
298.07982
298.04108
298.00577
297.97382
297.94515
297.9197
297.8974
297.87819
297.86204
297.84891
297.83882
297.8318
297.82783
297.82684
297.82898
297.83487
297.84517
297.85889
297.87322
297.88889
297.9169
297.96717
298.01104
295.49486
290.5959
293.84798
293.9594
295.17112
296.02742
296.92838
297.75986
298.53782
299.24541
299.87633
300.42591
300.89288
301.27867
301.58697
301.82314
301.99364
302.10553
302.16605
302.18226
302.16085
302.10796
302.02916
301.92935
301.81285
301.68338
301.54413
301.39782
301.24673
301.0928
300.93762
300.78253
300.62862
300.47679
300.32777
300.18215
300.04039
299.90286
299.76983
299.64152
299.51806
299.39957
299.28608
299.17762
299.07418
298.97572
298.8822
298.79353
298.70965
298.63044
298.55581
298.48566
298.41987
298.35833
298.30091
298.24752
298.19802
298.15232
298.11031
298.07187
298.03692
298.00536
297.97711
297.95209
297.93022
297.91146
297.89576
297.88313
297.87355
297.86695
297.86328
297.86273
297.86595
297.87324
297.88327
297.89366
297.90644
297.93243
297.97822
298.0144
296.62416
292.68025
295.70075
296.18395
297.42646
298.39958
299.33646
300.16989
300.90637
301.53721
302.06246
302.48505
302.81114
303.0489
303.20775
303.29759
303.32822
303.30894
303.24826
303.15384
303.03239
302.88971
302.73074
302.55967
302.38
302.19465
302.00603
301.8161
301.62649
301.43851
301.2532
301.07143
300.89384
300.72097
300.55322
300.39087
300.23415
300.08321
299.93812
299.79894
299.66567
299.53827
299.4167
299.30087
299.19069
299.08606
298.98685
298.89294
298.8042
298.72049
298.64167
298.56761
298.49814
298.43315
298.37248
298.316
298.26358
298.21509
298.17041
298.12941
298.09199
298.05804
298.02746
298.00016
297.97606
297.95508
297.9372
297.92238
297.91057
297.90168
297.89567
297.89282
297.89366
297.89816
297.90479
297.91181
297.92221
297.94592
297.98643
298.01557
298.15768
295.34711
298.07634
298.90111
300.11847
301.15281
302.036
302.77354
303.37454
303.84295
304.18931
304.42612
304.56729
304.62686
304.61823
304.5537
304.44418
304.29914
304.12665
303.93346
303.72518
303.50643
303.28097
303.05183
302.82147
302.59186
302.36455
302.14077
301.92149
301.70745
301.49922
301.29723
301.10176
300.91304
300.7312
300.55629
300.38834
300.22733
300.07319
299.92583
299.78516
299.65105
299.52335
299.40192
299.28661
299.17726
299.07369
298.97574
298.88325
298.79604
298.71394
298.6368
298.56444
298.49671
298.43345
298.3745
298.31972
298.26898
298.22212
298.17902
298.13957
298.10363
298.07112
298.04191
298.01592
297.99308
297.97333
297.95663
297.94289
297.93201
297.92399
297.91915
297.91786
297.91978
297.92337
297.92755
297.93592
297.95709
297.99214
298.01574
300.13687
298.66633
300.9703
302.0852
303.27229
304.13923
304.84776
305.3764
305.74774
305.98033
306.09551
306.11353
306.05306
305.93052
305.75992
305.55296
305.31923
305.0665
304.801
304.52767
304.25041
303.97228
303.69568
303.42245
303.15399
302.8914
302.63548
302.3868
302.14581
301.91276
301.68786
301.47117
301.26273
301.06252
300.87044
300.68641
300.51028
300.34192
300.18115
300.02779
299.88165
299.74256
299.6103
299.48468
299.3655
299.25257
299.14567
299.04463
298.94923
298.8593
298.77464
298.69507
298.62042
298.5505
298.48516
298.42422
298.36753
298.31493
298.26629
298.22146
298.18032
298.14273
298.10858
298.07777
298.05018
298.02575
298.0044
297.98607
297.97065
297.95805
297.94832
297.94172
297.93848
297.93806
297.93908
297.94111
297.94787
297.96628
297.99524
298.01191
302.59031
302.62197
304.63138
305.60711
306.50342
307.11623
307.52425
307.74884
307.82655
307.78712
307.65746
307.45976
307.21212
306.92892
306.6214
306.29828
305.96625
305.6304
305.29458
304.96169
304.6339
304.31278
303.9995
303.69488
303.39947
303.11366
302.83765
302.57154
302.31535
302.06901
301.83243
301.60545
301.38789
301.17957
300.98025
300.78972
300.60775
300.43409
300.2685
300.11076
299.9606
299.81781
299.68213
299.55334
299.43121
299.31552
299.20604
299.10255
299.00486
298.91275
298.82602
298.74449
298.66795
298.59623
298.52915
298.46654
298.40824
298.35409
298.30393
298.25762
298.21502
298.17601
298.14046
298.10825
298.07928
298.05346
298.03073
298.01097
297.99409
297.98001
297.96879
297.96064
297.95561
297.95312
297.95208
297.95257
297.95791
297.97315
297.99618
298.00879
305.66085
307.05591
308.38508
309.08824
309.56746
309.77822
309.80296
309.68358
309.46084
309.1651
308.81985
308.44252
308.04602
307.63974
307.23052
306.82324
306.42142
306.0275
305.6432
305.26967
304.90766
304.55761
304.21974
303.89413
303.58073
303.27941
302.98996
302.71216
302.44574
302.19042
301.94589
301.71185
301.48799
301.274
301.06958
300.87442
300.68822
300.5107
300.34155
300.18051
300.0273
299.88165
299.74329
299.61199
299.48748
299.36954
299.25792
299.1524
299.05276
298.95879
298.87028
298.78702
298.70883
298.63552
298.5669
298.5028
298.44305
298.38749
298.33596
298.28832
298.24441
298.20412
298.1673
298.13384
298.10363
298.07658
298.05259
298.03157
298.01341
297.99805
297.98554
297.976
297.96937
297.96512
297.96257
297.96206
297.96614
297.97796
297.99521
298.00507
309.61768
311.40443
311.94592
312.13338
312.07953
311.84603
311.49528
311.0697
310.59947
310.1053
309.60126
309.09679
308.5982
308.10963
307.63374
307.17215
306.72582
306.29523
305.88052
305.48162
305.09831
304.73027
304.37713
304.03845
303.71381
303.40275
303.10483
302.81959
302.54661
302.28545
302.0357
301.79696
301.56884
301.35098
301.14299
300.94455
300.75531
300.57494
300.40313
300.23958
300.08399
299.93608
299.79559
299.66223
299.53576
299.41593
299.30249
299.19522
299.09389
298.99828
298.90818
298.82339
298.7437
298.66894
298.59892
298.53345
298.47237
298.41551
298.36272
298.31385
298.26875
298.22728
298.18931
298.15471
298.12339
298.09524
298.07015
298.04802
298.02876
298.0123
297.99868
297.98791
297.97988
297.97422
297.97056
297.96929
297.97205
297.98054
297.99292
298.00135
314.58188
314.95335
314.68314
314.31441
313.79142
313.19786
312.56934
311.93145
311.29835
310.67868
310.0772
309.49649
308.93773
308.40126
307.88691
307.3942
306.92249
306.47102
306.03901
305.62567
305.23021
304.85188
304.48993
304.14368
303.81246
303.49565
303.19264
302.90289
302.62586
302.36104
302.10795
301.86615
301.6352
301.4147
301.20425
301.00347
300.81202
300.62954
300.45572
300.29024
300.13279
299.98308
299.84083
299.70578
299.57766
299.45622
299.34122
299.23242
299.12959
299.03252
298.94099
298.8548
298.77375
298.69765
298.62632
298.55957
298.49724
298.43916
298.38517
298.33513
298.28888
298.2463
298.20724
298.17158
298.13921
298.11002
298.08392
298.06078
298.04054
298.02312
298.00851
297.99667
297.9875
297.98074
297.97627
297.97437
297.97592
297.98164
297.99042
297.99828
316.58093
316.74824
316.17301
315.41003
314.62993
313.84879
313.08691
312.35191
311.64723
310.97388
310.33154
309.71926
309.13578
308.5797
308.04958
307.54405
307.06175
306.60145
306.16198
305.74223
305.34121
304.95798
304.59167
304.24147
303.90665
303.58651
303.2804
302.98771
302.70789
302.4404
302.18475
301.94045
301.70708
301.48421
301.27144
301.06839
300.87471
300.69003
300.51405
300.34643
300.18688
300.0351
299.89081
299.75375
299.62365
299.50026
299.38334
299.27265
299.16797
299.06908
298.97577
298.88783
298.80507
298.72729
298.65431
298.58596
298.52206
298.46245
298.40698
298.35548
298.30782
298.26385
298.22346
298.1865
298.15288
298.12247
298.09518
298.07091
298.04958
298.03113
298.01553
298.00271
297.99254
297.98489
297.97971
297.97723
297.9779
297.98196
297.98876
297.99633
310.35869
309.03708
305.3501
302.43612
301.1466
300.85671
300.78861
300.78592
300.67405
300.61738
300.51402
300.44282
300.35627
300.26947
300.18312
300.09635
300.00892
299.92079
299.83198
299.74255
299.65258
299.56219
299.47149
299.38062
299.28972
299.19892
299.10836
299.01818
298.92852
298.83951
298.75127
298.66396
298.57767
298.49256
298.40873
298.32632
298.24544
298.16623
298.08881
298.0133
297.93983
297.86853
297.79952
297.73293
297.6689
297.60755
297.54901
297.49341
297.44089
297.39157
297.34556
297.303
297.26398
297.22861
297.19697
297.16913
297.14514
297.12504
297.10884
297.09657
297.08829
297.08403
297.08382
297.08769
297.09576
297.10814
297.12516
297.14667
297.17361
297.20434
297.24284
297.28162
297.33645
297.37981
297.46025
297.49525
297.61778
297.63661
297.81274
297.84359
309.55578
306.63431
302.43225
300.35584
299.78078
299.78205
299.8837
299.89501
299.88947
299.86337
299.83962
299.80226
299.75949
299.71189
299.66036
299.60503
299.54634
299.48459
299.4201
299.35317
299.28409
299.21314
299.14057
299.06663
298.99155
298.91555
298.83884
298.76164
298.68415
298.60656
298.52905
298.45181
298.37503
298.29886
298.22349
298.14909
298.07581
298.00383
297.9333
297.86438
297.79722
297.732
297.66885
297.60794
297.5494
297.4934
297.44008
297.38958
297.34205
297.29762
297.25642
297.21857
297.18419
297.15338
297.12621
297.10276
297.08307
297.06717
297.05508
297.04681
297.04242
297.04192
297.04533
297.0527
297.06412
297.0797
297.09974
297.12413
297.15369
297.18703
297.22763
297.26892
297.32509
297.37095
297.45167
297.48952
297.61174
297.63227
297.81124
297.83798
308.14624
304.55173
301.4265
299.71771
299.38633
299.42708
299.46133
299.43551
299.40716
299.3747
299.34311
299.30826
299.27175
299.23233
299.19074
299.14674
299.10057
299.05219
299.00168
298.94916
298.89472
298.83849
298.78058
298.72115
298.66034
298.59829
298.53518
298.47116
298.40641
298.3411
298.27541
298.20952
298.14361
298.07787
298.01247
297.9476
297.88345
297.8202
297.75802
297.69712
297.63766
297.57982
297.52379
297.46973
297.41781
297.36822
297.3211
297.27663
297.23496
297.19623
297.16059
297.12817
297.09907
297.07341
297.05127
297.03272
297.01779
297.00652
296.99892
296.99499
296.99479
296.99833
297.00561
297.01669
297.03164
297.05058
297.07377
297.10115
297.13344
297.16941
297.21224
297.256
297.31371
297.3618
297.44324
297.48349
297.606
297.62798
297.8095
297.83286
306.95099
303.09505
300.25491
298.96262
298.91118
298.92767
298.94492
298.90921
298.89085
298.86194
298.83804
298.80907
298.77988
298.74873
298.71648
298.68261
298.64726
298.61032
298.57179
298.53166
298.48994
298.44668
298.40191
298.35569
298.3081
298.25922
298.20915
298.158
298.10591
298.05299
297.99941
297.94531
297.89085
297.83621
297.78155
297.72707
297.67294
297.61936
297.56651
297.51459
297.46379
297.41431
297.36633
297.32005
297.27565
297.23332
297.19324
297.15559
297.12053
297.08822
297.05881
297.03244
297.00922
296.98927
296.97267
296.95949
296.94976
296.94352
296.94077
296.94151
296.94579
296.95363
296.96502
296.98
296.99866
297.02111
297.04758
297.07804
297.11315
297.15181
297.19696
297.24314
297.30254
297.3527
297.4351
297.47757
297.60049
297.62376
297.80771
297.82808
306.24719
301.87935
299.29095
298.33431
298.41094
298.38555
298.41168
298.37506
298.36826
298.34398
298.32864
298.30686
298.2864
298.26414
298.2413
298.21722
298.19208
298.16571
298.1381
298.1092
298.07899
298.04747
298.01462
297.98047
297.94503
297.90836
297.87051
297.83154
297.79155
297.75062
297.70887
297.66642
297.62341
297.57998
297.53629
297.49249
297.44878
297.40532
297.36231
297.31994
297.2784
297.2379
297.19862
297.16077
297.12454
297.09014
297.05774
297.02754
296.9997
296.9744
296.9518
296.93202
296.9152
296.90144
296.89083
296.88344
296.87931
296.87845
296.88087
296.88658
296.89561
296.90798
296.92369
296.94276
296.96528
296.99135
297.02121
297.05484
297.09284
297.13423
297.18176
297.23036
297.29152
297.34368
297.42717
297.47166
297.59522
297.61965
297.80592
297.82374
305.67894
300.68922
298.48745
297.73081
297.87917
297.82376
297.86984
297.8338
297.8419
297.82429
297.81995
297.80686
297.79613
297.78333
297.77018
297.75591
297.74069
297.72439
297.707
297.68849
297.66883
297.64802
297.62603
297.60286
297.57853
297.55305
297.52646
297.49879
297.4701
297.44046
297.40994
297.37866
297.3467
297.3142
297.28128
297.2481
297.21481
297.18158
297.14858
297.11599
297.08402
297.05284
297.02265
296.99367
296.96607
296.94006
296.91583
296.89357
296.87345
296.85564
296.84031
296.82758
296.8176
296.81046
296.80624
296.80501
296.80682
296.81167
296.81955
296.83049
296.84451
296.86163
296.88183
296.90514
296.93165
296.96147
296.99481
297.03168
297.07262
297.11677
297.16672
297.21773
297.28071
297.33485
297.41948
297.46589
297.59018
297.6157
297.80431
297.81958
305.10016
299.63683
297.83466
297.17966
297.37653
297.29494
297.36065
297.32297
297.34352
297.33045
297.33513
297.32918
297.32639
297.32128
297.31609
297.30998
297.30309
297.29534
297.28671
297.27716
297.26666
297.25519
297.24273
297.22926
297.21479
297.19931
297.18283
297.16538
297.14699
297.12771
297.10759
297.08672
297.06517
297.04304
297.02045
296.99752
296.97438
296.9512
296.92812
296.90532
296.88297
296.86125
296.84035
296.82046
296.80177
296.78447
296.76874
296.75478
296.74275
296.73282
296.72514
296.71985
296.71706
296.71689
296.71941
296.72467
296.73271
296.74354
296.75714
296.77354
296.79276
296.81479
296.83964
296.86733
296.89795
296.9316
296.96849
297.00865
297.05258
297.09952
297.1519
297.2053
297.27013
297.32627
297.41202
297.46031
297.58535
297.61196
297.80273
297.81565
304.61981
298.68716
297.28545
296.67568