/*--------------------------------*- C++ -*----------------------------------*\
  =========                 |
  \\      /  F ield         | OpenFOAM: The Open Source CFD Toolbox
   \\    /   O peration     | Website:  https://openfoam.org
    \\  /    A nd           | Version:  12
     \\/     M anipulation  |
\*---------------------------------------------------------------------------*/
FoamFile
{
    format      ascii;
    class       volScalarField;
    location    "0.023";
    object      Ma;
}
// * * * * * * * * * * * * * * * * * * * * * * * * * * * * * * * * * * * * * //

dimensions      [];

internalField   nonuniform List<scalar> 
16000
(
0.63943146
0.75978649
0.71404563
0.73901914
0.72374943
0.73073177
0.72493591
0.72641428
0.72373845
0.7232549
0.7216013
0.72042987
0.71898247
0.71756844
0.71607261
0.71453044
0.71293053
0.71127433
0.70956043
0.7077882
0.70595706
0.70406669
0.70211702
0.70010825
0.69804092
0.6959159
0.69373445
0.69149821
0.68920923
0.68687002
0.68448349
0.68205302
0.67958241
0.67707589
0.67453807
0.67197393
0.66938878
0.66678817
0.66417784
0.66156366
0.65895154
0.65634734
0.65375676
0.65118526
0.64863791
0.64611933
0.64363352
0.64118386
0.63877293
0.63640252
0.63407345
0.63178548
0.62953711
0.62732553
0.6251465
0.62299444
0.62086241
0.61874209
0.61662379
0.61449632
0.61234711
0.61016222
0.60792618
0.60562117
0.60322426
0.60070361
0.59801609
0.59511513
0.5919772
0.58865354
0.58533892
0.58242267
0.5804299
0.57978094
0.58075989
0.58299393
0.58566622
0.58681237
0.58425561
0.58618626
0.64411372
0.76507039
0.71759902
0.74373013
0.72763863
0.73509783
0.72884171
0.73044019
0.7275763
0.72701994
0.72527544
0.72398571
0.72244319
0.72091146
0.71930299
0.71764006
0.71591653
0.7141322
0.7122863
0.71037821
0.70840763
0.70637451
0.7042791
0.702122
0.69990418
0.697627
0.69529227
0.6929022
0.6904595
0.68796733
0.68542934
0.68284963
0.68023276
0.67758371
0.67490786
0.67221091
0.66949886
0.66677791
0.66405437
0.66133461
0.65862492
0.65593143
0.65326
0.65061611
0.64800475
0.6454303
0.64289644
0.64040607
0.63796126
0.63556315
0.6332119
0.63090659
0.62864506
0.62642388
0.62423829
0.62208226
0.6199485
0.61782848
0.61571249
0.61358965
0.61144797
0.60927448
0.6070548
0.60477193
0.60240335
0.59991704
0.59727036
0.59441969
0.59134886
0.58812157
0.58494883
0.58222237
0.58052284
0.58016
0.58154727
0.58414631
0.58665397
0.58743097
0.58540426
0.58610668
0.64848874
0.76992869
0.72115547
0.74785249
0.7313089
0.73886787
0.73245474
0.73393631
0.7310146
0.73029753
0.72848081
0.7270496
0.72539812
0.72373517
0.72199735
0.7201984
0.71833472
0.71640581
0.71441119
0.71235056
0.71022394
0.70803169
0.70577451
0.70345348
0.70107014
0.69862646
0.69612489
0.69356841
0.69096047
0.68830508
0.68560675
0.68287048
0.68010174
0.67730643
0.67449082
0.67166147
0.66882515
0.66598879
0.66315932
0.66034358
0.65754821
0.65477955
0.65204348
0.64934537
0.64668992
0.64408109
0.64152201
0.63901489
0.63656102
0.6341607
0.63181317
0.6295166
0.62726793
0.62506289
0.62289601
0.62076061
0.61864889
0.616552
0.61446004
0.61236227
0.61024707
0.60810211
0.60591361
0.60366477
0.60133256
0.59888418
0.59627773
0.59347466
0.59047154
0.58735358
0.58435466
0.58188273
0.58057199
0.58049142
0.5824043
0.58532414
0.58777755
0.58834395
0.58643821
0.5863545
0.65248109
0.77437779
0.7242896
0.75146107
0.73450634
0.74216991
0.73559956
0.73694846
0.73395883
0.73306165
0.73115736
0.72956818
0.72778911
0.72597808
0.72409276
0.72214027
0.72011902
0.71802848
0.71586853
0.71363922
0.71134098
0.70897461
0.70654133
0.70404282
0.70148128
0.6988594
0.69618049
0.69344839
0.69066755
0.68784299
0.68498028
0.6820855
0.6791652
0.67622633
0.67327617
0.67032219
0.66737203
0.66443329
0.66151346
0.65861978
0.65575909
0.65293774
0.65016144
0.64743519
0.64476315
0.64214859
0.63959382
0.63710011
0.63466773
0.63229589
0.62998272
0.62772527
0.62551946
0.62336004
0.6212407
0.61915403
0.61709168
0.61504438
0.61300205
0.61095398
0.60888881
0.60679448
0.60465735
0.60246022
0.60017906
0.59778025
0.59522328
0.59247618
0.58954986
0.58655162
0.58373834
0.58154649
0.58058165
0.58081503
0.58322921
0.58643022
0.58892072
0.58935618
0.58747194
0.58676963
0.65607447
0.77833887
0.72713948
0.75441842
0.73706704
0.74489531
0.73821765
0.73937536
0.73633819
0.73522384
0.73322048
0.73145513
0.72952958
0.72755437
0.7255042
0.72338177
0.72118654
0.71891813
0.71657666
0.71416256
0.71167672
0.70912047
0.70649572
0.70380492
0.70105116
0.69823814
0.69537026
0.69245255
0.68949071
0.68649104
0.68346042
0.68040624
0.6773363
0.67425875
0.67118195
0.66811437
0.66506442
0.66204034
0.65905005
0.65610096
0.65319989
0.65035291
0.64756526
0.64484123
0.64218413
0.63959618
0.63707854
0.63463125
0.63225326
0.62994244
0.62769562
0.62550855
0.62337594
0.62129148
0.6192479
0.61723704
0.61524992
0.61327684
0.6113075
0.60933109
0.60733633
0.60531109
0.60324141
0.60110913
0.59888894
0.59654666
0.59404437
0.591359
0.58851869
0.58565406
0.58304661
0.58115291
0.5804846
0.58124491
0.58403512
0.58747781
0.59000242
0.5903625
0.5885026
0.58728213
0.6592113
0.78171969
0.72951787
0.75692938
0.73927913
0.74696579
0.74015925
0.74112638
0.73806083
0.7367046
0.73458982
0.73263744
0.73054973
0.72839744
0.7261672
0.72385919
0.72147334
0.7190096
0.71646853
0.71385115
0.71115908
0.70839455
0.70556046
0.70266043
0.6996988
0.69668068
0.69361191
0.69049907
0.68734941
0.68417081
0.68097173
0.67776103
0.67454794
0.67134186
0.66815225
0.66498848
0.66185963
0.65877434
0.65574067
0.65276589
0.64985641
0.64701763
0.64425389
0.64156836
0.63896305
0.63643877
0.63399514
0.63163065
0.62934264
0.62712744
0.62498037
0.62289577
0.62086705
0.61888678
0.61694673
0.61503795
0.61315088
0.61127541
0.60940099
0.60751669
0.60561107
0.60367169
0.60168384
0.59962817
0.59747811
0.59519963
0.59275909
0.59014463
0.58740333
0.58468908
0.58230851
0.58075011
0.58038902
0.5817374
0.58480416
0.58843708
0.59094421
0.5912693
0.58948689
0.5877972
0.66186018
0.78450269
0.731428
0.75893528
0.7410277
0.74836728
0.74157018
0.74217122
0.73909874
0.73748208
0.73524208
0.73309169
0.73082202
0.72847385
0.72604158
0.72352477
0.72092396
0.7182399
0.71547402
0.71262836
0.70970571
0.70670961
0.70364443
0.70051532
0.69732834
0.69409037
0.69080909
0.68749297
0.68415115
0.68079336
0.67742979
0.67407095
0.67072749
0.66741006
0.66412907
0.66089455
0.65771593
0.65460189
0.65156015
0.64859738
0.64571905
0.64292934
0.64023117
0.63762606
0.63511426
0.63269473
0.63036518
0.6281222
0.62596135
0.62387721
0.62186346
0.61991297
0.61801787
0.6161696
0.61435902
0.6125765
0.61081194
0.6090549
0.6072946
0.60551993
0.60371919
0.6018794
0.5999849
0.59801517
0.59594285
0.59373528
0.59136503
0.58883355
0.58620771
0.58366475
0.58153797
0.58030758
0.58029312
0.58214016
0.5855218
0.58929051
0.59171145
0.59203282
0.5903409
0.5882294
0.66407052
0.78672198
0.73291474
0.76047061
0.7423587
0.74933063
0.74252449
0.74299348
0.73948685
0.73758222
0.73518041
0.73280387
0.73031616
0.72773832
0.72506923
0.72230909
0.71945925
0.71652158
0.71349872
0.7103941
0.70721209
0.70395792
0.70063783
0.69725902
0.69382964
0.69035878
0.68685637
0.6833331
0.67980027
0.67626966
0.67275331
0.66926336
0.66581178
0.6624102
0.65906967
0.65580043
0.65261173
0.64951167
0.64650702
0.64360313
0.64080386
0.63811154
0.63552698
0.63304956
0.63067722
0.62840665
0.62623336
0.62415182
0.62215559
0.62023746
0.61838948
0.61660307
0.61486916
0.61317819
0.61152026
0.60988517
0.60826247
0.60664147
0.60501122
0.60336044
0.60167711
0.59994764
0.59815546
0.59627921
0.59429166
0.59216312
0.58987439
0.58744174
0.58495164
0.58260141
0.58074
0.57984669
0.58020021
0.58248807
0.5861536
0.59000439
0.5922992
0.59261252
0.59099093
0.58850279
0.66591447
0.78840237
0.73393175
0.76153545
0.74301589
0.74931586
0.74259354
0.74224699
0.73913743
0.73694504
0.73432939
0.7316877
0.72893753
0.72608852
0.72314162
0.72009813
0.71696047
0.71373191
0.71041671
0.70702015
0.7035486
0.70000957
0.69641171
0.69276477
0.68907954
0.68536778
0.68164209
0.67791567
0.67420221
0.67051558
0.66686963
0.66327787
0.65975326
0.65630792
0.65295289
0.6496979
0.64655124
0.64351955
0.64060779
0.63781913
0.635155
0.63261513
0.63019761
0.62789906
0.62571472
0.62363871
0.6216641
0.61978316
0.61798748
0.61626806
0.61461548
0.61301989
0.61147118
0.60995905
0.60847305
0.60700263
0.60553715
0.60406583
0.60257769
0.6010613
0.59950435
0.59789275
0.59620932
0.59443252
0.59253645
0.59049619
0.58830254
0.5859873
0.58365544
0.58152026
0.57993344
0.57935037
0.58011368
0.58275823
0.58666215
0.59054499
0.59268409
0.59293229
0.59138182
0.58853063
0.66739131
0.78951585
0.73439591
0.76192534
0.74289299
0.74875311
0.74203668
0.74131615
0.73798657
0.73543266
0.73255288
0.72960718
0.72654996
0.72338619
0.72011804
0.71674856
0.71328182
0.7097231
0.70607892
0.70235709
0.69856675
0.69471838
0.69082376
0.68689585
0.68294868
0.67899718
0.67505691
0.67114383
0.66727398
0.66346317
0.65972666
0.65607883
0.65253287
0.64910053
0.64579185
0.64261498
0.6395761
0.63667932
0.63392669
0.63131822
0.62885208
0.62652463
0.62433068
0.6222637
0.62031598
0.61847891
0.61674317
0.61509893
0.61353594
0.61204372
0.61061159
0.60922875
0.60788439
0.60656775
0.60526814
0.60397491
0.60267745
0.60136509
0.60002691
0.5986515
0.59722637
0.5957372
0.59416672
0.59249407
0.59069612
0.58875435
0.58667076
0.58449241
0.58234081
0.58044087
0.57913754
0.57885745
0.58000947
0.58293677
0.58701228
0.59088223
0.59287241
0.59309532
0.59146718
0.58824901
0.66842884
0.7899396
0.73421172
0.76059136
0.74195741
0.74728348
0.74066172
0.73933526
0.73585904
0.7329198
0.72971809
0.72642177
0.7230072
0.71947914
0.71584122
0.7120988
0.70825846
0.70432829
0.700318
0.69623886
0.69210374
0.68792701
0.6837244
0.6795128
0.67531003
0.67113451
0.66700492
0.66293984
0.65895733
0.65507454
0.65130732
0.64766983
0.64417429
0.64083069
0.63764661
0.6346272
0.63177512
0.62909062
0.62657171
0.62421434
0.62201261
0.61995903
0.6180448
0.61626009
0.61459427
0.61303619
0.61157438
0.61019723
0.60889308
0.60765033
0.60645746
0.60530316
0.6041763
0.60306604
0.60196176
0.60085304
0.5997295
0.59858078
0.5973962
0.59616453
0.59487336
0.59350852
0.5920533
0.59048857
0.58879527
0.58696257
0.58500408
0.58298096
0.58102823
0.57937751
0.57836413
0.57838636
0.57986616
0.58301171
0.58717349
0.5909982
0.59288897
0.59300312
0.59120526
0.58762767
0.66891882
0.78948573
0.73325776
0.75870627
0.74039355
0.74485051
0.7382947
0.73635184
0.73263427
0.72926626
0.72567726
0.7219736
0.71814367
0.71419451
0.7101321
0.70596506
0.70170361
0.69735993
0.69294815
0.68848429
0.68398607
0.67947275
0.67496483
0.67048369
0.66605122
0.66168936
0.65741958
0.65326245
0.64923707
0.64536065
0.64164805
0.6381115
0.63476033
0.63160086
0.62863639
0.6258673
0.62329124
0.62090339
0.61869675
0.61666251
0.61479035
0.61306878
0.61148547
0.61002753
0.60868181
0.60743509
0.60627429
0.60518655
0.60415936
0.60318052
0.60223824
0.60132112
0.6004182
0.59951894
0.59861315
0.59769087
0.59674226
0.59575741
0.59472611
0.59363748
0.59247956
0.5912388
0.58989981
0.58844614
0.58686385
0.58515053
0.5833311
0.58147903
0.57973883
0.5783436
0.57761553
0.57791796
0.57967009
0.58296477
0.58712335
0.59083646
0.59273756
0.59256783
0.59062312
0.58669696
0.66880509
0.78808884
0.73140274
0.75597513
0.73789137
0.7413507
0.7348222
0.73220477
0.72815975
0.72430928
0.72025822
0.71607841
0.71176505
0.70732922
0.70278098
0.69813376
0.69340313
0.68860704
0.68376561
0.67890094
0.67403676
0.6691981
0.66441073
0.65970072
0.65509379
0.65061472
0.64628665
0.64213054
0.63816458
0.63440372
0.6308594
0.62753933
0.6244475
0.62158429
0.61894672
0.61652879
0.61432192
0.61231539
0.61049677
0.60885236
0.60736758
0.60602734
0.60481632
0.60371928
0.60272124
0.60180768
0.60096463
0.60017872
0.59943721
0.59872794
0.59803936
0.59736054
0.5966811
0.59599118
0.59528132
0.59454232
0.59376505
0.59294029
0.59205846
0.59110934
0.59008174
0.58896332
0.5877407
0.58640093
0.58493584
0.58335152
0.58168338
0.5800149
0.57849623
0.57735601
0.57689271
0.57743879
0.57939814
0.58277709
0.58686386
0.59039493
0.59223567
0.59190608
0.58977114
0.58555386
0.66807181
0.78564532
0.72858668
0.75211612
0.73434626
0.73666715
0.73008816
0.72674094
0.72225623
0.71784871
0.71324706
0.70850748
0.70363121
0.69863533
0.69353637
0.68835477
0.68311347
0.67783801
0.67255607
0.6672971
0.66209172
0.65697114
0.65196638
0.64710751
0.64242277
0.63793781
0.63367491
0.62965241
0.62588427
0.6223798
0.61914368
0.61617609
0.61347308
0.61102697
0.60882698
0.60685975
0.60510999
0.60356104
0.60219535
0.60099496
0.59994185
0.59901824
0.59820685
0.59749107
0.5968551
0.59628401
0.59576381
0.59528136
0.59482436
0.5943813
0.59394142
0.59349468
0.5930317
0.59254363
0.59202199
0.59145854
0.59084509
0.59017326
0.58943435
0.58861905
0.5877174
0.58671875
0.58561237
0.58438936
0.5830475
0.58160089
0.58009394
0.57861759
0.57732382
0.57642856
0.57619589
0.57693875
0.57903799
0.58243662
0.5864106
0.58979903
0.59153279
0.5910552
0.58868833
0.58434309
0.66665949
0.78197679
0.7247673
0.74702829
0.72956938
0.73062602
0.72388711
0.71973716
0.71468161
0.70961859
0.70436265
0.69896712
0.69344161
0.68781165
0.68210298
0.67634538
0.67057131
0.66481567
0.65911515
0.65350744
0.64803031
0.64272061
0.63761308
0.63273934
0.62812684
0.62379808
0.61977002
0.61605377
0.6126546
0.60957215
0.6068009
0.60433081
0.60214807
0.60023583
0.59857502
0.59714508
0.59592462
0.59489196
0.59402564
0.59330473
0.59270913
0.59221973
0.59181854
0.5914888
0.59121495
0.59098262
0.59077858
0.59059065
0.59040758
0.59021902
0.59001545
0.5897881
0.58952887
0.58923016
0.58888471
0.5884854
0.58802512
0.58749656
0.58689206
0.58620357
0.58542267
0.58454095
0.58355077
0.58244751
0.58123464
0.57993307
0.57859386
0.57731217
0.57623706
0.57556454
0.5755246
0.5764215
0.57859836
0.58194529
0.5857616
0.58901363
0.59066962
0.59007661
0.58750362
0.58314719
0.66451695
0.776837
0.72001264
0.740519
0.72335991
0.72299288
0.71593942
0.710886
0.70510689
0.69926799
0.69324396
0.68709292
0.68083643
0.67451108
0.66815469
0.66180901
0.65551831
0.64932865
0.64328653
0.63743765
0.63182523
0.62648865
0.62146197
0.61677291
0.61244203
0.60848237
0.60489952
0.60169197
0.59885176
0.59636543
0.59421496
0.59237883
0.59083303
0.58955201
0.58850946
0.58767909
0.58703509
0.58655265
0.58620819
0.58597961
0.58584637
0.58578954
0.5857918
0.58583736
0.5859119
0.58600246
0.58609725
0.5861856
0.58625778
0.58630501
0.58631931
0.58629345
0.58622081
0.58609519
0.58591067
0.5856614
0.58534151
0.58494488
0.58446515
0.58389574
0.58323018
0.5824626
0.58158866
0.58060796
0.57952893
0.5783774
0.57720772
0.57611499
0.57524182
0.57476492
0.57488535
0.57589656
0.57808653
0.58131149
0.58493569
0.58806055
0.58967974
0.58904203
0.58633691
0.58205334
0.66157947
0.7698072
0.71409956
0.73230791
0.71539383
0.71340989
0.70584679
0.69976601
0.69310122
0.68635756
0.67945457
0.6724598
0.6654113
0.65836069
0.65136167
0.64447125
0.63774752
0.63124796
0.62502711
0.61913462
0.61361322
0.60849724
0.60381159
0.59957139
0.59578202
0.59243982
0.58953307
0.58704327
0.58494655
0.58321503
0.58181817
0.58072399
0.57990003
0.57931425
0.57893562
0.57873462
0.57868356
0.57875679
0.57893077
0.57918409
0.57949741
0.57985339
0.58023652
0.58063297
0.58103044
0.58141795
0.58178566
0.58212477
0.58242739
0.58268651
0.5828959
0.58305
0.58314374
0.58317242
0.58313153
0.58301659
0.58282305
0.58254617
0.58218103
0.58172279
0.5811671
0.58051075
0.5797527
0.57889629
0.57795382
0.57695362
0.57594963
0.57503375
0.57434235
0.57403387
0.57427523
0.57535144
0.57749133
0.58053419
0.5839363
0.58693781
0.58856895
0.5879821
0.58525883
0.58112287
0.65769438
0.76023264
0.70646687
0.72193384
0.7052086
0.70139956
0.69310051
0.68585777
0.67814668
0.67037198
0.66249428
0.65459656
0.64674036
0.63899821
0.6314437
0.62415037
0.61718822
0.61062076
0.60450223
0.59887556
0.593771
0.58920569
0.585184
0.58169858
0.57873194
0.57625826
0.57424539
0.57265676
0.57145313
0.57059414
0.57003956
0.56975024
0.56968886
0.56982039
0.57011242
0.5705353
0.57106212
0.57166874
0.57233361
0.57303765
0.57376404
0.57449809
0.57522694
0.57593938
0.57662559
0.57727693
0.57788574
0.57844527
0.5789496
0.57939358
0.57977275
0.58008323
0.58032155
0.58048449
0.58056899
0.58057199
0.58049033
0.58032074
0.58005989
0.57970479
0.57925323
0.57870454
0.57806056
0.5773277
0.57652068
0.575668
0.57482101
0.57406798
0.57353687
0.57336096
0.57367513
0.57475892
0.57678806
0.57959249
0.58273659
0.585607
0.58729294
0.58686558
0.58426976
0.58036366
0.65257221
0.7483201
0.69668219
0.70884584
0.69222631
0.68640136
0.67709612
0.6685362
0.65962208
0.65070692
0.64180107
0.63301224
0.62443248
0.61615831
0.60828094
0.60088309
0.59403457
0.58778962
0.58218502
0.5772398
0.57295588
0.56931992
0.56630565
0.56387662
0.56198902
0.56059431
0.55964163
0.55907965
0.55885819
0.55892932
0.55924812
0.55977313
0.56046659
0.56129445
0.56222632
0.56323522
0.5642974
0.56539206
0.56650111
0.56760891
0.56870203
0.56976903
0.57080016
0.5717871
0.57272268
0.57360069
0.57441571
0.57516304
0.57583869
0.57643932
0.57696217
0.57740497
0.57776577
0.57804283
0.57823451
0.57833914
0.57835502
0.57828034
0.57811342
0.57785305
0.57749899
0.57705265
0.57651813
0.57590396
0.57522583
0.57451087
0.57380752
0.57319974
0.57280109
0.57271461
0.57305264
0.57408084
0.5759267
0.5784314
0.58127504
0.58399046
0.5857521
0.58558697
0.5832865
0.57973012
0.64587412
0.73475073
0.68417928
0.69245099
0.67571945
0.66768065
0.65705124
0.64700054
0.63676454
0.62667807
0.6168136
0.60730919
0.59828423
0.58984871
0.5820939
0.57508917
0.56887944
0.56348508
0.5589033
0.55511113
0.55206905
0.54972516
0.54801917
0.54688611
0.54625942
0.5460735
0.54626545
0.54677641
0.54755228
0.54854408
0.54970804
0.5510054
0.55240214
0.55386861
0.55537909
0.5569114
0.55844647
0.55996798
0.5614621
0.56291717
0.56432347
0.56567298
0.5669591
0.56817637
0.56932021
0.57038674
0.57137265
0.57227518
0.5730921
0.57382174
0.57446288
0.57501472
0.57547674
0.57584856
0.57612991
0.57632048
0.57641994
0.57642793
0.57634427
0.5761693
0.57590427
0.57555208
0.57511823
0.57461239
0.57405008
0.57345646
0.57287683
0.57238873
0.5720877
0.57204831
0.57236331
0.57326061
0.57483423
0.57697193
0.57946974
0.58198996
0.58381857
0.58399801
0.58217529
0.57914551
0.63726314
0.71711508
0.66810254
0.67183278
0.65461882
0.64415745
0.63191719
0.62027588
0.60875547
0.59768459
0.58719378
0.57743768
0.5685366
0.56058104
0.55362612
0.54769251
0.54276899
0.53881728
0.53577784
0.53357614
0.53212844
0.53134701
0.53114421
0.53143565
0.53214231
0.53319181
0.53451909
0.53606646
0.53778345
0.5396263
0.54155738
0.54354459
0.54556066
0.54758252
0.54959073
0.55156893
0.55350342
0.55538276
0.55719751
0.55894
0.56060408
0.56218496
0.56367892
0.56508311
0.56639529
0.56761368
0.56873688
0.56976384
0.5706939
0.57152682
0.57226272
0.57290207
0.5734456
0.57389421
0.57424887
0.57451053
0.57468007
0.57475841
0.57474659
0.57464601
0.57445882
0.57418858
0.57384136
0.57342708
0.57296064
0.57246508
0.57198113
0.5715766
0.57132995
0.57129513
0.57154198
0.57223365
0.57344853
0.57515526
0.57726416
0.57954183
0.58140307
0.58198153
0.58081767
0.57854129
0.62607079
0.69436045
0.64702757
0.6455522
0.62742952
0.61443254
0.60051979
0.58746628
0.57505136
0.5635786
0.55319355
0.54402028
0.5361264
0.52953136
0.52420933
0.52009779
0.51710657
0.51512758
0.51404329
0.51373413
0.51408384
0.5149834
0.51633327
0.51804455
0.52003924
0.52224988
0.52461879
0.52709714
0.52964395
0.53222507
0.53481221
0.53738208
0.53991556
0.54239701
0.54481369
0.54715518
0.54941306
0.55158053
0.55365224
0.55562406
0.55749302
0.55925707
0.56091497
0.56246604
0.56391003
0.56524696
0.56647708
0.56760083
0.56861888
0.56953215
0.57034185
0.57104951
0.57165692
0.57216609
0.57257905
0.57289781
0.5731243
0.57326033
0.57330771
0.57326831
0.57314441
0.57293941
0.5726591
0.57231309
0.57191578
0.57148841
0.57106533
0.57070071
0.57045745
0.57038108
0.57051616
0.57095136
0.57176075
0.5729998
0.57469084
0.57668691
0.57853474
0.5795334
0.57919031
0.57789899
0.61115074
0.66437834
0.61902017
0.61184794
0.59254601
0.57713789
0.56199305
0.54825217
0.53588163
0.52510165
0.51598688
0.50855515
0.50275558
0.49848697
0.49561145
0.49397005
0.49339557
0.49372304
0.49479693
0.49647558
0.49863348
0.50116173
0.50396747
0.50697263
0.51011227
0.51333296
0.51659107
0.51985126
0.52308513
0.52627001
0.52938795
0.53242486
0.53536975
0.53821412
0.5409514
0.5435766
0.54608594
0.54847667
0.55074688
0.55289543
0.5549219
0.55682644
0.5586097
0.56027274
0.56181686
0.56324356
0.56455447
0.56575127
0.56683573
0.5678097
0.56867525
0.56943473
0.57009075
0.57064617
0.57110388
0.5714667
0.57173727
0.57191789
0.57201054
0.57201685
0.57193848
0.57177796
0.5715402
0.5712343
0.57087476
0.57048222
0.5700853
0.56972261
0.56943884
0.56927332
0.56925618
0.5694258
0.56985231
0.5706468
0.57192597
0.57362114
0.57542186
0.5768393
0.57741415
0.57726995
0.59047116
0.62481378
0.58190164
0.56893664
0.54900399
0.53161542
0.51642127
0.50345152
0.49267643
0.48413939
0.47774172
0.47332106
0.47066235
0.46952703
0.46967234
0.47086696
0.47290021
0.47558693
0.47876871
0.48231286
0.48611009
0.4900716
0.49412605
0.49821672
0.50229888
0.50633759
0.51030583
0.51418296
0.51795339
0.52160561
0.52513129
0.52852462
0.53178171
0.53490013
0.53787856
0.54071645
0.54341384
0.54597123
0.54838949
0.5506698
0.55281366
0.55482286
0.55669941
0.55844558
0.56006383
0.56155677
0.5629271
0.5641775
0.56531064
0.56632915
0.56723577
0.56803344
0.56872532
0.56931481
0.56980534
0.57020025
0.57050249
0.57071441
0.57083751
0.57087254
0.57081993
0.57068104
0.57046003
0.57016603
0.56981456
0.56942747
0.56903066
0.56864986
0.56830661
0.5680216
0.56782577
0.5677613
0.56789078
0.5683494
0.56929011
0.57070481
0.57245981
0.57427379
0.57576524
0.57672679
0.56143704
0.57315945
0.53438398
0.51550347
0.49446577
0.47868494
0.46544511
0.45535593
0.44815041
0.44358169
0.44129787
0.44092924
0.44211163
0.44451251
0.44784173
0.45185533
0.45635362
0.46117663
0.46619828
0.47132059
0.47646831
0.48158426
0.48662554
0.49156036
0.49636556
0.50102465
0.50552628
0.50986302
0.51403046
0.51802646
0.52185063
0.52550378
0.52898766
0.53230459
0.53545727
0.53844858
0.54128151
0.54395904
0.54648414
0.54885975
0.55108878
0.55317413
0.55511875
0.55692567
0.55859806
0.56013926
0.56155268
0.56284177
0.56400991
0.56506042
0.56599658
0.56682175
0.56753936
0.568153
0.56866632
0.56908278
0.56940531
0.56963581
0.56977484
0.56982175
0.56977554
0.56963672
0.56940978
0.56910541
0.56874145
0.56834126
0.56792877
0.56752077
0.56712196
0.56673629
0.56639373
0.56615652
0.56610927
0.5663851
0.56716048
0.56838773
0.57013175
0.57228182
0.57453645
0.57635744
0.51990482
0.50699749
0.46916278
0.45094243
0.43322393
0.42079789
0.41233246
0.40760492
0.40595227
0.40677924
0.4095078
0.41364274
0.41877483
0.42458001
0.43080829
0.43727107
0.44382847
0.45037832
0.45684713
0.46318294
0.4693498
0.4753236
0.48108892
0.48663673
0.49196259
0.49706541
0.50194652
0.5066089
0.51105674
0.515295
0.51932913
0.52316486
0.52680798
0.53026423
0.53353921
0.53663826
0.53956648
0.54232869
0.54492941
0.54737286
0.54966298
0.55180348
0.55379788
0.55564967
0.55736238
0.55893966
0.56038531
0.56170324
0.56289733
0.56397139
0.56492911
0.56577407
0.56650987
0.56714015
0.5676685
0.56809821
0.56843178
0.56867028
0.56881302
0.56885784
0.56880257
0.56864765
0.56839923
0.56807131
0.56768533
0.56726623
0.56683546
0.56640415
0.56597093
0.56553566
0.56514219
0.56488787
0.56483501
0.56504329
0.56583042
0.56703979
0.56882822
0.57121184
0.57393241
0.57621161
0.45682842
0.42374867
0.39363532
0.37853844
0.36752945
0.3626416
0.3620548
0.36483678
0.36998208
0.3767195
0.38445445
0.39275545
0.40131691
0.409928
0.41844635
0.4267782
0.43486376
0.44266679
0.45016718
0.45735586
0.46423113
0.47079622
0.47705753
0.48302345
0.48870352
0.49410789
0.4992469
0.5041309
0.50877
0.51317402
0.51735237
0.52131404
0.5250675
0.52862075
0.53198127
0.53515606
0.53815164
0.54097409
0.54362902
0.5461216
0.54845653
0.55063813
0.55267037
0.554557
0.55630171
0.55790825
0.55938052
0.56072256
0.56193843
0.563032
0.56400695
0.56486696
0.56561589
0.56625767
0.56679592
0.56723352
0.56757219
0.56781197
0.56795088
0.56798539
0.56791264
0.56773385
0.56745788
0.56710311
0.5666957
0.56626376
0.56582931
0.565402
0.56497812
0.56456365
0.56423891
0.56410509
0.5640835
0.56457173
0.56545373
0.56680055
0.56866514
0.57111226
0.57391734
0.57624498
0.35961417
0.32572736
0.30788072
0.30332005
0.30470823
0.31104729
0.32033581
0.33129052
0.34302548
0.35498103
0.36681602
0.37833093
0.38941586
0.40001633
0.41011179
0.41970203
0.42879865
0.43741987
0.44558719
0.45332341
0.46065144
0.46759354
0.47417097
0.48040373
0.48631054
0.49190881
0.49721467
0.5022431
0.50700791
0.51152192
0.51579697
0.51984399
0.52367307
0.52729354
0.530714
0.53394242
0.53698619
0.53985216
0.54254667
0.54507554
0.54744405
0.54965698
0.55171869
0.55363319
0.55540431
0.55703583
0.55853159
0.55989551
0.5611314
0.56224284
0.56323335
0.56410657
0.56486666
0.56551792
0.56606397
0.56650698
0.56684796
0.56708665
0.56722016
0.56724347
0.56715343
0.56695273
0.56665326
0.56627798
0.56585799
0.56542525
0.56500441
0.56460775
0.56423828
0.56392391
0.56375717
0.5637258
0.56405114
0.56477407
0.5659187
0.5674446
0.56935446
0.5716917
0.57427568
0.57636604
0.21886084
0.2175387
0.22296922
0.23651316
0.25401868
0.2726261
0.29111474
0.30882554
0.32552523
0.34114793
0.35571802
0.36929567
0.38195471
0.3937706
0.40481532
0.41515511
0.42484987
0.43395321
0.44251295
0.45057161
0.458167
0.46533281
0.47209907
0.47849263
0.48453752
0.49025534
0.49566557
0.50078578
0.50563189
0.51021839
0.51455845
0.51866408
0.52254624
0.52621494
0.52967941
0.53294811
0.53602891
0.53892907
0.54165536
0.54421396
0.54661052
0.54885016
0.5509375
0.55287677
0.55467195
0.55632679
0.55784487
0.55922973
0.56048506
0.56161414
0.562621
0.56350978
0.56428484
0.5649503
0.56550853
0.56595998
0.56630526
0.5665452
0.56667713
0.56669411
0.56659258
0.56637843
0.56606369
0.56567538
0.56524838
0.56481873
0.56441574
0.56405827
0.56376325
0.56356475
0.56352442
0.56374784
0.56432917
0.56533269
0.56672728
0.56841689
0.57033092
0.57246539
0.57470191
0.57648168
0.09286126
0.12308057
0.16089615
0.19491352
0.22538353
0.25221758
0.27603923
0.29731819
0.31647357
0.33383397
0.34966419
0.36417631
0.37754242
0.38990331
0.40137541
0.41205582
0.42202632
0.43135627
0.44010499
0.44832351
0.45605607
0.46334117
0.47021256
0.47669992
0.48282951
0.48862465
0.49410614
0.49929262
0.50420084
0.50884592
0.51324156
0.51740016
0.521333
0.52505037
0.52856169
0.53187562
0.53500016
0.53794274
0.54071021
0.54330888
0.54574446
0.54802207
0.55014634
0.55212149
0.55395144
0.5556399
0.55719054
0.55860694
0.55989147
0.56104879
0.56208331
0.56299913
0.56379908
0.56448495
0.56505976
0.56552816
0.56589185
0.56614662
0.56628597
0.56630553
0.56620382
0.56598254
0.56565739
0.56525733
0.56481946
0.56438456
0.56398561
0.56364744
0.56340406
0.56324993
0.56334682
0.56369704
0.56445996
0.5656588
0.56723531
0.5690511
0.57097505
0.57296544
0.57495683
0.57654114
0.0089754331
0.28775335
0.46951626
0.52139569
0.53209735
0.53237741
0.53184411
0.53299696
0.53454949
0.53610529
0.53763155
0.53914126
0.54060892
0.54205318
0.54349044
0.54492911
0.54637191
0.54781982
0.54927304
0.55073122
0.55219363
0.55365912
0.5551263
0.5565936
0.55805933
0.55952176
0.56097917
0.56242985
0.56387217
0.56530457
0.5667256
0.5681339
0.56952822
0.57090738
0.57227034
0.57361612
0.57494384
0.57625272
0.57754209
0.5788114
0.58006025
0.58128835
0.58249564
0.5836822
0.58484838
0.58599477
0.5871223
0.58823231
0.5893265
0.59040703
0.59147671
0.59253908
0.5935984
0.59465961
0.595728
0.59680885
0.59790699
0.59902651
0.60016959
0.6013344
0.60251304
0.60368717
0.60482249
0.60586126
0.60672574
0.60731574
0.60754821
0.60727551
0.60649192
0.6049327
0.60274941
0.59933838
0.59547582
0.58949105
0.58443383
0.57672095
0.57526446
0.57128627
0.57713377
0.5754179
0.054610632
0.37416556
0.52315909
0.55143701
0.55244404
0.55001757
0.54901974
0.54913791
0.5493381
0.54962644
0.55001296
0.55054919
0.55120408
0.55195114
0.55276056
0.55362843
0.55455003
0.55552074
0.55653557
0.55758984
0.55867925
0.55979966
0.56094713
0.56211789
0.56330834
0.56451502
0.56573467
0.56696417
0.56820059
0.56944117
0.57068332
0.57192465
0.57316293
0.57439608
0.5756222
0.57683954
0.5780465
0.57924163
0.58042367
0.5815915
0.58274421
0.58388108
0.58500162
0.58610557
0.58719293
0.588264
0.58931945
0.59036039
0.59138825
0.59240493
0.59341299
0.5944156
0.59541659
0.59642026
0.59743108
0.59845321
0.59949001
0.60054357
0.60161355
0.60269528
0.60377768
0.60483855
0.60583964
0.60672129
0.60740692
0.6078032
0.60782948
0.60736322
0.60636931
0.60463049
0.60226924
0.59873705
0.59473861
0.58870719
0.58370468
0.57619418
0.5752315
0.57151201
0.57732623
0.57603789
0.12328802
0.45407487
0.54613128
0.56002523
0.55841769
0.557087
0.55698118
0.55744875
0.55779663
0.55823766
0.55867384
0.55916768
0.55969247
0.56026483
0.56087489
0.56152732
0.56221958
0.56295084
0.5637196
0.56452419
0.56536282
0.56623348
0.56713402
0.56806216
0.56901548
0.56999151
0.57098769
0.57200146
0.57303026
0.57407154
0.57512283
0.57618172
0.57724586
0.57831303
0.57938108
0.58044798
0.58151183
0.58257086
0.58362343
0.58466808
0.58570354
0.58672875
0.58774285
0.58874527
0.58973567
0.59071403
0.59168072
0.59263656
0.59358265
0.59452055
0.59545241
0.59638099
0.5973095
0.59824151
0.59918057
0.60012963
0.60109049
0.60206322
0.60304504
0.60402859
0.60499999
0.60593377
0.60678898
0.60750554
0.60800964
0.60821511
0.60803917
0.60738606
0.60620433
0.60429713
0.6017831
0.59812924
0.59402896
0.58793611
0.58302216
0.57574872
0.57522333
0.57178552
0.57756998
0.57661077
0.2008555
0.50758158
0.56042309
0.56871257
0.5657016
0.56547501
0.56551908
0.56601647
0.56625589
0.56664296
0.56697954
0.5673823
0.56780083
0.56825439
0.56872812
0.56923049
0.56975987
0.57031716
0.57090247
0.57151585
0.57215708
0.57282569
0.573521
0.57424213
0.57498793
0.57575713
0.57654821
0.57735957
0.57818943
0.57903597
0.57989726
0.58077136
0.58165629
0.58255007
0.58345072
0.58435632
0.58526498
0.58617489
0.58708433
0.58799171
0.58889557
0.58979466
0.5906879
0.59157447
0.59245378
0.59332552
0.5941898
0.59504712
0.59589828
0.59674447
0.59758739
0.59842928
0.59927272
0.60012047
0.60097507
0.60183825