/*--------------------------------*- C++ -*----------------------------------*\
  =========                 |
  \\      /  F ield         | OpenFOAM: The Open Source CFD Toolbox
   \\    /   O peration     | Website:  https://openfoam.org
    \\  /    A nd           | Version:  12
     \\/     M anipulation  |
\*---------------------------------------------------------------------------*/
FoamFile
{
    format      ascii;
    class       volScalarField;
    location    "0.023";
    object      omega;
}
// * * * * * * * * * * * * * * * * * * * * * * * * * * * * * * * * * * * * * //

dimensions      [0 0 -1 0 0 0 0];

internalField   nonuniform List<scalar> 
16000
(
1080.9658
2201.2792
1074.0325
644.53541
453.96327
316.12526
239.57436
181.16727
145.86848
118.38156
100.58872
86.215831
75.467437
66.516774
59.194533
53.027573
47.818218
43.373804
39.55301
36.244309
33.36347
30.839559
28.614228
26.640993
24.882371
23.309195
21.897358
20.628244
19.486029
18.456203
17.525632
16.683971
15.922981
15.235687
14.616123
14.058731
13.558274
13.109809
12.709198
12.352924
12.037025
11.757361
11.510905
11.294878
11.106108
10.941386
10.798246
10.674384
10.567619
10.475912
10.397449
10.330602
10.273807
10.225686
10.185104
10.151285
10.123881
10.103394
10.09207
10.089681
10.095484
10.110117
10.124723
10.138716
10.151027
10.160857
10.168657
10.175327
10.181433
10.186247
10.185927
10.170158
10.127176
10.117146
10.144691
10.138804
10.107937
10.060654
10.018662
9.9967395
1122.4882
2190.3182
1063.5893
644.76297
454.07171
318.87659
240.59913
182.91305
146.68884
119.40371
101.13284
86.781153
75.835137
66.835733
59.429051
53.212013
47.956336
43.477523
39.62985
36.299839
33.402529
30.866661
28.63292
26.654115
24.89172
23.316186
21.9027
20.632307
19.489288
18.45938
17.529179
16.687983
15.927413
15.240389
14.62098
14.063698
13.563409
13.115097
12.714426
12.357996
12.042116
11.762406
11.515681
11.299291
11.110246
10.945198
10.801658
10.677367
10.570195
10.478123
10.399334
10.332249
10.275328
10.227207
10.186749
10.15319
10.126179
10.105918
10.093474
10.089517
10.093325
10.107415
10.121786
10.135546
10.147836
10.157831
10.165838
10.172536
10.178253
10.182086
10.179849
10.160301
10.117193
10.11279
10.14098
10.129588
10.097133
10.05008
10.012454
9.9969637
1162.4851
2190.2043
1051.3877
641.31505
450.76934
319.16847
239.50849
183.11575
146.26521
119.57066
100.99754
86.802391
75.746577
66.749284
59.310401
53.08132
47.814762
43.330739
39.481923
36.153043
33.258809
30.728034
28.500815
26.529732
24.775455
23.20834
21.803097
20.5405
19.404872
18.382318
17.459359
16.625023
15.87086
15.189703
14.575668
14.023316
13.527645
13.08367
12.686864
12.333799
12.021151
11.744402
11.500182
11.28588
11.098773
10.935419
10.793305
10.670222
10.564105
10.472984
10.395043
10.32876
10.272627
10.225317
10.185699
10.153011
10.126914
10.107508
10.095343
10.090833
10.092771
10.106203
10.120128
10.133409
10.145379
10.155317
10.163425
10.170105
10.175333
10.177856
10.173007
10.149986
10.110282
10.110006
10.134107
10.120278
10.085788
10.038529
10.005913
9.9946592
1200.7502
2195.4854
1041.534
637.92879
447.09519
319.2488
238.14503
183.16477
145.72261
119.64619
100.82034
86.76649
75.620888
66.618851
59.15397
52.914109
47.639448
43.152222
39.304381
35.978632
33.08923
30.565213
28.346033
26.384171
24.639416
23.082073
21.686397
20.432864
19.305749
18.291575
17.37687
16.550366
15.803551
15.129142
14.521308
13.974638
13.484256
13.045268
12.652982
12.303806
11.994859
11.72155
11.480313
11.268482
11.083682
10.922395
10.782069
10.660538
10.555797
10.465943
10.389146
10.323943
10.268857
10.222596
10.184034
10.152397
10.127314
10.108755
10.096975
10.092096
10.092847
10.1053
10.118612
10.131285
10.142801
10.152577
10.160698
10.167255
10.17181
10.172709
10.164968
10.138756
10.105125
10.110232
10.128223
10.110724
10.074283
10.02681
9.9995198
9.9909588
1237.0915
2212.3496
1032.7861
634.24497
442.66895
318.59543
236.12212
182.74001
144.81797
119.45042
100.46196
86.557289
75.358466
66.358233
58.883917
52.643911
47.3717
42.889954
39.050873
35.735194
32.856658
30.34475
28.138323
26.189946
24.458596
22.9146
21.531822
20.290481
19.174698
18.171453
17.267412
16.451004
15.713684
15.048035
14.448284
13.909037
13.425523
12.992997
12.606683
12.262665
11.958545
11.689749
11.452549
11.244086
11.062412
10.903971
10.766156
10.64684
10.544068
10.456035
10.38088
10.317204
10.263559
10.218694
10.181492
10.151164
10.127307
10.109786
10.098554
10.093501
10.094129
10.104995
10.117572
10.12953
10.140473
10.149975
10.158004
10.164303
10.167983
10.166967
10.156077
10.127256
10.10025
10.114673
10.121676
10.100941
10.062327
10.015001
9.9932011
9.9861839
1271.3489
2237.1111
1027.7019
631.32952
438.70973
317.31802
233.63351
181.91435
143.6404
119.01868
99.96387
86.196024
74.977639
65.983929
58.514104
52.283361
47.022539
42.553715
38.729956
35.430286
32.567783
30.072605
27.883028
25.951733
24.237198
22.709709
21.342789
20.116456
19.014573
18.024569
17.133391
16.329148
15.603293
14.94825
14.358312
13.828092
13.352903
12.928163
12.549156
12.211511
11.913248
11.649917
11.417734
11.213473
11.035668
10.88078
10.746135
10.629641
10.529369
10.44365
10.370579
10.308822
10.25696
10.213784
10.178196
10.149386
10.126918
10.110567
10.100101
10.095281
10.096504
10.105172
10.116892
10.128064
10.138354
10.147488
10.155299
10.161175
10.16377
10.160611
10.146484
10.115372
10.096012
10.115767
10.114605
10.091102
10.049814
10.003862
9.9876757
9.9816861
1303.4813
2267.4217
1027.5646
628.5808
434.94733
315.415
231.03289
180.72333
142.25266
118.35101
99.332782
85.680887
74.474058
65.493345
58.040889
51.82902
46.588428
42.140078
38.338076
35.060474
32.219337
29.745685
27.577364
25.666457
23.972354
22.464769
21.11689
19.908617
18.823448
17.849214
16.973305
16.183481
15.471246
14.828821
14.25058
13.731138
13.265872
12.850345
12.480053
12.150266
11.858973
11.60209
11.375958
11.176815
11.003644
10.853034
10.722228
10.609174
10.511923
10.429002
10.358438
10.298976
10.249215
10.207997
10.174246
10.147138
10.126198
10.111123
10.101555
10.097217
10.098296
10.105883
10.116594
10.126939
10.136526
10.145207
10.152668
10.157949
10.159275
10.153809
10.136555
10.10425
10.091204
10.112317
10.107382
10.081282
10.037402
9.9954718
9.9839877
9.9775871
1333.5945
2300.5164
1029.1958
625.52577
431.22624
312.87633
228.51883
179.3056
140.8243
117.47458
98.5844
85.020374
73.848635
64.888129
57.463915
51.279786
46.067707
41.647291
37.872587
34.623044
31.808699
29.36146
27.219182
25.330074
23.660173
22.176144
20.850758
19.663892
18.598577
17.642936
16.784982
16.012096
15.315886
14.688329
14.123884
13.617171
13.163624
12.758905
12.398786
12.079139
11.796012
11.546566
11.327519
11.134557
10.966777
10.82114
10.69483
10.585809
10.492064
10.412384
10.344713
10.287878
10.240502
10.201471
10.169746
10.144485
10.125176
10.111455
10.102865
10.099071
10.10025
10.107047
10.116663
10.126158
10.135013
10.14316
10.150138
10.154671
10.154594
10.146737
10.126591
10.094983
10.088718
10.107317
10.101099
10.071734
10.026878
9.989666
9.9819124
9.9742574
1361.7705
2334.1155
1027.9555
621.70243
426.63626
309.62614
225.11663
177.50351
139.07606
116.41534
97.712464
84.212715
73.093415
64.162542
56.777244
50.629054
45.453868
41.069522
37.324718
34.109232
31.327468
28.911945
26.801392
24.9429
23.301596
21.845243
20.546114
19.384209
18.342055
17.407911
16.570622
15.817189
15.139396
14.528918
13.980315
13.488208
13.048098
12.65574
12.306974
11.997658
11.724099
11.483187
11.272277
11.087138
10.925515
10.785502
10.664392
10.559969
10.470181
10.394135
10.329693
10.275774
10.231022
10.194369
10.164823
10.141525
10.123919
10.111625
10.104123
10.101007
10.102571
10.108546
10.117093
10.125725
10.133832
10.141371
10.147747
10.151423
10.149872
10.139637
10.11726
10.089536
10.08979
10.103273
10.095483
10.062609
10.017828
9.984934
9.9799601
9.9719076
1388.0981
2366.5135
1019.9944
616.80064
420.27427
305.9407
220.86404
175.23543
137.26234
115.17531
96.703908
83.250665
72.19903
63.307329
55.971792
49.862959
44.732053
40.39258
36.692142
33.519322
30.777611
28.400205
26.326996
24.503551
22.895543
21.471162
20.202249
19.069061
18.053606
17.144067
16.33025
15.598927
14.942083
14.351021
13.820408
13.34487
12.919964
12.541548
12.205633
11.908147
11.645322
11.413915
11.211842
11.034562
10.879966
10.746202
10.631352
10.532056
10.446694
10.374616
10.313696
10.262929
10.220994
10.186868
10.159618
10.138372
10.122521
10.111705
10.105431
10.10307
10.104901
10.110143
10.117858
10.125626
10.132977
10.139846
10.145528
10.148286
10.145258
10.132856
10.109216
10.086066
10.092384
10.100104
10.089759
10.054055
10.010138
9.9813788
9.9773521
9.9707163
1412.6453
2396.8701
1011.3749
610.81636
412.22098
301.86538
216.37238
172.77724
135.34958
113.75034
95.545437
82.126074
71.153095
62.300991
55.024043
48.975824
43.902868
39.619872
35.972238
32.850606
30.156749
27.824051
25.794325
24.011699
22.441983
21.054069
19.81958
18.71909
17.734111
16.85253
16.064792
15.358323
14.72506
14.155828
13.645409
13.188428
12.780506
12.417584
12.09586
11.811365
11.560433
11.339615
11.147242
10.978727
10.831802
10.704596
10.595802
10.502158
10.421987
10.354152
10.297045
10.249622
10.210655
10.179158
10.154284
10.135163
10.121107
10.111753
10.106722
10.10515
10.107196
10.111881
10.118909
10.125836
10.132431
10.138583
10.143509
10.145323
10.140935
10.126595
10.102084
10.083778
10.093152
10.097762
10.083789
10.046206
10.003696
9.9790872
9.9742599
9.970799
1435.5335
2426.2816
998.14678
603.30616
402.77167
297.37718
211.7046
170.05865
133.40163
112.14712
94.210047
80.807757
69.916893
61.136213
53.936753
47.963503
42.961712
38.746976
35.162863
32.101637
29.463928
27.183062
25.203166
23.467324
21.941365
20.594266
19.39867
18.335107
17.384604
16.534732
15.774386
15.095578
14.488623
13.943734
13.455788
13.019404
12.630285
12.284429
11.978264
11.707946
11.469955
11.261451
11.079432
10.920262
10.781624
10.661517
10.559155
10.47134
10.396143
10.332804
10.280003
10.236123
10.200238
10.171437
10.148972
10.132024
10.119814
10.111882
10.107918
10.10719
10.109411
10.113774
10.120189
10.126316
10.132164
10.137573
10.141702
10.142583
10.136985
10.120736
10.095628
10.082197
10.093137
10.096137
10.078021
10.039359
9.9987944
9.9785772
9.9726045
9.9721369
1457.0819
2453.7727
980.90823
594.95312
392.89179
292.47968
206.96509
167.14074
131.39137
110.34175
92.632033
79.277682
68.494387
59.805808
52.702337
46.821258
41.905141
37.771578
34.262037
31.270948
28.698461
26.47725
24.55341
22.870753
21.394687
20.09107
18.939018
17.916857
17.00498
16.191192
15.464325
14.815951
14.237892
13.71971
13.25632
12.84231
12.473526
12.145984
11.856391
11.601123
11.376576
11.179835
11.008838
10.859563
10.729736
10.617636
10.521827
10.440101
10.370252
10.311395
10.262565
10.222629
10.189961
10.163897
10.143825
10.129039
10.11871
10.112231
10.109212
10.10925
10.111641
10.115802
10.121638
10.127018
10.132139
10.136798
10.140111
10.14006
10.133096
10.115013
10.089742
10.081356
10.09279
10.094768
10.072691
10.033975
9.9953901
9.9790547
9.971511
9.974654
1477.5089
2475.341
959.42532
586.00816
382.55007
287.23388
202.23632
164.02758
129.2449
108.23737
90.794631
77.523453
66.871338
58.30022
51.313518
45.543242
40.728881
36.690555
33.268173
30.357154
27.85977
25.707126
23.843324
22.220418
20.801312
19.55106
18.447887
17.472003
16.603136
15.82915
15.138665
14.523438
13.976248
13.486833
13.049812
12.659669
12.312496
12.004283
11.731999
11.492402
11.28199
11.097714
10.937917
10.79875
10.677806
10.573163
10.484034
10.40846
10.344521
10.290377
10.245457
10.209072
10.179952
10.156704
10.138976
10.126261
10.117757
10.112726
10.110655
10.111374
10.113936
10.117955
10.123196
10.127884
10.132306
10.136219
10.138695
10.13758
10.129057
10.109254
10.08539
10.081599
10.09261
10.09327
10.067902
10.030387
9.9944002
9.9799779
9.9711049
9.9786524
1497.0665
2485.984
933.80308
576.42101
371.82769
281.66491
197.58824
160.63642
126.84079
105.8392
88.668872
75.5255
65.033705
56.607988
49.761822
44.123503
39.429375
35.501033
32.180155
29.356698
26.944671
24.87089
23.081631
21.526579
20.17146
18.98036
17.931524
17.00619
16.184423
15.453895
14.802993
14.223374
13.707159
13.248017
12.838771
12.473597
12.148983
11.860868
11.606386
11.382817
11.186801
11.016061
10.867502
10.738467
10.626647
10.52979
10.447223
10.377476
10.318865
10.269967
10.229043
10.19603
10.170077
10.149933
10.13454
10.123757
10.116967
10.113374
10.112241
10.113504
10.11627
10.120243
10.124808
10.128851
10.132598
10.135768
10.137341
10.135125
10.124851
10.103754
10.082767
10.082329
10.092694
10.091542
10.063861
10.0286
9.995528
9.981334
9.9731633
9.9829064
1515.9706
2473.7376
904.52567
566.22885
360.76931
275.7799
193.0086
156.83609
124.10109
103.10012
86.223105
73.259371
62.964045
54.716894
48.038999
42.555829
38.003425
34.196641
30.993308
28.278647
25.966157
23.982628
22.276884
20.798067
19.513663
18.388195
17.399011
16.526277
15.754896
15.07069
14.461662
13.920077
13.438301
13.010073
12.62932
12.289581
11.987865
11.720138
11.483473
11.275914
11.093819
10.935286
10.797972
10.678931
10.576187
10.487791
10.411814
10.347779
10.294122
10.249953
10.213468
10.183783
10.160745
10.143396
10.130557
10.121623
10.11642
10.114093
10.113938
10.115617
10.118604
10.122583
10.126431
10.129858
10.132945
10.135352
10.136009
10.132855
10.120738
10.09861
10.08095
10.082814
10.09274
10.089586
10.060805
10.028362
9.9982666
9.9838137
9.9763961
9.9868301
1534.3651
2419.885
873.33845
555.47189
349.42721
269.48484
188.18058
152.59378
120.91257
99.97029
83.421865
70.698938
60.645361
52.616523
46.137915
40.830276
36.443328
32.789567
29.724775
27.134856
24.936563
23.05531
21.442732
20.048383
18.838502
17.783703
16.859143
16.045212
15.326494
14.690589
14.12479
13.621911
13.174654
12.777265
12.424738
12.110305
11.831261
11.583878
11.364875
11.173065
11.004775
10.858124
10.731569
10.622127
10.527785
10.446976
10.378113
10.319688
10.270743
10.23094
10.19847
10.172428
10.152127
10.137343
10.126817
10.119852
10.116155
10.114933
10.115721
10.117793
10.120938
10.12481
10.128035
10.130852
10.133281
10.134949
10.134848
10.13081
10.117172
10.094121
10.080031
10.083363
10.092573
10.087425
10.058865
10.029365
10.002133
9.9874754
9.9803786
9.9899094
1552.0874
2387.468
841.80509
544.06722
337.79994
262.22923
183.1725
147.80383
117.16137
96.389934
80.228392
67.818829
58.061405
50.298164
44.045843
38.959178
34.771817
31.296382
28.392449
25.945256
23.875099
22.107783
20.593783
19.291353
18.164572
17.184255
16.326878
15.57325
14.908027
14.320654
13.798292
13.334065
12.921132
12.553825
12.227328
11.937504
11.680363
11.45283
11.252072
11.075396
10.920544
10.785263
10.66882
10.568554
10.482245
10.408445
10.345776
10.292991
10.24897
10.213202
10.184451
10.161707
10.144288
10.131827
10.123455
10.118301
10.116099
10.115938
10.117512
10.120088
10.123371
10.126921
10.129602
10.131811
10.133563
10.134556
10.133957
10.129272
10.115004
10.092221
10.080339
10.083933
10.09177
10.085483
10.058218
10.031439
10.006762
9.9919552
9.9844522
9.9919999
1568.7152
2343.0998
809.2504
531.67926
325.78422
253.7787
177.78731
142.34889
112.73695
92.295507
76.607307
64.597195
55.192995
47.747457
41.789705
36.966732
33.014779
29.745517
27.02359
24.735901
22.80235
21.159313
19.755025
18.54875
17.507332
16.603106
15.813514
15.120333
14.508015
13.966564
13.486558
13.059789
12.680055
12.342247
12.042016
11.77543
11.538976
11.329673
11.145013
10.982764
10.8409
10.717408
10.610396
10.518669
10.439917
10.37274
10.315871
10.268226
10.228846
10.19685
10.171527
10.151872
10.13718
10.126831
10.120439
10.116996
10.115919
10.117
10.11926
10.122405
10.125955
10.128936
10.131148
10.132773
10.133866
10.134228
10.133433
10.128363
10.114545
10.092928
10.081643
10.083463
10.089539
10.084368
10.059144
10.034627
10.012035
9.996874
9.9882736
9.9928804
1583.6141
2276.2586
774.96322
517.83396
312.59675
243.98125
171.70549
136.08397
107.53496
87.625638
72.531735
61.014848
52.05919
45.015232
39.408676
34.89456
31.212998
28.174414
25.648157
23.533681
21.750952
20.237952
18.946341
17.837895
16.881848
16.052657
15.328888
14.692721
14.132205
13.63629
13.196434
12.805198
12.456734
12.146362
11.87032
11.625319
11.408185
11.21604
11.046549
10.89754
10.767231
10.654063
10.556696
10.472779
10.401
10.339956
10.288443
10.245437
10.210085
10.181942
10.159696
10.142794
10.13054
10.122328
10.117732
10.115898
10.115891
10.118043
10.121032
10.124616
10.128305
10.130919
10.132718
10.133817
10.134305
10.134165
10.133029
10.127887
10.115043
10.094848
10.083016
10.082209
10.086239
10.08411
10.061951
10.039156
10.018128
10.001949
9.9918071
9.9930316
1595.6337
2207.2787
738.08308
501.93662
298.59921
232.62385
164.45362
128.83614
101.47584
82.350393
67.997428
57.116322
48.72623
42.164631
36.966193
32.798943
29.415546
26.622486
24.308859
22.374916
20.746294
19.365103
18.186029
17.173641
16.299983
15.54227
14.879823
14.299068
13.786839
13.333048
12.930436
12.572129
12.252723
11.967814
11.713954
11.488447
11.288862
11.112294
10.956724
10.820055
10.700509
10.597212
10.507807
10.431068
10.3656
10.31016
10.263592
10.224944
10.19344
10.168425
10.148998
10.134559
10.124495
10.118205
10.115157
10.114635
10.116098
10.119044
10.122818
10.126916
10.130466
10.132883
10.134369
10.13504
10.135023
10.134368
10.132566
10.1276
10.115936
10.097422
10.084247
10.081178
10.083592
10.084018
10.066662
10.045267
10.025337
10.006872
9.9949559
9.9930026
1601.9096
2123.9398
698.33173
482.2725
283.48467
219.3729
155.55679
120.46654
94.561427
76.522067
63.094614
53.0165
45.296803
39.286886
34.540132
30.744138
27.670251
25.138029
23.040225
21.287479
19.811027
18.558158
17.48758
16.566883
15.770518
15.078225
14.473622
13.942949
13.475047
13.059603
12.690642
12.362081
12.069036
11.807433
11.573901
11.365841
11.181924
11.019198
10.87597
10.750493
10.64105
10.545989
10.463948
10.393613
10.333766
10.283314
10.241205
10.206388
10.178453
10.156301
10.139374
10.127097
10.118944
10.114411
10.112776
10.113511
10.116056
10.119901
10.124411
10.128981
10.132446
10.134819
10.136132
10.136491
10.136004
10.134735
10.132398
10.127546
10.117182
10.10032
10.086497
10.081697
10.083487
10.083581
10.072632
10.052934
10.034214
10.014449
9.9987313
9.9936848
1597.2056
2021.6525
655.19769
456.53119
267.06366
203.8709
144.77823
111.00566
86.951538
70.277969
58.018779
48.87032
41.895738
36.481242
32.210576
28.796148
26.032097
23.759141
21.872558
20.29407
18.961991
17.829464
16.859828
16.024214
15.299736
14.668225
14.115163
13.628641
13.198784
12.817575
12.478383
12.176034
11.906202
11.665338
11.450453
11.259012
11.088867
10.938271
10.80557
10.68931
10.588112
10.500554
10.425036
10.36043
10.305552
10.259412
10.221373
10.190126
10.165015
10.145435
10.130763
10.120401
10.114005
10.110856
10.110466
10.112297
10.115864
10.120549
10.125783
10.130561
10.134182
10.136657
10.137957
10.138149
10.137318
10.135545
10.132719
10.127961
10.119106
10.104503
10.090693
10.084482
10.085117
10.085741
10.078448
10.061626
10.044244
10.026156
10.009093
9.9979575
1575.6542
1891.3134
608.8773
424.02152
249.34802
185.90451
132.35381
100.795
79.010171
63.956413
52.999204
44.848508
38.649749
33.843141
30.050625
27.012202
24.54543
22.518515
20.829785
19.412171
18.211823
17.187948
16.308712
15.548929
14.888413
14.31092
13.803537
13.356275
12.960375
12.608788
12.295423
12.015712
11.76578
11.542466
11.343121
11.165497
11.007644
10.867837
10.744535
10.636339
10.542048
10.460927
10.391069
10.331469
10.281062
10.238869
10.204004
10.175671
10.153057
10.135633
10.123001
10.114406
10.109391
10.107476
10.108169
10.111005
10.115376
10.120779
10.12657
10.131513
10.135474
10.138233
10.139708
10.139932
10.13899
10.136937
10.133763
10.12916
10.121887
10.110227
10.097375
10.090113
10.088919
10.088856
10.083894
10.070347
10.0533
10.036232
10.0201
10.004689
1528.3267
1733.5222
560.52271
385.48256
231.23602
165.74624
118.9903
90.480571
71.207454
57.889323
48.264756
41.113617
35.677312
31.458433
28.122277
25.439613
23.250509
21.441447
19.930092
18.654921
17.57015
16.640734
15.839424
15.144665
14.53909
14.008373
13.539986
13.125919
12.758405
12.431914
12.140385
11.879819
11.646744
11.43832
11.252158
11.086221
10.938742
10.808151
10.693038
10.592112
10.50418
10.428123
10.362861
10.307196
10.26021
10.220977
10.18871
10.162871
10.14246
10.126968
10.115871
10.108695
10.104938
10.104105
10.1058
10.109426
10.114518
10.120498
10.126337
10.13159
10.135998
10.139255
10.141137
10.141624
10.140885
10.138873
10.1355
10.13093
10.124859
10.115993
10.104802
10.097294
10.094933
10.093504
10.088443
10.077947
10.061061
10.042962
10.024854
10.007922
1447.4029
1576.5377
511.15523
345.40438
207.02541
146.24007
105.64427
80.765184
64.005961
52.39297
44.032562
37.822142
33.09012
29.403711
26.474364
24.105859
22.161648
20.544784
19.185237
18.031661
17.044798
16.194784
15.458254
14.816691
14.255181
13.76156
13.325803
12.939586
12.596141
12.289822
12.01594
11.770796
11.55128
11.354821
11.179248
11.022692
10.883512
10.760234
10.651512
10.556104
10.472871
10.400825
10.339331
10.2869
10.242737
10.205983
10.175867
10.151689
10.132829
10.1187
10.108849
10.10283
10.100255
10.100493
10.103072
10.107482
10.113152
10.119193
10.124994
10.130477
10.135348
10.139279
10.141845
10.142781
10.142659
10.141093
10.13762
10.132879
10.12724
10.120042
10.110821
10.103111
10.100042
10.098135
10.092999
10.082651
10.066236
10.047583
10.027884
10.008848
1334.9143
1489.0959
464.66557
297.75908
182.91548
127.9299
93.591231
72.169821
57.779921
47.761534
40.521494
35.125903
30.991869
27.749011
25.153386
23.03982
21.293362
19.83186
18.594456
17.538682
16.630766
15.844993
15.161091
14.562867
14.037198
13.573351
13.162438
12.797131
12.47147
12.180947
11.920619
11.687268
11.478056
11.290653
11.123077
10.973614
10.840748
10.723108
10.619431
10.528539
10.44932
10.380707
10.321675
10.27138
10.228963
10.193651
10.164724
10.141563
10.123733
10.110511
10.10154
10.096423
10.094736
10.095974
10.099558
10.104865
10.110988
10.116881
10.122618
10.128092
10.133194
10.137686
10.141194
10.14314
10.14355
10.143085
10.139776
10.13503
10.129307
10.122657
10.11495
10.107158
10.102371
10.098008
10.092613
10.08215
10.067241
10.049142
10.029108
10.009266
1202.4529
1256.0491
424.12763
255.15128
160.52399
112.66842
83.624844
65.233984
52.864203
44.196363
37.884667
33.13752
29.466318
26.560234
24.214049
22.288187
20.68503
19.334638
18.185778
17.200128
16.348591
15.60855
14.962122
14.394882
13.894992
13.452607
13.059715
12.70958
12.396639
12.116289
11.864757
11.638893
11.436107
11.254224
11.091395
10.946013
10.816641
10.701971
10.600788
10.511967
10.43451
10.367708
10.31012
10.260989
10.219496
10.184906
10.156534
10.133755
10.116023
10.102896
10.094028
10.089145
10.087941
10.08995
10.094448
10.10056
10.106824
10.113106
10.119079
10.124621
10.12977
10.134475
10.138547
10.141629
10.143118
10.143197
10.140836
10.136439
10.13037
10.123169
10.115421
10.107271
10.09845
10.091467
10.083942
10.073728
10.061126
10.045622
10.027663
10.008949
1083.6472
1113.8209
390.99638
224.1965
143.77266
101.43789
76.242991
60.185253
49.353753
41.697397
36.064972
31.787471
28.448427
25.782474
23.613152
21.819617
20.31675
19.043163
17.953632
17.014188
16.198828
15.487274
14.863426
14.314371
13.830031
13.400156
13.017523
12.675785
12.369724
12.094997
11.848023
11.625848
11.426029
11.246521
11.085586
10.941703
10.813511
10.699752
10.599247
10.51088
10.433594
10.366404
10.308405
10.258754
10.216689
10.181507
10.152562
10.129255
10.111036
10.097423
10.088034
10.082596
10.080888
10.082642
10.087207
10.092829
10.098454
10.105038
10.112281
10.119218
10.125448
10.130612
10.134511
10.137935
10.140201
10.140838
10.139379
10.135554
10.129393
10.121238
10.111588
10.100924
10.089575
10.078008
10.066546
10.05531
10.044268
10.032574
10.019333
10.005442
1029.1355
1075.4382
366.40916
206.95276
132.78355
93.795666
70.733346
56.170197
46.363685
39.421015
34.296857
30.387117
27.321778
24.864047
22.856357
21.190402
19.789646
18.598715
17.576715
16.69288
15.923646
15.250626
14.65919
14.137457
13.675607
13.265425
12.899951
12.573324
12.280613
12.017708
11.781198
11.56827
11.376595
11.204231
11.049532
10.911062
10.787534
10.677762
10.58063
10.495077
10.4201
10.354765
10.298212
10.249667
10.208442
10.173922
10.145543
10.122777
10.105107
10.092021
10.08303
10.077815
10.075961
10.075697
10.080089
10.085834
10.092619
10.100576
10.108911
10.1164
10.122831
10.127855
10.131236
10.134209
10.136269
10.137013
10.13587
10.132324
10.126047
10.117056
10.105571
10.091998
10.077286
10.062177
10.04777
10.035372
10.025633
10.017597
10.009458
10.002345
33852.003
79858.074
38856.349
11297.219
1470.2106
636.30961
450.31915
363.53366
301.25727
245.20357
199.52985
164.96091
139.43866
120.53906
106.02655
94.119556
83.998132
75.370204
68.00259
61.654712
56.132475
51.295427
47.036506
43.267823
39.92163
36.931117
34.24907
31.833921
29.652401
27.678246
25.889219
24.26561
22.79012
21.447366
20.225149
19.113289
18.102702
17.185389
16.354074
15.602074
14.923551
14.312833
13.764763
13.274635
12.837808
12.44997
12.10726
11.805533
11.540997
11.310381
11.11066
10.938978
10.792387
10.668039
10.562601
10.472779
10.395937
10.330936
10.279332
10.248312
10.235076
10.227873
10.220442
10.212718
10.201198
10.182144
10.150277
10.113034
10.107874
10.140759
10.189706
10.218573
10.233018
10.249583
10.265896
10.252064
10.208737
10.20251
10.064724
10.082582
19071.406
64713.434
27106.514
5480.8719
1018.374
551.4384
412.54403
333.82972
274.26684
221.17815
180.91951
151.03543
129.1032
112.72989
99.823066
88.937958
79.633889
71.713167
64.925417
59.04188
53.898589
49.37718
45.3832
41.837964
38.677229
35.845875
33.300787
31.00306
28.923274
27.037818
25.32621
23.77019
22.353777
21.062765
19.886209
18.814711
17.839797
16.954048
16.150639
15.423308
14.766605
14.175117
13.644001
13.168792
12.745033
12.368635
12.035922
11.742861
11.485867
11.261847
11.067895
10.901215
10.758884
10.638092
10.53557
10.44806
10.373268
10.310316
10.261457
10.234446
10.224033
10.218131
10.211816
10.205262
10.193485
10.172414
10.135846
10.109613
10.110188
10.152858
10.197817
10.219582
10.233074
10.249606
10.26574
10.244317
10.189965
10.199007
10.064738
10.082967
24709.512
42738.354
15817.544
2814.888
882.78912
520.2122
401.25985
318.49812
260.59226
209.42575
172.84537
144.8415
124.36963
108.93784
96.608226
86.129093
77.217345
69.639695
63.128365
57.472505
52.523373
48.169308
44.319657
40.89908
37.844505
35.106781
32.644127
30.418613
28.402936
26.574471
24.913487
23.402416
22.025959
20.770499
19.625816
18.582853
17.633478
16.770601
15.987645
15.278595
14.638238
14.061296
13.543139
13.079441
12.665861
12.29846
11.97369
11.687588
11.436735
11.21816
11.029024
10.866562
10.727868
10.610185
10.510126
10.424721
10.351889
10.290892
10.244833
10.221816
10.213819
10.209012
10.203796
10.198146
10.185727
10.161987
10.124055
10.108058
10.114885
10.163681
10.202755
10.219995
10.233099
10.249513
10.265364
10.239118
10.182961
10.195575
10.064644
10.082871
32760.391
26195.652
9208.0341
1696.1967
793.00819
495.53393
388.38636
302.69331
248.74964
198.35622
165.3892
138.78472
119.81318
105.27591
93.512511
83.44304
74.915968
67.658957
61.406712
55.966536
51.201023
47.004599
43.290777
39.987636
37.035495
34.38463
31.999661
29.842787
27.888366
26.114534
24.502284
23.034681
21.697036
20.476278
19.362872
18.348026
17.423934
16.583806
15.821282
15.130576
14.506688
13.944461
13.439471
12.987513
12.584351
12.226202
11.909631
11.630746
11.386297
11.173424
10.989345
10.831317
10.696545
10.582032
10.484642
10.401551
10.330879
10.271956
10.229037
10.210126
10.204288
10.20044
10.196297
10.191189
10.177748
10.150516
10.116769
10.108157
10.124494
10.173744
10.205509
10.220144
10.233145
10.249339
10.264827
10.236664
10.179321
10.192301
10.064264
10.082207
38014.689
21012.149
6330.8919
1309.4359
751.30139
477.5302
378.05449
289.83774
239.84236
189.78505
159.97772
134.02447
116.29418
102.33674
90.980784
81.227443
73.007394
65.998911
59.949173
54.680248
50.062145
45.993377
42.390464
39.184021
36.316433
33.740686
31.419444
29.320956
27.419129
25.692556
24.122789
22.693362
21.390066
20.200255
19.114969
18.125557
17.224498
16.405235
15.661569
14.987905
14.379413
13.831021
13.338488
12.897698
12.504504
12.155261
11.846634
11.574787
11.336635
11.129404
10.950351
10.796759
10.665858
10.554553
10.45989
10.379207
10.310791
10.253969
10.214498
10.199563
10.195514
10.192499
10.189409
10.184431
10.169557
10.138818
10.11365
10.110768
10.135585
10.182338
10.206789
10.220093
10.233157
10.249021
10.263996
10.235938
10.177093
10.18913
10.063663
10.080898
41287.81
19027.362
4754.6037
1224.3599
727.52388
457.00474
369.69167
279.37097
232.78437
182.78774
155.64637
129.93735
113.32729
99.770617
88.759787
79.278802
71.320774
64.520412
58.643265
53.521871
49.031383
45.073589
41.567524
38.445908
35.65298
33.143189
30.879293
28.83302
26.978364
25.294451
23.763237
22.368631
21.096838
19.935565
18.876366
17.910657
17.031186
16.231583
15.505776
14.848339
14.254582
13.719494
13.239006
12.809063
12.425602
12.085103
11.784317
11.519462
11.287607
11.086046
10.912074
10.763034
10.635929
10.527877
10.436023
10.357849
10.291765
10.237111
10.201537
10.190113
10.187456
10.185184
10.183119
10.17786
10.161062
10.129263
10.11264
10.117111
10.14467
10.188625
10.207307
10.219989
10.233117
10.248544
10.262651
10.235523
10.175777
10.185519
10.063057
10.078876
43761.318
17243.871
3803.2469
1165.9103
709.39173
442.67525
363.27827
270.72594
227.13303
177.10401
152.12206
126.44267
110.82107
97.523717
86.80986
77.561302
69.825132
63.199623
57.469964
52.475691
48.095779
44.234646
40.813382
37.766415
35.039487
32.588417
30.377381
28.376652
26.564246
24.918905
23.422744
22.059958
20.817095
19.682167
18.647187
17.703573
16.844336
16.063249
15.354345
14.712346
14.132675
13.610365
13.141505
12.722078
12.3481
12.016172
11.723112
11.465187
11.239617
11.043753
10.874968
10.730321
10.607043
10.502283
10.413295
10.337701
10.273979
10.221647
10.190399
10.18172
10.180074
10.178489
10.177405
10.171573
10.152251
10.123298
10.112938
10.125784
10.153
10.192601
10.20746
10.219888
10.233002
10.247896
10.260549
10.234176
10.175225
10.180547
10.062507
10.076103
45631.435
14609.808
3209.8562
1129.7678
695.51454
431.0483