/*--------------------------------*- C++ -*----------------------------------*\
  =========                 |
  \\      /  F ield         | OpenFOAM: The Open Source CFD Toolbox
   \\    /   O peration     | Website:  https://openfoam.org
    \\  /    A nd           | Version:  12
     \\/     M anipulation  |
\*---------------------------------------------------------------------------*/
FoamFile
{
    format      ascii;
    class       volScalarField;
    location    "0.023";
    object      rho;
}
// * * * * * * * * * * * * * * * * * * * * * * * * * * * * * * * * * * * * * //

dimensions      [1 -3 0 0 0 0 0];

internalField   nonuniform List<scalar> 
16000
(
1.0664813
1.1005933
1.087724
1.0964185
1.092391
1.0959279
1.0948898
1.0967454
1.0968935
1.0981316
1.0988003
1.0998422
1.100747
1.1017744
1.1028026
1.1038849
1.1050008
1.1061579
1.1073541
1.1085899
1.109865
1.1111793
1.1125321
1.1139227
1.1153501
1.1168131
1.1183102
1.1198396
1.1213992
1.1229865
1.1245989
1.1262331
1.1278859
1.1295535
1.1312318
1.1329165
1.1346028
1.1362859
1.1379606
1.1396213
1.1412626
1.1428785
1.1444633
1.1460108
1.1475151
1.14897
1.1503695
1.1517074
1.1529774
1.1541735
1.1552896
1.1563195
1.1572575
1.1580977
1.1588341
1.1594608
1.1599716
1.16036
1.160619
1.1607408
1.1607166
1.1605365
1.1601898
1.1596646
1.1589474
1.1580218
1.156869
1.1554751
1.1538533
1.1520811
1.1503433
1.148965
1.1483656
1.148653
1.1500235
1.1528568
1.1556926
1.1580422
1.1624605
1.1509492
1.0629997
1.0975806
1.0841952
1.0933084
1.0890532
1.092869
1.0917247
1.0937537
1.0938926
1.0952353
1.0959564
1.0970747
1.0980548
1.0991578
1.1002681
1.1014328
1.1026355
1.1038818
1.1051702
1.1065009
1.1078735
1.1092876
1.1107422
1.1122364
1.1137688
1.1153377
1.1169413
1.1185772
1.1202428
1.1219351
1.123651
1.1253866
1.1271381
1.128901
1.1306707
1.1324423
1.1342106
1.1359701
1.137715
1.1394397
1.1411381
1.1428043
1.1444321
1.1460155
1.1475486
1.1490254
1.15044
1.1517868
1.1530598
1.1542536
1.1553625
1.1563812
1.1573044
1.1581271
1.158844
1.1594497
1.1599386
1.1603046
1.1605407
1.160639
1.1605903
1.1603837
1.1600074
1.1594483
1.1586919
1.1577215
1.15652
1.1550777
1.1534152
1.1516188
1.1498806
1.1485363
1.1479775
1.148196
1.1497608
1.1523324
1.1551139
1.1575487
1.1610438
1.1498688
1.0597923
1.0947902
1.0809536
1.0904127
1.0860194
1.0900434
1.0888707
1.0910191
1.0911996
1.0926262
1.0934231
1.0946191
1.0956868
1.0968746
1.0980774
1.0993357
1.1006361
1.1019828
1.1033744
1.1048107
1.1062912
1.1078148
1.1093805
1.1109867
1.1126317
1.1143135
1.1160295
1.117777
1.1195527
1.1213532
1.1231744
1.125012
1.1268614
1.1287176
1.1305752
1.1324287
1.1342722
1.1360999
1.1379056
1.139683
1.141426
1.1431284
1.1447841
1.1463872
1.1479318
1.1494125
1.1508236
1.1521601
1.1534166
1.1545883
1.1556702
1.1566579
1.1575467
1.1583323
1.1590101
1.1595754
1.160023
1.1603471
1.160541
1.1605965
1.1605041
1.1602525
1.1598292
1.1592208
1.1584123
1.1573877
1.1561319
1.1546408
1.1529441
1.1511391
1.149432
1.1481595
1.147639
1.1478242
1.1494914
1.1518984
1.1544905
1.1567617
1.1595952
1.1486315
1.056888
1.0922346
1.0779774
1.0877498
1.0832237
1.0875027
1.0863081
1.0885993
1.0888309
1.0903552
1.0912426
1.0925293
1.0937
1.0949865
1.0962961
1.0976617
1.0990731
1.1005327
1.1020395
1.1035929
1.105192
1.1068355
1.1085219
1.1102495
1.1120158
1.1138184
1.1156541
1.1175196
1.1194109
1.1213236
1.1232531
1.1251943
1.1271417
1.1290894
1.1310316
1.1329618
1.1348738
1.136761
1.1386169
1.1404349
1.1422088
1.1439324
1.1455996
1.1472048
1.1487427
1.1502081
1.1515963
1.1529025
1.1541226
1.1552524
1.1562878
1.1572251
1.1580606
1.1587907
1.1594116
1.159919
1.1603083
1.160574
1.1607094
1.1607064
1.1605554
1.160245
1.1597629
1.1590957
1.1582294
1.1571491
1.1558426
1.1543111
1.1525917
1.1507908
1.1491229
1.1478996
1.1473546
1.1476152
1.1492598
1.1514899
1.1538038
1.1557947
1.1580474
1.1473137
1.0543399
1.0900581
1.0753879
1.0854406
1.0807028
1.085325
1.0841179
1.0865638
1.0868718
1.0885012
1.0894987
1.0908862
1.0921737
1.0935701
1.094997
1.0964801
1.098012
1.099594
1.1012254
1.1029052
1.1046323
1.106405
1.1082215
1.1100792
1.1119753
1.1139064
1.1158687
1.1178577
1.1198688
1.1218967
1.1239356
1.1259795
1.1280221
1.1300567
1.1320765
1.1340745
1.1360437
1.1379773
1.1398683
1.1417102
1.1434966
1.1452215
1.1468794
1.1484651
1.1499738
1.1514013
1.1527434
1.1539967
1.1551577
1.1562233
1.1571905
1.1580564
1.1588182
1.1594732
1.160018
1.1604492
1.1607624
1.1609523
1.1610126
1.1609352
1.1607106
1.1603279
1.1597753
1.1590407
1.1581115
1.1569748
1.1556213
1.1540569
1.1523255
1.1505411
1.1489171
1.1477295
1.1471648
1.1476109
1.1491028
1.1511378
1.1531192
1.154812
1.1565121
1.1459918
1.052208
1.0882907
1.0732544
1.0836461
1.0788179
1.0836047
1.0823558
1.0849915
1.0854048
1.0871419
1.0882615
1.0897531
1.0911636
1.092676
1.0942271
1.0958359
1.0974976
1.0992126
1.1009798
1.1027979
1.1046652
1.1065793
1.1085376
1.1105366
1.1125726
1.1146413
1.1167376
1.1188561
1.1209909
1.1231355
1.1252832
1.1274269
1.1295592
1.1316726
1.1337593
1.135812
1.1378231
1.1397853
1.1416919
1.1435362
1.1453124
1.1470148
1.1486385
1.1501793
1.1516332
1.152997
1.1542679
1.1554434
1.1565212
1.1574992
1.1583757
1.1591488
1.1598166
1.1603769
1.1608273
1.1611647
1.161385
1.1614833
1.1614535
1.1612876
1.1609767
1.1605105
1.1598787
1.1590708
1.1580762
1.1568843
1.1554887
1.1538994
1.1521656
1.1504067
1.1488319
1.1477049
1.1471533
1.1476949
1.1490323
1.1508541
1.1525036
1.1539265
1.1550301
1.144813
1.050488
1.0869371
1.071567
1.0823309
1.077395
1.0823896
1.0811762
1.0839519
1.0844531
1.0862817
1.0875288
1.0891278
1.0906716
1.0923133
1.0940034
1.0957549
1.097564
1.0994299
1.101351
1.103325
1.1053494
1.1074209
1.1095357
1.1116893
1.1138767
1.1160922
1.1183296
1.1205821
1.1228424
1.1251028
1.1273553
1.1295916
1.1318034
1.1339822
1.1361198
1.1382082
1.1402397
1.142207
1.1441036
1.1459234
1.1476611
1.149312
1.1508723
1.1523388
1.1537089
1.1549808
1.1561529
1.1572241
1.1581935
1.1590602
1.1598235
1.1604825
1.1610364
1.1614835
1.1618221
1.1620494
1.1621617
1.1621543
1.1620213
1.1617551
1.1613474
1.1607893
1.1600719
1.1591868
1.1581256
1.1568801
1.1554464
1.1538378
1.1521082
1.1503802
1.1488592
1.1477792
1.1472675
1.1477936
1.1490487
1.1506641
1.1520395
1.1532008
1.1536805
1.1439472
1.0491193
1.0859398
1.0702603
1.0814475
1.0763988
1.0816519
1.0804729
1.0834672
1.0839169
1.0858609
1.0872727
1.0890087
1.0907154
1.092515
1.0943709
1.0962911
1.0982723
1.1003129
1.1024103
1.1045614
1.1067625
1.1090092
1.1112961
1.1136176
1.1159671
1.1183373
1.1207204
1.1231082
1.1254918
1.127862
1.1302096
1.1325253
1.1347996
1.1370236
1.1391885
1.1412863
1.1433094
1.1452511
1.1471055
1.1488674
1.1505328
1.1520984
1.1535617
1.1549212
1.1561759
1.1573256
1.1583703
1.1593103
1.1601461
1.160878
1.1615065
1.1620317
1.1624534
1.1627707
1.1629822
1.1630854
1.163077
1.1629524
1.1627058
1.1623303
1.1618185
1.1611627
1.1603559
1.1593919
1.158264
1.1569661
1.1554964
1.1538712
1.1521478
1.1504492
1.1489713
1.1479342
1.1474813
1.1479947
1.1491672
1.1506111
1.1517607
1.152659
1.1525187
1.1435141
1.048105
1.0852943
1.0693285
1.0810242
1.0757626
1.081068
1.0800451
1.0829805
1.0838819
1.085977
1.0875867
1.0894874
1.0913841
1.0933697
1.0954183
1.0975338
1.099713
1.101953
1.1042502
1.1066001
1.1089976
1.1114366
1.1139102
1.1164109
1.1189302
1.121459
1.1239877
1.1265061
1.129004
1.1314706
1.1338955
1.1362683
1.1385791
1.1408186
1.1429781
1.14505
1.1470274
1.1489048
1.1506774
1.1523418
1.1538956
1.1553374
1.1566668
1.1578842
1.1589904
1.159987
1.1608758
1.1616585
1.1623369
1.1629126
1.163387
1.163761
1.164035
1.1642086
1.1642806
1.1642487
1.1641098
1.1638594
1.1634921
1.1630016
1.1623813
1.1616251
1.1607276
1.1596842
1.1584901
1.1571401
1.1556343
1.1539916
1.1522719
1.150597
1.1491516
1.1481457
1.147793
1.1482826
1.1494041
1.1507372
1.1516938
1.1523169
1.151636
1.1435306
1.0474823
1.0850345
1.0687971
1.0809707
1.0754997
1.0811564
1.0802171
1.0834267
1.0844767
1.086727
1.0885647
1.0906584
1.092773
1.0949746
1.0972447
1.0995841
1.1019887
1.104454
1.1069749
1.1095452
1.1121577
1.1148043
1.1174759
1.1201627
1.1228541
1.1255386
1.1282047
1.1308404
1.1334335
1.1359723
1.1384453
1.1408417
1.1431513
1.1453653
1.1474757
1.1494761
1.1513612
1.1531271
1.1547715
1.1562931
1.1576918
1.1589687
1.1601256
1.1611651
1.1620902
1.1629043
1.1636106
1.1642125
1.1647128
1.1651141
1.1654185
1.1656275
1.1657419
1.1657616
1.1656853
1.165511
1.1652354
1.1648543
1.1643625
1.1637544
1.1630243
1.1621675
1.1611799
1.1600581
1.158798
1.1573953
1.1558513
1.1541875
1.1524663
1.1508083
1.1493946
1.1484422
1.1481646
1.1486544
1.1497676
1.1510626
1.1518733
1.1522244
1.1510508
1.1440484
1.0473519
1.0852544
1.0687482
1.0809331
1.0757899
1.0817618
1.0810763
1.0844397
1.0857603
1.0881945
1.0902962
1.0926191
1.0949842
1.0974355
1.0999593
1.1025535
1.1052125
1.1079299
1.1106984
1.1135092
1.1163527
1.1192179
1.1220931
1.1249656
1.1278222
1.1306491
1.1334326
1.1361589
1.1388147
1.1413872
1.1438646
1.1462364
1.1484932
1.1506275
1.1526332
1.154506
1.1562432
1.1578439
1.1593083
1.1606383
1.1618367
1.1629071
1.1638539
1.164682
1.1653964
1.1660021
1.1665037
1.1669056
1.1672117
1.167425
1.1675482
1.1675831
1.1675305
1.1673902
1.167161
1.1668407
1.1664259
1.1659126
1.1652959
1.1645707
1.1637323
1.1627769
1.1617014
1.1605028
1.159177
1.15772
1.1561344
1.1544449
1.1527163
1.1510706
1.1496946
1.148805
1.1485848
1.1491059
1.1502469
1.1515551
1.1523129
1.1523269
1.1507432
1.1451068
1.0477945
1.0860181
1.0693027
1.0819435
1.0768325
1.083061
1.0826363
1.0861869
1.0878356
1.0904839
1.092886
1.0954781
1.0981304
1.1008688
1.1036821
1.1065648
1.1095091
1.1125057
1.115544
1.1186121
1.1216968
1.1247837
1.1278578
1.1309033
1.1339042
1.1368446
1.1397086
1.1424812
1.1451485
1.1476978
1.1501182
1.1524005
1.1545377
1.1565249
1.1583591
1.1600396
1.1615673
1.1629447
1.1641759
1.1652659
1.1662205
1.1670462
1.1677499
1.1683382
1.1688179
1.1691952
1.1694758
1.1696648
1.1697663
1.1697839
1.1697203
1.169577
1.1693548
1.1690532
1.1686707
1.1682048
1.167652
1.1670084
1.1662693
1.1654302
1.1644871
1.1634367
1.1622763
1.1610028
1.1596114
1.1580982
1.1564677
1.1547481
1.1530081
1.1513725
1.1500376
1.1492101
1.1490588
1.1496363
1.1508257
1.1521419
1.1529111
1.1526614
1.1509372
1.1466566
1.0487945
1.087336
1.0704338
1.0835082
1.0785879
1.0850695
1.0850005
1.088753
1.0907905
1.0936982
1.0964443
1.0993549
1.1023387
1.1054081
1.1085513
1.1117591
1.1150197
1.1183199
1.1216449
1.1249783
1.1283028
1.1316002
1.1348518
1.1380388
1.1411424
1.1441448
1.1470293
1.1497806
1.1523856
1.1548334
1.1571157
1.1592269
1.1611637
1.1629257
1.1645145
1.1659338
1.167189
1.1682867
1.1692347
1.1700414
1.1707153
1.1712655
1.1717005
1.1720287
1.1722578
1.1723948
1.1724457
1.1724159
1.1723095
1.1721299
1.1718794
1.1715594
1.17117
1.1707102
1.1701781
1.1695708
1.1688847
1.1681156
1.1672592
1.1663114
1.1652686
1.1641277
1.162886
1.1615394
1.1600826
1.1585117
1.1568338
1.1550817
1.1533288
1.1517042
1.1504097
1.1496494
1.1495744
1.1502342
1.151499
1.1528397
1.153563
1.1533245
1.1518445
1.148583
1.0504157
1.0892678
1.0722279
1.0857865
1.0811737
1.0878932
1.0882707
1.0922533
1.0947454
1.0979713
1.1011133
1.1044004
1.1077681
1.1112174
1.114733
1.1183004
1.1219028
1.1255215
1.1291365
1.1327266
1.1362696
1.1397433
1.1431253
1.1463941
1.1495293
1.1525127
1.1553282
1.1579629
1.1604069
1.1626536
1.1646997
1.1665453
1.1681928
1.1696476
1.1709168
1.1720092
1.1729347
1.173704
1.1743282
1.1748184
1.1751855
1.1754399
1.1755915
1.1756494
1.1756216
1.1755152
1.1753361
1.1750892
1.1747784
1.1744064
1.173975
1.1734848
1.1729352
1.1723245
1.1716501
1.1709089
1.1700967
1.1692095
1.1682428
1.1671929
1.1660563
1.1648298
1.1635101
1.1620923
1.1605704
1.1589413
1.1572153
1.155431
1.1536672
1.1520585
1.1508058
1.1501093
1.1501087
1.1508684
1.1522402
1.153662
1.1544094
1.1542591
1.1531236
1.1507357
1.0527197
1.0918667
1.0748002
1.0888732
1.0846337
1.0916348
1.09257
1.0968298
1.0998528
1.1034759
1.1070789
1.1108092
1.1146176
1.1184944
1.1224188
1.1263698
1.1303239
1.1342564
1.1381412
1.1419512
1.1456596
1.1492401
1.1526679
1.1559204
1.1589783
1.1618258
1.1644513
1.1668472
1.1690103
1.1709413
1.1726443
1.1741266
1.1753977
1.1764692
1.1773539
1.1780653
1.1786173
1.1790236
1.1792977
1.1794525
1.1795001
1.1794516
1.1793171
1.1791055
1.1788245
1.1784807
1.1780793
1.1776244
1.1771191
1.1765654
1.175964
1.1753145
1.1746155
1.1738646
1.1730586
1.1721934
1.1712649
1.1702686
1.1692001
1.1680555
1.1668313
1.1655239
1.1641292
1.1626418
1.1610556
1.1593688
1.1575962
1.1557823
1.1540115
1.1524252
1.1512223
1.1505709
1.1506364
1.1514954
1.1529679
1.1544784
1.1553249
1.155366
1.1546275
1.1529613
1.0557654
1.0951563
1.0782831
1.0928504
1.0891381
1.096445
1.0980778
1.1026942
1.106336
1.1104491
1.1145831
1.118821
1.1231198
1.1274595
1.1318119
1.1361479
1.1404363
1.1446445
1.1487394
1.1526884
1.1564609
1.1600289
1.1633686
1.1664607
1.1692915
1.1718526
1.1741411
1.1761589
1.1779125
1.1794118
1.1806699
1.1817017
1.1825237
1.1831529
1.1836068
1.1839023
1.1840559
1.1840831
1.1839984
1.1838152
1.1835455
1.1832002
1.1827887
1.182319
1.1817979
1.1812308
1.1806219
1.1799743
1.1792899
1.1785696
1.177813
1.1770187
1.1761844
1.1753067
1.1743816
1.1734047
1.1723711
1.171276
1.1701149
1.1688834
1.1675778
1.1661938
1.164727
1.1631716
1.1615221
1.1597796
1.1579634
1.1561237
1.1543488
1.1527856
1.1516407
1.1510228
1.1511302
1.1520737
1.1536376
1.1552485
1.1562434
1.156546
1.1562302
1.1551213
1.0596385
1.0991513
1.0827985
1.0978915
1.0949027
1.1025853
1.1050696
1.110139
1.114483
1.1191759
1.1239036
1.1287005
1.1335223
1.1383373
1.1431067
1.1477908
1.1523481
1.1567378
1.1609211
1.164863
1.1685337
1.1719097
1.1749749
1.17772
1.180143
1.1822481
1.1840449
1.1855475
1.1867733
1.187742
1.1884748
1.1889932
1.1893188
1.1894725
1.1894744
1.1893429
1.1890952
1.1887472
1.1883128
1.1878047
1.1872338
1.1866098
1.1859408
1.1852333
1.1844927
1.1837229
1.1829269
1.1821064
1.1812622
1.1803938
1.1794998
1.1785777
1.177624
1.1766346
1.1756048
1.1745293
1.1734029
1.1722201
1.170976
1.1696658
1.1682851
1.1668291
1.165293
1.1636715
1.1619607
1.1601651
1.1583094
1.1564475
1.1546677
1.153123
1.1520322
1.1514438
1.1515679
1.1525708
1.1542128
1.1559325
1.1571127
1.1577162
1.1578138
1.1571265
1.0645485
1.1040843
1.0886288
1.1043344
1.1022692
1.1103878
1.1138714
1.1194924
1.1246106
1.1299661
1.13534
1.1407284
1.1460765
1.1513358
1.1564533
1.1613767
1.1660559
1.1704465
1.1745107
1.17822
1.1815551
1.1845065
1.187074
1.1892653
1.1910949
1.1925825
1.1937517
1.1946283
1.1952396
1.1956128
1.1957748
1.195751
1.1955655
1.1952405
1.1947961
1.1942505
1.1936199
1.1929187
1.1921594
1.1913527
1.1905079
1.1896327
1.1887334
1.1878148
1.1868805
1.1859331
1.1849739
1.1840033
1.183021
1.182025
1.181013
1.1799812
1.1789254
1.1778405
1.1767209
1.1755609
1.1743543
1.1730954
1.1717784
1.1703979
1.1689489
1.1674261
1.1658249
1.1641407
1.1623722
1.1605281
1.158638
1.1567573
1.154975
1.1534497
1.1523944
1.1518192
1.1519479
1.1529938
1.1546977
1.1565279
1.1579147
1.1588366
1.1593254
1.1589635
1.0707564
1.1106623
1.0961469
1.1125026
1.1115799
1.1201792
1.1248195
1.1311183
1.1370866
1.1431801
1.1492297
1.1551943
1.1609999
1.166579
1.1718659
1.1768026
1.1813413
1.1854464
1.1890959
1.1922805
1.1950034
1.1972778
1.1991254
1.200574
1.2016555
1.2024041
1.2028547
1.2030418
1.2029984
1.2027557
1.2023424
1.2017846
1.201106
1.2003271
1.1994666
1.1985403
1.1975621
1.1965439
1.1954958
1.1944263
1.1933423
1.1922494
1.1911517
1.1900523
1.1889531
1.1878551
1.1867583
1.1856618
1.1845639
1.1834617
1.1823515
1.1812288
1.1800883
1.1789242
1.1777302
1.1764997
1.1752261
1.1739028
1.1725235
1.1710821
1.1695728
1.1679906
1.1663309
1.1645907
1.1627718
1.1608876
1.1589711
1.1570772
1.1552961
1.1537906
1.1527557
1.1521921
1.1523254
1.1533992
1.1551486
1.1570803
1.1586757
1.1599147
1.1607797
1.160693
1.0784343
1.1190635
1.1055411
1.12264
1.1232241
1.1324012
1.1383755
1.14551
1.1523875
1.1592369
1.1658995
1.1722979
1.1783413
1.1839538
1.1890731
1.1936556
1.1976758
1.2011266
1.2040167
1.2063682
1.2082134
1.2095916
1.2105459
1.2111216
1.2113637
1.2113155
1.2110178
1.2105083
1.209821
1.2089866
1.2080321
1.206981
1.205854
1.2046685
1.2034397
1.2021802
1.2009009
1.1996106
1.1983167
1.197025
1.19574
1.1944652
1.1932028
1.191954
1.1907193
1.1894981
1.1882893
1.1870908
1.1858996
1.1847119
1.183523
1.1823276
1.1811196
1.1798924
1.1786391
1.1773524
1.176025
1.1746497
1.1732195
1.171728
1.1701691
1.168538
1.1668311
1.1650475
1.163192
1.1612821
1.1593523
1.1574561
1.1556849
1.1542018
1.1531778
1.1526398
1.1527944
1.1538814
1.1556541
1.1576628
1.1594463
1.1609825
1.1622067
1.1623858
1.0877619
1.1294088
1.117472
1.1353314
1.1378797
1.1477757
1.1552122
1.1632827
1.1710086
1.1784534
1.1854552
1.191919
1.1977619
1.2029295
1.2073936
1.2111516
1.2142221
1.2166407
1.2184554
1.2197215
1.2204982
1.2208451
1.2208201
1.2204777
1.219868
1.2190362
1.2180225
1.2168622
1.2155859
1.2142201
1.2127872
1.2113062
1.2097933
1.2082617
1.2067224
1.2051847
1.2036557
1.2021414
1.2006464
1.199174
1.1977266
1.1963055
1.1949112
1.1935434
1.1922012
1.1908829
1.1895863
1.1883082
1.1870448
1.1857912
1.1845422
1.1832914
1.1820324
1.1807578
1.17946
1.1781312
1.1767636
1.1753493
1.1738813
1.1723528
1.1707582
1.1690936
1.167357
1.1655498
1.1636798
1.1617664
1.1598433
1.1579623
1.1562158
1.1547633
1.1537561
1.153259
1.1534524
1.1545339
1.1562925
1.1583326
1.1602549
1.1620321
1.1635722
1.1640214
1.099551
1.1425897
1.1328785
1.1515565
1.1565311
1.1672236
1.1760423
1.1849109
1.19314
1.2007024
1.2074661
1.2133662
1.2183724
1.2224909
1.2257568
1.228227
1.2299725
1.2310719
1.231606
1.2316538
1.2312899
1.2305825
1.2295926
1.2283743
1.2269743
1.225433
1.2237844
1.2220576
1.2202767
1.2184619
1.2166297
1.2147938
1.2129651
1.2111527
1.2093635
1.207603
1.2058756
1.2041842
1.2025311
1.2009174
1.1993435
1.197809
1.1963129
1.1948539
1.1934299
1.1920382
1.1906757
1.1893385
1.1880219
1.1867204
1.1854282
1.1841383
1.1828438
1.1815367
1.1802089
1.1788523
1.1774585
1.1760196
1.1745284
1.1729789
1.1713665
1.1696887
1.1679457
1.1661413
1.164285
1.1623955
1.1605044
1.1586621
1.1569599
1.1555461
1.1545741
1.1541354
1.1543602
1.1553958
1.1570774
1.1590687
1.1610394
1.1629378
1.1646518
1.1653573
1.1154691
1.1597499
1.1530759
1.1724111
1.1801635
1.1915199
1.2012038
1.2102634
1.2182274
1.2250717
1.2307581
1.2353112
1.2387927
1.2412926
1.2429166
1.2437771
1.243985
1.2436454
1.242854
1.241696
1.2402455
1.2385663
1.236712
1.234728
1.2326516
1.2305139
1.2283401
1.2261509
1.2239629
1.2217896
1.2196413
1.2175266
1.2154516
1.2134214
1.2114393
1.209508
1.207629
1.2058031
1.2040303
1.2023102
1.2006415
1.1990225
1.1974513
1.1959253
1.1944418
1.1929973
1.1915881
1.1902096
1.1888565
1.1875231
1.1862029
1.1848887
1.183573
1.1822475
1.1809038
1.1795335
1.1781281
1.17668
1.1751824
1.1736304
1.1720211
1.170354
1.1686314
1.1668582
1.1650437
1.1632045
1.1613691
1.1595878
1.157949
1.156588
1.1556565
1.1552637
1.1554862
1.1564033
1.1579049
1.1597151
1.1615751
1.163394
1.1650539
1.165923
1.1368775
1.1822091
1.1795163
1.1989121
1.2091245
1.2205758
1.2300453
1.2381522
1.244721
1.2498199
1.2535477
1.256048
1.2574797
1.2580049
1.2577775
1.2569377
1.2556087
1.2538962
1.2518895
1.2496628
1.2472769
1.2447814
1.2422163
1.2396138
1.2369994
1.2343935
1.231812
1.2292673
1.2267689
1.2243239
1.2219378
1.2196142
1.2173556
1.2151637
1.2130391
1.2109819
1.2089917
1.2070675
1.2052079
1.2034108
1.201674
1.1999949
1.1983705
1.1967979
1.1952735
1.1937936
1.1923537
1.1909489
1.1895738
1.1882222
1.1868873
1.1855618
1.1842378
1.182907
1.1815607
1.1801905
1.1787883
1.1773468
1.1758606
1.1743261
1.1727424
1.1711111
1.169435
1.1677189
1.1659697
1.1642005
1.1624369
1.1607285
1.1591635
1.1578668
1.1569634
1.1565442
1.156672
1.1573609
1.1585297
1.1599787
1.1615051
1.1629751
1.1642776
1.165155
1.1665958
1.2107685
1.2132801
1.2319552
1.2425035
1.2526605
1.2604587
1.2663071
1.2703384
1.2728003
1.273938
1.2739927
1.273181
1.2716917
1.2696832
1.2672866
1.2646075
1.2617309
1.2587237
1.2556388
1.2525174
1.2493914
1.2462853
1.2432179
1.2402035
1.2372525
1.2343727
1.2315695
1.2288466
1.2262062
1.2236494
1.2211765
1.2187871
1.2164803
1.2142546
1.2121086
1.2100401
1.208047
1.2061266
1.2042762
1.2024927
1.2007727
1.199113
1.1975099
1.1959596
1.194458
1.1930004
1.1915816
1.1901961
1.1888375
1.187499
1.1861731
1.1848519
1.1835271
1.1821902
1.180833
1.1794478
1.1780284
1.1765706
1.1750731
1.1735366
1.1719637
1.1703569
1.1687182
1.1670502
1.165361
1.1636723
1.1620309
1.1605184
1.159247
1.1583208
1.1577949
1.1576802
1.1579743
1.15862
1.1594984
1.1604445
1.1612805
1.1619569
1.1626575
1.207133
1.2472752
1.2530767
1.2688408
1.2781987
1.2852506
1.2896799
1.2920524
1.2927419
1.2921276
1.2905201
1.2881765
1.2853008
1.2820529
1.2785561
1.2749045
1.2711692
1.2674038
1.2636483
1.2599323
1.2562773
1.252699
1.2492085
1.2458134
1.2425185
1.2393269
1.2362398
1.2332575
1.2303794
1.227604
1.2249295
1.2223537
1.219874
1.217488
1.2151927
1.2129854
1.210863
1.2088225
1.2068606
1.2049738
1.2031587
1.2014117
1.199729
1.1981069
1.1965413
1.1950279
1.1935618
1.1921378
1.1907501
1.1893926
1.1880583
1.18674
1.1854301
1.1841202
1.1828024
1.1814685
1.1801117
1.178727
1.1773119
1.1758668
1.174394
1.1728961
1.1713732
1.1698223
1.1682388
1.1666227
1.1649887
1.1633775
1.1618641
1.160553
1.159521
1.1587553
1.1582184
1.1579409
1.157916
1.1579976
1.1581375
1.1581551
1.1580934
1.1584708
1.2565966
1.2899331
1.2971626
1.3071631
1.312103
1.314388
1.314418
1.312865
1.310177
1.3067118
1.3027307
1.2984264
1.2939377
1.2893649
1.284779
1.2802304
1.2757543
1.2713749
1.2671083
1.262965
1.2589512
1.2550704
1.2513234
1.24771
1.2442284
1.2408763
1.2376509
1.2345486
1.231566
1.2286994
1.2259449
1.2232986
1.2207568
1.2183157
1.2159716
1.2137211
1.2115604
1.209486
1.2074941
1.205581
1.2037431
1.2019765
1.2002776
1.1986425
1.197067
1.1955468
1.194077
1.1926521
1.1912665
1.1899141
1.1885884
1.1872826
1.185989
1.1846996
1.1834063
1.182102
1.1807806
1.179438
1.1780734
1.1766885
1.1752861
1.1738672
1.1724284
1.1709599
1.1694489
1.1678872
1.1662817
1.1646637
1.1630946
1.161656
1.1603811
1.1592347
1.158204
1.1571741
1.1563319
1.1554928
1.1547263
1.1539132
1.1531652
1.153181
1.3126583
1.3336438
1.3381392
1.3404212
1.3394402
1.336548
1.3323744
1.327425
1.3220307
1.3164161
1.3107297
1.3050693
1.2994985
1.2940577
1.2887718
1.2836554
1.2787157
1.2739556
1.2693743
1.2649694
1.2607369
1.2566718
1.252769
1.2490228
1.2454276
1.2419776
1.2386673
1.2354913
1.2324442
1.2295207
1.226716
1.2240252
1.2214438
1.2189673
1.2165917
1.2143128
1.2121268
1.2100296
1.2080175
1.2060865
1.204233
1.2024531
1.2007432
1.1990994
1.1975176
1.1959936
1.1945226
1.1930992
1.1917179
1.1903728
1.1890583
1.1877675
1.1864927
1.1852253
1.1839578
1.1826844
1.1813999
1.1801002
1.1787855
1.1774586
1.1761221
1.174775
1.1734088
1.1720068
1.1705475
1.1690144
1.1674062
1.1657441
1.1640734
1.1624376
1.160831
1.1592569
1.1575769
1.1558964
1.1541225
1.1524186
1.1508336
1.149349
1.148106
1.1477863
1.3673843
1.3704019
1.3688632
1.3640695
1.3578626
1.3508995
1.3436512
1.3363663
1.3291943
1.3222161
1.3154754
1.3089925
1.3027744
1.2968199
1.2911228
1.2856748
1.2804657
1.2754851
1.2707224
1.2661671
1.2618091
1.257639
1.2536475
1.2498261
1.2461668
1.242662
1.2393045
1.2360875
1.2330047
1.2300502
1.2272181
1.2245032
1.2219004
1.219405
1.2170125
1.2147185
1.2125189
1.2104096
1.2083867
1.2064461
1.204584
1.2027969
1.2010809
1.1994323
1.197847
1.1963208
1.1948495
1.1934284
1.1920526
1.1907147
1.1894104
1.1881316
1.1868704
1.1856179
1.1843698
1.1831222
1.1818695
1.1806057
1.1793306
1.1780499
1.1767658
1.1754747
1.174164
1.1728116
1.171389
1.1698721
1.1682505
1.1665348
1.1647484
1.1629073
1.1610051
1.1589944
1.1568171
1.1544534
1.1519875
1.1495824
1.1473873
1.145465
1.1439443
1.1433686
1.40245
1.3944116
1.3862527
1.3775309
1.3684709
1.3595232
1.3508474
1.3425193
1.3345661
1.3269903
1.3197822
1.3129262
1.3064041
1.300197
1.2942863
1.2886543
1.2832842
1.2781606
1.273269
1.2685962
1.2641298
1.2598587
1.2557725
1.2518616
1.2481171
1.2445309
1.2410954
1.2378034
1.2346483
1.2316239
1.2287243
1.225944
1.223278
1.2207214
1.2182696
1.2159184
1.2136636
1.2115011
1.2094269
1.2074373
1.2055284
1.2036967
1.2019386
1.2002502
1.1986276
1.1970669
1.1955643
1.194116
1.1927142
1.1913565
1.1900329
1.1887367
1.1874624
1.1862062
1.1849597
1.1837132
1.1824615
1.1812055
1.1799465
1.1786857
1.1774265
1.1761655
1.1748877
1.1735664
1.1721686
1.1706622
1.1690302
1.167272
1.1653865
1.1634123
1.1613275
1.1589913
1.1564665
1.1536791
1.1507624
1.1479179
1.1453576
1.1431983
1.1415502
1.1408295
1.1535952
1.1595054
1.1762247
1.1902888
1.1965774
1.1979567
1.1979103
1.1975357
1.1976351
1.1973301
1.1969956
1.1965515
1.1960011
1.1953812
1.1947168
1.1940141
1.1932771
1.1925114
1.1917215
1.1909115
1.1900854
1.1892464
1.1883978
1.1875424
1.1866828
1.1858212
1.18496
1.1841012
1.1832467
1.1823983
1.181558
1.1807275
1.1799085
1.1791028
1.1783123
1.1775387
1.1767839
1.1760498
1.1753386
1.1746524
1.1739933
1.1733637
1.1727662
1.1722032
1.1716774
1.1711916
1.1707487
1.1703519
1.1700043
1.1697088
1.1694687
1.1692875
1.1691687
1.169116
1.1691328
1.1692218
1.1693844
1.1696213
1.1699311
1.1703105
1.1707525
1.1712438
1.1717595
1.1722634
1.1727069
1.173052
1.1732286
1.1731967
1.1728704
1.1723841
1.1712212
1.1701571
1.1678141
1.1660289
1.1629329
1.1602208
1.1607563
1.1575102
1.1637384
1.1633668
1.1480383
1.1605571
1.1805881
1.1910327
1.1938185
1.1936165
1.1931271
1.1930022
1.1928092
1.1926276
1.1923638
1.1920492
1.1916851
1.1912845
1.1908412
1.1903606
1.1898445
1.1892963
1.1887187
1.1881144
1.1874864
1.1868373
1.1861696
1.1854861
1.1847892
1.1840813
1.183365
1.1826426
1.1819164
1.1811887
1.1804619
1.1797381
1.1790197
1.1783088
1.1776078
1.176919
1.1762447
1.1755873
1.1749492
1.1743329
1.173741
1.1731761
1.1726411
1.1721385
1.1716714
1.1712425
1.1708549
1.1705119
1.1702165
1.1699715
1.1697799
1.1696448
1.1695692
1.1695559
1.1696072
1.1697245
1.1699076
1.1701551
1.1704632
1.1708264
1.1712362
1.1716764
1.1721187
1.1725245
1.1728478
1.173056
1.1730789
1.1729158
1.172435
1.171804
1.1705457
1.1693736
1.1670328
1.1651999
1.1622529
1.1597068
1.1604829
1.157356
1.1640353
1.1632302
1.1471199
1.1644798
1.1806193
1.1882631
1.1895602
1.1892859
1.1889669
1.188862
1.1887257
1.1885784
1.18837
1.1881457
1.1878796
1.1875888
1.1872636
1.1869109
1.1865297
1.186122
1.1856889
1.1852318
1.1847522
1.1842518
1.1837322
1.1831951
1.1826424
1.1820757
1.1814971
1.1809084
1.1803117
1.1797091
1.1791026
1.1784945
1.1778871
1.1772826
1.1766835
1.1760921
1.175511
1.1749429
1.1743902
1.1738557
1.1733423
1.1728527
1.1723899
1.1719569
1.1715565
1.1711918
1.1708659
1.1705821
1.1703432
1.170152
1.1700112
1.1699234
1.1698911
1.169916
1.1699997
1.1701421
1.1703416
1.1705943
1.1708947
1.1712357
1.1716075
1.171992
1.1723576
1.1726649
1.1728721
1.1729518
1.1728243
1.1725428
1.171935
1.1711818
1.1698417
1.1685913
1.1662539
1.1643989
1.1616006
1.1592193
1.1602261
1.157272
1.164284
1.1631057
1.146846
1.1664403
1.1801274
1.185933
1.1861034
1.1858051
1.1855041
1.1854176
1.1852269
1.1850774
1.1848671
1.1846652
1.1844298
1.1841887
1.1839237
1.1836443
1.1833462
1.1830312
1.1826989
1.1823495
1.1819835
1.1816011
1.1812029
1.1807896
1.1803621
1.1799213
1.1794684
1.1790046
1.1785313
1.1780501
1.1775627
1.177071
1.1765769
1.1760826
1.1755902
1.1751022
1.1746209
1.174149
1.1736891
1.1732439
1.1728163
1.1724093
1.1720258
1.1716689
1.1713415
1.1710465
1.1707873
1.1705671
1.1703885
1.1702541
1.1701661
1.1701269
1.1701381
1.1702009
1.1703156
1.170481
1.1706938
1.1709482
1.1712368
1.1715516
1.171882
1.1722077
1.1724947
1.172704
1.1727995
1.1727552
1.1725142
1.1721013
1.1713779
1.1705198
1.1691105
1.1677987
1.1654651
1.1636074
1.1609573
1.158753
1.1599862
1.1572406
1.1644902
1.1629867
1.143752
1.1656126
1.1778814
1.1821058
1.1817507
1.1817282
1.1814908
1.1815011
1.1813537
1.1812862
1.1811368
1.181015
1.1808544
1.1806973
1.1805174
1.1803287
1.180124
1.1799064
1.1796747
1.1794291
1.1791696
1.1788963
1.1786095
1.1783094
1.1779966
1.1776716
1.1773351
1.1769878
1.1766309
1.1762654
1.1758927
1.1755142
1.1751316
1.1747467
1.1743614
1.1739779
1.1735985
1.1732255
1.1728615
1.1725093
1.1721715
1.1718511
1.1715509
1.1712742
1.1710237
1.1708023
1.1706131
1.1704593
1.1703434
1.1702675
1.1702337
1.1702436
1.1702982
1.170398
1.1705421
1.1707284
1.1709518
1.1712048
1.1714786
1.1717647
1.1720517
1.1723172
1.1725256
1.1726401
1.1726305
1.1724673
1.1721241
1.1715954
1.1707723
1.1698258
1.1683598
1.1670014
1.1646766
1.162829
1.1603291
1.1583097
1.1597616
1.157251
1.1646556
1.1628586
1.1391033
1.1640228
1.1744842
1.1779248
1.1774038
1.1776435
1.1774423
1.1775749
1.177483
1.177513
1.1774339
1.1774008
1.1773199
1.1772496
1.1771546
1.1770544
1.1769387
1.176812
1.176673
1.1765222
1.1763596
1.1761852
1.1759993
1.1758019
1.1755934
1.1753741
1.1751442
1.1749045
1.1746556
1.1743982
1.1741335
1.1738624
1.1735864
1.1733069
1.1730257
1.1727446
1.1724656
1.172191
1.1719231
1.1716644
1.1714176
1.1711853
1.1709704
1.1707759
1.1706044
1.1704586
1.1703413
1.1702557
1.1702039
1.1701877
1.1702086
1.1702678
1.1703656
1.1705015
1.1706739
1.1708793
1.1711114
1.1713611
1.1716185
1.171875
1.1721182
1.1723237
1.1724553
1.17248
1.1723723
1.172112
1.1716642
1.171035
1.1701269
1.1691063
1.1675959
1.1662009
1.1638895
1.1620624
1.1597154
1.1578884
1.159552
1.1572748
1.1647951
1.162712
1.1347845
1.1623478
1.170905
1.1739767
1.1733383
1.173789
1.1735913
1.1738296
1.1737771
1.1738928
1.1738741
1.1739242
1.1739166
1.1739208
1.1738974
1.1738732
1.1738351
1.1737886
1.1737321
1.1736658
1.1735898
1.173504
1.1734085
1.1733033
1.1731885
1.1730643
1.172931
1.1727889
1.1726384
1.1724802
1.1723149
1.1721436
1.1719672
1.171787
1.1716045
1.1714213
1.1712391
1.1710599
1.1708859
1.1707192
1.1705624
1.1704178
1.1702882
1.1701762
1.1700843
1.1700149
1.1699705
1.1699537
1.1699666
1.1700105
1.1700864
1.1701947
1.1703352
1.1705065
1.1707062
1.1709296
1.1711691
1.1714146
1.1716556
1.1718829
1.1720832
1.1722301
1.1722885
1.17223
1.172033
1.1716831
1.1711435
1.1704285
1.1694491
1.1683673
1.1668229
1.1653996
1.1631071
1.1613089
1.1591174
1.1574878
1.1593645
1.1572914
1.1649196
1.1625397
1.1310336
1.1606198
1.1674464
1.1703784
1.1696335
1.1702608