/*--------------------------------*- C++ -*----------------------------------*\
  =========                 |
  \\      /  F ield         | OpenFOAM: The Open Source CFD Toolbox
   \\    /   O peration     | Website:  https://openfoam.org
    \\  /    A nd           | Version:  12
     \\/     M anipulation  |
\*---------------------------------------------------------------------------*/
FoamFile
{
    format      ascii;
    class       volScalarField;
    location    "0.016";
    object      alphat;
}
// * * * * * * * * * * * * * * * * * * * * * * * * * * * * * * * * * * * * * //

dimensions      [1 -1 -1 0 0 0 0];

internalField   nonuniform List<scalar> 
16000
(
4.4310637e-07
1.1083561e-05
1.960165e-05
2.5256521e-05
1.9778667e-05
2.6891294e-05
1.9387863e-05
2.6071757e-05
2.0618026e-05
2.8036201e-05
2.3835889e-05
2.8238898e-05
2.5764793e-05
2.659343e-05
2.5656645e-05
2.5523379e-05
2.5236589e-05
2.5150329e-05
2.5144378e-05
2.5243539e-05
2.543991e-05
2.5733287e-05
2.6120724e-05
2.6602053e-05
2.7179538e-05
2.7859589e-05
2.8650185e-05
2.9564235e-05
3.061791e-05
3.1828916e-05
3.3215535e-05
3.4801243e-05
3.6616082e-05
3.8696848e-05
4.1089162e-05
4.3846983e-05
4.7034168e-05
5.0725309e-05
5.5011488e-05
6.0005566e-05
6.5837921e-05
7.2655708e-05
8.0642141e-05
9.0020452e-05
0.00010105143
0.00011403465
0.0001293335
0.00014738124
0.00016869627
0.00019389965
0.00022374585
0.00025917028
0.00030134621
0.00035178773
0.00041249903
0.00048620434
0.00057667184
0.00068918138
0.00083122104
0.0010134157
0.0012387557
0.0012405081
0.0012412512
0.0012409263
0.0012396063
0.0012377888
0.0012360218
0.0012343677
0.0012319386
0.0012281405
0.0012260877
0.0012232065
0.0012182193
0.0012135907
0.0012113767
0.0012087172
0.0012037576
0.001197915
0.0011912114
0.0011787206
3.9131963e-07
1.0434749e-05
2.0927994e-05
2.2587298e-05
1.7770166e-05
2.4029435e-05
1.7134335e-05
2.2801108e-05
1.8130362e-05
2.4726507e-05
2.1465067e-05
2.5398885e-05
2.3488596e-05
2.4021307e-05
2.3293327e-05
2.3096726e-05
2.2859427e-05
2.2768227e-05
2.2764725e-05
2.2853721e-05
2.3033107e-05
2.3302238e-05
2.365883e-05
2.4102763e-05
2.463567e-05
2.5263598e-05
2.5993543e-05
2.6837139e-05
2.7809584e-05
2.8928332e-05
3.0210842e-05
3.1679066e-05
3.3361365e-05
3.5292355e-05
3.751545e-05
4.0082366e-05
4.3054997e-05
4.650559e-05
5.0521388e-05
5.5212439e-05
6.0709312e-05
6.7157146e-05
7.4736083e-05
8.3668841e-05
9.422076e-05
0.00010669494
0.00012146024
0.0001389585
0.00015972084
0.00018438443
0.00021372055
0.00024868363
0.000290464
0.00034058766
0.00040106044
0.00047459746
0.00056494726
0.00067733228
0.0008190385
0.0010000776
0.0012334406
0.0012401761
0.0012408973
0.0012405182
0.0012391272
0.0012372745
0.0012355617
0.0012339548
0.0012313043
0.0012275432
0.0012252302
0.0012217309
0.0012168606
0.0012129861
0.0012112142
0.0012082754
0.0012030311
0.0011969675
0.0011909828
0.0011782327
3.5679482e-07
9.9289124e-06
1.9537651e-05
2.0739065e-05
1.5861422e-05
2.1164255e-05
1.5192827e-05
1.9824059e-05
1.6243033e-05
2.1694362e-05
1.9518497e-05
2.2589057e-05
2.1246213e-05
2.1462719e-05
2.0904231e-05
2.0679192e-05
2.0479075e-05
2.0394417e-05
2.0395374e-05
2.0479663e-05
2.0646556e-05
2.0895735e-05
2.1225197e-05
2.1635068e-05
2.2126426e-05
2.2705044e-05
2.3377175e-05
2.4153377e-05
2.504767e-05
2.6077017e-05
2.7258173e-05
2.8611695e-05
3.0164383e-05
3.1948707e-05
3.4005787e-05
3.6384717e-05
3.91449e-05
4.235597e-05
4.6101032e-05
5.0485223e-05
5.5637251e-05
6.1698792e-05
6.8844564e-05
7.7291764e-05
8.7304876e-05
9.9184697e-05
0.00011329839
0.00013008762
0.00015008578
0.00017393558
0.00020241378
0.0002364818
0.00027733536
0.00032650218
0.00038597953
0.00045845818
0.00054764072
0.00065865876
0.00079858393
0.00097691267
0.0012055646
0.0012398873
0.0012405029
0.0012399861
0.0012384854
0.0012366134
0.0012349947
0.0012334003
0.0012303079
0.0012267246
0.0012240254
0.0012201434
0.0012159484
0.0012129911
0.0012109499
0.0012076282
0.0012022813
0.0011962788
0.0011907628
0.0011779765
3.2427534e-07
9.5393105e-06
1.8740755e-05
1.8906493e-05
1.4201074e-05
1.8710297e-05
1.3480903e-05
1.7335522e-05
1.4577764e-05
1.9133846e-05
1.7778289e-05
2.0117662e-05
1.9188669e-05
1.917356e-05
1.8740655e-05
1.8512693e-05
1.8345708e-05
1.8274088e-05
1.8283648e-05
1.8368365e-05
1.8528147e-05
1.8763084e-05
1.9071532e-05
1.9454051e-05
1.9911384e-05
2.0449242e-05
2.1073442e-05
2.1793781e-05
2.2623268e-05
2.3578514e-05
2.4675887e-05
2.5934809e-05
2.7380944e-05
2.9045053e-05
3.0966485e-05
3.3192279e-05
3.5779888e-05
3.8797186e-05
4.2324406e-05
4.6462312e-05
5.1338733e-05
5.7093415e-05
6.3897582e-05
7.1963694e-05
8.1556919e-05
9.2977481e-05
0.00010659262
0.00012284565
0.00014227375
0.00016552793
0.00019339312
0.00022684247
0.00026708407
0.00031565933
0.00037457664
0.00044653313
0.0005352328
0.00064580017
0.00078525491
0.00096291368
0.0011903201
0.0012396744
0.001240133
0.0012394413
0.0012377941
0.0012359088
0.0012343848
0.0012326874
0.0012291208
0.0012258471
0.0012227658
0.0012189983
0.0012155938
0.0012127682
0.0012105173
0.0012068448
0.0012015229
0.0011956173
0.0011905175
0.0011779273
2.8569972e-07
9.2501335e-06
1.7834238e-05
1.9006785e-05
1.3406236e-05
1.6543259e-05
1.1983801e-05
1.5196526e-05
1.3147972e-05
1.6929339e-05
1.6248504e-05
1.7895312e-05
1.7278345e-05
1.7101641e-05
1.6762716e-05
1.6549401e-05
1.6410706e-05
1.6353537e-05
1.6371077e-05
1.6456243e-05
1.6609178e-05
1.6830649e-05
1.7119499e-05
1.7476886e-05
1.7903484e-05
1.8405031e-05
1.8987073e-05
1.9658859e-05
2.0432465e-05
2.1324122e-05
2.2349992e-05
2.352859e-05
2.4884727e-05
2.6447791e-05
2.8255739e-05
3.0353986e-05
3.2798383e-05
3.5655609e-05
3.9004223e-05
4.2941012e-05
4.7593425e-05
5.3100531e-05
5.9631872e-05
6.7395651e-05
7.665875e-05
8.7722332e-05
0.00010095506
0.00011680337
0.00013580916
0.00015863341
0.00018607077
0.00021910827
0.00025896841
0.00030720908
0.00036585253
0.00043760151
0.00052615659
0.00063662555
0.00077595761
0.000953313
0.0011801572
0.0012395154
0.0012397775
0.0012388703
0.0012370766
0.0012351861
0.0012337249
0.0012317613
0.0012280781
0.0012249814
0.0012216788
0.0012185118
0.0012155241
0.0012124929
0.001210131
0.0012061184
0.0012007643
0.0011950195
0.0011902157
0.0011779719
2.6471035e-07
9.0719035e-06
1.7051558e-05
1.9017584e-05
1.3598263e-05
1.4654247e-05
1.0837607e-05
1.3409754e-05
1.193331e-05
1.5083023e-05
1.4927326e-05
1.5948216e-05
1.5541889e-05
1.5266639e-05
1.4988386e-05
1.4792936e-05
1.4673277e-05
1.4625731e-05
1.4646984e-05
1.4730006e-05
1.4874921e-05
1.5083098e-05
1.5353784e-05
1.5688554e-05
1.6088262e-05
1.6558534e-05
1.7104713e-05
1.773565e-05
1.8462555e-05
1.9301276e-05
2.0267958e-05
2.1380419e-05
2.2662907e-05
2.4143787e-05
2.5860026e-05
2.7855887e-05
3.0186093e-05
3.2916675e-05
3.6125836e-05
3.9907386e-05
4.4388739e-05
4.970981e-05
5.6041014e-05
6.3587417e-05
7.2619497e-05
8.3442047e-05
9.64279e-05
0.00011203022
0.00013079874
0.00015340937
0.0001806719
0.00021359445
0.00025342293
0.00030174351
0.00036061015
0.00043275722
0.00052192333
0.00063325481
0.00077371209
0.0009525504
0.0011818741
0.0012393936
0.001239446
0.0012383111
0.0012363603
0.0012344595
0.0012329946
0.0012306892
0.0012273405
0.0012242802
0.0012208966
0.0012183423
0.0012155982
0.0012123325
0.0012098229
0.0012054253
0.0012000371
0.0011944211
0.0011898286
0.0011781471
2.4347355e-07
8.9702518e-06
1.6440541e-05
1.8167532e-05
1.3435473e-05
1.2958874e-05
1.1141206e-05
1.2223823e-05
1.1849268e-05
1.3488638e-05
1.3757021e-05
1.4234388e-05
1.3939469e-05
1.3615972e-05
1.3372189e-05
1.3194084e-05
1.3088258e-05
1.3048407e-05
1.3072516e-05
1.3154102e-05
1.3292893e-05
1.3490561e-05
1.3746725e-05
1.3974954e-05
1.4342454e-05
1.4778254e-05
1.5287064e-05
1.5877095e-05
1.6558522e-05
1.7346476e-05
1.8257037e-05
1.9307335e-05
2.0521124e-05
2.1925835e-05
2.3557593e-05
2.5459733e-05
2.7686066e-05
3.0302082e-05
3.3386507e-05
3.7314384e-05
4.1674234e-05
4.686727e-05
5.3067589e-05
6.0478996e-05
6.9377256e-05
8.0074289e-05
9.2950874e-05
0.00010847162
0.00012719875
0.00014983006
0.00017719811
0.00021034251
0.00025054532
0.00029943841
0.00035913465
0.00043244527
0.00052321359
0.00063671923
0.00078019897
0.00096355002
0.0012000045
0.0012392876
0.0012391064
0.0012377462
0.0012356335
0.0012336814
0.001232134
0.0012296412
0.0012268689
0.0012237678
0.0012204823
0.0012182491
0.0012153419
0.0012121722
0.0012094323
0.0012048354
0.0011994047
0.0011938815
0.0011893757
0.0011785358
2.1945093e-07
8.9012695e-06
1.5938634e-05
1.6538086e-05
1.2624092e-05
1.1303428e-05
9.8469264e-06
1.1032163e-05
1.0323547e-05
1.2126832e-05
1.2596847e-05
1.2662863e-05
1.2410699e-05
1.2087553e-05
1.1871438e-05
1.1715545e-05
1.1626219e-05
1.1597463e-05
1.155256e-05
1.1617826e-05
1.1741246e-05
1.1922704e-05
1.2161314e-05
1.2455767e-05
1.2811202e-05
1.3230891e-05
1.3719685e-05
1.428589e-05
1.4939277e-05
1.569465e-05
1.6568514e-05
1.7577768e-05
1.8746189e-05
2.0100843e-05
2.1677689e-05
2.3519839e-05
2.5681069e-05
2.8227171e-05
3.1238396e-05
3.4812016e-05
3.9066008e-05
4.4149949e-05
5.0243941e-05
5.8040436e-05
6.6902498e-05
7.7591671e-05
9.0501632e-05
0.00010611425
0.00012501081
0.00014792079
0.0001757108
0.00020946755
0.00025053059
0.00030060807
0.00036192171
0.00043743846
0.00053121652
0.00064891857
0.00079864784
0.00099153083
0.0012385899
0.0012391718
0.0012387531
0.0012371477
0.0012348422
0.0012327443
0.001230998
0.001228737
0.0012264797
0.0012233606
0.0012203963
0.0012182163
0.0012148111
0.0012121191
0.001209003
0.0012043902
0.0011989403
0.0011935175
0.0011889837
0.0011791751
2.024203e-07
8.8410104e-06
1.5464952e-05
1.4360697e-05
1.034205e-05
1.0091143e-05
8.0760903e-06
9.4378788e-06
9.4942068e-06
1.0935688e-05
1.1411264e-05
1.1198224e-05
1.0967269e-05
1.0674396e-05
1.0486718e-05
1.0279389e-05
1.0179911e-05
1.0146896e-05
1.0172746e-05
1.0253926e-05
1.0386984e-05
1.0572257e-05
1.081006e-05
1.1099861e-05
1.1446446e-05
1.1854092e-05
1.2327819e-05
1.287612e-05
1.3508552e-05
1.42396e-05
1.5086308e-05
1.6065585e-05
1.7201525e-05
1.8521135e-05
2.0060572e-05
2.1863229e-05
2.3983406e-05
2.6487833e-05
2.9458211e-05
3.2993682e-05
3.7216368e-05
4.22781e-05
4.8368306e-05
5.5703312e-05
6.4559895e-05
7.5282581e-05
8.9064712e-05
0.00010494986
0.00012423928
0.0001477062
0.00017626647
0.00021107553
0.00025356152
0.00030555617
0.00036946522
0.00044852264
0.00054720676
0.00067206194
0.00083252452
0.0010408335
0.0012386193
0.0012389787
0.0012383387
0.0012364654
0.0012339032
0.0012315451
0.0012295515
0.0012279291
0.0012259137
0.0012228815
0.001220352
0.0012178379
0.0012145163
0.0012122876
0.0012087575
0.0012040981
0.0011987046
0.0011934276
0.0011889231
0.001179919
1.8685318e-07
8.7847436e-06
1.3885596e-05
1.2477816e-05
8.3208703e-06
8.9866573e-06
7.1607748e-06
8.5235474e-06
8.7998771e-06
9.7993919e-06
1.0232269e-05
9.8635836e-06
9.6423448e-06
9.2920309e-06
9.0937424e-06
8.9657704e-06
8.9038122e-06
8.8992635e-06
8.94482e-06
9.0420759e-06
9.1837901e-06
9.3732394e-06
9.6115533e-06
9.8985724e-06
1.0239452e-05
1.0639009e-05
1.1102491e-05
1.1638704e-05
1.2257143e-05
1.2972022e-05
1.3801e-05
1.4761339e-05
1.5877673e-05
1.7177237e-05
1.869674e-05
2.0480302e-05
2.2583257e-05
2.5073902e-05
2.8036502e-05
3.1573614e-05
3.5811296e-05
4.0905952e-05
4.7057318e-05
5.4490815e-05
6.3497698e-05
7.4439492e-05
8.7763517e-05
0.00010398936
0.00012490334
0.00014922665
0.00017893991
0.00021529617
0.00025985743
0.0003146498
0.0003823748
0.00046671997
0.00057299422
0.00070916631
0.00088584201
0.0011168079
0.0012385026
0.0012387468
0.001237821
0.0012356384
0.0012327405
0.0012300761
0.0012281625
0.001227025
0.0012249641
0.0012221614
0.0012200377
0.0012173794
0.001214606
0.0012123967
0.0012086692
0.0012039803
0.0011987178
0.0011936073
0.0011892401
0.0011804856
1.7296974e-07
8.7283612e-06
1.0969516e-05
1.0254095e-05
6.8294598e-06
8.0081287e-06
6.5281731e-06
7.6693042e-06
8.2451995e-06
8.7665864e-06
9.0714586e-06
8.55754e-06
8.2846657e-06
8.0405313e-06
7.8935167e-06
7.8078264e-06
7.77726e-06
7.7976208e-06
7.8626225e-06
7.9712403e-06
8.1219422e-06
8.3164351e-06
8.5569937e-06
8.8439335e-06
9.1825446e-06
9.578217e-06
1.0036589e-05
1.0566831e-05
1.117859e-05
1.1885913e-05
1.2638627e-05
1.358032e-05
1.4678093e-05
1.5959359e-05
1.7461356e-05
1.9228951e-05
2.1318601e-05
2.3800269e-05
2.6760967e-05
3.0307078e-05
3.4569963e-05
4.0026523e-05
4.6305573e-05
5.3919817e-05
6.3176596e-05
7.4458426e-05
8.8248548e-05
0.00010511146
0.0001257564
0.00015106844
0.00018380776
0.00022226313
0.00026964959
0.00032828997
0.00040135805
0.00049332012
0.00061084437
0.00076350333
0.00096412124
0.0012326813
0.001238393
0.0012383523
0.0012371654
0.0012346343
0.001231353
0.0012285122
0.001227082
0.0012258678
0.0012236213
0.0012211844
0.0012193919
0.0012169321
0.0012146412
0.0012121676
0.0012085361
0.0012039602
0.0011989425
0.0011939865
0.0011898791
0.0011812721
1.6077203e-07
8.6759201e-06
8.6344522e-06
8.8086723e-06
6.0413631e-06
7.1034828e-06
5.9952215e-06
6.9255281e-06
7.6969351e-06
7.803237e-06
7.7968031e-06
7.3477826e-06
7.1254254e-06
6.9449114e-06
6.841019e-06
6.7908799e-06
6.7880971e-06
6.8292689e-06
6.9105698e-06
7.0321914e-06
7.1923859e-06
7.3934739e-06
7.6385435e-06
7.9285231e-06
8.2688566e-06
8.6250784e-06
9.0758043e-06
9.5985654e-06
1.0203031e-05
1.0902967e-05
1.1714897e-05
1.2660624e-05
1.376479e-05
1.505551e-05
1.6571186e-05
1.8358195e-05
2.0475092e-05
2.2994568e-05
2.6007762e-05
2.9626542e-05
3.3989651e-05
3.927164e-05
4.5687793e-05
5.3497386e-05
6.3027606e-05
7.5337665e-05
8.9750649e-05
0.00010744635
0.00012919836
0.00015598988
0.00018904499
0.00023208958
0.00028315189
0.00034688044
0.00042718981
0.00052977117
0.00066309478
0.00083909936
0.0010769767
0.0012377193
0.0012380382
0.00123778
0.0012363519
0.0012334861
0.0012298998
0.0012274318
0.0012261694
0.00122447
0.0012220745
0.0012201274
0.0012186007
0.0012163928
0.0012143082
0.001211674
0.001208122
0.0012038202
0.0011991838
0.0011944657
0.0011903534
0.0011818696
1.4990927e-07
8.6182352e-06
6.8715801e-06
7.7420781e-06
5.3971891e-06
6.2969105e-06
5.5421143e-06
6.2705656e-06
7.037235e-06
6.6941137e-06
6.6422273e-06
6.2918551e-06
6.1158246e-06
5.9871564e-06
5.9209687e-06
5.9009994e-06
5.9227094e-06
5.9838779e-06
6.0813606e-06
6.216035e-06
6.3871436e-06
6.5970435e-06
6.8174397e-06
7.1070241e-06
7.4471553e-06
7.8426018e-06
8.3017518e-06
8.8335497e-06
9.4480838e-06
1.0159582e-05
1.0985025e-05
1.1946217e-05
1.306969e-05
1.4384593e-05
1.593079e-05
1.7756597e-05
1.9923308e-05
2.2506983e-05
2.5603774e-05
2.9332344e-05
3.383929e-05
3.9308945e-05
4.5975534e-05
5.4116072e-05
6.4083481e-05
7.6321068e-05
9.1387169e-05
0.00010996853
0.00013409452
0.00016269593
0.00019817672
0.00024234958
0.00030047478
0.00037069637
0.00046044921
0.00057713047
0.00073157736
0.0009411491
0.0012345424
0.0012373949
0.0012374549
0.0012369763
0.0012353828
0.001232319
0.0012288962
0.0012268522
0.0012252069
0.0012229636
0.0012205486
0.0012191221
0.0012176503
0.0012155084
0.0012133316
0.0012106072
0.0012071629
0.0012031608
0.0011989221
0.0011945243
0.0011898802
0.0011814782
1.4027883e-07
8.5471413e-06
5.5220584e-06
6.7809321e-06
4.8194808e-06
5.5789557e-06
5.1601795e-06
5.6002362e-06
6.1917256e-06
5.7301678e-06
5.6283472e-06
5.3703782e-06
5.2377018e-06
5.1526611e-06
5.119679e-06
5.1275765e-06
5.1723025e-06
5.2527877e-06
5.3667845e-06
5.4925948e-06
5.6691607e-06
5.8848768e-06
6.1425222e-06
6.4456226e-06
6.7993245e-06
7.208947e-06
7.6828408e-06
8.2308289e-06
8.8634263e-06
9.5952697e-06
1.0443753e-05
1.143128e-05
1.2526064e-05
1.3865776e-05
1.5443014e-05
1.7307984e-05
1.9524935e-05
2.2173365e-05
2.5354472e-05
2.9194298e-05
3.3848444e-05
3.9814303e-05
4.6794073e-05
5.5342446e-05
6.584021e-05
7.8765395e-05
9.4732545e-05
0.00011450121
0.00013902686
0.00017108984
0.00020941448
0.00025747564
0.00031818588
0.00039953397
0.00050085935
0.00063488339
0.0008163253
0.0010692475
0.001236851
0.0012368305
0.0012365825
0.0012358872
0.0012342673
0.0012314179
0.001228491
0.0012263284
0.0012241052
0.001221452
0.0012191129
0.0012179884
0.0012163078
0.0012140212
0.0012115859
0.0012087652
0.001205386
0.0012015359
0.0011975177
0.0011933479
0.0011879786
0.0011792637
1.3174261e-07
8.3739175e-06
4.5004331e-06
5.9269118e-06
4.3057452e-06
4.9425433e-06
4.8300151e-06
4.8655421e-06
5.3297792e-06
4.8702505e-06
4.7505324e-06
4.5701205e-06
4.4784661e-06
4.4314493e-06
4.4288092e-06
4.4625215e-06
4.5293949e-06
4.6085073e-06
4.7328027e-06
4.8921839e-06
5.0878185e-06
5.3215408e-06
5.5969702e-06
5.9178639e-06
6.2901081e-06
6.7194174e-06
7.2143161e-06
7.75991e-06
8.4110825e-06
9.163569e-06
1.0035084e-05
1.1048387e-05
1.223142e-05
1.3619554e-05
1.5255215e-05
1.7191189e-05
1.9495856e-05
2.2253371e-05
2.5571099e-05
2.958432e-05
3.4459559e-05
4.0409455e-05
4.7695508e-05
5.6644797e-05
6.7668227e-05
8.1965512e-05
9.8955093e-05
0.00012005549
0.00014633012
0.00017915357
0.00022240365
0.00027476658
0.00034149995
0.00042765746
0.00054601283
0.00069882073
0.00090839225
0.0012004824
0.0012363775
0.0012359869
0.0012353902
0.0012344625
0.0012329483
0.0012306578
0.0012280417
0.0012255271
0.0012228173
0.0012199257
0.0012176773
0.001216449
0.001214365
0.0012118073
0.0012091462
0.0012061444
0.0012026396
0.0011986655
0.0011945184
0.0011901565
0.0011838332
0.0011745932
1.242584e-07
7.991754e-06
3.8198832e-06
5.1719139e-06
3.8490177e-06
4.3801541e-06
4.3009137e-06
4.1992331e-06
4.49217e-06
4.1115651e-06
4.0000248e-06
3.8820316e-06
3.8286065e-06
3.8153493e-06
3.8406267e-06
3.8826519e-06
3.9632906e-06
4.0778609e-06
4.225666e-06
4.4070949e-06
4.6240029e-06
4.8788327e-06
5.1757139e-06
5.518777e-06
5.8994481e-06
6.3489985e-06
6.8653337e-06
7.4584374e-06
8.1409575e-06
8.9280102e-06
9.8380217e-06
1.0894985e-05
1.2128381e-05
1.3575378e-05
1.5281969e-05
1.7303745e-05
1.9713815e-05
2.2601775e-05
2.6081319e-05
3.0298156e-05
3.5428873e-05
4.1700893e-05
4.9398164e-05
5.8870472e-05
7.0562209e-05
8.5032648e-05
0.00010390451
0.00012642516
0.00015453425
0.0001897616
0.00023410935
0.00029310919
0.00036568781
0.00045986456
0.00058390784
0.00075683554
0.00098203168
0.001235961
0.0012356241
0.0012348504
0.0012338824
0.0012326746
0.0012311419
0.001229194
0.0012268225
0.001224173
0.0012212396
0.0012182997
0.0012161275
0.001214357
0.0012118404
0.0012090898
0.0012061979
0.0012028696
0.0011989725
0.0011945743
0.0011899635
0.0011849299
0.0011774376
0.0011676771
1.1794089e-07
7.6436585e-06
3.3743479e-06
4.5010784e-06
3.4459467e-06
3.7174855e-06
3.8392298e-06
3.5878534e-06
3.7300778e-06
3.4541037e-06
3.3660642e-06
3.2978071e-06
3.2792314e-06
3.2966054e-06
3.3291189e-06
3.4051208e-06
3.5139183e-06
3.6542943e-06
3.8264964e-06
4.0317213e-06
4.272455e-06
4.5514676e-06
4.8626792e-06
5.2283021e-06
5.6469595e-06
6.1256928e-06
6.6729893e-06
7.2993191e-06
8.0177103e-06
8.8444342e-06
9.7987287e-06
1.0905876e-05
1.2197028e-05
1.3711612e-05
1.5430494e-05
1.7532855e-05
2.004188e-05
2.3052905e-05
2.6848629e-05
3.1293941e-05
3.6709628e-05
4.333651e-05
5.1480034e-05
6.151294e-05
7.3907469e-05
8.9262435e-05
0.00010833384
0.00013208072
0.00016317623
0.00020064922
0.00024783613
0.00030763744
0.00038766798
0.00048689013
0.00061562337
0.00079020909
0.001004973
0.0012352806
0.0012345779
0.0012334294
0.0012320916
0.0012305585
0.0012288109
0.0012268262
0.0012245607
0.0012220139
0.001219259
0.0012164975
0.0012143118
0.0012118851
0.0012091152
0.0012062165
0.001202987
0.001199146
0.0011946446
0.0011896225
0.0011843426
0.0011785277
0.0011704146
0.0011609605
1.1303324e-07
6.2973228e-06
2.9965443e-06
3.892871e-06
3.1000687e-06
3.1047597e-06
3.3807019e-06
3.033546e-06
3.0723825e-06
2.8929207e-06
2.8355806e-06
2.8084393e-06
2.8125098e-06
2.8492366e-06
2.9228388e-06
3.0289042e-06
3.1652827e-06
3.3318303e-06
3.5296205e-06
3.7603363e-06
4.0200813e-06
4.3232198e-06
4.6695521e-06
5.0640993e-06
5.5128852e-06
6.0232561e-06
6.6041884e-06
7.2666685e-06
8.0242541e-06
8.8730991e-06
9.8690063e-06
1.1022745e-05
1.2366997e-05
1.3942914e-05
1.5802271e-05
1.8010232e-05
2.0647952e-05
2.3817841e-05
2.7648149e-05
3.2298943e-05
3.7971154e-05
4.5240659e-05
5.3846289e-05
6.4451323e-05
7.7549218e-05
9.3765149e-05
0.00011388552
0.00013890291
0.0001716366
0.00021088256
0.00026004843
0.00032184385
0.00040360536
0.00050250277
0.00062625794
0.00077829433
0.00096837614
0.0011772265
0.0012332532
0.0012317611
0.0012300804
0.0012282389
0.0012262332
0.0012240861
0.0012218022
0.0012193979
0.0012169381
0.0012145012
0.0012121062
0.001209434
0.0012065785
0.0012034343
0.0011997038
0.001195231
0.0011900853
0.0011844493
0.001178569
0.0011722173
0.0011642243
0.0011561768
1.089456e-07
4.5429894e-06
2.6488111e-06
3.3345711e-06
2.6511545e-06
2.5900785e-06
2.8956796e-06
2.538987e-06
2.5231214e-06
2.4206442e-06
2.3976897e-06
2.3981239e-06
2.4344115e-06
2.5074304e-06
2.6126685e-06
2.7474709e-06
2.9110144e-06
3.1038787e-06
3.323985e-06
3.5792863e-06
3.8708232e-06
4.2020831e-06
4.5773457e-06
5.0018649e-06
5.4820206e-06
6.0255367e-06
6.6418242e-06
7.3302654e-06
8.1247491e-06
9.0344773e-06
1.00815e-05
1.1293257e-05
1.2704448e-05
1.4358825e-05
1.6311522e-05
1.8631659e-05
2.1405677e-05
2.4741811e-05
2.8775613e-05
3.3676433e-05
3.9655746e-05
4.6976606e-05
5.6385676e-05
6.7542137e-05
8.1299627e-05
9.8293276e-05
0.00011931144
0.00014533165
0.00017756267
0.00021944549
0.00026924826
0.00033077693
0.0004064105
0.00050305972
0.00061364168
0.00074224252
0.0008965078
0.0010605433
0.0012316956
0.0012299231
0.0012279596
0.0012258988
0.001223733
0.0012214966
0.0012192205
0.0012169507
0.0012147357
0.0012124842
0.0012100502
0.0012073909
0.0012043642
0.0012008269
0.0011965249
0.0011914444
0.0011858187
0.0011798061
0.0011736611
0.0011673486
0.0011603059
0.0011541018
1.0476493e-07
3.771986e-06
2.292551e-06
2.8180464e-06
2.2826465e-06
2.1592323e-06
2.3906934e-06
2.1046829e-06
2.0764789e-06
2.0339162e-06
2.0406365e-06
2.0766479e-06
2.1510419e-06
2.2568181e-06
2.3911694e-06
2.5530045e-06
2.7425132e-06
2.9582187e-06
3.206459e-06
3.4883859e-06
3.8070699e-06
4.1662843e-06
4.57059e-06
5.0254803e-06
5.5375968e-06
6.1149945e-06
6.7590978e-06
7.4952063e-06
8.3324777e-06
9.289383e-06
1.0389196e-05
1.1661005e-05
1.3141473e-05
1.4876816e-05
1.6925417e-05
1.9360672e-05
2.2274085e-05
2.5779462e-05
3.0018788e-05
3.5167994e-05
4.1445996e-05
4.9482141e-05
5.8974259e-05
7.0628439e-05
8.4956855e-05
0.00010258314
0.00012426289
0.00015090152
0.00018526878
0.00022550249
0.00027439745
0.00033334579
0.0004035345
0.00049022239
0.00058502546
0.00069186869
0.00081968624
0.00095734079
0.0011185453
0.0012280248
0.0012258622
0.0012236901
0.0012215062
0.0012193487
0.0012172399
0.0012151879
0.0012131659
0.0012110726
0.0012086926
0.0012058335
0.0012024393
0.0011984394
0.0011936425
0.0011881682
0.0011823799
0.0011763884
0.0011704445
0.0011647733
0.0011592768
0.0011549393
1.0204789e-07
3.0562648e-06
1.9797661e-06
2.2803586e-06
1.9851429e-06
1.7931491e-06
1.9183899e-06
1.7369411e-06
1.7264685e-06
1.7327538e-06
1.7702411e-06
1.84614e-06
1.9533524e-06
2.0877275e-06
2.2480272e-06
2.4343848e-06
2.6463578e-06
2.8880133e-06
3.1611215e-06
3.4684748e-06
3.8134676e-06
4.2001157e-06
4.6331696e-06
5.1182965e-06
5.6623357e-06
6.2687429e-06
6.955056e-06
7.7306145e-06
8.6108375e-06
9.615074e-06
1.0767896e-05
1.2100003e-05
1.3650071e-05
1.5466716e-05
1.7611167e-05
2.0160537e-05
2.3211309e-05
2.6881856e-05
3.131976e-05
3.6706159e-05
4.3551785e-05
5.1621244e-05
6.1484478e-05
7.3554396e-05
8.8327242e-05
0.00010639386
0.00012844269
0.00015525791
0.00018939298
0.00022864442
0.00027530464
0.00033005763
0.00039329525
0.000469469
0.0005507467
0.000642209
0.00075414787
0.00087832839
0.0010285049
0.0012131122
0.0012239392
0.0012217614
0.0012196736
0.0012177107
0.001215869
0.0012141045
0.0012123094
0.0012102935
0.0012078077
0.0012046386
0.0012008115
0.0011964035
0.001191319
0.0011858042
0.001180217
0.0011746679
0.0011693727
0.0011648105
0.0011610919
0.0011583101
1.011669e-07
2.4207587e-06
1.7103727e-06
1.7639161e-06
1.7127945e-06
1.4796517e-06
1.5317321e-06
1.4446111e-06
1.4667273e-06
1.5080911e-06
1.5863139e-06
1.6944754e-06
1.8286719e-06
1.987103e-06
2.1698783e-06
2.3780778e-06
2.6124295e-06
2.8767993e-06
3.1732531e-06
3.5048766e-06
3.8752528e-06
4.2885522e-06
4.7496598e-06
5.2643712e-06
5.839661e-06
6.4840466e-06
7.2080536e-06
8.0247712e-06
8.9392916e-06
9.9898941e-06
1.1194548e-05
1.2585543e-05
1.4203533e-05
1.6099523e-05
1.8337284e-05
2.1084351e-05
2.4289407e-05
2.8143354e-05
3.2798436e-05
3.8440671e-05
4.5296502e-05
5.3640352e-05
6.380476e-05
7.6187282e-05
9.1255695e-05
0.00010954754
0.00013165837
0.00015960265
0.00019146748
0.00022899718
0.00027262632
0.00032261205
0.00038269593
0.00044647569
0.00051825401
0.00060051867
0.00070403762
0.00082199193
0.00096705946
0.0011462158
0.0012223267
0.0012202461
0.0012183538
0.0012166632
0.0012151311
0.0012136437
0.0012120102
0.0012099798
0.0012072977
0.0012037996
0.0011995626
0.0011948975
0.0011897636
0.0011846136
0.0011796094
0.0011748196
0.0011704353
0.0011671926
0.0011652752
0.0011636306
1.0316888e-07
1.8759975e-06
1.4863964e-06
1.3683096e-06
1.4357928e-06
1.2162094e-06
1.2486972e-06
1.2312328e-06
1.2875842e-06
1.3644604e-06
1.4729506e-06
1.6059268e-06
1.7617083e-06
1.9402302e-06
2.1425986e-06
2.3705157e-06
2.6256437e-06
2.9112236e-06
3.2297988e-06
3.5845964e-06
3.9793022e-06
4.4181762e-06
4.9061989e-06
5.4492775e-06
6.054528e-06
6.7306513e-06
7.4884313e-06
8.3413504e-06
9.3063519e-06
1.0404809e-05
1.1663661e-05
1.3116944e-05
1.480743e-05
1.6788742e-05
1.9127724e-05
2.1907256e-05
2.5229571e-05
2.9220422e-05
3.4033194e-05
3.9854581e-05
4.6910566e-05
5.5472025e-05
6.5858274e-05
7.8445225e-05
9.3659496e-05
0.00011289841
0.00013495482
0.00016108441
0.00019170127
0.00022711688
0.00026752159
0.00031599554
0.00036732333
0.00042501602
0.00049099564
0.00057399724
0.00066804471
0.0007835299
0.00092612399
0.0011009375
0.0012211033
0.0012192068
0.0012175821
0.001216205
0.0012149798
0.0012137182
0.0012121566
0.0012100091
0.0012070557
0.0012032307
0.0011986844
0.0011940106
0.0011891296
0.0011847271
0.0011806572
0.0011767816
0.001173398
0.0011714062
0.001170968
0.0011701781
1.0922246e-07
1.4289877e-06
1.3060814e-06
1.080281e-06
1.2805154e-06
9.9565966e-07
1.0566051e-06
1.0909417e-06
1.1755562e-06
1.2815152e-06
1.4122241e-06
1.5642329e-06
1.7376851e-06
1.9336055e-06
2.1536545e-06
2.3998303e-06
2.6744366e-06
2.9798307e-06
3.3192658e-06
3.6958995e-06
4.1134792e-06
4.5763319e-06
5.0895198e-06
5.6590553e-06
6.2921921e-06
6.9978118e-06
7.7869403e-06
8.6734469e-06
9.6747977e-06
1.0813099e-05
1.2116201e-05
1.3619325e-05
1.5366676e-05
1.7413543e-05
1.9828608e-05
2.2696661e-05
2.612161e-05
3.023e-05
3.5175053e-05
4.1141334e-05
4.8683184e-05
5.7466896e-05
6.8070935e-05
8.0844441e-05
9.6168718e-05
0.00011443937
0.00013603786
0.00016129561
0.00019045778
0.00022577834
0.00026346201
0.00030560221
0.00035287354
0.00040671547
0.00047417077
0.00055009646
0.00064304937
0.00075781513
0.00089880526
0.001068978
0.0012202807
0.0012186217
0.0012172944
0.0012162285
0.0012152716
0.0012141671
0.0012125991
0.0012102755
0.001207038
0.0012029613
0.0011983698
0.0011937937
0.0011896559
0.0011861417
0.0011830709
0.0011801629
0.0011777885
0.0011768818
0.0011775139
0.0011772389
1.2004655e-07
1.1576301e-06
1.1515476e-06
9.2758263e-07
9.4498963e-07
8.7172982e-07
9.2991822e-07
1.0075325e-06
1.1141314e-06
1.2407544e-06
1.387999e-06
1.5554594e-06
1.7442282e-06
1.9557831e-06
2.191966e-06
2.4548566e-06
2.7467955e-06
3.0704057e-06
3.4286421e-06
3.8248519e-06
4.2628615e-06
4.7470946e-06
5.2827347e-06
5.8759526e-06
6.5342162e-06
7.2637055e-06
8.0801548e-06
8.9958419e-06
1.0038599e-05
1.1215532e-05
1.2562251e-05
1.4115195e-05
1.5919954e-05
1.8033297e-05
2.0525408e-05
2.3482379e-05
2.7009051e-05
3.1232231e-05
3.6304331e-05
4.240741e-05
4.975708e-05
5.8605205e-05
6.9239197e-05
8.1973663e-05
9.7140587e-05
0.00011506354
0.00013724283
0.00016165782
0.00018950161
0.00022088711
0.00025600087
0.00029531613
0.00033986545
0.00039520997
0.00045706138
0.00053239667
0.00062533017
0.00073989093
0.00087909009
0.0010436082
0.001219811
0.0012184031
0.0012173596
0.0012165643
0.0012158135
0.001214799
0.0012131795
0.0012106871
0.0012072493
0.0012030767
0.0011986552
0.0011945544
0.0011911422
0.0011884678
0.0011864201
0.0011844544
0.0011830165
0.0011829933
0.0011843089
0.0011843027
1.4213994e-07
1.1909445e-06
9.9602546e-07
7.1635223e-07
7.7297424e-07
7.7903745e-07
8.6048197e-07
9.6194307e-07
1.0858723e-06
1.2279029e-06
1.3889575e-06
1.5699118e-06
1.7722244e-06
1.9975144e-06
2.2476636e-06
2.5247798e-06
2.8312303e-06
3.1696747e-06
3.5431116e-06
3.9549371e-06
4.409025e-06
4.9098415e-06
5.462605e-06
6.0735127e-06
6.7500557e-06
7.501441e-06
8.3391416e-06
9.2775906e-06
1.0335053e-05
1.1534653e-05
1.2905591e-05
1.4484646e-05
1.6317789e-05
1.846209e-05
2.0987795e-05
2.3980642e-05
2.7544459e-05
3.1804046e-05
3.690839e-05
4.3033946e-05
5.0387434e-05
5.9634432e-05
7.0267593e-05
8.2927164e-05
9.7900418e-05
0.00011545084
0.00013579508
0.00015908864
0.00018544183
0.00021498863
0.00024804009
0.00028793043
0.00033098348
0.00038168635
0.00044293783
0.00051824853
0.00061134427
0.00072544806
0.00086213754
0.0010200123
0.0011944014
0.0012184324
0.0012176184
0.0012170208
0.0012163972
0.0012154167
0.0012137475
0.0012111725
0.0012077032
0.0012036436
0.0011995493
0.0011960209
0.0011934085
0.0011913788
0.0011901864
0.0011890513
0.0011884489
0.0011891221
0.0011908417
0.0011909646
1.3620512e-07
8.0605081e-07
8.2146363e-07
6.1206353e-07
6.6563606e-07
7.2479577e-07
8.2612985e-07
9.450021e-07
1.0824187e-06
1.2372597e-06
1.4106824e-06
1.6038616e-06
1.8183118e-06
2.0557313e-06
2.3180453e-06
2.6074166e-06
2.9262749e-06
3.2772919e-06
3.6636107e-06
4.0886568e-06
4.5563599e-06
5.0712334e-06
5.6385342e-06
6.2644893e-06
6.9566122e-06
7.7241294e-06
8.5785352e-06
9.5342986e-06
1.0619344e-05
1.1841817e-05
1.3237798e-05
1.4844448e-05
1.6708048e-05
1.8885848e-05
2.1448017e-05
2.4479844e-05
2.8084168e-05
3.2384105e-05
3.7526004e-05
4.3682203e-05
5.1052685e-05
5.9863961e-05
7.0363152e-05
8.2807684e-05
9.7444474e-05
0.00011448826
0.00013410299
0.00015777712
0.00018303703
0.00021127823
0.00024294281
0.0002789258
0.00032075842
0.00037069429
0.00043165777
0.00050702574
0.00060016397
0.0007135713
0.00084757412
0.0009992033
0.0011631608
0.0012185867
0.0012179182
0.001217423
0.001216836
0.0012158347
0.0012141308
0.0012115839
0.001208289