/*--------------------------------*- C++ -*----------------------------------*\
  =========                 |
  \\      /  F ield         | OpenFOAM: The Open Source CFD Toolbox
   \\    /   O peration     | Website:  https://openfoam.org
    \\  /    A nd           | Version:  12
     \\/     M anipulation  |
\*---------------------------------------------------------------------------*/
FoamFile
{
    format      ascii;
    class       volScalarField;
    location    "0.016";
    object      p;
}
// * * * * * * * * * * * * * * * * * * * * * * * * * * * * * * * * * * * * * //

dimensions      [1 -1 -2 0 0 0 0];

internalField   nonuniform List<scalar> 
16000
(
89714.866
89849.323
89861.1
90005.513
90032.475
90170.048
90222.752
90349.384
90427.547
90548.266
90646.77
90767.477
90882.094
91007.641
91135.184
91269.212
91408.033
91552.448
91702.371
91857.976
92019.356
92186.607
92359.805
92539.013
92724.27
92915.6
93112.999
93316.444
93525.884
93741.246
93962.426
94189.297
94421.705
94659.471
94902.391
95150.244
95402.791
95659.781
95920.956
96186.059
96454.835
96727.038
97002.437
97280.819
97561.991
97845.779
98132.021
98420.562
98711.237
99003.85
99298.138
99593.72
99890.016
100186.13
100480.72
100771.78
101056.46
101330.8
101589.44
101825.5
102030.57
102195.2
102309.85
102366.32
102360.32
102291.89
102168.64
102003.75
101812.83
101616.5
101424.82
101248.83
101090.99
100954.19
100834.93
100724.19
100626.06
100546.4
100360.47
100534.49
89200.396
89352.54
89361.604
89518.822
89546.93
89696.227
89751.219
89889.867
89971.837
90103.431
90208.567
90338.894
90462.395
90597.496
90735.113
90879.495
91029.221
91184.941
91346.641
91514.466
91688.506
91868.843
92055.534
92248.616
92448.102
92653.979
92866.21
93084.727
93309.435
93540.207
93776.889
94019.291
94267.198
94520.366
94778.524
95041.382
95308.632
95579.954
95855.023
96133.509
96415.095
96699.468
96986.337
97275.428
97566.489
97859.288
98153.605
98449.225
98745.923
99043.445
99341.476
99639.597
99937.216
100233.46
100527.05
100816.12
101097.98
101368.92
101623.89
101856.32
102058.16
102220.29
102333.46
102389.59
102384.43
102317.98
102197.28
102034.11
101847.86
101652.43
101462.6
101285.46
101125.6
100989.66
100863.2
100753.88
100656.39
100562.56
100398.94
100547.2
88730.821
88899.512
88907.952
89079.502
89107.083
89270.955
89327.382
89479.163
89566.016
89708.849
89822.142
89962.704
90096.478
90242.177
90391.138
90547.139
90709.051
90877.372
91052.118
91233.399
91421.282
91615.817
91817.03
92024.922
92239.466
92460.609
92688.264
92922.313
93162.603
93408.946
93661.118
93918.863
94181.89
94449.883
94722.498
94999.373
95280.13
95564.385
95851.751
96141.847
96434.306
96728.778
97024.936
97322.481
97621.141
97920.661
98220.805
98521.335
98821.999
99122.51
99422.516
99721.559
100019.01
100313.97
100605.16
100890.71
101168.02
101433.44
101682.09
101907.64
102102.36
102257.55
102364.43
102415.69
102407.22
102339.48
102219.87
102060.77
101878.7
101687.51
101500.66
101323.45
101165.63
101029.22
100898.9
100786.88
100686.44
100584.48
100438.64
100570.43
88311.126
88491.442
88499.609
88687.836
88714.948
88895.953
88954.461
89121.564
89214.362
89370.135
89493.224
89645.508
89791.346
89949.229
90111.188
90280.399
90456.019
90638.398
90827.564
91023.591
91226.519
91436.368
91653.128
91876.761
92107.195
92344.321
92587.992
92838.021
93094.179
93356.197
93623.767
93896.544
94174.151
94456.184
94742.218
95031.813
95324.524
95619.904
95917.519
96216.95
96517.805
96819.722
97122.378
97425.484
97728.787
98032.059
98335.09
98637.667
98939.554
99240.47
99540.058
99837.84
100133.16
100425.07
100712.25
100992.78
101264.01
101522.3
101762.77
101979.21
102164.16
102309.3
102406.35
102449.06
102433.53
102361.64
102241
102084.01
101905.5
101719.62
101537.04
101362.79
101210.44
101065.82
100935.66
100821.3
100719.7
100611.4
100477.29
100598
87944.587
88140.449
88145.532
88353.488
88379.323
88580.259
88641.014
88825.578
88925.766
89096.027
89230.892
89396.228
89555.855
89727.309
89903.629
90087.346
90277.888
90475.503
90680.23
90892.118
91111.181
91337.402
91570.723
91811.048
92058.235
92312.096
92572.395
92838.846
93111.117
93388.833
93671.576
93958.894
94250.304
94545.306
94843.383
95144.019
95446.701
95750.935
96056.254
96362.226
96668.464
96974.63
97280.439
97585.659
97890.101
98193.61
98496.052
98797.284
99097.132
99395.365
99691.655
99985.535
100276.33
100563.07
100844.34
101118.17
101381.78
101631.43
101862.18
102067.81
102241.04
102373.9
102458.75
102490.31
102464.95
102386.4
102262.73
102106.31
101931.32
101750.76
101573.34
101407.02
101254.29
101103.09
100975.36
100859.5
100754
100639.3
100512.99
100625.66
87637.483
87852.191
87854.805
88085.335
88109.361
88332.722
88395.447
88599.399
88708.439
88894.239
89042.426
89221.444
89395.924
89581.841
89773.493
89972.803
90179.429
90393.54
90615.156
90844.282
91080.874
91324.842
91576.045
91834.289
92099.325
92370.847
92648.494
92931.849
93220.448
93513.779
93811.294
94112.415
94416.54
94723.064
95031.38
95340.898
95651.055
95961.328
96271.244
96580.391
96888.425
97195.075
97500.141
97803.491
98105.05
98404.786
98702.682
98998.713
99292.811
99584.83
99874.51
100161.42
100444.91
100723.97
100997.13
101262.29
101516.58
101756.07
101975.7
102169.21
102329.35
102448.38
102519.71
102538.14
102502.12
102415.86
102288.32
102131.96
101960.23
101784.61
101612.64
101451.95
101297.15
101152.46
101021.95
100902.08
100790.92
100668.61
100549.84
100655.34
87390.775
87627.963
87626.916
87884.259
87906.637
88156.149
88221.968
88446.936
88564.872
88765.4
88927.785
89120.925
89311.541
89513.407
89722.086
89938.895
90163.609
90396.286
90636.88
90885.303
91141.41
91404.999
91675.802
91953.491
92237.669
92527.878
92823.598
93124.25
93429.209
93737.806
94049.34
94363.097
94678.352
94994.396
95310.544
95626.151
95940.632
96253.467
96564.22
96872.542
97178.183
97480.985
97780.885
98077.903
98372.127
98663.689
98952.734
99239.389
99523.724
99805.71
100085.18
100361.78
100634.87
100903.44
101165.95
101420.22
101663.2
101890.8
102097.82
102277.88
102423.7
102527.75
102585.48
102590.04
102543.12
102449.49
102318.61
102162.95
101995.09
101825.11
101659.11
101501.51
101352.51
101210.63
101077.66
100951.78
100832.88
100703.81
100594.08
100691.8
87195.751
87459.031
87452.952
87744.17
87762.204
88040.495
88109.519
88355.058
88484.987
88702.456
88882.865
89093.046
89303.021
89524.012
89752.771
89990.115
90235.858
90489.949
90752.239
91022.523
91300.521
91585.883
91878.18
92176.91
92481.495
92791.287
93105.573
93423.583
93744.504
94067.491
94391.684
94716.227
95040.285
95363.061
95683.821
96001.905
96316.746
96627.882
96934.968
97237.779
97536.215
97830.291
98120.138
98405.976
98688.1
98966.843
99242.544
99515.504
99785.949
100053.99
100319.56
100582.37
100841.84
101096.94
101346.08
101586.95
101816.35
102030.05
102222.65
102387.56
102517.7
102606.49
102648.75
102640.54
102583.68
102484.11
102351.76
102198.75
102036.51
101873.61
101714.69
101562.07
101417.32
101274.18
101141.1
101012.35
100885.25
100753.08
100651.9
100743.54
87048.928
87342.359
87332.238
87662.669
87674.601
87983.48
88057.874
88326.973
88474.648
88711.965
88914.626
89145.202
89378.033
89621.687
89873.921
90135.152
90405.161
90683.763
90970.672
91265.521
91567.856
91877.135
92192.721
92513.893
92839.845
93169.699
93502.511
93837.292
94173.023
94508.677
94843.238
95175.729
95505.229
95830.902
96152.011
96467.944
96778.22
97082.508
97380.627
97672.548
97958.389
98238.406
98512.971
98782.552
99047.682
99308.921
99566.81
99821.832
100074.37
100324.66
100572.74
100818.41
101061.08
101299.72
101532.66
101757.47
101970.77
102168.15
102343.98
102491.59
102604.29
102678.06
102703.95
102682.95
102617.38
102513.91
102382.63
102234.79
102080.3
101925.91
101774.93
101628.32
101486.22
101349.57
101216.94
101085.95
100954.56
100825.8
100738.53
100817.01
86952.402
87281.376
87268.196
87636.71
87648.397
87991.927
88078.51
88374.926
88544.263
88803.764
89032.846
89287.392
89546.674
89816.743
90096.07
90384.743
90682.431
90988.773
91303.292
91625.409
91954.433
92289.567
92629.906
92974.45
93322.114
93671.743
94022.137
94372.069
94720.314
95065.675
95407.013
95743.273
96073.513
96396.925
96712.861
97020.843
97320.576
97611.95
97895.041
98170.097
98437.526
98697.876
98951.81
99200.068
99443.436
99682.696
99918.585
100151.75
100382.7
100611.79
100839.14
101064.57
101287.51
101506.86
101720.85
101926.86
102121.34
102299.6
102455.86
102584.18
102678.62
102733.06
102743.08
102709.75
102636.65
102531.22
102403.24
102262.69
102117.65
101973.12
101832.15
101694.23
101559.9
101432.57
101303.96
101173.95
101044.13
100928.9
100862.28
100909.42
86913.274
87284.505
87266.836
87678.924
87694.684
88077.534
88180.049
88506.02
88702.996
88987.531
89247.561
89530.312
89820.038
90120.65
90431.036
90750.988
91079.99
91417.439
91762.589
92114.563
92472.351
92834.819
93200.719
93568.711
93937.382
94305.276
94670.92
95032.861
95389.696
95740.111
96082.911
96417.057
96741.687
97056.145
97359.991
97653.01
97935.211
98206.818
98468.255
98720.124
98963.181
99198.303
99426.456
99648.655
99865.921
100079.23
100289.48
100497.44
100703.72
100908.72
101112.6
101315.19
101515.86
101713.4
101905.87
102090.42
102263.22
102419.46
102553.51
102660.07
102733.07
102766.49
102759.67
102713.9
102633.96
102527.67
102404.12
102271.71
102136.5
102002.15
101872.75
101747.3
101620.54
101504.45
101389.43
101267.28
101148.6
101056.85
101011
101003.31
86939.861
87361.301
87339.613
87803.247
87824.053
88249.682
88372.91
88730.05
88961.047
89274.098
89569.792
89885.667
90210.416
90546.243
90892.169
91247.651
91611.874
91983.882
92362.546
92746.581
93134.556
93524.914
93915.997
94306.078
94693.393
95076.182
95452.729
95821.406
96180.715
96529.333
96866.147
97190.284
97501.132
97798.351
98081.874
98351.895
98608.854
98853.409
99086.408
99308.853
99521.868
99726.661
99924.48
100116.58
100304.16
100488.34
100670.11
100850.31
101029.58
101208.33
101386.7
101564.44
101740.82
101914.46
102083.15
102243.74
102392.14
102523.6
102633.15
102714.42
102762.16
102773.69
102748.73
102689.97
102603.15
102495.92
102376.33
102251.07
102124.18
101999.16
101880.39
101764.89
101650.62
101550.64
101452.98
101346.06
101247.64
101184.47
101143.46
101066.28
87031.592
87512.586
87487.49
88009.52
88039.527
88511.93
88664.399
89055.423
89328.319
89675.084
90012.039
90367.077
90732.414
91108.924
91495.482
91891.099
92294.502
92704.239
93118.663
93535.967
93954.206
94371.332
94785.234
95193.782
95594.879
95986.515
96366.824
96734.14
97087.045
97424.41
97745.423
98049.605
98336.811
98607.216
98861.292
99099.779
99323.641
99534.03
99732.241
99919.675
100097.79
100268.09
100432.02
100591
100746.35
100899.25
101050.7
101201.53
101352.35
101503.53
101655.08
101806.65
101957.29
102105.39
102248.42
102382.85
102504.62
102609.03
102690.22
102743.09
102764.22
102752.03
102707.67
102635.14
102540.75
102431.48
102314.02
102193.37
102071.91
101954.57
101843.49
101735.54
101637.56
101551.69
101469.35
101377.91
101301.9
101263.33
101189.58
101040.05
87193.693
87745.268
87717.656
88305.879
88351.903
88875.073
89066.928
89495.323
89818.7
90206.156
90590.993
90992.351
91404.807
91828.088
92260.622
92700.793
93146.699
93596.242
94047.136
94496.951
94943.156
95383.17
95814.426
96234.442
96640.896
97031.698
97405.059
97759.546
98094.117
98408.146
98701.416
98974.108
99226.765
99460.251
99675.699
99874.459
100058.05
100228.09
100386.3
100534.38
100674.07
100807.03
100934.85
101059
101180.8
101301.41
101421.77
101542.63
101664.51
101787.62
101911.84
102036.56
102160.59
102281.99
102397.86
102504.32
102597.66
102671.94
102722.48
102745.54
102738.6
102701.61
102637.1
102550.11
102447.19
102334.34
102216.72
102097.64
101979.05
101867.38
101761.07
101659.3
101569.61
101491.32
101412.98
101325.77
101261.03
101229.15
101105.83
100878.95
87432.168
88068.02
88040.201
88703.328
88773.514
89351.68
89595.433
90066.864
90450.569
90888.046
91328.846
91784.687
92251.336
92727.413
93210.635
93698.588
94188.582
94677.73
95162.984
95641.205
96109.233
96563.991
97002.578
97422.375
97821.133
98197.052
98548.829
98875.681
99177.346
99454.05
99706.467
99935.655
100142.99
100330.11
100498.8
100651.01
100788.72
100913.94
101028.66
101134.8
101234.2
101328.6
101419.58
101508.57
101596.79
101685.28
101774.85
101866.11
101959.41
102054.78
102151.83
102249.67
102346.72
102440.65
102528.36
102605.91
102668.18
102710.87
102729.97
102722.4
102687.15
102625.6
102541.38
102439.85
102327.6
102210.01
102090.46
101970.89
101854.08
101746.01
101639.68
101540.34
101450.37
101364.47
101270.31
101164.63
101084.15
101026.79
100836.66
100495.67
87752.866
88489.322
88464.747
89213.266
89320.431
89959.953
90271.523
90795.128
91250.338
91748.903
92254.493
92772.927
93300.212
93833.826
94370.546
94906.947
95439.342
95963.877
96476.636
96973.765
97451.617
97906.89
98336.76
98738.979
99111.943
99454.718
99767.029
100049.22
100302.18
100527.27
100726.22
100901.03
101053.91
101187.18
101303.21
101404.33
101492.86
101571.01
101640.89
101704.47
101763.57
101819.84
101874.76
101929.58
101985.37
102042.96
102103
102165.87
102231.7
102300.28
102370.91
102442.31
102512.46
102578.62
102637.37
102684.5
102715.46
102726.27
102713.67
102676.07
102613.95
102530.05
102428.63
102314.57
102193.32
102070.24
101948.01
101828.1
101713.58
101604.93
101496.58
101393.87
101290.1
101177.72
101045.55
100896.64
100769.07
100646
100348.4
99898.266
88164.437
89021.31
89006.773
89856.883
90019.034
90730.154
91127.445
91714.595
92252.444
92823.285
93401.981
93989.877
94582.403
95175.642
95765.049
96345.854
96913.133
97462.003
97987.823
98486.4
98954.168
99388.329
99786.933
100148.91
100474.04
100762.89
101016.7
101237.27
101426.82
101587.9
101723.23
101835.64
101927.97
102003.01
102063.45
102111.83
102150.55
102181.83
102207.72
102230.08
102250.57
102270.66
102291.58
102314.37
102339.85
102368.64
102401.12
102437.45
102477.51
102520.73
102566.07
102611.82
102655.54
102694.09
102723.71
102740.28
102739.83
102719.06
102676.05
102610.68
102524.9
102422.5
102308.34
102187.02
102061.22
101933.91
101809.57
101691.08
101578.59
101467.64
101356.32
101238.17
101104.79
100947.48
100759.81
100551.45
100357.24
100154.17
99786.041
99339.121
88689.574
89695.769
89702.369
90672.505
90907.937
91701.381
92202.854
92865.75
93496.643
94150.426
94809.456
95471.37
96130.059
96779.629
97413.759
98026.165
98610.856
99162.445
99676.398
100149.23
100578.61
100963.36
101303.43
101599.77
101854.15
102069.02
102247.31
102392.29
102507.38
102596.06
102661.78
102707.87
102737.46
102753.52
102758.76
102755.69
102746.56
102733.44
102718.14
102702.28
102687.27
102674.27
102664.26
102657.98
102655.99
102658.64
102666.07
102678.16
102694.46
102714.07
102735.49
102756.6
102774.53
102785.84
102786.69
102773.29
102742.39
102691.92
102621.44
102532.34
102427.72
102311.79
102189.37
102064.94
101940.8
101817.64
101698.01
101582.62
101471.06
101357.09
101232.81
101087.71
100910.52
100697.09
100449.25
100182.48
99926.382
99663.283
99288.583
98940.362
89359.984
90554.588
90591.589
91700.29
92029.934
92915.738
93542.194
94295.906
95030.35
95776.532
96519.922
97254.343
97971.229
98662.399
99319.979
99936.95
100507.5
101027.28
101493.53
101905.06
102262.18
102566.43
102820.43
103027.55
103191.7
103317.13
103408.18
103469.19
103504.34
103517.62
103512.72
103493.07
103461.75
103421.56
103375.01
103324.32
103271.46
103218.16
103165.92
103116.03
103069.56
103027.37
102990.1
102958.21
102931.98
102911.49
102896.62
102886.96
102881.7
102879.53
102878.54
102876.15
102869.18
102854.03
102827.08
102785.14
102726.09
102649.3
102555.93
102448.84
102332
102209.76
102086.08
101964.22
101845.87
101731.89
101623.45
101515.69
101403.18
101280.4
101133.43
100950.89
100723.19
100455.32
100159.46
99853.656
99564.15
99289.833
98981.347
98771.419
90201.364
91621.93
91705.05
92982.631
93439.796
94430.266
95204.911
96067.393
96913.268
97754.115
98574.613
99364.692
100113.63
100812.16
101452.75
102029.95
102540.57
102983.55
103359.84
103671.97
103923.78
104120
104265.91
104367.05
104428.99
104457.12
104456.58
104432.13
104388.12
104328.48
104256.71
104175.95
104088.91
103998.01
103905.32
103812.66
103721.6
103633.47
103549.4
103470.31
103396.91
103329.74
103269.13
103215.26
103168.14
103127.61
103093.24
103064.32
103039.68
103017.58
102995.68
102971.05
102940.32
102900
102846.97
102779.02
102695.37
102597.03
102486.72
102368.44
102246.69
102125.67
102008.61
101897.46
101792.69
101693.04
101595.77
101495.2
101380.14
101239.16
101060.05
100833.23
100559.03
100254.31
99937.011
99624.966
99342.118
99108.18
98916.253
98851.278
91251.324
92954.137
93125.008
94584.855
95220.692
96332.422
97273.427
98255.928
99206.723
100123.27
100988.44
101790.27
102518.74
103167.05
103731.54
104211.61
104609.27
104928.66
105175.42
105356.23
105478.25
105548.79
105575
105563.63
105520.96
105452.66
105363.84
105259
105142.09
105016.54
104885.32
104750.98
104615.7
104481.33
104349.47
104221.45
104098.39
103981.24
103870.72
103767.4
103671.66
103583.72
103503.63
103431.32
103366.56
103308.92
103257.73
103211.92
103169.93
103129.64
103088.34
103042.86
102989.85
102926.23
102849.7
102759.31
102655.85
102541.88
102421.44
102299.28
102180.05
102067.43
101963.78
101869.81
101784.25
101703.27
101619.61
101521.96
101396.64
101229.7
101011.04
100744.52
100440.84
100126.46
99819.739
99537.636
99300.153
99147.322
99093.218
99146.83
92599.384
94658.27
94965.422
96627.802
97493.26
98735.088
99835.998
100921.32
101936.46
102871.88
103712.76
104450.69
105081.64
105605.93
106027.42
106352.69
106590.16
106749.27
106839.83
106871.52
106853.53
106794.32
106701.53
106581.94
106441.47
106285.23
106117.62
105942.37
105762.63
105581.08
105399.95
105221.1
105046.08
104876.19
104712.5
104555.9
104407.08
104266.58
104134.81
104011.99
103898.21
103793.41
103697.41
103609.92
103530.5
103458.48
103392.88
103332.31
103274.84
103218
103158.8
103094.05
103020.67
102936.25
102839.63
102731.3
102613.62
102490.57
102367.12
102248.35
102138.63
102040.97
101956.57
101884.45
101820.72
101757.88
101684.24
101584.42
101442.22
101247.04
100992.38
100698.53
100388.74
100094.04
99830.727
99606.473
99438.546
99385.46
99469.457
99609.066
94383.783
96882.196
97385.45
99247.247
100378.54
101733.71
102936.56
104052.27
105040.53
105894.48
106609.51
107187.75
107636.12
107965.1
108187.26
108316.09
108365.14
108347.26
108274.3
108156.86
108004.22
107824.37
107624.13
107409.24
107184.5
106953.89
106720.71
106487.66
106256.97
106030.45
105809.56
105595.52
105389.27
105191.58
105003.08
104824.23
104655.38
104496.73
104348.37
104210.27
104082.25
103964.05
103855.3
103755.51
103664.04
103579.99
103502.11
103428.67
103357.41
103285.58
103210.1
103127.92
103036.49
102934.36
102821.68
102700.45
102574.48
102448.82
102328.99
102220.05
102125.84
102048.42
101987.49
101939.69
101897.66
101849.51
101779.37
101669.6
101505.63
101283.42
101006.19
100704.65
100415.81
100172.06
99978.56
99824.361
99735.329
99780.797
99977.257
100170.02
96804.743
99793.43
100558.2
102565.04
103919.36
105323.98
106503.33
107512.55
108337.58
108984.18
109463.94
109793.53
109991.96
110078.8
110072.88
109991.45
109849.82
109661.19
109436.79
109185.94
108916.39
108634.44
108345.21
108052.85
107760.68
107471.35
107186.98
106909.25
106639.47
106378.67
106127.66
105887.04
105657.28
105438.72
105231.59
105036.03
104852.1
104679.73
104518.76
104368.95
104229.92
104101.24
103982.4
103872.75
103771.46
103677.42
103589.09
103504.45
103420.98
103335.75
103245.74
103148.25
103041.49
102925.15
102800.72
102671.66
102542.93
102420.33
102309.6
102215.51
102141.21
102087.53
102052.18
102028.68
102005.53
101966.48
101892.65
101766.9
101579.78
101336.16
101055.06
100774.48
100537.46
100362.29
100241.19
100160.39
100149.18
100281.05
100558.53
100775.08
100128.59
103511.23
104593.58
106672.33
108066.61
109312.32
110292.73
111033.1
111552.25
111878.28
112040.8
112068.99
111989.52
111825.74
111597.5
111321.22
111010.27
110675.42
110325.21
109966.38
109604.22
109242.86
108885.48
108534.55
108191.94
107859.08
107537.05
107226.63
106928.38
106642.71
106369.88
106110.04
105863.28
105629.6
105408.95
105201.24
105006.26
104823.77
104653.42
104494.78
104347.36
104210.6
104083.87
103966.38
103857.15
103754.83
103657.67
103563.37
103469.23
103372.26
103269.65
103159.24
103040.11
102913.13
102781.12
102648.72
102521.79
102406.57
102308.75
102232.72
102180.73
102152.1
102142.01
102140.34
102131.36
102095.33
102012.53
101869.29
101664.32
101413.82
101149.12
100912.32
100738
100635.19
100585.6
100573.77
100632.21
100831.61
101159.08
101383.46
104610.53
108216.27
109510.57
111306.28
112506.35
113393.01
113966.2
114283.28
114391.52
114336.52
114156.91
113884.81
113545.94
113160.56
112744.37
112309.39
111864.75
111417.36
110972.35
110533.56
110103.82
109685.17
109279.11
108886.65
108508.49
108145.1
107796.72
107463.48
107145.37
106842.35
106554.26
106280.96
106022.24
105777.88
105547.63
105331.2
105128.23
104938.33
104761.01
104595.74
104441.93
104298.93
104166.01
104042.28
103926.61
103817.45
103712.84
103610.29
103506.97
103399.99
103286.81
103165.91
103037.31
102902.98
102766.88
102634.58
102512.55
102407.24
102324.22
102267.35
102237.88
102233.3
102245.9
102261.82
102261.65
102223.65
102129.54
101971.6
101758.28
101515.65
101282.63
101099.55
100991.86
100957.46
100971.84
101020.58
101137.07
101383.59
101734.83
101960.36
110174.1
113734.67
114927.67
116124.77
116778.67
117085.58
117114.09
116941.61
116625.38
116210.28
115729.72
115208.32
114664.01
114109.67
113554.52
113005.08
112465.92
111940.19
111430.02
110936.79
110461.36
110004.19
109565.48
109145.22
108743.28
108359.42
107993.34
107644.7
107313.12
106998.24
106699.66
106417.01
106149.9
105897.96
105660.8
105438.01
105229.13
105033.65
104851.01
104680.6
104521.76
104373.78
104235.86
104107.02
103985.98
103871.06
103760.12
103650.55
103539.5
103424.19
103302.47
103173.45
103037.98
102898.96
102761.24
102631.05
102515.25
102420.36
102351.78
102312.84
102303.72
102319.93
102350.92
102379.49
102383.61
102341.1
102236.87
102070.07
101858.15
101634.75
101441.21
101313.13
101266.47
101290.52
101358.3
101457.44
101619.04
101893.95
102249.94
102476.34
116769.48
119419.68
120073.4
120375.68
120281.99
119940.21
119434.33
118828.28
118165.01
117473.61
116773.46
116077.31
115393.46
114727.22
114081.83
113459.21
112860.34
112285.59
111734.91
111208.01
110704.41
110223.52
109764.71
109327.31
108910.65
108514.07
108136.91
107778.55
107438.4
107115.88
106810.46
106521.61
106248.86
105991.73
105749.74
105522.42
105309.23
105109.6
104922.91
104748.52
104585.71
104433.76
104291.8
104158.8
104033.38
103913.79
103797.79
103682.73
103565.77
103444.33
103316.57
103182.08
103042.34
102900.88
102763.11
102635.66
102525.57
102439.44
102382.55
102357.83
102364.56
102396.63
102441.16
102478.54
102485.19
102439.51
102329.89
102161.54
101958.59
101759.14
101604.11
101523.6
101525.89
101595.12
101704.32
101842.64
102036.43
102324.98
102674.74
102904.47
123771.47
124238.02
124013.03
123438.71
122672.12
121807.88
120905.17
119997.51
119104.49
118236.96
117400.73
116598.55
115831.36
115099.03
114400.81
113735.61
113102.14
112499.08
111925.07
111378.8
110858.99
110364.45
109894.05
109446.74
109021.53
108617.51
108233.82
107869.68
107524.35
107197.14
106887.43
106594.61
106318.15
106057.5
105812.16
105581.59
105365.23
105162.48
104972.7
104795.22
104629.34
104474.31
104329.27
104193.18
104064.68
103942
103822.89
103704.71
103584.66
103460.19
103329.62
103192.72
103051.19
102908.82
102771.21
102645.18
102537.97
102456.38
102405.88
102389.47
102406.12
102448.9
102503.55
102548.92
102560.4
102516.72
102408.35
102244.14
102052.09
101872.53
101745.55
101697.52
101732.12
101831.23
101968.72
102134.17
102348.53
102641.79
102982.35
103217.56
127854.42
127198.27
126237.45
125132.66
123993.72
122866.96
121776.28
120731.52
119736.39
118791.22
117894.74
117044.87
116239.21
115475.27
114750.6
114062.89
113409.96
112789.8
112200.54
111640.5
111108.1
110601.92
110120.67
109663.14
109228.25
108815.01
108422.49
108049.86
107696.33
107361.2
107043.81
106743.56
106459.88
106192.25
105940.14
105703.04
105480.39
105271.59
105076.02
104893.02
104721.91
104561.95
104412.33
104272.01
104139.67
104013.52
103891.28
103770.22
103647.39
103520.07
103386.38
103245.93
103100.34
102953.4
102810.89
102679.96
102568.3
102483.36
102431.3
102415.77
102436.07
102485.04
102547.61
102601.22
102619.73
102580.72
102474.54
102311.16
102120.83
101946.12
101826.03
101790.31
101838.45
101952.01
102105
102286.37
102513.14
102809.71
103146.23
103387.34
107492.2
107463.51
107513.47
107564.95
107601.22
107608.6
107587.12
107553.13
107513.25
107462.89
107396.89
107316.49
107226.65
107132.31
107033.89
106931.38
106825.22
106715.94
106603.97
106489.72
106373.57
106255.87
106136.94
106017.08
105896.54
105775.57
105654.38
105533.16
105412.08
105291.29
105170.94
105051.13
104931.97
104813.55
104695.93
104579.19
104463.35
104348.45
104234.53
104121.58
104009.62
103898.67
103788.75
103679.89
103572.18
103465.74
103360.76
103257.53
103156.46
103058.08
102963.09
102872.36
102786.92
102707.91
102636.53
102573.9
102520.9
102477.95
102444.75
102420.07
102401.47
102385.19
102366.13
102337.88
102293.42
102225.06
102127.74
101996.48
101835.97
101646.82
101449.83
101243.97
101060.43
100887.12
100740.65
100631.9
100493.86
100472.85
100263.59
100407.66
106782.15
106772.61
106782.2
106794.45
106789.16
106777.38
106761.6
106738.81
106703.09
106661.17
106612.33
106557.97
106497.55
106431.97
106361.5
106286.71
106207.85
106125.24
106039.21
105950.04
105858.05
105763.51
105666.7
105567.87
105467.29
105365.21
105261.85
105157.45
105052.22
104946.36
104840.06
104733.48
104626.8
104520.16
104413.69
104307.5
104201.71
104096.4
103991.66
103887.55
103784.15
103681.52
103579.75
103478.93
103379.19
103280.74
103183.81
103088.77
102996.07
102906.34
102820.33
102738.96
102663.32
102594.57
102533.9
102482.4
102440.86
102409.57
102388.06
102374.87
102367.31
102361.36
102351.58
102331.31
102293.19
102229.42
102134.67
102004.41
101843.15
101652.86
101453.63
101246.68
101061.51
100887.94
100741.78
100631.92
100496.04
100472.3
100266.25
100407.26
106247.68
106228.42
106195.55
106161.47
106127.75
106096.24
106059.99
106024.25
105984.85
105944.6
105900.31
105854.17
105804.45
105752.13
105696.62
105638.17
105576.74
105512.4
105445.22
105375.28
105302.71
105227.61
105150.13
105070.42
104988.62
104904.91
104819.45
104732.42
104643.98
104554.32
104463.61
104372.02
104279.72
104186.86
104093.6
104000.08
103906.45
103812.82
103719.32
103626.06
103533.17
103440.74
103348.93
103257.88
103167.8
103078.92
102991.56
102906.16
102823.25
102743.49
102667.74
102596.96
102532.27
102474.86
102425.91
102386.45
102357.17
102338.24
102329
102327.77
102331.62
102336.26
102335.96
102323.76
102292.06
102232.87
102140.69
102011.35
101849.4
101657.93
101456.72
101248.71
101062.17
100888.4
100742.59
100631.97
100497.64
100470.96
100268.56
100407.49
105519.22
105494.49
105464.99
105432.45
105399.17
105369.45
105334.99
105303.24
105267.15
105232.6
105194.54
105156.59
105115.97
105074.3
105030.48
104984.85
104937.19
104887.48
104835.68
104781.73
104725.62
104667.37
104606.97
104544.49
104479.96
104413.46
104345.09
104274.93
104203.11
104129.74
104054.97
103978.92
103901.74
103823.57
103744.56
103664.86
103584.6
103503.94
103423
103341.94
103260.9
103180.04
103099.53
103019.59
102940.44
102862.42
102785.89
102711.35
102639.41
102570.81
102506.44
102447.35
102394.67
102349.6
102313.29
102286.7
102270.42
102264.47
102268
102279.12
102294.67
102310.08
102319.36
102315.21
102289.89
102235.19
102145.51
102017.01
101854.39
101661.77
101458.83
101249.93
101062.26
100888.45
100743.02
100632.02
100498.78
100473.26
100270.2
100407.93
104674.77
104657.41
104640.84
104621.85
104600.12
104582.86
104559.27
104539.94
104515.06
104493.05
104466.67
104441.4
104413.23
104384.75
104354.36
104322.6
104289.09
104253.87
104216.87
104178
104137.24
104094.54
104049.89
104003.29
103954.75
103904.29
103851.95
103797.79
103741.86
103684.25
103625.05
103564.36
103502.29
103438.95
103374.48
103309.01
103242.66
103175.59
103107.93
103039.85
102971.51
102903.1
102834.82
102766.92
102699.69
102633.51
102568.81
102506.14
102446.18
102389.73
102337.76
102291.33
102251.6
102219.77
102196.93
102183.96
102181.33
102188.9
102205.64
102229.45
102256.92
102283.22
102302.12
102306.03
102286.97
102236.63
102149.32
102021.56
101858.27
101664.57
101460.16
101250.5
101061.98
100888.24
100743.15
100632.05
100499.69
100475.56
100271.66
100408.75
103845.79
103838.42
103832.76
103826.88
103816.2
103811.22
103798.37
103791.52
103777.68
103768.07
103752.97
103739.97
103723.56
103707.33
103689.22
103670.06
103649.27
103626.97
103603.11
103577.62
103550.47
103521.62
103491.03
103458.68
103424.56
103388.66
103350.98
103311.55
103270.39
103227.54
103183.07
103137.03
103089.5
103040.58
102990.37
102938.97
102886.52
102833.13
102778.96
102724.16
102668.91
102613.41
102557.9
102502.66
102448.02
102394.39
102342.27
102292.27
102245.13
102201.7
102162.98
102130.07
102104.13
102086.33
102077.7
102079.02
102090.63
102112.19
102142.5
102179.24
102218.77
102256
102284.47
102296.33
102283.37
102237.23
102152.14
102025.01
101861.05
101666.35
101460.72
101250.47
101061.41
100887.82
100743.07
100632.12
100500.89
100477.37
100272.82
100409.9
103084.58
103084.03
103083.83
103086.64
103083.16
103087.11
103081.63
103084.16
103078.18
103078.16
103071.98
103069.54
103062.97
103056.47
103047.98
103038.96
103028.63
103017.15
103004.41
102990.35
102974.91
102958.04
102939.69
102919.82
102898.4
102875.39
102850.79
102824.59
102796.79
102767.4
102736.45
102703.99
102670.07
102634.75
102598.1
102560.23
102521.23
102481.22
102440.35
102398.76
102356.63
102314.19
102271.69
102229.43
102187.78
102147.2
102108.22
102071.52
102037.86
102008.16
101983.44
101964.8
101953.4
101950.33
101956.56
101972.74
101999.06
102035
102079.17
102129
102180.66
102228.79
102266.69
102286.35
102279.25
102237.09
102154.04
102027.43
101862.79
101667.19
101460.54
101249.94
101060.6
100887.26
100742.91
100632.27
100501.34
100478.88
100273.67
100411.3
102392.14
102396.88
102399.84
102408.21
102408.64
102418.76
102417.69
102426.68