/*--------------------------------*- C++ -*----------------------------------*\
  =========                 |
  \\      /  F ield         | OpenFOAM: The Open Source CFD Toolbox
   \\    /   O peration     | Website:  https://openfoam.org
    \\  /    A nd           | Version:  12
     \\/     M anipulation  |
\*---------------------------------------------------------------------------*/
FoamFile
{
    format      ascii;
    class       surfaceScalarField;
    location    "0.016";
    object      phi;
}
// * * * * * * * * * * * * * * * * * * * * * * * * * * * * * * * * * * * * * //

dimensions      [1 0 -1 0 0 0 0];

internalField   nonuniform List<scalar> 
31760
(
-0.00064302903
-0.052142919
0.05280864
-0.0016571523
-0.06642832
0.067466499
-0.0026872053
-0.064765367
0.065818397
-0.0037508173
-0.070774691
0.071864238
-0.0048618529
-0.072387883
0.073525027
-0.0060087772
-0.076866305
0.078042386
-0.0072246128
-0.079832905
0.081078445
-0.0084827594
-0.084002238
0.085292785
-0.0098020445
-0.087719903
0.089073051
-0.011182084
-0.09198638
0.093402908
-0.012618494
-0.096246876
0.097721789
-0.014124445
-0.10080774
0.10235503
-0.015693179
-0.10553283
0.10714562
-0.017333741
-0.1104952
0.11218304
-0.019044938
-0.11567986
0.11744175
-0.020831523
-0.12110511
0.12294622
-0.022695806
-0.12677922
0.12870225
-0.024640614
-0.13271391
0.13472217
-0.026668817
-0.13892086
0.14101773
-0.02878327
-0.14541151
0.14760045
-0.030986897
-0.15219901
0.15448361
-0.033282756
-0.15929548
0.16167955
-0.035673749
-0.16671532
0.16920261
-0.038162883
-0.17447243
0.17706692
-0.040752202
-0.18258221
0.18528702
-0.043445177
-0.19105903
0.19387889
-0.046244549
-0.19992014
0.20285916
-0.049152326
-0.20918257
0.21224436
-0.052170535
-0.21886436
0.2220527
-0.055301501
-0.22898419
0.23230342
-0.058546686
-0.23956225
0.24301605
-0.061907275
-0.25061918
0.25421124
-0.065383757
-0.26217787
0.26591145
-0.068976517
-0.27426047
0.27813902
-0.072684621
-0.28689257
0.29091856
-0.076506403
-0.30009977
0.30427527
-0.080439563
-0.31390942
0.31823624
-0.084480501
-0.32835085
0.33282987
-0.088624595
-0.34345389
0.34808536
-0.09286565
-0.35925198
0.36403494
-0.097196439
-0.37577908
0.38071191
-0.10160793
-0.39307136
0.39815092
-0.10608964
-0.41116755
0.41638951
-0.11062969
-0.43010848
0.4354672
-0.11521421
-0.44993778
0.45542564
-0.11982807
-0.47070063
0.4763085
-0.12445405
-0.49244584
0.49816203
-0.12907423
-0.51522391
0.52103526
-0.13366902
-0.53908931
0.54497993
-0.13821733
-0.56409829
0.57004927
-0.1426971
-0.5903096
0.59629912
-0.14708607
-0.61778533
0.62378883
-0.15136105
-0.64658909
0.65257778
-0.1554991
-0.67678644
0.68272757
-0.15947857
-0.70844393
0.71430079
-0.16327848
-0.74162931
0.74735927
-0.16688134
-0.77640885
0.78196473
-0.17027374
-0.81284697
0.81817592
-0.17344652
-0.85100456
0.8560465
-0.17639722
-0.89093587
0.89562487
-0.17912715
-0.93268738
0.93694896
-0.18163727
-0.97629851
0.98004791
-0.18391647
-1.0218115
1.0249477
-0.18592863
-1.0692921
1.0716902
-0.18757935
-1.1188635
1.1203591
-0.18870035
-1.1707701
1.1711545
-0.18902695
-1.225451
1.2244364
-0.18820244
-1.2835946
1.2808313
-0.18589861
-1.3459256
1.3411089
-0.18168225
-1.4133197
1.406077
-0.17529594
-1.4860999
1.476297
-0.16662788
-1.5637123
1.551485
-0.15561972
-1.6446983
1.6303667
-0.14222369
-1.7268919
1.710771
-0.12671697
-1.8057961
1.7884287
-0.10916478
-1.878192
1.859951
-0.089277864
-1.9385949
1.9194908
-0.066129292
-1.9918221
1.9694018
-0.038249949
-2.0542463
2.0264187
-2.1458574
2.1106564
-0.00063625139
-0.051484055
-0.0015464669
-0.065493595
-0.0024717981
-0.063815672
-0.0034673778
-0.069752771
-0.0044683277
-0.071360206
-0.0055541597
-0.075750824
-0.0066520876
-0.078704423
-0.0078363899
-0.082784706
-0.0090428692
-0.08647872
-0.010328176
-0.090663629
-0.011655056
-0.094880442
-0.013052056
-0.099368299
-0.014506497
-0.10403315
-0.016028606
-0.1089246
-0.01761781
-0.11403871
-0.019278194
-0.1193889
-0.021011634
-0.12498573
-0.022821553
-0.13083923
-0.024710816
-0.13696166
-0.026682527
-0.14336409
-0.028739854
-0.1500596
-0.030885414
-0.15706072
-0.033122652
-0.16438098
-0.035454451
-0.17203469
-0.03788476
-0.18003613
-0.040415343
-0.18840167
-0.043049799
-0.19714659
-0.0457906
-0.20628888
-0.048640638
-0.21584598
-0.051601926
-0.22583725
-0.054676808
-0.23628231
-0.057866679
-0.24720252
-0.061172657
-0.25862078
-0.064595305
-0.27055948
-0.068134289
-0.28304484
-0.071788889
-0.29610244
-0.075556811
-0.3097609
-0.079435771
-0.32404911
-0.083420841
-0.33899918
-0.087506983
-0.35464423
-0.091687508
-0.3710195
-0.09595384
-0.38816268
-0.10029575
-0.40611384
-0.10470207
-0.42491453
-0.10915943
-0.44461049
-0.11365299
-0.46524847
-0.11816646
-0.48687904
-0.12268166
-0.50955523
-0.12717955
-0.53333329
-0.13164005
-0.55827187
-0.1360419
-0.58443273
-0.14036344
-0.61188082
-0.14458283
-0.6406832
-0.14867914
-0.67090884
-0.15263279
-0.7026285
-0.15642662
-0.73591462
-0.16004762
-0.77083816
-0.16348798
-0.8074691
-0.16674609
-0.84587469
-0.16982774
-0.88611546
-0.17274291
-0.92824688
-0.17550027
-0.97232
-0.17809368
-1.0183953
-0.18048754
-1.066563
-0.18258666
-1.1169912
-0.18421624
-1.1699751
-0.18510373
-1.2260213
-0.18493101
-1.2858299
-0.1833548
-1.3501784
-0.18001038
-1.4198289
-0.17471545
-1.494918
-0.16740974
-1.5746019
-0.15809921
-1.6572694
-0.14670394
-1.7409102
-0.13365463
-1.8205848
-0.11876852
-1.8933965
-0.10168169
-1.95478
-0.081681425
-2.0110705
-0.056937249
-2.0790569
-2.1772286
-0.00056942407
-0.050891366
-0.0014159729
-0.064621387
-0.0022442096
-0.062963915
-0.0031776287
-0.068791658
-0.0040931566
-0.070416505
-0.0051041829
-0.074708959
-0.0061121023
-0.077664322
-0.007210343
-0.081651554
-0.0083224271
-0.085330374
-0.0095113911
-0.089435547
-0.010738337
-0.093612154
-0.01203097
-0.098031372
-0.013378092
-0.10263885
-0.014788732
-0.10746344
-0.016263032
-0.11251034
-0.017804386
-0.11778953
-0.019415902
-0.12331191
-0.021100148
-0.12908793
-0.022861097
-0.13512846
-0.024701076
-0.14144609
-0.026624145
-0.14805217
-0.02863321
-0.15496025
-0.030731534
-0.16218347
-0.032923145
-0.16973524
-0.035210476
-0.17763134
-0.037597789
-0.18588618
-0.040087477
-0.19451679
-0.042683424
-0.2035395
-0.045387877
-0.21297323
-0.048204537
-0.22283569
-0.051134887
-0.23314852
-0.05418144
-0.24393182
-0.057345999
-0.25520894
-0.06062894
-0.26700343
-0.064031325
-0.2793405
-0.067552422
-0.29224723
-0.071191254
-0.30575208
-0.074944688
-0.31988574
-0.078809728
-0.33467978
-0.082781384
-0.35016891
-0.08685295
-0.36638965
-0.091016964
-0.38338004
-0.095264306
-0.40118145
-0.099583391
-0.41983759
-0.10396189
-0.43939475
-0.10838541
-0.45990173
-0.11283843
-0.48141041
-0.1173031
-0.5039766
-0.1217617
-0.52765721
-0.12619449
-0.55251411
-0.13058075
-0.57861168
-0.13490081
-0.60601618
-0.13913403
-0.6347988
-0.14326125
-0.66503137
-0.14726544
-0.69678828
-0.15113281
-0.73014624
-0.15485487
-0.76518041
-0.15842842
-0.80196725
-0.16185979
-0.84057824
-0.16516132
-0.88108288
-0.16835135
-0.92354524
-0.17144514
-0.96803108
-0.17444338
-1.01462
-0.17730541
-1.0634323
-0.17993635
-1.1146807
-0.18215335
-1.1687186
-0.18369925
-1.2260955
-0.18426307
-1.2875416
-0.18350144
-1.3538124
-0.18115388
-1.4255296
-0.17708989
-1.5026263
-0.17130955
-1.5839677
-0.16382591
-1.6679392
-0.15458089
-1.7523182
-0.14410332
-1.8324695
-0.13193969
-1.9053273
-0.11778857
-1.9679306
-0.10091565
-2.027228
-0.079431151
-2.1007598
-2.2046804
-0.0005095421
-0.050357637
-0.001290938
-0.063812944
-0.0020420296
-0.062187082
-0.0029201459
-0.067884431
-0.0037594268
-0.069547731
-0.0046971072
-0.073739128
-0.0056197428
-0.076707884
-0.0066361958
-0.080598537
-0.0076597365
-0.084268771
-0.0087590368
-0.088295249
-0.0098929712
-0.092434827
-0.011088965
-0.096788923
-0.012337201
-0.10134112
-0.013645397
-0.10610231
-0.015014872
-0.11108427
-0.016449139
-0.11629462
-0.017951285
-0.12174475
-0.019524329
-0.12744505
-0.021171441
-0.13340626
-0.022896536
-0.13964013
-0.024702339
-0.14615916
-0.026593362
-0.15297501
-0.028572923
-0.16010197
-0.030644256
-0.16755341
-0.032811783
-0.17534386
-0.035078514
-0.18348899
-0.037448548
-0.19200467
-0.039925094
-0.20090793
-0.042512455
-0.21021647
-0.045212583
-0.21995017
-0.048029162
-0.23012877
-0.050964873
-0.24077313
-0.054021542
-0.25190724
-0.057200928
-0.26355443
-0.060504071
-0.27574036
-0.063930709
-0.28849307
-0.067480025
-0.30184126
-0.071150515
-0.31581593
-0.074938685
-0.33045023
-0.078840301
-0.34577919
-0.082850034
-0.36184002
-0.08695998
-0.37867287
-0.091161689
-0.39631925
-0.095444749
-0.41482448
-0.09979688
-0.43423646
-0.10420509
-0.45460457
-0.10865318
-0.47598395
-0.11312608
-0.49842962
-0.1176054
-0.52200243
-0.12207293
-0.5467651
-0.1265099
-0.57278406
-0.13089665
-0.60012864
-0.13521489
-0.62887171
-0.13944776
-0.65908796
-0.14357972
-0.69085631
-0.14760129
-0.72425515
-0.15150722
-0.75936548
-0.15530044
-0.79626803
-0.15899284
-0.83504017
-0.16260432
-0.87575953
-0.16615957
-0.91850157
-0.16967928
-0.96334922
-0.17316902
-1.010405
-0.17658599
-1.0598224
-0.17983096
-1.1118554
-0.18272545
-1.1669132
-0.18501378
-1.2255881
-0.18641094
-1.2885981
-0.18659978
-1.3566718
-0.18540865
-1.4302437
-0.18275536
-1.5090153
-0.17868711
-1.5916409
-0.17314114
-1.6765314
-0.16631316
-1.7608372
-0.15848626
-1.8413187
-0.14912974
-1.9140782
-0.13797014
-1.9780069
-0.12426006
-2.0403118
-0.10621897
-2.1191707
-2.2280921
-0.00044944371
-0.049883143
-0.001176507
-0.063057691
-0.0018428742
-0.061493267
-0.0026615138
-0.067035217
-0.003426395
-0.068752109
-0.0042998086
-0.072831635
-0.0051456872
-0.075826654
-0.0060879995
-0.079618354
-0.007032208
-0.083284532
-0.00805029
-0.087234142
-0.0091013322
-0.09133822
-0.010211078
-0.095630447
-0.011372379
-0.10012793
-0.012591575
-0.10482767
-0.013870865
-0.10974577
-0.015213046
-0.11488909
-0.016621677
-0.12026832
-0.018100178
-0.12589385
-0.019651925
-0.13177652
-0.021280492
-0.13792772
-0.022990179
-0.14435926
-0.024783727
-0.15108422
-0.026666118
-0.15811462
-0.028641227
-0.16546483
-0.03071286
-0.17314939
-0.03288545
-0.18118321
-0.035163344
-0.18958216
-0.037550451
-0.19836356
-0.040050624
-0.20754506
-0.042667832
-0.21714624
-0.045405618
-0.22718709
-0.048266909
-0.23768889
-0.051254366
-0.24867568
-0.054370402
-0.26017078
-0.057615985
-0.27220103
-0.060991695
-0.28479456
-0.06449722
-0.29798063
-0.068131257
-0.31179088
-0.071890939
-0.32625963
-0.075772592
-0.34142231
-0.07977062
-0.35731761
-0.083878828
-0.37398584
-0.088088408
-0.3914707
-0.092389727
-0.40981793
-0.096772041
-0.4290762
-0.10122182
-0.4492975
-0.1057253
-0.4705372
-0.11026698
-0.49285222
-0.11483031
-0.51630502
-0.11939878
-0.54095912
-0.12395428
-0.56688393
-0.12847976
-0.59414974
-0.1329584
-0.62283212
-0.13737522
-0.65300817
-0.14171885
-0.68475908
-0.145982
-0.7181671
-0.15016361
-0.75331739
-0.15427247
-0.79029394
-0.15832555
-0.82918156
-0.16234958
-0.87006549
-0.16637397
-0.9130353
-0.17042344
-0.95819228
-0.17450376
-1.0056665
-0.17857018
-1.0556422
-0.18252636
-1.108429
-0.18619092
-1.1644734
-0.18933037
-1.2243896
-0.19167332
-1.288885
-0.19298493
-1.3585912
-0.19313082
-1.433752
-0.19208312
-1.5138471
-0.18988967
-1.5973983
-0.18648593
-1.6826823
-0.18236264
-1.7667393
-0.1772691
-1.8472627
-0.17078193
-1.9197538
-0.16268078
-1.984954
-0.15222513
-2.0502784
-0.13782838
-2.1340722
-2.2472901
-0.00039546532
-0.049461611
-0.0010754498
-0.062348265
-0.0016722064
-0.060867754
-0.0024264165
-0.066249326
-0.0031118455
-0.068033902
-0.0039270501
-0.071979934
-0.0047032528
-0.075013726
-0.0055777036
-0.078704755
-0.0064522142
-0.082368102
-0.0073997475
-0.086241644
-0.0083820035
-0.090308353
-0.0094203761
-0.09454124
-0.010510467
-0.098983755
-0.011656749
-0.10362368
-0.012861893
-0.10847907
-0.014129393
-0.11355581
-0.015462481
-0.11886491
-0.016864624
-0.12441641
-0.018339983
-0.13022047
-0.019892062
-0.13628902
-0.021525536
-0.14263271
-0.023244659
-0.14926493
-0.025054041
-0.15619733
-0.026958126
-0.16344432
-0.028961882
-0.17101988
-0.031070345
-0.17893872
-0.033287425
-0.18721777
-0.035618503
-0.19587275
-0.038067881
-0.20492226
-0.040639779
-0.21438581
-0.043338551
-0.2242831
-0.046167314
-0.23463646
-0.049129893
-0.24546899
-0.052227713
-0.25680622
-0.055463242
-0.26867367
-0.058837444
-0.2811007
-0.06234983
-0.29411772
-0.065999324
-0.30775659
-0.069784029
-0.32205212
-0.073700082
-0.33704128
-0.077743
-0.35276296
-0.081905881
-0.36925945
-0.086181635
-0.38657419
-0.090561196
-0.40475447
-0.095033279
-0.42385087
-0.099586356
-0.44391536
-0.10420818
-0.46500395
-0.1088835
-0.48717672
-0.11359849
-0.51049513
-0.11833659
-0.53502619
-0.12308337
-0.56083845
-0.12782288
-0.58800565
-0.13254099
-0.61660439
-0.13722563
-0.64671397
-0.14186814
-0.67841806
-0.14646518
-0.71180171
-0.15102138
-0.74695287
-0.15554896
-0.78396154
-0.16007122
-0.82291818
-0.16461941
-0.86391866
-0.16922775
-0.90706544
-0.17392254
-0.95247916
-0.17870601
-1.0003238
-0.18353606
-1.0508192
-0.18831263
-1.1043136
-0.19286714
-1.1612935
-0.19697996
-1.2223808
-0.20042652
-1.2882331
-0.20302514
-1.3593646
-0.20472176
-1.4357908
-0.20552418
-1.5168054
-0.20540086
-1.6008747
-0.2045092
-1.6861066
-0.20314614
-1.7698362
-0.20089343
-1.8499507
-0.19738897
-1.9222411
-0.19242992
-1.9886977
-0.18538027
-2.0569727
-0.17483978
-2.1451458
-2.2620783
-0.00035142747
-0.04908334
-0.00099702121
-0.061672312
-0.0015339447
-0.060300817
-0.002233804
-0.065516269
-0.0028504067
-0.067383521
-0.0036132362
-0.071179091
-0.0043274814
-0.074260691
-0.0051349854
-0.077856455
-0.0059607358
-0.081498966
-0.0068553186
-0.085300612
-0.0077849383
-0.089329575
-0.0087663918
-0.093507367
-0.0097988861
-0.097895488
-0.010886029
-0.10247707
-0.012031713
-0.10726996
-0.013239028
-0.11228075
-0.014512564
-0.11751896
-0.015856016
-0.12299545
-0.017273849
-0.12871961
-0.018771031
-0.13470278
-0.020351746
-0.14095638
-0.022021714
-0.14749217
-0.023785654
-0.15432278
-0.025648659
-0.16146215
-0.027616503
-0.16892354
-0.029694102
-0.1767224
-0.031887637
-0.18487432
-0.034201787
-0.19339639
-0.036641365
-0.20230699
-0.039211935
-0.2116247
-0.041917324
-0.22137084
-0.044761786
-0.2315671
-0.047748494
-0.24223752
-0.050880856
-0.25340714
-0.054159942
-0.2651036
-0.05758717
-0.27735564
-0.061163094
-0.29019425
-0.064886432
-0.30365282
-0.068754941
-0.31776674
-0.072765445
-0.33257355
-0.076913612
-0.34811288
-0.081193366
-0.36442832
-0.085597869
-0.38156367
-0.090118187
-0.39956789
-0.094745282
-0.41849131
-0.099468217
-0.43838755
-0.10427505
-0.45931354
-0.10915398
-0.48132936
-0.11409108
-0.50449894
-0.1190738
-0.52888866
-0.1240881
-0.55456973
-0.12912158
-0.58161617
-0.13416328
-0.61010602
-0.13920395
-0.64012114
-0.14423918
-0.67174642
-0.14926959
-0.70507021
-0.15430441
-0.740183
-0.15936158
-0.77718047
-0.16446902
-0.81616094
-0.16966358
-0.85723033
-0.1749813
-0.90050617
-0.18045027
-0.94612431
-0.18605894
-0.99428098
-0.19178329
-1.0452546
-0.19751496
-1.0994086
-0.20310046
-1.1572551
-0.20834817
-1.2194071
-0.21307927
-1.2864478
-0.21718533
-1.3587364
-0.22065804
-1.436075
-0.22354366
-1.5175812
-0.22580499
-1.6017137
-0.22760443
-1.6864359
-0.22909426
-1.7696028
-0.22985391
-1.8489429
-0.22948934
-1.9214275
-0.2278047
-1.9891053
-0.22435209
-2.0601005
-0.21789157
-2.1519943
-2.2721346
-0.00030630186
-0.048749837
-0.00092229991
-0.061025557
-0.0014035264
-0.059789013
-0.0020525869
-0.064833237
-0.0026205536
-0.06678082
-0.0033522532
-0.070409662
-0.0040283333
-0.073546014
-0.0048135933
-0.077029086
-0.0055951765
-0.080673343
-0.0064381989
-0.084410282
-0.0073197529
-0.088397867
-0.0082515515
-0.092522079
-0.0092361052
-0.096853975
-0.010276345
-0.10137605
-0.011376584
-0.10610486
-0.012541069
-0.11104695
-0.013773475
-0.11621245
-0.015079448
-0.12161014
-0.016463491
-0.12725059
-0.01793087
-0.13314427
-0.019487056
-0.1393024
-0.02113758
-0.14573659
-0.022888308
-0.15245913
-0.024745957
-0.15948298
-0.026715427
-0.16682318
-0.028803577
-0.17449314
-0.031015859
-0.18250976
-0.033358319
-0.19088944
-0.035836616
-0.19965082
-0.038455806
-0.20881295
-0.041220517
-0.21839745
-0.044135207
-0.22842602
-0.047203566
-0.23892328
-0.050427945
-0.24991541
-0.053810674
-0.26142987
-0.057353046
-0.27349617
-0.061054693
-0.28614671
-0.064914958
-0.29941483
-0.068931862
-0.31333695
-0.073102199
-0.32795144
-0.077421561
-0.34329875
-0.081885225
-0.3594224
-0.086485866
-0.37636835
-0.09121627
-0.39418508
-0.096067921
-0.41292389
-0.10103122
-0.43263926
-0.10609626
-0.45338836
-0.11125256
-0.47523196
-0.11648914
-0.49823489
-0.12179513
-0.52246414
-0.1271603
-0.54799149
-0.13257447
-0.57489282
-0.13803012
-0.60324652
-0.14352221
-0.63313641
-0.14905062
-0.66464877
-0.15462136
-0.69787445
-0.16024797
-0.73290815
-0.16595436
-0.76985059
-0.17177358
-0.80880868
-0.17774485
-0.84989863
-0.18391007
-0.89325028
-0.19028299
-0.93902338
-0.19686981
-0.98745789
-0.20363463
-1.0388467
-0.21047898
-1.0935961
-0.21726598
-1.1522175
-0.22384111
-1.2152901
-0.23007967
-1.2832984
-0.23594472
-1.3564214
-0.24146594
-1.4342717
-0.24667717
-1.5158524
-0.25160045
-1.5995827
-0.25623824
-1.6833847
-0.26081703
-1.7658992
-0.26476149
-1.8441838
-0.26770198
-1.9171176
-0.26944277
-1.9860243
-0.2697867
-2.0593186
-0.26772153
-2.1541799
-2.2770383
-0.00026277903
-0.048459883
-0.00085615854
-0.060401494
-0.0012936575
-0.059320811
-0.0019163799
-0.064176462
-0.0024596815
-0.066202895
-0.0031614062
-0.069671611
-0.0038060383
-0.072861999
-0.0045641912
-0.076227988
-0.0053115499
-0.079881336
-0.0061159457
-0.083558113
-0.0069643078
-0.087498717
-0.0078629585
-0.0915692
-0.0088170242
-0.095842068
-0.0098294157
-0.10030188
-0.010905046
-0.10496325
-0.012048416
-0.10983302
-0.013264928
-0.11492048
-0.014559632
-0.12023464
-0.015938235
-0.12578545
-0.017407137
-0.13158259
-0.018972013
-0.13763801
-0.020639986
-0.14396176
-0.022417007
-0.1505673
-0.024309985
-0.15746653
-0.026326021
-0.16467427
-0.028471297
-0.17220472
-0.030752738
-0.18007399
-0.033176468
-0.18829915
-0.035748109
-0.19689927
-0.038473517
-0.20589302
-0.041357685
-0.21530277
-0.044404387
-0.22515126
-0.047617061
-0.23546331
-0.050998839
-0.2462652
-0.054551469
-0.25758557
-0.058275464
-0.26945494
-0.062171168
-0.28190561
-0.066237515
-0.29497205
-0.070472204
-0.3086916
-0.074872533
-0.32310269
-0.079434254
-0.33824695
-0.084152305
-0.35416833
-0.089021231
-0.37091281
-0.094034776
-0.38852932
-0.099185303
-0.40707025
-0.10446526
-0.42658983
-0.10986641
-0.4471459
-0.11538057
-0.46879935
-0.12099967
-0.49161533
-0.12671532
-0.51566192
-0.13252055
-0.54101076
-0.13840933
-0.56773885
-0.1443776
-0.59592583
-0.1504254
-0.62565614
-0.15655698
-0.65701849
-0.16278372
-0.69010575
-0.1691248
-0.72501725
-0.17561056
-0.76185865
-0.18227821
-0.80074555
-0.18916734
-0.84180376
-0.19632618
-0.88517163
-0.2037466
-0.93105991
-0.21147858
-0.97972272
-0.21945549
-1.0314718
-0.22759708
-1.0867339
-0.23578831
-1.1460112
-0.2439206
-1.2098194
-0.25192863
-1.2785248
-0.25982843
-1.3521233
-0.26766273
-1.4300755
-0.27546631
-1.5113024
-0.28325375
-1.594239
-0.29110053
-1.6769962
-0.29897472
-1.7585397
-0.30631084
-1.8359328
-0.31269155
-1.9091663
-0.31803361
-1.9792506
-0.32240229
-2.0542687
-0.32514277
-2.1512704
-2.2763256
-0.00022268424
-0.048210089
-0.00080238098
-0.059791235
-0.0012084772
-0.058883992
-0.0018544557
-0.0634967
-0.0023783795
-0.06564421
-0.0030531845
-0.068960026
-0.00366984
-0.072205775
-0.0043830551
-0.07547234
-0.0051115161
-0.079107852
-0.0058947894
-0.082726606
-0.0067280896
-0.086614092
-0.0076132274
-0.090629238
-0.0085576681
-0.094839121
-0.0095648265
-0.099232201
-0.010640267
-0.10382101
-0.011789427
-0.10861242
-0.013018294
-0.11361519
-0.014333228
-0.11883788
-0.015740745
-0.12429029
-0.017247201
-0.12998217
-0.018860958
-0.13592346
-0.020588065
-0.14212645
-0.022437077
-0.14860205
-0.024414835
-0.15536379
-0.026528734
-0.16242589
-0.028786348
-0.16980228
-0.031194503
-0.17750976
-0.033759453
-0.18556585
-0.036487829
-0.19398916
-0.039384647
-0.20279986
-0.042454401
-0.2120207
-0.045701464
-0.22167442
-0.049128773
-0.23178709
-0.052738783
-0.24238532
-0.056532772
-0.25349872
-0.060511222
-0.26515837
-0.064673708
-0.27739725
-0.069018882
-0.29025049
-0.073545051
-0.30375546
-0.078248987
-0.3179518
-0.08312726
-0.33288104
-0.088175831
-0.34858735
-0.093389925
-0.36511712
-0.098763903
-0.38251986
-0.1042927
-0.40084714
-0.10997077
-0.4201536
-0.11579201
-0.44049768
-0.12175106
-0.46193982
-0.12784271
-0.48454549
-0.13406252
-0.50838288
-0.14040635
-0.53352479
-0.14687306
-0.5600475
-0.15346285
-0.58803281
-0.16018032
-0.6175659
-0.16703553
-0.64873715
-0.1740452
-0.68164256
-0.18123565
-0.71638503
-0.18864139
-0.7530779
-0.19630374
-0.79184157
-0.20427084
-0.8328071
-0.21255828
-0.87615735
-0.22123295
-0.92212399
-0.23027912
-0.97094464
-0.2396607
-1.0229788
-0.2493105
-1.0786497
-0.25914395
-1.1384294
-0.2690965
-1.2027524
-0.27916043
-1.2718483
-0.28938234
-1.3455491
-0.29982898
-1.4231855
-0.31051993
-1.5036758
-0.32148076
-1.5855205
-0.33281023
-1.667018
-0.34418361
-1.7471242
-0.3551002
-1.8238949
-0.36514017
-1.8974114
-0.37429038
-1.9685634
-0.38296184
-2.0446286
-0.39098983
-2.142769
-2.2695428
-0.00018755061
-0.047995391
-0.00076632197
-0.059181968
-0.0011477592
-0.058471705
-0.001805087
-0.062806172
-0.0023028096
-0.065111567
-0.0029684367
-0.06825601
-0.0035771044
-0.071557343
-0.0042798015
-0.074726837
-0.005008017
-0.078334335
-0.0057876632
-0.081898489
-0.0066246527
-0.08572548
-0.0075178457
-0.089680916
-0.0084760337
-0.093822085
-0.009503626
-0.098141717
-0.010607098
-0.10265032
-0.011792886
-0.10735472
-0.01306795
-0.11226318
-0.014439343
-0.11738407
-0.015915294
-0.12272602
-0.017503451
-0.1282993
-0.019211848
-0.13411343
-0.021049125
-0.14018003
-0.023023134
-0.14651075
-0.025142238
-0.15311855
-0.027414798
-0.16001759
-0.02984772
-0.16722318
-0.032448313
-0.17475164
-0.035223204
-0.18262107
-0.038178377
-0.19085064
-0.041318087
-0.19946212
-0.044647677
-0.20847707
-0.048169624
-0.21792093
-0.051887155
-0.2278189
-0.055801168
-0.23819972
-0.059912338
-0.24909305
-0.064221134
-0.26052995
-0.068726655
-0.27254455
-0.073427217
-0.28517249
-0.078320962
-0.29845104
-0.083405677
-0.31241993
-0.08867842
-0.32712106
-0.094136102
-0.34259846
-0.099775107
-0.35889875
-0.10559244
-0.37607059
-0.11158461
-0.3941659
-0.11774808
-0.41323937
-0.12408068
-0.43334823
-0.1305793
-0.45455424
-0.13724282
-0.47692148
-0.14407022
-0.50051908
-0.15106234
-0.52541962
-0.15822119
-0.55170086
-0.16555298
-0.5794444
-0.17306776
-0.6087371
-0.1807807
-0.63967189
-0.18871503
-0.67234732
-0.19690374
-0.70687106
-0.20538587
-0.74336264
-0.21420612
-0.78194482
-0.22340927
-0.82278468
-0.23304244
-0.86607838
-0.24314456
-0.91203548
-0.25370975
-0.96095147
-0.2647153
-1.0131784
-0.27611497
-1.0691276
-0.28785989
-1.1292225
-0.29992988
-1.1938036
-0.31235465
-1.262966
-0.32521194
-1.3363866
-0.33858891
-1.4133039
-0.35248076
-1.4926996
-0.36689526
-1.573081
-0.38192187
-1.6530844
-0.39702645
-1.7316232
-0.41180865
-1.8079063
-0.42579361
-1.8816702
-0.43899973
-1.9537789
-0.45222632
-2.0302751
-0.46615685
-2.1284658
-2.2563946
-0.0001657534
-0.047802655
-0.00076322268
-0.058554308
-0.0011411016
-0.058063119
-0.0017877609
-0.062126129
-0.0022770362
-0.064587452
-0.0029426645
-0.067552753
-0.0035639252
-0.070896464
-0.0042704734
-0.073977669
-0.0050175657
-0.077542088
-0.0058149971
-0.081052748
-0.0066778158
-0.084811159
-0.00760393
-0.088699766
-0.0086031189
-0.092764107
-0.0096811299
-0.097000826
-0.010845516
-0.10141868
-0.012103947
-0.10602428
-0.013464721
-0.11082528
-0.014936487
-0.11582964
-0.016527732
-0.12104613
-0.018248245
-0.12648365
-0.020106673
-0.13215285
-0.022112485
-0.13806445
-0.024274293
-0.14423093
-0.026600914
-0.15066496
-0.029100546
-0.15738128
-0.031780813
-0.16439567
-0.034648186
-0.17172555
-0.037709123
-0.17938893
-0.040968231
-0.18740675
-0.044430483
-0.19580029
-0.048098416
-0.20459343
-0.051974679
-0.21381136
-0.056060825
-0.22348023
-0.060357371
-0.23362963
-0.064864437
-0.24428945
-0.069581575
-0.25549111
-0.074507446
-0.26726941
-0.079641137
-0.27965932
-0.084980825
-0.29269876
-0.090525093
-0.30642677
-0.096272291
-0.3208852
-0.10222086
-0.33611773
-0.10836972
-0.35217027
-0.11471756
-0.36909151
-0.12126357
-0.38693288
-0.128008
-0.4057481
-0.13495106
-0.42559468
-0.14209409
-0.44653376
-0.14943899
-0.46862962
-0.15698928
-0.49195099
-0.16474995
-0.51657097
-0.17272929
-0.5425671
-0.18093824
-0.57002294
-0.18939279
-0.59902648
-0.19811387
-0.62967358
-0.20713186
-0.66206467
-0.2164855
-0.69631579
-0.2262194
-0.73254587
-0.23638065
-0.77090159
-0.24702492
-0.811563
-0.25820593
-0.85471306
-0.26995
-0.90060231
-0.28226766
-0.9495245
-0.29514924
-1.0018281
-0.30857296
-1.0578957
-0.32252795
-1.1180858
-0.33703429
-1.1826403
-0.35214858
-1.2515332
-0.36796845
-1.3243019
-0.38460307
-1.4001204
-0.40198122
-1.4780933
-0.42014704
-1.5567494
-0.4390661
-1.6351389
-0.45820094
-1.712294
-0.47711491
-1.7878714
-0.49542478
-1.8618043
-0.51305714
-1.9347476
-0.53099546
-2.0113524
-0.55160887
-2.1082235
-2.2364689
-0.00014568199
-0.047630435
-0.00077082264
-0.057899611
-0.0011539532
-0.057649772
-0.0018118047
-0.06143534
-0.0023134282
-0.064051467
-0.0029910974
-0.066837851
-0.0036409154
-0.070207452
-0.0043678767
-0.073208575
-0.0051526838
-0.076712522
-0.005991247
-0.0801663
-0.0069048013
-0.083846476
-0.0078921951
-0.087657689
-0.0089638591
-0.091633961
-0.010127326
-0.095774745
-0.011391562
-0.1000874
-0.012765787
-0.10457819
-0.01425971
-0.10925432
-0.015883367
-0.11412332
-0.017647008
-0.11919378
-0.019560492
-0.12447487
-0.021634203
-0.12997674
-0.023877636
-0.1357109
-0.026299874
-0.14169022
-0.028909911
-0.14792738
-0.031715248
-0.15443856
-0.034722763
-0.16124009
-0.037939139
-0.16834949
-0.041368472
-0.17578729
-0.045015059
-0.18357411
-0.048881632
-0.1917327
-0.05297018
-0.20028755
-0.057282047
-0.20926438
-0.061816591
-0.21869115
-0.066574816
-0.22859567
-0.071555586
-0.23900975
-0.076757987
-0.24996442
-0.082181762
-0.2614936
-0.087825679
-0.273633
-0.093690118
-0.2864187
-0.099774662
-0.29989025
-0.10607942
-0.31408875
-0.11260505
-0.32905708
-0.11935313
-0.3448401
-0.12632519
-0.36148644
-0.13352386
-0.37904652
-0.14095266
-0.39757334
-0.14861565
-0.4171243
-0.15651799
-0.43776001
-0.16466641
-0.45954416
-0.17306855
-0.48254601
-0.18173486
-0.50683827
-0.19067783
-0.53250009
-0.19991583
-0.55961455
-0.2094707
-0.58827325
-0.21937062
-0.61857355
-0.22965132
-0.65061964
-0.24036013
-0.68453318
-0.25154312
-0.72044189
-0.26326185
-0.75851203
-0.27557576
-0.79890763
-0.28853166
-0.84184571
-0.30216636
-0.88757514
-0.31650138
-0.93639081
-0.33154412
-0.98862407
-0.34729921
-1.0446166
-0.36379548
-1.1046475
-0.38108835
-1.1688658
-0.39924391
-1.2371511
-0.41836385
-1.3089233
-0.43858424
-1.3832836
-0.45973163
-1.4595977
-0.48193708
-1.5363486
-0.50495644
-1.6130411
-0.52832847
-1.688884
-0.5517177
-1.7637312
-0.57479876
-1.8377103
-0.59737375
-1.9113159
-0.62036084
-1.9881077
-0.64829954
-2.0820741
-2.2090598
-0.00013123974
-0.047473244
-0.00079896614
-0.057203062
-0.001194901
-0.057224212
-0.0018807448
-0.060717217
-0.0024115535
-0.063486826
-0.0031162972
-0.066096537
-0.0038160235
-0.069469116
-0.0045855958
-0.072397504
-0.0054316227
-0.075822313
-0.0063391988
-0.079211422
-0.0073335688
-0.082801531
-0.0084161189
-0.086520978
-0.0095983536
-0.090393734
-0.010890019
-0.094420913
-0.012301729
-0.098609043
-0.013844574
-0.10296384
-0.015529767
-0.10749238
-0.017368584
-0.11220207
-0.019372244
-0.11710155
-0.0215516
-0.12220029
-0.023916817
-0.1275091
-0.026477823
-0.13303966
-0.02924376
-0.13880559
-0.032221961
-0.14482129
-0.035419667
-0.151103
-0.038842354
-0.1576687
-0.042494212
-0.16453717
-0.046378666
-0.17172956
-0.050497706
-0.17926785
-0.054852258
-0.18717574
-0.059442411
-0.19547845
-0.064268326
-0.20420147
-0.069329254
-0.21337353
-0.074624488
-0.22302223
-0.080153791
-0.23317875
-0.085916832
-0.243874
-0.091913796
-0.25514118
-0.09814622
-0.26701444
-0.10461458
-0.27953067
-0.11132175
-0.29272681
-0.1182701
-0.30664424
-0.12546419
-0.32132348
-0.1329074
-0.33681047
-0.14060538
-0.35315159
-0.14856492
-0.37039629
-0.15679251
-0.38859818
-0.16529686
-0.40781294
-0.17408777
-0.42810086
-0.18317584
-0.44952596
-0.19257439
-0.47215665
-0.20229839
-0.49606676
-0.21236777
-0.52133486
-0.22280594
-0.5480469
-0.23364312
-0.5762957
-0.24491392
-0.60618189
-0.25666399
-0.63781237
-0.26893921
-0.67131342
-0.2818076
-0.70683348
-0.2953289
-0.74452336
-0.30956187
-0.78457233
-0.3245611
-0.82719717
-0.3403699
-0.87265018
-0.35702084
-0.92121561
-0.37454236
-0.97319536
-0.39297138
-1.0288783
-0.41237677
-1.0884598
-0.43283638
-1.1520121
-0.45440509
-1.2193541
-0.47717847
-1.2898021
-0.50127048
-1.36241
-0.52652201
-1.4368649
-0.55301584
-1.5116394
-0.58036401
-1.5866252
-0.60827744
-1.6611853
-0.63650334
-1.7353368
-0.66481704
-1.8092971
-0.69301247
-1.8833581
-0.72170826
-1.9604254
-0.75646235
-2.0510252
-2.1746282
-0.00012331362
-0.047324659
-0.00085364684
-0.056444726
-0.0012665892
-0.056782307
-0.0019960008
-0.059956278
-0.0025771161
-0.062872574
-0.0033267507
-0.065311093
-0.0040993638
-0.068658575
-0.0049366231
-0.071519494
-0.0058698999
-0.074845537
-0.0068787687
-0.078155948
-0.0079903513
-0.081640042
-0.0092099615
-0.085247858
-0.010550622
-0.088995699
-0.012024241
-0.092885715
-0.013643356
-0.096923828
-0.015420455
-0.10111573
-0.017368069
-0.10546846
-0.019498278
-0.10998982
-0.021822838
-0.11468874
-0.02435268
-0.11957546
-0.027098019
-0.12466149
-0.030067575
-0.12995991
-0.033268906
-0.13548549
-0.036708567
-0.14125355
-0.040390816
-0.14728254
-0.044319331
-0.15359098
-0.048495385
-0.16019995
-0.052919968
-0.16713079
-0.057593078
-0.17440639
-0.062513723
-0.1820513
-0.067681247
-0.19009029
-0.073094319
-0.19854939
-0.078752709
-0.20745608
-0.084655971
-0.21683802
-0.090805107
-0.22672475
-0.097200938
-0.23714719
-0.10384637
-0.24813625
-0.11074396
-0.2597262
-0.11789884
-0.27195117
-0.12531527
-0.28484874
-0.13300053
-0.29845711
-0.14096048
-0.31281808
-0.14920401
-0.3279746
-0.1577406
-0.34397254
-0.1665801
-0.36086123
-0.17573421
-0.37869286
-0.18521584
-0.39752253
-0.19503916
-0.41741018
-0.20522042