/*--------------------------------*- C++ -*----------------------------------*\
  =========                 |
  \\      /  F ield         | OpenFOAM: The Open Source CFD Toolbox
   \\    /   O peration     | Website:  https://openfoam.org
    \\  /    A nd           | Version:  12
     \\/     M anipulation  |
\*---------------------------------------------------------------------------*/
FoamFile
{
    format      ascii;
    class       volScalarField;
    location    "0.016";
    object      rho;
}
// * * * * * * * * * * * * * * * * * * * * * * * * * * * * * * * * * * * * * //

dimensions      [1 -3 0 0 0 0 0];

internalField   nonuniform List<scalar> 
16000
(
1.0535807
1.0891984
1.0757249
1.0848439
1.0804787
1.0843442
1.0831705
1.0852145
1.0853214
1.0866696
1.0873514
1.0884695
1.0894169
1.0905086
1.0915952
1.0927438
1.0939294
1.0951625
1.0964409
1.0977668
1.0991403
1.1005625
1.1020337
1.1035547
1.1051254
1.1067462
1.1084171
1.1101379
1.1119082
1.1137276
1.1155952
1.11751
1.1194709
1.1214762
1.1235243
1.1256132
1.1277408
1.1299049
1.132103
1.134333
1.1365923
1.138879
1.1411907
1.1435256
1.1458819
1.148258
1.1506525
1.1530641
1.1554913
1.1579326
1.1603857
1.1628473
1.1653124
1.1677732
1.1702182
1.1726303
1.1749851
1.177249
1.1793765
1.1813087
1.1829736
1.1842901
1.185179
1.1855818
1.1854838
1.1849432
1.1841255
1.1832941
1.1827686
1.1828824
1.1837953
1.1854391
1.1873455
1.1887031
1.1885516
1.1867777
1.1814955
1.1746317
1.1684764
1.1694006
1.0490558
1.0851998
1.0710818
1.0808127
1.0762022
1.0803503
1.079068
1.0812955
1.081392
1.0828513
1.0835882
1.0847873
1.0858156
1.0869882
1.0881639
1.0894022
1.0906829
1.0920144
1.0933952
1.0948273
1.0963109
1.0978468
1.0994352
1.1010765
1.1027706
1.1045175
1.1063166
1.1081676
1.1100696
1.1120216
1.1140224
1.1160706
1.1181642
1.1203014
1.1224797
1.1246966
1.1269496
1.1292357
1.131552
1.1338957
1.1362638
1.1386535
1.1410622
1.1434874
1.1459268
1.1483784
1.1508403
1.1533105
1.1557871
1.1582681
1.1607507
1.1632313
1.1657048
1.1681635
1.1705962
1.1729871
1.1753133
1.1775433
1.1796345
1.1815317
1.1831668
1.184464
1.1853496
1.1857705
1.1857252
1.1852809
1.1846099
1.1839697
1.1837015
1.1840671
1.1852015
1.1869282
1.1887273
1.1898503
1.1893121
1.1869868
1.1811706
1.1741874
1.1686611
1.1696174
1.0449856
1.0815629
1.0670648
1.0771262
1.0723638
1.0767178
1.075405
1.0777555
1.0778997
1.0794447
1.0802631
1.0815431
1.0826654
1.0839277
1.0852031
1.0865421
1.0879288
1.0893697
1.0908638
1.0924125
1.0940159
1.0956746
1.0973884
1.0991574
1.1009812
1.1028594
1.104791
1.1067753
1.1088107
1.1108958
1.1130289
1.1152078
1.11743
1.1196931
1.121994
1.1243298
1.126697
1.1290924
1.1315126
1.1339542
1.1364139
1.1388885
1.1413751
1.1438711
1.1463739
1.1488814
1.1513913
1.1539016
1.1564103
1.1589147
1.1614119
1.1638979
1.1663671
1.1688117
1.1712205
1.1735777
1.1758611
1.1780405
1.1800752
1.1819129
1.1834901
1.1847374
1.1855906
1.1860049
1.1859999
1.1856536
1.1851525
1.1847634
1.184786
1.1854443
1.1867985
1.1885661
1.1902078
1.1909353
1.1900012
1.1869668
1.1807287
1.1737525
1.1688783
1.1699133
1.0413707
1.0782925
1.0633696
1.0738231
1.0689213
1.0735108
1.0721704
1.0746627
1.0748678
1.0765123
1.0774271
1.0788012
1.0800334
1.0813997
1.0827892
1.0842429
1.0857489
1.0873118
1.0889308
1.0906072
1.0923405
1.0941314
1.0959791
1.0978837
1.099844
1.1018594
1.1039284
1.1060494
1.1082205
1.1104394
1.1127037
1.1150104
1.1173565
1.1197386
1.1221531
1.1245963
1.1270644
1.1295535
1.1320598
1.1345796
1.1371095
1.1396462
1.1421868
1.1447286
1.1472694
1.1498071
1.1523397
1.1548656
1.1573825
1.1598881
1.1623792
1.1648516
1.1672996
1.1697151
1.1720865
1.1743978
1.176627
1.1787441
1.1807097
1.1824737
1.1839776
1.1851592
1.1859655
1.1863675
1.1863884
1.1861403
1.1858151
1.1856744
1.1859856
1.1869244
1.1884543
1.1902178
1.1916618
1.1917818
1.1905401
1.1867916
1.1803309
1.1734304
1.1691267
1.1702368
1.0382503
1.0755198
1.0602088
1.0709547
1.0659545
1.070802
1.0694544
1.0720937
1.0723815
1.074133
1.0751645
1.0766433
1.078
1.0794822
1.080997
1.082576
1.084211
1.0859053
1.0876583
1.0894711
1.0913431
1.0932744
1.0952642
1.0973117
1.0994154
1.1015738
1.1037847
1.1060457
1.108354
1.1107064
1.1130994
1.1155293
1.1179921
1.1204836
1.1229994
1.1255353
1.1280868
1.1306498
1.1332202
1.1357941
1.1383682
1.1409394
1.1435052
1.1460633
1.148612
1.1511499
1.1536756
1.156188
1.1586854
1.1611658
1.1636263
1.1660629
1.1684696
1.1708382
1.1731568
1.1754091
1.1775727
1.1796178
1.1815052
1.1831869
1.1846092
1.1857181
1.1864694
1.1868495
1.1869089
1.1867655
1.1866243
1.1867344
1.1873304
1.1885219
1.1901773
1.1919054
1.1930157
1.1925837
1.1910114
1.1865508
1.1799419
1.1731793
1.1693765
1.170555
1.0356864
1.0732886
1.0576292
1.0687091
1.0635985
1.068667
1.0673299
1.0701288
1.0705153
1.0723787
1.0735416
1.0751292
1.0766181
1.0782228
1.0798698
1.0815825
1.0833555
1.0851912
1.087089
1.0890494
1.0910713
1.0931544
1.0952969
1.0974973
1.0997533
1.1020621
1.1044206
1.1068252
1.1092719
1.1117566
1.1142744
1.1168206
1.1193903
1.1219783
1.1245797
1.1271894
1.1298027
1.1324151
1.1350227
1.1376217
1.1402092
1.1427826
1.1453401
1.1478804
1.1504027
1.1529065
1.1553916
1.1578576
1.1603039
1.1627292
1.1651312
1.1675062
1.1698485
1.1721499
1.1743984
1.1765773
1.178664
1.1806285
1.182432
1.1840289
1.1853697
1.186407
1.187114
1.1874844
1.187589
1.1875663
1.187621
1.1879846
1.1888469
1.1902415
1.1919551
1.1935416
1.1942449
1.1934727
1.1914099
1.1863012
1.1795938
1.1730153
1.1696133
1.170891
1.0336766
1.0716076
1.0556432
1.0670316
1.0618585
1.0671328
1.0658443
1.0687954
1.0692921
1.0712541
1.0725534
1.0742521
1.0758824
1.0776221
1.0794151
1.0812775
1.0832054
1.0852
1.0872602
1.0893854
1.091574
1.0938244
1.0961339
1.0984998
1.1009183
1.1033858
1.1058973
1.1084483
1.1110331
1.1136463
1.1162819
1.118934
1.1215964
1.1242634
1.1269292
1.1295885
1.1322363
1.1348682
1.1374806
1.1400704
1.1426353
1.1451738
1.1476853
1.1501697
1.1526275
1.1550599
1.1574677
1.1598521
1.1622134
1.1645515
1.1668649
1.1691506
1.1714035
1.1736154
1.1757745
1.177864
1.1798612
1.1817362
1.1834517
1.1849646
1.1862288
1.1871988
1.1878645
1.188251
1.1884282
1.1885505
1.1888181
1.1894374
1.190542
1.192088
1.1937871
1.1951285
1.1954379
1.1943277
1.1916346
1.1861067
1.1793215
1.1729491
1.169842
1.1712919
1.0321295
1.0703867
1.0541473
1.0659203
1.0606553
1.0661597
1.0649381
1.0680468
1.068611
1.0706835
1.0721555
1.0739928
1.0757928
1.0776958
1.0796613
1.0816996
1.0838075
1.0859852
1.0882305
1.0905421
1.0929171
1.0953526
1.0978445
1.1003888
1.10298
1.1056129
1.108281
1.110978
1.1136968
1.1164304
1.1191714
1.1219129
1.1246477
1.1273694
1.1300717
1.1327494
1.1353976
1.1380124
1.140591
1.1431314
1.1456326
1.1480947
1.1505185
1.1529058
1.1552588
1.1575803
1.159873
1.1621393
1.1643811
1.1665994
1.1687938
1.1709621
1.1730999
1.1751995
1.1772493
1.1792324
1.1811264
1.1829025
1.1845257
1.1859543
1.1871462
1.1880586
1.1887062
1.1891249
1.1894058
1.189702
1.1902024
1.1910774
1.1923952
1.1940375
1.1956508
1.196699
1.1965304
1.1951028
1.1916773
1.1860275
1.1791956
1.1730341
1.1701611
1.1718221
1.031031
1.0696057
1.0531329
1.0653458
1.0599103
1.0655678
1.0644434
1.0677138
1.0685117
1.0707378
1.072417
1.0744221
1.0764202
1.0785163
1.0806826
1.0829248
1.0852396
1.0876259
1.0900806
1.0926008
1.0951822
1.0978201
1.1005089
1.1032424
1.1060136
1.108815
1.1116385
1.1144756
1.1173177
1.1201562
1.1229825
1.1257886
1.1285666
1.1313098
1.1340121
1.1366684
1.1392748
1.1418286
1.1443282
1.1467734
1.1491652
1.1515054
1.1537973
1.1560445
1.1582514
1.1604226
1.1625626
1.1646755
1.1667645
1.1688319
1.1708783
1.1729025
1.1749008
1.1768661
1.1787868
1.1806464
1.182423
1.1840894
1.1856122
1.1869498
1.1880613
1.1889149
1.1895856
1.1900652
1.1904788
1.1909758
1.1917234
1.192844
1.1943384
1.1960145
1.1974724
1.1981718
1.1975561
1.1958454
1.1918104
1.1860915
1.1793024
1.1733691
1.1707517
1.1725208
1.0304113
1.069298
1.0526116
1.0652127
1.0596752
1.0657429
1.0646745
1.0680406
1.0691174
1.0715011
1.0734213
1.0756251
1.0778506
1.0801714
1.0825684
1.0850438
1.0875936
1.0902152
1.0929037
1.0956544
1.098461
1.1013168
1.1042138
1.1071435
1.1100965
1.113063
1.1160327
1.1189952
1.1219402
1.1248577
1.1277381
1.1305726
1.1333534
1.1360739
1.1387289
1.1413144
1.1438281
1.1462692
1.1486384
1.1509379
1.1531709
1.155342
1.1574568
1.1595214
1.1615422
1.1635258
1.1654785
1.1674057
1.169312
1.1712008
1.1730738
1.1749305
1.1767679
1.178579
1.1803528
1.1820727
1.1837174
1.1852613
1.1866697
1.1879046
1.1888975
1.1897917
1.1904575
1.1910213
1.1915899
1.1923036
1.1932968
1.1946376
1.1962577
1.1979007
1.1991507
1.1994995
1.1985894
1.1964095
1.192084
1.1863241
1.1796946
1.1740283
1.1716294
1.1733437
1.0303421
1.069534
1.0526403
1.0654714
1.0600622
1.0662962
1.0655696
1.0691352
1.0704868
1.0730554
1.0752529
1.0776921
1.0801775
1.0827573
1.0854176
1.0881578
1.0909723
1.0938565
1.0968032
1.0998052
1.1028534
1.1059384
1.1090491
1.1121744
1.115302
1.1184196
1.1215147
1.1245751
1.1275889
1.1305451
1.1334338
1.1362464
1.1389757
1.1416166
1.1441654
1.1466206
1.1489825
1.151253
1.1534359
1.1555362
1.1575604
1.1595158
1.1614105
1.163253
1.1650518
1.1668153
1.1685509
1.1702656
1.1719648
1.1736528
1.1753321
1.1770027
1.1786619
1.1803031
1.181915
1.1834808
1.1849795
1.1863865
1.1876628
1.1887551
1.1897778
1.1905841
1.1912828
1.1919435
1.1926762
1.1936034
1.194819
1.1963328
1.1980092
1.1995468
1.2005475
1.2005423
1.1993379
1.1966611
1.1923633
1.1866717
1.1803354
1.1749659
1.1726609
1.1741085
1.0308976
1.0703863
1.0533193
1.0664449
1.0612436
1.0677297
1.0672667
1.0710109
1.0727089
1.0754927
1.0780039
1.0807204
1.083503
1.0863801
1.0893405
1.0923801
1.0954913
1.0986659
1.1018939
1.1051644
1.1084649
1.1117822
1.1151022
1.1184101
1.1216911
1.1249301
1.1281128
1.1312255
1.1342555
1.1371919
1.1400253
1.1427488
1.1453573
1.1478482
1.1502213
1.1524784
1.1546234
1.1566622
1.1586019
1.1604511
1.1622192
1.1639166
1.1655537
1.1671409
1.1686887
1.1702064
1.1717028
1.1731853
1.1746601
1.176132
1.1776037
1.1790756
1.180545
1.1820052
1.183444
1.1848438
1.1861846
1.1874388
1.1885594
1.1896226
1.1905093
1.1912967
1.1920288
1.1927888
1.1936788
1.194794
1.1961827
1.1977969
1.1994428
1.2007977
1.2014922
1.2011414
1.19965
1.1967344
1.1924754
1.1869841
1.1810561
1.176002
1.1735248
1.1745033
1.0320583
1.0718385
1.0546259
1.0681643
1.0631623
1.0698985
1.0698088
1.0737561
1.0758625
1.0789078
1.0817768
1.0848215
1.0879469
1.0911665
1.0944686
1.0978453
1.101285
1.1047753
1.1083019
1.1118495
1.1154012
1.11894
1.1224476
1.1259063
1.1292982
1.1326065
1.1358154
1.1389111
1.1418816
1.1447177
1.1474127
1.1499628
1.1523672
1.1546276
1.1567482
1.1587357
1.1605983
1.162346
1.1639899
1.1655418
1.1670141
1.1684194
1.1697702
1.1710783
1.1723552
1.1736109
1.1748545
1.1760939
1.1773352
1.1785833
1.1798409
1.181108
1.1823818
1.1836552
1.1849145
1.1861392
1.1873142
1.1883977
1.1894336
1.1903357
1.1911536
1.1919134
1.1926774
1.1935276
1.1945511
1.1958077
1.1972975
1.1989203
1.2004395
1.2015414
1.2018906
1.2012019
1.1994442
1.1964429
1.1922322
1.1869973
1.1815249
1.1767919
1.1737313
1.1739795
1.0338828
1.073945
1.0566291
1.0706242
1.06592
1.0729254
1.0733037
1.0774787
1.0800621
1.0834303
1.0867091
1.0901422
1.0936638
1.0972759
1.1009632
1.1047125
1.1085067
1.1123284
1.1161576
1.1199739
1.1237558
1.1274815
1.1311292
1.1346782
1.1381088
1.1414036
1.1445475
1.1475286
1.1503385
1.1529721
1.1554278
1.1577076
1.1598164
1.1617618
1.1635536
1.1652035
1.1667244
1.1681304
1.1694359
1.1706554
1.1718036
1.1728947
1.1739422
1.1749586
1.1759555
1.1769431
1.1779303
1.1789245
1.1799317
1.1809564
1.1820005
1.1830634
1.1841414
1.1852269
1.1863052
1.1873515
1.1883488
1.1893057
1.190169
1.1909639
1.1917054
1.1924385
1.1932278
1.194149
1.195268
1.1966048
1.1981126
1.1996475
1.2009551
1.2017532
1.2017385
1.200737
1.1987181
1.1956301
1.1914408
1.1864048
1.181295
1.1768133
1.1730974
1.1720715
1.0364222
1.0767568
1.0594392
1.0739286
1.0696301
1.0769073
1.0778697
1.0823199
1.0854575
1.0892302
1.092984
1.0968732
1.1008489
1.1049021
1.109012
1.1131586
1.1173185
1.1214674
1.1255793
1.1296279
1.1335863
1.1374287
1.1411305
1.1446699
1.148028
1.1511899
1.1541447
1.1568863
1.1594127
1.1617264
1.1638332
1.1657426
1.1674664
1.1690186
1.1704148
1.1716715
1.1728055
1.1738339
1.1747735
1.1756407
1.1764512
1.1772198
1.1779599
1.1786841
1.1794033
1.180127
1.1808634
1.1816192
1.1823997
1.1832085
1.1840465
1.1849118
1.1857989
1.1866992
1.1875987
1.1884659
1.1893081
1.1900919
1.190823
1.1915099
1.1921831
1.1928925
1.1937004
1.1946667
1.1958333
1.1971856
1.1986314
1.1999947
1.2010401
1.2015067
1.2011201
1.1998054
1.1975468
1.19428
1.1900009
1.1850071
1.1800029
1.1754111
1.1708872
1.1681811
1.0397302
1.0802985
1.0631902
1.0781576
1.0744138
1.0819942
1.0836837
1.088489
1.0922676
1.0965406
1.1008399
1.1052511
1.109732
1.1142631
1.1188163
1.123363
1.1278718
1.1323102
1.136645
1.1408439
1.1448759
1.1487135
1.1523328
1.1557152
1.1588475
1.1617223
1.1643377
1.166697
1.1688082
1.1706831
1.1723367
1.1737862
1.1750504
1.1761491
1.1771023
1.1779299
1.1786515
1.1792857
1.1798504
1.1803624
1.1808372
1.1812891
1.1817309
1.1821738
1.1826277
1.183101
1.1836006
1.1841323
1.1847003
1.1853067
1.1859514
1.1866304
1.1873361
1.1880573
1.1887768
1.189484
1.1901586
1.1907964
1.1914015
1.1919945
1.1926136
1.1933105
1.1941374
1.1951296
1.1962963
1.1975989
1.1989166
1.2000608
1.2008218
1.2009279
1.2001916
1.1985815
1.1960335
1.1924755
1.1879603
1.1828274
1.1776762
1.1726887
1.1669672
1.162623
1.0438883
1.0845847
1.0680109
1.0834829
1.080495
1.0884439
1.0910149
1.0962742
1.1007771
1.1056438
1.1105532
1.1155404
1.1205614
1.1255848
1.1305717
1.1354821
1.1402742
1.1449068
1.1493407
1.1535407
1.1574769
1.1611259
1.1644718
1.1675061
1.1702276
1.1726416
1.174759
1.1765956
1.1781705
1.1795054
1.1806235
1.1815488
1.1823053
1.1829165
1.183405
1.1837923
1.1840987
1.1843429
1.1845422
1.1847125
1.1848683
1.1850222
1.1851855
1.1853678
1.1855774
1.1858211
1.1861045
1.1864321
1.1868067
1.1872289
1.1876965
1.1882038
1.1887411
1.1892954
1.1898523
1.1903972
1.1909214
1.1914253
1.1919226
1.1924427
1.1930284
1.1937285
1.1945832
1.1956055
1.1967572
1.1979607
1.199103
1.2000139
1.2004749
1.2002406
1.1991882
1.1972487
1.1943299
1.1903751
1.185514
1.180114
1.1746389
1.1691548
1.1627002
1.1574363
1.0491115
1.0898116
1.0741677
1.0902304
1.0882007
1.0965834
1.1001864
1.1060043
1.1113054
1.1168535
1.1224287
1.1280269
1.1335931
1.1390787
1.1444298
1.1495935
1.154519
1.1591612
1.1634819
1.1674521
1.1710529
1.1742751
1.1771191
1.1795935
1.181714
1.1835019
1.1849822
1.1861828
1.1871326
1.1878612
1.1883974
1.1887692
1.189003
1.1891235
1.1891535
1.189114
1.1890242
1.1889012
1.1887609
1.1886171
1.188482
1.1883665
1.1882797
1.1882292
1.1882213
1.1882614
1.1883537
1.188501
1.1887046
1.1889631
1.1892723
1.1896243
1.1900076
1.1904086
1.1908138
1.191213
1.1916038
1.1919955
1.1924111
1.1928864
1.1934639
1.1941821
1.1950644
1.1961059
1.1972486
1.1983794
1.1993699
1.2000508
1.2002216
1.1996686
1.1982696
1.1959428
1.1925828
1.1881905
1.1829829
1.1773166
1.1715545
1.1657432
1.1591655
1.1539929
1.0556651
1.0966003
1.0820202
1.0987168
1.097871
1.1067472
1.1115462
1.118055
1.1242311
1.1305394
1.1368117
1.1430062
1.149048
1.1548687
1.1604014
1.1655871
1.1703772
1.1747357
1.1786401
1.1820817
1.1850639
1.1876008
1.1897154
1.1914366
1.1927981
1.1938355
1.1945858
1.1950854
1.1953692
1.1954706
1.1954205
1.1952473
1.1949769
1.1946324
1.194235
1.1938032
1.1933537
1.1929013
1.192459
1.1920382
1.1916486
1.1912986
1.190995
1.1907434
1.1905484
1.1904137
1.190342
1.1903346
1.1903907
1.1905071
1.1906772
1.1908909
1.1911358
1.1913986
1.1916685
1.191941
1.192222
1.1925305
1.1928977
1.1933633
1.1939661
1.1947319
1.195661
1.1967209
1.1978389
1.1989051
1.1997898
1.2002826
1.2001707
1.1992902
1.1975046
1.1947588
1.1909559
1.1861763
1.1807566
1.1749722
1.1691596
1.1634402
1.1574467
1.1529346
1.0636948
1.1053409
1.0917521
1.1092607
1.1099363
1.1193948
1.1255683
1.1329306
1.1400406
1.1471277
1.1540332
1.1606782
1.1669706
1.1728329
1.178202
1.1830333
1.187301
1.1909982
1.194134
1.1967313
1.1988235
1.2004512
1.2016592
1.2024943
1.2030033
1.2032315
1.2032215
1.2030129
1.2026419
1.202141
1.2015394
1.2008628
1.2001341
1.1993732
1.1985976
1.1978226
1.1970616
1.1963262
1.1956265
1.194971
1.194367
1.1938201
1.193335
1.1929156
1.1925646
1.1922844
1.1920761
1.1919392
1.1918712
1.1918664
1.191916
1.1920086
1.1921314
1.192273
1.1924273
1.1925972
1.192798
1.1930578
1.1934143
1.1939079
1.1945703
1.1954129
1.1964175
1.1975303
1.1986602
1.199681
1.2004404
1.2007576
1.2003931
1.1991453
1.1969367
1.1937711
1.1896128
1.1846146
1.1792201
1.1735878
1.1680561
1.1628779
1.157998
1.1544265
1.0734103
1.1160366
1.1040984
1.122374
1.1250684
1.1352513
1.1429296
1.1512524
1.1592339
1.1669351
1.1741932
1.1809112
1.1870052
1.1924198
1.1971265
1.2011227
1.2044276
1.2070777
1.2091222
1.2106178
1.2116253
1.2122061
1.2124198
1.2123227
1.2119669
1.2113992
1.2106619
1.209792
1.2088221
1.2077805
1.2066917
1.2055768
1.2044539
1.2033387
1.2022444
1.2011827
1.2001634
1.1991949
1.1982844
1.1974376
1.1966591
1.1959525
1.1953206
1.1947655
1.1942887
1.193891
1.193572
1.1933295
1.1931587
1.193052
1.1929987
1.1929867
1.1930043
1.1930438
1.1931056
1.1932015
1.1933563
1.193606
1.1939919
1.1945512
1.1953057
1.1962519
1.1973546
1.1985434
1.199712
1.2007195
1.2013913
1.2015181
1.2008691
1.1992354
1.1965973
1.1930823
1.1887373
1.1837907
1.1786789
1.1735098
1.1685773
1.1642976
1.1607737
1.1581447
1.0856201
1.1296302
1.1199878
1.1390856
1.1442707
1.1552602
1.1643542
1.1734957
1.1819939
1.1898193
1.196839
1.2029872
1.2082333
1.2125838
1.2160746
1.2187636
1.2207233
1.222034
1.2227782
1.223037
1.2228866
1.222397
1.2216313
1.2206451
1.2194871
1.2181991
1.2168172
1.215372
1.2138894
1.2123913
1.2108962
1.2094195
1.2079744
1.2065718
1.2052211
1.20393
1.2027053
1.2015523
1.2004754
1.1994781
1.1985628
1.1977311
1.1969842
1.196323
1.1957477
1.1952579
1.1948514
1.1945244
1.19427
1.1940785
1.1939384
1.1938377
1.1937677
1.1937261
1.1937213
1.1937749
1.1939203
1.1941995
1.1946538
1.1953144
1.1961915
1.1972673
1.198491
1.1997759
1.2009964
1.201988
1.2025523
1.2024687
1.2015223
1.1995495
1.1965638
1.1928525
1.1884863
1.1838906
1.1793192
1.1748549
1.1707192
1.167501
1.1653836
1.163577
1.1019983
1.1472699
1.1407583
1.1605115
1.1685372
1.1801962
1.1901695
1.1995074
1.2077377
1.2148348
1.2207614
1.2255424
1.2292408
1.231948
1.2337719
1.2348266
1.2352253
1.2350751
1.2344738
1.2335086
1.2322553
1.2307795
1.2291367
1.2273737
1.2255294
1.2236364
1.2217216
1.2198072
1.2179112
1.2160489
1.2142323
1.2124717
1.2107753
1.20915
1.2076015
1.2061344
1.2047526
1.203459
1.2022557
1.2011441
1.2001249
1.1991984
1.1983645
1.1976229
1.196973
1.1964128
1.1959389
1.1955453
1.1952234
1.1949623
1.1947499
1.1945762
1.1944367
1.1943362
1.1942923
1.1943355
1.1945071
1.1948516
1.1954081
1.1961996
1.1972248
1.1984519
1.1998146
1.2012068
1.2024788
1.2034389
1.2038661
1.2035389
1.2022824
1.200017
1.1968104
1.1931295
1.1889595
1.1850066
1.181212
1.1775429
1.174286
1.1721248
1.1712026
1.1700381
1.1239834
1.1702869
1.1678611
1.1876533
1.1981856
1.2099383
1.21969
1.2280596
1.2348737
1.2401998
1.2441391
1.2468369
1.2484551
1.2491583
1.2491031
1.2484321
1.2472709
1.2457274
1.2438929
1.2418431
1.2396408
1.237337
1.2349732
1.2325828
1.230193
1.2278253
1.225497
1.2232219
1.2210109
1.2188727
1.2168143
1.2148411
1.2129574
1.2111667
1.2094719
1.207875
1.2063776
1.2049807
1.2036846
1.2024892
1.2013937
1.2003975
1.1994998
1.1986993
1.1979943
1.1973819
1.1968569
1.1964118
1.1960362
1.1957184
1.1954474
1.195216
1.1950254
1.1948884
1.1948316
1.1948939
1.1951215
1.1955599
1.1962434
1.1971866
1.198377
1.1997695
1.2012797
1.2027778
1.2040857
1.2049848
1.2052428
1.2046582
1.2031163
1.2006431
1.1974332
1.1938777
1.190369
1.1871348
1.1841391
1.1812891
1.1788999
1.1776942
1.1777013
1.1769629
1.1544036
1.1994967
1.2023208
1.2213878
1.2322478
1.2426951
1.250756
1.256838
1.26108
1.2637325
1.2650452
1.2652627
1.2646054
1.263265
1.261403
1.2591526
1.2566218
1.2538972
1.2510476
1.2481273
1.2451788
1.2422355
1.2393229
1.2364612
1.2336656
1.2309478
1.2283169
1.2257794
1.2233404
1.2210035
1.2187713
1.2166459
1.2146284
1.2127199
1.210921
1.2092319
1.2076524
1.2061822
1.20482
1.2035648
1.2024151
1.2013693
1.2004261
1.1995837
1.1988394
1.198189
1.1976261
1.1971415
1.1967237
1.196361
1.196044
1.1957697
1.1955454
1.1953923
1.195345
1.1954493
1.1957543
1.1963041
1.197128
1.1982326
1.1995949
1.2011553
1.2028088
1.2043984
1.2057163
1.2065237
1.2065926
1.205764
1.2040084
1.2014631
1.1984341
1.1953198
1.1924722
1.1900083
1.187793
1.185717
1.1841208
1.1837018
1.1843599
1.1839212
1.1957015
1.2366989
1.2428339
1.2589607
1.2686209
1.2759233
1.2805701
1.2831306
1.2839861
1.2835212
1.2820514
1.279838
1.2770883
1.2739651
1.2705939
1.2670708
1.2634688
1.2598428
1.2562341
1.2526735
1.2491837
1.2457813
1.2424786
1.239284
1.2362035
1.2332412
1.2303994
1.2276795
1.2250822
1.2226075
1.2202549
1.2180238
1.2159135
1.2139231
1.2120518
1.2102984
1.2086616
1.2071398
1.2057312
1.2044338
1.2032456
1.2021647
1.2011892
1.2003169
1.1995444
1.1988662
1.1982747
1.1977594
1.1973083
1.1969102
1.1965581
1.1962534
1.19601
1.1958564
1.1958342
1.1959936
1.1963854
1.1970516
1.1980166
1.1992799
1.2008082
1.2025261
1.2043059
1.2059627
1.2072634
1.2079608
1.2078493
1.2068311
1.2049686
1.2024972
1.1997818
1.1972121
1.1950507
1.1933113
1.1918002
1.1904156
1.1895033
1.1896819
1.190744
1.1905354
1.2459526
1.2800414
1.2876451
1.29794
1.3031227
1.305601
1.3057931
1.3043787
1.3018137
1.2984613
1.2945871
1.2903872
1.2860031
1.281537
1.2770618
1.2726294
1.268276
1.264027
1.2598996
1.2559052
1.2520509
1.2483409
1.2447772
1.2413602
1.2380893
1.234963
1.2319795
1.2291365
1.2264318
1.2238629
1.2214274
1.2191232
1.216948
1.2149
1.2129771
1.2111775
1.2094991
1.2079395
1.2064964
1.2051674
1.2039501
1.2028424
1.201842
1.2009463
1.2001511
1.1994502
1.1988347
1.1982936
1.1978146
1.1973876
1.1970082
1.1966821
1.1964291
1.1962835
1.1962921
1.1965082
1.1969829
1.197756
1.1988482
1.2002529
1.2019268
1.2037787
1.2056587
1.207357
1.2086236
1.2092144
1.208959
1.2078268
1.2059642
1.2036766
1.2013505
1.1993325
1.1977981
1.1966823
1.1957685
1.1949731
1.1946174
1.1952107
1.1964838
1.196475
1.3027799
1.324411
1.329242
1.3317382
1.3309276
1.3281678
1.3241055
1.3192535
1.3139489
1.3084204
1.3028194
1.2972461
1.2917658
1.2864202
1.2812356
1.2762273
1.2714037
1.2667681
1.262321
1.2580605
1.2539832
1.2500853
1.246362
1.2428088
1.2394208
1.2361932
1.2331215
1.2302014
1.2274286
1.2247993
1.2223101
1.2199577
1.2177391
1.2156518
1.2136932
1.2118609
1.2101523
1.2085648
1.2070956
1.205742
1.2045016
1.2033721
1.2023511
1.2014356
1.2006211
1.1999008
1.1992654
1.1987036
1.1982034
1.1977557
1.1973584
1.1970205
1.1967657
1.1966321
1.1966696
1.1969327
1.1974724
1.1983274
1.1995162
1.2010285
1.2028135
1.204767
1.2067216
1.2084498
1.2096927
1.2102162
1.2098852
1.2087264
1.2069477
1.2048946
1.2029502
1.2014109
1.200383
1.1997557
1.199314
1.1989879
1.1990512
1.199901
1.2012536
1.2014265
1.3582346
1.3616791
1.3604142
1.3557552
1.3496607
1.3427848
1.3356135
1.3283999
1.3212977
1.3143903
1.3077233
1.3013184
1.2951836
1.2893186
1.2837182
1.2783745
1.2732784
1.2684197
1.2637887
1.2593755
1.2551706
1.2511653
1.2473511
1.2437201
1.2402652
1.2369795
1.233857
1.230892
1.2280791
1.2254138
1.2228918
1.2205092
1.2182628
1.2161493
1.2141661
1.2123103
1.2105793
1.2089701
1.2074799
1.2061062
1.2048464
1.2036984
1.2026599
1.2017282
1.200899
1.2001655
1.1995187
1.1989471
1.1984389
1.1979855
1.197585
1.1972474
1.1969972
1.1968736
1.1969269
1.1972121
1.1977809
1.1986731
1.1999091
1.2014791
1.2033311
1.2053551
1.2073739
1.2091493
1.2104162
1.2109462
1.2106247
1.2095116
1.2078494
1.2060029
1.2043467
1.2031434
1.2024584
1.2021616
1.2020478
1.2020511
1.2023932
1.2033799
1.2047425
1.2050654
1.3938289
1.3859171
1.3780352
1.3693986
1.3604214
1.3515382
1.3429225
1.3346526
1.3267589
1.3192454
1.3121039
1.3053197
1.2988754
1.292753
1.2869344
1.2814025
1.2761412
1.2711355
1.2663717
1.261837
1.2575199
1.2534097
1.2494968
1.2457723
1.2422282
1.2388571
1.2356525
1.2326082
1.2297188
1.2269794
1.2243855
1.2219334
1.2196195
1.2174408
1.2153946
1.2134781
1.2116886
1.2100235
1.2084799
1.2070553
1.2057475
1.2045545
1.2034742
1.2025042
1.2016403
1.200876
1.2002016
1.199605
1.1990731
1.1985956
1.1981687
1.1978007
1.1975149
1.1973503
1.1973581
1.1975957
1.1981186
1.1989724
1.2001834
1.2017483
1.2036184
1.2056832
1.2077593
1.2095979
1.2109221
1.2114949
1.2112014
1.2101115
1.208486
1.2067061
1.2051589
1.2040936
1.2035677
1.2034405
1.2035087
1.2037014
1.2042033
1.2052659
1.2066341
1.2070522
1.1902208
1.1942979
1.2089908
1.2208136
1.2265136
1.2278773
1.2279422
1.2275694
1.2275947
1.2272776
1.2269793
1.2263731
1.2257308
1.2250304
1.2242831
1.2234902
1.2226567
1.2217884
1.2208906
1.2199676
1.2190237
1.2180629
1.2170887
1.2161042
1.2151122
1.2141152
1.2131156
1.2121153
1.211116
1.2101192
1.2091263
1.2081384
1.2071564
1.2061811
1.2052131
1.2042527
1.2033001
1.2023557
1.2014192
1.2004907
1.1995701
1.1986573
1.1977525
1.1968558
1.195968
1.1950901
1.1942238
1.1933718
1.1925373
1.191725
1.1909409
1.190192
1.189487
1.1888353
1.1882468
1.187731
1.1872953
1.1869433
1.1866729
1.1864738
1.1863261
1.186199
1.1860502
1.1858262
1.1854686
1.1849142
1.1841223
1.1830497
1.1817355
1.1801634
1.1784794
1.1766089
1.1748156
1.1732192
1.172307
1.1729751
1.1748536
1.1772722
1.1754609
1.1719212
1.1853027
1.1962178
1.2122655
1.2206818
1.2231298
1.2230145
1.2224131
1.222114
1.2217457
1.2213922
1.2209564
1.2205138
1.2200211
1.2194905
1.2189187
1.2183101
1.2176673
1.2169925
1.2162883
1.2155569
1.2148009
1.2140226
1.2132246
1.2124091
1.2115786
1.2107353
1.2098813
1.2090187
1.2081495
1.2072754
1.2063982
1.2055192
1.20464
1.2037617
1.2028853
1.2020118
1.2011419
1.2002761
1.1994151
1.1985591
1.1977087
1.1968642
1.1960262
1.1951955
1.1943731
1.1935607
1.1927605
1.1919755
1.1912098
1.1904685
1.1897579
1.1890859
1.1884614
1.1878939
1.1873936
1.1869694
1.1866282
1.1863724
1.1861984
1.1860941
1.1860377
1.185996
1.1859241
1.1857662
1.1854616
1.1849462
1.184177
1.1831138
1.1817922
1.1802038
1.1784854
1.1765825
1.1747748
1.1732193
1.1724269
1.173328
1.1753803
1.1775958
1.1755703
1.1716876
1.1846642
1.1979632
1.2096116
1.2162412
1.2173719
1.2168958
1.2163684
1.2160642
1.215747
1.215436
1.2150806
1.2147141
1.214316
1.213897
1.213449
1.2129762
1.2124774
1.2119528
1.2114031
1.2108289
1.2102316
1.2096122
1.2089722
1.208313
1.2076362
1.2069434
1.206236
1.2055159
1.2047845
1.2040434
1.2032942
1.2025384
1.2017772
1.2010122
1.2002444
1.1994749
1.1987049
1.1979351
1.1971665
1.1963997
1.1956356
1.194875
1.1941189
1.1933685
1.1926254
1.1918918
1.1911704
1.1904647
1.1897793
1.18912
1.1884938
1.1879088
1.1873743
1.1869002
1.1864964
1.1861715
1.1859316
1.1857779
1.1857053
1.1856999
1.1857381
1.1857844
1.1857913
1.1857007
1.1854501
1.1849741
1.1842276
1.1831727
1.1818429
1.1802357
1.1784829
1.1765482
1.1747407
1.1732303
1.1725891
1.1737235
1.1759239
1.1780607
1.1756677
1.1714601
1.181022
1.1953865
1.2064209
1.211327
1.2113253
1.2109151
1.2104644
1.2102313
1.2099098
1.2096384
1.2093181
1.2090144
1.208684
1.2083478
1.2079912
1.2076195
1.2072297
1.2068218
1.2063954
1.2059501
1.205486
1.2050032
1.2045021
1.2039833
1.2034474
1.2028951
1.2023276
1.2017456
1.2011503
1.2005428
1.1999243
1.199296
1.198659
1.1980145
1.1973637
1.1967077
1.1960475
1.1953842
1.1947188
1.1940523
1.1933856
1.19272
1.1920569
1.1913978
1.1907449
1.1901005
1.1894682
1.1888518
1.1882567
1.1876891
1.1871566
1.1866678
1.1862322
1.1858597
1.1855601
1.1853415
1.1852089
1.1851624
1.1851953
1.1852921
1.1854273
1.185563
1.1856496
1.1856264
1.1854294
1.1849919
1.1842672
1.1832194
1.1818803
1.1802526
1.1784657
1.1765031
1.1747099
1.1732528
1.1727979
1.1741619
1.1764882
1.1786509
1.1757555
1.1712332
1.1746238
1.1908992
1.2011911
1.2048573
1.204493
1.2043536
1.2040058
1.2039075
1.2036721
1.2035187
1.203297
1.2031048
1.20288
1.202656
1.2024123
1.2021571
1.2018855
1.2015983
1.2012947
1.2009742
1.2006366
1.200282
1.1999105
1.1995222
1.1991176
1.198697
1.198261
1.1978103
1.1973455
1.1968674
1.1963768
1.1958746
1.1953617
1.194839
1.1943077
1.1937685
1.1932227
1.1926711
1.1921148
1.191555
1.1909928
1.1904296
1.1898671
1.1893073
1.1887524
1.1882056
1.1876706
1.187152
1.1866555
1.186188
1.1857576
1.1853731
1.1850443
1.184781
1.1845925
1.1844864
1.1844666
1.184532
1.184674
1.1848759
1.18511
1.1853362
1.1855028
1.1855471
1.185403
1.1850031
1.184299
1.1832565
1.1819064
1.1802568
1.1784362
1.1764519
1.1746849
1.1732941
1.1730566
1.1746405
1.1770762
1.1791934
1.1758289
1.1710112
1.1680351
1.1864594
1.1955185
1.1984405
1.1979167
1.1980072
1.1977202
1.1977533
1.1975918
1.1975481
1.1974136
1.1973241
1.1971946
1.1970714
1.1969285
1.1967771
1.1966099
1.1964289
1.1962332
1.1960227
1.195797
1.1955562
1.1953002
1.195029
1.1947429
1.194442
1.1941265
1.1937969
1.1934534
1.1930966
1.192727
1.1923452
1.1919519
1.1915478
1.1911336
1.1907103
1.1902786
1.1898395
1.1893942
1.1889436
1.1884892
1.1880324
1.1875751
1.1871195
1.1866683
1.186225
1.1857937
1.1853795
1.1849886
1.1846283
1.1843071
1.1840343
1.1838193
1.1836718
1.1836007
1.1836127
1.1837105
1.1838916
1.184146
1.184455
1.1847893
1.1851063
1.1853525
1.1854637
1.1853713
1.1850074
1.1843221
1.1832831
1.18192
1.1802473
1.1783946
1.1763974
1.1746662
1.1733619
1.1733659
1.1751566
1.1776943
1.1796502
1.1758595
1.1707967
1.1620599
1.1822419
1.1899431
1.1924052
1.1917751
1.1920526
1.1917875
1.1919271
1.1918133
1.1918562
1.1917902
1.1917903
1.1917426
1.1916992
1.1916344
1.1915661
1.1914849
1.191393
1.1912891
1.1911728
1.1910438
1.1909019
1.1907469
1.1905786
1.1903972
1.1902025
1.1899948
1.189774
1.1895405
1.1892945
1.1890363
1.1887662
1.1884848
1.1881925
1.18789
1.1875779
1.1872569
1.186928
1.1865921
1.1862503
1.185904
1.1855548
1.1852047
1.1848561
1.1845121
1.1841764
1.1838535
1.1835489
1.1832691
1.1830221
1.1828165
1.1826615
1.1825666
1.1825409
1.1825926
1.1827275
1.1829471
1.1832472
1.1836162
1.1840339
1.184469
1.1848766
1.1852014
1.185378
1.1853358
1.1850058
1.1843372
1.1832992
1.1819211
1.1802244
1.1783425
1.1763433
1.1746555
1.1734667
1.1737262
1.1757072
1.1783282
1.1800099
1.175818
1.1705905
1.1564164
1.1785506
1.1846402
1.1868621