/*--------------------------------*- C++ -*----------------------------------*\
  =========                 |
  \\      /  F ield         | OpenFOAM: The Open Source CFD Toolbox
   \\    /   O peration     | Website:  https://openfoam.org
    \\  /    A nd           | Version:  12
     \\/     M anipulation  |
\*---------------------------------------------------------------------------*/
FoamFile
{
    format      ascii;
    class       volScalarField;
    location    "0.016";
    object      T;
}
// * * * * * * * * * * * * * * * * * * * * * * * * * * * * * * * * * * * * * //

dimensions      [0 0 0 1 0 0 0];

internalField   nonuniform List<scalar> 
16000
(
295.97839
286.72872
290.35808
288.38007
289.6319
289.0404
289.52273
289.383
289.60481
289.63164
289.76491
289.85273
289.96635
290.07624
290.19362
290.31491
290.44136
290.57268
290.70916
290.85075
290.99764
291.14982
291.3074
291.47037
291.63878
291.81256
291.9917
292.17608
292.36561
292.56014
292.7595
292.9635
293.17196
293.38466
293.60137
293.82187
294.04593
294.27333
294.50383
294.73722
294.97328
295.2118
295.4526
295.69551
295.94036
296.18701
296.43532
296.68514
296.93631
297.18864
297.4419
297.69578
297.94982
298.20333
298.45527
298.70411
298.94763
299.18274
299.40532
299.61015
299.79104
299.94097
300.05226
300.11588
300.12308
300.05927
299.90472
299.63107
299.20312
298.59742
297.80434
296.87535
295.93663
295.19864
294.88748
295.00395
296.03414
297.52824
298.54249
298.8238
295.55042
286.19405
289.99581
287.8905
289.2146
288.58447
289.10455
288.9547
289.19238
289.22506
289.3656
289.46335
289.58455
289.70419
289.83076
289.96199
290.09866
290.2406
290.38809
290.54106
290.69969
290.86395
291.03396
291.20964
291.39105
291.57809
291.77071
291.96876
292.17212
292.38056
292.59391
292.81189
293.03426
293.26074
293.49105
293.72489
293.96197
294.20201
294.4447
294.68979
294.93701
295.1861
295.43683
295.689
295.9424
296.19684
296.45215
296.70815
296.96463
297.22137
297.47813
297.73457
297.99026
298.24455
298.49648
298.74464
298.98696
299.22051
299.44133
299.64429
299.82313
299.97058
300.07828
300.13633
300.13268
300.05031
299.86612
299.54922
299.07016
298.40415
297.56179
296.61017
295.69382
295.01762
294.78157
295.03889
296.20482
297.68869
298.60973
298.80615
295.13966
285.7005
289.60976
287.45814
288.82413
288.18522
288.7194
288.57923
288.82069
288.86724
289.01293
289.12263
289.25238
289.38274
289.51976
289.66204
289.81011
289.96385
290.12352
290.28901
290.46051
290.63792
290.82135
291.01069
291.20596
291.40701
291.61375
291.82599
292.04355
292.26615
292.49355
292.72542
292.96144
293.20125
293.44451
293.69086
293.93994
294.1914
294.44491
294.70015
294.95682
295.21464
295.47338
295.73279
295.99268
296.25286
296.51315
296.77335
297.03327
297.29268
297.55131
297.80884
298.0648
298.31857
298.56918
298.81524
299.05467
299.28456
299.50092
299.69857
299.87106
300.01065
300.10811
300.15349
300.12996
300.01902
299.79506
299.42678
298.88691
298.16035
297.27287
296.31254
295.44292
294.86431
294.71511
295.1405
296.40414
297.86386
298.67229
298.79961
294.76335
285.2516
289.28141
287.07457
288.47917
287.83194
288.38146
288.25311
288.49821
288.56045
288.71255
288.83545
288.97528
289.11764
289.26652
289.42116
289.58193
289.74871
289.92173
290.10086
290.28624
290.47777
290.67549
290.87926
291.08904
291.30464
291.52592
291.75261
291.98448
292.22117
292.46236
292.70765
292.95664
293.20889
293.464
293.72152
293.98104
294.24217
294.50453
294.76778
295.03161
295.29574
295.55995
295.82402
296.08779
296.35111
296.61382
296.87577
297.13679
297.39669
297.65519
297.91198
298.16657
298.41831
298.66617
298.90866
299.14361
299.36794
299.57749
299.76681
299.92901
300.05563
300.1361
300.15952
300.10872
299.96083
299.68947
299.26485
298.66312
297.88254
296.9651
296.01621
295.21313
294.76161
294.68906
295.28489
296.60198
298.02538
298.72371
298.79889
294.42214
284.85264
288.98301
286.7583
288.18768
287.5353
288.09509
287.98423
288.23168
288.31262
288.47203
288.6096
288.76105
288.91664
289.07874
289.24697
289.42164
289.6026
289.79008
289.98391
290.18421
290.39081
290.60372
290.82273
291.04774
291.27849
291.51475
291.75617
292.00242
292.25306
292.50768
292.76577
293.02685
293.29042
293.55596
293.82299
294.09104
294.35967
294.6285
294.89717
295.16541
295.43295
295.69963
295.9653
296.22985
296.49321
296.75531
297.01607
297.27538
297.53311
297.78901
298.04278
298.29393
298.54173
298.78507
299.02228
299.25097
299.46779
299.66824
299.84642
299.99467
300.10359
300.16212
300.15843
300.06915
299.87535
299.54877
299.06285
298.40045
297.57326
296.64118
295.72609
295.00586
294.67207
294.6883
295.45673
296.80081
298.17185
298.76603
298.79981
294.12031
284.51128
288.73237
286.48871
287.94379
287.30462
287.86882
287.77836
288.02849
288.13024
288.29791
288.45096
288.61536
288.78514
288.96159
289.14455
289.33428
289.53064
289.73379
289.94354
290.15993
290.38276
290.61192
290.84713
291.08819
291.33473
291.58641
291.84277
292.10336
292.36764
292.63507
292.90506
293.17703
293.45037
293.72452
293.99893
294.2731
294.54657
294.81898
295.08999
295.35937
295.62696
295.89265
296.15639
296.41821
296.67813
296.9362
297.19246
297.44689
297.69942
297.94989
298.19798
298.44321
298.68475
298.92137
299.15116
299.37142
299.57839
299.76707
299.93085
300.06116
300.14756
300.17764
300.13796
300.00609
299.75936
299.37228
298.82315
298.10432
297.24216
296.31334
295.45154
294.82699
294.59636
294.72567
295.64366
296.99717
298.30037
298.81506
298.80215
293.86259
284.23027
288.52521
286.28408
287.75205
287.14254
287.70431
287.64154
287.8913
288.01468
288.19201
288.36124
288.5401
288.7254
288.91777
289.11709
289.3236
289.53708
289.75762
289.98497
290.21907
290.4596
290.70634
290.9589
291.21692
291.47991
291.74739
292.01876
292.29343
292.57074
292.85002
293.13058
293.41173
293.6928
293.97318
294.25227
294.52957
294.80466
295.07718
295.34691
295.6137
295.87748
296.13828
296.39622
296.65144
296.90414
297.1545
297.40268
297.6488
297.89286
298.13476
298.37423
298.61071
298.84332
299.07061
299.29041
299.49959
299.69386
299.86745
300.01275
300.12031
300.17975
300.18046
300.09614
299.91418
299.60947
299.15937
298.54871
297.78167
296.89983
295.99393
295.20336
294.69371
294.55473
294.83256
295.83778
297.18943
298.4215
298.88809
298.80809
293.64629
284.00589
288.36104
286.12576
287.60515
287.02757
287.5821
287.54415
287.81495
287.96381
288.15333
288.34061
288.53661
288.73987
288.95068
289.16886
289.39458
289.62753
289.86771
290.11475
290.36845
290.62836
290.89411
291.16515
291.44096
291.72088
292.00426
292.29034
292.57839
292.86759
293.15717
293.44631
293.73427
294.02032
294.30382
294.58418
294.86094
295.13374
295.40233
295.6666
295.92654
296.18225
296.43395
296.6819
296.92645
297.16796
297.40677
297.6432
297.87746
298.10966
298.33975
298.56744
298.79215
299.01282
299.22779
299.43456
299.62949
299.80754
299.96188
300.08386
300.1636
300.19285
300.1529
300.02321
299.78619
299.42064
298.90823
298.24215
297.43957
296.55627
295.69413
294.99185
294.61292
294.54856
295.00707
296.03503
297.37554
298.54587
298.97833
298.82636
293.46419
283.83412
288.24038
286.01414
287.52
287.00102
287.54711
287.54239
287.80807
287.98009
288.18601
288.39415
288.61066
288.83498
289.06727
289.30724
289.55495
289.81001
290.07224
290.34116
290.61638
290.89728
291.18331
291.47371
291.76777
292.06464
292.36346
292.66332
292.9633
293.26247
293.55992
293.85479
294.14627
294.43363
294.71625
294.99363
295.26539
295.5313
295.79128
296.04538
296.29381
296.53688
296.77499
297.00865
297.23838
297.46473
297.68821
297.90925
298.12819
298.34519
298.56023
298.77298
298.98274
299.18829
299.38767
299.57794
299.75486
299.91242
300.04267
300.13682
300.18574
300.18587
300.0923
299.91004
299.61438
299.18737
298.6168
297.90547
297.0831
296.21805
295.41919
294.82144
294.56056
294.58475
295.19527
296.23474
297.55289
298.67607
299.08469
298.86609
293.31506
283.71758
288.17165
285.96515
287.49785
286.98141
287.55208
287.61046
287.87134
288.07274
288.2992
288.53107
288.77147
289.02008
289.277
289.54178
289.81435
290.09415
290.38083
290.67369
290.97215
291.27535
291.5825
291.89261
292.20473
292.51778
292.8307
293.1424
293.45182
293.75789
294.05966
294.35623
294.6468
294.93071
295.20744
295.47664
295.73812
295.99185
296.23798
296.47682
296.7088
296.93448
297.15452
297.36963
297.58054
297.78797
297.99255
298.19484
298.39522
298.5939
298.7908
298.98552
299.17721
299.36435
299.54462
299.71457
299.86921
300.00138
300.10301
300.1665
300.19192
300.12536
299.98677
299.74746
299.39122
298.90465
298.28308
297.53936
296.71497
295.88862
295.17156
294.68609
294.5203
294.68698
295.38127
296.43451
297.71786
298.81362
299.22779
298.93026
293.20278
283.66513
288.1593
286.03344
287.54466
287.11155
287.64174
287.74221
288.0185
288.25072
288.5022
288.76117
289.02905
289.30544
289.59032
289.8831
290.18344
290.49062
290.80398
291.12261
291.4456
291.77184
292.10022
292.42949
292.75841
293.0857
293.41008
293.7303
294.04519
294.35365
294.65471
294.94752
295.23142
295.50591
295.77067
296.02561
296.27081
296.50653
296.73323
296.9515
297.16207
297.36575
297.56346
297.75609
297.94456
298.12971
298.31228
298.49287
298.67186
298.84943
299.02542
299.19926
299.36984
299.5353
299.69283
299.83835
299.966
300.06799
300.13785
300.17364
300.12888
300.02319
299.82736
299.52767
299.11069
298.56883
297.90563
297.14395
296.33586
295.56671
294.94571
294.58377
294.51224
294.83383
295.56123
296.62104
297.86389
298.95367
299.40538
299.0135
293.13441
283.68864
288.21371
286.17755
287.64828
287.28652
287.81246
287.96536
288.25801
288.52363
288.80495
289.09494
289.3943
289.70235
290.01885
290.34295
290.67404
291.01106
291.35302
291.69866
292.04671
292.3957
292.7442
293.09066
293.43358
293.77144
294.10284
294.42641
294.74097
295.04548
295.33908
295.62113
295.89121
296.14913
296.39491
296.62882
296.85129
297.06297
297.26464
297.45723
297.64175
297.81928
297.99091
298.15774
298.32077
298.48093
298.63897
298.79548
298.95079
299.10495
299.25764
299.40804
299.55468
299.69522
299.82631
299.94319
300.03902
300.10691
300.14435
300.11357
300.02941
299.86474
299.60778
299.24566
298.76972
298.17893
297.48523
296.72087
295.94599
295.25015
294.73589
294.48775
294.52275
294.94991
295.7187
296.77366
297.97361
299.06747
299.57733
299.09931
293.1137
283.79489
288.34402
286.38812
287.83363
287.55613
288.07562
288.2824
288.59965
288.9022
289.21869
289.54451
289.87995
290.22398
290.57599
290.93481
291.29936
291.66817
292.03981
292.41258
292.78478
293.15459
293.5202
293.87979
294.23164
294.5741
294.9057
295.22515
295.53138
295.82358
296.10121
296.364
296.61195
296.8453
297.06456
297.27043
297.46378
297.64566
297.8172
297.97962
298.1342
298.28221
298.42489
298.56341
298.69883
298.83206
298.9638
299.09454
299.22446
299.35343
299.48086
299.6056
299.72568
299.83814
299.93904
300.02328
300.08284
300.11464
300.09051
300.01747
299.87314
299.64642
299.3252
298.90075
298.36999
297.73883
297.02738
296.27553
295.54892
294.93841
294.53147
294.388
294.53546
295.02483
295.82673
296.86363
298.01498
299.09968
299.6612
299.15512
293.14141
283.99131
288.55449
286.69226
288.1076
287.92134
288.44117
288.70548
289.05562
289.40005
289.75778
290.125
290.50165
290.8862
291.27752
291.67392
292.07375
292.47503
292.87578
293.27381
293.66698
294.05308
294.43001
294.79575
295.14848
295.48661
295.80881
296.11407
296.40171
296.67139
296.92308
297.15709
297.37399
297.5746
297.75996
297.93126
298.08981
298.237
298.3743
298.50316
298.62501
298.74124
298.85314
298.96188
299.06846
299.17369
299.27813
299.38209
299.48555
299.58807
299.68872
299.7859
299.87706
299.95841
300.02528
300.07257
300.09371
300.06937
299.99931
299.86637
299.65956
299.3675
298.98157
298.49771
297.91898
297.25834
296.54304
295.81859
295.15327
294.63426
294.3304
294.28127
294.51683
295.04989
295.85877
296.85915
297.95273
298.99327
299.57496
299.16434
293.22294
284.2916
288.84736
287.09651
288.47832
288.39506
288.92358
289.24963
289.64224
290.03506
290.44076
290.85546
291.27845
291.70761
292.14106
292.57647
293.01151
293.44357
293.87007
294.28833
294.69579
295.08996
295.46861
295.82974
296.17173
296.4933
296.79365
297.07234
297.32937
297.56512
297.78031
297.97595
298.15328
298.31373
298.45885
298.59029
298.70972
298.81882
298.91922
299.01252
299.10021
299.18367
299.26415
299.34269
299.42016
299.49716
299.57406
299.6509
299.72736
299.80264
299.87537
299.94338
300.00346
300.05102
300.08047
300.08829
300.05778
299.98486
299.8564
299.66148
299.38948
299.03208
298.58447
298.04757
297.43053
296.75317
296.04853
295.36586
294.77072
294.3436
294.13064
294.16513
294.45882
295.01424
295.80005
296.7366
297.75796
298.75155
299.34141
299.02021
293.36212
284.71508
289.21624
287.61439
288.96326
288.99324
289.54203
289.93584
290.38141
290.83025
291.29081
291.75863
292.23211
292.70833
293.18455
293.65762
294.12443
294.5817
295.02627
295.45506
295.86529
296.25449
296.62065
296.96223
297.27822
297.56816
297.83209
298.07053
298.2844
298.47499
298.64385
298.79272
298.92348
299.0381
299.13855
299.22677
299.30467
299.37405
299.43662
299.49396
299.54749
299.59849
299.64801
299.69694
299.74587
299.79518
299.84493
299.89485
299.94424
299.99187
300.03581
300.07325
300.10027
300.11165
300.10181
300.06109
299.98143
299.8523
299.66328
299.40454
299.06807
298.64903
298.14701
297.56778
296.92527
296.24508
295.56513
294.936
294.41759
294.07713
293.94374
294.04074
294.36559
294.91633
295.65053
296.49592
297.41627
298.31645
298.89262
298.66371
293.564
285.29484
289.67485
288.26551
289.58428
289.74037
290.3233
290.79213
291.30095
291.81331
292.33454
292.85941
293.38511
293.90771
294.4234
294.92809
295.41786
295.88885
296.33756
296.76093
297.15645
297.52226
297.85719
298.16074
298.43307
298.67491
298.88754
299.07258
299.23203
299.36804
299.48295
299.57911
299.65887
299.72454
299.77832
299.82229
299.85838
299.88837
299.91389
299.93637
299.95706
299.97701
299.99703
300.01772
300.0394
300.06211
300.08559
300.10919
300.13177
300.15159
300.16609
300.17177
300.16396
300.13671
300.08278
299.9938
299.8604
299.67301
299.42254
299.10138
298.70462
298.23131
297.68573
297.0785
296.42724
295.76003
295.11787
294.55065
294.11183
293.84795
293.78313
293.91604
294.2462
294.76443
295.42281
296.16095
296.96668
297.75593
298.30838
298.32291
293.8423
286.07765
290.26536
289.08177
290.37298
290.66826
291.30067
291.85165
292.43275
293.01476
293.60016
294.18267
294.75786
295.32052
295.86566
296.38835
296.88416
297.34921
297.7804
298.17548
298.5331
298.85279
299.13495
299.38067
299.59167
299.77016
299.91866
300.03992
300.13682
300.21224
300.26901
300.30984
300.33731
300.35381
300.36156
300.36254
300.35857
300.35125
300.34198
300.33196
300.32215
300.31333
300.306
300.30041
300.29657
300.29418
300.29259
300.29073
300.28697
300.27898
300.26354
300.23637
300.19205
300.12393
300.0243
299.88464
299.69617
299.45052
299.14068
298.76187
298.3126
297.79577
297.21986
296.59945
295.95597
295.31948
294.72888
294.22744
293.8625
293.66775
293.65009
293.79968
294.11105
294.57388
295.14241
295.77529
296.47022
297.16367
297.72634
298.01201
294.2255
287.02882
291.01537
290.1004
291.36755
291.81273
292.51184
293.15215
293.8124
294.46712
295.11536
295.74937
296.36286
296.94941
297.50329
298.01954
298.49428
298.92476
299.30951
299.6482
299.94158
300.19134
300.39987
300.57012
300.70542
300.80928
300.88527
300.93694
300.9677
300.98077
300.97915
300.96561
300.94263
300.91247
300.87713
300.83837
300.79771
300.75648
300.71577
300.67646
300.63921
300.60442
300.57228
300.54271
300.51534
300.48953
300.46422
300.43788
300.40834
300.37265
300.32686
300.26598
300.1839
300.07349
299.92692
299.73606
299.49322
299.19194
298.8278
298.39928
297.90848
297.36187
296.77128
296.15448
295.53465
294.94138
294.40974
293.9768
293.67836
293.53814
293.54924
293.69279
293.96607
294.36562
294.84583
295.39272
296.00061
296.63617
297.24582
297.77621
294.75385
288.11549
291.96621
291.36113
292.61542
293.21848
294.00241
294.73797
295.47879
296.20111
296.89998
297.56624
298.19247
298.77219
299.3005
299.77411
300.19141
300.55238
300.85841
301.11203
301.31663
301.47623
301.59521
301.6781
301.7294
301.75347
301.75442
301.7361
301.70198
301.65523
301.59867
301.5348
301.46582
301.39362
301.31986
301.24594
301.17304
301.10212
301.03393
300.96899
300.90763
300.8499
300.79565
300.74445
300.69561
300.6481
300.60044
300.55063
300.49591
300.43267
300.3563
300.26115
300.14063
299.98744
299.79404
299.55327
299.25911
298.90745
298.49685
298.02907
297.50959
296.948
296.35855
295.76053
295.17793
294.63806
294.17004
293.80119
293.55723
293.45407
293.47541
293.59321
293.81829
294.16392
294.57431
295.06384
295.61953
296.23664
296.90892
297.63186
295.48595
289.50342
293.17162
292.91892
294.1818
294.94693
295.82721
296.65497
297.46333
298.23027
298.9479
299.60731
300.20232
300.72894
301.18558
301.57277
301.89289
302.14977
302.34826
302.49386
302.59238
302.64968
302.67146
302.6631
302.62958
302.57543
302.5047
302.421
302.32748
302.22689
302.12161
302.01368
301.90482
301.79651
301.68996
301.58617
301.48593
301.38983
301.29828
301.21144
301.1293
301.05161
300.97786
300.90733
300.83899
300.77142
300.70273
300.6304
300.5511
300.4606
300.35367
300.22419
300.06535
299.87006
299.63156
299.34417
299.00397
298.60953
298.16239
297.66736
297.13273
296.57048
295.99648
295.43037
294.89471
294.41286
294.00616
293.69264
293.48865
293.40459
293.4163
293.50427
293.68913
293.99322
294.36374
294.82479
295.36285
295.99229
296.72885
297.56334
296.47878
291.26323
294.72407
294.85543
296.14829
297.06749
298.03375
298.92677
299.76276
300.52391
301.20337
301.79615
302.30091
302.71919
303.05495
303.31397
303.5032
303.63024
303.70286
303.72867
303.7149
303.66817
303.59451
303.49924
303.38706
303.26203
303.12764
302.98689
302.8423
302.69602
302.54982
302.4052
302.26337
302.12533
301.99186
301.86356
301.74086
301.62399
301.51301
301.4078
301.30801
301.21309
301.12227
301.03451
300.94847
300.86237
300.77388
300.67997
300.57678
300.4595
300.32244
300.15924
299.96319
299.72784
299.44766
299.11882
298.73979
298.31181
297.83916
297.32921
296.79238
296.24215
295.69489
295.16927
294.6849
294.26007
293.90914
293.64103
293.46094
293.378
293.37032
293.42681
293.59878
293.87324
294.23632
294.69089
295.23336
295.88911
296.67724
297.55492
297.70069
293.52275
296.73163
297.25721
298.58072
299.62226
300.62441
301.51715
302.30664
302.98388
303.54882
304.00462
304.35784
304.61719
304.79275
304.89509
304.93467
304.92144
304.86454
304.77218
304.65156
304.50895
304.34969
304.17832
303.99864
303.81386
303.6266
303.43907
303.25305
303.07001
302.89112
302.71732
302.54935
302.38776
302.23295
302.08515
301.94446
301.81081
301.68397
301.56351
301.44884
301.33915
301.2334
301.1303
301.0282
300.92497
300.81786
300.70336
300.57711
300.43388
300.2677
300.07223
299.84121
299.56921
299.25227
298.88863
298.47914
298.02752
297.54035
297.02692
296.49908
295.97092
295.45827
294.97752
294.54399
294.16994
293.86302
293.62591
293.45874
293.36909
293.34997
293.37651
293.56104
293.82533
294.19984
294.66137
295.21508
295.89424
296.71029
297.57824
299.36439
296.39646
299.28825
300.17401
301.46423
302.57108
303.51286
304.30081
304.94392
305.44653
305.81976
306.07685
306.23258
306.30185
306.2989
306.23681
306.12722
305.98021
305.80441
305.60707
305.39419
305.17076
304.94084
304.70775
304.47416
304.24224
304.01372
303.78998
303.57209
303.36091
303.15706
302.96102
302.7731
302.59349
302.42225
302.25932
302.10453
301.95754
301.81787
301.68487
301.55771
301.43538
301.31661
301.19988
301.08324
300.96423
300.83971
300.70576
300.5576
300.38972
300.19611
299.97071
299.70806
299.40397
299.05625
298.66522
298.23392
297.76815
297.27626
296.76889
296.25857
295.75921
295.28511
294.84939
294.46233
294.12997
293.85407
293.63384
293.46957
293.3688
293.33925
293.39595
293.56866
293.85558
294.24352
294.71564
295.27987
295.97141
296.78857
297.61428
301.48369
299.95203
302.37652
303.57192
304.82943
305.75104
306.50511
307.06941
307.46741
307.71879
307.84604
307.87057
307.81213
307.68811
307.51336
307.3003
307.05912
306.7981
306.52388
306.24178
305.95598
305.66979
305.38583
305.10611
304.83221
304.56534
304.30641
304.0561
303.81491
303.58316
303.36106
303.14869
302.94605
302.75304
302.56946
302.39503
302.22934
302.07186
301.9219
301.77864
301.64105
301.50795
301.37789
301.24912
301.11944
300.98607
300.84553
300.69355
300.52507
300.33446
300.11586
299.86376
299.57366
299.24281
298.87078
298.45976
298.01467
297.54292
297.05414
296.55972
296.0723
295.60485
295.16932
294.77492
294.42682
294.12598
293.87069
293.65972
293.49617
293.39322
293.36707
293.44283
293.63544
293.94309
294.34622
294.82689
295.39587
296.08595
296.88249
297.65124
304.09972
304.15291
306.27132
307.30589
308.25389
308.90515
309.34002
309.58167
309.66841
309.63162
309.49965
309.29593
309.03956
308.74573
308.42636
308.09068
307.74581
307.39719
307.04893
306.70416
306.36523
306.03387
305.71138
305.39869
305.09644
304.8051
304.52493
304.25609
303.9986
303.75244
303.51746
303.2935
303.0803
302.87755
302.68488
302.50181
302.32777
302.16209
302.00392
301.85228
301.70604
301.56385
301.42412
301.28489
301.14373
300.99761
300.84273
300.67457
300.48792
300.27716
300.03676
299.7619
299.44916
299.09719
298.70714
298.28282
297.8306
297.35908
296.87867
296.4011
295.93858
295.50258
295.10222
294.74269
294.42464
294.1453
293.90166
293.69473
293.53334
293.43529
293.42432
293.52258
293.74023
294.0682
294.48301
294.96782
295.53444
296.21034
296.97142
297.68191
307.35579
308.83908
310.23573
310.98085
311.48822
311.71401
311.74404
311.62249
311.39213
311.08492
310.72557
310.33247
309.91921
309.49575
309.06932
308.64513
308.22692
307.81734
307.41826
307.03094
306.65623
306.29465
305.94651
305.61193
305.29091
304.98336
304.68909
304.4079
304.13951
303.88361
303.63986
303.40788
303.18727
302.97757
302.77827
302.58877
302.40839
302.23634
302.07166
301.91328
301.75996
301.61025
301.46242
301.31436
301.16344
301.00642
300.83928
300.65733
300.45529
300.2277
299.96944
299.67641
299.34622
298.97873
298.5764
298.14428
297.68978
297.22228
296.75267
296.2926
295.85355
295.44522
295.07387
294.74108
294.44404
294.17798
293.94046
293.73599
293.57883
293.49171
293.49998
293.62263
293.86335
294.20723
294.62909
295.11356
295.67161
296.32432
297.04323
297.7031
311.54565
313.41264
313.98301
314.18343
314.1301
313.88838
313.52341
313.07975
312.58908
312.07317
311.54682
311.02002
310.49945
309.98951
309.49304
309.01185
308.54698
308.09899
307.6681
307.25429
306.85738
306.4771
306.1131
305.76497
305.43231
305.11466
304.81158
304.52261
304.24728
303.98512
303.73565
303.49837
303.27277
303.05829
302.85433
302.66022
302.4752
302.29838
302.12877
301.9652
301.80636
301.65073
301.4965
301.34143
301.18279
301.01715
300.84041
300.64778
300.43403
300.19388
299.92262
299.61675
299.27468
298.8972
298.48766
298.05192
297.59806
297.13591
296.67654
296.23145
295.81128
295.42414
295.07391
294.75944
294.47569
294.21711
293.98267
293.78041
293.62889
293.55384
293.58038
293.7236
293.98173
294.33602
294.76092
295.24209
295.78825
296.41467
297.09292
297.71481
316.74457
317.13425
316.85427
316.47069
315.92547
315.30609
314.64981
313.98347
313.32196
312.67438
312.0458
311.43899
310.85526
310.29503
309.7582
309.24432
308.75278
308.28287
307.83381
307.40483
306.99517
306.60407
306.23081
305.87472
305.53512
305.21139
304.90291
304.6091
304.32937
304.06318
303.80995
303.56911
303.3401
303.1223
302.91507
302.71768
302.52933
302.34909
302.17591
302.00862
301.84585
301.68605
301.52736
301.36751
301.20369
301.03246
300.84965
300.65047
300.42975
300.18234
299.90375
299.59086
299.2425
298.85993
298.447
298.01
297.55739
297.0993
296.64698
296.21186
295.80409
295.43073
295.09409
294.79124
294.51566
294.26137
294.02838
293.82705
293.67874
293.61089
293.64816
293.80307
294.07048
294.42963
294.85509
295.33268
295.86834
296.47282
297.12006
297.71886
318.8377
319.01224
318.41338
317.61733
316.80324
315.9877
315.19198
314.4241
313.68774
312.98401
312.31267
311.6728
311.06314
310.48229
309.92883
309.40137
308.89857
308.41918
307.96203
307.52604
307.1102
306.71358
306.33533
305.97462
305.63073
305.30294
304.99059
304.69305
304.4097
304.13997
303.88326
303.63899
303.4066
303.18545
302.97491
302.77426
302.5827
302.3993
302.22305
302.05277
301.88712
301.72455
301.56322
301.40089
301.23476
301.06137
300.87653
300.6754
300.45269
300.20319
299.92231
299.60688
299.25577
298.87037
298.45475
298.01551
297.56151
297.10337
296.65281
296.2216
295.81997
295.45456
295.12673
294.83218
294.56289
294.31173
294.07834
293.8739
293.72175
293.65173
293.68239
293.83909
294.1065
294.46561
294.89078
295.36728
295.89874
296.49314
297.12634
297.71775
313.91553
312.76041
309.10304
306.25613
304.93567
304.61791
304.54098
304.53722
304.41804
304.35408
304.24109
304.1636
304.06823
303.9744
303.88051
303.78622
303.69151
303.59643
303.50093
303.40505
303.30877
303.21216
303.11522
303.01803
302.9206
302.82301
302.72529
302.62751
302.52972
302.43198
302.33434
302.23687
302.13962
302.04267
301.94607
301.8499
301.75423
301.65912
301.56464
301.47086
301.37782
301.28558
301.19419
301.1037
301.01418
300.92572
300.83845
300.7526
300.66845
300.58644
300.50713
300.43124
300.35964
300.29329
300.2332
300.1803
300.13529
300.0985
300.06966
300.04771
300.03057
300.01501
299.99678
299.97067
299.93078
299.87061
299.78545
299.67159
299.53275
299.37468
299.22145
299.089
299.0025
298.8959
298.6942
298.2018
297.31662
296.64377
296.48209
297.8049
313.13586
310.25086
306.17133
304.09521
303.47157
303.46668
303.57114
303.58062
303.57051
303.53906
303.50838
303.46362
303.41404
303.35911
303.30049
303.23861
303.17359
303.10576
303.03538
302.96276
302.88809
302.81158
302.73339
302.65368
302.5726
302.49028
302.40686
302.32247
302.23723
302.15127
302.0647
301.97765
301.89024
301.80258
301.71479
301.627
301.53931
301.45185
301.36471
301.27802
301.19186
301.10633
301.02153
300.93755
300.85451
300.77256
300.69188
300.61275
300.53552
300.46067
300.38882
300.32074
300.25734
300.1996
300.14851
300.10495
300.06957
300.04257
300.02357
300.01129
300.00342
299.99651
299.98604
299.96657
299.93188
299.87528
299.79195
299.67867
299.5395
299.38221
299.23114
299.10372
299.01611
298.89829
298.66701
298.11219
297.18982
296.56063
296.46237
297.86307
311.73645
308.2199
305.15733
303.39652
303.01846
303.047
303.07481
303.04849
303.0149
302.97733
302.93926
302.89862
302.85562
302.81034
302.76311
302.71363
302.66206
302.60855
302.55311
302.49581
302.43667
302.37574
302.31306
302.24867
302.18264
302.11503
302.04593
301.97542
301.9036
301.83058
301.75648
301.68141
301.6055
301.52889
301.4517
301.37409
301.29618
301.21812
301.14006
301.06212
300.98446
300.90719
300.83047
300.75444
300.67926
300.60514
300.53231
300.46111
300.39196
300.32539
300.26207
300.20282
300.14859
300.10036
300.0591
300.02564
300.00054
299.98391
299.97521
299.97295
299.97459
299.97648
299.97386
299.961
299.93146
299.87833
299.79681
299.68414
299.54502
299.38904
299.24088
299.11843
299.0267
298.89686
298.62809
298.01186
297.05716
296.43963
296.44464
297.92162
310.5539
306.75018
303.85952
302.53549
302.4404
302.45756
302.4712
302.43829
302.41497
302.38351
302.35425
302.32108
302.28692
302.25115
302.21428
302.17597
302.1363
302.09526
302.05277
302.00881
301.96332
301.91625
301.86757
301.81726
301.76529
301.71168
301.65644
301.59961
301.54124
301.48141
301.4202
301.35771
301.29405
301.22934
301.16371
301.0973
301.03026
300.96275
300.89491
300.82691
300.75892
300.6911
300.62363
300.55668
300.49049
300.42528
300.36138
300.29917
300.23912
300.18184
300.12803
300.07855
300.03439
299.99652
299.96589
299.94325
299.92906
299.92335
299.92539
299.9335
299.9449
299.95575
299.96106
299.95473
299.93038
299.88064
299.80092
299.68893
299.55023
299.39607
299.2515
299.1335
299.03482
298.89129
298.5762
297.90075
296.91805
296.29798
296.42733
297.98062
309.74666
305.46283
302.79765
301.8215
301.85007
301.83522
301.8543
301.82314
301.81033
301.78521
301.76461
301.7398
301.7148
301.68871
301.662
301.6342
301.60544
301.57566
301.54481
301.5128
301.47955
301.44498
301.40899
301.37152
301.33251
301.29191
301.2497
301.20588
301.16045
301.11346
301.06494
301.01497
300.96364
300.91104
300.85729
300.80251
300.74686
300.69047
300.63352
300.57617
300.5186
300.461
300.40358
300.34656
300.29018
300.23476
300.18065
300.12829
300.07824
300.0311
299.98766
299.9488
299.91551
299.88877
299.86947
299.85828
299.85558
299.86125
299.87441
299.89316
299.91447
299.93438
299.94765
299.9479
299.92847
299.88203
299.80407
299.6929
299.55504
299.40326
299.2629
299.1482
299.04037
298.88015
298.51074
297.77949
296.77243
296.16845
296.41313
298.03955
309.02696
304.20658
301.88497
301.13185
301.23256
301.19533
301.23024
301.20205
301.20246
301.18556
301.17557
301.16035
301.14527
301.12914
301.11251
301.09497
301.07662
301.05741
301.03731
301.01624
300.99412
300.97087
300.94638
300.92058
300.89338
300.8647
300.83451
300.80277
300.76946
300.73458
300.69815
300.66022
300.62085
300.58011
300.5381
300.49492
300.45071
300.40562
300.35979
300.3134
300.26665
300.21973
300.17287
300.12633
300.08038
300.03538
299.99174
299.94996
299.91063
299.87441
299.84208
299.81458
299.79288
299.77796
299.77062
299.77147
299.78076
299.79822
299.82279
299.85238
299.88374
299.91273
299.93391
299.94056
299.92594
299.88268
299.80649
299.69631
299.55977
299.41091
299.27509
299.16198
299.04345
298.86161
298.43182
297.6489
296.62022
296.05911
296.40888
298.09757
308.33908
303.07383
301.11178
300.49823
300.64696
300.58849
300.63936
300.61153
300.62279
300.6119
300.61053
300.60339
300.59627
300.58825
300.57983
300.57076
300.5611
300.55079
300.53983
300.52813
300.51562
300.5022
300.48777
300.47222
300.45547
300.43743
300.41803
300.39721
300.37493
300.35118
300.32596
300.29927
300.27117
300.2417
300.21094
300.17899
300.14595
300.11197
300.07719
300.04178
300.00594
299.96988
299.93385
299.89811
299.86299
299.82887
299.79622
299.76559
299.73759
299.71292
299.69237
299.67687
299.6674
299.66491
299.6701
299.68348
299.70518
299.73476
299.77099
299.81155
299.853
299.89104
299.91999
299.93297
299.92283
299.88269
299.80825
299.69931
299.5646
299.41919
299.28782
299.17416
299.04378
298.8333
298.33972
297.50994
296.46197
295.97329
296.42186
298.15426
307.76253
301.99648
300.45278
299.91479
300.10087
300.02075