/*--------------------------------*- C++ -*----------------------------------*\
  =========                 |
  \\      /  F ield         | OpenFOAM: The Open Source CFD Toolbox
   \\    /   O peration     | Website:  https://openfoam.org
    \\  /    A nd           | Version:  12
     \\/     M anipulation  |
\*---------------------------------------------------------------------------*/
FoamFile
{
    format      ascii;
    class       volScalarField;
    location    "0.055";
    object      nut;
}
// * * * * * * * * * * * * * * * * * * * * * * * * * * * * * * * * * * * * * //

dimensions      [0 2 -1 0 0 0 0];

internalField   nonuniform List<scalar> 
16000
(
4.6595487e-07
9.9747805e-06
1.9043879e-05
2.4148071e-05
1.8457773e-05
2.5467749e-05
1.784639e-05
2.4615806e-05
1.899329e-05
2.6422758e-05
2.2028709e-05
2.6084183e-05
2.3665154e-05
2.4359699e-05
2.3503294e-05
2.337806e-05
2.3125935e-05
2.3057673e-05
2.3066091e-05
2.3173434e-05
2.3372019e-05
2.3661005e-05
2.4037927e-05
2.4502934e-05
2.5058203e-05
2.5709694e-05
2.6465445e-05
2.7338245e-05
2.8343749e-05
2.9498848e-05
3.0822061e-05
3.2337981e-05
3.4078389e-05
3.6082509e-05
3.8398684e-05
4.1084712e-05
4.4209612e-05
4.7855864e-05
5.2125731e-05
5.7146307e-05
6.3067454e-05
7.0066344e-05
7.8367011e-05
8.8245261e-05
0.00010003144
0.00011412408
0.00013101994
0.00015132854
0.00017579756
0.00020534522
0.00024110435
0.00028447678
0.00033719255
0.00040138876
0.00047969612
0.00057535017
0.00069233376
0.00083557089
0.0010111436
0.0010227551
0.0010222598
0.0010218212
0.0010213881
0.0010210006
0.0010206812
0.0010204435
0.0010202835
0.0010201723
0.0010200356
0.0010197079
0.0010188684
0.0010170581
0.001014097
0.0010110533
0.0010082696
0.0010062732
0.0010055974
0.0010036982
0.0010039464
0.0010072746
4.2067727e-07
9.4811068e-06
1.9932182e-05
2.1647415e-05
1.6667002e-05
2.2860203e-05
1.5874288e-05
2.157618e-05
1.6832512e-05
2.3357949e-05
1.9994405e-05
2.3545129e-05
2.1685195e-05
2.2105803e-05
2.1439975e-05
2.1260175e-05
2.1051782e-05
2.0979296e-05
2.0990088e-05
2.1088615e-05
2.1272644e-05
2.1540937e-05
2.1891641e-05
2.2324985e-05
2.2842717e-05
2.3450405e-05
2.4155055e-05
2.4968227e-05
2.5904746e-05
2.6981123e-05
2.8214653e-05
2.9627862e-05
3.125023e-05
3.3118144e-05
3.5276913e-05
3.7780968e-05
4.069574e-05
4.4098878e-05
4.8085818e-05
5.2777025e-05
5.8316678e-05
6.4871912e-05
7.2654053e-05
8.1926336e-05
9.3006337e-05
0.00010627332
0.00012220146
0.00014137442
0.00016450967
0.00019248896
0.00022640033
0.00026759311
0.00031773391
0.00037888473
0.00045358687
0.00054496851
0.00065687795
0.00079405661
0.00096235707
0.0010221548
0.0010216645
0.0010212237
0.0010207937
0.0010204085
0.0010200907
0.0010198513
0.0010196827
0.0010195493
0.0010193687
0.0010189685
0.0010180318
0.0010161251
0.0010130557
0.0010100577
0.0010074499
0.0010058508
0.0010053584
0.0010040067
0.0010042974
0.0010065173
3.8171186e-07
9.0986166e-06
1.8870497e-05
1.9870886e-05
1.4955548e-05
2.0151039e-05
1.416117e-05
1.8772409e-05
1.51611e-05
2.051482e-05
1.8262733e-05
2.0992688e-05
1.967985e-05
1.9825498e-05
1.9314162e-05
1.9110135e-05
1.8935178e-05
1.8867991e-05
1.8882303e-05
1.8975822e-05
1.9147794e-05
1.9397324e-05
1.9722852e-05
2.012481e-05
2.060462e-05
2.1167615e-05
2.1820064e-05
2.2572462e-05
2.3438616e-05
2.443461e-05
2.5576873e-05
2.6886254e-05
2.8390257e-05
3.0122749e-05
3.2126249e-05
3.4451971e-05
3.7162006e-05
4.0330023e-05
4.4045488e-05
4.8421932e-05
5.3598429e-05
5.9733824e-05
6.7027826e-05
7.5730949e-05
8.6149229e-05
9.8644582e-05
0.00011367
0.00013178444
0.00015367618
0.00018019177
0.00021237475
0.00025152092
0.00029923036
0.00035748387
0.00042872233
0.0005159493
0.00062285583
0.00075397548
0.00091487574
0.0010215557
0.0010210773
0.0010206305
0.0010202005
0.0010198148
0.0010194945
0.0010192475
0.0010190613
0.0010188937
0.001018653
0.0010181582
0.0010170983
0.0010150794
0.001011968
0.0010090759
0.0010067317
0.0010055041
0.0010051294
0.0010042501
0.0010046552
0.0010058791
3.3861794e-07
8.809426e-06
1.7932588e-05
1.8560541e-05
1.3468928e-05
1.7813946e-05
1.2640113e-05
1.6422381e-05
1.3668506e-05
1.8098625e-05
1.6699178e-05
1.8725538e-05
1.7821336e-05
1.7764307e-05
1.7368796e-05
1.7162007e-05
1.7016413e-05
1.6959755e-05
1.6980291e-05
1.7072305e-05
1.7235709e-05
1.7470042e-05
1.7774081e-05
1.8148577e-05
1.8594761e-05
1.9117886e-05
1.9723739e-05
2.0421963e-05
2.1225406e-05
2.2149797e-05
2.3210993e-05
2.4428405e-05
2.5827938e-05
2.744128e-05
2.9308587e-05
3.1478286e-05
3.4009574e-05
3.6972965e-05
4.045314e-05
4.4557171e-05
4.9420099e-05
5.5194337e-05
6.2070112e-05
7.0286505e-05
8.0140761e-05
9.1980966e-05
0.00010624275
0.00012346504
0.0001443123
0.00016960325
0.00020034492
0.00023778991
0.00028348407
0.00033934233
0.00040772416
0.00049153213
0.00059433052
0.0007204915
0.0008753697
0.0010209783
0.001020516
0.0010200569
0.0010196195
0.0010192249
0.0010188918
0.0010186246
0.0010184064
0.0010181899
0.0010178766
0.0010172808
0.0010161009
0.0010139933
0.0010109213
0.0010081963
0.0010061243
0.0010051867
0.0010049219
0.0010046001
0.0010050291
0.0010052375
3.0525577e-07
8.5953506e-06
1.7120039e-05
1.8580178e-05
1.3516956e-05
1.5771177e-05
1.1299863e-05
1.4400337e-05
1.2380387e-05
1.6010424e-05
1.5303754e-05
1.6676598e-05
1.6079572e-05
1.5884331e-05
1.5574679e-05
1.5380114e-05
1.5258734e-05
1.521331e-05
1.5238794e-05
1.5328627e-05
1.5482966e-05
1.570198e-05
1.598484e-05
1.6332731e-05
1.6746806e-05
1.7232334e-05
1.779475e-05
1.844301e-05
1.9189016e-05
2.0048091e-05
2.10357e-05
2.2170056e-05
2.3475721e-05
2.498249e-05
2.6728464e-05
2.8759628e-05
3.1132557e-05
3.3915153e-05
3.7188431e-05
4.1053273e-05
4.5641202e-05
5.109959e-05
5.7611011e-05
6.5403658e-05
7.4767567e-05
8.6039406e-05
9.9639728e-05
0.00011608994
0.00013603331
0.00016026434
0.00018975704
0.00022572485
0.00026966331
0.00032342538
0.00038929263
0.00047006892
0.00056919324
0.00069087811
0.00084027193
0.0010204121
0.0010199699
0.0010194926
0.0010190409
0.0010186294
0.0010182742
0.001017976
0.0010177139
0.0010174367
0.0010170426
0.0010163451
0.001015055
0.0010128788
0.0010099328
0.0010074103
0.0010055954
0.001004927
0.0010047502
0.0010049271
0.0010053335
0.0010045574
2.8349403e-07
8.4670422e-06
1.6476963e-05
1.8352542e-05
1.3265853e-05
1.3978025e-05
1.0743243e-05
1.2727546e-05
1.1588384e-05
1.4256476e-05
1.4081428e-05
1.4875755e-05
1.4484948e-05
1.4206726e-05
1.3951253e-05
1.3771397e-05
1.3665554e-05
1.3627126e-05
1.3653809e-05
1.3739186e-05
1.3883353e-05
1.4087051e-05
1.4349658e-05
1.4672734e-05
1.5057396e-05
1.5508915e-05
1.6032427e-05
1.6636351e-05
1.7331669e-05
1.8133262e-05
1.9056375e-05
2.0118244e-05
2.1342362e-05
2.2756944e-05
2.439839e-05
2.6310643e-05
2.8548045e-05
3.1176378e-05
3.4274215e-05
3.7937073e-05
4.2293213e-05
4.7486485e-05
5.3694232e-05
6.1134701e-05
7.0092605e-05
8.0896228e-05
9.3954056e-05
0.00010977364
0.00012898071
0.00015235108
0.0001808314
0.00021560298
0.00025811909
0.00031017984
0.00037399987
0.00045229658
0.00054839823
0.0006663759
0.00081119968
0.00098888748
0.0010194322
0.0010189315
0.0010184582
0.001018022
0.001017636
0.001017297
0.0010169806
0.0010166337
0.0010161549
0.0010153617
0.0010139822
0.0010117755
0.0010090037
0.0010066974
0.0010051829
0.001004684
0.0010045524
0.0010051226
0.0010055475
0.0010036058
2.5593472e-07
8.3968741e-06
1.5968469e-05
1.7353187e-05
1.3161387e-05
1.235195e-05
1.0756513e-05
1.1741772e-05
1.1083256e-05
1.272089e-05
1.2981101e-05
1.3282681e-05
1.3000908e-05
1.2684788e-05
1.246004e-05
1.2295399e-05
1.2201007e-05
1.2168435e-05
1.2195986e-05
1.2277767e-05
1.2413444e-05
1.2604294e-05
1.2849632e-05
1.3074196e-05
1.3424242e-05
1.3838399e-05
1.4321021e-05
1.4879796e-05
1.5524597e-05
1.6269531e-05
1.712958e-05
1.8121028e-05
1.9266378e-05
2.0592327e-05
2.2133691e-05
2.3932527e-05
2.6041067e-05
2.8522998e-05
3.14552e-05
3.5192024e-05
3.9358141e-05
4.4335071e-05
5.0297394e-05
5.7454692e-05
6.6087457e-05
7.6518564e-05
8.9147397e-05
0.00010447105
0.00012310088
0.00014579931
0.00017349077
0.00020733103
0.00024873847
0.00029946871
0.00036167956
0.00043801364
0.00053170209
0.00064669086
0.00078779154
0.00096082591
0.0010188974
0.0010183688
0.0010178672
0.0010173995
0.0010169754
0.001016588
0.0010162101
0.0010157881
0.0010152247
0.0010143463
0.001012901
0.0010107
0.0010081296
0.001006047
0.0010047617
0.0010043925
0.0010043614
0.0010051153
0.0010055828
0.0010027561
2.310214e-07
8.3589612e-06
1.5532769e-05
1.5774846e-05
1.2023116e-05
1.0764293e-05
9.2772632e-06
1.0466294e-05
9.7179616e-06
1.1438977e-05
1.1866149e-05
1.1815443e-05
1.1578906e-05
1.1268237e-05
1.1068589e-05
1.0924081e-05
1.0843638e-05
1.0819915e-05
1.0785491e-05
1.0850813e-05
1.0969905e-05
1.1143252e-05
1.1368469e-05
1.1645882e-05
1.1979664e-05
1.2372966e-05
1.2830425e-05
1.3359653e-05
1.3969961e-05
1.4674999e-05
1.5489912e-05
1.6430466e-05
1.7518665e-05
1.8780227e-05
2.0249003e-05
2.1965817e-05
2.3981572e-05
2.6358591e-05
2.9172973e-05
3.2517455e-05
3.6505193e-05
4.127956e-05
4.7014215e-05
5.4365892e-05
6.2755907e-05
7.2912048e-05
8.5227935e-05
0.00010019355
0.00011840931
0.0001406299
0.00016776325
0.00020094672
0.0002415723
0.00029136085
0.00035242538
0.00042734839
0.00051928153
0.00063206772
0.00077038805
0.00093990689
0.0010183614
0.0010178011
0.0010172655
0.0010167604
0.0010162924
0.0010158517
0.0010154086
0.0010149098
0.0010142645
0.0010133132
0.0010118245
0.0010096542
0.0010072964
0.001005425
0.0010043212
0.0010041063
0.0010042812
0.0010050157
0.001005563
0.0010022626
2.1277498e-07
8.3192359e-06
1.5074606e-05
1.379649e-05
9.8928385e-06
9.5672379e-06
7.659091e-06
8.9262109e-06
9.0632566e-06
1.0285515e-05
1.0730319e-05
1.0448686e-05
1.0234569e-05
9.9545171e-06
9.7800093e-06
9.5905211e-06
9.5007319e-06
9.4725532e-06
9.4987237e-06
9.5761809e-06
9.7003775e-06
9.8736674e-06
1.009455e-05
1.0363163e-05
1.0683743e-05
1.1060301e-05
1.1497519e-05
1.2003029e-05
1.2585762e-05
1.3258892e-05
1.4037823e-05
1.4938031e-05
1.598131e-05
1.719268e-05
1.8605367e-05
2.0259414e-05
2.2204866e-05
2.4503212e-05
2.7229654e-05
3.0475743e-05
3.4354465e-05
3.9006451e-05
4.4607159e-05
5.1360284e-05
5.9527064e-05
6.9432737e-05
8.2187783e-05
9.6932386e-05
0.00011489643
0.00013683226
0.00016363739
0.0001964381
0.00023660878
0.00028584581
0.0003462303
0.00042030089
0.00051114934
0.00062254008
0.00075905492
0.00092624212
0.0010178209
0.0010172256
0.0010166516
0.0010161048
0.0010155891
0.0010150925
0.0010145835
0.0010140094
0.0010132866
0.0010122732
0.0010107615
0.0010086389
0.0010064898
0.001004819
0.0010039155
0.0010038714
0.0010042177
0.0010048765
0.0010052087
0.0010016524
1.9580838e-07
8.278693e-06
1.3594193e-05
1.1996399e-05
8.008335e-06
8.5038748e-06
6.8142261e-06
8.0509256e-06
8.393135e-06
9.1966754e-06
9.6012675e-06
9.2012838e-06
8.9956471e-06
8.6675989e-06
8.4842218e-06
8.3655974e-06
8.3086677e-06
8.3048601e-06
8.347547e-06
8.4361374e-06
8.5666798e-06
8.7400972e-06
8.9578069e-06
9.2198198e-06
9.5305817e-06
9.894495e-06
1.0316386e-05
1.0804037e-05
1.1366131e-05
1.2015401e-05
1.2767565e-05
1.3638112e-05
1.4648852e-05
1.5824382e-05
1.7197625e-05
1.880824e-05
2.0705857e-05
2.2951661e-05
2.5620875e-05
2.8805081e-05
3.2616849e-05
3.7195716e-05
4.2719351e-05
4.9390289e-05
5.7470309e-05
6.7284258e-05
7.9232616e-05
9.3785219e-05
0.00011255668
0.00013440134
0.00016110952
0.00019380363
0.00023384992
0.00028293126
0.00034311084
0.00041690123
0.00050735608
0.00061818848
0.00075391462
0.00092000939
0.0010172727
0.0010166403
0.0010160249
0.0010154333
0.0010148674
0.0010143141
0.0010137412
0.0010130959
0.0010123001
0.0010112322
0.0010097142
0.0010076536
0.0010057047
0.0010042314
0.0010035281
0.0010036328
0.0010040969
0.0010046256
0.0010046166
0.0010011099
1.8065801e-07
8.2332411e-06
1.0812635e-05
9.9481883e-06
6.5781401e-06
7.5664573e-06
6.208965e-06
7.2280991e-06
7.8518831e-06
8.2070399e-06
8.4891846e-06
7.9785397e-06
7.727102e-06
7.4971432e-06
7.3602226e-06
7.2797356e-06
7.2507034e-06
7.2680465e-06
7.326212e-06
7.4240549e-06
7.5598357e-06
7.7351492e-06
7.9516685e-06
8.2099006e-06
8.5143777e-06
8.8699289e-06
9.2816408e-06
9.7574962e-06
1.0306128e-05
1.0939907e-05
1.1615082e-05
1.2456918e-05
1.3436743e-05
1.4578709e-05
1.5915423e-05
1.7486196e-05
1.9340301e-05
2.1538672e-05
2.4156669e-05
2.7286175e-05
3.1040346e-05
3.5838137e-05
4.1341875e-05
4.7999426e-05
5.6073245e-05
6.5889009e-05
7.7854936e-05
9.2447115e-05
0.00011026441
0.00013205097
0.00016016672
0.0001930315
0.00023328609
0.0002826113
0.00034306716
0.00041715937
0.00050792686
0.00061906011
0.00075504484
0.00092132489
0.0010167135
0.0010160426
0.0010153845
0.0010147466
0.0010141294
0.0010135195
0.0010128854
0.0010121745
0.0010113108
0.0010101919
0.0010086805
0.0010067022
0.001004947
0.0010036669
0.0010031533
0.0010033774
0.0010039066
0.0010043084
0.0010042119
0.0010006466
1.6731026e-07
8.1865668e-06
8.5350162e-06
8.4576362e-06
5.7806581e-06
6.6954936e-06
5.697521e-06
6.5094946e-06
7.299154e-06
7.2819244e-06
7.2804941e-06
6.8438828e-06
6.638106e-06
6.4677164e-06
6.3702534e-06
6.3215717e-06
6.3168973e-06
6.352059e-06
6.4235663e-06
6.5311518e-06
6.6733625e-06
6.8520239e-06
7.0696535e-06
7.3272267e-06
7.6293579e-06
7.94691e-06
8.3468139e-06
8.8101103e-06
9.345284e-06
9.9642503e-06
1.068136e-05
1.1515294e-05
1.2487118e-05
1.3621012e-05
1.4949823e-05
1.6513177e-05
1.836083e-05
2.0554341e-05
2.3170331e-05
2.6302293e-05
3.0065585e-05
3.4604275e-05
4.0094751e-05
4.6748262e-05
5.4829865e-05
6.523062e-05
7.7326878e-05
9.2091189e-05
0.0001101265
0.00013219081
0.00015920456
0.00019410506
0.00023490349
0.0002848767
0.00034609677
0.00042108315
0.00051288506
0.00062520079
0.00076252192
0.00093030242
0.0010161398
0.0010154294
0.0010147282
0.0010140441
0.0010133757
0.0010127099
0.001012017
0.001011246
0.0010103214
0.0010091533
0.0010076542
0.0010057934
0.0010042286
0.001003139
0.0010027968
0.0010031117
0.0010036899
0.0010040089
0.0010039084
0.0010003082
1.5535345e-07
8.1289126e-06
6.788205e-06
7.4167396e-06
5.1468344e-06
5.9173124e-06
5.2570654e-06
5.8714908e-06
6.6396515e-06
6.2324155e-06
6.1878839e-06
5.8504277e-06
5.6864654e-06
5.564289e-06
5.5005838e-06
5.4792317e-06
5.4958584e-06
5.5479681e-06
5.6326062e-06
5.7502321e-06
5.9001775e-06
6.0843742e-06
6.2790889e-06
6.5335082e-06
6.8320692e-06
7.1789869e-06
7.5813916e-06
8.0469183e-06
8.5842603e-06
9.20552e-06
9.9251785e-06
1.0761661e-05
1.1737242e-05
1.2876419e-05
1.4212525e-05
1.5785864e-05
1.7647192e-05
1.9859189e-05
2.2500425e-05
2.5666993e-05
2.9476634e-05
3.4075932e-05
3.9649321e-05
4.6412037e-05
5.4635564e-05
6.4656856e-05
7.6893473e-05
9.1848268e-05
0.0001111076
0.00013363886
0.0001612267
0.00019502084
0.00023867954
0.00028970972
0.00035218871
0.00042867175
0.00052224554
0.00063664813
0.00077641633
0.00094705502
0.0010155477
0.001014797
0.0010140531
0.0010133238
0.0010126058
0.0010118855
0.0010111352
0.0010103083
0.0010093327
0.0010081214
0.001006629
0.0010049389
0.0010035618
0.0010026463
0.0010024618
0.0010028393
0.001003458
0.0010037557
0.0010037012
0.0010001537
1.4467832e-07
8.0578956e-06
5.440956e-06
6.4723522e-06
4.5822687e-06
5.2245459e-06
4.8803203e-06
5.221683e-06
5.8089096e-06
5.3199812e-06
5.2279673e-06
4.9804475e-06
4.8557043e-06
4.7737983e-06
4.7400042e-06
4.7432742e-06
4.7798328e-06
4.848203e-06
4.9462952e-06
5.055947e-06
5.2093686e-06
5.3968857e-06
5.6207851e-06
5.8840576e-06
6.191022e-06
6.5462785e-06
6.9568743e-06
7.4310687e-06
7.9777711e-06
8.6092307e-06
9.3400303e-06
1.0188793e-05
1.112763e-05
1.2272938e-05
1.361708e-05
1.5200999e-05
1.7076646e-05
1.9307866e-05
2.19752e-05
2.517783e-05
2.9036851e-05
3.3958351e-05
3.9666187e-05
4.6600397e-05
5.5039909e-05
6.5328712e-05
7.7900802e-05
9.3276491e-05
0.00011208945
0.0001363612
0.00016475079
0.00019952408
0.00024211101
0.00029708013
0.00036132013
0.00043991262
0.00053601261
0.00065343234
0.00079679832
0.00097171092
0.001014934
0.0010141416
0.0010133556
0.0010125824
0.0010118173
0.001011045
0.0010102386
0.0010093581
0.0010083428
0.0010071083
0.0010056196
0.001004147
0.0010029557
0.001002208
0.0010021465
0.0010025645
0.001003191
0.0010035107
0.00100352
0.0010001752
1.3515155e-07
7.9261365e-06
4.4112882e-06
5.6316198e-06
4.0771384e-06
4.6076619e-06
4.5494944e-06
4.515947e-06
4.9693288e-06
4.5056401e-06
4.3951638e-06
4.2218817e-06
4.1343622e-06
4.087267e-06
4.0806403e-06
4.1066637e-06
4.1622868e-06
4.2299019e-06
4.3364486e-06
4.4734059e-06
4.6416396e-06
4.8426862e-06
5.0795304e-06
5.3553697e-06
5.6750926e-06
6.043563e-06
6.4678889e-06
6.9357767e-06
7.4925799e-06
8.1347861e-06
8.8769967e-06
9.7378201e-06
1.0739996e-05
1.1912088e-05
1.328815e-05
1.4910342e-05
1.6832793e-05
1.9121523e-05
2.1859954e-05
2.5151873e-05
2.912337e-05
3.3933105e-05
3.9772523e-05
4.687685e-05
5.5535075e-05
6.6656445e-05
7.9668588e-05
9.5588599e-05
0.000115075
0.00013893401
0.00016972953
0.00020575391
0.00024986726
0.00030385837
0.00037344764
0.00045477293
0.00055417109
0.00067556754
0.00082373077
0.0010044139
0.0010142962
0.0010134609
0.0010126327
0.0010118165
0.0010110067
0.001010186
0.001009327
0.0010083953
0.0010073472
0.0010061229
0.0010046933
0.0010034229
0.0010024186
0.0010018361
0.0010018422
0.0010022814
0.0010028752
0.0010032145
0.0010031433
0.0010002232
1.2669328e-07
7.5987668e-06
3.6956754e-06
4.8853055e-06
3.6269777e-06
4.0608751e-06
4.0326182e-06
3.8770727e-06
4.1595948e-06
3.7854387e-06
3.6809794e-06
3.5669306e-06
3.5142596e-06
3.4978785e-06
3.5160968e-06
3.5502362e-06
3.6179848e-06
3.7150877e-06
3.8407441e-06
3.9952032e-06
4.1799663e-06
4.397098e-06
4.650006e-06
4.9421769e-06
5.2668341e-06
5.6492587e-06
6.0879608e-06
6.5911478e-06
7.1691375e-06
7.8342137e-06
8.6013288e-06
9.4898067e-06
1.0523269e-05
1.1731297e-05
1.3150207e-05
1.4823586e-05
1.6808297e-05
1.9173252e-05
2.2005003e-05
2.5413117e-05
2.9528183e-05
3.4516114e-05
4.0579872e-05
4.7963873e-05
5.697163e-05
6.797398e-05
8.2148123e-05
9.873504e-05
0.00011903916
0.00014390852
0.00017435351
0.00021364006
0.00025960616
0.00031586063
0.00038465685
0.00047318456
0.00057667045
0.00070303475
0.0008572471
0.0010145234
0.0010136329
0.0010127545
0.0010118841
0.0010110246
0.0010101708
0.0010093055
0.0010084009
0.001007425
0.0010063467
0.0010051446
0.0010038496
0.0010027714
0.0010019485
0.0010015093
0.0010015473
0.0010019743
0.0010025095
0.0010028471
0.0010026647
0.0010002609
1.1938361e-07
7.1877613e-06
3.2449757e-06
4.2234266e-06
3.2260133e-06
3.4253672e-06
3.5747082e-06
3.2916083e-06
3.4270642e-06
3.1597416e-06
3.0762939e-06
3.009048e-06
2.9880052e-06
2.9990494e-06
3.024808e-06
3.0878498e-06
3.1790325e-06
3.2971595e-06
3.4423477e-06
3.6155845e-06
3.8189204e-06
4.0547021e-06
4.318329e-06
4.6273997e-06
4.9810607e-06
5.385067e-06
5.8463334e-06
6.3733454e-06
6.9766083e-06
7.6691596e-06
8.4663937e-06
9.3884117e-06
1.0459851e-05
1.1711699e-05
1.3125763e-05
1.4847043e-05
1.6890132e-05
1.9327335e-05
2.2382707e-05
2.5931671e-05
3.02208e-05
3.5423174e-05
4.1754342e-05
4.9470576e-05
5.8889123e-05
7.0400984e-05
8.44832e-05
0.00010171744
0.00012391021
0.00014995779
0.0001818492
0.00022089075
0.00027121723
0.00033013233
0.00040218048
0.00049502326
0.00060340052
0.00073575544
0.00089731867
0.0010138675
0.0010129439
0.0010120244
0.0010111122
0.0010102089
0.0010093106
0.0010084028
0.0010074604
0.001006454
0.0010053576
0.0010041693
0.0010030916
0.0010021915
0.0010015317
0.0010012096
0.0010012678
0.0010016369
0.0010020795
0.0010024421
0.0010022666
0.0010002887
1.1348685e-07
6.2309935e-06
2.8597154e-06
3.6226493e-06
2.8780887e-06
2.8395361e-06
3.1189246e-06
2.761617e-06
2.7981664e-06
2.6252861e-06
2.5696809e-06
2.5403648e-06
2.5402058e-06
2.5688962e-06
2.6292604e-06
2.7172002e-06
2.8308189e-06
2.9699504e-06
3.1354702e-06
3.3288105e-06
3.5471766e-06
3.8017657e-06
4.0926689e-06
4.4239878e-06
4.8006204e-06
5.2285048e-06
5.7148583e-06
6.268477e-06
6.9001718e-06
7.6066441e-06
8.4323876e-06
9.3856757e-06
1.0492094e-05
1.178367e-05
1.3300416e-05
1.5092302e-05
1.7221017e-05
1.9763674e-05
2.2815786e-05
2.6495113e-05
3.094754e-05
3.6614154e-05
4.3250967e-05
5.1347015e-05
6.1234386e-05
7.3323984e-05
8.8118276e-05
0.00010623171
0.00012959261
0.00015697426
0.00019050555
0.0002315568
0.0002845396
0.00034649574
0.00042228505
0.00051495363
0.00063415808
0.00077355165
0.00094381969
0.0010131897
0.0010122323
0.0010112744
0.0010103224
0.0010093763
0.0010084333
0.0010074836
0.0010065079
0.0010054835
0.0010044032
0.0010033188
0.0010024158
0.0010016797
0.0010011583
0.001000935
0.0010010046
0.0010012933
0.0010016161
0.0010019335
0.001001873
0.001000332
1.0858157e-07
4.3447418e-06
2.5107669e-06
3.066203e-06
2.4420109e-06
2.3484865e-06
2.641613e-06
2.2902684e-06
2.2749528e-06
2.1753301e-06
2.1504603e-06
2.1466257e-06
2.1745995e-06
2.2338349e-06
2.3202523e-06
2.4315042e-06
2.5669226e-06
2.727029e-06
2.9104359e-06
3.1232987e-06
3.3666382e-06
3.6433351e-06
3.9568921e-06
4.3115662e-06
4.7124865e-06
5.1658285e-06
5.6790817e-06
6.2518657e-06
6.910732e-06
7.6629908e-06
8.5259236e-06
9.5209748e-06
1.0675148e-05
1.2022321e-05
1.360492e-05
1.5475751e-05
1.7700351e-05
2.0360127e-05
2.3556169e-05
2.7413639e-05
3.2087248e-05
3.776719e-05
4.5020442e-05
5.3536191e-05
6.3941801e-05
7.6669996e-05
9.2250366e-05
0.00011133177
0.00013470828
0.0001648158
0.00020015892
0.0002434391
0.00029643276
0.00036469666
0.00044468137
0.0005425404
0.00066860279
0.00081608496
0.0009964421
0.0010124957
0.0010115025
0.0010105089
0.0010095205
0.0010085355
0.0010075506
0.0010065607
0.0010055552
0.0010045201
0.0010034699
0.0010025766
0.001001828
0.0010012378
0.0010008433
0.0010006908
0.0010007681
0.0010009985
0.0010012759
0.0010016174
0.0010015234
0.001000356
1.0334701e-07
3.5836844e-06
2.1472777e-06
2.5547608e-06
2.0848706e-06
1.9383044e-06
2.1519766e-06
1.8774069e-06
1.8496734e-06
1.8056058e-06
1.8072316e-06
1.8345044e-06
1.8943513e-06
1.9804467e-06
2.0903958e-06
2.2233149e-06
2.3794495e-06
2.5579322e-06
2.763626e-06
2.9976512e-06
3.2625626e-06
3.561455e-06
3.898027e-06
4.2766919e-06
4.702745e-06
5.1825729e-06
5.7174917e-06
6.327066e-06
7.0186175e-06
7.8066049e-06
8.7092001e-06
9.7490665e-06
1.0954682e-05
1.236181e-05
1.4015417e-05
1.5971723e-05
1.8300419e-05
2.108772e-05
2.4440638e-05
2.8491127e-05
3.3402571e-05
3.9661481e-05
4.7005683e-05
5.5971777e-05
6.6933648e-05
8.0347384e-05
9.6771624e-05
0.00011689083
0.00014285446
0.00017329997
0.00021059341
0.00025628042
0.00031224775
0.00038438424
0.00046896904
0.00057256109
0.00070619827
0.00086277406
0.0010128346
0.0010117927
0.001010762
0.001009734
0.0010087119
0.0010076937
0.0010066743
0.0010056494
0.0010046187
0.0010035932
0.0010026865
0.0010019382
0.0010013292
0.0010008662
0.0010005779
0.001000487
0.0010005716
0.0010007504
0.0010009694
0.0010012867
0.0010011884
0.0010003719
9.9506186e-08
2.8626639e-06
1.8325641e-06
2.0420445e-06
1.78984e-06
1.5876703e-06
1.7002406e-06
1.5278388e-06
1.5149885e-06
1.5148588e-06
1.5434138e-06
1.6039811e-06
1.6905814e-06
1.7996923e-06
1.9303856e-06
2.082877e-06
2.2570926e-06
2.45621e-06
2.6818095e-06
2.9362329e-06
3.2222784e-06
3.5432162e-06
3.9028746e-06
4.3057802e-06
4.7573556e-06
5.2605177e-06
5.8287208e-06
6.4694132e-06
7.194661e-06
8.0195922e-06
8.9633935e-06
1.0050014e-05
1.1309573e-05
1.2779844e-05
1.4508276e-05
1.6554461e-05
1.8992775e-05
2.1914342e-05
2.543273e-05
2.9687404e-05
3.5080206e-05
4.1415151e-05
4.9139736e-05
5.8576228e-05
7.0117949e-05
8.4247001e-05
0.00010155309
0.00012275951
0.00015009261
0.00018219277
0.00022153353
0.00026975501
0.00032886986
0.00040507575
0.00049458209
0.00060435348
0.00074615043
0.00091268958
0.0010121579
0.0010110895
0.0010100225
0.0010089596
0.001007904
0.0010068558
0.0010058103
0.0010047622
0.0010037241
0.0010027784
0.0010020211
0.0010014042
0.0010009153
0.0010005576
0.0010003544
0.0010003093
0.0010003877
0.0010005117
0.0010006567
0.0010008958
0.0010008131
0.0010003906
9.7261335e-08
2.2332306e-06
1.5589819e-06
1.5550135e-06
1.5177833e-06
1.2880041e-06
1.3327273e-06
1.2488884e-06
1.2638222e-06
1.2947793e-06
1.3569862e-06
1.4437208e-06
1.5519107e-06
1.6801999e-06
1.8288375e-06
1.998837e-06
2.1910408e-06
2.4084767e-06
2.652975e-06
2.9270978e-06
3.2337835e-06
3.5764149e-06
3.958916e-06
4.385903e-06
4.8628936e-06
5.3965922e-06
5.9952582e-06
6.6691507e-06
7.4224565e-06
8.2847618e-06
9.2703518e-06
1.0404549e-05
1.1719234e-05
1.3254387e-05
1.5059991e-05
1.7268718e-05
1.9838413e-05
2.2920196e-05
2.6634821e-05
3.1130888e-05
3.6590925e-05
4.3238709e-05
5.1349799e-05
6.1262138e-05
7.3390249e-05
8.8242754e-05
0.00010644235
0.00012987705
0.00015743206
0.00019121268
0.00023263758
0.0002834501
0.00034906937
0.00042614897
0.00052077447
0.00063702542
0.00078736299
0.00096451866
0.0010114958
0.0010104006
0.0010092998
0.0010082023
0.0010071113
0.0010060308
0.0010049615
0.0010039057
0.0010028934
0.0010021046
0.0010014674
0.001000964
0.0010005771
0.0010003054
0.0010001583
0.0010001324
0.0010001866
0.0010002599
0.001000356
0.0010005387
0.0010004904
0.0010003196
9.7408143e-08
1.6966905e-06
1.3281678e-06
1.1824393e-06
1.244157e-06
1.037215e-06
1.0629696e-06
1.0426677e-06
1.0862721e-06
1.1469563e-06
1.2334764e-06
1.3399755e-06
1.4653444e-06
1.609712e-06
1.7741343e-06
1.9601162e-06
2.1691815e-06
2.4039312e-06
2.6665433e-06
2.9596875e-06
3.2863828e-06
3.6500838e-06
4.0547922e-06
4.505216e-06
5.0069892e-06
5.5669698e-06
6.1936372e-06
6.8975881e-06
7.6921545e-06
8.5941841e-06
9.6249567e-06
1.0811403e-05
1.2187426e-05
1.3795614e-05
1.5689212e-05
1.7934553e-05
2.0614038e-05
2.3830006e-05
2.7708825e-05
3.2406565e-05
3.811549e-05
4.5071414e-05
5.3561749e-05
6.3941379e-05
7.664455e-05
9.2967787e-05
0.00011218219
0.00013573328
0.000164613
0.00020004157
0.00024351911
0.00029968131
0.00036571742
0.00044685293
0.00054662766
0.00067595161
0.00082841594
0.0010120013
0.0010108623
0.0010097406
0.0010086108
0.0010074822
0.0010063573
0.0010052413
0.0010041424
0.0010030892
0.0010022293
0.0010015474
0.0010010151
0.0010006045
0.0010002982
0.0010000901
0.00099998056
0.00099995816
0.00099998599
0.0010000238
0.0010000966
0.0010002574
0.0010002938
0.0010003155
1.0075818e-07
1.2589443e-06
1.1370739e-06
9.1006146e-07
1.0846753e-06
8.3036835e-07
8.7773105e-07
9.027612e-07
9.6938633e-07
1.0534284e-06
1.1575414e-06
1.27921e-06
1.4187918e-06
1.5772749e-06
1.7561321e-06
1.957088e-06
2.1821022e-06
2.4332068e-06
2.7130532e-06
3.0242817e-06
3.3699699e-06
3.7536385e-06
4.1793694e-06
4.6519719e-06
5.1772112e-06
5.7621174e-06
6.4154015e-06
7.1480235e-06
7.9738158e-06
8.9103376e-06
9.9797913e-06
1.1210347e-05
1.2637504e-05
1.430588e-05
1.6271272e-05
1.8603218e-05
2.1388021e-05
2.4732474e-05
2.8768396e-05
3.3658193e-05
3.9872229e-05
4.7174176e-05
5.6086761e-05
6.6982198e-05
8.031644e-05
9.6649184e-05
0.00011666803
0.00014121812
0.00017133595
0.00021025101
0.00025599044
0.0003121759
0.00038124961
0.00046625051
0.00057654099
0.00070667764
0.00086742972
0.0010114265
0.0010102709
0.001009123
0.001007969
0.0010068151
0.0010056635
0.0010045213
0.0010034131
0.0010024408
0.0010016894
0.0010011025
0.0010006533
0.0010003154
0.0010000705
0.00099990979
0.00099982865
0.00099981286
0.0009998327
0.00099986439
0.00099993884
0.0010000899
0.0010001725
0.0010002365
1.0742008e-07
9.7437433e-07
9.7046204e-07
7.6958031e-07
7.7296016e-07
7.0803254e-07
7.5366168e-07
8.1419865e-07
8.982767e-07
9.9862992e-07
1.1159555e-06
1.2501383e-06
1.4022338e-06
1.5735602e-06
1.7657149e-06
1.9804795e-06
2.2198434e-06
2.4860202e-06
2.7814863e-06
3.1090256e-06
3.4717948e-06
3.873412e-06
4.3180807e-06
4.8107665e-06
5.3574425e-06
5.9632583e-06
6.6403652e-06
7.3987073e-06
8.2600719e-06
9.2310406e-06
1.033991e-05
1.1616209e-05
1.3097121e-05
1.4829317e-05
1.687112e-05
1.9295112e-05
2.2191307e-05
2.5671018e-05
2.9871554e-05
3.4962022e-05
4.1150431e-05
4.8692432e-05
5.790187e-05
6.9162189e-05
8.2946065e-05
9.9833376e-05
0.00012161012
0.00014720387
0.00017860654
0.00021716357
0.00026453939
0.00032280232
0.00039452744
0.00048752325
0.00059743592
0.00073330413
0.00090160809
0.0010109109
0.0010097361
0.0010085638
0.0010073866
0.0010062104
0.0010050397
0.0010038851
0.0010027877
0.0010019374
0.0010012687
0.0010007583
0.0010003743
0.0010000924
0.00099989494
0.00099977185
0.0009997154
0.00099970973
0.00099972914
0.00099975834
0.00099982732
0.00099996335
0.0010000841
0.0010001823
1.2212693e-07
9.8143137e-07
8.0975269e-07
5.7058508e-07
6.1408992e-07
6.1697167e-07
6.8105489e-07
7.6058539e-07
8.5832037e-07
9.7096368e-07
1.0994968e-06
1.2447414e-06
1.4079906e-06
1.5906577e-06
1.7943639e-06
2.0209132e-06
2.2723208e-06
2.5508381e-06
2.8589889e-06
3.1996137e-06
3.5759301e-06
3.9916193e-06
4.4509496e-06
4.9589531e-06
5.5216776e-06
6.1465297e-06
6.8427316e-06
7.6219043e-06
8.4988082e-06
9.4922237e-06
1.0626008e-05
1.1930423e-05
1.344362e-05
1.5213507e-05
1.7299929e-05
1.9777337e-05
2.2738019e-05
2.6296003e-05
3.0591845e-05
3.5798489e-05
4.2128557e-05
5.0200518e-05
5.9694327e-05
7.1300078e-05
8.550523e-05
0.00010290795
0.00012424499
0.00015042484
0.00018256992
0.00022206832
0.00027064766
0.00033351012
0.00040777415
0.00049943379
0.00061277642
0.0007532368
0.00092773225
0.0010104829
0.0010092889
0.0010080918
0.0010068883
0.0010056843
0.0010044889
0.0010033311
0.0010023255
0.0010015527
0.0010009538
0.001000503
0.0010001704
0.00099993276
0.00099977127
0.0009996755
0.00099963437
0.00099963234
0.00099965119
0.0009996848
0.00099975582
0.00099987597
0.0010000099
0.0010001147
1.1200934e-07
6.3493835e-07
6.4195997e-07
4.7248148e-07
5.1514332e-07
5.6128253e-07
6.4067295e-07
7.3398265e-07
8.4249961e-07
9.6553592e-07
1.1041656e-06
1.2594413e-06
1.432683e-06
1.6253575e-06
1.839118e-06
2.0758138e-06
2.337513e-06
2.6264941e-06
2.9453922e-06
3.2970936e-06
3.6848824e-06
4.1125065e-06
4.5843022e-06
5.1053722e-06
5.6818415e-06
6.3212069e-06
7.0328026e-06
7.8284014e-06
8.7301635e-06
9.7460042e-06
1.0905196e-05
1.2238747e-05
1.3785696e-05
1.5595023e-05
1.7727862e-05
2.0260224e-05
2.3286281e-05
2.692237e-05
3.1311907e-05
3.6631382e-05
4.3097704e-05
5.0977133e-05
6.0596251e-05
7.2357332e-05
8.6754271e-05
0.00010439529
0.00012603024
0.00015392438
0.00018678436
0.00022717335
0.00027687387
0.00033811165
0.00041368158
0.00050710908
0.00062286393
0.00076664559
0.00094575071
0.0010101768
0.0010089678
0.0010077509
0.0010065245
0.0010052948
0.0010040763
0.0010029163
0.0010019947
0.0010012761
0.0010007288
0.0010003219
0.0010000278