/*--------------------------------*- C++ -*----------------------------------*\
  =========                 |
  \\      /  F ield         | OpenFOAM: The Open Source CFD Toolbox
   \\    /   O peration     | Website:  https://openfoam.org
    \\  /    A nd           | Version:  12
     \\/     M anipulation  |
\*---------------------------------------------------------------------------*/
FoamFile
{
    format      ascii;
    class       volScalarField;
    location    "0.055";
    object      rho;
}
// * * * * * * * * * * * * * * * * * * * * * * * * * * * * * * * * * * * * * //

dimensions      [1 -3 0 0 0 0 0];

internalField   nonuniform List<scalar> 
16000
(
1.0612541
1.0939889
1.081895
1.0901202
1.0862717
1.0897282
1.0887448
1.090578
1.090726
1.0919423
1.0925955
1.0936153
1.0944963
1.0954972
1.0964968
1.0975484
1.098632
1.0997554
1.1009166
1.1021165
1.1033551
1.1046325
1.1059482
1.1073019
1.108693
1.1101204
1.1115831
1.1130796
1.1146081
1.1161666
1.1177528
1.1193641
1.1209975
1.1226499
1.1243178
1.1259974
1.1276848
1.1293758
1.1310661
1.1327512
1.1344268
1.1360881
1.1377309
1.1393506
1.140943
1.1425041
1.14403
1.145517
1.1469618
1.1483615
1.1497132
1.1510146
1.1522637
1.1534585
1.1545977
1.15568
1.1567042
1.1576694
1.1585747
1.159419
1.1602013
1.1609205
1.1615758
1.1621662
1.1626915
1.1631517
1.1635477
1.1638822
1.1641605
1.1643919
1.1645902
1.1647737
1.1649629
1.1651904
1.1655142
1.1659206
1.1663058
1.1671851
1.1668327
1.1673004
1.0581181
1.0913812
1.0786274
1.0874577
1.0833846
1.0871092
1.0860272
1.088031
1.0881747
1.0894933
1.0901998
1.0912956
1.0922519
1.0933281
1.0944095
1.0955432
1.0967132
1.0979253
1.0991781
1.1004723
1.1018077
1.103184
1.1046008
1.1060573
1.1075524
1.1090849
1.1106532
1.1122554
1.1138892
1.1155523
1.1172417
1.1189542
1.1206865
1.1224348
1.1241949
1.1259628
1.1277338
1.1295034
1.1312668
1.1330193
1.134756
1.1364722
1.1381634
1.1398249
1.1414527
1.1430427
1.1445913
1.146095
1.147551
1.1489566
1.1503094
1.1516076
1.1528497
1.1540342
1.1551601
1.1562268
1.1572334
1.1581795
1.1590643
1.1598874
1.1606477
1.1613446
1.1619772
1.1625452
1.1630483
1.1634871
1.1638633
1.1641799
1.1644428
1.1646616
1.16485
1.165025
1.1652069
1.1654325
1.165754
1.1661386
1.166586
1.1673129
1.166987
1.1673727
1.0552818
1.0890141
1.0758518
1.08502
1.0808038
1.0847327
1.0836213
1.0857464
1.0859322
1.0873354
1.0881166
1.0892902
1.0903334
1.0914938
1.092667
1.0938934
1.0951603
1.0964716
1.0978266
1.0992254
1.1006674
1.1021521
1.1036788
1.1052462
1.1068529
1.1084972
1.110177
1.11189
1.1136334
1.1154042
1.1171988
1.1190136
1.1208444
1.1226868
1.1245363
1.126388
1.128237
1.130078
1.131906
1.133716
1.1355027
1.1372615
1.1389877
1.1406768
1.1423248
1.1439281
1.1454832
1.1469872
1.1484378
1.1498326
1.1511702
1.152449
1.1536681
1.1548268
1.1559246
1.1569613
1.1579366
1.1588503
1.1597022
1.160492
1.1612191
1.1618829
1.1624829
1.1630189
1.1634912
1.1639007
1.1642494
1.1645411
1.1647821
1.1649824
1.1651559
1.1653187
1.1654922
1.1657165
1.1660316
1.1664061
1.1668734
1.1674778
1.1671462
1.1674906
1.052758
1.0868795
1.0733305
1.0828262
1.0784775
1.0826412
1.0815075
1.0837719
1.0840099
1.0855107
1.0863811
1.0876446
1.0887896
1.0900475
1.091326
1.0926583
1.0940346
1.0954574
1.096926
1.0984401
1.0999992
1.1016022
1.103248
1.1049351
1.1066616
1.1084253
1.1102235
1.1120532
1.1139111
1.1157934
1.1176958
1.119614
1.121543
1.1234778
1.1254132
1.1273436
1.1292635
1.1311675
1.1330499
1.1349055
1.1367291
1.1385159
1.1402613
1.1419612
1.1436118
1.14521
1.1467529
1.1482383
1.1496643
1.1510295
1.1523329
1.1535739
1.1547522
1.1558678
1.1569208
1.1579115
1.1588403
1.1597074
1.1605129
1.1612568
1.1619389
1.1625588
1.1631163
1.1636115
1.1640448
1.1644176
1.1647322
1.1649927
1.1652058
1.1653818
1.1655344
1.1656793
1.1658399
1.1660576
1.1663595
1.166723
1.1671884
1.1676782
1.167318
1.1676569
1.0505924
1.0851112
1.0711594
1.0809546
1.0764653
1.0809055
1.079762
1.0821717
1.0824821
1.0840885
1.0850671
1.0864301
1.0876901
1.0890563
1.0904504
1.0918985
1.0933934
1.0949369
1.0965283
1.0981671
1.0998522
1.1015825
1.1033564
1.1051716
1.1070258
1.108916
1.1108389
1.1127906
1.1147669
1.116763
1.1187741
1.1207947
1.1228191
1.1248415
1.126856
1.1288563
1.1308366
1.1327908
1.1347133
1.1365986
1.1384416
1.1402377
1.1419827
1.143673
1.1453053
1.1468773
1.1483867
1.1498323
1.1512129
1.152528
1.1537776
1.1549618
1.1560811
1.1571362
1.158128
1.1590573
1.1599251
1.160732
1.1614785
1.162165
1.1627914
1.1633577
1.1638638
1.1643101
1.1646972
1.1650267
1.1653012
1.1655249
1.1657047
1.1658512
1.165978
1.166101
1.1662456
1.1664546
1.1667389
1.1670871
1.1675393
1.167909
1.1675124
1.1678696
1.0488274
1.083726
1.0694299
1.0795362
1.0749478
1.0796001
1.0784442
1.0810213
1.0814186
1.0831368
1.0842353
1.0857008
1.0870825
1.088563
1.0900798
1.091652
1.093275
1.0949494
1.0966744
1.098449
1.1002718
1.1021408
1.1040536
1.1060073
1.1079986
1.1100236
1.1120779
1.1141567
1.1162547
1.118366
1.1204848
1.1226046
1.1247188
1.1268209
1.128904
1.1309617
1.1329874
1.134975
1.1369188
1.1388135
1.1406544
1.1424372
1.1441584
1.1458152
1.1474053
1.148927
1.1503793
1.1517619
1.1530748
1.1543183
1.1554935
1.1566013
1.1576433
1.1586207
1.1595352
1.1603883
1.1611812
1.1619151
1.162591
1.1632093
1.1637703
1.1642742
1.1647211
1.1651114
1.1654461
1.1657268
1.165956
1.166138
1.1662801
1.1663929
1.1664898
1.1665877
1.1667147
1.1669082
1.1671748
1.1675048
1.1679294
1.1681704
1.1677369
1.1681349
1.0474607
1.0827335
1.0681227
1.0785727
1.073895
1.0787492
1.0776397
1.0803496
1.0808519
1.0826548
1.0838802
1.0854522
1.086966
1.088574
1.0902276
1.0919399
1.0937072
1.0955293
1.0974046
1.0993315
1.1013075
1.1033298
1.1053952
1.1074995
1.1096383
1.1118066
1.1139986
1.1162084
1.1184293
1.1206545
1.1228767
1.1250885
1.1272826
1.1294513
1.1315876
1.1336844
1.1357351
1.1377337
1.1396748
1.1415534
1.1433656
1.1451079
1.146778
1.1483738
1.1498945
1.1513396
1.1527094
1.1540046
1.1552264
1.1563764
1.1574566
1.158469
1.1594157
1.1602991
1.1611213
1.1618843
1.1625898
1.1632395
1.1638343
1.1643751
1.1648624
1.1652966
1.1656777
1.1660064
1.1662836
1.1665109
1.1666906
1.1668274
1.1669283
1.1670043
1.1670688
1.1671399
1.1672473
1.1674244
1.1676728
1.1679802
1.1683587
1.1684653
1.1680107
1.1684618
1.0464305
1.0820741
1.0671738
1.0780126
1.0732336
1.0783179
1.0772388
1.0801443
1.0806692
1.0825894
1.0839762
1.0856817
1.0873544
1.089116
1.0909309
1.092807
1.0947415
1.0967331
1.0987795
1.1008781
1.1030255
1.1052177
1.10745
1.1097172
1.1120133
1.1143318
1.1166655
1.1190071
1.1213484
1.1236813
1.1259974
1.1282883
1.1305457
1.1327618
1.1349288
1.1370398
1.1390884
1.1410691
1.142977
1.1448084
1.1465603
1.1482306
1.1498182
1.1513227
1.1527446
1.154085
1.1553455
1.1565282
1.1576357
1.1586707
1.1596362
1.1605351
1.1613703
1.1621448
1.1628613
1.1635222
1.1641296
1.1646853
1.1651906
1.1656464
1.1660534
1.166412
1.1667223
1.1669851
1.167201
1.1673716
1.1674992
1.1675881
1.167646
1.1676835
1.1677146
1.167759
1.1678468
1.1680038
1.1682266
1.1685154
1.1688339
1.1688026
1.1683537
1.1688634
1.045733
1.0817345
1.0665688
1.0778795
1.0729137
1.0781649
1.0771748
1.0801099
1.0809589
1.083023
1.0846017
1.0864654
1.088322
1.0902634
1.0922646
1.0943297
1.0964557
1.0986401
1.1008797
1.1031704
1.1055076
1.1078856
1.1102983
1.1127386
1.1151988
1.1176708
1.1201456
1.1226141
1.1250669
1.1274944
1.1298871
1.132236
1.1345321
1.1367674
1.1389343
1.1410263
1.1430379
1.1449644
1.1468025
1.1485497
1.1502048
1.1517674
1.1532382
1.1546188
1.1559111
1.1571181
1.1582428
1.1592889
1.1602601
1.1611601
1.161993
1.1627624
1.163472
1.1641251
1.1647249
1.1652741
1.1657749
1.1662293
1.1666387
1.1670041
1.167326
1.167605
1.1678413
1.1680353
1.1681878
1.1682998
1.1683738
1.1684141
1.1684282
1.1684273
1.1684257
1.168445
1.1685137
1.1686482
1.168844
1.1691109
1.169363
1.1691889
1.1687712
1.1693523
1.0454062
1.0817557
1.066354
1.0780848
1.0729834
1.0784909
1.0776502
1.0808035
1.0818205
1.084034
1.0858342
1.0878842
1.0899518
1.0921019
1.0943172
1.0965985
1.0989419
1.1013437
1.103799
1.1063021
1.1088463
1.1114243
1.1140276
1.1166472
1.1192732
1.1218955
1.1245032
1.1270854
1.1296314
1.1321305
1.1345723
1.1369473
1.1392468
1.1414628
1.1435889
1.1456195
1.1475506
1.1493794
1.1511045
1.1527256
1.1542435
1.1556602
1.1569785
1.1582019
1.1593343
1.1603803
1.1613446
1.162232
1.1630473
1.1637954
1.1644808
1.1651079
1.1656808
1.1662031
1.1666781
1.1671087
1.1674973
1.1678456
1.1681552
1.1684269
1.1686613
1.1688587
1.1690194
1.1691437
1.169232
1.1692853
1.1693059
1.1692981
1.1692697
1.1692318
1.1691999
1.1691967
1.1692466
1.1693569
1.1695261
1.1697658
1.1699324
1.169625
1.1692669
1.1699411
1.0455139
1.0822045
1.0665732
1.0784944
1.0735399
1.0793391
1.0787083
1.0820096
1.0833119
1.0857018
1.0877585
1.0900293
1.0923388
1.0947298
1.0971897
1.0997164
1.1023047
1.104949
1.1076422
1.1103763
1.1131423
1.11593
1.1187287
1.1215266
1.1243116
1.1270711
1.1297925
1.1324634
1.1350717
1.1376061
1.140056
1.1424123
1.144667
1.1468135
1.1488471
1.1507644
1.1525637
1.1542448
1.1558091
1.1572588
1.1585976
1.1598299
1.1609607
1.1619955
1.1629403
1.163801
1.1645836
1.1652941
1.1659382
1.1665212
1.1670484
1.1675242
1.1679531
1.1683387
1.1686844
1.1689928
1.1692664
1.1695067
1.1697151
1.1698923
1.1700388
1.1701548
1.1702404
1.1702957
1.1703208
1.1703168
1.1702857
1.1702321
1.1701639
1.1700921
1.1700333
1.1700106
1.1700423
1.1701274
1.1702707
1.1704812
1.1705558
1.1701342
1.1698326
1.1706374
1.046139
1.0831544
1.0673301
1.0795565
1.0747631
1.0808052
1.0804338
1.0839163
1.0855313
1.088126
1.0904734
1.0930034
1.0955893
1.0982566
1.1009945
1.1037982
1.1066603
1.1095721
1.1125238
1.1155042
1.1185011
1.1215011
1.1244904
1.1274543
1.1303782
1.1332475
1.1360479
1.1387657
1.1413886
1.1439053
1.1463062
1.1485836
1.1507315
1.1527462
1.1546255
1.1563695
1.1579799
1.1594598
1.1608137
1.1620472
1.1631665
1.1641785
1.1650906
1.16591
1.1666442
1.1673005
1.1678857
1.1684065
1.1688691
1.1692791
1.1696419
1.1699622
1.170244
1.170491
1.1707063
1.1708923
1.1710512
1.1711844
1.1712929
1.1713773
1.1714379
1.1714745
1.1714873
1.1714759
1.1714407
1.1713822
1.1713028
1.1712072
1.1711029
1.1710014
1.1709202
1.1708809
1.1708947
1.170955
1.1710742
1.1712509
1.1712252
1.1706918
1.1704619
1.1714387
1.0472771
1.084613
1.068622
1.0812663
1.0766393
1.0829249
1.0828936
1.0865692
1.0885625
1.0914046
1.0940837
1.0969193
1.0998234
1.1028079
1.1058618
1.1089766
1.1121412
1.1153432
1.1185688
1.1218027
1.1250289
1.1282304
1.1313899
1.13449
1.1375137
1.1404448
1.143268
1.1459699
1.1485387
1.1509651
1.153242
1.1553648
1.1573313
1.1591417
1.1607983
1.1623052
1.1636682
1.1648942
1.1659912
1.1669677
1.1678326
1.1685951
1.169264
1.1698483
1.1703563
1.1707959
1.1711747
1.1714993
1.1717762
1.1720109
1.1722085
1.1723734
1.1725095
1.1726199
1.1727074
1.1727741
1.1728218
1.1728514
1.1728637
1.1728591
1.1728376
1.1727989
1.1727428
1.1726689
1.1725774
1.172469
1.1723459
1.1722129
1.1720774
1.1719512
1.1718519
1.1717986
1.1717948
1.1718322
1.1719306
1.1720666
1.1719329
1.1713017
1.1712085
1.1723199
1.0489819
1.0866325
1.0705111
1.0836041
1.0792542
1.085792
1.0861921
1.0900865
1.0925194
1.0956647
1.0987238
1.1019197
1.1051909
1.1085385
1.1119482
1.1154065
1.1188975
1.1224036
1.1259063
1.1293855
1.1328209
1.1361916
1.1394771
1.1426577
1.145715
1.1486323
1.1513954
1.1539929
1.1564162
1.15866
1.1607219
1.1626026
1.1643051
1.165835
1.1671997
1.1684081
1.1694701
1.1703964
1.1711979
1.1718857
1.1724709
1.1729639
1.1733749
1.1737133
1.1739879
1.1742069
1.1743776
1.1745065
1.1745997
1.1746623
1.1746988
1.1747133
1.1747089
1.1746885
1.1746541
1.1746075
1.1745498
1.1744818
1.1744039
1.1743161
1.1742182
1.1741097
1.1739901
1.1738592
1.1737168
1.1735638
1.1734025
1.1732375
1.1730761
1.1729301
1.1728172
1.1727517
1.1727306
1.1727483
1.1728293
1.1729199
1.1726841
1.1720046
1.1720967
1.1732819
1.0513149
1.0892728
1.0731077
1.0866923
1.0827057
1.0895089
1.0904457
1.0946013
1.0975455
1.1010689
1.1045687
1.1081881
1.1118805
1.1156366
1.1194369
1.1232615
1.1270885
1.1308946
1.1346552
1.1383454
1.1419401
1.1454152
1.148748
1.1519178
1.1549074
1.1577026
1.1602931
1.1626729
1.1648394
1.166794
1.1685413
1.1700887
1.1714457
1.1726239
1.1736356
1.1744942
1.1752133
1.1758064
1.1762868
1.1766671
1.1769594
1.1771748
1.1773237
1.1774155
1.1774588
1.1774612
1.1774295
1.1773696
1.1772869
1.1771858
1.1770701
1.176943
1.1768071
1.1766646
1.176517
1.1763654
1.1762106
1.1760529
1.1758923
1.1757286
1.1755613
1.1753898
1.1752133
1.1750316
1.1748445
1.174653
1.1744594
1.1742679
1.1740857
1.173925
1.1738019
1.1737249
1.1736868
1.1736884
1.1737556
1.1738012
1.1734804
1.1728026
1.1730708
1.1743263
1.0543348
1.0925677
1.0765397
1.0906051
1.087119
1.094213
1.0958201
1.1003119
1.1038506
1.1078419
1.1118501
1.1159552
1.1201167
1.1243155
1.128525
1.1327179
1.1368647
1.1409349
1.1448979
1.1487234
1.1523832
1.1558516
1.159107
1.1621321
1.1649147
1.1674476
1.1697288
1.1717607
1.1735502
1.1751071
1.1764441
1.177576
1.1785187
1.1792887
1.1799028
1.1803777
1.1807292
1.1809726
1.181122
1.1811905
1.1811903
1.1811321
1.1810257
1.1808799
1.1807023
1.1804996
1.1802778
1.1800417
1.1797958
1.1795435
1.1792879
1.1790313
1.1787756
1.1785222
1.178272
1.1780257
1.1777835
1.1775453
1.1773108
1.1770795
1.1768508
1.1766237
1.1763975
1.1761718
1.1759466
1.1757228
1.1755026
1.1752899
1.1750918
1.1749205
1.1747891
1.1747003
1.1746457
1.1746357
1.1746925
1.1746936
1.174305
1.1736732
1.1741284
1.1754107
1.0581119
1.0965264
1.0809369
1.0954922
1.0926985
1.1001493
1.1025771
1.1075004
1.1117147
1.1162618
1.1208389
1.1254795
1.1301417
1.1347951
1.1394038
1.1439301
1.1483356
1.1525822
1.156634
1.1604586
1.1640289
1.1673235
1.1703277
1.1730338
1.1754405
1.1775523
1.1793789
1.1809341
1.1822349
1.1833002
1.1841504
1.1848063
1.1852887
1.1856177
1.1858126
1.1858914
1.1858708
1.185766
1.185591
1.1853581
1.1850784
1.1847617
1.1844164
1.18405
1.183669
1.1832788
1.1828841
1.1824887
1.1820958
1.1817081
1.1813275
1.1809556
1.1805935
1.1802419
1.1799012
1.1795714
1.1792523
1.1789437
1.1786447
1.1783547
1.1780728
1.177798
1.1775294
1.1772666
1.1770096
1.1767594
1.1765179
1.1762887
1.1760791
1.1759
1.1757607
1.175659
1.1755895
1.175572
1.175619
1.1755767
1.1751502
1.1746172
1.1752393
1.1764699
1.0628352
1.1012926
1.0865293
1.1016818
1.0997778
1.1076491
1.1110409
1.1164919
1.1214504
1.1266325
1.1318285
1.1370352
1.142201
1.1472803
1.1522236
1.1569821
1.1615092
1.1657636
1.1697105
1.1733237
1.1765858
1.1794886
1.1820323
1.1842249
1.1860807
1.1876187
1.1888617
1.1898345
1.1905632
1.191074
1.1913926
1.1915433
1.1915494
1.1914321
1.191211
1.1909037
1.1905259
1.1900917
1.1896134
1.1891017
1.1885661
1.1880146
1.1874541
1.1868904
1.1863284
1.1857722
1.1852252
1.18469
1.1841686
1.1836628
1.1831735
1.1827016
1.1822475
1.1818111
1.1813923
1.1809907
1.1806058
1.1802369
1.1798829
1.1795431
1.1792163
1.1789014
1.1785976
1.1783042
1.1780214
1.1777501
1.1774918
1.1772503
1.1770323
1.1768468
1.1766987
1.176583
1.1765004
1.1764778
1.1765134
1.1764352
1.1760039
1.1755819
1.1763327
1.1774333
1.0687896
1.1074345
1.0937183
1.1095148
1.108705
1.117038
1.1215426
1.1276409
1.133414
1.1393023
1.1451452
1.1509042
1.15651
1.1618994
1.1670109
1.1717905
1.1761938
1.1801878
1.1837525
1.1868797
1.189573
1.1918454
1.1937181
1.1952178
1.196375
1.1972225
1.1977938
1.1981217
1.198238
1.1981724
1.1979524
1.1976032
1.1971474
1.196605
1.1959938
1.1953295
1.1946257
1.1938939
1.1931444
1.1923855
1.1916247
1.190868
1.1901203
1.1893859
1.1886681
1.1879695
1.1872923
1.1866379
1.1860073
1.1854012
1.18482
1.1842636
1.1837316
1.1832238
1.1827394
1.1822776
1.1818375
1.1814181
1.1810185
1.1806373
1.1802734
1.1799256
1.1795931
1.1792751
1.1789718
1.1786837
1.1784125
1.1781617
1.1779372
1.1777454
1.1775869
1.1774566
1.1773627
1.1773358
1.1773565
1.177242
1.1768114
1.1765103
1.1773667
1.1782889
1.0761655
1.115513
1.1027014
1.1192213
1.1198517
1.1287352
1.1345213
1.1414186
1.1480633
1.154677
1.16111
1.1672897
1.1731311
1.1785627
1.1835267
1.187982
1.1919055
1.195291
1.1981472
1.2004957
1.2023675
1.2038002
1.2048352
1.2055159
1.2058851
1.2059844
1.2058527
1.205526
1.2050371
1.2044152
1.2036862
1.2028728
1.2019949
1.2010695
1.2001113
1.1991329
1.1981448
1.1971558
1.1961735
1.1952039
1.1942521
1.1933221
1.1924172
1.1915399
1.190692
1.1898749
1.1890895
1.1883362
1.1876152
1.1869263
1.1862691
1.1856429
1.185047
1.1844803
1.1839419
1.1834307
1.1829454
1.1824849
1.182048
1.1816332
1.1812394
1.1808653
1.1805098
1.1801724
1.179853
1.1795519
1.1792707
1.1790125
1.1787822
1.178583
1.1784123
1.1782672
1.1781634
1.1781298
1.1781277
1.1779747
1.1775653
1.1773999
1.1782954
1.1790624
1.0850934
1.1253791
1.1140885
1.1313449
1.1338613
1.1434325
1.1506244
1.1584212
1.1658841
1.173076
1.1798444
1.1860999
1.1917646
1.1967876
1.2011427
1.2048281
1.2078619
1.2102785
1.2121239
1.2134511
1.2143168
1.2147779
1.2148899
1.2147048
1.2142707
1.2136306
1.2128232
1.2118823
1.2108371
1.2097132
1.2085321
1.2073123
1.2060693
1.2048162
1.2035639
1.2023212
1.2010957
1.1998932
1.1987187
1.1975759
1.1964677
1.1953964
1.1943635
1.1933701
1.1924168
1.1915038
1.1906309
1.1897978
1.1890039
1.1882482
1.1875297
1.1868473
1.1861997
1.1855857
1.185004
1.184453
1.1839316
1.1834382
1.1829716
1.1825302
1.1821128
1.1817179
1.1813446
1.1809921
1.1806601
1.1803489
1.1800595
1.1797949
1.1795582
1.1793498
1.1791656
1.1790062
1.1788926
1.1788471
1.1788145
1.1786288
1.1782618
1.1782227
1.1791239
1.1797559
1.0963148
1.1379503
1.1287821
1.1468353
1.1516856
1.1620261
1.1705534
1.179126
1.1870853
1.1944067
1.2009657
1.2067013
1.2115853
1.2156242
1.2188521
1.2213235
1.2231067
1.2242769
1.2249115
1.2250863
1.2248726
1.2243355
1.2235339
1.2225192
1.2213363
1.2200239
1.2186148
1.2171368
1.2156131
1.2140631
1.212503
1.2109459
1.2094026
1.2078821
1.2063911
1.2049355
1.2035195
1.2021465
1.2008189
1.1995385
1.1983064
1.1971233
1.1959894
1.1949044
1.193868
1.1928794
1.1919377
1.1910418
1.1901903
1.1893819
1.1886151
1.1878884
1.1872001
1.1865488
1.1859329
1.1853508
1.1848009
1.1842818
1.183792
1.1833299
1.1828941
1.1824832
1.1820962
1.1817321
1.1813903
1.1810708
1.1807745
1.1805034
1.1802591
1.1800396
1.1798409
1.1796677
1.1795427
1.1794785
1.1794107
1.1792039
1.1788928
1.1789597
1.179836
1.1803288
1.1113937
1.154327
1.1480604
1.1667643
1.1742928
1.1852874
1.1946661
1.2034433
1.2111712
1.2178274
1.2233766
1.2278431
1.2312864
1.233793
1.2354648
1.2364092
1.2367329
1.2365366
1.235912
1.2349408
1.2336942
1.2322332
1.2306095
1.2288666
1.2270403
1.2251605
1.2232516
1.2213333
1.2194219
1.2175301
1.2156685
1.213845
1.2120661
1.2103366
1.2086602
1.2070395
1.2054763
1.2039718
1.2025264
1.2011403
1.1998131
1.1985441
1.1973326
1.1961774
1.1950771
1.1940304
1.1930357
1.1920912
1.1911954
1.1903463
1.1895421
1.188781
1.1880613
1.1873811
1.1867386
1.1861323
1.1855605
1.1850216
1.1845139
1.1840359
1.1835861
1.183163
1.1827654
1.1823922
1.1820425
1.181716
1.1814131
1.1811349
1.1808812
1.180649
1.1804355
1.1802488
1.1801092
1.1800197
1.1799161
1.1797004
1.1794528
1.1795996
1.1804124
1.1807687
1.1318263
1.1758114
1.1733575
1.1921548
1.202065
1.2131758
1.222378
1.230269
1.2366832
1.2416875
1.2453782
1.2478933
1.2493861
1.2500123
1.24992
1.2492436
1.2481017
1.2465958
1.2448118
1.2428208
1.2406815
1.2384415
1.2361393
1.2338058
1.2314659
1.2291389
1.2268403
1.224582
1.2223735
1.2202216
1.2181317
1.2161074
1.2141515
1.2122657
1.2104507
1.2087069
1.2070341
1.2054316
1.2038985
1.2024336
1.2010354
1.1997025
1.198433
1.1972251
1.1960769
1.1949865
1.1939518
1.1929708
1.1920413
1.1911612
1.1903286
1.1895413
1.1887974
1.1880951
1.1874323
1.1868075
1.1862189
1.1856647
1.1851434
1.1846533
1.1841928
1.1837603
1.1833545
1.1829739
1.1826175
1.1822844
1.1819748
1.1816884
1.181424
1.1811781
1.1809501
1.1807491
1.1805913
1.1804725
1.1803364
1.1801216
1.1799302
1.1801113
1.1808081
1.1810514
1.1602191
1.2032032
1.2057762
1.2239027
1.234185
1.2440772
1.251696
1.2574389
1.2614346
1.2639224
1.2651392
1.2653169
1.2646646
1.2633637
1.2615671
1.2594006
1.2569663
1.2543457
1.2516036
1.2487907
1.2459469
1.2431028
1.2402822
1.2375033
1.2347797
1.2321217
1.2295368
1.2270303
1.2246057
1.2222655
1.2200107
1.2178419
1.2157587
1.2137605
1.2118459
1.2100137
1.208262
1.206589
1.2049926
1.2034707
1.2020212
1.2006416
1.1993298
1.1980834
1.1969001
1.1957775
1.1947131
1.1937048
1.1927502
1.1918469
1.1909928
1.1901856
1.1894234
1.1887042
1.188026
1.187387
1.1867854
1.1862196
1.1856878
1.1851882
1.1847193
1.1842793
1.1838667
1.1834799
1.1831173
1.1827779
1.182461
1.1821656
1.1818894
1.1816295
1.1813869
1.1811701
1.1809902
1.1808378
1.1806691
1.1804553
1.1803016
1.1804785
1.1810306
1.1811714
1.1991612
1.2383116
1.2441117
1.2594657
1.2686219
1.2755522
1.2799502
1.282365
1.2831585
1.2826969
1.2812802
1.2791565
1.276523
1.2735337
1.2703077
1.2669357
1.2634866
1.260012
1.2565507
1.2531311
1.2497742
1.2464952
1.2433048
1.2402104
1.2372168
1.2343269
1.2315419
1.2288623
1.2262875
1.2238162
1.2214468
1.2191773
1.2170053
1.2149284
1.212944
1.2110494
1.209242
1.2075188
1.2058772
1.2043144
1.2028277
1.2014142
1.2000714
1.1987966
1.197587
1.1964402
1.1953535
1.1943243
1.1933503
1.1924291
1.1915582
1.1907354
1.1899587
1.189226
1.1885354
1.1878849
1.1872728
1.1866974
1.1861568
1.1856492
1.185173
1.1847263
1.1843074
1.1839144
1.1835456
1.1831995
1.1828747
1.1825693
1.1822804
1.1820057
1.1817469
1.1815112
1.1813037
1.1811127
1.1809094
1.1806933
1.1805658
1.1807056
1.1811003
1.1811542
1.246836
1.2794836
1.2866748
1.2965051
1.3014281
1.303779
1.303949
1.302589
1.3001334
1.2969283
1.2932269
1.2892153
1.2850283
1.2807625
1.2764871
1.2722506
1.2680872
1.2640204
1.260066
1.2562341
1.2525309
1.2489596
1.2455214
1.2422158
1.2390414
1.2359959
1.2330765
1.23028
1.2276032
1.2250424
1.2225941
1.2202547
1.2180205
1.215888
1.2138536
1.2119139
1.2100656
1.2083051
1.2066295
1.2050354
1.2035198
1.2020797
1.2007122
1.1994143
1.1981833
1.1970164
1.1959108
1.1948639
1.1938732
1.1929362
1.1920505
1.1912139
1.1904241
1.1896792
1.1889771
1.188316
1.187694
1.1871093
1.1865601
1.1860445
1.1855608
1.1851069
1.1846811
1.1842813
1.1839056
1.1835521
1.1832184
1.1829019
1.1825991
1.1823081
1.1820305
1.1817715
1.1815329
1.1813048
1.1810723
1.180853
1.1807277
1.1808029
1.1810473
1.1810643
1.3010158
1.3217617
1.3263476
1.328736
1.3279556
1.3253156
1.3214321
1.316796
1.3117293
1.3064497
1.3011019
1.2957807
1.2905481
1.2854435
1.2804911
1.2757052
1.2710931
1.2666575
1.262398
1.2583123
1.2543965
1.2506462
1.2470561
1.243621
1.2403354
1.2371939
1.234191
1.2313217
1.2285807
1.2259631
1.2234642
1.2210794
1.2188044
1.2166349
1.2145668
1.2125963
1.2107195
1.2089328
1.2072328
1.205616
1.2040792
1.2026192
1.201233
1.1999175
1.1986698
1.197487
1.1963665
1.1953054
1.1943013
1.1933515
1.1924536
1.1916055
1.1908049
1.1900497
1.1893381
1.1886679
1.1880375
1.1874449
1.1868882
1.1863655
1.1858749
1.1854143
1.1849818
1.1845753
1.1841928
1.1838319
1.1834899
1.1831631
1.1828478
1.1825417
1.1822455
1.1819624
1.1816935
1.1814329
1.1811759
1.1809435
1.1807983
1.1808105
1.1809334
1.1809285
1.3539961
1.3573511
1.3561575
1.351705
1.3458788
1.3393051
1.3324502
1.3255564
1.3187705
1.3121718
1.3058036
1.2996861
1.2938263
1.2882235
1.2828721
1.2777641
1.2728899
1.2682397
1.2638031
1.2595703
1.2555317
1.251678
1.2480004
1.2444908
1.2411414
1.2379449
1.2348943
1.2319832
1.2292055
1.2265556
1.2240278
1.2216172
1.2193189
1.2171282
1.2150409
1.2130526
1.2111595
1.2093577
1.2076436
1.2060136
1.2044644
1.2029927
1.2015955
1.2002695
1.1990119
1.1978198
1.1966903
1.1956208
1.1946086
1.1936511
1.192746
1.1918909
1.1910838
1.1903224
1.1896049
1.1889292
1.1882935
1.1876959
1.1871344
1.1866068
1.1861112
1.1856454
1.1852074
1.1847951
1.1844067
1.1840396
1.1836909
1.1833564
1.1830316
1.1827135
1.1824017
1.182098
1.1818032
1.1815161
1.1812397
1.1809925
1.1808223
1.1807697
1.1808071
1.1807948
1.3881311
1.3805611
1.3730485
1.3647859
1.3562004
1.3477049
1.3394674
1.3315625
1.3240191
1.3168406
1.3100186
1.3035386
1.2973834
1.291535
1.2859758
1.2806888
1.2756581
1.2708686
1.2663068
1.2619597
1.2578157
1.2538639
1.2500944
1.2464979
1.2430659
1.2397905
1.2366643
1.2336805
1.2308327
1.228115
1.2255217
1.2230475
1.2206876
1.2184372
1.2162919
1.2142474
1.2122997
1.210445
1.2086796
1.207
1.2054027
1.2038846
1.2024423
1.201073
1.1997735
1.1985411
1.1973727
1.1962658
1.1952177
1.1942257
1.1932875
1.1924007
1.1915631
1.1907728
1.1900275
1.1893255
1.1886647
1.1880433
1.187459
1.1869097
1.1863932
1.1859073
1.1854499
1.1850191
1.184613
1.1842294
1.1838654
1.1835162
1.1831768
1.1828436
1.1825155
1.1821924
1.1818775
1.181576
1.1812927
1.1810138
1.1808251
1.1807328
1.1807215
1.1807065
1.1634533
1.1689659
1.1834696
1.1953079
1.2008151
1.2021012
1.2021746
1.2018486
1.2018736
1.2015835
1.2013209
1.2007734
1.2002081
1.1995324
1.1988338
1.1981007
1.1973316
1.1965319
1.1957066
1.1948599
1.1939958
1.1931176
1.1922287
1.191332
1.1904301
1.1895254
1.18862
1.1877161
1.1868153
1.1859193
1.1850299
1.1841483
1.183276
1.1824142
1.1815643
1.1807275
1.1799048
1.1790975
1.1783066
1.1775332
1.1767786
1.1760436
1.1753296
1.1746374
1.1739682
1.1733231
1.1727029
1.1721089
1.171542
1.1710031
1.1704934
1.1700138
1.1695653
1.169149
1.1687658
1.1684169
1.1681031
1.1678256
1.1675851
1.1673822
1.1672173
1.16709
1.1669996
1.1669446
1.1669217
1.1669278
1.1669551
1.167002
1.1670469
1.167104
1.1671009
1.1671128
1.1669331
1.1668078
1.1663405
1.166074
1.1656484
1.1655202
1.1658172
1.1656422
1.1602976
1.1711289
1.187297
1.1955593
1.1978304
1.1977489
1.1972412
1.1969916
1.1966729
1.1963692
1.1959753
1.1955772
1.1951254
1.1946474
1.194128
1.1935744
1.1929888
1.1923748
1.1917346
1.1910706
1.1903852
1.1896807
1.1889593
1.1882234
1.1874751
1.1867167
1.1859503
1.1851779
1.1844014
1.183623
1.1828444
1.1820674
1.1812938
1.1805254
1.1797636
1.1790102
1.1782666
1.1775345
1.1768152
1.1761103
1.1754211
1.174749
1.1740955
1.1734618
1.1728492
1.1722589
1.1716922
1.1711503
1.1706343
1.1701453
1.1696844
1.1692527
1.1688513
1.1684811
1.1681431
1.1678383
1.1675676
1.1673318
1.1671315
1.1669673
1.1668389
1.166746
1.1666876
1.1666618
1.1666653
1.1666945
1.166742
1.1668051
1.1668639
1.1669299
1.1669357
1.1669485
1.1667731
1.166649
1.1661957
1.165958
1.1655629
1.1655078
1.1657994
1.1656877
1.1609994
1.1742603
1.1858156
1.1921556
1.1931534
1.1926882
1.1921681
1.1918987
1.1915992
1.1913127
1.190976
1.1906364
1.1902622
1.1898735
1.1894575
1.1890221
1.1885636
1.1880841
1.1875835
1.1870629
1.1865232
1.1859653
1.1853906
1.1848003
1.1841957
1.1835783
1.1829497
1.1823113
1.1816649
1.1810121
1.1803545
1.179694
1.1790321
1.1783708
1.1777116
1.1770563
1.1764066
1.1757643
1.175131
1.1745085
1.1738982
1.173302
1.1727213
1.1721578
1.1716129
1.171088
1.1705846
1.170104
1.1696475
1.1692164
1.1688118
1.1684349
1.1680869
1.1677686
1.1674811
1.1672254
1.1670021
1.1668119
1.1666554
1.1665327
1.1664435
1.1663872
1.1663625
1.1663674
1.1663986
1.1664522
1.1665208
1.1666015
1.1666752
1.1667513
1.1667666
1.1667819
1.166611
1.1664921
1.1660542
1.1658485
1.1654855
1.1654979
1.1657855
1.1657371
1.1589368
1.1730322
1.1835328
1.1882228
1.1880597
1.1876609
1.187208
1.187001
1.1866755
1.1864177
1.1860988
1.1858098
1.1854886
1.1851717
1.1848344
1.1844886
1.1841275
1.1837536
1.1833655
1.1829629
1.1825458
1.1821141
1.1816681
1.1812082
1.1807348
1.1802486
1.1797504
1.1792413
1.1787222
1.1781945
1.1776593
1.1771181
1.1765724
1.1760238
1.1754738
1.1749241
1.1743764
1.1738324
1.1732939
1.1727626
1.1722404
1.171729
1.1712301
1.1707454
1.1702765
1.1698251
1.1693928
1.168981
1.1685911
1.1682246
1.1678826
1.1675665
1.1672774
1.1670162
1.1667841
1.1665817
1.1664097
1.1662688
1.1661591
1.1660808
1.1660332
1.1660155
1.1660264
1.1660635
1.1661236
1.1662026
1.1662934
1.1663926
1.1664818
1.1665689
1.1665936
1.1666127
1.1664468
1.1663357
1.1659146
1.165744
1.1654145
1.1654903
1.1657786
1.1657811
1.1533224
1.169393
1.1791294
1.1826499
1.1820998
1.1820082
1.1816383
1.1815703
1.1813199
1.181181
1.1809535
1.1807741
1.1805512
1.180342
1.1801104
1.1798745
1.179624
1.1793632
1.1790898
1.1788038
1.1785049
1.1781929
1.1778678
1.1775297
1.1771789
1.1768156
1.1764403
1.1760536
1.1756563
1.1752491
1.1748331
1.1744094
1.173979
1.1735434
1.173104
1.1726622
1.1722195
1.1717778
1.1713386
1.1709037
1.1704749
1.170054
1.1696428
1.1692429
1.1688563
1.1684846
1.1681293
1.1677922
1.1674748
1.1671784
1.1669045
1.1666542
1.1664288
1.1662293
1.1660565
1.1659113
1.1657943
1.1657057
1.1656458
1.1656143
1.1656105
1.1656333
1.1656811
1.1657518
1.1658419
1.1659473
1.1660611
1.1661796
1.166285
1.1663837
1.1664175
1.1664424
1.1662826
1.1661793
1.1657786
1.1656464
1.1653504
1.1654866
1.1657775
1.1658271
1.1473452
1.1657985
1.1741944
1.1770775
1.1763754
1.176544
1.176221
1.1762941
1.1761111
1.1760871
1.1759429
1.1758675
1.1757361
1.175627
1.1754922
1.1753562
1.1752051
1.1750453
1.1748742
1.1746919
1.1744985
1.1742934
1.1740768
1.1738486
1.1736087
1.1733573
1.1730946
1.1728209
1.1725366
1.1722424
1.1719389
1.1716268
1.1713072
1.1709811
1.1706496
1.1703141
1.1699759
1.1696366
1.1692977
1.1689609
1.1686279
1.1683004
1.1679802
1.167669
1.1673686
1.1670807
1.166807
1.1665491
1.1663085
1.1660867
1.1658851
1.1657049
1.1655472
1.1654131
1.1653034
1.1652188
1.1651597
1.1651262
1.1651185
1.165136
1.1651778
1.1652427
1.165329
1.1654343
1.1655552
1.1656878
1.1658255
1.1659638
1.166086
1.1661968
1.1662399
1.1662714
1.1661188
1.1660233
1.1656467
1.1655566
1.1652929
1.1654873
1.1657823
1.1658745
1.1421575
1.1623745
1.1693319
1.1719133
1.1711087
1.1714823
1.1711696
1.1713554
1.1712138
1.1712803
1.1712006
1.171214
1.1711594
1.1711295
1.1710695
1.1710139
1.1709448
1.17087
1.170786
1.1706931
1.1705911
1.1704794
1.1703579
1.1702264
1.1700847
1.1699329
1.1697709
1.1695989
1.1694171
1.169226
1.1690259
1.1688174
1.1686013
1.1683783
1.1681496
1.1679161
1.167679
1.1674397
1.1671996
1.1669601
1.1667229
1.1664895
1.1662617
1.1660409
1.165829
1.1656276
1.1654384
1.1652628
1.1651023
1.1649585
1.1648326
1.1647258
1.1646391
1.1645736
1.1645299
1.1645086
1.16451
1.1645341
1.1645806
1.164649
1.164738
1.1648463
1.1649721
1.165113
1.1652656
1.1654261
1.1655881
1.1657468
1.1658861
1.1660092
1.1660623
1.1661
1.1659561
1.1658722
1.1655201
1.1654723
1.1652418
1.1654928
1.1657895
1.1659237
1.1373269
1.159373
1.164796
1.1672569
1.1663466