/*--------------------------------*- C++ -*----------------------------------*\
  =========                 |
  \\      /  F ield         | OpenFOAM: The Open Source CFD Toolbox
   \\    /   O peration     | Website:  https://openfoam.org
    \\  /    A nd           | Version:  12
     \\/     M anipulation  |
\*---------------------------------------------------------------------------*/
FoamFile
{
    format      ascii;
    class       volScalarField;
    location    "1350";
    object      k;
}
// * * * * * * * * * * * * * * * * * * * * * * * * * * * * * * * * * * * * * //

dimensions      [0 2 -2 0 0 0 0];

internalField   nonuniform List<scalar> 
16200
(
445.672476
512.2659282
467.9237863
424.6338273
367.9159912
281.2630342
158.4274086
46.8073873
5.462579692
0.1904520786
0.002074439157
0.001015016043
0.0009690219671
0.000943718524
0.0009296355891
0.0009213235061
0.000915937028
0.0009127296073
0.0009111085595
0.0009105965871
0.0009109473921
0.0009120162385
0.0009137115516
0.0009159816714
0.0009188028271
0.0009221684423
0.0009260791259
0.0009305313403
0.000935504381
0.0009409456085
0.0009467552569
0.0009527774283
0.0009588073809
0.0009646197517
0.000970007786
0.0009748148408
0.0009789476045
0.0009823718707
0.0009850987454
0.0009871681494
0.000988632707
0.0009895422879
0.0009899291895
0.0009897891423
0.0009890343358
0.0009873673353
0.0009849972783
0.0009839070366
0.000983478595
0.0009833394752
0.00098333445
0.0009834072721
0.0009835485084
0.0009837741148
0.0009841184858
0.0009846360857
0.0009854087417
0.0009865652012
0.0009883196518
0.0009910929872
467.408135
530.7217069
476.9202275
424.0816306
355.2433597
253.1564532
120.6241495
27.31343843
2.239738966
0.05073936162
0.001160904021
0.0009974372731
0.0009562587467
0.0009332162579
0.0009204356307
0.000913010733
0.0009082867674
0.0009055995484
0.0009044173474
0.000904297115
0.0009050169616
0.0009064512816
0.0009085239147
0.0009111958111
0.0009144531039
0.0009182957744
0.0009227262025
0.0009277356227
0.0009332882779
0.0009393041965
0.0009456449622
0.0009521126479
0.0009584708202
0.0009644845257
0.0009699617078
0.0009747767467
0.0009788715815
0.0009822417108
0.0009849177992
0.0009869493854
0.0009883917135
0.00098929397
0.0009896882598
0.0009895771597
0.000988900327
0.0009874241954
0.000985073352
0.0009839786933
0.0009835536925
0.0009834217725
0.000983425179
0.0009835061345
0.0009836541729
0.0009838843761
0.0009842304031
0.0009847460375
0.00098551333
0.0009866629919
0.0009884176763
0.0009912323026
488.6560326
547.0584096
483.0912977
419.7709911
337.1080861
219.4015937
84.51689143
14.12339911
0.7762839062
0.01149731191
0.001061024431
0.0009821530758
0.0009448372961
0.0009238999573
0.0009123566024
0.0009057722974
0.0009016896523
0.000899516765
0.0008987777322
0.0008990624831
0.0009001728602
0.0009020018426
0.000904488514
0.0009076061832
0.0009113500089
0.0009157243179
0.0009207289137
0.0009263424167
0.0009325029037
0.0009390894027
0.0009459133822
0.0009527320831
0.000959286048
0.0009653472285
0.0009707556342
0.000975429661
0.0009793536412
0.0009825552893
0.0009850846443
0.0009869994183
0.0009883554827
0.0009891989223
0.0009895582808
0.0009894372484
0.0009887937501
0.0009874592352
0.0009851495669
0.0009840551161
0.0009836330141
0.0009835063064
0.0009835161325
0.000983603677
0.0009837575758
0.0009839920698
0.0009843400335
0.000984854563
0.000985617701
0.0009867618554
0.000988517045
0.0009913692486
508.3102505
559.8857361
485.6304406
410.8329039
312.8727085
180.4697578
53.8235783
6.449925504
0.2312795426
0.002636940701
0.001030712951
0.0009686699481
0.000934904087
0.0009159537329
0.0009055932029
0.0008998064034
0.0008963433811
0.0008946766317
0.0008943819233
0.0008950813456
0.0008965999942
0.0008988486824
0.0009017809504
0.0009053810231
0.0009096503748
0.00091459303
0.0009201988731
0.0009264231848
0.0009331644728
0.0009402489019
0.000947434621
0.0009544440489
0.0009610149493
0.000966948032
0.0009721311173
0.0009765336426
0.0009801824386
0.0009831339184
0.0009854530472
0.0009872016946
0.0009884331571
0.0009891878363
0.0009894880683
0.0009893343725
0.0009886937375
0.0009874349779
0.0009852031136
0.0009841221068
0.0009837074911
0.0009835871907
0.0009836034758
0.0009836974218
0.0009838571479
0.0009840962209
0.0009844467977
0.0009849613229
0.0009857217282
0.0009868618654
0.0009886182496
0.000991505345
525.9416557
569.5528466
484.7033303
397.800708
284.1119673
139.7917529
31.35120533
2.71348964
0.06346964721
0.001267695158
0.001011866285
0.0009570784065
0.0009265938631
0.0009095148961
0.0009002864241
0.000895261561
0.0008924024225
0.0008912385638
0.0008913932077
0.0008925200527
0.0008944670474
0.0008971619151
0.0009005712187
0.0009046875144
0.0009095142453
0.0009150483021
0.000921259518
0.0009280665039
0.0009353148764
0.0009427716165
0.0009501487182
0.0009571539469
0.0009635472565
0.0009691781503
0.0009739923329
0.0009780111702
0.0009812994582
0.000983936091
0.000985995345
0.00098753905
0.0009886150726
0.0009892562068
0.0009894769007
0.0009892718
0.0009886115951
0.0009873854814
0.000985244138
0.0009841848209
0.0009837800328
0.0009836662661
0.0009836884942
0.0009837883282
0.0009839536294
0.0009841973997
0.0009845511232
0.0009850666136
0.0009858256073
0.0009869631718
0.0009887214853
0.0009916406635
541.0247394
576.2050847
480.3062895
379.7419171
249.4984286
100.4981717
17.65740617
1.093488519
0.01763033817
0.001116141702
0.0009965097682
0.0009474024052
0.0009199606497
0.0009046437886
0.0008964963264
0.0008921994418
0.0008899291771
0.0008892660194
0.0008898765375
0.0008914452918
0.0008938419052
0.0008970090277
0.0009009234921
0.0009055820094
0.0009109836026
0.0009171085998
0.0009238940848
0.0009312082226
0.0009388350844
0.0009464865401
0.0009538474477
0.0009606381408
0.0009666651666
0.0009718408056
0.0009761712509
0.0009797246765
0.0009825956314
0.0009848775416
0.0009866478765
0.0009879643677
0.000988867035
0.0009893797351
0.000989508133
0.0009892394045
0.0009885450313
0.0009873344397
0.0009852703314
0.0009842415121
0.0009838495155
0.0009837429044
0.00098377091
0.0009838763487
0.0009840471104
0.0009842957631
0.0009846531838
0.0009851705879
0.0009859294657
0.0009870658963
0.0009888269726
0.0009917755913
553.393149
580.2303082
472.6999633
355.7731347
208.7549274
66.95865208
9.387492423
0.4312704362
0.005247447025
0.001072363996
0.0009835273051
0.00093954051
0.0009149289689
0.000901277643
0.0008941690409
0.0008905780934
0.0008888920371
0.0008887364738
0.0008898167016
0.0008918469289
0.0008947167755
0.0008983813944
0.0009028243115
0.000908040711
0.00091401659
0.0009207039162
0.0009279934113
0.000935692261
0.0009435233003
0.0009511592154
0.0009582851694
0.0009646619065
0.0009701608305
0.0009747624833
0.0009785291201
0.0009815665021
0.0009839891765
0.0009858971498
0.0009873656247
0.0009884449874
0.0009891657373
0.000989542112
0.0009895707565
0.0009892305303
0.0009884911526
0.0009872815225
0.0009852848325
0.0009842932329
0.0009839163269
0.0009838173414
0.0009838509662
0.0009839617633
0.0009841378944
0.0009843916118
0.0009847532515
0.0009852734659
0.0009860334661
0.0009871701617
0.0009889348628
0.0009919103222
562.8375488
581.6219968
461.6027189
326.7276977
165.1927985
40.09320253
4.716400194
0.1802446334
0.002260546924
0.001048978165
0.0009727468346
0.0009334123211
0.0009114269714
0.0008993487944
0.0008932387619
0.0008903359437
0.0008892314332
0.0008895907883
0.0008911537176
0.0008936631014
0.0008970266075
0.000901208555
0.0009061937944
0.00091196796
0.0009184931357
0.0009256799564
0.000933361127
0.0009412795089
0.0009491083235
0.0009565068898
0.0009631908878
0.0009689842163
0.0009738323921
0.0009777814222
0.0009809400266
0.0009834403038
0.0009854070675
0.0009869398935
0.0009881073811
0.0009889502957
0.0009894886851
0.0009897270368
0.0009896532465
0.0009892376419
0.000988446031
0.0009872252482
0.0009852892354
0.000984340201
0.0009839803613
0.0009838894996
0.0009839286991
0.000984044714
0.0009842261941
0.0009844851897
0.000984851566
0.0009853754534
0.0009861377662
0.0009872760825
0.0009890452835
0.0009920450541
569.2588518
580.0841104
445.015138
291.1126831
122.3190967
23.71658171
2.296349118
0.0783352535
0.001609428531
0.001031366664
0.0009639828114
0.000928900107
0.0009093555514
0.0008987624779
0.0008936089973
0.0008913766478
0.0008908503217
0.0008917312664
0.0008937893598
0.0008967944757
0.0009006688556
0.0009053807398
0.0009109089476
0.0009172198997
0.0009242399532
0.0009318264668
0.0009397476505
0.0009476887336
0.0009552957239
0.0009622455104
0.0009683111491
0.0009733935138
0.0009775120736
0.0009807690693
0.0009833073116
0.0009852738686
0.0009867952816
0.0009879651963
0.0009888425945
0.0009894573298
0.0009898187328
0.0009899218441
0.0009897464308
0.000989254559
0.0009884064099
0.0009871643363
0.0009852859345
0.0009843830851
0.0009840417567
0.0009839594301
0.000984004211
0.0009841253765
0.0009843122395
0.0009845767514
0.0009849483756
0.0009854767646
0.0009862425289
0.0009873837684
0.0009891583292
0.0009921799312
573.081092
575.9244164
422.5871084
248.3945022
83.2579647
13.57842181
1.108384069
0.03674038809
0.001430337194
0.001016862577
0.0009570213326
0.0009258376034
0.0009085678114
0.0008993815736
0.0008951482194
0.0008935758651
0.000893629891
0.0008950429904
0.0008976104059
0.0009011262006
0.0009055224551
0.0009107651001
0.0009168187437
0.000923620186
0.0009310483225
0.0009388983757
0.0009468758502
0.0009546260683
0.0009617977446
0.0009681154574
0.0009734284462
0.0009777181881
0.0009810701636
0.0009836297737
0.0009855609767
0.0009870156683
0.0009881153652
0.0009889439294
0.0009895489573
0.0009899489368
0.0009901427361
0.0009901165495
0.0009898428436
0.0009892760372
0.0009883694252
0.0009870974639
0.0009852769847
0.0009844224643
0.0009841006289
0.0009840271734
0.0009840775923
0.000984203912
0.0009843962469
0.0009846665407
0.0009850439222
0.0009855776117
0.0009863479164
0.0009874933233
0.000989274071
0.0009923150719
574.540682
569.1897523
394.4838343
201.2871962
51.95136101
7.380558518
0.532950862
0.0186997697
0.001350596245
0.001004830071
0.0009517044195
0.0009240937047
0.0009089433894
0.0009010909263
0.0008977439177
0.0008968246963
0.0008974626281
0.0008994173534
0.0009025044325
0.000906538796
0.0009114570741
0.0009172159684
0.0009237565799
0.000930974572
0.0009386908675
0.0009466359732
0.0009544651737
0.0009618111927
0.0009683575089
0.0009739001302
0.0009783728284
0.0009818321503
0.0009844165042
0.0009863000956
0.0009876561749
0.0009886333061
0.000989343182
0.0009898575555
0.0009902119124
0.0009904135653
0.0009904515382
0.0009903039573
0.0009899369072
0.0009892979885
0.000988332823
0.0009870234994
0.0009852643032
0.0009844589513
0.0009841571519
0.0009840928126
0.0009841489559
0.0009842804901
0.0009844784326
0.0009847547982
0.0009851384444
0.0009856782052
0.0009864540893
0.0009876048449
0.0009893925569
0.000992450563
573.7392837
559.2166242
359.9374227
153.6899149
32.33289232
4.00125356
0.2635733952
0.01010954092
0.001253725817
0.0009949371654
0.0009478707259
0.0009235438861
0.0009103725545
0.0009037867415
0.0009012939559
0.0009010216356
0.000902245018
0.0009047466955
0.0009083579637
0.0009129108198
0.0009183400176
0.0009245844211
0.0009315503836
0.0009390808916
0.0009469328837
0.0009547794975
0.0009622493073
0.0009689948653
0.0009747624305
0.0009794330771
0.0009830231148
0.0009856519792
0.0009874956459
0.0009887435174
0.0009895683628
0.0009901094812
0.0009904657534
0.0009906957632
0.0009908229473
0.0009908440763
0.000990739169
0.0009904791415
0.0009900246204
0.000989317322
0.0009882948875
0.0009869415132
0.0009852494761
0.0009844930973
0.0009842115131
0.0009841564531
0.0009842184285
0.0009843552842
0.0009845590102
0.0009848417585
0.0009852321747
0.0009857787509
0.0009865612045
0.0009877184236
0.0009895138154
0.0009925864665
570.8441338
545.1287123
316.8406074
109.0144465
20.52380206
2.223417859
0.1378302036
0.006099927327
0.001175956269
0.0009869350251
0.000945399155
0.0009240865326
0.00091275975
0.0009073739103
0.0009057018226
0.0009060689313
0.0009078774323
0.0009109288075
0.0009150649145
0.0009201291759
0.0009260458967
0.0009327252761
0.0009400270258
0.0009477331265
0.0009555393549
0.0009630804789
0.0009699895568
0.0009759700863
0.0009808500618
0.0009845980953
0.0009873028092
0.0009891307867
0.0009902803765
0.0009909446286
0.0009912885301
0.0009914382914
0.0009914785021
0.0009914544704
0.0009913781851
0.0009912367752
0.0009910021998
0.0009906390315
0.0009901033113
0.000989331823
0.0009882543932
0.0009868508126
0.0009852337822
0.0009845253946
0.0009842639134
0.0009842182241
0.0009842861527
0.0009844284733
0.0009846381913
0.000984927651
0.0009853253394
0.0009858794492
0.0009866694135
0.0009878341422
0.0009896378558
0.0009927228205
566.1864567
525.7752213
266.9628164
73.65290174
12.04193697
1.211232347
0.07315719406
0.003860557178
0.001114224823
0.0009800682808
0.000944158235
0.0009256144245
0.0009160069341
0.0009117587049
0.0009108779531
0.0009118811246
0.000914277008
0.0009178804992
0.0009225376103
0.00092809568
0.0009344581523
0.0009414949492
0.000949009451
0.0009567218049
0.0009642809437
0.0009713118102
0.0009774846064
0.000982577514
0.0009865077833
0.0009893243194
0.0009911727645
0.0009922504083
0.0009927646376
0.0009929032669
0.0009928186178
0.0009926217699
0.0009923826891
0.0009921339571
0.0009918770428
0.0009915904625
0.000991239084
0.0009907819629
0.0009901713452
0.0009893399849
0.0009882105145
0.0009867509264
0.0009852181969
0.0009845562635
0.000984314556
0.0009842782713
0.0009843522827
0.0009845002402
0.0009847161852
0.0009850126985
0.0009854181573
0.0009859804933
0.0009867788615
0.0009879520746
0.0009897646695
0.000992859642
560.3803409
499.9049419
215.3021326
48.60354393
7.282423502
0.6792909015
0.03975081284
0.002586532332
0.001070183046
0.0009747867436
0.0009439268943
0.0009280350763
0.0009200376771
0.0009168758673
0.0009167657798
0.0009184058241
0.0009213905863
0.0009255425316
0.0009307051567
0.000936720722
0.0009434601845
0.0009507428352
0.000958312088
0.0009658361287
0.0009729419572
0.0009792772285
0.000984576725
0.0009887060116
0.0009916682278
0.0009935786465
0.0009946227953
0.0009950136617
0.0009949570898
0.0009946294931
0.0009941677336
0.0009936670909
0.0009931833704
0.0009927373799
0.0009923211581
0.0009919056672
0.0009914496155
0.0009909073028
0.0009902278728
0.0009893408592
0.0009881627425
0.0009866415783
0.0009852034358
0.0009845860571
0.0009843636414
0.0009843367521
0.0009844169819
0.0009845707697
0.0009847931971
0.0009850971166
0.0009855108383
0.0009860820681
0.0009868896853
0.0009880722848
0.000989894231
0.000992996928
553.966606
464.2386401
167.569593
34.49189666
4.634470748
0.3918180107
0.02216277396
0.001889416913
0.001041262538
0.000971176852
0.0009447654408
0.0009312876582
0.0009248345684
0.0009227084246
0.0009233458745
0.0009256170355
0.0009291824741
0.0009338656368
0.0009394993916
0.0009459094644
0.000952923196
0.0009603037211
0.00096774056
0.0009748707087
0.000981330129
0.0009868188976
0.0009911538469
0.000994289061
0.0009963019772
0.0009973571065
0.0009976634756
0.0009974374526
0.0009968757218
0.0009961395505
0.0009953491856
0.000994584407
0.0009938878208
0.0009932696205
0.0009927135488
0.0009921840338
0.0009916344885
0.0009910151356
0.0009902726122
0.000989333919
0.0009881108081
0.0009865304619
0.0009851899997
0.0009846150679
0.0009844113642
0.0009843938311
0.0009844804187
0.0009846402468
0.0009848694276
0.0009851811128
0.0009856035832
0.0009861843487
0.0009870020128
0.0009881948263
0.0009900265019
0.0009931346578
547.8726218
417.2137305
126.4001598
23.7709968
2.920618939
0.2262041849
0.01247306923
0.001494051057
0.001022174663
0.0009691485595
0.0009466599543
0.0009353928469
0.0009303729228
0.0009292416365
0.0009305998732
0.0009334895063
0.0009376165638
0.0009427963936
0.0009488415119
0.000955549697
0.0009626981103
0.0009699969371
0.0009770984273
0.0009836364339
0.0009892862582
0.0009938217855
0.000997147768
0.0009992984209
0.001000409206
0.001000676562
0.001000319041
0.0009995472112
0.000998543717
0.0009974528725
0.0009963783338
0.0009953853
0.0009945044055
0.000993736456
0.000993057998
0.0009924278693
0.0009917949633
0.0009911060205
0.000990305676
0.0009893189477
0.0009880542167
0.0009864271741
0.0009851782223
0.0009846435374
0.0009844579106
0.000984449676
0.000984542764
0.0009847088543
0.000984945071
0.0009852648859
0.0009856965823
0.0009862875001
0.0009871159609
0.0009883197411
0.0009901614372
0.0009932727938
543.5568036
360.6383105
92.72669901
15.90633373
1.814178695
0.1283090904
0.007007248079
0.001267494289
0.001009852328
0.0009685808031
0.0009495642734
0.0009403259713
0.0009366433994
0.0009364571554
0.0009385112301
0.0009419986674
0.0009466514063
0.0009522674071
0.0009586305561
0.0009655037189
0.0009726147177
0.0009796333817
0.000986199019
0.0009919719003
0.0009966907687
0.001000213729
0.001002528921
0.001003736155
0.001004011317
0.001003567385
0.001002621629
0.001001372655
0.0009999864422
0.0009985899703
0.0009972711007
0.0009960817152
0.0009950418021
0.0009941439802
0.0009933586196
0.0009926398139
0.00099193262
0.0009911808084
0.0009903274361
0.0009892959681
0.0009879922011
0.0009863317983
0.0009851683107
0.0009846716651
0.0009845034578
0.0009845044541
0.0009846041882
0.0009847767712
0.0009850203143
0.0009853486244
0.0009857900147
0.0009863916753
0.0009872316349
0.0009884470603
0.000990298982
0.000993411283
542.0185831
299.2493543
65.93006968
10.79159039
1.128165959
0.07146195351
0.004018056604
0.001145896651
0.001002570492
0.0009694028043
0.0009534646763
0.0009460874222
0.0009436522478
0.0009443562801
0.0009470677794
0.0009511111492
0.0009562247514
0.0009621825054
0.0009687350913
0.0009756085703
0.0009824898964
0.0009890286352
0.0009948786662
0.0009997522421
0.001003465931
0.00100596171
0.00100729912
0.001007626416
0.001007143508
0.001006067555
0.001004606972
0.001002944795
0.001001229414
0.0009995710507
0.0009980430154
0.0009966852802
0.0009955085002
0.000994498226
0.0009936195677
0.0009928226171
0.000992049186
0.0009912405102
0.0009903384241
0.0009892651878
0.0009879242072
0.0009862442049
0.0009851603811
0.0009846996171
0.0009845481732
0.0009845583303
0.0009846648585
0.0009848441709
0.0009850953362
0.0009854325068
0.0009858840479
0.0009864970152
0.0009873491276
0.000988576803
0.0009904390638
0.0009935500579
542.6857359
238.0255361
50.29123246
7.643706229
0.6954057233
0.03824903743
0.002436949315
0.001083581638
0.0009988254953
0.0009715625921
0.0009583671156
0.000952688286
0.0009514026867
0.0009529225988
0.0009562303954
0.0009607588935
0.0009662375081
0.0009724110948
0.0009789964479
0.0009856859484
0.0009921414483
0.0009980170048
0.001003006928
0.001006892989
0.00100957341
0.001011065206
0.001011483383
0.001011007764
0.00100984859
0.001008218172
0.001006311332
0.001004293925
0.001002296996
0.00100041516
0.0009987086329
0.0009972068931
0.0009959124947
0.0009948049287
0.000993844849
0.0009929789873
0.0009921464166
0.0009912862033
0.0009903392568
0.0009892269338
0.0009878498502
0.0009861641283
0.000985154485
0.0009847275332
0.0009845922144
0.0009846114645
0.0009847249375
0.0009849112201
0.0009851703061
0.0009855167003
0.0009859788369
0.0009866036476
0.000987468518
0.0009887089746
0.000990581578
0.0009936890364
543.2984536
182.30585
39.14229548
5.424344723
0.4132263218
0.0190447678
0.001638197431
0.001053160353
0.0009976668589
0.0009750011107
0.000964246733
0.0009600998786
0.0009598513941
0.0009620908575
0.0009659159121
0.0009708351228
0.0009765583503
0.0009827984397
0.0009892416829
0.0009955570036
0.001001402913
0.001006463235
0.001010492438
0.001013349434
0.001015008778
0.001015548485
0.001015122283
0.001013926864
0.001012172388
0.001010060362
0.001007769559
0.001005448435
0.001003211674
0.001001139738
0.0009992812425
0.0009976565164
0.0009962611285
0.0009950693976
0.0009940382161
0.0009931115028
0.0009922260209
0.0009913189718
0.0009903305873
0.0009891816085
0.0009877688717
0.0009860912245
0.0009851506314
0.0009847555326
0.000984635729
0.0009846640104
0.000984784581
0.0009849780771
0.0009852453835
0.0009856013602
0.0009860745234
0.0009867116862
0.0009875898705
0.0009888435646
0.0009907263971
0.0009938281222
543.9075129
144.1134868
30.42568999
3.748738859
0.2268463403
0.008639006057
0.001272964603
0.001039394797
0.0009984876061
0.0009796055933
0.0009710180664
0.0009682402492
0.0009689040065
0.0009717636994
0.0009760145274
0.0009812116527
0.0009870388001
0.0009931786873
0.0009992968152
0.001005055972
0.001010135337
0.001014269398
0.001017283535
0.001019111999
0.001019794067
0.001019452771
0.001018265285
0.001016433553
0.001014160452
0.001011633266
0.001009013913
0.001006434161
0.001003993713
0.001001760424
0.0009997727495
0.0009980430939
0.0009965610246
0.0009952964556
0.0009942031107
0.000993222559
0.0009922896153
0.0009913398659
0.000990313071
0.0009891296578
0.000987681095
0.00098602511
0.0009851488013
0.000984783718
0.0009846788548
0.0009847161142
0.0009848439376
0.0009850448915
0.0009853207172
0.0009856866296
0.0009861712359
0.0009868212301
0.0009877132341
0.0009889805456
0.0009908733934
0.0009939672053
542.4258044
123.9062261
24.75107128
2.508571141
0.1104001094
0.00366614405
0.001134223377
0.001033908948
0.001000904105
0.0009852506112
0.0009785849747
0.0009770095737
0.0009784613921
0.0009818389859
0.0009864088541
0.000991750172
0.0009975210536
0.001003383475
0.001008997629
0.001014041055
0.001018234656
0.001021376557
0.00102336447
0.001024199097
0.001023969778
0.001022829204
0.00102096544
0.001018577294
0.001015855913
0.001012972849
0.001010073481
0.001007274125
0.001004661053
0.001002291028
0.001000193673
0.0009983745494
0.000996818078
0.0009954904236
0.0009943426425
0.0009933143447
0.000992338699
0.0009913498798
0.0009902873447
0.0009890715535
0.0009875863825
0.0009859653894
0.0009851489586
0.0009848121789
0.0009847217199
0.0009847679136
0.0009849031469
0.0009851118029
0.0009853964445
0.0009857726387
0.0009862690881
0.0009869323629
0.0009878386418
0.000989119874
0.000991022421
0.0009941061655
537.1249047
115.2946072
20.39897796
1.559376563
0.04375411434
0.001740882958
0.001092699889
0.001032346407
0.001004696892
0.0009918684145
0.0009868561964
0.0009863191011
0.000988438808
0.0009922136748
0.0009969716482
0.001002300703
0.001007841755
0.001013250724
0.001018200583
0.001022403102
0.001025635133
0.001027762532
0.001028749229
0.001028649495
0.001027587799
0.001025733352
0.001023275677
0.001020404961
0.001017298321
0.001014111394
0.001010974021
0.001007988555
0.001005229397
0.001002743629
0.001000553223
0.0009986578429
0.0009970374909
0.0009956551375
0.0009944595936
0.0009933888371
0.0009923746445
0.0009913499404
0.0009902540157
0.000989007786
0.0009874845945
0.0009859116726
0.0009851510579
0.0009848409941
0.0009847644427
0.0009848195374
0.0009849623393
0.0009851789406
0.0009854726912
0.0009858595046
0.0009863681794
0.000987045152
0.0009879661097
0.0009892614877
0.0009911732954
0.0009942448765
526.9676337
114.40644
16.61983508
0.8949787228
0.01392920482
0.001249089455
0.001081748682
0.001033145348
0.0010097979
0.0009993315227
0.0009957514689
0.0009960949281
0.0009987391644
0.001002766121
0.00100755672
0.001012702401
0.001017840022
0.001022635771
0.001026792421
0.001030070253
0.001032308181
0.001033436292
0.001033473919
0.001032514873
0.001030705429
0.001028221062
0.001025246284
0.001021959514
0.001018523072
0.001015077356
0.001011738025
0.001008595023
0.001005712359
0.001003128703
0.001000859407
0.000998899047
0.0009972238235
0.0009957939794
0.0009945564345
0.0009934478091
0.0009923986987
0.0009913409047
0.0009902136572
0.0009889388657
0.0009873755503
0.0009858635865
0.000985155049
0.0009848702329
0.0009848071318
0.0009848711047
0.0009850216351
0.0009852464227
0.0009855495701
0.0009859473296
0.0009864685927
0.0009871596476
0.0009880956356
0.0009894052996
0.000991325801
0.000994383208
511.9336798
107.0321274
12.68317227
0.4639946208
0.003846469301
0.00117152232
0.001077510954
0.00103569374
0.001015966928
0.001007545634
0.001005178542
0.001006225962
0.00100923065
0.001013346914
0.001018002101
0.001022793889
0.001027369845
0.001031421927
0.001034695808
0.001037007687
0.001038257348
0.001038430478
0.001037589085
0.001035853432
0.001033380816
0.001030345642
0.001026923412
0.001023279362
0.001019561282
0.00101589548
0.00101238493
0.001009108673
0.001006121666
0.001003455286
0.001001119152
0.0009991034347
0.000997381054
0.0009959099167
0.0009946353474
0.0009934928404
0.0009924119869
0.0009913235607
0.0009901668046
0.0009888653295
0.0009872589858
0.0009858207793
0.0009851608799
0.0009848999565
0.0009848498863
0.0009849227246
0.0009850811439
0.0009853143557
0.0009856271812
0.000986036202
0.0009865703949
0.000987275882
0.0009882271973
0.0009895511962
0.0009914797496
0.0009945210181
492.2374206
95.58190897
8.998798614
0.2083312174
0.001693342176
0.001155461483
0.001075671544
0.001039664605
0.001023053492
0.001016372793
0.001014996738
0.00101656215
0.001019753633
0.001023791142
0.00102814501
0.001032427753
0.00103631175
0.001039527164
0.001041870103
0.0010432134
0.001043511212
0.001042793677
0.001041153021
0.001038724978
0.001035669852
0.001032156186
0.001028348372
0.001024398251
0.001020439954
0.001016587084
0.001012931418
0.001009542487
0.001006467381
0.00100373115
0.001001338434
0.0009992755734
0.000997512645
0.000996005546
0.0009946982554
0.0009935253358
0.0009924155238
0.0009912986329
0.000990113956
0.0009887877581
0.0009871345127
0.0009857829241
0.0009851684989
0.0009849302184
0.0009848927959
0.0009849744962
0.0009851409644
0.000985382834
0.0009857056111
0.0009861261943
0.0009866736359
0.0009873938689
0.0009883607515
0.0009896990446
0.0009916349938
0.0009946581417
468.4572961
81.88804099
5.957331224
0.09044505136
0.001427877416
0.001144769149
0.001075867139
0.001044834178
0.001030878093
0.00102564782
0.001025042933
0.0010269378
0.001030141713
0.0010339377
0.001037839075
0.00104148417
0.001044581453
0.001046906918
0.001048308918
0.00104871237
0.001048116362
0.001046583996
0.001044226877
0.001041187753
0.001037624453
0.001033696878
0.001029557567
0.001025345495
0.001021182344
0.001017170435
0.001013391756
0.001009907565
0.001006758122
0.001003962969
0.001001522402
0.0009994194171
0.0009976216086
0.0009960831392
0.000994746852
0.0009935465447
0.0009924102254
0.0009912667909
0.0009900555716
0.0009887067994
0.0009870135481
0.0009857497186
0.0009851778548
0.0009849610652
0.0009849359407
0.0009850265081
0.0009852011843
0.0009854519397
0.0009857849323
0.0009862173637
0.0009867783476
0.0009875136027
0.000988496233
0.0009898486974
0.0009917913498
0.0009947943999
440.7980578
68.37390494
3.809052458
0.04015723556
0.001319929842
0.001137592568
0.00107777085
0.001050973655
0.001039251814
0.001035195411
0.001035145795
0.001037184353
0.001040233947
0.001043640889
0.001046963668
0.001049876267
0.001052130252
0.001053549895
0.001054032743
0.001053548044
0.001052129518
0.001049862847
0.001046870388
0.001043295884
0.001039291284
0.001035006548
0.001030582503
0.001026146228
0.001021808273
0.001017661063
0.001013778065
0.001010213354
0.001007001243
0.001004156458
0.001001675486
0.0009995383816
0.00099771056
0.0009961446801
0.0009947826273
0.0009935575775
0.0009923969199
0.0009912286561
0.0009899920715
0.000988622696
0.0009869030774
0.0009857208845
0.0009851888977
0.0009849925364
0.0009849793912
0.0009850788382
0.0009852618793
0.0009855217418
0.0009858652027
0.0009863097503
0.0009868845435
0.000987635057
0.0009886335543
0.0009899999908
0.0009919485918
0.0009949296156
409.0309918
55.41975473
2.431853594
0.01538888255
0.001269902176
0.001133319842
0.001081090606
0.001057863832
0.001047985513
0.001044837973
0.001045134533
0.001047140656
0.001049885674
0.001052780236
0.001055430373
0.001057552139
0.001058942588
0.001059472243
0.001059081583
0.001057775173
0.001055611696
0.001052690877
0.00104913946
0.001045098242
0.001040711456
0.00103611884
0.001031450187
0.001026821848
0.001022334564
0.001018072138
0.00101410064
0.001010467896
0.001007203022
0.001004316517
0.001001801502
0.0009996354236
0.0009977817758
0.0009961919067
0.0009948068971
0.0009935594264
0.0009923763621
0.0009911848149
0.0009899238562
0.0009885353903
0.000986802359
0.0009856961658
0.0009852015783
0.0009850246649
0.0009850232084
0.0009851315533
0.0009853231131
0.0009855922957
0.0009859464648
0.000986403377
0.0009869922176
0.0009877581839
0.0009887726045
0.0009901527418
0.0009921064803
0.0009950636026
373.1562288
43.61714333
1.493465703
0.006520958993
0.001244454325
0.001131392778
0.00108551915
0.001065276082
0.001056885914
0.001054399677
0.00105484793
0.001056664399
0.001058979711
0.001061269186
0.001063187406
0.00106449483
0.001065032448
0.001064711963
0.00106350905
0.001061454805
0.001058624669
0.00105512591
0.001051085304
0.001046638375
0.001041920918
0.0010370628
0.001032183747
0.001027390598
0.001022775532
0.001018414868
0.001014368253
0.001010678062
0.001007368849
0.001004447369
0.00100190375
0.0009997131139
0.0009978372454
0.0009962263474
0.0009948208274
0.0009935529813
0.0009923492438
0.0009911358255
0.0009898513212
0.0009884447825
0.0009867107185
0.0009856753261
0.0009852158481
0.0009850574766
0.0009850674436
0.0009851847095
0.0009853849371
0.0009856636433
0.0009860287454
0.0009864982488
0.0009871013438
0.0009878829131
0.0009889132487
0.0009903067479
0.0009922647576
0.0009951961668
334.1961623
32.83286711
0.8558103749
0.003227802064
0.001229213215
0.001131355721
0.001090775506
0.001072992002
0.00106576738
0.001063716303
0.001064143998
0.001065640382
0.001067431853
0.001069056531
0.001070216894
0.001070716408
0.001070435715
0.0010693211
0.00106737561
0.001064649193
0.001061227615
0.001057221066
0.001052753613
0.00104795436
0.001042950667
0.001037863247
0.001032802836
0.001027867941
0.001023143308
0.001018698765
0.00101458837
0.001010849723
0.001007503343
0.001004552651
0.001001985089
0.000999773692
0.000997878713
0.0009962493513
0.0009948254579
0.0009935390469
0.0009923162066
0.0009910822307
0.0009897748708
0.0009883506985
0.0009866275441
0.000985658147
0.0009852316583
0.0009850909905
0.0009851121383
0.0009852383509
0.0009854473894
0.000985735811
0.000986112054
0.000986594351
0.0009872118741
0.0009880091501
0.0009890553261
0.0009904617838
0.0009924231492
0.000995327112
292.9083103
23.13365997