/*--------------------------------*- C++ -*----------------------------------*\
  =========                 |
  \\      /  F ield         | OpenFOAM: The Open Source CFD Toolbox
   \\    /   O peration     | Website:  https://openfoam.org
    \\  /    A nd           | Version:  12
     \\/     M anipulation  |
\*---------------------------------------------------------------------------*/
FoamFile
{
    format      ascii;
    class       volScalarField;
    location    "1350";
    object      nut;
}
// * * * * * * * * * * * * * * * * * * * * * * * * * * * * * * * * * * * * * //

dimensions      [0 2 -1 0 0 0 0];

internalField   nonuniform List<scalar> 
16200
(
0.0005123392642
0.001754080467
0.002916721771
0.003817908117
0.004080158626
0.003572284969
0.002600113205
0.001393844791
0.0007114884514
0.0001810575798
5.67493917e-06
2.624573208e-06
2.37757026e-06
2.336581791e-06
1.856030783e-06
1.597721769e-06
1.393474418e-06
1.248929483e-06
1.154459188e-06
1.09266474e-06
1.05583262e-06
1.040974066e-06
1.045120952e-06
1.066339647e-06
1.103947862e-06
1.158723578e-06
1.233255156e-06
1.332460505e-06
1.464723663e-06
1.644323023e-06
1.895993839e-06
2.263305717e-06
2.824363724e-06
3.724071541e-06
5.246791066e-06
7.980978307e-06
1.319258716e-05
2.366778349e-05
4.562588881e-05
9.311702533e-05
0.0001982489607
0.0004351450601
0.0009763635547
0.001002199712
0.001001788533
0.001000859266
0.0009995282748
0.0009989214498
0.0009986860313
0.0009986071647
0.0009985920442
0.0009986022411
0.0009986232891
0.000998651374
0.0009986876597
0.0009987364419
0.0009988044882
0.0009989029292
0.0009990486744
0.0009992760498
0.0005055923105
0.001715241032
0.002819908814
0.003618192514
0.003705566172
0.003070124158
0.002112656708
0.001023139788
0.0005608154818
4.03088655e-05
2.678063486e-06
2.205246818e-06
2.008083331e-06
1.968027948e-06
1.666541419e-06
1.430999117e-06
1.24438252e-06
1.112374483e-06
1.027636081e-06
9.733013791e-07
9.419020518e-07
9.303542408e-07
9.356883033e-07
9.558916462e-07
9.901832336e-07
1.039136902e-06
1.104996515e-06
1.192191923e-06
1.308493269e-06
1.467294373e-06
1.691601112e-06
2.021226546e-06
2.526584414e-06
3.337409194e-06
4.707607983e-06
7.162227251e-06
1.183113849e-05
2.120215465e-05
4.082935855e-05
8.325912478e-05
0.0001771636643
0.0003887533817
0.0008722410418
0.001002056496
0.001001686727
0.001000862751
0.0009995394849
0.0009989266563
0.0009986895032
0.0009986109691
0.0009985969765
0.0009986084482
0.0009986306167
0.0009986595167
0.0009986962673
0.000998745082
0.0009988128432
0.0009989107998
0.000999056621
0.0009992877554
0.0004997898659
0.001675591601
0.002720262323
0.003407737296
0.003328238841
0.002597080836
0.001614515817
0.0007463456184
0.0003709774396
1.407524159e-05
2.101286866e-06
1.86111058e-06
1.700084288e-06
1.662337745e-06
1.487818536e-06
1.274405597e-06
1.105255807e-06
9.855343927e-07
9.099322716e-07
8.622455718e-07
8.35269551e-07
8.258034807e-07
8.308736218e-07
8.484237425e-07
8.776346065e-07
9.190005497e-07
9.746687174e-07
1.049027595e-06
1.149855065e-06
1.290274253e-06
1.491974424e-06
1.791287195e-06
2.251519489e-06
2.988950264e-06
4.231157072e-06
6.448598389e-06
1.065293472e-05
1.906874612e-05
3.665188684e-05
7.456799514e-05
0.0001582664401
0.0003463779738
0.0007751963509
0.001001955843
0.001001602344
0.001000855861
0.00099955295
0.000998936906
0.0009986978484
0.0009986186175
0.0009986046516
0.0009986164806
0.0009986390839
0.0009986683344
0.0009987052536
0.0009987539627
0.000998821367
0.0009989188381
0.0009990646252
0.0009992988196
0.0004959401879
0.001636208286
0.002616528639
0.003159552592
0.002939492642
0.00216564132
0.001142673005
0.0005534130611
0.0001797260681
4.912367349e-06
1.767490549e-06
1.585991489e-06
1.453260342e-06
1.417669806e-06
1.327940532e-06
1.133799929e-06
9.800420951e-07
8.712424401e-07
8.03592974e-07
7.61516052e-07
7.380590737e-07
7.299285086e-07
7.341926633e-07
7.488753538e-07
7.732872095e-07
8.081005432e-07
8.557310291e-07
9.209536398e-07
1.011895749e-06
1.141566578e-06
1.33049307e-06
1.612175866e-06
2.044669731e-06
2.734984445e-06
3.893261218e-06
5.954431642e-06
9.853879083e-06
1.764744079e-05
3.39095081e-05
6.892854126e-05
0.0001461113765
0.0003192918966
0.0007134337423
0.001001877727
0.001001523372
0.001000817144
0.0009995555143
0.0009989439202
0.0009987056949
0.0009986265434
0.0009986126724
0.0009986247225
0.00099864761
0.0009986771113
0.0009987141617
0.0009987627985
0.0009988299205
0.0009989270104
0.0009990728178
0.0009993099068
0.0004922382956
0.001596520425
0.002510576945
0.002909139857
0.002556324432
0.001783819207
0.0008213231869
0.0004201061234
4.302361423e-05
2.070128125e-06
1.505385376e-06
1.352208429e-06
1.243065617e-06
1.210340302e-06
1.175817279e-06
1.000627274e-06
8.621169874e-07
7.641914492e-07
7.042417592e-07
6.674418036e-07
6.47208769e-07
6.40264658e-07
6.438382809e-07
6.56192228e-07
6.769431826e-07
7.071493802e-07
7.496895459e-07
8.098002899e-07
8.95836581e-07
1.020478018e-06
1.203061578e-06
1.474699842e-06
1.889321149e-06
2.546878414e-06
3.644444762e-06
5.590363181e-06
9.262408415e-06
1.658726369e-05
3.184315364e-05
6.462800437e-05
0.0001367199337
0.0002980823515
0.0006644377534
0.001001823853
0.001001456062
0.001000765763
0.0009995527601
0.0009989504347
0.0009987144928
0.0009986355845
0.0009986215602
0.0009986335167
0.0009986564274
0.0009986860056
0.0009987230987
0.0009987716561
0.0009988385414
0.0009989353323
0.0009990811892
0.0009993208967
0.0004880494284
0.001556174413
0.002400980788
0.002652013392
0.002180346083
0.0013833549
0.0006064802935
0.0002885280669
1.702734984e-05
1.552349316e-06
1.272883886e-06
1.156154981e-06
1.065847734e-06
1.035382389e-06
1.033493119e-06
8.760343486e-07
7.520414725e-07
6.647227994e-07
6.122537901e-07
5.80644581e-07
5.637390875e-07
5.583500115e-07
5.619587609e-07
5.731879321e-07
5.920762195e-07
6.201571918e-07
6.607794746e-07
7.195240397e-07
8.047966751e-07
9.288985343e-07
1.110255684e-06
1.378323106e-06
1.7842133e-06
2.42315137e-06
3.483712802e-06
5.357230091e-06
8.884485717e-06
1.590812505e-05
3.051046951e-05
6.182495073e-05
0.0001305166493
0.0002838655437
0.0006311034602
0.001001788343
0.001001398966
0.001000715009
0.0009995432057
0.0009989552746
0.0009987234114
0.000998645185
0.0009986309568
0.0009986426394
0.0009986654014
0.0009986949395
0.0009987320234
0.0009987805143
0.000998847224
0.000998943808
0.0009990897672
0.0009993318748
0.0004828030832
0.001514479033
0.002286472121
0.002378048408
0.001821911689
0.001005466732
0.0004547875001
0.0001703474322
5.215201835e-06
1.286559936e-06
1.083648532e-06
9.85848832e-07
9.111037328e-07
8.833652162e-07
8.98830196e-07
7.590999441e-07
6.497496098e-07
5.73399892e-07
5.286665505e-07
5.02510771e-07
4.892815412e-07
4.859879785e-07
4.904707115e-07
5.018015502e-07
5.204841154e-07
5.482791503e-07
5.893710027e-07
6.493088573e-07
7.364460324e-07
8.627710591e-07
1.046656367e-06
1.31566616e-06
1.719442602e-06
2.350120735e-06
3.390994089e-06
5.22317913e-06
8.665063667e-06
1.550691032e-05
2.970474044e-05
6.008291474e-05
0.0001265451762
0.0002744918322
0.0006085137802
0.001001767296
0.001001350304
0.001000664546
0.0009995284762
0.0009989588681
0.0009987324907
0.0009986552912
0.0009986408089
0.0009986520597
0.0009986745228
0.000998703918
0.0009987409477
0.0009987893854
0.0009988559795
0.0009989524454
0.0009990985595
0.0009993428411
0.0004757857741
0.001469772986
0.002163832272
0.002097049014
0.001498247358
0.0007205978098
0.0003520413126
7.70543979e-05
2.550607222e-06
1.08242052e-06
9.201977405e-07
8.394693113e-07
7.780576389e-07
7.53395438e-07
7.760896569e-07
6.534229946e-07
5.582136131e-07
4.926081737e-07
4.554182008e-07
4.346253914e-07
4.251436855e-07
4.242585857e-07
4.302226267e-07
4.425712124e-07
4.620378578e-07
4.91461895e-07
5.346156507e-07
5.974058877e-07
6.881775682e-07
8.18800062e-07
1.006845919e-06
1.280911256e-06
1.688145807e-06
2.31940797e-06
3.355434622e-06
5.172979635e-06
8.580738903e-06
1.534430391e-05
2.935460731e-05
5.926419581e-05
0.0001245273395
0.0002693803749
0.0005954274247
0.001001756324
0.001001307724
0.001000613396
0.0009995093302
0.0009989611805
0.0009987415019
0.0009986656821
0.0009986509552
0.0009986616767
0.0009986837361
0.0009987129164
0.0009987498652
0.0009987982716
0.0009988648139
0.0009989612511
0.0009991075768
0.0009993538182
0.0004671271777
0.001420254631
0.00200872497
0.001811822467
0.001187367452
0.0005358472331
0.0002667159034
3.09946858e-05
1.478289899e-06
9.150163352e-07
7.85451451e-07
7.175767174e-07
6.667127386e-07
6.44784276e-07
6.679779942e-07
5.60731705e-07
4.784471447e-07
4.228734221e-07
3.927433179e-07
3.770377699e-07
3.712197347e-07
3.728730424e-07
3.804303612e-07
3.943964268e-07
4.158726733e-07
4.475716275e-07
4.937371e-07
5.603948919e-07
6.55937927e-07
7.922784117e-07
9.870220266e-07
1.268519701e-06
1.683717424e-06
2.32271028e-06
3.365841197e-06
5.190203242e-06
8.605046342e-06
1.537361679e-05
2.937095698e-05
5.91879043e-05
0.0001240790721
0.0002676895427
0.0005899593002
0.00100175182
0.001001269263
0.001000560706
0.0009994869916
0.0009989624442
0.0009987503653
0.0009986762204
0.0009986612821
0.0009986714162
0.0009986930022
0.0009987219199
0.000998758776
0.0009988071794
0.0009988737353
0.0009989702314
0.0009991168254
0.0009993648164
0.000456827338
0.001366302778
0.001835231287
0.001531536542
0.0008692259697
0.000403307301
0.0001896380581
1.823494342e-05
1.156082965e-06
7.760031763e-07
6.71675092e-07
6.145119601e-07
5.722518927e-07
5.530301045e-07
5.730286283e-07
4.799068733e-07
4.095642355e-07
3.634153384e-07
3.399011049e-07
3.289708477e-07
3.266135532e-07
3.304833873e-07
3.402798632e-07
3.561647002e-07
3.798499479e-07
4.143748422e-07
4.641749644e-07
5.353923283e-07
6.36541322e-07
7.797211648e-07
9.827866436e-07
1.274182498e-06
1.701121517e-06
2.353842245e-06
3.414117295e-06
5.263379732e-06
8.720191601e-06
1.556455773e-05
2.969772827e-05
5.974303722e-05
0.00012496916
0.0002689198516
0.0005910024082
0.001001750711
0.00100123319
0.001000505609
0.0009994625011
0.000998962851
0.0009987589996
0.0009986867729
0.0009986716781
0.0009986812047
0.0009987022811
0.0009987309125
0.0009987676789
0.0009988161146
0.0009988827514
0.0009989793924
0.00099912631
0.0009993758465
0.0004447622985
0.001307837213
0.00164994582
0.001264519447
0.0006255558817
0.0003071345082
0.0001248278227
1.243017111e-05
9.454257142e-07
6.602800884e-07
5.759844055e-07
5.274818988e-07
4.922466894e-07
4.75577094e-07
4.905440407e-07
4.102450878e-07
3.508388398e-07
3.13407671e-07
2.959306143e-07
2.893005129e-07
2.8974045e-07
2.961958439e-07
3.079741391e-07
3.259107613e-07
3.521106151e-07
3.89855675e-07
4.437314033e-07
5.200153959e-07
6.274192876e-07
7.783489469e-07
9.910772538e-07
1.294419417e-06
1.736233661e-06
2.407669958e-06
3.493480279e-06
5.382856529e-06
8.91117486e-06
1.589155867e-05
3.028748498e-05
6.083531344e-05
0.0001270002877
0.0002726427527
0.000597601393
0.001001750593
0.001001198128
0.001000447354
0.0009994368306
0.0009989626216
0.0009987673661
0.0009986972406
0.0009986820546
0.0009986909822
0.0009987115399
0.0009987398821
0.0009987765745
0.0009988250838
0.0009988918703
0.0009989887395
0.0009991360337
0.0009993869158
0.0004306193741
0.001243823281
0.001459975655
0.001001234481
0.00046871421
0.0002408541432
5.988625188e-05
6.842494929e-06
7.591229403e-07
5.635095213e-07
4.948854708e-07
4.53736954e-07
4.243400774e-07
4.101542959e-07
4.194841179e-07
3.507230359e-07
3.012117015e-07
2.716860171e-07
2.595508043e-07
2.563543314e-07
2.597563051e-07
2.683204014e-07
2.820159435e-07
3.021512685e-07
3.311228516e-07
3.723871953e-07
4.306636757e-07
5.124003297e-07
6.265764602e-07
7.860009706e-07
1.009498404e-06
1.32648369e-06
1.785781173e-06
2.480122341e-06
3.598599853e-06
5.541174309e-06
9.166647736e-06
1.633568341e-05
3.110573161e-05
6.239712747e-05
0.0001300323472
0.0002785558076
0.0006090842148
0.001001749632
0.001001163015
0.001000385316
0.0009994107722
0.0009989619508
0.0009987754431
0.0009987075465
0.0009986923398
0.000998700699
0.000998720752
0.0009987488194
0.0009987854649
0.0009988340943
0.0009989011
0.0009989982778
0.0009991459979
0.0009993980297
0.0004143004602
0.001172146066
0.001264782576
0.0007501078085
0.000364749032
0.0001874849747
3.071521854e-05
3.528039433e-06
6.138542481e-07
4.822080217e-07
4.263918171e-07
3.913782174e-07
3.668061569e-07
3.548473663e-07
3.585090232e-07
2.999968196e-07
2.593652748e-07
2.369235105e-07
2.29427892e-07
2.293750383e-07
2.351701134e-07
2.456144012e-07
2.612518777e-07
2.837476015e-07
3.157021097e-07
3.6070558e-07
4.236182278e-07
5.110990021e-07
6.324542421e-07
8.009714635e-07
1.03613369e-06
1.368147692e-06
1.847084146e-06
2.567851553e-06
3.725105077e-06
5.73227467e-06
9.477517916e-06
1.688197281e-05
3.212554406e-05
6.437618886e-05
0.0001339576336
0.0002864273586
0.000624936908
0.001001746499
0.001001127072
0.001000319008
0.0009993849519
0.0009989610083
0.0009987832256
0.0009987176361
0.0009987024797
0.0009987103176
0.0009987298973
0.0009987577187
0.0009987943534
0.000998843154
0.0009989104486
0.0009990080119
0.0009991562025
0.000999409192
0.0003964233764
0.001092056085
0.001068586401
0.0005589268435
0.0002807378475
0.0001391581763
1.848141378e-05
1.917066773e-06
5.023057248e-07
4.12476668e-07
3.684341626e-07
3.383788102e-07
3.176025227e-07
3.075268362e-07
3.059112297e-07
2.566105107e-07
2.24044395e-07
2.079537342e-07
2.041037723e-07
2.071695092e-07
2.14959314e-07
2.27184797e-07
2.448401316e-07
2.698413419e-07
3.049317789e-07
3.538211464e-07
4.215303195e-07
5.149665136e-07
6.438095708e-07
8.218847266e-07
1.069494336e-06
1.417582411e-06
1.917936447e-06
2.668109746e-06
3.869443849e-06
5.951317517e-06
9.836678962e-06
1.751900044e-05
3.332677719e-05
6.673401789e-05
0.0001386978507
0.0002960903596
0.0006447906143
0.00100174027
0.001001089755
0.001000248079
0.0009993598302
0.0009989599306
0.0009987907178
0.0009987274729
0.0009987124355
0.0009987198103
0.0009987389619
0.0009987665771
0.0009988032448
0.0009988522708
0.0009989199239
0.0009990179456
0.0009991666452
0.0009994204042
0.0003782738137
0.001006498066
0.0008596143824
0.0004271369565
0.000227221032
0.0001010916822
1.28613543e-05
1.0982315e-06
4.150124211e-07
3.523151785e-07
3.169136989e-07
2.921638737e-07
2.746535153e-07
2.663979421e-07
2.603708865e-07
2.195510412e-07
1.943840575e-07
1.83927427e-07
1.835011084e-07
1.888748061e-07
1.984100978e-07
2.12395436e-07
2.3215091e-07
2.597607057e-07
2.980782265e-07
3.50936483e-07
4.235395176e-07
5.230724913e-07
6.596237893e-07
8.476037406e-07
1.108117994e-06
1.47326339e-06
1.996501664e-06
2.778621677e-06
4.028706589e-06
6.194406122e-06
1.023853636e-05
1.823798711e-05
3.469430294e-05
6.944226782e-05
0.00014419616
0.0003074247639
0.0006683819111
0.001001730347
0.001001050704
0.001000172293
0.0009993357271
0.0009989588237
0.0009987979305
0.0009987370348
0.0009987221815
0.0009987291589
0.0009987479374
0.0009987753948
0.0009988121448
0.000998861453
0.0009989295333
0.0009990280818
0.0009991773225
0.0009994316664
0.0003604492468
0.0009137550298
0.0006917572387
0.0003498312703
0.0001917780808
5.678446043e-05
8.619402746e-06
6.841899766e-07
3.462734229e-07
3.00525511e-07
2.720357314e-07
2.514840597e-07
2.373876398e-07
2.308424681e-07
2.213340493e-07
1.882511952e-07
1.697727522e-07
1.638345865e-07
1.666137272e-07
1.738625945e-07
1.850014794e-07
2.007585643e-07
2.226728185e-07
2.529439629e-07
2.945249806e-07
3.513834046e-07
4.289254044e-07
5.346358598e-07
6.790386233e-07
8.771689161e-07
1.151006667e-06
1.53391262e-06
2.081251311e-06
2.897512152e-06
4.200529902e-06
6.45844196e-06
1.067876409e-05
1.9032357e-05
3.621714423e-05
7.248094184e-05
0.0001504133606
0.0003203491037
0.0006955338846
0.001001716371
0.001001009702
0.001000095946
0.0009993128471
0.0009989577654
0.0009988048778
0.0009987463115
0.000998731703
0.0009987383529
0.00099875682
0.0009987841743
0.0009988210602
0.0009988707089
0.000998939284
0.0009990384225
0.0009991882306
0.0009994429773
0.0003455306235
0.0008131723232
0.0005593835629
0.0002897006668
0.0001596209699
3.134177716e-05
4.09580061e-06
4.615916119e-07
2.91440755e-07
2.566731658e-07
2.335938749e-07
2.164766121e-07
2.049561666e-07
2.002213748e-07
1.881435745e-07
1.621010433e-07
1.495982328e-07
1.477902274e-07
1.528259728e-07
1.616579927e-07
1.743251025e-07
1.918659406e-07
2.15961981e-07
2.489023639e-07
2.937407894e-07
3.545904596e-07
4.370735162e-07
5.489906495e-07
7.013233198e-07
9.097737089e-07
1.197238219e-06
1.598464601e-06
2.170924074e-06
3.023252203e-06
4.383018525e-06
6.741000701e-06
1.115409089e-05
1.989734172e-05
3.788769508e-05
7.583677779e-05
0.0001573244097
0.0003348127674
0.000726138624
0.001001698168
0.001000966406
0.001000024417
0.0009992913054
0.0009989568114
0.0009988115764
0.0009987553013
0.0009987409936
0.000998747388
0.0009987656098
0.0009987929199
0.0009988299981
0.0009988800465
0.0009989491824
0.0009990489692
0.0009991993695
0.0009994543342
0.0003367366228
0.0007082819438
0.0004600473839
0.0002417341626
0.0001294496252
1.866427328e-05
1.956499658e-06
3.341671224e-07
2.464851175e-07
2.192219843e-07
2.004004706e-07
1.861701584e-07
1.768000656e-07
1.736070003e-07
1.601235303e-07
1.405528236e-07
1.330135568e-07
1.348655599e-07
1.416559506e-07
1.518754925e-07
1.660242898e-07
1.853445332e-07
2.116125413e-07
2.471966075e-07
2.95255502e-07
3.600566412e-07
4.474482491e-07
5.65559867e-07
7.258511492e-07
9.447115981e-07
1.246040632e-06
1.666039835e-06
2.264493326e-06
3.154616136e-06
4.574683988e-06
7.040236864e-06
1.166213911e-05
2.082968645e-05
3.970114721e-05
7.950206517e-05
0.0001649158778
0.0003507903556
0.000760144436
0.001001675699
0.001000920328
0.0009999576938
0.0009992711508
0.0009989559989
0.0009988180437
0.0009987640095
0.0009987500538
0.0009987562649
0.0009987743098
0.0009988016374
0.0009988389663
0.0009988894738
0.0009989592342
0.0009990597231
0.0009992107411
0.0009994657334
0.000336858611
0.0006043612475
0.0003731568826
0.0002066871533
0.0001023247027
1.224436519e-05
9.535388112e-07
2.572939193e-07
2.087833412e-07
1.869832109e-07
1.716532387e-07
1.599653136e-07
1.525240167e-07
1.50737809e-07
1.368711518e-07
1.231930034e-07
1.201722685e-07
1.245235567e-07
1.32697654e-07
1.441765352e-07
1.59772814e-07
1.808517213e-07
2.092582685e-07
2.474373308e-07
2.986572384e-07
3.673461897e-07
4.595867951e-07
5.838492295e-07
7.520884982e-07
9.814157457e-07
1.296779156e-06
1.73592607e-06
2.361140038e-06
3.290642874e-06
4.774388673e-06
7.354799167e-06
1.22012879e-05
2.182741213e-05
4.165504609e-05
8.347376378e-05
0.000173184106
0.0003682776755
0.0007975468959
0.001001649038
0.001000871101
0.0009998956439
0.0009992523853
0.0009989553521
0.0009988242977
0.0009987724457
0.0009987588891
0.000998764988
0.0009987829256
0.0009988103336
0.0009988479724
0.0009988989978
0.0009989694442
0.0009990706852
0.000999222344
0.0009994771698
0.0003467933002
0.0005098243738
0.0003164454275
0.0001841162344
5.985076996e-05
8.62061684e-06
4.920735613e-07
2.065144697e-07
1.771642898e-07
1.59556098e-07
1.471297673e-07
1.376648627e-07
1.319298083e-07
1.314379943e-07
1.179902594e-07
1.095318836e-07
1.101399268e-07
1.162688208e-07
1.25584747e-07
1.38249831e-07
1.552655248e-07
1.780695121e-07
2.085646628e-07
2.492736978e-07
3.035789053e-07
3.76074974e-07
4.730865726e-07
6.034358706e-07
7.795907515e-07
1.019412033e-06
1.348943219e-06
1.807562004e-06
2.460231467e-06
3.430607004e-06
4.981304577e-06
7.683767504e-06
1.277056858e-05
2.288962586e-05
4.374892028e-05
8.775273192e-05
0.0001821335338
0.0003872880389
0.0008383807491
0.001001618326
0.001000818459
0.0009998380639
0.0009992349791
0.0009989548848
0.0009988303561
0.0009987806231
0.0009987675084
0.0009987735646
0.000998791464
0.0009988190161
0.000998857024
0.0009989086254
0.0009989798162
0.0009990818558
0.0009992341659
0.0009994886369
0.0003641427602
0.0004720903109
0.0002753245364
0.0001653897398
3.196161376e-05
3.552276911e-06
2.824658511e-07
1.707358907e-07
1.510106551e-07
1.366371532e-07
1.265424041e-07
1.189385683e-07
1.14693925e-07
1.152790337e-07
1.029470585e-07
9.882047039e-08
1.022802288e-07
1.096870888e-07
1.200122995e-07
1.338259128e-07
1.52231154e-07
1.767147622e-07
2.092357175e-07
2.523976228e-07
3.097010554e-07
3.85912616e-07
4.876065222e-07
6.239678762e-07
8.079944612e-07
1.058322783e-06
1.402135365e-06
1.88052059e-06
2.561297629e-06
3.573986683e-06
5.194869476e-06
8.026590685e-06
1.336956999e-05
2.401636475e-05
4.598400117e-05
9.234318683e-05
0.0001917755924
0.0004078499192
0.0008827150987
0.001001583753
0.001000762211
0.0009997847093
0.0009992188825
0.0009989546044
0.0009988362365
0.0009987885568
0.0009987759233
0.0009987820037
0.0009987999333
0.0009988276926
0.0009988661283
0.0009989183623
0.000998990353
0.0009990932333
0.0009992461888
0.0009995001263
0.0003852814707
0.0004112227056
0.0002469038885
0.000146689862
1.730000152e-05
1.351377692e-06
1.881943898e-07
1.437635362e-07
1.292936518e-07
1.174627619e-07
1.092187146e-07
1.032055012e-07
1.003102175e-07
1.006528042e-07
9.116279797e-08
9.075335661e-08
9.607434775e-08
1.044672181e-07
1.157390907e-07
1.306735432e-07
1.504293235e-07
1.765356911e-07
2.110096708e-07
2.565391551e-07
3.167471067e-07
3.965772856e-07
5.028607599e-07
6.4515623e-07
8.370072663e-07
1.097850928e-06
1.456050116e-06
1.954481355e-06
2.663995358e-06
3.720416892e-06
5.414724661e-06
8.382999625e-06
1.399830854e-05
2.520838522e-05
4.836285322e-05
9.725200964e-05
0.0002021273259
0.0004300040682
0.0009306470068
0.001001545535
0.001000702216
0.0009997353168
0.0009992040338
0.0009989545129
0.0009988419556
0.0009987962632
0.0009987841467
0.0009987903157
0.0009988083421
0.0009988363708
0.0009988752921
0.0009989282136
0.0009990010564
0.0009991048146
0.0009992584015
0.0009995116276
0.0004110191958
0.0003773716058
0.0002332957018
0.0001261585248
1.005083828e-05
4.859870458e-07
1.439631253e-07
1.221916144e-07
1.109618635e-07
1.01212486e-07
9.456548807e-08
8.99892381e-08
8.812379309e-08
8.728675825e-08
8.211966695e-08
8.459350474e-08
9.115852851e-08
1.003868778e-07
1.125689783e-07
1.285898141e-07
1.496458831e-07
1.773090169e-07
2.13656844e-07
2.614646848e-07
3.244817135e-07
4.07833925e-07
5.186163032e-07
6.66771325e-07
8.66403543e-07
1.137774357e-06
1.510466901e-06
2.029221646e-06
2.768097454e-06
3.869675626e-06
5.640696597e-06
8.752980971e-06
1.46571862e-05
2.646708736e-05
5.08892233e-05
0.0001024884201
0.0002132106569
0.0004538017281
0.0009822951225
0.001001503905
0.001000638358
0.0009996896198
0.0009991903658
0.0009989546096
0.0009988475295
0.000998803759
0.0009987921923
0.0009987985115
0.0009988166993
0.0009988450583
0.0009988845213
0.000998938183
0.0009990119268
0.0009991165956
0.0009992707896
0.0009995231299
0.0004384384692
0.0003638057699
0.0002283471045
8.535042211e-05
5.039410347e-06
1.96631689e-07
1.186977651e-07
1.042923233e-07
9.533495473e-08
8.753994836e-08
8.215714401e-08
7.875387555e-08
7.788790572e-08
7.680466825e-08
7.533441581e-08
7.979873728e-08
8.728662567e-08
9.727204447e-08
1.103285797e-07
1.273908592e-07
1.496884445e-07
1.788371544e-07
2.169774934e-07
2.669750339e-07
3.327087798e-07
4.194918293e-07
5.3468984e-07
6.886388055e-07
8.960189154e-07
1.177939036e-06
1.565241556e-06
2.10460614e-06
2.873479507e-06
4.021666847e-06
5.872774005e-06
9.136743952e-06
1.534693789e-05
2.779442195e-05
5.356785815e-05
0.0001080635946
0.0002250515463
0.0004793027285
0.001002185404
0.00100145911
0.001000570522
0.0009996473579
0.0009991778092
0.0009989548914
0.0009988529732
0.000998811061
0.0009988000742
0.000998806602
0.0009988250137
0.000998853762
0.0009988938212
0.0009989482735
0.000999022964
0.0009991285698
0.000999283324
0.000999534624
0.0004822225641
0.0003656821422
0.000228338196
4.15016489e-05
1.363970169e-06
1.206654736e-07
1.00660472e-07
8.95655091e-08
8.233883325e-08
7.593760491e-08
7.166213142e-08
6.936614071e-08
6.946178393e-08
6.887293218e-08
7.031751237e-08
7.60894413e-08
8.428198095e-08
9.497363706e-08
1.088626046e-07
1.269138775e-07
1.503895443e-07
1.809508312e-07
2.208031351e-07
2.729049031e-07
3.412684003e-07
4.313984464e-07
5.509378103e-07
7.106253758e-07
9.257312552e-07
1.218234569e-06
1.620275607e-06
2.180548729e-06
2.980072728e-06
4.176361679e-06
6.111032351e-06
9.53461858e-06
1.606848432e-05
2.919266072e-05
5.640412168e-05
0.0001139899887
0.0002376787338
0.0005065730799
0.00100215515
0.001001411411
0.001000498574
0.0009996082835
0.0009991662958
0.0009989553539
0.0009988583006
0.0009988181853
0.0009988078061
0.0009988145981
0.0009988332938
0.0009988624884
0.0009989031959
0.0009989584866
0.000999034166
0.0009991407264
0.0009992959659
0.0009995461032
0.0005232318519
0.0003595069483
0.0002228620716
1.94118107e-05
3.280353642e-07
9.698217849e-08
8.653768161e-08
7.746883671e-08
7.143151434e-08
6.620726125e-08
6.29397061e-08
6.1678183e-08
6.267662189e-08
6.307173349e-08
6.659578661e-08
7.321233477e-08
8.199811542e-08
9.335377179e-08
1.080287316e-07
1.270133558e-07
1.516028433e-07
1.835052221e-07
2.249926784e-07
2.791190029e-07
3.50032944e-07
4.434353938e-07
5.672523793e-07
7.326347926e-07
9.554567698e-07
1.258590383e-06
1.675512476e-06
2.25700853e-06
3.087859306e-06
4.333792167e-06
6.35562435e-06
9.947039641e-06
1.682290166e-05
3.066433422e-05
5.940385668e-05
0.0001202810185
0.000251122992
0.0005356833001
0.001002121218
0.001001361084
0.001000422334
0.0009995721639
0.0009991557597
0.0009989559918
0.0009988635245
0.0009988251471
0.0009988154013
0.0009988225102
0.0009988415473
0.000998871243
0.0009989126486
0.0009989688229
0.0009990455292
0.0009991530484
0.0009993086988
0.0009995575584
0.0005622899204
0.0003493059027
0.0002092503389
9.637431138e-06
1.269542068e-07
8.291075176e-08
7.486172243e-08
6.742417825e-08
6.233493008e-08
5.810677302e-08
5.577603945e-08
5.54885582e-08
5.731810262e-08
5.891147044e-08
6.378593294e-08
7.098925159e-08
8.030895155e-08
9.228728774e-08
1.077002587e-07
1.275626925e-07
1.532038857e-07
1.8638011e-07
2.29432179e-07
2.855115674e-07
3.589065471e-07
4.555182392e-07
5.835618973e-07
7.546094531e-07
9.851532011e-07
1.298981025e-06
1.730945377e-06
2.334000747e-06
3.196886719e-06
4.494069449e-06
6.606802666e-06
1.037457465e-05
1.761145528e-05
3.221226659e-05
6.25734025e-05
0.0001269510006
0.0002654168224
0.0005667074247
0.00100208387
0.001001308436
0.001000341553
0.0009995387836
0.0009991461382
0.0009989567994
0.0009988686567
0.0009988319611
0.0009988228723
0.000998830348
0.0009988497813
0.0009988800303
0.0009989221811
0.0009989792814
0.0009990570479
0.0009991655177
0.0009993215366
0.0009995689718
0.0005811667698
0.000338358501
0.0001853509433
5.646960538e-06
9.453179255e-08
7.161689862e-08
6.51702958e-08
5.903361065e-08
5.472972564e-08
5.13871243e-08
4.9961663e-08
5.058906721e-08
5.315893553e-08
5.592021723e-08
6.162857285e-08
6.929301344e-08
7.910555751e-08
9.16654177e-08
1.077686684e-07
1.284551379e-07
1.55089326e-07
1.894771675e-07
2.340298403e-07
2.919986898e-07
3.678143807e-07
4.675822586e-07
5.998126631e-07
7.765075613e-07
1.014791635e-06
1.339391656e-06
1.786575183e-06
2.411545304e-06
3.307204627e-06
4.657304893e-06
6.864817574e-06
1.081778282e-05
1.843539043e-05
3.383924112e-05
6.59190236e-05
0.0001340141268
0.0002805925299
0.0005997192435
0.001002043346
0.00100125381
0.001000262687
0.0009995079437
0.0009991373725
0.0009989577704
0.0009988737075
0.0009988386404
0.0009988302307
0.0009988381204
0.000998858002
0.0009988888538
0.0009989317943
0.00099898986
0.0009990687141
0.000999178118
0.00099933448
0.0009995803208
0.0005686187273
0.0003330391991
0.0001531239303
2.185672192e-06
7.708524255e-08
6.233514686e-08
5.708326199e-08
5.199285915e-08
4.836754358e-08
4.58534271e-08
4.531475403e-08
4.677317396e-08
4.994678765e-08
5.371918073e-08
5.995894332e-08
6.802225151e-08
7.829193533e-08
9.139323685e-08
1.081413386e-07
1.29601895e-07
1.571756919e-07
1.927196474e-07
2.38716894e-07
2.985206659e-07
3.767067312e-07
4.7958852e-07
6.159772535e-07
7.983139451e-07
1.044370037e-06
1.379834553e-06
1.842430231e-06
2.489690309e-06
3.418892345e-06
4.823641996e-06
7.129954023e-06
1.127725859e-05
1.929598189e-05
3.554805057e-05
6.944693657e-05
0.0001414843871
0.0002966818297
0.0006347909881
0.001001999866
0.001001197324
0.001000189678
0.0009994794618
0.0009991294074
0.0009989588985
0.0009988786864
0.0009988451972
0.0009988374871
0.0009988458352
0.0009988662145
0.0009988977159
0.0009989414875
0.0009990005548
0.000999080518
0.0009991908336
0.0009993475128
0.0009995915874
0.0005523688827
0.0003305644729
8.216279161e-05
7.405297658e-07
6.538405846e-08
5.471591451e-08
5.035472986e-08
4.610359285e-08
4.308197498e-08
4.136552421e-08
4.167214808e-08
4.384259637e-08
4.735390254e-08
5.205457956e-08
5.867162153e-08
6.709518052e-08
7.778792189e-08
9.139212345e-08
1.08742395e-07
1.309310346e-07
1.593961066e-07
1.960466999e-07
2.43439348e-07
3.050310447e-07
3.855452403e-07
4.915072047e-07
6.320347827e-07
8.200170422e-07
1.073886651e-06
1.420318422e-06
1.898530793e-06
2.568470508e-06
3.532009541e-06
4.993195864e-06
7.402452691e-06
1.17535196e-05
2.019436064e-05
3.73412046e-05
7.316278357e-05
0.0001493745738
0.0003137138903
0.0006719893611
0.001001953641
0.001001138927
0.001000122085
0.0009994531709
0.0009991221915
0.0009989601772
0.0009988836014
0.0009988516425
0.0009988446509
0.0009988534993
0.0009988744229
0.0009989066178
0.0009989512588
0.0009990113607
0.0009990924474
0.0009992036486
0.0009993606184
0.0009996027513
0.0005318693984
0.0003253884874
4.487836162e-05
2.786350478e-07
5.673728507e-08
4.8444722e-08
4.47449224e-08
4.117571816e-08
3.872178821e-08
3.778666302e-08
3.885972866e-08
4.160480368e-08
4.550254113e-08
5.076898828e-08
5.76881784e-08
6.644130094e-08
7.752484252e-08
9.159613073e-08
1.095097189e-07
1.323852875e-07
1.616990615e-07
1.994133596e-07
2.4815944e-07
3.114998161e-07
3.943081012e-07
5.033250966e-07
6.4798099e-07
8.416219654e-07
1.103356468e-06
1.460868881e-06
1.954914239e-06
2.647937986e-06
3.646633351e-06
5.166097728e-06
7.68256358e-06
1.224707189e-05
2.11315921e-05
3.922101632e-05
7.707169399e-05
0.0001576962068
0.0003317147842
0.0007113736296
0.001001904879
0.001001078546
0.00100005951
0.0009994289179
0.0009991156769
0.0009989615998
0.0009988884598
0.000998857986
0.0009988517305
0.0009988611186
0.0009988826301
0.0009989155592
0.0009989611047
0.0009990222704
0.0009991044881