/*--------------------------------*- C++ -*----------------------------------*\
  =========                 |
  \\      /  F ield         | OpenFOAM: The Open Source CFD Toolbox
   \\    /   O peration     | Website:  https://openfoam.org
    \\  /    A nd           | Version:  12
     \\/     M anipulation  |
\*---------------------------------------------------------------------------*/
FoamFile
{
    format      ascii;
    class       volScalarField;
    location    "1350";
    object      p;
}
// * * * * * * * * * * * * * * * * * * * * * * * * * * * * * * * * * * * * * //

dimensions      [1 -1 -2 0 0 0 0];

internalField   nonuniform List<scalar> 
16200
(
79478.14324
79484.98605
79494.00634
79505.71634
79521.06703
79541.35249
79568.54975
79604.62769
79649.86093
79704.12702
79768.75382
79845.66731
79936.74135
80045.10402
80173.27981
80325.42859
80505.26854
80718.06305
80969.11817
81265.05985
81612.99816
82021.13994
82498.33339
83054.13231
83698.28428
84440.1267
85287.40543
86244.5585
87310.31002
88474.71958
89716.36818
91001.36999
92286.1118
93523.88951
94673.00916
95702.98006
96596.92579
97350.59461
97969.54341
98465.90986
98855.51135
99155.50557
99382.65815
99552.20754
99677.26401
99768.61519
99834.84101
99882.57301
99916.82638
99941.32948
99958.81761
99971.27931
99980.14611
99986.45096
99990.91891
99994.10645
99996.3178
99998.02427
99998.75255
100000.0395
78355.83635
78364.07238
78373.68044
78386.63301
78403.82904
78426.74908
78457.86891
78498.5419
78549.15242
78609.51219
78681.23198
78766.60635
78867.6086
78987.82259
79129.95084
79298.67202
79498.09055
79734.09609
80012.64168
80341.18093
80727.76322
81181.67202
81712.93003
82332.2849
83050.55087
83877.71985
84821.35595
85884.27388
87061.36958
88336.02804
89677.63613
91042.6897
92380.84196
93644.05866
94794.81197
95810.16297
96681.38511
97410.88816
98008.49669
98488.30138
98866.36512
99159.12095
99382.24734
99549.92186
99674.39949
99765.8641
99832.50936
99880.74511
99915.47345
99940.37571
99958.17654
99970.87071
99979.9044
99986.32236
99990.86945
99994.09788
99996.33973
99998.05171
99998.75603
100000.0432
77418.49614
77427.68423
77438.46758
77453.05159
77472.50258
77498.58252
77534.09468
77579.65773
77635.67118
77702.25276
77781.30002
77875.52762
77986.98664
78119.81328
78276.9674
78463.75361
78684.8015
78946.75916
79256.37915
79622.06165
80052.90475
80559.33353
81152.56568
81844.46084
82646.6306
83569.1344
84618.28826
85793.54025
87083.46328
88462.01155
89887.63339
91307.77891
92668.36499
93924.14237
95045.33067
96018.67737
96844.31866
97531.12916
98092.62931
98544.2422
98901.73282
99180.34937
99394.28396
99556.29802
99677.47923
99767.14258
99832.88028
99880.71259
99915.30275
99940.19359
99958.03429
99970.78108
99979.86336
99986.31842
99990.89367
99994.13468
99996.38616
99998.09599
99998.77769
100000.0872
76684.11891
76694.1234
76706.62191
76723.25613
76745.49798
76775.51987
76816.02561
76867.20399
76929.44991
77003.48897
77091.34747
77196.26409
77320.38047
77468.45432
77643.74677
77852.22291
78099.07166
78391.71865
78737.7622
79146.60803
79628.49951
80195.09276
80858.8215
81632.49458
82528.04012
83554.62605
84715.68713
86004.8582
87401.43051
88867.60107
90350.75119
91792.01977
93138.1601
94351.17067
95411.91826
96317.87337
97077.74079
97705.96996
98218.8279
98632.30823
98961.33876
99219.60581
99419.52843
99572.20808
99687.34625
99773.1925
99836.56768
99882.96131
99916.68559
99941.05876
99958.59017
99971.15091
99980.11978
99986.50362
99991.03391
99994.24175
99996.47019
99998.15994
99998.80551
100000.1139
76178.8379
76190.04201
76204.65695
76223.77057
76249.39824
76284.27214
76330.66273
76388.52508
76458.20875
76541.16392
76639.46522
76756.91028
76895.69434
77061.21774
77257.08434
77489.98203
77765.7793
78092.81768
78479.72915
78937.08699
79476.3858
80110.47582
80852.76581
81716.47893
82712.90865
83848.78405
85122.34659
86518.48448
88004.56729
89530.29889
91034.30893
92456.24163
93748.99765
94885.66153
95859.32975
96677.91036
97357.40521
97916.36153
98372.55475
98741.68841
99037.32762
99271.29728
99454.06552
99594.94784
99702.1513
99782.75794
99842.7223
99886.91862
99919.23672
99942.71272
99959.67161
99971.86577
99980.59877
99986.82948
99991.26023
99994.40062
99996.58314
99998.24055
99998.84478
100000.153
75908.31738
75921.03897
75938.17708
75960.25558
75989.98427
76030.66087
76083.94692
76149.25967
76226.93384
76319.20252
76428.33609
76558.96993
76713.46508
76897.98125
77116.60343
77376.86757
77685.46115
78051.71143
78485.3111
78997.92594
79602.13992
80311.71236
81140.5546
82101.49107
83203.82053
84449.74382
85829.52881
87316.50313
88864.73589
90412.98834
91895.69351
93256.80702
94460.12434
95492.17988
96358.35604
97075.63531
97665.49025
98148.91021
98543.96201
98865.29899
99124.71795
99332.00077
99495.59655
99623.00763
99720.9236
99795.22695
99850.96562
99892.35467
99922.81919
99945.07558
99961.23308
99972.90055
99981.28709
99987.28943
99991.56994
99994.6101
99996.72487
99998.33734
99998.89323
100000.1963
75846.24594
75860.81423
75880.89245
75906.54002
75941.2884
75988.55985
76049.21339
76121.91451
76208.64356
76312.51998
76435.33901
76582.42736
76756.35477
76964.07805
77210.18907
77503.0495
77850.16929
78261.8238
78748.74762
79323.65052
80000.10253
80792.48346
81714.5545
82777.53052
83986.81312
85337.49218
86809.01756
88361.24013
89935.57662
91463.77643
92882.05357
94144.25392
95228.3536
96134.94892
96880.43119
97488.78748
97984.92516
98390.68391
98723.36739
98995.98613
99218.30367
99397.98985
99541.49912
99654.57224
99742.42593
99809.76801
99860.74582
99898.90754
99927.19827
99947.99684
99963.17938
99974.19591
99982.14852
99987.86193
99991.95082
99994.86342
99996.89242
99998.44919
99998.95122
100000.2474
75987.31184
76004.33891
76027.64777
76057.4622
76098.30031
76153.09233
76222.22642
76304.4309
76402.5366
76519.70269
76658.09063
76823.8267
77019.67338
77253.42394
77530.2688
77859.44946
78249.40425
78711.42356
79257.33298
79900.80956
80656.11064
81537.56359
82557.611
83724.12194
85036.2759
86479.33002
88019.63031
89603.27712
91162.03302
92626.38457
93940.53451
95072.4974
96015.80468
96784.11582
97402.63876
97900.01153
98302.63688
98631.85751
98903.41101
99128.27332
99314.05284
99466.33708
99589.68128
99688.17153
99765.64212
99825.68987
99871.59979
99906.27148
99932.17506
99951.34912
99965.43033
99975.70248
99983.15343
99988.52978
99992.39344
99995.15563
99997.08363
99998.57522
99999.01806
100000.3055
76314.65422
76334.66653
76361.67647
76396.45796
76444.62871
76507.61712
76585.7173
76678.44354
76788.38247
76920.00429
77075.35999
77261.55008
77481.6268
77744.26385
78055.35665
78425.0702
78862.83466
79380.92459
79992.1259
80710.73798
81551.06792
82526.37604
83646.32871
84913.47503
86318.28863
87833.71098
89411.88311
90987.05291
92486.47987
93845.94379
95022.90423
96001.88285
96791.46669
97416.19503
97907.46284
98296.27016
98608.86383
98865.06424
99078.50597
99257.92676
99408.77884
99534.67197
99638.40572
99722.5531
99789.68444
99842.37366
99883.10297
99914.15979
99937.559
99955.00786
99967.90598
99977.37
99984.27109
99989.27485
99992.88759
99995.48131
99997.29606
99998.71447
99999.09347
100000.3711
76797.40937
76820.88934
76852.13744
76892.78652
76949.15473
77020.87249
77108.5022
77213.17697
77337.35641
77486.07006
77661.34364
77871.26517
78119.26057
78414.9113
78764.90744
79180.34939
79671.65875
80251.95232
80934.6862
81734.26478
82664.24683
83735.66023
84953.73319
86313.43958
87793.9677
89354.16756
90932.75092
92456.37507
93854.35675
95073.90661
96089.18746
96901.47207
97532.4107
98014.58669
98382.93759
98668.8416
98897.12073
99085.38065
99244.8585
99382.00648
99500.21129
99601.25977
99686.36703
99756.75176
99813.8523
99859.32005
99894.90579
99922.33197
99943.18751
99958.86511
99970.53612
99979.15388
99985.47394
99990.08071
99993.42401
99995.83554
99997.52747
99998.86602
99999.17707
100000.4445
77421.09345
77448.60471
77484.7693
77532.58832
77598.31249
77680.69068
77780.23271
77897.98238
78037.34943
78204.64312
78401.78775
78637.9159
78916.94113
79249.37342
79642.73069
80108.93763
80659.24968
81307.34021
82066.93222
82951.92398
83974.18165
85141.05942
86451.26081
87889.5809
89421.66154
90992.02621
92529.16448
93958.35483
95217.73999
96270.5597
97108.89883
97749.21024
98223.28747
98568.77335
98821.794
99012.55099
99163.56802
99289.84128
99400.11265
99498.61764
99586.82924
99664.89428
99732.62559
99790.05051
99837.61003
99876.13716
99906.72724
99930.5904
99948.92425
99962.82866
99973.25967
99981.0146
99986.73718
99990.93236
99993.99405
99996.21366
99997.77569
99999.02897
99999.26866
100000.526
78163.58787
78195.80347
78237.70948
78293.76686
78368.68578
78461.15498
78573.37572
78707.02597
78864.55708
79053.72717
79276.47907
79542.94278
79857.50015
80231.47987
80673.19408
81195.29289
81809.78904
82530.72718
83371.69959
84345.31839
85460.43976
86718.77797
88109.94705
89606.0241
91158.06332
92698.38229
94150.80435
95446.29876
96537.49325
97406.01531
98060.97145
98531.16793
98855.27726
99073.2556
99220.52646
99325.01766
99406.43724
99477.01757
99543.05247
99606.70726
99667.72775
99724.81405
99776.55767
99821.95265
99860.57282
99892.53439
99918.35307
99938.7806
99954.66019
99966.82319
99976.02578
99982.91868
99988.03941
99991.81663
99994.59001
99996.61147
99998.03873
99999.20246
99999.36808
100000.6157
79013.62577
79051.31904
79099.89845
79165.42955
79252.79618
79358.92837
79485.25932
79636.4201
79814.09674
80027.33982
80278.0745
80577.49544
80930.5783
81349.51854
81843.5588
82426.07983
83109.71002
83908.41085
84834.79583
85898.87391
87104.61793
88445.66087
89899.90139
91425.09333
92958.82118
94425.87958
95752.42551
96881.61661
97784.12144
98459.9535
98932.72646
99240.16867
99424.7041
99526.33176
99578.39971
99605.8849
99625.45179
99646.59189
99673.29493
99705.84727
99742.468
99780.60141
99817.78927
99852.13974
99882.48067
99908.30693
99929.62682
99946.78626
99960.31102
99970.78903
99978.79319
99984.83837
99989.3625
99992.72212
99995.20509
99997.02518
99998.31473
99999.38567
99999.47497
100000.7141
79960.72771
80004.83655
80061.5512
80138.34507
80238.66628
80358.43817
80499.85824
80669.60854
80868.83322
81108.15671
81389.46558
81725.16195
82120.96836
82589.91002
83142.0616
83791.18552
84549.96104
85431.4293
86446.06623
87599.66702
88889.12226
90297.42124
91788.7836
93306.90329
94779.60022
96130.73186
97295.80249
98234.84141
98937.62201
99420.57543
99718.38598
99874.24837
99931.66598
99928.98173
99896.58485
99856.1707
99821.34738
99799.00734
99791.03684
99796.05397
99810.95067
99832.09536
99856.13757
99880.43319
99903.17395
99923.32053
99940.44067
99954.52392
99965.81409
99974.68046
99981.52946
99986.75125
99990.69147
99993.63919
99995.83336
99997.45141
99998.60203
99999.57774
99999.58865
100000.8212
80982.99298
81034.89248
81101.14291
81189.19
81302.20245
81438.21753
81597.85853
81789.81163
82014.61361
82284.73963
82601.98843
82979.88716
83424.81183
83950.35443
84567.12894
85288.84223
86127.65692
87094.83979
88197.36653
89434.79223
90794.39753
92246.33145
93740.72279
95209.94325
96577.95334
97774.83899
98751.07072
99485.75292
99986.56004
100283.0974
100417.4351
100435.1682
100378.8148
100283.9233
100177.4524
100077.7461
99995.48926
99935.18757
99896.85039
99877.63987
99873.30963
99879.31661
99891.55895
99906.759
99922.56997
99937.49638
99950.72586
99961.93706
99971.12497
99978.46377
99984.20981
99988.63966
99992.01413
99994.55976
99996.46975
99997.88718
99998.8991
99999.77775
99999.7085
100000.9374
82086.56759
82147.84587
82224.5549
82325.89098
82453.69228
82607.91012
82788.77487
83006.61973
83260.87512
83566.03062
83923.795
84348.67035
84847.62143
85434.65358
86120.72861
86919.10217
87840.65874
88893.53311
90079.14522
91388.2983
92796.38222
94259.86332
95716.67343
97092.93026
98315.69651
99327.55768
100097.2588
100622.7099
100926.6516
101048.0912
101033.0692
100927.1295
100770.3661
100594.8777
100424.0369
100272.9463
100149.5883
100056.3282
99991.52947
99951.10057
99929.82946
99922.40803
99924.10683
99931.11843
99940.64303
99950.79778
99960.44406
99968.9906
99976.21395
99982.11513
99986.81591
99990.49003
99993.32079
99995.47718
99997.1099
99998.32986
99999.20456
99999.9848
99999.83488
100001.0628
83274.46452
83347.22788
83436.26347
83555.38867
83701.37048
83875.92864
84079.80595
84326.04106
84612.49828
84955.72229
85357.46908
85833.17762
86390.41491
87043.41141
87803.04931
88681.22273
89686.05125
90820.51496
92078.13695
93438.85449
94865.14987
96301.02179
97676.36332
98917.49236
99961.16249
100766.7325
101321.9839
101641.4121
101759.1408
101719.8984
101570.862
101355.7495
101111.3492
100866.0338
100639.6554
100444.2957
100285.5004
100163.7485
100075.9788
100017.0318
99980.88359
99961.58909
99953.89855
99953.56444
99957.40796
99963.21888
99969.57978
99975.666
99981.06299
99985.61872
99989.33477
99992.2922
99994.60386
99996.38602
99997.75015
99998.77713
99999.5171
100000.1981
99999.96991
100001.1978
84548.1192
84635.12521
84738.24271
84876.33679
85041.03284
85238.45217
85467.5086
85744.99949
86067.15272
86452.51469
86902.98
87434.7384
88055.69089
88779.62276
89616.33224
90574.90786
91658.9076
92864.2168
94174.66725
95558.28233
96965.27184
98330.39052
99581.20864
100650.8227
101490.6992
102078.7715
102420.4232
102543.3336
102489.1846
102305.2463
102037.7013
101727.2938
101407.072
101101.6776
100827.6481
100594.3238
100405.092
100258.7904
100151.1375
100076.071
100026.8897
99997.12223
99981.09043
99974.18343
99972.90705
99974.7756
99978.13424
99981.95708
99985.66298
99988.96498
99991.75766
99994.03883
99995.85753
99997.28193
99998.38738
99999.22697
99999.83551
100000.4173
100000.1174
100001.3426
85907.30021
86011.67724
86128.3068
86285.43664
86471.55131
86696.03213
86954.39546
87267.82353
87630.95039
88064.05194
88568.99386
89162.17831
89851.24974
90648.57968
91561.72493
92595.59895
93747.69626
95005.30693
96341.44071
97712.29625
99058.11841
100309.2777
101397.3197
102267.6355
102889.169
103257.8903
103393.8529
103334.1024
103124.4227
102812.1411
102441.0002
102048.1407
101662.7644
101305.9542
100991.2164
100725.4499
100510.1548
100342.7543
100217.9286
100128.8576
100068.2789
100029.2889
100005.8595
99993.08164
99987.20015
99985.49849
99986.12029
99987.86666
99990.0115
99992.14915
99994.07919
99995.72483
99997.0774
99998.16138
99999.01897
99999.67757
100000.1587
100000.6423
100000.279
100001.4977
87366.83693
87491.33387
87623.11789
87802.4891
88011.66103
88266.97117
88558.55983
88911.86438
89319.9564
89804.45735
90366.94312
91023.37566
91780.58005
92648.63224
93631.82611
94729.67506
95932.17621
97216.7145
98545.04702
99863.05886
101105.0491
102202.8546
103097.7556
103751.0142
104149.447
104304.7542
104248.0136
104022.005
103673.8054
103249.0385
102788.148
102324.4311
101883.358
101482.7268
101133.3286
100839.9172
100602.357
100416.8603
100277.2284
100176.0083
100105.475
100058.3733
100028.3906
100010.3752
100000.3572
99995.42727
99993.55858
99993.4038
99994.11092
99995.17007
99996.29657
99997.34685
99998.26027
99999.02162
99999.64269
100000.1273
100000.4855
100000.8733
100000.4507
100001.6629
88935.77193
89084.26271
89235.68821
89442.33193
89675.79879
89963.42581
90289.93732
90684.62294
91138.95021
91675.47886
92295.34496
93013.42411
93835.1997
94767.53623
95810.27546
96956.03688
98185.78182
99466.21567
100748.7783
101972.3618
103070.6529
103982.7327
104663.8036
105092.2798
105271.2749
105224.9057
104991.5903
104616.766
104146.7285
103624.2823
103086.1668
102561.8668
102073.3686
101635.5072
101256.6763
100939.7619
100683.2198
100482.2287
100329.8491
100218.1016
100138.8823
100084.6512
100048.8676
100026.1832
100012.4527
100004.6068
100000.4746
99998.5817
99997.96701
99998.02919
99998.4089
99998.90295
99999.40384
99999.86042
100000.2566
100000.5748
100000.8151
100001.1098
100000.6305
100001.8379
90614.05112
90790.27614
90961.5689
91195.76571
91454.78746
91776.03857
92138.79494
92575.8493
93077.08134
93665.51664
94341.8364
95119.04395
96000.48244
96988.50049
98076.86037
99249.70105
100478.0377
101718.5403
102915.1225
104004.4813
104925.2865
105628.423
106085.0586
106289.9547
106259.6743
106027.1508
105634.8803
105128.5927
104552.4158
103945.7361
103341.5079
102765.6042
102236.8428
101767.4288
101363.6595
101026.804
100754.1082
100539.8716
100376.5308
100255.6702
100168.8772
100108.3838
100067.4675
100040.623
100023.5624
100013.0841
100006.8963
100003.4161
100001.5878
100000.7297
100000.4167
100000.3922
100000.5066
100000.6761
100000.8592
100001.0186
100001.1465
100001.3517
100000.8198
100002.0219
92388.05174
92593.68844
92784.67949
93049.57139
93335.74599
93691.67009
94092.02705
94572.81308
95122.43768
95763.39313
96495.59609
97328.89874
98263.13829
99294.54763
100409.3165
101582.3436
102775.2295
103936.9969
105008.263
105928.7596
106646.8178
107127.7524
107358.6328
107348.2799
107123.3237
106722.1681
106188.7776
105567.5194
104899.5394
104220.5873
103559.9633
102940.2224
102377.3536
101881.2527
101456.3945
101102.6524
100816.235
100590.6934
100417.9399
100289.198
100195.8057
100129.8139
100084.3574
100053.807
100033.76
100020.9065
100012.853
100007.9243
100004.9825
100003.2762
100002.3216
100001.8144
100001.5674
100001.4672
100001.449
100001.4576
100001.4789
100001.5988
100001.0155
100002.2146
94259.6194
94489.94858
94694.32615
94990.47834
95308.1326
95702.81764
96144.77499
96672.49877
97273.12203
97967.00693
98752.6214
99635.29275
100610.0288
101665.9033
102780.9688
103921.3915
105041.3316
106085.7809
106996.7702
107721.6371
108221.3794
108476.3343
108487.7926
108275.587
107873.0954
107321.4067
106664.0498
105942.9894
105196.0096
104455.2615
103746.6462
103089.7352
102498.0224
101979.3894
101536.7316
101168.7189
100870.669
100635.4959
100454.6711
100319.1205
100219.9816
100149.1641
100099.6922
100065.8411
100043.1164
100028.1199
100018.3737
100012.1237
100008.1614
100005.6739
100004.1256
100003.1701
100002.5858
100002.2328
100002.0248
100001.8907
100001.8117
100001.8504
100001.2095
100002.4172
96212.3702
96476.99181
96708.59218
97038.06524
97390.0878
97826.29876
98312.00975
98886.53811
99536.27525
100277.9526
101107.8655
102025.9162
103021.3976
104075.8163
105159.3774
106231.0527
107240.5326
108132.9037
108855.9146
109367.7084
109643.0829
109676.3266
109480.3277
109082.7519
108520.8475
107836.2739
107070.8615
106263.6149
105448.8806
104655.4075
103906.0135
103217.6253
102601.5534
102063.9289
101606.2795
101226.2349
100918.347
100674.9858
100487.2518
100345.8265
100241.6876
100166.6365
100113.6142
100076.8235
100051.6979
100034.7683
100023.4867
100016.032
100011.1348
100007.9284
100005.8316
100004.4599
100003.5614
100002.9719
100002.5856
100002.3168
100002.1443
100002.1038
100001.3944
100002.6316
98290.29254
98592.66686
98851.2028
99214.11049
99598.97589
100074.0455
100600.3236
101215.8014
101906.6125
102684.8726
103543.8366
104477.2907
105468.2405
106490.7752
107508.3831
108475.3008
109340.3233
110052.6039
110568.8545
110859.5687
110912.843
110734.7732
110346.9085
109781.8704
109078.5096
108277.5882
107418.4963
106537.0704
105664.3386
104825.9303
104041.9134
103326.8928
102690.2764
102136.675
101666.4299
101276.2703
100960.0865
100709.7831
100516.1477
100369.6614
100261.1767
100182.4136
100126.253
100086.8444
100059.5663
100040.8932
100028.2189
100019.6662
100013.913
100010.0456
100007.4423
100005.6851
100004.4943
100003.684
100003.1302
100002.7352
100002.4759
100002.3552
100001.5787
100002.8574
100488.5205
100830.7521
101116.3964
101511.0387
101925.282
102433.7554
102994.8324
103643.0459
104363.9206
105164.189
106033.2487
106958.3463
107916.2104
108874.5029
109792.0572
110621.5008
111314.34
111826.9737
112126.9007
112196.9627
112036.91
111662.0326
111099.7582
110385.312
109557.5082
108655.2893
107715.2532
106770.0937
105847.7534
104971.0585
104157.6529
103420.1135
102766.1935
102199.1814
101718.3864
101319.7538
100996.6007
100740.4312
100541.769
100390.9315
100278.6744
100196.6592
100137.7257
100095.9862
100066.7785
100046.5329
100032.5959
100023.0428
100016.5061
100012.0313
100008.9609
100006.8468
100005.3845
100004.3685
100003.658
100003.1451
100002.8055
100002.6019
100001.7738
100003.0903
102794.7469
103173.9738
103481.6574
103906.8009
104348.7648
104885.4977
105474.5086
106145.525
106882.9691
107687.6089
108544.5775
109434.7644
110329.3964
111191.5119
111977.9746
112643.0349
113143.9175
113446.2383
113528.6825
113385.276
113025.1867
112470.2962
111751.5506
110905.0153
109968.3817
108978.2732
107968.4128
106968.5196
106003.7375
105094.4092
104256.0562
103499.4889
102831.0194
102252.783
101763.1865
101357.4898
101028.5099
100767.4052
100564.4762
100409.9075
100294.3813
100209.52
100148.1378
100104.3237
100073.3866
100051.7231
100036.6415
100026.1771
100018.9239
100013.8914
100010.3905
100007.9464
100006.2324
100005.025
100004.1681
100003.5459
100003.1319
100002.8429
100001.9819
100003.3267
105201.99
105614.0635
105940.6255
106390.1959
106854.655
107411.4945
108018.0615
108698.3361
109435.3185
110223.462
111043.5587
111870.8946
112672.6364
113409.5283
114039.2801
114520.5305
114818.2108
114907.843
114778.5627
114433.742
113889.6106
113172.3499
112314.5927
111352.0241
110320.571
109254.3395
108184.2685
107137.3467
106136.2233
105199.0598
104339.5268
103566.8955
102886.2199
102298.6251
101801.7242
101390.1741
101056.3533
100791.1202
100584.5861
100426.8282
100308.4756
100221.1269
100157.5844
100111.9248
100079.4383
100056.4967
100040.3778
100029.0839
100021.1756
100015.6313
100011.7343
100008.9854
100007.0384
100005.6532
100004.6599
100003.9368
100003.4537
100003.0776
100002.2044
100003.5645
107692.1936
108132.4556
108474.4302
108941.0276
109420.4967
109987.3513
110598.9954
111272.5187
111989.4316
112738.0834
113495.4372
114232.564
114914.5135
115502.1921
115956.6016
116242.6796
116333.9275
116215.3955
115885.2222
115354.0631
114643.0545
113780.8377
112800.4155
111736.323
110622.4077
109490.2613
108368.2286
107280.845
106248.5602
105287.6305
104410.1135
103623.9372
102933.0525
102337.6937
101834.7726
101418.4114
101080.6015
100811.9398
100602.3773
100441.9051
100321.1156
100231.5971
100166.1509
100118.8507
100084.9768
100060.8837
100043.8254
100031.7767
100023.27
100017.2566
100012.9952
100009.9654
100007.803
100006.2529
100005.133
100004.3176
100003.7696
100003.3059
100002.4416
100003.8012
110250.5172
110711.4993
111064.1013
111539.861
112024.4081
112587.8587
113188.949
113836.9964
114512.1306
115197.3994
115866.9384
116489.3005
117029.4128
117450.4734
117718.5165
117805.7298
117694.0859
117377.079
116860.1051
116159.1392
115298.4371
114307.7323
113219.5247
112066.7731
110881.1552
109691.8739
108524.9194
107402.6531
106343.5989
105362.3528
104469.5655
103671.9876
102972.5976
102370.8403
101863.0018
101442.7277
101101.6658
100830.1836
100618.0956
100455.3254
100332.4423
100241.0354
100173.914
100125.157
100090.0418
100064.9119
100047.0033
100034.2683
100025.2155
100018.7725
100014.1763
100010.8878
100008.5266
100006.824
100005.5868
100004.6875
100004.078
100003.528
100002.6932
100004.0347
112856.2883
113327.461
113684.3272
114159.6765
114637.893
115182.1253
115754.7236
116357.3901
116969.0812
117568.5747
118128.3853
118616.2612
118998.7652
119242.97
119320.9021
119212.114
118906.2835
118403.9222
117715.9502
116861.9813
115868.0198
114763.9463
113581.2333
112351.0803
111103.0493
109864.1469
108658.2629
107505.8501
106423.7531
105425.1204
104519.3715
103712.2206
103005.7833
102398.7989
101886.9924
101463.5813
101119.9059
100846.132
100631.9579
100467.255
100342.5812
100249.5354
100180.9429
100130.894
100094.6693
100068.6067
100049.9291
100036.5708
100027.0199
100020.1838
100015.2807
100011.7543
100009.21
100007.3663
100006.0211
100005.046
100004.3773
100003.7444
100002.9588
100004.2622
115492.0112
115959.2793
116307.4185
116764.8071
117223.5241
117733.1587
118259.9145
118798.6178
119327.556
119822.4387
120255.4517
120595.1228
120811.0106
120875.0159
120765.4056
120468.599
119980.8527
119308.2124
118465.5902
117474.9101
116362.9437
115159.1166
113893.6047
112595.8285
111293.3731
110011.2709
108771.561
107593.0303
106491.0611
105477.5383
104560.7996
103745.641
103033.4079
102422.2047
101907.2493
101481.3721
101135.6373
100860.032
100644.1561
100477.8414
100351.6443
100257.1815
100187.3
100136.1073
100098.8921
100071.9915
100052.6191
100038.6951
100028.6907
100021.4955
100016.3111
100012.5665
100009.8537
100007.8801
100006.4359
100005.3927
100004.6659
100003.9561
100003.2381
100004.4792
118111.5612
118559.1082
118891.0939
119319.9146
119745.9853
120206.6668
120672.0014
121130.6562
121560.989
121936.9695
122231.6484
122415.5902
122462.1901
122348.521
122058.7944
121585.4435
120930.0749
120102.9166
119121.6281
118009.4622
116793.3022
115501.7744
114163.6648
112806.6946
111456.6535
110136.8259
108867.6333
107666.4127
106547.2723
105520.9897
104594.9475
103773.1235
103056.1696
102441.6158
101924.2181
101496.4549
101149.1408
100872.1046
100654.8623
100487.2174
100359.7332
100264.0501
100193.0423
100140.8388
100102.7408
100075.088
100055.0887
100040.6521
100030.235
100022.7122
100017.2706
100013.326
100010.4586
100008.3653
100006.831
100005.7266
100004.9423
100004.1646
100003.5293
100004.68
120672.6727
121093.3642
121402.9932
121792.1341
122173.969
122572.7309
122963.169
123328.8535
123648.9293
123896.8328
124047.3546
124073.8936
123954.0063
123669.8027
123210.8101
122574.4912
121766.6476
120800.5609
119695.6927
118475.9439
117167.9069
115799.2476
114397.3818
112988.467
111596.6943
110243.817
108948.8492
107727.8673
106593.8668
105556.6514
104622.755
103795.421
103074.6738
102457.5186
101938.2893
101509.1421
101160.6652
100882.5461
100664.2303
100495.5024
100366.9392
100270.2106
100198.2218
100145.1271
100106.2435
100077.9166
100057.3524
100042.4516
100031.6598
100023.8385
100018.1621
100014.0346
100011.0254
100008.8224
100007.2066
100006.047
100005.2055
100004.3716
100003.8279
100004.8617
123160.1667
123538.8489
123815.526
124152.8125
124478.882
124804.8096
125110.0392
125373.988
125577.0362
125693.0264
125698.9976
125571.5515
125292.3342
124848.0566
124232.7943
123448.0833
122502.9307
121412.7929
120198.2558
118883.4283
117494.3944
116057.8221
114599.8448
113145.2191
111716.7328
110334.8085
109017.2396
107779.006
106632.129
105585.551
104645.0478
103813.1994
103089.4579
102470.3473
101949.8129
101519.7147
101170.4346
100891.5342
100672.3998
100502.8049
100373.3462
100275.7267
100202.8865
100149.0079
100109.4264
100080.4964
100059.4237
100044.1035
100032.9716
100024.8789
100018.9884
100014.6939
100011.5551
100009.2518
100007.5628
100006.3531
100005.4549
100004.5785
100004.1258
100005.0309
125523.4489
125853.829
126093.5506
126372.6495
126635.9611
126882.3198
127096.2801
127254.342
127338.4515
127323.5506
127189.1125
126914.9859
126486.5949
125894.6855
125137.1166
124218.6591
123150.7367
121950.3308
120638.694
119239.8809
117779.3767
116282.8902
114775.3958
113280.4176
111819.5247
110411.9882
109074.5443
107821.2172
106663.1716
105608.5849
104662.551
103827.0468
103100.9998
102480.49
101959.1029
101528.4258
101178.6517
100899.2301
100679.4976
100509.2241
100379.0306
100280.6571
100207.0808
100152.5144
100112.3142
100082.8453
100061.3158
100045.6169
100034.1771
100025.8377
100019.7526
100015.3059
100012.0486
100009.6541
100007.8997
100006.644
100005.6907
100004.7859
100004.4175
100005.1938
127750.5968
128022.495
128217.8554
128432.1335
128627.3938
128790.8074
128911.5615
128964.1149
128931.867
128791.226
128524.0597
128113.3198
127547.7967
126821.6887
125935.954
124897.9129
123720.8074
122422.6892
121025.1875
119552.1683
118028.5106
116479.0469
114927.7312
113397.0189
111907.429
110477.2397
109122.2711
107855.7131
106687.9742
105626.5482
104675.9123
103837.4923
103109.7316
102488.2988
101966.4456
101535.5067
101185.5024
100905.782
100685.6411
100514.8519
100384.0638
100285.0563
100210.8463
100155.6778
100114.93
100084.9804
100063.0409
100047.0008
100035.2823
100026.7194
100020.4575
100015.8724
100012.5072
100010.0299
100008.2175
100006.9189
100005.9132
100004.9934
100004.6985
100005.3488
129799.409
130011.5309
130162.8368
130312.2557
130439.7407
130522.0369
130552.1907
130503.6462
130361.1814
130102.9534
129713.106
129177.4604
128487.7401
127641.0558
126640.8901
125496.5783
124222.7463
122838.2121
121364.8131
119826.1771
118246.6202
116650.2036
115060.0004
113497.5506
111982.4732
110532.193
109161.7358
107883.5608
106707.4066
105640.1529
104685.7165
103845.0165
103116.0483
102494.0976
101972.1053
101541.1721
101191.1599
100911.3284
100690.9401
100519.7746
100388.5131
100288.9765
100214.2226
100158.5283
100117.2965
100086.9184
100064.6114
100048.264
100036.2939
100027.5285
100021.1062
100016.3954
100012.932
100010.3802
100008.5164
100007.1774
100006.1233
100005.1997
100004.963
100005.4981
131655.9745
131808.7049
131919.1709
132007.1914
132069.9053
132075.8115
132020.7983
131878.1951
131634.0053
131268.2497
130767.1345
130119.0538
129318.2449
128364.2584
127262.6401
126024.3375
124665.0577
123204.1922
121663.7027
120066.9839
118437.8596
116799.7326
115174.9291
113584.2125
112046.4355
110578.2894
109194.112
107905.7209
106722.2584
105650.0505
104692.502
103850.0647
103120.3175
102498.1887
101976.3296
101545.6234
101195.7867
100915.9997
100695.4983
100524.0742
100392.4424
100292.4673
100217.2479
100161.0948
100119.4355
100088.6757
100066.0393
100049.4153
100037.218
100028.2694
100021.7019
100016.877
100013.3244
100010.7059
100008.7966
100007.4193
100006.3213
100005.4022
100005.2101
100005.649
133316.7301
133415.1264
133487.9067
133519.5334
133521.7148
133457.4473
133324.4092
133096.4014
132760.3682
132298.1479
131697.739
130949.7853
130050.6574
129001.948
127810.9052
126489.7938
125055.1963
123526.9652
121927.1563
120278.9686
118605.8173
116930.5586
115274.8955
113658.9394
112100.8932
110616.8208
109220.4624
107923.0714
106733.258
105656.8467
104696.7731
103853.056
103122.8864
102500.8587
101979.3536
101549.0522
101199.5381
100919.9205
100699.4152
100527.829
100395.9134
100295.5764
100219.9589
100163.4052
100121.368
100090.2681
100067.3365
100050.4634
100038.061
100028.9469
100022.2478
100017.3195
100013.6862
100011.008
100009.0585
100007.6446
100006.5075
100005.5991
100005.4473
100005.8042
134792.4537
134839.9025
134875.5887
134856.1619
134803.1254
134676.0155
134473.208