/*--------------------------------*- C++ -*----------------------------------*\
  =========                 |
  \\      /  F ield         | OpenFOAM: The Open Source CFD Toolbox
   \\    /   O peration     | Website:  https://openfoam.org
    \\  /    A nd           | Version:  12
     \\/     M anipulation  |
\*---------------------------------------------------------------------------*/
FoamFile
{
    format      ascii;
    class       volScalarField;
    location    "1350";
    object      rho;
}
// * * * * * * * * * * * * * * * * * * * * * * * * * * * * * * * * * * * * * //

dimensions      [1 -3 0 0 0 0 0];

internalField   nonuniform List<scalar> 
16200
(
0.938594309
0.938615317
0.9391501965
0.9404055032
0.9429121206
0.948027628
0.9588929735
0.9791872273
0.991561436
0.9931907631
0.9936315928
0.9942584644
0.9949808486
0.9958754165
0.9969365424
0.9982173046
0.9997400429
1.001556643
1.003710054
1.006259869
1.009266816
1.012802363
1.016942259
1.021768047
1.027361813
1.03380098
1.041147752
1.049434231
1.058641824
1.068676459
1.079345602
1.090351714
1.101318142
1.111847683
1.121591663
1.13030058
1.137841593
1.144187595
1.14939204
1.153561494
1.156831623
1.159348118
1.161252628
1.162673543
1.163721161
1.164486141
1.165040535
1.165439989
1.165726555
1.165931477
1.16607766
1.166181743
1.166255677
1.166308048
1.166344835
1.166370621
1.166387941
1.16640118
1.166403998
1.166410709
0.9282169875
0.9283811661
0.929113492
0.9306883061
0.9337909085
0.9402309449
0.9538532306
0.9744515408
0.9824576036
0.9834832516
0.9840061168
0.9847104015
0.9855299835
0.9865404359
0.987736368
0.9891757603
0.9908841959
0.9929188005
0.9953281899
0.9981789396
1.001539978
1.005492003
1.010120909
1.015518395
1.021775482
1.028974683
1.03717572
1.04639542
1.056580688
1.067578414
1.079115671
1.090811805
1.102233243
1.112973427
1.122721754
1.131295236
1.138631775
1.144761601
1.149774726
1.153794433
1.156958533
1.159406589
1.161271
1.162671097
1.16370982
1.164472589
1.165028056
1.165429863
1.165718997
1.165926203
1.16607422
1.166179674
1.166254592
1.166307622
1.16634488
1.166370866
1.166388315
1.1664015
1.166404007
1.166410191
0.919623326
0.9199722092
0.9209622448
0.9229228395
0.9267306081
0.9347502176
0.9518156788
0.9699277702
0.9747891631
0.9754573434
0.9760487849
0.9768366093
0.9777506338
0.9788751916
0.980206893
0.9818093128
0.9837130634
0.9859817848
0.9886714182
0.9918566044
0.9956153499
1.000037838
1.00521982
1.011261839
1.018260797
1.026298432
1.035422118
1.045618093
1.056777531
1.068665491
1.080915504
1.093071464
1.10467142
1.115336472
1.12482482
1.133036942
1.139985665
1.145754986
1.150465057
1.154249477
1.157242884
1.159574433
1.161363769
1.162718189
1.163730779
1.164479666
1.16502848
1.165427639
1.165716164
1.165923682
1.166072332
1.166178446
1.166253932
1.166307395
1.166344986
1.166371147
1.166388715
1.166401899
1.166404286
1.166410783
0.9128713182
0.9134258829
0.914721131
0.9171674804
0.9218907151
0.9318008745
0.9520514201
0.9659229678
0.9685737204
0.9692068985
0.9698878437
0.9707749986
0.971806047
0.9730711893
0.9745699154
0.976371209
0.9785110236
0.9810593065
0.9840795074
0.9876546006
0.9918723998
0.9968333494
1.002643282
1.009410149
1.017232442
1.026182731
1.036281999
1.047464969
1.059541755
1.072175882
1.084907009
1.097228089
1.108688633
1.118975434
1.127939537
1.135572952
1.141960436
1.147232033
1.151530045
1.154992099
1.157745257
1.159905202
1.161576465
1.162852271
1.163813982
1.164530734
1.165059655
1.16544669
1.16572791
1.165931053
1.166077082
1.166181614
1.166256136
1.166309
1.166346221
1.166372112
1.166389474
1.166402471
1.166404561
1.166410985
0.9082644035
0.9090383106
0.9106666222
0.9136796939
0.9195946464
0.9320996663
0.9537102722
0.9628289554
0.9643423122
0.9650445302
0.9658283978
0.9668309248
0.9679962695
0.9694201098
0.9711056865
0.9731275268
0.9755281984
0.9783851594
0.9817712129
0.9857792239
0.9905077982
0.9960671928
1.002570888
1.010129192
1.018833651
1.028734253
1.039805744
1.051906172
1.064742213
1.077870648
1.090759029
1.102892434
1.113877953
1.123500255
1.131715458
1.138603403
1.144309061
1.148995454
1.152816275
1.15590578
1.158378981
1.16033557
1.161863502
1.163040905
1.16393655
1.164609761
1.165110395
1.165479249
1.165748861
1.165944615
1.16608594
1.166187468
1.166260064
1.166311686
1.166348112
1.16637347
1.166390453
1.166403171
1.166404941
1.166411378
0.905865777
0.9068631294
0.9088393915
0.9124736597
0.9198133266
0.9358070271
0.9556564293
0.9613368515
0.962182555
0.9630299956
0.9639037957
0.9650241087
0.9663302223
0.967923354
0.9698123722
0.9720782208
0.9747714931
0.9779776375
0.9817788587
0.9862769029
0.991579305
0.9978032489
1.005065506
1.013471679
1.023094759
1.03394427
1.045924808
1.058793691
1.072143216
1.085438625
1.098116488
1.109704665
1.119907789
1.128627011
1.135922418
1.14194904
1.14689607
1.150945372
1.154251799
1.156939928
1.159109403
1.160842473
1.162209991
1.163274794
1.164092885
1.164713513
1.165178932
1.165524414
1.165778608
1.165964226
1.166098897
1.166196056
1.166265782
1.166315519
1.166350712
1.166375257
1.166391674
1.166404004
1.166405387
1.166411779
0.9054093669
0.9066510783
0.9090178508
0.9134117233
0.9225242076
0.9421482782
0.9582901582
0.9617091355
0.9620190904
0.9628980803
0.9638957223
0.965163864
0.9666453792
0.9684463904
0.9705819251
0.9731386853
0.9761751622
0.9797841594
0.9840568816
0.9891034052
0.9950392816
1.001986228
1.010058749
1.019347278
1.029889695
1.041632625
1.054386076
1.067790994
1.081332867
1.094421666
1.106515816
1.117233471
1.126403208
1.134045888
1.140313203
1.14541701
1.149573223
1.152969118
1.155751937
1.158031709
1.159890584
1.161392859
1.162592542
1.163537645
1.164271804
1.164834416
1.165260192
1.165578824
1.165814949
1.165988459
1.166115038
1.166206799
1.16627293
1.16632028
1.166353898
1.166377402
1.166393107
1.166404957
1.166405909
1.166412258
0.9068260265
0.9083396433
0.9111552683
0.9165554494
0.9281528915
0.9500009199
0.9612383511
0.9628915778
0.9636504689
0.9646726865
0.9658136509
0.9672473339
0.9689246333
0.9709561133
0.9733641113
0.9762413597
0.9796552304
0.9837064932
0.9884958124
0.9941409651
1.000762819
1.008481534
1.017398817
1.027574515
1.038991106
1.051508983
1.064824725
1.078462524
1.091829546
1.104331921
1.115503294
1.125087018
1.133044968
1.139507244
1.144697425
1.148863889
1.152232936
1.154986099
1.157256467
1.159136403
1.16068966
1.161962912
1.162994172
1.163817555
1.164465102
1.164966909
1.165350466
1.165640043
1.165856307
1.166016309
1.166133735
1.166219313
1.166281281
1.166325839
1.166357598
1.166379868
1.166394736
1.166406026
1.166406501
1.166412796
0.9099538947
0.9117403479
0.9150770167
0.9217405595
0.936778431
0.9582431385
0.9658101835
0.9662467749
0.9670302026
0.9681758414
0.9694667878
0.9710793052
0.9729705018
0.9752551448
0.9779640573
0.9811962456
0.9850284511
0.9895690494
0.9949267892
1.00122384
1.008580382
1.017105767
1.026875972
1.0379032
1.050093446
1.063200359
1.076799428
1.090317118
1.103128991
1.114694242
1.12466533
1.132928134
1.139571126
1.144813605
1.148928189
1.152180446
1.154793403
1.156934519
1.158718465
1.160218406
1.161479801
1.162532652
1.163400223
1.164103945
1.164665277
1.165105755
1.165446159
1.16570564
1.165901064
1.166046718
1.166154308
1.166233171
1.166290573
1.16633204
1.166361726
1.16638261
1.166396539
1.166407203
1.166407162
1.166413404
0.9145370969
0.9166258992
0.9206044677
0.9288001105
0.9477196414
0.9660782731
0.9699246117
0.9709035927
0.9718533964
0.9731507989
0.9746197107
0.976440099
0.9785777426
0.9811513451
0.9842010881
0.9878322646
0.9921308071
0.9972112698
1.003187586
1.010181485
1.018305238
1.027647221
1.038243485
1.050039573
1.062843581
1.076288707
1.089838546
1.102861138
1.11475794
1.125092635
1.133663164
1.140497111
1.145790659
1.149827436
1.152906694
1.155294786
1.157201173
1.158773769
1.160106602
1.161253406
1.16224221
1.163087703
1.16379987
1.16438881
1.164866516
1.165246814
1.165544371
1.165773621
1.165947874
1.166078792
1.166176177
1.166248003
1.166300578
1.16633875
1.166366205
1.166385588
1.1663985
1.16640848
1.166407889
1.166414082
0.9204372116
0.9228748937
0.927722421
0.9381041298
0.9600788849
0.9745538559
0.976056244
0.9769526133
0.9780424315
0.9794993698
0.9811605556
0.9832074361
0.9856159539
0.9885086128
0.9919351047
0.9960057783
1.00081391
1.006477412
1.013111558
1.020832226
1.029735614
1.039876865
1.051234483
1.063665588
1.076862233
1.090337427
1.103473196
1.115634179
1.126305082
1.135190673
1.142241487
1.147610995
1.151577156
1.154462519
1.156573465
1.15816453
1.159424717
1.160479407
1.161401386
1.162225677
1.162964235
1.163618013
1.164185274
1.164666162
1.165064343
1.165386808
1.165642753
1.165842335
1.165995597
1.166111759
1.166198829
1.16626348
1.166311088
1.166345842
1.166370964
1.166388763
1.1664006
1.166409851
1.166408682
1.166414834
0.9274347237
0.930266332
0.9361961789
0.949703298
0.9725530424
0.9817107641
0.9830305486
0.9841008827
0.9853612493
0.9870072913
0.9888944801
0.9912041634
0.9939224264
0.9971741858
1.001018001
1.00556835
1.010925085
1.017208049
1.024530484
1.032995746
1.04267262
1.053566293
1.065576193
1.078450322
1.091757779
1.104912343
1.117264299
1.128235428
1.137439632
1.144739352
1.150227092
1.154156632
1.156859725
1.158675016
1.159900676
1.160770753
1.161449873
1.162039879
1.162592895
1.163126567
1.163638402
1.164117273
1.164551254
1.164931871
1.165255555
1.165523319
1.16573952
1.165910493
1.166043325
1.166144994
1.166221842
1.166279322
1.166321926
1.166353207
1.166375938
1.1663921
1.166402823
1.166411307
1.166409539
1.166415663
0.9354115454
0.9387557781
0.9460428946
0.9633044284
0.984063748
0.990172079
0.9910787114
0.9923374027
0.9937785973
0.9956292838
0.9977593086
1.000349753
1.003398147
1.007032428
1.011321253
1.016383578
1.022324468
1.029261575
1.037298337
1.046513973
1.056933788
1.068492544
1.080989087
1.094050379
1.107134803
1.119599507
1.130823595
1.140339557
1.147917226
1.153573274
1.15751875
1.160078056
1.161610632
1.162452757
1.162883515
1.163111311
1.163274842
1.163452838
1.163678109
1.163952604
1.164261104
1.164582026
1.164894704
1.165183285
1.165437985
1.165654637
1.165833367
1.165977125
1.166090352
1.166177996
1.166244872
1.166295299
1.16633294
1.16636075
1.166381072
1.166395568
1.166405153
1.166412844
1.166410457
1.166416573
0.9442401002
0.9483084281
0.9575147251
0.9782778308
0.9961535192
0.9991457812
1.000028993
1.001480856
1.003109047
1.005178092
1.007569757
1.010466365
1.013878056
1.017935551
1.022716177
1.028339963
1.034911571
1.042538868
1.05130545
1.06125298
1.072345115
1.084425212
1.097176306
1.110109037
1.122605433
1.134023541
1.143829802
1.151703896
1.157576848
1.161600254
1.164073601
1.165362906
1.165833487
1.165805748
1.16553291
1.165195407
1.164906192
1.164722239
1.16465882
1.16470401
1.164831562
1.165010957
1.165214113
1.165418922
1.165610305
1.165779643
1.165923394
1.166041536
1.166136157
1.166210386
1.166267647
1.166311222
1.166344005
1.166368391
1.166386316
1.166399139
1.166407577
1.166414453
1.166411433
1.166417565
0.9536809478
0.9587152383
0.9705632498
0.9933682578
1.006303918
1.008698283
1.009689768
1.011351508
1.013202125
1.015531823
1.018232551
1.02148721
1.025316826
1.029852512
1.035177092
1.041407906
1.048644386
1.056977816
1.066460792
1.077080602
1.088718258
1.101108197
1.113816349
1.126263108
1.137806271
1.147865177
1.15603833
1.162167347
1.16633113
1.168787286
1.169892585
1.170029519
1.169552808
1.168758175
1.167869567
1.167039216
1.166355648
1.165855984
1.165539918
1.165383459
1.165350929
1.165404257
1.165509127
1.165638168
1.165771825
1.165897681
1.166009028
1.166103252
1.166180369
1.16624188
1.16628996
1.166326944
1.16635502
1.166376061
1.166391627
1.166402788
1.166410082
1.166416128
1.166412463
1.166418642
0.9638293082
0.9702319626
0.985183632
1.007549862
1.017112593
1.018942036
1.020152446
1.022049583
1.024153921
1.026777838
1.029823175
1.033472173
1.037755638
1.042804247
1.048704633
1.055568572
1.06348392
1.072513853
1.082662306
1.093840999
1.105829927
1.118249599
1.130567738
1.142159696
1.152418198
1.160874566
1.167283459
1.17164261
1.174152874
1.17514568
1.17500694
1.174115968
1.172805672
1.171342258
1.169919514
1.16866264
1.167637735
1.166864196
1.166328112
1.165995133
1.165821606
1.165763131
1.165780197
1.165841036
1.165922332
1.166008444
1.166089947
1.16616198
1.166222739
1.16627228
1.166311659
1.166342352
1.166365903
1.166383707
1.166396969
1.166406494
1.166412657
1.166417861
1.166413551
1.166419808
0.9747444113
0.9829383651
1.001016348
1.022277819
1.028362374
1.030020283
1.031469317
1.033610159
1.035987562
1.038926757
1.042340767
1.046411324
1.051178829
1.056772457
1.063278684
1.070795818
1.079386881
1.089069456
1.099779221
1.111335686
1.123411447
1.135526126
1.147086757
1.157478858
1.166183902
1.172877616
1.177473439
1.180104024
1.181060381
1.180717256
1.179466874
1.177671457
1.175635474
1.173593806
1.171710934
1.170087045
1.168768114
1.167757984
1.167031008
1.166544037
1.166246727
1.166089421
1.166028306
1.16602797
1.16606195
1.166111882
1.166166023
1.166217566
1.166263116
1.166301455
1.166332635
1.166357361
1.166376591
1.166391282
1.166402313
1.166410239
1.166415291
1.166419646
1.166414725
1.166421064
0.9866232819
0.9969022421
1.017500811
1.036607611
1.04021891
1.041882118
1.04357752
1.045979292
1.048657077
1.051943579
1.055763859
1.060297741
1.065592241
1.071769181
1.078905534
1.087073546
1.096296111
1.106529601
1.117627821
1.129311395
1.141153355
1.152601829
1.163052283
1.171954618
1.178918081
1.183774088
1.186579886
1.187573218
1.187103339
1.185562568
1.183332646
1.180749962
1.178087514
1.175549174
1.173272046
1.171333738
1.169762474
1.168548614
1.16765648
1.16703551
1.166629787
1.16638532
1.166254762
1.166199691
1.16619103
1.166208127
1.166237263
1.166269956
1.166301423
1.166329322
1.166352814
1.16637191
1.166387036
1.16639875
1.166407632
1.166414004
1.166417974
1.166421482
1.166416007
1.166422415
0.9997787932
1.012064653
1.034194737
1.049252992
1.052680391
1.054515593
1.056486152
1.059185239
1.062208486
1.065889079
1.070162702
1.075202505
1.08105629
1.087830346
1.09558213
1.104346892
1.114095796
1.124712934
1.135962492
1.147468915
1.158726985
1.169155313
1.178190073
1.185389174
1.190509089
1.19352918
1.194624222
1.194104936
1.192350689
1.189751694
1.18666809
1.183405868
1.180206103
1.177243337
1.174629783
1.172423032
1.17063584
1.169246976
1.168212255
1.1674749
1.166974388
1.166653179
1.16646104
1.166357083
1.166310071
1.166297433
1.166303774
1.166319173
1.166337639
1.166355842
1.166372151
1.166385955
1.166397201
1.166406082
1.166412904
1.166417775
1.166420698
1.16642337
1.166417413
1.166423865
1.014476284
1.028476034
1.050643581
1.063515273
1.065970343
1.068083274
1.070359923
1.073384526
1.076783393
1.080883719
1.085629701
1.091182491
1.097585613
1.10492309
1.113224701
1.122479518
1.132595977
1.143376092
1.15449224
1.165487024
1.17581196
1.184905067
1.192289379
1.197657282
1.200912391
1.20216061
1.201663257
1.199774308
1.196880884
1.193357449
1.189536171
1.185691157
1.182032804
1.17870876
1.175809042
1.173373715
1.17140217
1.169863273
1.168705653
1.167867356
1.167284071
1.166895369
1.166648681
1.166501115
1.166419655
1.16638013
1.166365728
1.166365292
1.166371784
1.166381006
1.166390622
1.166399469
1.166407058
1.166413255
1.16641811
1.166421539
1.166423453
1.16642531
1.166418902
1.166425412
1.030607068
1.04619504
1.067637284
1.078150956
1.080260653
1.082686868
1.085268498
1.088623431
1.092401766
1.096919031
1.102126831
1.108169538
1.115081931
1.122918924
1.131673058
1.141275429
1.15155952
1.162239955
1.172906731
1.183049886
1.192122611
1.199629103
1.205211144
1.208702856
1.210139414
1.209724717
1.207776301
1.204666788
1.200774886
1.19645091
1.191996284
1.187653837
1.183605526
1.179974864
1.176832344
1.174202812
1.172074172
1.170406861
1.169143457
1.168217707
1.167562205
1.167114191
1.16681922
1.166632779
1.166520402
1.16645659
1.166423335
1.166408422
1.166403905
1.166404823
1.166408221
1.166412435
1.16641659
1.166420249
1.166423236
1.166425284
1.166426232
1.166427299
1.166420459
1.166427055
1.047850403
1.064981173
1.085717042
1.093516738
1.09546266
1.098204298
1.101094793
1.104782222
1.108939897
1.113866641
1.119521418
1.126026192
1.133400047
1.14165836
1.150742965
1.160514308
1.170724479
1.181007805
1.190896859
1.199869809
1.207427128
1.213174493
1.216886114
1.218528463
1.218243302
1.216302683
1.213054139
1.208870413
1.204111251
1.199098535
1.194102685
1.189337136
1.184958128
1.181067837
1.17771973
1.174925511
1.172663238
1.170886182
1.169531838
1.168530395
1.167811931
1.167311821
1.16697413
1.166753051
1.166612941
1.166527206
1.166476829
1.166448695
1.166434069
1.166427322
1.16642495
1.166424846
1.166425781
1.166427052
1.166428267
1.166429
1.166429027
1.166429337
1.1664221
1.166428787
1.066095247
1.084351876
1.102858781
1.109486234
1.111455314
1.114501567
1.117704927
1.121730693
1.126275757
1.131613194
1.137705968
1.144643563
1.15241714
1.160989726
1.170240523
1.179954464
1.189808471
1.199378162
1.208174679
1.215707085
1.221559707
1.225458365
1.227306351
1.2271819
1.225305077
1.221989064
1.217590861
1.212470643
1.206963217
1.201360703
1.195903869
1.190779321
1.186120434
1.182010707
1.178488845
1.175555227
1.173179477
1.171308775
1.169876351
1.168809455
1.168036131
1.167490282
1.167114802
1.166862868
1.166697889
1.166592369
1.166526451
1.166486251
1.166462351
1.166448539
1.166440823
1.166436699
1.166434625
1.166433651
1.166433192
1.166432676
1.166431833
1.166431422
1.166423796
1.166430606
1.085143805
1.104158373
1.120230421
1.125972524
1.128119038
1.131491273
1.135041509
1.139432058
1.144385245
1.150135155
1.156641702
1.163951569
1.17201709
1.180741687
1.189938744
1.199323666
1.208516079
1.217063629
1.224494549
1.230384722
1.234424341
1.236461445
1.23651265
1.234742201
1.231421527
1.22688293
1.221478194
1.215547173
1.209397156
1.203291139
1.197442503
1.192013842
1.187118441
1.182823548
1.1791551
1.176103716
1.17363179
1.171681321
1.170181951
1.169058513
1.168237421
1.167651427
1.167242528
1.166963112
1.166775831
1.166652463
1.166572445
1.166521238
1.166488837
1.166468518
1.166455857
1.166447998
1.166443115
1.166440037
1.166438001
1.166436303
1.166434644
1.166433547
1.166425478
1.166432522
1.104661415
1.123300674
1.138265557
1.143200662
1.145631446
1.149330746
1.153242904
1.157992362
1.163331247
1.169444128
1.176280802
1.183839644
1.192027448
1.200686076
1.209566688
1.218329
1.22656049
1.233814557
1.239670491
1.243794864
1.245990367
1.246216411
1.244580468
1.24130685
1.236695512
1.2310815
1.224801866
1.218172178
1.211471961
1.204936897
1.198755665
1.19306966
1.187974635
1.183523741
1.179731871
1.176581223
1.174027974
1.172009701
1.17045303
1.169280807
1.168418154
1.167796942
1.167358491
1.167054599
1.166847323
1.166707853
1.166615044
1.166553801
1.166513612
1.166487305
1.166470075
1.166458751
1.166451251
1.166446204
1.166442685
1.166439873
1.166437456
1.16643569
1.166427066
1.166434551
1.125220851
1.14360864
1.156987647
1.161388451
1.164129867
1.168112436
1.172351601
1.177403924
1.183052732
1.18942865
1.196462795
1.204101047
1.212200373
1.220543355
1.228829116
1.236682562
1.243688302
1.249436963
1.253583422
1.255895127
1.256281076
1.254793372
1.251606217
1.246981066
1.241228767
1.234675968
1.227639582
1.220409622
1.213239065
1.206338707
1.199875296
1.193971675
1.188708355
1.184126266
1.180230727
1.176996646
1.174374831
1.172299076
1.170693463
1.169479214
1.168580436
1.167928344
1.16746377
1.167138081
1.166912877
1.166758883
1.166654473
1.166584083
1.166536763
1.166504949
1.1664835
1.166468964
1.16645903
1.166452146
1.166447235
1.166443381
1.166440262
1.166437817
1.166428648
1.166436687
1.146652765
1.165263941
1.176397292
1.18046115
1.183492632
1.187703147
1.192214934
1.197499342
1.203362507
1.209878333
1.21695155
1.22447342
1.232251824
1.240019249
1.247440343
1.254130897
1.259701314
1.263803699
1.266181181
1.266700033
1.265360861
1.262286829
1.257696613
1.251870456
1.245117589
1.237749445
1.230060409
1.222315428
1.214742974
1.2075316
1.200828792
1.194741237
1.189336208
1.184644018
1.180661662
1.177357701
1.174678289
1.172553964
1.170906665
1.169656283
1.168726146
1.168046998
1.167559342
1.167214243
1.166972967
1.166805873
1.166690944
1.166612219
1.166558372
1.166521498
1.166496159
1.16647865
1.166466455
1.166457859
1.166451645
1.166446819
1.166443053
1.166439905
1.166430342
1.166438891
1.168672682
1.187573686
1.196312116
1.200222185
1.203525735
1.207922241
1.212646308
1.218080334
1.224044618
1.230554775
1.237485466
1.24467628
1.251893006
1.258833474
1.265149867
1.270474578
1.27446686
1.276854385
1.27746987
1.276267592
1.273321082
1.268803659
1.262959995
1.256075602
1.248449989
1.240375832
1.232124643
1.223937842
1.216021808
1.208545473
1.20163951
1.195396563
1.189872396
1.185088064
1.181033285
1.177671068
1.174943504
1.172778318
1.171095634
1.169814266
1.168856952
1.168154124
1.167646084
1.167283709
1.167028027
1.166849121
1.166724655
1.166638338
1.166578521
1.166537001
1.166508076
1.166487818
1.166473529
1.166463339
1.166455909
1.166450182
1.16644582
1.166441946
1.166432153
1.166441135
1.191269603
1.209674111
1.216740013
1.220584874
1.224106699
1.228620912
1.233466826
1.238938088
1.244862718
1.251197804
1.25778686
1.264424942
1.270847829
1.276737819
1.281757004
1.285575647
1.287916284
1.288585977
1.287499705
1.28468421
1.280266938
1.274453364
1.267500066
1.259688659
1.251304278
1.242619603
1.233884211
1.225318082
1.217107995
1.209405717
1.202327299
1.195953168
1.190329051
1.185467893
1.18135301
1.177942523
1.175174955
1.172975588
1.171263004
1.169955151
1.168974338
1.168250814
1.167724787
1.167347042
1.167078453
1.166888899
1.16675579
1.166662562
1.166597287
1.166551504
1.166519279
1.166496483
1.166480253
1.166468584
1.166460022
1.166453467
1.166448552
1.166443935
1.1664341
1.166443412
1.214339885
1.231839137
1.237559667
1.241365954
1.245036916
1.249588804
1.254453665
1.25983367
1.265560809
1.27153787
1.277581297
1.283453753
1.288876843
1.293536899
1.297124709
1.299362407
1.300041199
1.299043174
1.296353157
1.292053616
1.286308928
1.279342537
1.271412982
1.262792329
1.253749194
1.244536516
1.235383601
1.226491271
1.218029104
1.210133919
1.202909058
1.196424299
1.19071657
1.18579167
1.181627247
1.178177083
1.17537655
1.173148796
1.171411094
1.170080697
1.169079621
1.16833804
1.167796163
1.167404753
1.167124606
1.166925457
1.16678452
1.166685003
1.166614744
1.166565052
1.166529791
1.166504656
1.166486632
1.166473592
1.166463978
1.166456669
1.166451236
1.166445873
1.166436188
1.166445683
1.237705659
1.253997113
1.258646406
1.262416656
1.266141881
1.270624193
1.275379906
1.280519251
1.285876244
1.291307982
1.296611749
1.30153181
1.305791218
1.309096687
1.311180474
1.311822859
1.310881705
1.308304636
1.304132068
1.298486667
1.291555933
1.2835709
1.27478561
1.265459561
1.255844387
1.246174446
1.236660766
1.227487276
1.218808558
1.210748442
1.2033992
1.19682129
1.191043886
1.186066441
1.181861547
1.178379114
1.175551705
1.173300596
1.171541947
1.17019246
1.169173974
1.168416677
1.167860849
1.167457305
1.167166815
1.166959027
1.166811004
1.166705769
1.166630959
1.166577689
1.16653964
1.16651235
1.166492672
1.166478362
1.166467776
1.166459783
1.16645386
1.166447765
1.166438419
1.166447928
1.261149938
1.275997812
1.279805331
1.2835099
1.287190235
1.291478525
1.295980795
1.300723468
1.305541737
1.310256645
1.314655523
1.31847788
1.32146158
1.323345462
1.323909778
1.32299279
1.320512119
1.316469189
1.310946251
1.304093145
1.296110064
1.287228594
1.277694491
1.267753507
1.257640892
1.247574055
1.237747813
1.228331334
1.219466167
1.211264849
1.203809983
1.197153824
1.191318662
1.186298279
1.182060722
1.178552413
1.175703406
1.173433319
1.171657365
1.170291822
1.169258441
1.168487503
1.167919423
1.167505115
1.16720538
1.166989819
1.166835388
1.166724959
1.166645999
1.166589454
1.166548848
1.166519578
1.166498376
1.166482894
1.166471414
1.166462805
1.166456408
1.166449615
1.166440788
1.166450122
1.284542491
1.297731959
1.300788757
1.304357758
1.30788089
1.311857904
1.315971537
1.3201758
1.324309115
1.328167032
1.331536668
1.334165146
1.335815178
1.336264424
1.335342161
1.33293994
1.329025787
1.323643113
1.316904098
1.308975627
1.300063238
1.290394672
1.280205548
1.2697279
1.259181807
1.248769541
1.238671711
1.229044663
1.220018631
1.211696316
1.204151836
1.197430181
1.191547489
1.186492435
1.18222895
1.178700299
1.17583427
1.173549018
1.171758944
1.170380007
1.169333955
1.168551219
1.167972402
1.167548563
1.167240574
1.167018029
1.166857808
1.166742665
1.166659925
1.16660039
1.166557442
1.166526355
1.166503751
1.166487188
1.166474889
1.166465731
1.166458868
1.166451431
1.166443295
1.166452223
1.307550095
1.318830398
1.321368355
1.324681201
1.327941591
1.331500146
1.335106886
1.338653125
1.341984694
1.344883004
1.347143764
1.348531278
1.348838957
1.347885238
1.345545403
1.341757129
1.336529019
1.329935932
1.322110465
1.313229172
1.303498112
1.29313874
1.282375993
1.271428937
1.260503978
1.24979007
1.239455468
1.2296454
1.220480275
1.212054194
1.204433785
1.197657565
1.191736132
1.186653524
1.182369923
1.178825712
1.17594663
1.173649526
1.171848113
1.170458122
1.169401359
1.168608462
1.168020261
1.167587999
1.167272652
1.167043837
1.166878391
1.166758975
1.166672798
1.166610534
1.166565444
1.166532693
1.166508802
1.166491245
1.166478203
1.166468555
1.166461227
1.16645323
1.166445926
1.16645418
1.329714247
1.339078837
1.341257572
1.344232951
1.347140503
1.350185223
1.353184374
1.355978891
1.358425964
1.360302866
1.361419993
1.361564639
1.360562762
1.35827193
1.354608075
1.349547079
1.343129092
1.335451776
1.326661013
1.316937985
1.30648637
1.295520266
1.284254207
1.272895434
1.261638263
1.250660052
1.240118362
1.230148793
1.220863198
1.212348122
1.204663547
1.197842174
1.19188958
1.186785565
1.182486871
1.178931241
1.176042548
1.173736474
1.171926152
1.170527157
1.169461415
1.168659809
1.168063433
1.167623743
1.167301846
1.167067413
1.166897258
1.166773975
1.166684675
1.166619925
1.16657288
1.166538607
1.166513537
1.166495068
1.166481357
1.166471269
1.166463476
1.166455028
1.166448642
1.166455967
1.350952875
1.358413382
1.360270136
1.362805475
1.365268923
1.367720811
1.370037707
1.372020362
1.373538986
1.374374403
1.374354908
1.373293259
1.371046849
1.3675086
1.362628874
1.35641426
1.348928862
1.34028649
1.330641279
1.32017583
1.309089928
1.297590147
1.285881388
1.274160384
1.262610916
1.251400319
1.240676926
1.230567992
1.2211779
1.212586523
1.204847906
1.197989491
1.19201227
1.186892148
1.182582693
1.179019216
1.176123884
1.173811339
1.171994221
1.170588016
1.169514817
1.16870579
1.168102317
1.167656092
1.167328377
1.167088915
1.166914523
1.166787744
1.166695611
1.166628599
1.166579774
1.166544112
1.166517963
1.166498662
1.166484351
1.166473865
1.166465611
1.166456838
1.166451376
1.166457651
1.370799212
1.376543114
1.378125473
1.380179491
1.3821495
1.383964468
1.385558583
1.3867053
1.387288981
1.387099725
1.3859845
1.383781545
1.380376901
1.375694228
1.369712304
1.362461965
1.354025282
1.344527365
1.334127233
1.323007039
1.311362094
1.299391833
1.287292535
1.275251764
1.263444211
1.252028594
1.241145286
1.230914301
1.221433467
1.212776737
1.204992813
1.198104355
1.192108141
1.186976477
1.182659986
1.179091733
1.17619232
1.173875459
1.172053374
1.170641523
1.169562204
1.168746892
1.168137283
1.167685322
1.167352448
1.167108493
1.166930292
1.166800358
1.16670566
1.166636595
1.16658615
1.166549223
1.166522089
1.16650203
1.166487188
1.166476337
1.166467633
1.166458665
1.166454076
1.166459256
1.389228456
1.393434423
1.394706792
1.396228357
1.397664007
1.398822105
1.399684336
1.400005756
1.399682167
1.3985159
1.396371751
1.393112119
1.3886483
1.38293009
1.375959402
1.367786104
1.358505758
1.348251407
1.337184859
1.325486895
1.313348379
1.300962301
1.288517424
1.276193426
1.26415722
1.252560139
1.241535694
1.231197597
1.221637902
1.212925276
1.205103589
1.198191121
1.19218076
1.187041465
1.182721123
1.179150711
1.1762494
1.173930064
1.172104586
1.170688442
1.169604168
1.16878357
1.168168676
1.167711694
1.167374253
1.16712629
1.166944671
1.166811893
1.166714874
1.166643948
1.166592032
1.166553955
1.166525924
1.16650518
1.166489869
1.166478678
1.166469547
1.166460507
1.166456681
1.166460805
1.405881894
1.408836318
1.409813701
1.410813894
1.411722874
1.412246807
1.412403795
1.411941011
1.410764052
1.408689971
1.405600188
1.401379342
1.395960554
1.389315557
1.381465026
1.372473836
1.362447812
1.351525708
1.339870924
1.327662563
1.315087429
1.302332908
1.289581336
1.277005697
1.264766289
1.253008131
1.241858817
1.231426559
1.221798302
1.213037969
1.205185034
1.198253748
1.192233386
1.187089789
1.182768291
1.17919793
1.17629656
1.173976304
1.172148769
1.17072949
1.169641268
1.168816257
1.168196827
1.167735457
1.16739398
1.167142443
1.166957761
1.166822421
1.166723306
1.166650695
1.166597447
1.166558326
1.166529478
1.166508119
1.166492395
1.166480884
1.166471359
1.166462351
1.166459156
1.166462314
1.420702497
1.422701953
1.423399734
1.423914068
1.424322286
1.42425469
1.423753146
1.422565828
1.420605971
1.417706362
1.413763183
1.408680931
1.402411303
1.39494434
1.386316006
1.37660317
1.365919694
1.354408651
1.342234454
1.329574619
1.316612464
1.303530654
1.290506135
1.277706263
1.265285748
1.253384224
1.242124176
1.231609004
1.221921113
1.213120151
1.20524157
1.198295899
1.192269051
1.187123948
1.18280354
1.179235059
1.176335149
1.174015264
1.172186787
1.17076535
1.169674038
1.168845366
1.168222051
1.167756853
1.167411809
1.16715709
1.166969662
1.166832017
1.16673101
1.166656875
1.166602421
1.166562353
1.166532764
1.166510855
1.166494769
1.166482953
1.166473074
1.166464176
1.166461479
1.166463848
1.433725268
1.435061769
1.435492486
1.43556705
1.435508674
1.434901802
1.433800185
1.431958877
1.429295804
1.425659151
1.420957685
1.415113197
1.40809306
1.399902591
1.390590343
1.380242991
1.36898093
1.356950745
1.344317678
1.331257972
1.317952117
1.304578912
1.291310867
1.278310661
1.265728308
1.253698858
1.242340389
1.231752076
1.222012284
1.213176783
1.20527734
1.198321028
1.192290621
1.187146312
1.182828816
1.179263687
1.176366454
1.174047976
1.172219463
1.170796671
1.169702988
1.168871295
1.168244656
1.167776115
1.167427918
1.167170361