/*--------------------------------*- C++ -*----------------------------------*\
  =========                 |
  \\      /  F ield         | OpenFOAM: The Open Source CFD Toolbox
   \\    /   O peration     | Website:  https://openfoam.org
    \\  /    A nd           | Version:  12
     \\/     M anipulation  |
\*---------------------------------------------------------------------------*/
FoamFile
{
    format      ascii;
    class       volScalarField;
    location    "1350";
    object      T;
}
// * * * * * * * * * * * * * * * * * * * * * * * * * * * * * * * * * * * * * //

dimensions      [0 0 0 1 0 0 0];

internalField   nonuniform List<scalar> 
16200
(
294.4020183
294.4226899
294.2896781
293.9406954
293.2153129
291.7047821
288.4917853
282.6330463
279.2670299
279.0000304
279.1023197
279.1951834
279.3105857
279.4378526
279.5872743
279.7583216
279.9574834
280.1882545
280.4566538
280.7684518
281.1305442
281.5503059
282.0357203
282.5950571
283.2364513
283.9671775
284.7924981
285.714028
286.7275952
287.820847
288.971336
290.1464827
291.3067139
292.4115417
293.4263678
294.3272819
295.1025289
295.7511695
296.2803474
296.7023513
297.0320784
297.2850696
297.47613
297.6184821
297.7233581
297.7999211
297.8554153
297.8954193
297.9241422
297.9447086
297.9594095
297.9699114
297.9774198
297.9828136
297.9867229
297.989629
297.9917965
297.9935004
297.9949612
297.9970743
293.5329304
293.5131928
293.318264
292.8698828
291.9589441
290.0393703
286.0020164
280.0972614
277.9981062
277.9222393
278.0278953
278.1303908
278.2552913
278.3938079
278.5568507
278.7443359
278.963211
279.2176823
279.5144091
279.8600268
280.2622889
280.7295464
281.2707412
281.8950431
282.61124
283.4267476
284.3460519
285.3685612
286.4859175
287.6793258
288.9182676
290.162438
291.3675461
292.4931189
293.5089745
294.3980373
295.1554775
295.7857594
296.2993093
296.7097657
297.0320181
297.2808776
297.4701912
297.6122947
297.7177349
297.7952103
297.8516834
297.8925857
297.9220644
297.9432319
297.9583916
297.9692321
297.9769833
297.9825435
297.9865669
297.9895421
297.9917683
297.9934992
297.9949708
297.9972175
292.7671051
292.6911056
292.4165478
291.8486078
290.719187
288.3163123
283.2669999
278.1405303
276.9580459
277.0058744
277.1194426
277.2311983
277.3682001
277.5211
277.7011921
277.9090185
278.1519573
278.4350246
278.765571
279.1511841
279.6005662
280.1231287
280.7288238
281.4276686
282.2288508
283.1393412
284.1617908
285.2917404
286.5144152
287.8022708
289.1153766
290.4062903
291.6285136
292.7449611
293.7328282
294.5837287
295.300523
295.8931322
296.3749971
296.7607525
297.0649299
297.3012718
297.4823342
297.619242
297.7215496
297.7972166
297.8526926
297.8930727
297.9222949
297.9433466
297.9584607
297.9692869
297.9770354
297.9825939
297.9866144
297.9895815
297.9918063
297.9935286
297.9949654
297.9971969
292.1540545
292.0139123
291.6462212
290.9286009
289.5175527
286.54392
280.5892758
276.7492863
276.2171069
276.3021367
276.422627
276.5455173
276.6958351
276.8647536
277.0638457
277.2944551
277.5644073
277.8796295
278.2482289
278.6788089
279.1810639
279.7654464
280.4427907
281.2236269
282.1168969
283.1280413
284.2562369
285.4909636
286.808685
288.1716342
289.5310589
290.8353408
292.0400282
293.1152646
294.0479072
294.8388687
295.4981867
296.040273
296.4806225
296.8341095
297.114373
297.3337152
297.5031282
297.6323059
297.729626
297.8021522
297.85569
297.8948934
297.9234098
297.9440412
297.9589053
297.9695816
297.9772382
297.9827375
297.9867178
297.9896547
297.9918635
297.9935726
297.9949789
297.9972246
291.7029697
291.4956025
291.0276499
290.1372106
288.3629519
284.6171966
278.3337773
275.9136376
275.7324546
275.8304555
275.9589653
276.0948386
276.2605495
276.4479744
276.6688253
276.9253964
277.2259707
277.5774729
277.9888367
278.4697331
279.0308523
279.6835716
280.4393079
281.3085123
282.298886
283.4128182
284.643921
285.9732171
287.366573
288.7760027
290.1464951
291.4266682
292.5786092
293.5827073
294.4365317
295.1498261
295.7386033
296.2204699
296.611927
296.9273732
297.1791196
297.3777744
297.5326071
297.6517622
297.7423362
297.8103989
297.8610222
297.8983404
297.925644
297.9454972
297.9598612
297.9702149
297.9776617
297.9830224
297.9869095
297.9897819
297.9919503
297.9936336
297.9949992
297.9972406
291.424982
291.1504811
290.5798081
289.5029308
287.3006224
282.5349846
276.8601652
275.4657817
275.5060281
275.5949598
275.738615
275.888855
276.0714116
276.2792496
276.5241377
276.809485
277.1440879
277.5359378
277.9948224
278.5314199
279.1572566
279.8843004
280.7239799
281.6857384
282.7746303
283.9880428
285.3116911
286.7161078
288.1560578
289.5754008
290.917254
292.1355256
293.202663
294.1109527
294.8683891
295.4921541
296.0025542
296.4189296
296.7577389
297.0322608
297.2531379
297.4291311
297.5677269
297.6754937
297.7582238
297.8209639
297.8680173
297.9029614
297.928695
297.947513
297.9611954
297.9710998
297.9782497
297.9834128
297.9871673
297.9899497
297.9920606
297.993709
297.9950303
297.997267
291.3119705
290.9654604
290.2812734
288.978956
286.2516344
280.4600337
275.9568297
275.2384959
275.4669603
275.5913588
275.7476827
275.9145453
276.1164214
276.3476769
276.6200535
276.9381515
277.3112744
277.7484411
278.260224
278.8581461
279.5543092
280.3608006
281.2882705
282.3439081
283.5283531
284.8317982
286.2299375
287.6818225
289.1324782
290.5215888
291.7956854
292.9184886
293.8751642
294.6699924
295.3200122
295.8479314
296.2765681
296.625647
296.9107145
297.1434545
297.3326374
297.4851302
297.606662
297.7022681
297.7764721
297.8333153
297.8763346
297.9085417
297.9324297
297.950008
297.9628598
297.9722084
297.9789865
297.9839004
297.9874873
297.9901563
297.9921936
297.9937984
297.9950699
297.9972966
291.3646392
290.9407487
290.1274493
288.5282066
285.0732238
278.7166253
275.7148326
275.5364767
275.6719632
275.801394
275.9733831
276.1593814
276.3832511
276.6409905
276.944247
277.2988467
277.7146079
278.2015365
278.7709267
279.4349478
280.2058947
281.0952617
282.1117874
283.2587985
284.5304991
285.9077723
287.3549138
288.8200987
290.2419223
291.5611188
292.7327427
293.7334858
294.5618889
295.2330023
295.7708461
296.2015824
296.5488941
296.8317771
297.0642213
297.256016
297.4139804
297.5431284
297.6475202
297.7307522
297.7961557
297.84682
297.8855467
297.9147969
297.936661
297.9528607
297.9647768
297.973492
297.9798423
297.9844674
297.9878591
297.9903962
297.9923467
297.9939005
297.9951179
297.9973319
291.576586
291.0783712
290.1170892
288.1491569
283.7009982
277.5751546
275.6786434
275.8930177
276.0647233
276.2102977
276.3990025
276.6059227
276.8537947
277.1404418
277.4774197
277.8718079
278.3339623
278.8747847
279.50612
280.2403866
281.0894089
282.0630608
283.1667544
284.3981603
285.7430423
287.1713444
288.6358532
290.0763353
291.4298124
292.6435537
293.6851114
294.5455299
295.2358311
295.7797233
296.2058855
296.541998
296.8112529
297.0311002
297.2135649
297.3664061
297.4945173
297.6011651
297.6888721
297.7599205
297.8165511
297.8609757
297.8953108
297.9214963
297.9412363
297.9559719
297.9668831
297.9749112
297.9807931
297.9850995
297.9882749
297.9906651
297.9925182
297.9940145
297.9951738
297.9973721
291.915668
291.3369142
290.1940904
287.7850176
282.2480176
277.1462226
276.3603542
276.4548147
276.6283035
276.790247
276.9976857
277.2279684
277.5025764
277.8212717
278.1955314
278.6336387
279.1464348
279.7454936
280.4428709
281.2506493
282.1793366
283.2360079
284.4212075
285.7250958
287.1232152
288.5738455
290.0198331
291.3967702
292.6457085
293.7251804
294.6174811
295.3276426
295.8771444
296.2958283
296.6147972
296.8616278
297.0580143
297.2193342
297.3554451
297.4720708
297.5722807
297.6577414
297.7295932
297.7889438
297.8370577
297.8753554
297.905328
297.9284345
297.9460168
297.9592493
297.9691186
297.9764276
297.9818151
297.9857827
297.9887265
297.9909586
297.9927059
297.9941394
297.9952371
297.9974173
292.3681934
291.697852
290.3082988
287.2728619
280.937872
277.0556928
276.9879782
277.1530436
277.3393436
277.5202678
277.74852
278.0047192
278.3089588
278.6629725
279.0781589
279.5638589
280.1312574
280.7922728
281.55873
282.441689
283.4493684
284.5846931
285.8416034
287.200876
288.6266219
290.0661743
291.4558891
292.7326299
293.8468006
294.7713692
295.5037304
296.0611469
296.4729159
296.7724853
296.9914634
297.1560948
297.2859126
297.3939462
297.4878459
297.5713894
297.6459722
297.7118306
297.7688863
297.8172157
297.8572241
297.8896294
297.9153627
297.935446
297.9508885
297.962616
297.9714324
297.9780084
297.9828877
297.9865045
297.9892066
297.9912729
297.9929081
297.9942744
297.9953074
297.9974675
292.9231433
292.1511012
290.4562824
286.5317655
280.0699981
277.7868708
277.8093711
277.9790188
278.1789538
278.3810211
278.6324766
278.917369
279.2543224
279.6469634
280.1065993
280.6434368
281.2688443
281.9947293
282.8321651
283.7903465
284.8739763
286.0801789
287.3943831
288.786445
290.2090451
291.6011771
292.8977413
294.0425503
294.9994208
295.7569841
296.3264431
296.7346675
297.0159932
297.2052366
297.3330202
297.4234237
297.4934532
297.553711
297.6097161
297.6634496
297.7148089
297.7627761
297.8062155
297.8443111
297.8767217
297.9035505
297.9252329
297.9424
297.9557593
297.9660084
297.9737816
297.9796253
297.9839929
297.9872536
297.9897089
297.9916041
297.9931229
297.9944186
297.9953845
297.9975228
293.5686641
292.6623493
290.5874055
285.6191868
279.9022133
278.550118
278.7384214
278.9143525
279.1312439
279.3567964
279.6338278
279.9500216
280.3225547
280.7568467
281.264158
281.855378
282.5418467
283.3349583
284.244257
285.2759031
286.4295124
287.6945362
289.0461826
290.4428486
291.8275843
293.1354749
294.3057149
295.2938689
296.0793357
296.6657705
297.0757444
297.3427845
297.5037116
297.5929205
297.6390043
297.6633933
297.6804358
297.6983676
297.7207273
297.7478806
297.7784109
297.8102175
297.8412593
297.8699574
297.8953289
297.9169447
297.9348061
297.949198
297.9605578
297.9693761
297.9761315
297.981255
297.9851155
297.9880205
297.9902274
297.9919493
297.9933489
297.9945713
297.9954679
297.9975831
294.3016686
293.2012933
290.5896371
284.6979472
279.9398644
279.5184405
279.7630596
279.9466588
280.1825797
280.4334308
280.7382128
281.0882192
281.4993407
281.9786278
282.5372577
283.1864392
283.9370126
284.7990649
285.7795303
286.8800892
288.0935094
289.39982
290.7631005
292.1313782
293.4417877
294.6310506
295.6479685
296.462941
297.0711055
297.489068
297.7477671
297.8845536
297.936624
297.9366566
297.9105754
297.8769559
297.8475262
297.8283074
297.8210479
297.8246919
297.836688
297.8540128
297.8738588
297.8940004
297.9129087
297.9296971
297.9439903
297.9557694
297.9652312
297.9726806
297.9784548
297.9828787
297.9862429
297.9887972
297.9907571
297.9923053
297.9935845
297.9947318
297.9955571
297.9976485
295.1095561
293.7490768
290.4025902
284.0466764
280.7879174
280.5882309
280.8622819
281.0605814
281.3184675
281.5977465
281.9339142
282.3216565
282.7756737
283.3042945
283.9183974
284.6289802
285.4457608
286.3765876
287.4245279
288.5851631
289.8426817
291.1665432
292.5102016
293.8142847
295.0151213
296.0566161
296.9010491
297.5346833
297.9668631
298.2242434
298.3430886
298.3621477
298.3174142
298.2390169
298.1499015
298.0657865
297.9959279
297.9443341
297.9111702
297.8941487
297.8897511
297.8941765
297.903974
297.9163753
297.9293896
297.9417403
297.9527271
297.9620659
297.9697418
297.9758934
297.9807305
297.9844815
297.9873647
297.9895767
297.9912939
297.9926697
297.9938284
297.9948991
297.9956513
297.997719
295.9805805
294.2483029
290.0558336
283.9688946
281.7355577
281.7561013
282.0381247
282.2555876
282.5386755
282.8498376
283.2211372
283.6503639
284.1510563
284.732442
285.4048603
286.1785334
287.0612985
288.0575896
289.1650491
290.3714388
291.6510758
292.9629175
294.2520709
295.4562869
296.5165898
297.3885262
298.0497493
298.5015356
298.7647989
298.8730991
298.8653155
298.7797155
298.6500282
298.5033865
298.3596937
298.2319449
298.127135
298.0474831
297.9917762
297.9566734
297.9378409
297.9308279
297.9316485
297.9370817
297.9447488
297.9530424
297.9609835
297.9680578
297.9740643
297.9789943
297.9829432
297.9860519
297.9884729
297.9903536
297.9918339
297.9930401
297.9940795
297.9950727
297.9957502
297.9977945
296.9028142
294.6867439
289.6766501
284.0589533
282.8714767
283.0051909
283.2947385
283.536167
283.8467606
284.1922412
284.6013531
285.0747107
285.6247376
286.2611478
286.9933557
287.8299619
288.7757589
289.8302338
290.9839549
292.2155774
293.4893573
294.7554467
295.9544643
297.0264977
297.9220666
298.6110327
299.0863416
299.3620716
299.4675923
299.440434
299.3199125
299.1424959
298.9390321
298.7335056
298.5428797
298.3776401
298.2427601
298.1388937
298.063643
298.0127751
297.9812744
297.9641523
297.9569806
297.9561633
297.9589981
297.9635979
297.968746
297.9737291
297.9781833
297.9819699
297.9850818
297.9875814
297.989561
297.9911232
297.9923741
297.9934147
297.9943365
297.9952516
297.9958522
297.9978751
297.8171386
295.0515392
289.4332577
284.5623578
284.125051
284.3301828
284.6312957
284.9000154
285.2405111
285.6229302
286.0727632
286.5930902
287.1950836
287.8882603
288.6803493
289.5771473
290.5790195
291.6790685
292.8596471
294.0900006
295.3255299
296.5107469
297.5865143
298.5001448
299.2149533
299.7158264
300.0093537
300.1194784
300.0809585
299.932844
299.7132977
299.4561715
299.189162
298.9331571
298.7023851
298.5050739
298.3444197
298.2197228
298.1275764
298.0629983
298.0204073
297.9943722
297.9801023
297.9736928
297.9721726
297.9734199
297.9760154
297.9790744
297.9820912
297.984812
297.987139
297.9890637
297.9906242
297.9918818
297.9929118
297.9937915
297.9945983
297.9954349
297.995963
297.9979609
298.6265804
295.3617799
289.4356317
285.8032279
285.4873146
285.7305384
286.0477824
286.3476331
286.7211482
287.1437357
287.6374607
288.207287
288.8627597
289.6122773
290.4609673
291.4106689
292.4561758
293.5832381
294.7655887
295.9638215
297.1269494
298.1979761
299.122766
299.8595968
300.3860355
300.7010023
300.8221148
300.7800947
300.6124169
300.3577916
300.0521883
299.7264266
299.4050298
299.1059699
298.8409972
298.6163438
298.433661
298.2910894
298.1843684
298.10789
298.055607
298.0217267
298.0011635
297.98976
297.9843229
297.982534
297.9828025
297.9840961
297.9857857
297.9875166
297.9891103
297.9904946
297.9916587
297.9926265
297.9934448
297.9941692
297.9948641
297.9956224
297.9960848
297.9980519
299.3048367
295.6530906
289.8522345
286.9317848
286.9531419
287.2164767
287.5526446
287.8866794
288.2955518
288.7602621
289.2991984
289.9184789
290.6256214
291.4270171
292.3243862
293.3146484
294.386137
295.5166991
296.671776
297.8051389
298.862919
299.7910902
300.5445099
301.0945252
301.4326596
301.5696949
301.5312956
301.3521448
301.0703271
300.7229362
300.3431613
299.9586689
299.5909479
299.2553058
298.9612897
298.7133885
298.5119218
298.3540421
298.2347698
298.1479772
298.087235
298.0464576
298.020321
298.0044631
297.995508
297.9909738
297.9891246
297.9888017
297.9892688
297.9900828
297.9909932
297.9918713
297.9926619
297.9933548
297.9939712
297.9945461
297.995133
297.9958142
297.9962153
297.998148
299.9158981
295.9422259
290.4931697
288.3268756
288.5150672
288.7920652
289.1509945
289.5202871
289.9647635
290.4710754
291.0538138
291.7194769
292.4732034
293.3185324
294.2529534
295.2675212
296.3433787
297.4504677
298.5472589
299.5836544
300.50703
301.2704027
301.8402334
302.2013158
302.3574884
302.3286397
302.1456114
301.8447358
301.4631955
301.0356907
300.5923865
300.1578736
299.7508388
299.3842055
299.0655873
298.7979631
298.5805105
298.4095426
298.2794765
298.1837544
298.1156359
298.0687998
298.0377313
298.0179033
298.0057911
297.9987771
297.9950031
297.9932023
297.9925455
297.9925116
297.992787
297.9931921
297.9936317
297.9940651
297.9944894
297.9949212
297.9954039
297.99601
297.9963522
297.9982487
300.5511626
296.2932904
291.1839421
289.8518213
290.1589039
290.4514468
290.8342743
291.2388267
291.7182121
292.2644404
292.8883607
293.595941
294.3894556
295.2686091
296.2256711
297.2450103
298.3003861
299.3548444
300.3623991
301.2728353
302.0387748
302.6232246
303.0052191
303.1819243
303.1670674
302.9868229
302.674754
302.2671135
301.7992051
301.302948
300.8054784
300.3285087
299.8881996
299.495372
299.1559574
298.8716329
298.6405996
298.4584589
298.3191222
298.215677
298.141131
298.0889756
298.0535447
298.03018
298.0152362
298.0059839
298.0004619
297.9973113
297.9956224
297.994806
297.9944921
297.9944561
297.9945669
297.9947557
297.9949979
297.9952931
297.9956761
297.9962094
297.9964953
297.9983536
301.1946822
296.7841038
292.4058836
291.4901422
291.8687746
292.1811976
292.5890064
293.0289353
293.5428902
294.1273923
294.7895747
295.5337071
296.3584621
297.2586324
298.2204843
299.2215049
300.2289073
301.2010161
302.0907388
302.8515348
303.4443705
303.8436793
304.0405475
304.0424889
303.8704474
303.5543592
303.1285984
302.628164
302.0859348
301.5309424
300.9874394
300.4745198
300.0061047
299.5911787
299.2342177
298.9357792
298.6932292
298.5015657
298.3542768
298.2441583
298.1640154
298.1071918
298.0679034
298.0413889
298.0239061
298.0126341
298.0055257
298.0011432
297.9985075
297.9969695
297.9961099
297.9956634
297.9954666
297.9954255
297.9954957
297.9956609
297.9959488
297.9964122
297.9966431
297.9984624
301.905051
297.4320353
293.7999961
293.2160116
293.6369214
293.9743772
294.4084559
294.8840588
295.4322532
296.0525861
296.7483851
297.5210077
298.3647611
299.2688839
300.2135181
301.1700244
302.100918
302.9627197
303.7106885
304.3050347
304.7168246
304.9318924
304.9517926
304.7919502
304.4780153
304.0416447
303.516667
302.9361163
302.3302211
301.7252023
301.142659
300.5993491
300.1072302
299.6736925
299.3019548
298.9916118
298.7393148
298.5395495
298.3854491
298.2695703
298.1845569
298.123638
298.0809394
298.0516199
298.031861
298.018767
298.0102192
298.004713
298.0012093
297.9990068
297.9976422
297.9968141
297.9963303
297.9960737
297.9959815
297.9960236
297.9962215
297.9966174
297.9967904
297.9985759
302.7176808
298.5142316
295.2976836
295.0248837
295.4670515
295.835409
296.2959426
296.8054217
297.3848444
298.0350742
298.7555315
299.5438048
300.3894402
301.276079
302.1783497
303.0630091
303.8903227
304.6180615
305.2067592
305.6253126
305.8552772
305.8927501
305.7476201
305.4408099
305.0005659
304.4587562
303.8477912
303.1983848
302.5381079
301.8905566
301.2749444
300.7059721
300.1938877
299.7447009
299.3605449
299.0401846
298.7796579
298.5730143
298.4130897
298.292245
298.2029965
298.1384867
298.0927737
298.0609566
298.0391571
298.0244197
298.0145662
298.0080355
298.0037366
298.0009226
297.9990912
297.997909
297.9971577
297.9966994
297.9964546
297.9963803
297.9964933
297.996823
297.9969373
297.9986953
303.6077069
299.6458376
296.9581456
296.9191564
297.3691656
297.7690801
298.252859
298.7901972
299.393391
300.0630497
300.7946156
301.5814221
302.4082015
303.2534498
304.0874651
304.8744315
305.5750102
306.1509293
306.5700023
306.8105274
306.8638338
306.7344941
306.4384893
306.000129
305.4486359
304.8150696
304.1299331
303.4215157
302.7148592
302.0311766
301.38757
300.7969441
300.2680638
299.8057435
299.4111772
299.0824122
298.8149576
298.6024903
298.4375963
298.3124771
298.21955
298.1518931
298.1035166
298.0694757
298.045847
298.0296273
298.0185898
298.0111253
298.0060982
298.0027218
298.0004595
297.9989491
297.9979488
297.9973021
297.9969139
297.9967302
297.9967636
297.997027
297.997083
297.9988207
304.5984181
300.7552612
298.7531023
298.8867385
299.3378526
299.7648699
300.2663928
300.823032
301.439742
302.1156505
302.8421475
303.6081226
304.3938308
305.173601
305.9150957
306.5822343
307.1385396
307.5516928
307.7977359
307.8640298
307.7502528
307.4674426
307.0356291
306.4808293
305.8321
305.1190733
304.370136
303.6112116
302.8650168
302.1506416
301.4833388
300.8744525
300.3314616
299.8581443
299.4548782
299.1190872
298.8458227
298.6284414
298.4593192
298.3305282
298.2344097
298.1639969
298.1132677
298.0772473
298.051979
298.0344228
298.0223116
298.0139962
298.0083027
298.0044094
298.0017495
297.9999352
297.9987037
297.9978813
297.9973589
297.9970727
297.9970315
297.9972274
297.9972319
297.9989495
305.7199252
301.9653002
300.6533882
300.9052412
301.3558042
301.8035562
302.3162777
302.8825454
303.5009877
304.1683538
304.8721099
305.5969514
306.3194815
307.0113304
307.639518
308.169918
308.5708264
308.8169685
308.8925871
308.7930344
308.5245995
308.1028704
307.550242
306.8932085
306.1599259
305.3782835
304.5745314
303.7723828
302.9924659
302.2520036
301.5646391
300.9403628
300.3855375
299.9030387
299.4925318
299.1508957
298.8727825
298.6512731
298.478566
298.3466289
298.2477467
298.174923
298.122117
298.0843351
298.0575976
298.0388362
298.0257517
298.0166614
298.0103582
298.0059903
298.002964
298.0008687
297.9994227
297.9984367
297.9977888
297.9974069
297.9972958
297.9974232
297.9973893
297.9990782
306.9459465
303.4605464
302.6314352
302.9584666
303.4057557
303.8664355
304.3820525
304.9465425
305.5531651
306.1957526
306.8582289
307.521789
308.1606051
308.7453272
309.2442699
309.6270326
309.8678241
309.94862
309.8611114
309.6071917
309.1980225
308.652108
307.9929309
307.2466334
306.4400536
305.5992338
304.7483855
303.9092156
303.1005059
302.3378514
301.6334983
300.9962624
300.4315343
299.9414002
299.5248991
299.1784306
298.8962969
298.6713394
298.4956068
298.360983
298.2597127
298.184783
298.1301453
298.0907967
298.0627432
298.0428955
298.0289292
298.0191333
298.0122727
298.0074692
298.0041055
298.0017507
298.000106
297.998968
297.9982031
297.9977324
297.9975556
297.9976137
297.9975548
297.9992025
308.2434679
305.1074875
304.6577647
305.030188
305.4694587
305.9335912
306.4420426
306.9917906
307.5716913
308.1725758
308.7754825
309.3591486
309.8967492
310.359632
310.7189825
310.9492448
311.0309004
310.9526929
310.7125952
310.3175131
309.7819441
309.1260278
308.3734386
307.5494595
306.6794228
305.7875577
304.8962
304.025271
303.1919382
302.4103831
301.6916411
301.0435054
300.4705166
299.9740654
299.5526372
299.2022066
298.9167667
298.6889505
298.5106793
298.3737707
298.2704427
298.1936767
298.1374252
298.0966845
298.0674526
298.0466263
298.0318613
298.0214234
298.0140537
298.0088508
298.0051767
298.0025825
298.000754
297.9994751
297.9986012
297.9980486
297.9978098
297.9977983
297.9977273
297.9993249
309.6097465
306.8656571
306.7060559
307.1001476
307.5269076
307.9834985
308.4733667
308.9945122
309.5323325
310.0750298
310.6016724
311.0897519
311.5128415
311.844363
312.0594088
312.1377169
312.0657757
311.8381948
311.4579265
310.9354883
310.2874715
309.53472
308.7005203
307.8090293
306.8840396
305.9480822
305.0218087
304.1235732
303.2691403
302.471467
301.7405367
301.0832497
300.5033979
300.0017558
299.5763152
299.2226712
298.9345423
298.7043783
298.5239928
298.3851515
298.2800568
298.2016933
298.1440224
298.1020455
298.0717595
298.0500523
298.0345642
298.0235427
298.0157081
298.0101394
298.0061802
298.0033654
298.0013672
297.9999577
297.9989829
297.998355
297.9980572
297.9979771
297.9979061
297.9994446
311.0371532
308.7017336
308.7523021
309.1486529
309.5562041
309.9931888
310.4521022
310.9307321
311.4118831
311.8817423
312.3183955
312.699242
312.9994003
313.195306
313.2664413
313.1977405
312.9810297
312.6157105
312.1084762
311.4722895
310.7249028
309.887235
308.9818489
308.0316749
307.0590284
306.0848983
305.1284504
304.2066745
303.3341209
302.5226852
301.7814341
301.1164835
300.5309619
300.025093
299.5964256
299.2402136
298.9499294
298.7178616
298.5357321
298.3952669
298.2886619
298.2089127
298.1499955
298.1069227
298.0756946
298.0531949
298.037053
298.0255012
298.0172428
298.0113393
298.0071183
298.0041007
298.0019461
298.0004158
297.9993477
297.9986509
297.9982965
297.9981498
297.9980904
297.9995598
312.5056558
310.5813769
310.7819123
311.1504193
311.5314006
311.9373548
312.353659
312.7773606
313.1895254
313.5750253
313.9119103
314.178471
314.3521921
314.4130187
314.3448416
314.1373214
313.786763
313.2962969
312.6752947
311.9382611
311.1034558
310.1914825
309.224019
308.2227779
307.2087139
306.2014467
305.2188461
304.276722
303.3885745
302.5653779
301.8153963
301.1440523
300.5538822
300.0446145
299.6133966
299.2551736
298.9631965
298.7296107
298.5460605
298.4042423
298.2963535
298.2154065
298.1553977
298.1113548
298.0792859
298.056074
298.0393415
298.0273085
298.0186639
298.0124545
298.0079937
298.0047898
298.0024912
298.0008494
297.9996955
297.9989358
297.9985265
297.998317
297.9982796
297.9996681
313.9710349
312.4653506
312.7385117
313.0816598
313.4282719
313.7932784
314.1571203
314.5158736
314.8497419
315.1430143
315.3745252
315.5241875
315.5723146
315.502463
315.3026196
314.9665079
314.4940265
313.8910968
313.1689234
312.3428995
311.4313642
310.4543916
309.4327306
308.3869491
307.336783
306.3006541
305.2953111
304.3355461
303.4339509
302.6006966
301.8433411
301.1666899
300.572747
300.0607914
299.6276052
299.2678519
298.9745818
298.7398133
298.5551244
298.4121907
298.3032178
298.2212398
298.1602775
298.1153775
298.0825591
298.0587083
298.0414428
298.0289735
298.0199776
298.013489
298.0088088
298.005434
298.0030031
298.0012587
298.0000262
297.9992092
297.9987463
297.9984793
297.9984723
297.9997661
315.4329607
314.3192299
314.6110903
314.9209925
315.2265491
315.5423152
315.8459175
316.1324339
316.3819976
316.5789551
316.7035136
316.7376294
316.6645711
316.4713156
316.1494457
315.6960337
315.1137686
314.4105972
313.5989273
312.6945952
311.7157642
310.6818869
309.6128128
308.5280731
307.4463333
306.3849786
305.3597931
304.3846918
303.471479
302.6296227
301.8660553
301.1850293
300.5880661
300.0740348
299.6393822
299.2785137
298.9842968
298.7486365
298.5630548
298.4192139
298.3093328
298.2264718
298.1646792
298.1190237
298.0855385
298.0611149
298.043369
298.0305049
298.0211897
298.0144466
298.0095659
298.0060348
298.0034826
298.0016438
298.0003397
297.9994702
297.9989549
297.9986375
297.9986645
297.9998512
316.8745429
316.1033468
316.3788828
316.6505974
316.9094336
317.1696591
317.4077176
317.6177697
317.7804683
317.880673
317.9002903
317.8234621
317.6362923
317.3288156
316.8956482
316.3365436
315.6563087
314.8643295
313.9737727
313.0006351
311.962772
310.8790027
309.7683497
308.64943
307.5399831
306.4565047
305.4139517
304.4254833
303.5022192
302.6530088
301.8842271
301.1996274
300.6002913
300.0847107
299.6490233
299.2873967
298.9925316
298.7562311
298.5699702
298.4254041
298.3147698
298.2311567
298.1686437
298.1223237
298.0882462
298.0633102
298.045132
298.0319108
298.022306
298.0153312
298.0102676
298.0065936
298.0039303
298.0020052
298.0006362
297.9997183
297.9991521
297.9987922
297.9988508
297.9999252
318.2797446
317.7859913
318.0257528
318.2553794
318.4639793
318.6651067
318.8352549
318.9678149
319.0443671
319.0505609
318.9701148
318.7893033
318.4968052
318.0852896
317.5518675
316.8984034
316.1312948
315.260941
314.3009719
313.2673814
312.1776673
311.0500527
309.9028264
308.7538146
307.6199649
306.5170143
305.4592114
304.4590633
303.527092
302.6715997
301.8984614
301.210977
300.6098239
300.0931457
299.6567937
299.2947151
298.9994579
298.7627339
298.5759787
298.4308457
298.3195938
298.2353444
298.1722087
298.1253058
298.0907032
298.0653093
298.0467425
298.033199
298.0233318
298.0161465
298.0109164
298.007112
298.0043471
298.0023432
298.0009155
297.9999529
297.9993376
297.9989435
297.9990271
298.0000006
319.6302314
319.3437594
319.5393198
319.7245583
319.8817634
320.0230097
320.125758
320.1827481
320.1766874
320.0941291
319.9205696
319.6442563
319.2561303
318.7510807
318.1282431
317.3911345
316.5473486
315.6080027
314.5870052
313.5002662
312.3649295
311.1986852
310.0191893
308.8435949
307.6881783
306.5680324
305.4968
304.4864242
303.5469034
302.686053
301.9092965
301.2195191
300.6170256
300.0996359
299.6629344
299.3006645
299.0052331
298.7682707
298.5811796
298.4356168
298.3238656
298.2390814
298.1754095
298.1279965
298.0929292
298.0671269
298.0482114
298.0343772
298.0242725
298.0168962
298.0115147
298.0075915
298.0047339
298.0026584
298.0011778
298.0001734
297.9995115
297.9990912
297.9991955
298.0000669
320.9097872
320.7602037
320.9108855
321.0515195
321.1587022
321.2421146
321.280621
321.2664156
321.1834154
321.019114
320.7606825
320.398141
319.9243785
319.3361329
318.6341769
317.8233267
316.9120889
315.9121034
314.837452
313.7039343
312.5283748
311.3280066
310.1199514
308.9207982
307.7462589
306.6108813
305.5277904
304.5084408
303.5623699
302.6969578
301.917218
301.2256548
300.6222271
300.104453
299.6676682
299.3054258
299.0100036
298.7729585
298.5856663
298.4397906
298.3276422
298.242412
298.1782801
298.1304216
298.0949435
298.0687771
298.0495489
298.035453
298.0251335
298.0175842
298.0120651
298.0080338
298.0050918
298.0029515
298.0014232
298.0003795
297.9996743
297.9992342
297.9993485
298.0001265
322.1046042
322.0250864
322.1369841
322.2354954
322.2961928
322.3259032
322.3051367
322.2256925
322.0727321
321.8346734
321.5002094
321.0609146
320.5113307
319.8497276
319.0782058
318.2026178
317.2321852
316.1789478
315.0571086
313.882364
312.6712696
311.4406802
310.207277
308.9871812
307.7956346
306.6467254
305.5531363
304.5258979
303.5741401
302.7048518
301.9226727
301.229755
300.6257357
300.1078509
299.6712032
299.3091691
299.0139071
298.7769082
298.5895269
298.4434368
298.3309782
298.2453784
298.1808528
298.1326056
298.0967647
298.0702738
298.0507653
298.0364337
298.0259202
298.0182141
298.0125702
298.0084407
298.0054219
298.0032231
298.001652
298.0005711
297.999826
297.9993707
297.9994891
298.0001842
323.2053677
323.1426993
323.2219743
323.2817626
323.3001903
323.2812376
323.2070897
323.0692087
322.8539226
322.5504902
322.1489337
321.6421613
321.0261033
320.3002993
319.4679377
318.5357142
317.5134319
316.4134576
315.2500982
314.0389727
312.7964254
311.5390088
310.2830485
309.0442842
307.8375688
306.6766051
305.5736985
304.5395106
303.5828104
302.7102336
301.9260773
301.2321677
300.6278411
300.1100693
299.673737
299.3120559
299.0170745
298.7802252
298.5928454
298.4466221
298.3339259
298.2480212
298.183159
298.1345724
298.0984107
298.0716306
298.0518707
298.0373267
298.026638
298.01879
298.013033
298.0088141
298.0057255
298.0034742
298.0018643
298.0007481
297.9999667
297.9994996
297.9996192
298.0002373
324.1738583
324.1237159
324.173498
324.1984203
324.1792355