/*--------------------------------*- C++ -*----------------------------------*\
  =========                 |
  \\      /  F ield         | OpenFOAM: The Open Source CFD Toolbox
   \\    /   O peration     | Website:  https://openfoam.org
    \\  /    A nd           | Version:  12
     \\/     M anipulation  |
\*---------------------------------------------------------------------------*/
FoamFile
{
    format      ascii;
    class       volVectorField;
    location    "1350";
    object      U;
}
// * * * * * * * * * * * * * * * * * * * * * * * * * * * * * * * * * * * * * //

dimensions      [0 1 -1 0 0 0 0];

internalField   nonuniform List<vector> 
16200
(
(184.1170942 -7.281237007e-17 -1.499394277)
(219.6122671 3.512522632e-17 -1.427500377)
(239.6009337 -2.437927289e-20 -1.603197322)
(255.3534515 0 -1.77714919)
(269.9701231 0 -1.968038117)
(285.1422445 -2.523983626e-17 -2.198823238)
(300.9820693 2.887022509e-17 -2.520729531)
(313.5903389 6.224248507e-17 -2.901836484)
(317.3045242 -1.210745071e-16 -3.028391549)
(317.2950935 1.083523848e-16 -3.002863164)
(316.9816031 -4.610438146e-17 -3.056709687)
(316.6840977 0 -3.032342026)
(316.3168966 0 -3.091822356)
(315.9125023 -5.356384411e-17 -3.090689065)
(315.4363138 4.470273839e-17 -3.145498143)
(314.8906789 0 -3.173047243)
(314.2538472 0 -3.232638002)
(313.5144279 8.17960605e-19 -3.288880869)
(312.6520821 4.433927384e-17 -3.366455826)
(311.6472895 -3.600330791e-17 -3.454327439)
(310.4762302 0 -3.561895833)
(309.1130398 -2.486393856e-17 -3.687227772)
(307.5290126 2.224854968e-17 -3.833466974)
(305.6935099 3.786781016e-17 -3.999665192)
(303.5750318 -3.181097089e-17 -4.183949911)
(301.1433838 -2.72084136e-17 -4.380315168)
(298.3733294 2.287639526e-17 -4.577789799)
(295.2501341 0 -4.758538873)
(291.7772904 0 -4.897125128)
(287.9858787 5.725003739e-17 -4.961437853)
(283.9432496 -3.608088216e-17 -4.917122189)
(279.7559965 -1.038752255e-17 -4.736445933)
(275.561784 0 -4.409441761)
(271.5094469 -4.585126684e-17 -3.951547478)
(267.7341635 5.147398018e-17 -3.402378688)
(264.3375956 -8.871797526e-17 -2.815459986)
(261.3790049 7.47986821e-17 -2.244051846)
(258.8768841 0 -1.729437424)
(256.8168414 0 -1.295372286)
(255.1615694 0 -0.9487279157)
(253.8603868 7.749112934e-17 -0.6839860384)
(252.8572772 -1.309662588e-16 -0.4887846159)
(252.0969634 1.102040192e-16 -0.348568651)
(251.5289301 0 -0.2495911515)
(251.1095893 1.567568167e-16 -0.180359276)
(250.8030008 -1.318959114e-16 -0.1320130545)
(250.5805391 -4.999865301e-20 -0.09807355836)
(250.4200484 1.871072221e-16 -0.07398711767)
(250.3047518 -3.153086922e-16 -0.05663309879)
(250.2221646 2.655756743e-16 -0.04390449149)
(250.1631158 2.238921889e-16 -0.03438752296)
(250.1209239 3.777402271e-16 -0.0271322145)
(250.0907511 -3.188292564e-16 -0.02149367759)
(250.0690674 8.082205547e-16 -0.01703299138)
(250.0533391 -4.557862864e-16 -0.01344925285)
(250.0416149 0 -0.01054036759)
(250.0327751 1.6385068e-16 -0.008099245691)
(250.0256689 0 -0.006056605257)
(250.0197537 -4.753436015e-16 -0.003704773748)
(250.0131828 -3.971171121e-19 -0.003851891714)
(188.442075 -1.536810556e-16 -4.165114826)
(225.1146274 1.502729113e-16 -4.4287147)
(245.708732 -5.436886092e-17 -4.927155882)
(261.9249781 -4.882458855e-17 -5.32023951)
(277.0484452 5.047279789e-17 -5.715979643)
(292.7941827 0 -6.163853718)
(308.659777 0 -6.730184521)
(318.8383572 6.695160385e-17 -7.161363164)
(320.7778527 -6.249418176e-17 -7.245144846)
(320.629448 0 -7.207391268)
(320.296658 0 -7.273825798)
(319.9773509 0 -7.239468869)
(319.5833813 -6.626913416e-17 -7.303604538)
(319.1478159 5.529030176e-17 -7.296097122)
(318.6328113 -1.416798345e-18 -7.349604639)
(318.0404878 -1.187206808e-18 -7.371272534)
(317.3469086 0 -7.424627693)
(316.5389429 -2.519229919e-18 -7.471764596)
(315.593921 0 -7.537359259)
(314.4896782 1.172665006e-18 -7.609665669)
(313.1994431 3.994958464e-18 -7.696982616)
(311.6940391 -2.88673852e-17 -7.796463294)
(309.9412891 -1.742296439e-17 -7.909531553)
(307.9071026 3.856738749e-17 -8.033189517)
(305.5570769 0 -8.16241048)
(302.8595282 6.950501222e-18 -8.286885147)
(299.7905142 -1.182750149e-17 -8.389829164)
(296.3412402 0 -8.446222235)
(292.5279664 -3.464881919e-17 -8.422555812)
(288.4028769 1.446028358e-17 -8.279287705)
(284.0612753 -3.7755745e-17 -7.978229152)
(279.6381125 1.075578385e-17 -7.49493101)
(275.2901863 -3.686994564e-17 -6.831431878)
(271.1690814 -1.572122314e-17 -6.021812664)
(267.3962764 0 -5.126150752)
(264.049703 4.595610881e-17 -4.215486281)
(261.1633468 -3.873822401e-17 -3.35502866)
(258.7352977 0 -2.592166983)
(256.7384271 1.121078442e-16 -1.95198928)
(255.1300336 -9.484694524e-17 -1.439328924)
(253.8593725 8.015143726e-17 -1.044510581)
(252.8732804 2.706027752e-16 -0.7499093267)
(252.1202985 -1.138641351e-16 -0.5354001055)
(251.5534772 0 -0.381941678)
(251.1320045 4.85267621e-16 -0.2733824935)
(250.8218312 -5.44363629e-16 -0.1970017896)
(250.5954824 -3.435489372e-16 -0.1432702884)
(250.4314077 3.854105142e-16 -0.1053087644)
(250.3130876 0 -0.07827555632)
(250.2280921 -2.727913188e-16 -0.05881679701)
(250.1672029 2.295329383e-16 -0.0446299946)
(250.1236526 5.796239909e-16 -0.03413852668)
(250.0925054 3.253721072e-16 -0.0262595195)
(250.0701537 -2.740685882e-16 -0.02024699708)
(250.0539675 9.239805124e-16 -0.01559085828)
(250.0419706 -7.793025516e-16 -0.01193943008)
(250.0329075 -4.933753392e-16 -0.008993704303)
(250.025701 5.558573821e-16 -0.006634735819)
(250.0197239 1.058118952e-15 -0.003994454447)
(250.0126734 9.803956629e-17 -0.003985153971)
(192.6664961 -1.587359733e-19 -6.935340648)
(230.4916913 1.613919361e-16 -7.701621733)
(251.6721454 -2.361479123e-16 -8.510743165)
(268.3642984 1.075547316e-16 -9.149956478)
(284.0199654 1.130708016e-16 -9.782209287)
(300.2148834 -2.557663266e-16 -10.48248803)
(315.5931626 2.833768526e-16 -11.29742725)
(322.9010961 3.680038008e-19 -11.69160604)
(323.6050457 -2.633347874e-16 -11.7563175)
(323.3548732 1.145299627e-16 -11.7014888)
(323.002704 0 -11.77635161)
(322.6569093 7.847834718e-17 -11.72747743)
(322.2275662 -6.541364371e-17 -11.79152228)
(321.7511225 -2.603641197e-18 -11.7740612)
(321.1864352 4.807111261e-17 -11.82124606)
(320.5351016 3.755896079e-18 -11.833455)
(319.7709463 -3.270738977e-17 -11.87656855)
(318.8787929 1.728502091e-18 -11.91183557)
(317.8334288 -4.640915602e-17 -11.96308755)
(316.6096995 3.64606169e-17 -12.01839133)
(315.1775233 -2.791828877e-20 -12.08438787)
(313.5040279 -2.09423835e-17 -12.1569568)
(311.553264 1.750409475e-17 -12.2349254)
(309.2876805 0 -12.3120857)
(306.6705884 -4.235718819e-17 -12.37864237)
(303.6705187 6.987256664e-18 -12.41797901)
(300.26816 3.680080333e-17 -12.40523207)
(296.4662059 2.126917428e-17 -12.30594843)
(292.3015609 1.837113849e-17 -12.07711059)
(287.8562248 -1.482182872e-17 -11.6727095)
(283.2593855 1.971259153e-19 -11.05566139)
(278.6737387 -4.47343667e-17 -10.21336078)
(274.2674307 3.810921637e-17 -9.169025182)
(270.1831486 -9.816884064e-17 -7.9813455)
(266.5177476 2.76431859e-17 -6.731650758)
(263.3180846 0 -5.504852387)
(260.589419 -8.066302937e-17 -4.372322012)
(258.3086953 -6.853019758e-17 -3.381859783)
(256.4366192 -1.594145179e-20 -2.555613425)
(254.9260972 4.906120664e-17 -1.893911558)
(253.7274008 -8.257230114e-17 -1.38201846)
(252.7913372 -6.971931698e-17 -0.9971941351)
(252.0714286 2.351080986e-16 -0.7144227442)
(251.5254805 2.971425508e-16 -0.5101927669)
(251.1166145 -1.665554744e-16 -0.3644428713)
(250.8137278 2.80313358e-16 -0.2611717831)
(250.5914016 5.890847072e-16 -0.1882071378)
(250.4294356 -3.96116305e-16 -0.1366078652)
(250.312153 6.657182667e-16 -0.09997017358)
(250.2276261 -2.796775846e-16 -0.07378318921)
(250.1669223 -4.698988298e-16 -0.0549027576)
(250.1234307 1.973301987e-16 -0.0411482261)
(250.0922955 -6.630519891e-16 -0.03100770733)
(250.0699512 0 -0.02343150143)
(250.0537777 -1.871152299e-15 -0.01769787337)
(250.0418163 7.858367922e-16 -0.01330536836)
(250.0327695 3.30042137e-16 -0.00985873523)
(250.0256076 -1.386141458e-16 -0.007182364442)
(250.0197443 -9.315524895e-16 -0.004216767841)
(250.012699 0 -0.004115610416)
(196.5449192 -3.432181247e-16 -9.834974719)
(235.3734798 -1.692733648e-19 -11.21219732)
(257.070634 0 -12.32445333)
(274.2587585 1.161906369e-19 -13.23105024)
(290.5078798 -1.271738334e-16 -14.12438982)
(306.9998424 1.434549577e-16 -15.09976125)
(320.9011415 -3.013939567e-19 -16.08041879)
(325.5394844 -5.973810266e-19 -16.35487253)
(325.6162201 1.061597869e-18 -16.41774402)
(325.336914 1.154709845e-16 -16.34380918)
(324.9609359 -9.727017172e-17 -16.42981563)
(324.584222 1.274013829e-18 -16.3694182)
(324.1151454 -6.790525727e-17 -16.435387)
(323.592274 5.849092754e-17 -16.41195992)
(322.9711813 4.762126985e-17 -16.4557999)
(322.2525104 -4.234343491e-17 -16.46251889)
(321.4077208 -4.179224271e-18 -16.4985927)
(320.4192316 0 -16.52503469)
(319.259049 0 -16.5638929)
(317.8987326 0 -16.6029129)
(316.304669 -3.808122406e-17 -16.64651105)
(314.4402094 1.413782686e-17 -16.68878359)
(312.265888 3.631298082e-17 -16.72516717)
(309.7415903 -2.036031449e-17 -16.74508913)
(306.830273 2.610057734e-17 -16.73246364)
(303.5041392 1.479289322e-17 -16.66258443)
(299.7540132 -2.539501718e-17 -16.50076076)
(295.6018441 2.136352238e-17 -16.20203411)
(291.114056 -1.839167081e-17 -15.71489298)
(286.4089625 -3.070511159e-19 -14.9915948)
(281.6492317 2.677850364e-17 -14.00461882)
(277.016159 4.615350871e-17 -12.76256981)
(272.6745024 0 -11.31606934)
(268.7437232 6.744488514e-17 -9.749201542)
(265.2867318 0 -8.160583555)
(262.316039 0 -6.642771361)
(259.8093001 2.081851657e-16 -5.26721275)
(257.7254498 3.516719163e-17 -4.077524089)
(256.0163866 2.391634774e-16 -3.090137186)
(254.6333588 5.056748244e-17 -2.299662244)
(253.5296162 5.542988745e-16 -1.686190254)
(252.6613126 -2.156444458e-16 -1.222398035)
(251.9879748 -1.211429041e-16 -0.8791915449)
(251.4729964 -9.171443338e-16 -0.6294354171)
(251.0841438 -1.754709735e-19 -0.4499022712)
(250.7938748 7.201274463e-16 -0.3218985699)
(250.5793412 6.050579103e-16 -0.2310395504)
(250.4221085 -1.117649181e-15 -0.1666208435)
(250.3076659 -5.11716355e-16 -0.1208740566)
(250.2248304 2.862431409e-16 -0.08825763306)
(250.165133 -1.200299077e-15 -0.06486424143)
(250.1222451 0 -0.04795698206)
(250.09148 1.349437022e-15 -0.035623499)
(250.0693745 1.130396902e-15 -0.02652755162)
(250.0533627 9.46417912e-16 -0.01974503007)
(250.0415251 0 -0.01463074436)
(250.0325522 6.621704419e-16 -0.01069447143)
(250.025454 6.915504141e-17 -0.00771862483)
(250.0196944 -2.078036448e-15 -0.004449137133)
(250.0125624 3.17485121e-15 -0.004251093042)
(199.9966121 -7.268916701e-16 -12.90992305)
(239.7257104 3.729055931e-16 -14.91881217)
(261.8878515 -1.406838273e-16 -16.35282492)
(279.5484096 -6.397246015e-22 -17.54835979)
(296.3967984 0 -18.7274858)
(313.0519052 3.141083497e-19 -19.99878027)
(324.3447567 3.109104813e-21 -21.00515526)
(326.9879976 0 -21.14762367)
(326.8210019 -2.200161276e-18 -21.22781859)
(326.5159983 -1.181054741e-16 -21.1366103)
(326.1139407 9.920532445e-17 -21.23434068)
(325.6999233 0 -21.16413192)
(325.1838553 -7.154139353e-17 -21.23116358)
(324.6060958 -1.94661387e-18 -21.20242955)
(323.9191132 4.554863446e-17 -21.24145726)
(323.1221458 -8.180957302e-17 -21.24155874)
(322.1842249 7.28042054e-17 -21.26809775)
(321.0849684 3.608319944e-18 -21.28291694)
(319.7933315 0 -21.30570311)
(318.2772732 4.116054563e-17 -21.32396447)
(316.4995204 -4.320233444e-17 -21.3392985)
(314.4198536 3.67757274e-17 -21.34313759)
(311.9961011 -3.713956113e-17 -21.32616079)
(309.1873493 0 -21.2716648)
(305.9593672 -1.791332561e-17 -21.15529578)
(302.2931218 0 -20.94229288)
(298.1969452 2.628206258e-17 -20.58673328)
(293.7210332 -2.211155001e-17 -20.03352379)
(288.969072 0 -19.22660992)
(284.0974724 0 -18.12478597)
(279.2949446 0 -16.72052594)
(274.7464018 0 -15.0518686)
(270.5966831 0 -13.19944828)
(266.9299411 1.053808104e-16 -11.26956839)
(263.7700141 -1.491470273e-16 -9.371605638)
(261.0957992 1.015134373e-16 -7.598749667)
(258.8612335 -1.716309667e-16 -6.016865443)
(257.0118238 -1.822105025e-16 -4.661670912)
(255.4945195 -9.201504853e-17 -3.541933801)
(254.2615936 -1.558100437e-16 -2.645909025)
(253.2709193 -5.698020985e-16 -1.948727631)
(252.484951 -2.955522024e-16 -1.419170021)
(251.8698122 4.356702125e-16 -1.02494419)
(251.3949281 8.372883249e-16 -0.7361755157)
(251.0331067 -7.038063672e-16 -0.5272506799)
(250.7607436 -7.388883831e-16 -0.3774139836)
(250.5579115 -8.683377694e-16 -0.270543833)
(250.4082525 1.040690054e-15 -0.1945143464)
(250.2986834 1.221653174e-15 -0.1404281574)
(250.2189765 -1.462496368e-16 -0.1018705726)
(250.1612892 1.347161887e-15 -0.07427387935)
(250.1196985 -1.844907777e-15 -0.05441084389)
(250.0897774 -2.914289696e-15 -0.04001037904)
(250.0682296 -1.002676884e-15 -0.02947609124)
(250.052593 0 -0.0216975916)
(250.0410167 1.595116758e-15 -0.01589627966)
(250.0322136 -4.980877314e-16 -0.01149127733)
(250.0252305 -2.070572456e-16 -0.00823003877)
(250.019617 1.832990887e-15 -0.004676857756)
(250.012466 -3.034130172e-15 -0.004386261737)
(202.9052024 1.877986029e-19 -16.13232625)
(243.4495998 0 -18.80045303)
(266.0415445 1.504825118e-19 -20.57235199)
(284.1749706 -1.450447128e-19 -22.07962737)
(301.5716196 -3.145979868e-19 -23.57014403)
(318.0256053 0 -25.1259546)
(326.3867267 7.036735415e-19 -26.02291074)
(327.5662512 -1.301605781e-18 -26.05466906)
(327.2072637 1.129635982e-18 -26.14986848)
(326.8862746 -9.500995815e-19 -26.03879785)
(326.4356518 0 -26.14432424)
(325.979681 8.476551008e-17 -26.06288869)
(325.4113275 -7.078394558e-17 -26.12632677)
(324.7718396 6.130712584e-17 -26.09006546)
(324.0107421 -4.973026062e-17 -26.12080386)
(323.1252149 5.233728469e-18 -26.11218991)
(322.0817185 0 -26.12668426)
(320.8566772 -6.3091494e-17 -26.12750266)
(319.4158818 4.978945627e-17 -26.13089296)
(317.7237352 -1.056228714e-17 -26.12336109)
(315.7397138 8.903772888e-18 -26.10246056)
(313.4209484 0 -26.0555916)
(310.7242777 0 -25.96715646)
(307.6109384 0 -25.81261543)
(304.0542147 0 -25.55763457)
(300.050709 -6.363826724e-17 -25.15605754)
(295.6349794 -3.981197913e-19 -24.55082675)
(290.8938504 -2.323465069e-17 -23.67999809)
(285.9718767 2.814872314e-19 -22.49073906)
(281.0580916 1.682429977e-17 -20.95930264)
(276.3526367 -2.928370383e-17 -19.10795016)
(272.0256489 1.246894689e-16 -17.00842294)
(268.1869521 -8.532252239e-17 -14.76887529)
(264.8777792 -7.217357405e-17 -12.51081347)
(262.0826529 1.228183034e-16 -10.34628746)
(259.7512407 -1.043020903e-16 -8.362454023)
(257.8197168 0 -6.615236893)
(256.2256063 -1.879457264e-16 -5.1301885)
(254.9149357 -2.853162408e-16 -3.90762299)
(253.8435303 1.068361645e-16 -2.929549966)
(252.9752425 1.072703065e-19 -2.166740424)
(252.2794427 2.655115719e-16 -1.584905977)
(251.7290896 -5.105976539e-16 -1.149444586)
(251.2997423 4.295222934e-16 -0.8285833132)
(250.9693355 1.442577187e-15 -0.5950547079)
(250.7183141 1.513981342e-16 -0.4266371872)
(250.5298086 -1.269219016e-16 -0.3059317874)
(250.3896829 0 -0.2197304732)
(250.286421 -1.604470752e-15 -0.1582483496)
(250.2108733 1.491909894e-16 -0.1143645576)
(250.1559257 2.246039095e-15 -0.08296388677)
(250.1161412 3.127512183e-15 -0.06040381402)
(250.0874141 4.176334229e-15 -0.04410381251)
(250.0666608 0 -0.0322395894)
(250.0515574 0 -0.02353516003)
(250.0403443 -1.605604835e-15 -0.01709195099)
(250.0317795 1.664866415e-16 -0.01224567317)
(250.0249468 -2.756069997e-16 -0.008715182752)
(250.0194979 -1.820461004e-15 -0.004898572771)
(250.0123298 -5.849502425e-18 -0.00451921006)
(205.2396963 -1.992695924e-19 -19.48333792)
(246.5563107 2.169492248e-16 -22.83478738)
(269.5742673 -3.389228966e-16 -24.96844332)
(288.2383711 1.653400405e-16 -26.81629024)
(306.1320688 3.526616367e-19 -28.65727703)
(321.5062362 1.923940391e-16 -30.40141123)
(327.145727 -1.901640004e-16 -31.08922102)
(327.6080628 1.347373671e-18 -31.02612561)
(326.8147763 -1.466460003e-16 -31.12367514)
(326.465066 1.23744193e-16 -30.98735344)
(325.9725914 -1.618803328e-18 -31.0987137)
(325.4664371 0 -31.01096725)
(324.8366373 -4.66612654e-21 -31.0726161)
(324.1243399 -3.805395657e-18 -31.03239294)
(323.2764912 3.186786618e-18 -31.05600451)
(322.2877249 3.22419266e-17 -31.03954565)
(321.1220599 -3.600255246e-17 -31.04056996)
(319.7526439 0 -31.02376947)
(318.1422937 6.436311127e-18 -31.00102118)
(316.2521905 -3.271016507e-17 -30.95725054)
(314.039265 3.652598913e-17 -30.88519186)
(311.4593699 1.562833866e-17 -30.76713126)
(308.4708612 0 -30.57977749)
(305.0413046 -2.261436193e-17 -30.28905404)
(301.1577357 0 -29.84922966)
(296.8405676 -3.914148574e-19 -29.20252205)
(292.1591856 2.786931593e-17 -28.28328438)
(287.2422945 4.773552921e-17 -27.02960567)
(282.2724113 -4.09088444e-17 -25.4027078)
(277.4582662 0 -23.40738685)
(272.9924202 0 -21.10197403)
(269.0126224 9.944169032e-19 -18.59080658)
(265.5833011 -7.178302132e-19 -16.00256095)
(262.7008504 3.751542221e-17 -13.46483174)
(260.3146094 -1.589519388e-16 -11.08440293)
(258.3517393 -2.697250316e-17 -8.937109808)
(256.7373033 2.052408512e-16 -7.066224798)
(255.4060673 -2.706342615e-16 -5.486245017)
(254.3066023 2.599511617e-16 -4.189177075)
(253.4002311 2.751376478e-17 -3.151422848)
(252.6576501 -9.237441197e-17 -2.340220696)
(252.0553678 3.88444775e-17 -1.719082283)
(251.573098 6.542829112e-17 -1.251930537)
(251.1923681 -9.338939899e-16 -0.9058509477)
(250.8961013 -7.379780387e-16 -0.6525735519)
(250.6687193 0 -0.4689462016)
(250.4963994 1.037963173e-15 -0.3367124559)
(250.3672613 0 -0.2418995411)
(250.2714124 0 -0.1740668519)
(250.2008454 0 -0.1255521309)
(250.1492355 -4.189611452e-15 -0.09080722374)
(250.1116848 -1.588518551e-15 -0.06585261504)
(250.0844524 -2.823009743e-15 -0.04785118102)
(250.0647013 -2.4948198e-15 -0.0347861985)
(250.0502721 -1.827703162e-15 -0.02523954322)
(250.0395153 0 -0.01820815369)
(250.0312525 0 -0.01295370036)
(250.0246059 1.376021647e-16 -0.009171346839)
(250.019345 1.809387659e-15 -0.005110889028)
(250.01218 -1.156412893e-17 -0.004649657058)
(206.9656106 2.119822347e-19 -22.97907203)
(249.044055 0 -26.99276778)
(272.5339898 1.823625384e-19 -29.53535591)
(291.7995074 -1.182985703e-21 -31.75483549)
(310.0755605 -2.004574087e-16 -33.98418409)
(323.2306248 2.089922752e-16 -35.71253286)
(326.3251746 0 -36.15159233)
(326.0894953 0 -36.02326907)
(325.6854456 1.500349961e-16 -36.15538688)
(325.3006163 2.09573246e-19 -36.00996391)
(324.7560187 -1.056089302e-16 -36.12369225)
(324.190948 0 -36.02715068)
(323.4902776 2.31412316e-18 -36.0809469)
(322.694122 6.623152488e-17 -36.0320822)
(321.7473273 -5.547733489e-17 -36.04118554)
(320.6414953 5.487135141e-18 -36.00889512)
(319.3382936 -4.650450144e-18 -35.98647949)
(317.8074652 7.846271578e-18 -35.94027846)
(316.0090019 -5.291694888e-17 -35.87713424)
(313.9013312 -3.878487036e-19 -35.77955915)
(311.4400001 8.512861708e-17 -35.63421433)
(308.581877 -4.787775107e-17 -35.41647306)
(305.2906798 0 -35.09346209)
(301.5459936 -2.912200719e-19 -34.62002001)
(297.3561243 1.968050508e-17 -33.93865471)
(292.7737388 3.373243665e-17 -32.98193289)
(287.9095283 0 -31.6815245)
(282.9338276 0 -29.9858126)
(278.0567186 -2.150206796e-17 -27.88197447)
(273.4880504 1.811721733e-17 -25.41167736)
(269.3931558 0 -22.67014648)
(265.86397 -1.328776926e-16 -19.78792874)
(262.9153017 1.357237079e-16 -16.90431798)
(260.5020347 -1.918842911e-17 -14.1436353)
(258.5454966 -6.884500232e-19 -11.60086721)
(256.9580671 -2.218231044e-16 -9.337133348)
(255.6600977 -4.445918009e-16 -7.382000948)
(254.5880645 4.136593586e-16 -5.739186252)
(253.6957541 -3.327879874e-17 -4.393226718)
(252.9512897 0 -3.315890949)
(252.3326132 -4.73318997e-17 -2.471815808)
(251.8232663 -5.970963564e-16 -1.823150975)
(251.4093958 0 -1.333084964)
(251.0781404 0 -0.9682072519)
(250.8171114 -7.541223731e-16 -0.6997954794)
(250.6144978 0 -0.504221912)
(250.4593986 -9.265417723e-16 -0.3627353588)
(250.3421304 1.661737281e-15 -0.2608783372)
(250.2544094 -9.261779988e-17 -0.1877638998)
(250.1893805 -2.397523859e-15 -0.1353408339)
(250.1415302 2.193142048e-15 -0.09773661631)
(250.1065249 -3.545945914e-15 -0.07071070751)
(250.0810124 0 -0.05122181899)
(250.0624227 2.373402034e-15 -0.03709673987)
(250.0487782 5.89772627e-15 -0.02679949856)
(250.0385526 0 -0.0192388338)
(250.0306432 1.673177401e-16 -0.01361303068)
(250.0242123 -1.374306599e-16 -0.009598070358)
(250.0191583 1.79963552e-15 -0.005314363459)
(250.0120066 5.871414207e-15 -0.004777880587)
(208.0612877 -9.212035565e-16 -26.57407685)
(250.9014206 2.545398085e-16 -31.26266743)
(274.9656405 -2.009053653e-19 -34.26043916)
(294.8669652 4.025594931e-19 -36.88947796)
(313.1699762 4.278669405e-19 -39.50888501)
(323.660619 -2.210944801e-16 -41.0060913)
(324.7206916 2.057735906e-16 -41.25659227)
(324.3942184 0 -41.08604618)
(323.8607695 1.533508941e-16 -41.23662596)
(323.4323052 2.391677481e-19 -41.06937725)
(322.8312283 -1.062680102e-16 -41.17972237)
(322.2004191 0 -41.0721187)
(321.4213901 2.383636549e-18 -41.11143859)
(320.531985 0 -41.04891543)
(319.4753707 -2.668246414e-20 -41.03631745)
(318.2395881 0 -40.98027448)
(316.7840381 -3.821263837e-17 -40.92441317)
(315.0751178 -1.484224915e-19 -40.83622936)
(313.0705403 2.027996974e-17 -40.71644135)
(310.7271799 4.619158679e-17 -40.54365543)
(308.0013905 -4.84683622e-17 -40.29683923)
(304.8545493 -1.669179579e-17 -39.94271803)
(301.2607494 -2.840035959e-17 -39.43764528)
(297.2182542 2.386546859e-17 -38.72510729)
(292.7645655 2.072743123e-17 -37.73743331)
(287.9918127 1.808425296e-17 -36.40240351)
(283.0541799 0 -34.65828264)
(278.1562994 -5.212328219e-17 -32.4758853)
(273.5187597 8.921081985e-17 -29.87850297)
(269.3316644 5.718857012e-17 -26.94783784)
(265.7166709 1.460332773e-16 -23.81094567)
(262.7128066 1.105991355e-16 -20.61439339)
(260.2871518 0 -17.49738752)
(258.3603058 0 -14.57296814)
(256.8342252 1.00364405e-16 -11.91993011)
(255.614043 2.550806774e-16 -9.583232784)
(254.6208585 1.915813968e-16 -7.579066229)
(253.7962615 3.233877476e-16 -5.901459632)
(253.1010401 5.462761817e-16 -4.528723785)
(252.5107909 4.599688992e-16 -3.429109264)
(252.0106944 -4.83780421e-17 -2.565572252)
(251.5909662 6.908349057e-16 -1.899650576)
(251.2436986 -1.093045445e-15 -1.394420338)
(250.9611639 -5.734164269e-17 -1.016500147)
(250.7352649 8.171486161e-16 -0.7371593609)
(250.557663 -8.057379063e-17 -0.5326650259)
(250.4201821 6.741834575e-17 -0.3840715262)
(250.3152159 -3.608896618e-15 -0.2766734628)
(250.2360247 0 -0.1993186861)
(250.1768773 2.514712121e-15 -0.143701996)
(250.1330646 -2.094998829e-15 -0.1037248284)
(250.1008206 6.969904619e-15 -0.07495592498)
(250.0771908 -1.808345205e-16 -0.05419935665)
(250.059882 -2.247240732e-15 -0.03916002976)
(250.0471076 -3.838431799e-15 -0.02820795932)
(250.0374729 -3.367802004e-15 -0.02017989839)
(250.0299594 0 -0.01422198893)
(250.0237697 0 -0.009994644067)
(250.0189404 -3.582161207e-15 -0.005508947995)
(250.0118127 -5.806323103e-15 -0.004903689344)
(208.6234828 6.835324625e-20 -30.25660194)
(252.2783948 -2.771466122e-16 -35.65933596)
(276.9996088 0 -39.15922387)
(297.5100589 4.523095782e-19 -42.24758213)
(315.0517615 -9.403393486e-19 -45.14278072)
(322.5135655 0 -46.23209103)
(322.3687882 -2.124681414e-16 -46.3732691)
(321.9695367 1.841907975e-16 -46.16574234)
(321.4163092 -1.246990347e-18 -46.32421694)
(320.9367944 0 -46.14040757)
(320.2717383 3.469107336e-18 -46.24267843)
(319.5657125 9.276319298e-17 -46.12381977)
(318.6981205 -2.152183293e-18 -46.14387857)
(317.7033614 2.670765285e-19 -46.06312769)
(316.5234032 -5.836077784e-17 -46.02133457)
(315.1424079 0 -45.93194653)
(313.51785 4.863071789e-18 -45.82976245)
(311.613313 -8.214131096e-18 -45.68252565)
(309.3853657 -2.80714308e-17 -45.48371794)
(306.7912376 1.162442622e-17 -45.20653932)
(303.7910005 2.02295202e-17 -44.82101686)
(300.3547382 1.134094261e-21 -44.28416844)
(296.4726596 0 -43.54131395)
(292.169003 2.510329716e-17 -42.52563906)
(287.5180582 4.357564938e-19 -41.16307906)
(282.6556563 -1.81255016e-17 -39.38464945)
(277.7753487 0 -37.14703683)
(273.1013866 1.071886149e-16 -34.45505371)
(268.8437386 -1.140719878e-16 -31.37375478)
(265.1535878 -5.835810041e-17 -28.02176327)
(262.0984931 -1.326811292e-16 -24.54811201)
(259.6642965 1.52380183e-17 -21.10359487)
(257.777098 -3.608977789e-17 -17.81773355)
(256.3325754 -3.065421232e-16 -14.78660866)
(255.2220127 -2.934572969e-16 -12.07071919)
(254.3498327 -1.895115592e-16 -9.699085654)
(253.6420801 3.687581209e-16 -7.675833449)
(253.0477584 3.521199224e-16 -5.986872688)
(252.5356352 -1.13284667e-15 -4.605691706)
(252.0889315 -4.397782572e-16 -3.498132728)
(251.6997531 -2.465802689e-17 -2.626306188)
(251.3644596 -4.148553034e-17 -1.951769427)
(251.0805059 1.113938118e-15 -1.437982552)
(250.8447596 9.056663782e-16 -1.052001059)
(250.6529684 4.895351375e-17 -0.7654291987)
(250.4999286 0 -0.554718031)
(250.3799491 -2.195616503e-15 -0.4009665296)
(250.2873425 1.83451899e-15 -0.2894140663)
(250.216816 -9.570290269e-17 -0.2087941728)
(250.1637064 -1.109137773e-20 -0.1506626894)
(250.1240799 1.990535858e-16 -0.1087806754)
(250.0947257 -3.638622359e-15 -0.07858868232)
(250.0730828 0 -0.05678104104)
(250.0571362 2.570230305e-15 -0.04097271425)
(250.045293 -1.247037017e-16 -0.02946207495)
(250.0362941 3.281491018e-15 -0.02102931847)
(250.0292094 -2.689031356e-15 -0.0147796892)
(250.0232822 0 -0.01036070283)
(250.0186927 3.567244729e-15 -0.005694584926)
(250.0115968 5.759115047e-15 -0.005026880971)
(208.7052138 -5.21386963e-16 -34.02171881)
(253.2718763 -3.028371134e-16 -40.18614052)
(278.7210803 2.533255903e-16 -44.24002386)
(299.8117979 -4.961896341e-19 -47.84820667)
(315.5585765 -2.578082671e-16 -50.76548734)
(319.7318604 4.865286268e-16 -51.38421119)
(319.4167922 -2.17864682e-16 -51.50003907)
(319.0078933 1.469646829e-18 -51.27530214)
(318.400628 -1.580647521e-16 -51.44207512)
(317.8628534 -3.116420165e-19 -51.23682294)
(317.1267556 1.092633751e-16 -51.32090385)
(316.3361122 -9.790673086e-17 -51.18446796)
(315.3696501 7.947329495e-17 -51.17532259)
(314.2572802 0 -51.06651209)
(312.9403802 -4.954405923e-17 -50.98308205)
(311.3992674 9.512859272e-17 -50.8453093)
(309.5901626 -2.989875805e-17 -50.677997)
(307.4748008 3.410853841e-17 -50.44783576)
(305.0101424 -2.862277648e-17 -50.14004887)
(302.1561397 -2.473874342e-17 -49.72110811)
(298.8800859 2.061225457e-17 -49.15123212)
(295.1658281 1.784416944e-17 -48.37718089)
(291.0264871 0 -47.33382287)
(286.5200577 0 -45.9468475)
(281.7634385 -4.376284204e-17 -44.14257612)
(276.9350277 -3.818814941e-17 -41.86639078)
(272.2559795 0 -39.10583936)
(267.9497756 -1.109225787e-16 -35.90772747)
(264.1944949 -9.542207204e-17 -32.37815474)
(261.0884722 2.027133624e-17 -28.66380728)
(258.6420265 1.20998481e-16 -24.92322652)
(256.7934138 -1.015050956e-16 -21.30026815)
(255.4374961 -1.85756041e-16 -17.90758117)
(254.4548587 3.122976966e-16 -14.82124984)
(253.7338423 2.814973685e-16 -12.08338905)
(253.1832701 2.375959489e-16 -9.708510852)
(252.7370098 -4.258040799e-16 -7.690559286)
(252.3527804 -3.165289091e-16 -6.009071891)
(252.0076468 5.685602438e-16 -4.634098331)
(251.6922136 -2.992625787e-17 -3.530078831)
(251.4049913 8.301351652e-16 -2.658984194)
(251.1478587 4.225513037e-17 -1.982893011)
(250.9230116 2.243970156e-20 -1.466025465)
(250.7313576 -9.8085467e-16 -1.076175455)
(250.5720333 -4.982072919e-17 -0.7855356368)
(250.4426168 -1.46088935e-20 -0.5709579686)
(250.3396456 4.496502617e-15 -0.4137693956)
(250.2591746 0 -0.2993056475)
(250.197241 -9.710379765e-17 -0.216307667)
(250.150177 1.617052627e-16 -0.1562873785)
(250.1147806 2.083573164e-15 -0.1129378402)
(250.0883721 0 -0.08162533841)
(250.0687715 0 -0.05897391929)
(250.0542356 -1.524723862e-16 -0.04253715654)
(250.0433635 4.14250062e-15 -0.03056210065)
(250.035032 1.030077424e-16 -0.02178658727)
(250.0284006 2.610431108e-15 -0.01528578119)
(250.0227531 -1.096767694e-15 -0.01069600626)
(250.0184167 -1.777170918e-15 -0.005871122614)
(250.0113588 -5.739982006e-15 -0.005147089622)
(208.3286021 0 -37.86868449)
(253.9628636 6.443836532e-19 -44.8579963)
(280.1488785 0 -49.52814524)
(301.5480338 -2.793444484e-16 -53.66417501)
(314.8192014 7.73643478e-19 -56.32538397)
(316.622156 5.053868341e-16 -56.55072622)
(315.9571113 -2.23301863e-16 -56.66223723)
(315.5283972 -1.922791733e-16 -56.38503263)
(314.8643222 -2.920796988e-18 -56.55353696)
(314.2592048 1.394778306e-16 -56.33015882)
(313.4432433 0 -56.39031741)
(312.5570533 1.001183198e-16 -56.23262139)
(311.4802461 -8.646261456e-17 -56.18601764)
(310.2374931 6.879081239e-17 -56.03895864)
(308.7702883 -5.038056775e-17 -55.89957486)
(307.0553232 0 -55.69460202)
(305.0482448 -1.02448353e-17 -55.43833721)
(302.7100261 -3.508571278e-17 -55.09538915)
(299.9998537 -3.201074597e-19 -54.64207306)
(296.8834504 6.278099092e-17 -54.03699678)
(293.3399361 -2.125688903e-17 -53.22995477)
(289.3733554 -1.809718064e-17 -52.15753734)
(285.0275199 1.571612347e-17 -50.74628533)
(280.4010294 -1.322145615e-17 -48.92007402)
(275.6547433 6.920380169e-17 -46.6158452)
(271.0009402 -2.012169894e-17 -43.80611032)
(266.6696141 -8.447207022e-17 -40.519236)
(262.8610089 8.546398392e-17 -36.84588918)
(259.7040754 7.267514123e-17 -32.92595828)
(257.2377704 -1.050873636e-17 -28.92157837)
(255.4188841 -1.052666319e-16 -24.98822896)
(254.1476983 -1.200064767e-16 -21.25397748)
(253.298639 1.890760972e-16 -17.81036467)
(252.7462041 1.712590651e-16 -14.71285458)
(252.3819721 0 -11.98659274)
(252.1227474 0 -9.633732616)
(251.9119063 -4.097125164e-16 -7.640137871)
(251.7163785 3.447889245e-16 -5.980682486)
(251.5213553 5.981178825e-16 -4.623225469)
(251.3243229 -5.027817352e-16 -3.53165632)
(251.1295588 -1.61213934e-15 -2.668368499)
(250.9438002 6.662284602e-16 -1.996338346)
(250.7733656 1.189799938e-15 -1.480814948)
(250.6226639 -3.020606185e-17 -1.090541186)
(250.4937769 0 -0.7984759134)
(250.3867198 4.233802264e-17 -0.5820274802)
(250.3000019 -2.299176226e-15 -0.4228862412)
(250.2312376 5.904692385e-17 -0.306599651)
(250.1776699 -4.919970145e-17 -0.2220113858)
(250.1365445 0 -0.1606658303)
(250.1053392 0 -0.1162475765)
(250.0818732 1.127116245e-16 -0.08409394279)
(250.0643292 2.981920665e-15 -0.06079246058)