/*--------------------------------*- C++ -*----------------------------------*\
  =========                 |
  \\      /  F ield         | OpenFOAM: The Open Source CFD Toolbox
   \\    /   O peration     | Website:  https://openfoam.org
    \\  /    A nd           | Version:  12
     \\/     M anipulation  |
\*---------------------------------------------------------------------------*/
FoamFile
{
    format      ascii;
    class       volScalarField;
    location    "400";
    object      Ma;
}
// * * * * * * * * * * * * * * * * * * * * * * * * * * * * * * * * * * * * * //

dimensions      [];

internalField   nonuniform List<scalar> 
16200
(
0.5265511002
0.6275773595
0.6844749364
0.7294490636
0.7715330001
0.8161357058
0.8653760321
0.9110868297
0.9284373563
0.9290389964
0.927913521
0.9268617268
0.9255670671
0.9241410476
0.9224652792
0.9205523281
0.9183304467
0.9157627015
0.9127824528
0.9093256115
0.9053145131
0.9006654672
0.8952878399
0.8890870936
0.8819708733
0.8738588684
0.8646968771
0.8544769508
0.8432625142
0.831213535
0.8186007919
0.8057945996
0.7932220651
0.7813021405
0.7703828756
0.7607007036
0.7523709943
0.745401077
0.7397156862
0.7351847857
0.7316488456
0.7289404349
0.7268990501
0.7253814469
0.7242658158
0.7234531356
0.7228652476
0.7224422736
0.7221391059
0.7219224241
0.7217678072
0.7216574902
0.7215786831
0.7215219617
0.7214808864
0.721449417
0.7214261826
0.7214047483
0.721390403
0.721366018
0.5376240678
0.6415751733
0.7001037376
0.7464756575
0.7903029683
0.8373351999
0.8883842973
0.928385603
0.9385285348
0.9383094388
0.9371177923
0.935982809
0.9345932155
0.9330536634
0.9312399238
0.9291596641
0.9267371113
0.9239281157
0.9206601409
0.9168608618
0.912445013
0.9073204855
0.9013894571
0.8945518447
0.8867131832
0.8777969296
0.8677622273
0.8566288382
0.8445064841
0.8316191724
0.8183091221
0.805005975
0.7921637451
0.7801865218
0.7693723353
0.7598906092
0.7517927508
0.7450381977
0.7395254339
0.7351161403
0.7316556009
0.7289864661
0.7269599481
0.7254424421
0.7243194782
0.7234966512
0.7228985544
0.7224665679
0.7221560853
0.7219337619
0.7217749757
0.7216617218
0.7215808973
0.7215229573
0.7214810189
0.7214493825
0.7214255962
0.721404512
0.7213898926
0.7213643626
0.548427714
0.6553228054
0.7155224267
0.7634078283
0.8091792813
0.8586471658
0.9107263505
0.9419580914
0.9468472088
0.9460479849
0.9447850259
0.9435530828
0.9420417673
0.9403575001
0.9383723945
0.93608761
0.933423898
0.9303292653
0.926725213
0.9225309143
0.9176533476
0.9119919699
0.9054417258
0.8978972161
0.8892629594
0.8794697206
0.8684979376
0.8564087817
0.8433763275
0.8297057828
0.8158195719
0.8022016842
0.7893153475
0.777526187
0.7670606719
0.7580067865
0.7503442562
0.7439824398
0.7387931347
0.7346312072
0.7313481451
0.7287993433
0.7268503354
0.7253803834
0.7242852904
0.7234780459
0.7228882654
0.722460489
0.7221520437
0.721930664
0.7217723259
0.7216593361
0.7215787205
0.7215210493
0.72147933
0.7214481397
0.7214244419
0.7214038975
0.721389629
0.7213643513
0.5584572708
0.6680549548
0.7298542859
0.779452994
0.8275254619
0.8792250481
0.9299605754
0.9514530694
0.9530697891
0.95208309
0.950740797
0.9493988158
0.9477562884
0.9459139468
0.9437417384
0.9412325001
0.9383035423
0.9348942413
0.9309198005
0.9262905804
0.9209054415
0.9146550325
0.9074268748
0.8991114366
0.8896164874
0.8788893364
0.8669467802
0.8539109157
0.840039414
0.8257296806
0.811479461
0.7978051849
0.7851479456
0.7738056317
0.7639144431
0.755474309
0.7483955228
0.7425435447
0.7377700006
0.7339282284
0.7308796608
0.7284953048
0.726657264
0.7252597379
0.72421059
0.7234318076
0.7228593552
0.7224420091
0.7221398281
0.7219222398
0.7217662526
0.7216547785
0.7215751971
0.7215183044
0.7214771601
0.7214465755
0.7214231413
0.7214031097
0.7213891687
0.7213637984
0.5678000343
0.680040008
0.7434117605
0.7948430299
0.8455381143
0.8994452864
0.9442802758
0.9576249271
0.957598094
0.9565093586
0.9550655041
0.9535947185
0.9518008374
0.9497760621
0.9473898043
0.944625101
0.9413957794
0.9376316907
0.9332407072
0.92812304
0.9221679276
0.9152564703
0.907269945
0.8980995044
0.8876658465
0.8759478951
0.8630185083
0.8490818117
0.8344947999
0.8197485634
0.8053982362
0.7919596799
0.7798160825
0.7691710776
0.7600587148
0.7523915121
0.7460181536
0.7407695968
0.7364853234
0.7330225776
0.7302560734
0.7280744091
0.7263776209
0.7250760245
0.7240906558
0.723353594
0.7228081307
0.7224081451
0.7221171265
0.7219067519
0.7217554802
0.7216471366
0.721569685
0.7215142903
0.7214742139
0.7214445116
0.7214215923
0.7214021295
0.7213886612
0.7213633551
0.576386674
0.6912646994
0.7562125652
0.8095591166
0.8629604099
0.9186881983
0.9544857851
0.9614923763
0.9605147335
0.9593443351
0.9577818762
0.9561652572
0.9542021713
0.9519723732
0.9493455845
0.9462930692
0.9427239996
0.9385570027
0.933690875
0.9280146249
0.9214080714
0.9137456295
0.9049085456
0.8947987081
0.883363529
0.8706311431
0.8567511144
0.8420285099
0.8269270744
0.8120188058
0.797883469
0.7849947101
0.7736425679
0.763917299
0.7557484447
0.7489698768
0.7433817668
0.7387928175
0.7350395469
0.7319887484
0.7295314211
0.7275750774
0.7260382653
0.7248477569
0.7239381165
0.7232519494
0.7227403458
0.7223627559
0.72208652
0.7218859213
0.7217411503
0.7216371644
0.7215626746
0.7215093262
0.7214706864
0.7214420767
0.7214198477
0.7214009904
0.7213880536
0.7213627765
0.5841466732
0.7017260731
0.7683255064
0.8238293346
0.879922698
0.9352845167
0.9608960047
0.9638328008
0.9618808018
0.9606120174
0.9589140584
0.9571283522
0.9549695142
0.9525013002
0.9495939825
0.94620542
0.9422392539
0.9376024861
0.9321850641
0.9258666066
0.9185208007
0.9100207215
0.9002551854
0.8891474809
0.8766864303
0.8629685042
0.8482409165
0.8329238778
0.8175830675
0.8028424264
0.7892620145
0.777230282
0.766916568
0.7582900187
0.7511832279
0.7453664028
0.7406069614
0.736704064
0.7334998502
0.7308754508
0.7287402925
0.7270213488
0.7256555529
0.7245858382
0.723760106
0.7231314618
0.7226589055
0.7223076543
0.7220491246
0.7218604242
0.7217236658
0.7216250969
0.7215542981
0.7215034863
0.7214666127
0.721439292
0.7214179112
0.721399705
0.7213873697
0.7213621463
0.5908486875
0.7112190976
0.7796699125
0.8377263516
0.8966094244
0.947293378
0.964087758
0.9632750765
0.9616240631
0.960230057
0.9583722417
0.9563864441
0.9539972766
0.9512497337
0.94801509
0.9442373339
0.9398147057
0.9346436526
0.9286067821
0.9215769512
0.9134249132
0.9040267754
0.8932857245
0.8811583421
0.8676939395
0.8530812367
0.8376848363
0.8220433579
0.8068021016
0.7925923241
0.7799045741
0.769005366
0.7599283661
0.7525262349
0.7465505049
0.7417264926
0.7378052006
0.7345880224
0.7319299438
0.7297300309
0.7279173473
0.7264381758
0.7252471397
0.724302553
0.7235650396
0.7229978141
0.7225675996
0.7222453382
0.7220065684
0.7218313097
0.7217036943
0.7216113524
0.7215448127
0.7214969259
0.7214620811
0.7214362103
0.721415804
0.7213982883
0.7213866048
0.7213614357
0.5961906888
0.7194453263
0.7901212475
0.851019122
0.9122360343
0.954709351
0.9623125132
0.9614030167
0.9596483844
0.9580962226
0.9560590605
0.9538480979
0.9512010704
0.9481423779
0.9445445355
0.9403375073
0.9354137749
0.9296595597
0.9229503031
0.9151535169
0.9061404157
0.8957971402
0.8840529496
0.870915686
0.8565198343
0.8411716628
0.8253639609
0.8097377838
0.7949762345
0.7816636044
0.7701747188
0.7606304241
0.7529284825
0.7468205111
0.7419981789
0.7381616614
0.7350605318
0.7325081459
0.7303776875
0.7285883818
0.7270892148
0.7258450311
0.7248270292
0.7240077982
0.7233597935
0.7228557066
0.7224695921
0.7221779064
0.7219602238
0.7217994615
0.7216817949
0.721596278
0.7215344281
0.7214897689
0.7214571604
0.7214328708
0.7214135418
0.7213967498
0.7213857647
0.721360656
0.6002316188
0.7266391814
0.7999476847
0.8637623816
0.9253689402
0.958341541
0.9593219689
0.9579191803
0.9560495403
0.9543167595
0.9520792637
0.9496172321
0.9466838038
0.9432817046
0.9392842678
0.9346071188
0.9291356711
0.9227453356
0.9153040246
0.9066761882
0.8967403883
0.8854064404
0.8726501108
0.8585551262
0.8433652983
0.827520468
0.8116349595
0.7964145599
0.7825238252
0.7704461858
0.7604068367
0.7523737619
0.7461221804
0.7413255135
0.7376386661
0.7347550423
0.7324351852
0.7305116206
0.7288791391
0.727478062
0.7262768034
0.7252575747
0.7244067606
0.7237099273
0.7231503072
0.7227092895
0.722367735
0.7221072875
0.7219113742
0.7217657194
0.7216585078
0.7215802134
0.7215233529
0.7214821393
0.7214519209
0.7214293135
0.7214111404
0.7213950951
0.721384853
0.7213598054
0.6032498868
0.7332220404
0.8095564801
0.8765302699
0.9345442054
0.9547873576
0.9545585985
0.9530398257
0.9510319673
0.9490889033
0.9466217593
0.9438733319
0.9406126609
0.936819697
0.9323676734
0.9271583599
0.9210700179
0.913969276
0.9057205295
0.8961918186
0.8852791219
0.8729320111
0.8591972573
0.8442628396
0.8285000202
0.8124795896
0.7969092886
0.7825056561
0.7698539714
0.7592932624
0.7508829726
0.7444472999
0.7396622833
0.7361493133
0.7335485202
0.7315619132
0.7299702319
0.7286298209
0.7274587208
0.7264182091
0.7254950407
0.7246873051
0.723995038
0.7234154018
0.7229412823
0.7225619179
0.7222643777
0.7220350973
0.721861111
0.7217308071
0.7216343029
0.721563457
0.7215117711
0.7214741472
0.721446425
0.7214255733
0.7214086136
0.7213933299
0.7213838738
0.7213588861
0.6053590057
0.7393796487
0.8188979008
0.8888182458
0.9397908681
0.9506590413
0.9484833779
0.9468504769
0.9446766672
0.9424952786
0.9397656601
0.9366895188
0.9330513388
0.9288078522
0.9238315173
0.9180119251
0.9112229057
0.9033284777
0.8941984695
0.8837157484
0.871807157
0.8584779579
0.8438675299
0.8282935662
0.8122643183
0.7964576178
0.7816256521
0.7684347067
0.75733692
0.7485005797
0.7418221457
0.7370040013
0.7336516545
0.7313602
0.7297737679
0.7286145839
0.727689628
0.7268814403
0.7261315202
0.7254211561
0.7247539623
0.7241422628
0.7235981677
0.7231290535
0.722736335
0.7224162373
0.7221614149
0.7219626653
0.7218103485
0.7216953407
0.7216095866
0.7215462703
0.7214998466
0.7214658915
0.7214407299
0.7214216826
0.721405975
0.7213914655
0.7213828165
0.7213578981
0.6065362529
0.7452209972
0.8280164071
0.8991452242
0.9400667691
0.9434692823
0.9410791192
0.9393318054
0.9369504868
0.934492645
0.9314588418
0.9280078043
0.9239396127
0.9191890207
0.9136271942
0.9071330228
0.8995778957
0.8908280567
0.8807657038
0.8693037376
0.8564220218
0.842205595
0.8269041113
0.8109742113
0.7950557655
0.7798926025
0.7662169474
0.7545861655
0.7452816722
0.7382947314
0.7333777273
0.7301410293
0.7281489906
0.726992972
0.7263355789
0.7259270348
0.7256037894
0.7252751313
0.7249051698
0.7244937228
0.7240595654
0.7236275713
0.7232203849
0.7228542708
0.7225380941
0.7222742312
0.7220603051
0.7218910387
0.7217598219
0.7216598249
0.7215846976
0.7215288746
0.7214877197
0.7214574583
0.721434886
0.7214176699
0.7214032374
0.7213895153
0.7213816776
0.7213568411
0.6067730258
0.7507867134
0.8370570889
0.9061394979
0.9334766066
0.9349844536
0.9322961545
0.9303755693
0.9277581854
0.9249935782
0.9216232841
0.9177626733
0.9132260128
0.9079272516
0.9017354045
0.894520951
0.8861552102
0.8765125068
0.8654970976
0.8530685299
0.8392827295
0.8243377935
0.8086122506
0.7926873355
0.777304192
0.7632203812
0.7510794317
0.7412822757
0.7339239267
0.7288312222
0.7256422344
0.7239076438
0.7231772261
0.7230564698
0.7232364361
0.7234997167
0.7237132079
0.7238121685
0.7237817699
0.7236385751
0.7234147474
0.7231460692
0.7228642674
0.7225932617
0.7223483644
0.7221373185
0.7219621274
0.721821015
0.7217101054
0.7216246629
0.7215599118
0.7215114537
0.7214755093
0.7214489214
0.7214289373
0.7214135603
0.7214004119
0.7213874915
0.7213804979
0.7213557148
0.606308316
0.7561476373
0.8454926805
0.9095120745
0.9260198264
0.9250252853
0.9221967551
0.9200765768
0.9171992869
0.9140991109
0.910356519
0.9060447403
0.9009899447
0.8950880024
0.8882074535
0.8802162009
0.8709926029
0.860430442
0.8484727752
0.8351436324
0.8205947616
0.8051548575
0.7893460231
0.7738480266
0.7594442246
0.7468455785
0.7365488085
0.7287698426
0.7234238105
0.7201999732
0.7186565917
0.7183151108
0.7187323885
0.7195407693
0.7204656778
0.7213236978
0.7220115062
0.7224886763
0.7227594968
0.7228553711
0.7228201092
0.722698861
0.722531105
0.7223472957
0.72216828
0.7220064487
0.7218676394
0.7217531758
0.721661631
0.7215901664
0.7215354478
0.7214941568
0.7214633139
0.7214403435
0.721422922
0.7214093758
0.7213975088
0.7213854093
0.7213792555
0.7213545201
0.605695988
0.7618027166
0.8522579514
0.9079485016
0.9155586744
0.9139417878
0.9109793026
0.9085917359
0.9054063072
0.9019149001
0.8977368091
0.8929065101
0.8872619135
0.8806859636
0.8730508172
0.8642294591
0.8541162876
0.8426374893
0.8297918312
0.815690132
0.8006033187
0.7849906616
0.7695001841
0.7548831529
0.7418883789
0.7311173479
0.7228850848
0.7172167798
0.7138715134
0.7124356255
0.7124214411
0.7133468819
0.7147918441
0.7164234804
0.7180041647
0.7193840784
0.7204879282
0.7212974447
0.721833923
0.7221417157
0.7222746371
0.7222857968
0.7222212301
0.7221169267
0.7219984521
0.7218821975
0.7217773371
0.7216879236
0.721614711
0.7215565688
0.7215114747
0.7214771022
0.7214512138
0.7214317771
0.7214168731
0.7214051361
0.7213945392
0.7213832758
0.721377963
0.721353259
0.6054718319
0.7673269397
0.8562551029
0.8992602239
0.9038155296
0.9016425142
0.8984997655
0.8957915739
0.8922562273
0.8883283084
0.8836660533
0.8782680929
0.8719834893
0.8646863319
0.8562554774
0.8465771699
0.8355750546
0.8232265549
0.8096070207
0.7949343048
0.7796119489
0.7642249522
0.7494986527
0.7362091928
0.7250000441
0.7163110465
0.7102668967
0.7067169734
0.7052980809
0.7055299212
0.7069084594
0.7089677617
0.7113212292
0.7136748011
0.715827913
0.7176626034
0.7191292312
0.7202293114
0.7209990324
0.721493904
0.7217762428
0.72190586
0.7219342912
0.7219021819
0.7218390964
0.7217648507
0.7216915093
0.7216255162
0.7215695591
0.7215240385
0.7214881192
0.7214603821
0.7214392736
0.7214232657
0.7214108186
0.7214008587
0.7213915151
0.7213810985
0.7213766177
0.7213519328
0.6062881722
0.7720091698
0.8569692071
0.8902891445
0.8904424325
0.8880019224
0.884665399
0.8816060007
0.8776946619
0.8733012158
0.868120727
0.8621190317
0.855155864
0.8471022416
0.8378499894
0.8273111819
0.815456448
0.8023368557
0.7881293182
0.7731716056
0.7579911013
0.7432721832
0.7297682808
0.7182027436
0.7090701966
0.702619146
0.6987951295
0.6973011309
0.6976886687
0.6994441065
0.7020704589
0.7051314885
0.7082798851
0.7112613375
0.7139107788
0.7161395704
0.7179210659
0.7192741755
0.7202479724
0.7209074815
0.7213221793
0.7215574709
0.7216694715
0.7217027165
0.7216901401
0.7216544773
0.7216102859
0.7215660983
0.7215263105
0.7214926901
0.7214654734
0.7214440667
0.7214275447
0.7214148451
0.7214047827
0.7213965596
0.7213884457
0.7213788803
0.721375223
0.7213505401
0.6090004758
0.775113744
0.8544618492
0.8774047798
0.8757754353
0.8731541697
0.8695673191
0.8661120795
0.8617797793
0.8568706143
0.8511172259
0.8444585067
0.836768503
0.8279260127
0.8178477789
0.8064879081
0.7938802897
0.7801657825
0.7656367924
0.7507569536
0.7361515224
0.722555749
0.7106977345
0.7011711667
0.6943056018
0.6901530955
0.6885035698
0.6889506648
0.6909959399
0.6941199741
0.6978496446
0.7017865595
0.7056248484
0.7091488217
0.7122263302
0.7147951499
0.716848933
0.7184217077
0.7195735902
0.7203776513
0.7209093479
0.7212387175
0.7214256588
0.7215179363
0.7215513088
0.7215509891
0.7215336783
0.7215097277
0.7214850386
0.7214625963
0.7214436007
0.7214282077
0.721416067
0.7214065447
0.7213987861
0.721392253
0.7213853365
0.7213766171
0.721373789
0.7213490787
0.6138630071
0.7761689859
0.8471673341
0.8630285592
0.8598450521
0.857009832
0.853117638
0.8492122794
0.8444067141
0.8389297704
0.8325546073
0.8252018212
0.8167651965
0.8071431568
0.796289356
0.7842146337
0.7710314028
0.7569825332
0.7424762666
0.7280891571
0.7145098699
0.7024669723
0.6926025312
0.6853377968
0.6808303664
0.6789534051
0.67937306
0.6816119217
0.6851520072
0.689488817
0.6941838507
0.6988803928
0.7033135822
0.7073039144
0.7107490669
0.7136102406
0.7158988072
0.717661822
0.7189687962
0.7198995569
0.7205345187
0.7209475239
0.7212015729
0.7213470918
0.7214221947
0.7214541888
0.721461613
0.7214563985
0.7214457702
0.7214337966
0.7214225423
0.7214128423
0.7214048714
0.7213983884
0.721392847
0.7213879516
0.7213821917
0.7213743376
0.7213723288
0.7213475597
0.6199179546
0.7750589413
0.834107145
0.8465027711
0.8424468378
0.8393629871
0.8351249786
0.8307387092
0.8254356359
0.8193733773
0.8123671329
0.8043284487
0.7951755889
0.7848376033
0.7733168854
0.7606955185
0.7471789913
0.7331204322
0.7190364152
0.7055788376
0.6934575582
0.6833355724
0.6757179555
0.6708424814
0.6686950194
0.6690035281
0.6713461771
0.6752089348
0.6800780924
0.6854781149
0.6910108987
0.6963620769
0.7013056967
0.7056952993
0.7094551443
0.7125669763
0.7150575127
0.7169849661
0.7184267964
0.7194684699
0.7201944806
0.7206817695
0.7209958579
0.7211893482
0.7213023081
0.7213638079
0.7213939575
0.7214060583
0.7214084978
0.7214063057
0.721402322
0.721397996
0.7213939813
0.7213903958
0.721386981
0.7213836665
0.7213790179
0.7213719701
0.7213708239
0.7213459962
0.624674421
0.7717126316
0.8209312292
0.8282103571
0.8235624734
0.8202024563
0.8156052899
0.8107279237
0.8049224815
0.7982790507
0.7906540698
0.781960962
0.7721487325
0.7611905237
0.7491521799
0.7362021746
0.7226488761
0.7089525063
0.6957147077
0.683616263
0.6733347735
0.6654175499
0.6602022869
0.6577486893
0.657889233
0.6602450535
0.6643409264
0.6696540216
0.6756918718
0.6820162515
0.6882714724
0.6941840707
0.6995639497
0.7042942881
0.7083227623
0.7116489965
0.714312929
0.7163822887
0.7179412328
0.7190799083
0.7198861411
0.720439371
0.7208071474
0.7210438364
0.7211911163
0.7212795346
0.7213305412
0.7213586236
0.7213731888
0.7213801195
0.7213829502
0.7213836853
0.7213834142
0.7213825831
0.7213812021
0.7213794077
0.7213758213
0.7213696404
0.721369211
0.7213443847
0.6283482434
0.7656568598
0.8043530237
0.8084200324
0.8034170943
0.7997182786
0.7947432449
0.7893568436
0.7830337342
0.7758062115
0.7675717619
0.7582599346
0.7478611392
0.7364083623
0.7240457153
0.7110380039
0.6977952724
0.6848655191
0.6728957081
0.662547978
0.6544130493
0.6488881818
0.6461354154
0.6460547537
0.6483567006
0.6525921209
0.6582621525
0.6648557551
0.6719125402
0.6790354975
0.6859107716
0.6923030792
0.6980546995
0.7030750593
0.7073323031
0.7108415423
0.7136540711
0.7158457147
0.7175062547
0.7187297039
0.7196065865
0.7202183346
0.7206341084
0.7209096892
0.7210880716
0.7212010357
0.7212711711
0.7213139902
0.7213397939
0.721355221
0.7213644276
0.7213699198
0.7213731833
0.7213749636
0.7213755228
0.7213751849
0.7213726098
0.7213672917
0.721367546
0.7213427391
0.6301197552
0.7569551963
0.7858380429
0.7874164344
0.7821336153
0.7780175431
0.7726331242
0.7667092982
0.7598447921
0.7520311274
0.743208699
0.7333396276
0.7224682643
0.7107008393
0.6982687421
0.6855325038
0.6729884511
0.6612391223
0.6509303942
0.6426579956
0.6368842521
0.6338419063
0.6335270553
0.635708814
0.6400100585
0.6459436191
0.6530101994
0.6607244615
0.6686639795
0.6764736716
0.6838792926
0.6906803667
0.6967479962
0.7020146607
0.7064663109
0.7101314419
0.7130710889
0.7153679578
0.7171165428
0.7184140324
0.7193531148
0.720016788
0.7204754707
0.7207860649
0.7209926309
0.7211279717
0.721215643
0.7212720421
0.7213082527
0.7213315837
0.7213467477
0.7213567038
0.7213632979
0.7213675485
0.7213699545
0.7213710065
0.7213693922
0.7213649598
0.7213657898
0.7213410693
0.6294028214
0.7415501916
0.7655478835
0.7651275535
0.7596206115
0.7550104991
0.7491918053
0.7427220083
0.7353188463
0.7269541016
0.717614882
0.7073097628
0.6961473797
0.6843148391
0.6721311862
0.6600408848
0.6485995836
0.6384236233
0.6301118551
0.6241535105
0.6208588309
0.6203011365
0.6223326485
0.6266244018
0.6327441904
0.6401928277
0.6484871311
0.6571758089
0.6658765957
0.6742749396
0.6821330759
0.6892817476
0.695617477
0.7010928886
0.7057093901
0.709507037
0.7125552228
0.7149425007
0.716767306
0.7181294214
0.7191232501
0.7198329972
0.7203300438
0.7206721631
0.7209042692
0.7210600074
0.7211637503
0.7212326578
0.7212784986
0.7213091756
0.7213298992
0.7213440379
0.7213537649
0.7213603473
0.7213645077
0.7213668808
0.721366177
0.7213626451
0.7213639501
0.7213393894
0.6258875369
0.7247844648
0.7432972194
0.7413604369
0.7356791563
0.7305537315
0.7243103285
0.7173342477
0.7094488841
0.7006267539
0.6909060837
0.680352676
0.6691462534
0.6575563045
0.6459813941
0.6349284263
0.6249777437
0.6167172936
0.610659461
0.6071602361
0.6063733972
0.6082305581
0.612469241
0.6186945309
0.6264468336
0.6352343426
0.6446007462
0.6541328249
0.6634881255
0.6723899752
0.68063357
0.6880773495
0.6946401244
0.7002920822
0.7050480464
0.70895807
0.7120987291
0.7145635497
0.7164542579
0.717872742
0.718914743
0.7196653722
0.7201967242
0.7205672336
0.7208224873
0.7209968192
0.7211152897
0.7211957144
0.7212504617
0.7212879607
0.7213138675
0.7213319202
0.7213445889
0.7213533683
0.7213591922
0.7213628153
0.7213629741
0.7213603575
0.7213620207
0.7213377059
0.6193694936
0.7060023886
0.7191923938
0.7160983521
0.7102671451
0.7046610438
0.6980333132
0.6906270994
0.6823583731
0.6732177228
0.6632995314
0.6527347871
0.6417766653
0.6307712775
0.6201796583
0.6105416638
0.6024243664
0.5963491167
0.5927131423
0.5917279948
0.5934034566
0.5975525541
0.6038297875
0.6118026466
0.6210059192
0.6309683674
0.641266679
0.6515266417
0.6614436538
0.6707756509
0.6793472245
0.6870412186
0.6937959307
0.6995968589
0.7044704895
0.708475543
0.7116947832
0.7142259718
0.7161735789
0.7176411879
0.7187255613
0.7195124652
0.7200744985
0.7204705803
0.7207468169
0.7209380995
0.7210700645
0.7211610911
0.7212240715
0.7212679014
0.7212986356
0.7213203465
0.7213357732
0.721346619
0.721354017
0.7213588172
0.721359794
0.7213581027
0.7213600017
0.7213360327
0.6098884012
0.6858202041
0.6934851427
0.6894926675
0.6835090571
0.6774775159
0.6705226488
0.6627821458
0.6542561568
0.6449684782
0.6350732288
0.6247696151
0.6143800479
0.6043132496
0.5950678295
0.5871827344
0.5811756893
0.5774717997
0.5763375821
0.5778440513
0.5818789703
0.5881622962
0.5962953354
0.6058311979
0.6163147621
0.6273034238
0.638409482
0.6492966606
0.6596953448
0.6693946127
0.6782450528
0.686150935
0.693067586
0.6989938739
0.7039664542
0.7080515889
0.7113373905
0.7139252355
0.715921878
0.7174322524
0.7185538782
0.7193729651
0.7199624414
0.7203815617
0.7206768221
0.7208835585
0.7210278874
0.7211286706
0.7211992584
0.7212489594
0.7212841856
0.7213093114
0.7213273199
0.7213401058
0.7213489907
0.7213548933
0.7213566483
0.7213558866
0.7213578922
0.7213343867
0.5976932611
0.6628101245
0.6663730728
0.6616642832
0.655542289
0.6491571633
0.6419571772
0.6340068603
0.6253828062
0.6161538586
0.6065350933
0.5967911057
0.5873022877
0.578519045
0.5709482531
0.5650946083
0.561396989
0.5601658417
0.5615345603
0.5654490574
0.5717004615
0.5799412601
0.5897449122
0.6006679122
0.6122754655
0.624157806
0.6359629453
0.6473902944
0.6582019591
0.6682147586
0.6773021589
0.6853872191
0.6924401673
0.6984715835
0.7035270255
0.7076793458
0.7110212978
0.7136573498
0.7156961533
0.7172437042
0.7183980572
0.7192456897
0.7198597126
0.7202995908
0.7206121006
0.7208329264
0.7209885818
0.7210983412
0.7211759546
0.7212310965
0.7212704987
0.7212988086
0.7213192301
0.7213338348
0.7213441212
0.7213510502
0.7213535494
0.7213537146
0.7213556942
0.7213327878
0.5830912919
0.6375671802
0.6380040037
0.6327270744
0.6265088035
0.6198676356
0.6125338428
0.6045302014
0.5960019313
0.5870691116
0.5780051615
0.5691314708
0.5608691409
0.553685004
0.5480645854
0.5444498207
0.5431806454
0.544446065
0.5482549961
0.5544503322
0.5627508626
0.5727660332
0.5840611897
0.5962087209
0.6087999614
0.6214594588
0.6338694365
0.6457621247
0.6569280271
0.667208515
0.6764971441
0.6847334642
0.6919007814
0.6980199772
0.7031444414
0.7073528135
0.7107418911
0.7134187934
0.715493743
0.7170735543
0.7182566318
0.719129573
0.7197655492
0.7202241311
0.7205522815
0.7207859519
0.7209519817
0.7210699964
0.7211540946
0.7212142752
0.7212575558
0.7212888311
0.721311504
0.7213278114
0.7213394156
0.7213472945
0.7213505111
0.721351591
0.7213534128
0.7213312568
0.5661927735
0.6104188821
0.6085270901
0.6028355372
0.596572615
0.5898020522
0.5824752517
0.5746034087
0.5663939232
0.5580179082
0.5497987704
0.5421009775
0.5353655929
0.5300496816
0.5265911025
0.5253481056
0.5265517121
0.5302728543
0.5364122566
0.5447337417
0.5549051514
0.566514892
0.579134203
0.5923592708
0.605810203
0.6191454592
0.6320791049
0.6443730758
0.6558431028
0.6663522138
0.6758116109
0.6841753538
0.6914382739
0.697630361
0.7028119324
0.7070667371
0.7104951125
0.7132064554
0.7153122849
0.7169200292
0.7181282872
0.719023654
0.7196792595
0.7201546922
0.7204970235
0.7207424021
0.7209179315
0.7210435353
0.7211336158
0.7211984587
0.7212453379
0.7212793711
0.7213041414
0.7213220406
0.7213348805
0.7213436329
0.7213475475
0.7213495172
0.7213510596
0.7213298169
0.5471471341
0.5815988998
0.5780948754
0.5721448861
0.5659225807
0.5591808471
0.5520354107
0.5445061739
0.5368567472
0.52930648
0.5222165082
0.5159768755
0.5110270736
0.5077903299
0.5066360627
0.5078264355
0.5114827922
0.5175689235
0.5258974622
0.5361756131
0.5480395758
0.5610736541
0.5748644147
0.5890361389
0.6032383114
0.61716165
0.6305493035
0.6431898151
0.6549212249
0.6656256445
0.6752298063
0.6837005848
0.6910430204
0.6972952011
0.7025236074
0.7068165238
0.7102773997
0.7130175935
0.7151496873
0.7167815512
0.7180118483
0.7189270692
0.7196002182
0.7200908284
0.7204460141
0.7207020619
0.7208862867
0.7210188634
0.7211144585
0.7211836115
0.721233826
0.7212704207
0.7212971415
0.721316527
0.7213305213
0.7213400724
0.7213446728
0.7213474922
0.72134866
0.7213284916
0.5260792263
0.5513662126
0.5466839555
0.5408983641
0.5348238151
0.5282813687
0.5215081872
0.5145429533
0.5076970487
0.5012315746
0.4955321086
0.4909945915
0.4880359761
0.487025707
0.4882506553
0.491872659
0.4979099215
0.5062346726
0.5165922345
0.5286528959
0.5420380251
0.5563390569
0.5711640107
0.5861669775
0.601026075
0.6154618957
0.6292438101
0.6421840437
0.6541403162
0.6650115671
0.674738238
0.6832985717
0.6907067
0.6970079525
0.7022743243
0.7065981464
0.7100856156
0.7128497817
0.7150040916
0.7166567117
0.7179062603
0.7188390395
0.7195278577
0.7200321325
0.7203989659
0.720664732
0.7208569117
0.7209958909
0.7210965655
0.7211696992
0.7212230012
0.7212619715
0.721290503
0.7213112744
0.7213263428
0.7213366203
0.7213419003
0.7213455157
0.7213462546
0.7213272425
0.503164958
0.5201153137
0.5150446712
0.5093500402
0.5035564931
0.4973869172
0.4911790274
0.4849967778
0.4791890493
0.4740462615
0.4699644324
0.4673264159
0.4665077765
0.4678095312
0.4714287812
0.4774296169
0.4857385808
0.4961538806
0.5083730285
0.5220460754
0.536792395
0.5522177616
0.5679552053
0.5836886682
0.5991231443
0.614006479
0.6281314981
0.6413314281
0.653481348
0.6644950686
0.6743251846
0.6829600749
0.6904220157
0.6967628493
0.7020595331
0.7064080266
0.7099169614
0.712700847
0.7148738261
0.716544238
0.7178105659
0.7187588535
0.7194616571
0.7199782283
0.7203556112
0.7206302254
0.7208296783
0.7209745321
0.7210798811
0.7211566874
0.721212844
0.7212540139
0.7212842237
0.7213062859
0.7213223486
0.7213332846
0.7213392423
0.7213435896
0.7213438587
0.7213260538
0.4784220605
0.4882435788
0.4832196867
0.4777695786
0.4723926667
0.4667726968
0.4613212408
0.4561307219
0.4515758833
0.4479634974
0.445684383
0.445091858
0.4465051259
0.4501477221
0.4561259337
0.4644136847
0.474860075
0.4872067853
0.5011207146
0.5162450638
0.5322059608
0.5486279768
0.5651708513
0.5815472982
0.5974867257
0.6127617214
0.627185974
0.6406112931
0.6529280958
0.6640633763
0.6739805546
0.6826770967
0.690182616
0.6965548456
0.7018752317
0.7062430014
0.7097689511
0.7125688499
0.7147573912
0.7164429829
0.7177238973
0.7186858633
0.7194011383
0.7199287681
0.7203157009
0.7205983661
0.7208044648
0.7209547045
0.7210643512
0.7211445421
0.7212033348
0.721246538
0.7212783006
0.7213015634
0.721318541
0.7213300734
0.7213367099
0.721341714
0.7213414822
0.7213249525
0.4524379806
0.4561458164
0.451497245
0.4464172564
0.4416013078
0.4367054849
0.4321926523
0.4281836176
0.4250670651
0.4231547657
0.4228167701
0.4243634635
0.4280472519
0.4340102785
0.4422718697
0.4527265499
0.4651611587
0.4792770161
0.4947248096
0.511150838
0.528193568
0.5454987931
0.5627533785
0.5796967656
0.5960802648
0.6116988206
0.6263845873
0.6400058097
0.6524664884
0.6637053444
0.6736954895
0.6824425757
0.6899828645
0.6963794434
0.7017178378
0.7061002293
0.7096393437
0.712452036
0.7146534255
0.7163519005
0.7176454598
0.7186194723
0.7193458589
0.719883428
0.7202790011
0.7205689881
0.7207811549
0.7209363284
0.7210499227
0.7211332294
0.7211944529
0.7212395328
0.72127273
0.7212971077
0.7213149215
0.7213269958
0.7213343124
0.7213398843
0.7213391467
0.7213239578
0.425407956
0.4242165086
0.4201410408
0.4155627786
0.4114424077
0.4074285476
0.4040152729
0.4013490604
0.3998210018
0.3997363964
0.4014311987
0.4051625537
0.411109695
0.4193336564
0.4297740766
0.4422584581
0.4565262592
0.4722525147
0.4890830917
0.5066741026
0.5246799129
0.5427684668
0.5606531187
0.5780972877
0.5948723054
0.6107929728
0.625707777
0.6394995172
0.652084262
0.6634112066
0.6734621832
0.6822502565
0.689817743
0.6962326199
0.7015841348
0.7059771493
0.7095261125
0.7123488133
0.7145606894
0.7162700348
0.7175745242
0.7185591301
0.7192954089
0.7198419061
0.7202452925
0.720541934
0.7207596377
0.7209193273
0.7210365439
0.7211227153
0.7211861776
0.7212329865
0.7212675075
0.7212929184
0.7213114909
0.7213240616
0.7213320563
0.7213380932
0.7213368857
0.72132308
0.3976480015
0.3928115498
0.3894186392
0.3854649332
0.3821568097
0.3791587466
0.3769774223
0.3757812071
0.3759532366
0.3777815527
0.3815572212
0.3874761437
0.3956416635
0.4060371347
0.4185319603
0.4328995578
0.4488457212
0.4660308706
0.4841044304
0.5027366327
0.5215999084
0.540384058
0.5588274543
0.5767147762
0.5938358707
0.610022812
0.6251385937
0.6390789285
0.6517706418
0.6631723202
0.6732736803
0.6820945308
0.6896827282
0.6961107318
0.7014711977
0.705871424
0.7094274013
0.7122577186
0.7144780392
0.7161965004
0.717510412
0.7185043219
0.7192494023
0.7198039168
0.7202143659
0.720517053
0.7207398058
0.7209036257
0.721024163
0.7211129657
0.721178487
0.7212268864
0.7212626275
0.7212889934
0.7213082491
0.721321281