/*--------------------------------*- C++ -*----------------------------------*\
  =========                 |
  \\      /  F ield         | OpenFOAM: The Open Source CFD Toolbox
   \\    /   O peration     | Website:  https://openfoam.org
    \\  /    A nd           | Version:  12
     \\/     M anipulation  |
\*---------------------------------------------------------------------------*/
FoamFile
{
    format      ascii;
    class       volScalarField;
    location    "400";
    object      nut;
}
// * * * * * * * * * * * * * * * * * * * * * * * * * * * * * * * * * * * * * //

dimensions      [0 2 -1 0 0 0 0];

internalField   nonuniform List<scalar> 
16200
(
0.000506314017
0.001715890084
0.002856016935
0.003747964816
0.004038924952
0.003568307975
0.002619809267
0.001430398546
0.0007154780051
0.0002335432961
7.197274768e-06
2.759608556e-06
2.49466939e-06
2.417099868e-06
1.90227814e-06
1.633160457e-06
1.419162937e-06
1.269826385e-06
1.174812604e-06
1.115006954e-06
1.081912361e-06
1.071758192e-06
1.080746612e-06
1.106492931e-06
1.148249546e-06
1.207108814e-06
1.286314133e-06
1.391917277e-06
1.534097823e-06
1.729743679e-06
2.007230866e-06
2.415670233e-06
3.043225787e-06
4.055387929e-06
5.780526021e-06
8.903780304e-06
1.490813342e-05
2.706984032e-05
5.272953497e-05
0.0001085121932
0.0002325267538
0.0005129208587
0.001002331449
0.001002243567
0.001001594699
0.001000396443
0.0009993099918
0.0009988579964
0.0009986814594
0.0009986214798
0.0009986095784
0.0009986175714
0.0009986350713
0.0009986598091
0.0009986932553
0.0009987400306
0.0009988061814
0.0009989041732
0.0009990482495
0.0009992768907
0.0004990967996
0.001678934996
0.002764257369
0.003560313758
0.003683868247
0.003087341491
0.002148119238
0.00105338671
0.0005747988237
5.066656367e-05
2.885626964e-06
2.321690007e-06
2.108543842e-06
2.072711919e-06
1.69851963e-06
1.454515641e-06
1.260559023e-06
1.125434731e-06
1.041471555e-06
9.900182033e-07
9.629568535e-07
9.564630341e-07
9.669239401e-07
9.920623332e-07
1.031223748e-06
1.085495048e-06
1.15802227e-06
1.254653504e-06
1.385144424e-06
1.565384693e-06
1.821517371e-06
2.198117083e-06
2.774782526e-06
3.700814054e-06
5.27219509e-06
8.105981241e-06
1.353652163e-05
2.451128908e-05
4.762803369e-05
9.782078417e-05
0.000209291496
0.00046111795
0.00100217324
0.00100213835
0.001001537939
0.001000429122
0.0009993270658
0.0009988678811
0.0009986887039
0.0009986282691
0.0009986168189
0.0009986255196
0.0009986436925
0.0009986688807
0.0009987025495
0.0009987491071
0.0009988148795
0.0009989121673
0.0009990563101
0.0009992885726
0.0004926948428
0.001642667579
0.002672283517
0.003369176779
0.003325587558
0.002627933175
0.001686961108
0.0007753635785
0.0003995691302
1.53705191e-05
2.205105918e-06
1.954200488e-06
1.779798412e-06
1.744378446e-06
1.503558714e-06
1.284605071e-06
1.111072042e-06
9.903473076e-07
9.171927736e-07
8.736544044e-07
8.520466149e-07
8.485025284e-07
8.595824184e-07
8.831351052e-07
9.186446941e-07
9.673133022e-07
1.032384995e-06
1.119750941e-06
1.23900594e-06
1.405336523e-06
1.643054578e-06
1.992828444e-06
2.526764251e-06
3.380041203e-06
4.820724938e-06
7.407168495e-06
1.234483492e-05
2.229196836e-05
4.31826391e-05
8.841332144e-05
0.0001885684643
0.000414194877
0.000929417343
0.001002055473
0.001001485907
0.001000453773
0.0009993440017
0.0009988799177
0.0009986982921
0.0009986369332
0.0009986253568
0.000998634273
0.0009986527529
0.0009986781605
0.0009987119132
0.0009987582463
0.0009988236312
0.0009989203035
0.0009990643989
0.0009992996719
0.0004879638558
0.001607746566
0.002577911618
0.003143451726
0.002953334733
0.002199821284
0.001211421473
0.0005718783812
0.0002082555384
6.20121479e-06
1.840918639e-06
1.658364086e-06
1.51520817e-06
1.480849077e-06
1.33142628e-06
1.134387812e-06
9.78978334e-07
8.712753479e-07
8.077400591e-07
7.711912065e-07
7.542620214e-07
7.530428994e-07
7.642826342e-07
7.860767413e-07
8.182054118e-07
8.621655301e-07
9.214615369e-07
1.002166105e-06
1.113856663e-06
1.27124963e-06
1.497319953e-06
1.829868169e-06
2.335555431e-06
3.139547614e-06
4.490663351e-06
6.907448482e-06
1.150904702e-05
2.076105574e-05
4.015919382e-05
8.208733161e-05
0.0001747601224
0.0003831450007
0.000858136968
0.001001984023
0.00100143171
0.001000457839
0.0009993532296
0.0009988894026
0.0009987072188
0.0009986455097
0.0009986338939
0.00099864297
0.000998661685
0.0009986872815
0.0009987211207
0.0009987673004
0.0009988323821
0.000998928569
0.0009990726723
0.0009993107978
0.0004833456585
0.001573207036
0.002481842718
0.002904742916
0.002581674009
0.001823764239
0.0008629744509
0.00044107578
5.431136338e-05
2.227109476e-06
1.555447024e-06
1.408973678e-06
1.292056207e-06
1.260024118e-06
1.173472511e-06
9.972943541e-07
8.591718591e-07
7.639383588e-07
7.093101112e-07
6.789602121e-07
6.659142933e-07
6.663620208e-07
6.773833355e-07
6.974718117e-07
7.267964498e-07
7.671957379e-07
8.224503944e-07
8.988157792e-07
1.00585951e-06
1.157895302e-06
1.376796452e-06
1.698048747e-06
2.183936153e-06
2.951651823e-06
4.234925894e-06
6.521359416e-06
1.086281587e-05
1.957336244e-05
3.780095719e-05
7.711789218e-05
0.0001638253337
0.0003583466031
0.0008007331964
0.001001926177
0.001001379414
0.001000448756
0.0009993582332
0.0009988980604
0.0009987164003
0.0009986545259
0.0009986427584
0.0009986518263
0.0009986706355
0.000998696341
0.0009987302394
0.0009987763115
0.0009988411569
0.0009989369727
0.000999081115
0.0009993218357
0.0004784857613
0.001538121426
0.002382161526
0.002658604403
0.002213247702
0.001451204186
0.000639834292
0.0003132395146
1.839065459e-05
1.623030782e-06
1.321528365e-06
1.201646736e-06
1.10607894e-06
1.07637899e-06
1.031072507e-06
8.736676959e-07
7.511410847e-07
6.67252323e-07
6.204942386e-07
5.954926305e-07
5.857477928e-07
5.876671981e-07
5.987134008e-07
6.17780143e-07
6.453903469e-07
6.837169745e-07
7.368459498e-07
8.112415311e-07
9.164857093e-07
1.066594924e-06
1.282651598e-06
1.598482415e-06
2.073193633e-06
2.818234617e-06
4.056755055e-06
6.255105589e-06
1.041901862e-05
1.875784538e-05
3.617663669e-05
7.367420169e-05
0.0001561856222
0.0003408568286
0.0007598532301
0.001001879373
0.001001329
0.001000425864
0.000999358246
0.0009989052786
0.0009987254037
0.0009986636941
0.000998651768
0.0009986607306
0.0009986795418
0.0009987053056
0.0009987392558
0.0009987852711
0.0009988499589
0.000998945519
0.0009990897555
0.000999332863
0.0004730042168
0.001501624277
0.002276921315
0.002396295017
0.001858074122
0.001058376439
0.0004780606524
0.0001907073185
7.029618323e-06
1.338663372e-06
1.125152943e-06
1.025604612e-06
9.470109076e-07
9.195630774e-07
8.998828572e-07
7.600155668e-07
6.521764441e-07
5.79258713e-07
5.400752795e-07
5.202829371e-07
5.13869096e-07
5.174923702e-07
5.290064012e-07
5.477202498e-07
5.745401193e-07
6.118828517e-07
6.644438665e-07
7.38746285e-07
8.443561419e-07
9.950400071e-07
1.211764458e-06
1.526567956e-06
1.996570443e-06
2.729106472e-06
3.940003438e-06
6.081358174e-06
1.012796247e-05
1.821776556e-05
3.508670385e-05
7.132634834e-05
0.0001508846488
0.0003285021861
0.0007304789936
0.001001841977
0.001001281161
0.001000392037
0.0009993542536
0.0009989113454
0.0009987342847
0.0009986730085
0.000998660912
0.0009986696814
0.0009986884121
0.0009987141887
0.0009987481863
0.0009987941929
0.0009988588004
0.000998954215
0.0009990986019
0.0009993438812
0.0004661839617
0.001462157538
0.002163270131
0.002120731272
0.00153392551
0.0007612802765
0.0003685806741
7.332779391e-05
2.602335182e-06
1.125443838e-06
9.570564125e-07
8.741382787e-07
8.09507804e-07
7.847668588e-07
7.799048265e-07
6.569029526e-07
5.63235453e-07
5.011153119e-07
4.693316059e-07
4.545964401e-07
4.513867327e-07
4.566634053e-07
4.687450408e-07
4.874567047e-07
5.140462289e-07
5.517199595e-07
6.050396679e-07
6.80806048e-07
7.885798059e-07
9.420035116e-07
1.161310858e-06
1.479158507e-06
1.950012515e-06
2.67888296e-06
3.877115614e-06
5.988678382e-06
9.970793534e-06
1.791940094e-05
3.446653863e-05
6.994365665e-05
0.0001476471172
0.0003206854555
0.00071128639
0.001001811744
0.001001235764
0.001000349123
0.0009993467313
0.0009989162743
0.0009987429397
0.0009986823654
0.0009986701169
0.0009986786367
0.0009986972288
0.0009987229879
0.000998757038
0.0009988030849
0.000998867691
0.0009989630673
0.0009991076659
0.0009993549115
0.0004578764033
0.001417537583
0.002021024231
0.001839275766
0.001234534162
0.0005612212614
0.0002815910771
3.612213235e-05
1.518592024e-06
9.510961042e-07
8.167844398e-07
7.471286475e-07
6.938699217e-07
6.719258671e-07
6.743011861e-07
5.667003958e-07
4.85976222e-07
4.337924571e-07
4.08644406e-07
3.983087487e-07
3.978042579e-07
4.044759551e-07
4.170025419e-07
4.360916364e-07
4.634081727e-07
5.022086173e-07
5.573766404e-07
6.35794499e-07
7.470514633e-07
9.047962353e-07
1.12923034e-06
1.452636744e-06
1.928861497e-06
2.661282506e-06
3.85907628e-06
5.963085777e-06
9.923905325e-06
1.781945271e-05
3.423094983e-05
6.934914861e-05
0.000146090654
0.0003165573879
0.0007003523208
0.001001786622
0.0010011925
0.001000299416
0.0009993364077
0.0009989202168
0.0009987513398
0.000998691702
0.0009986793328
0.0009986875683
0.0009987059826
0.0009987317062
0.0009987658212
0.0009988119583
0.0009988766415
0.0009989720829
0.0009991169546
0.000999365964
0.0004478323232
0.00136721002
0.0018521552
0.001559466434
0.0009092042824
0.0004184140322
0.0001990538139
1.861232466e-05
1.149191933e-06
8.066492401e-07
6.989832973e-07
6.403390666e-07
5.964130711e-07
5.772984313e-07
5.820298388e-07
4.88290282e-07
4.191783603e-07
3.75921345e-07
3.565294652e-07
3.498930144e-07
3.516575993e-07
3.594647327e-07
3.7304601e-07
3.930214621e-07
4.216048317e-07
4.623338136e-07
5.202078099e-07
6.021693322e-07
7.179058685e-07
8.812153699e-07
1.112470954e-06
1.44392464e-06
1.929322525e-06
2.671403878e-06
3.879159259e-06
5.994614291e-06
9.971170388e-06
1.78893924e-05
3.432538646e-05
6.94318844e-05
0.0001459792071
0.000315599271
0.0006965110884
0.001001764703
0.001001150799
0.001000244922
0.0009993239228
0.000998923301
0.0009987594507
0.0009987009541
0.0009986885085
0.0009986964469
0.0009987146629
0.0009987403459
0.0009987745455
0.0009988208241
0.0009988856623
0.0009989812695
0.000999126474
0.0009993770487
0.0004360674084
0.001311210866
0.001668137743
0.001292336022
0.0006503448456
0.0003179639204
0.0001299984599
1.223437085e-05
9.355729026e-07
6.843258831e-07
5.983073565e-07
5.486455991e-07
5.123365129e-07
4.958076622e-07
4.998579585e-07
4.189020126e-07
3.605625301e-07
3.256459511e-07
3.115252963e-07
3.08219027e-07
3.118339654e-07
3.212208072e-07
3.360065981e-07
3.573634233e-07
3.877973254e-07
4.310486807e-07
4.92234834e-07
5.783879693e-07
6.993599306e-07
8.692209649e-07
1.108684583e-06
1.450252775e-06
1.947999273e-06
2.704876937e-06
3.931398828e-06
6.074493657e-06
1.009851831e-05
1.8104507e-05
3.47027992e-05
7.009636253e-05
0.0001471096288
0.0003173643426
0.0006987572937
0.001001744367
0.001001109993
0.001000187468
0.0009993098946
0.0009989256724
0.0009987672592
0.0009987100734
0.0009986976029
0.0009987052489
0.0009987232624
0.000998748911
0.0009987832214
0.000998829694
0.0009988947645
0.0009989906354
0.0009991362283
0.0009993881722
0.0004225688398
0.001248999542
0.001478008989
0.001031555878
0.0004819630879
0.0002467208295
6.208609349e-05
6.551160432e-06
7.582618156e-07
5.814901057e-07
5.119226424e-07
4.694835049e-07
4.391194782e-07
4.248434773e-07
4.264379833e-07
3.57369442e-07
3.091798278e-07
2.821720522e-07
2.729862448e-07
2.725593052e-07
2.783435167e-07
2.891347992e-07
3.052919855e-07
3.283915841e-07
3.611005119e-07
4.072817135e-07
4.721924342e-07
5.630122411e-07
6.898101328e-07
8.670202519e-07
1.115838817e-06
1.469251342e-06
1.982022359e-06
2.758066378e-06
4.010931189e-06
6.195746619e-06
1.029504e-05
1.844607563e-05
3.532818918e-05
7.12724508e-05
0.0001493339684
0.0003215287822
0.0007063639425
0.001001724288
0.001001069363
0.001000128583
0.0009992948585
0.0009989274667
0.0009987747614
0.0009987190222
0.0009987065827
0.0009987139555
0.0009987317759
0.0009987574065
0.0009987918596
0.00099883858
0.0009989039594
0.0009990001881
0.0009991462202
0.0009993993392
0.0004071754112
0.001178638892
0.00128207084
0.0007746398303
0.0003660401637
0.0001884362869
3.028056521e-05
3.206585283e-06
6.138741027e-07
4.939323405e-07
4.373468379e-07
4.013923834e-07
3.76091124e-07
3.64094547e-07
3.625593391e-07
3.043018038e-07
2.653354942e-07
2.454043964e-07
2.404826246e-07
2.427413501e-07
2.503959333e-07
2.625886191e-07
2.802527478e-07
3.053160984e-07
3.405823982e-07
3.899864105e-07
4.589166779e-07
5.547570025e-07
6.878480748e-07
8.730537873e-07
1.13217323e-06
1.498873792e-06
2.028925239e-06
2.827870119e-06
4.113654053e-06
6.352582299e-06
1.055184475e-05
1.88990981e-05
3.617388788e-05
7.290522857e-05
0.0001525370587
0.0003278413535
0.0007187677754
0.001001703435
0.001001028212
0.001000069508
0.0009992792699
0.0009989288098
0.0009987819629
0.0009987277744
0.0009987154234
0.0009987225531
0.0009987402017
0.0009987658388
0.0009988004715
0.000998847494
0.0009989132572
0.0009990099316
0.0009991564498
0.0009994105531
0.0003902109298
0.001099076337
0.001084557749
0.0005707092613
0.0002858234381
0.000140568457
1.826106588e-05
1.761635943e-06
5.036587232e-07
4.199537576e-07
3.748020779e-07
3.442656558e-07
3.231177264e-07
3.131168088e-07
3.08203013e-07
2.594904591e-07
2.286751339e-07
2.148402549e-07
2.131233384e-07
2.179014929e-07
2.271499895e-07
2.408209256e-07
2.601647761e-07
2.873552678e-07
3.253656148e-07
3.782092523e-07
4.513800528e-07
5.525010845e-07
6.922502918e-07
8.859731228e-07
1.156232354e-06
1.537363853e-06
2.086606821e-06
2.911674326e-06
4.236164971e-06
6.540297574e-06
1.086188347e-05
1.945195538e-05
3.721887471e-05
7.495356201e-05
0.0001566334502
0.0003361166439
0.0007355541333
0.001001681043
0.001000985896
0.001000011205
0.0009992634981
0.0009989298126
0.0009987888756
0.0009987363136
0.0009987241082
0.0009987310335
0.0009987485402
0.0009987742154
0.0009988090685
0.0009988564481
0.0009989226679
0.000999019867
0.0009991669136
0.0009994218158
0.0003727756927
0.00101331636
0.000874856791
0.0004332225648
0.0002295597512
0.0001009957984
1.274888165e-05
1.020283202e-06
4.174557848e-07
3.57275249e-07
3.214548368e-07
2.956979346e-07
2.778379478e-07
2.695654123e-07
2.615407351e-07
2.214806809e-07
1.980312351e-07
1.895075101e-07
1.907224126e-07
1.973210037e-07
2.079602998e-07
2.231467538e-07
2.443304957e-07
2.738134803e-07
3.147003879e-07
3.71120311e-07
4.486859218e-07
5.552715181e-07
7.019554352e-07
9.046115596e-07
1.186567891e-06
1.58321334e-06
2.153275838e-06
3.007273495e-06
4.37563549e-06
6.755061435e-06
1.121955209e-05
2.009563555e-05
3.84471928e-05
7.738673644e-05
0.0001615600454
0.0003462186176
0.0007564196769
0.00100165657
0.001000941854
0.0009999543873
0.0009992478338
0.0009989305704
0.0009987955159
0.0009987446317
0.0009987326271
0.0009987393926
0.0009987567946
0.0009987825451
0.0009988176623
0.0009988654543
0.0009989322012
0.0009990299948
0.0009991776069
0.0009994331272
0.0003557307958
0.0009201500293
0.0007033317718
0.0003496995105
0.0001918956059
5.579938088e-05
7.833549233e-06
6.390841265e-07
3.475394008e-07
3.028563441e-07
2.740748101e-07
2.531105764e-07
2.383296611e-07
2.31830067e-07
2.214467256e-07
1.893991162e-07
1.726191173e-07
1.683438531e-07
1.722564928e-07
1.803669217e-07
1.923301584e-07
2.090562167e-07
2.321747446e-07
2.640908433e-07
3.079408562e-07
3.679912917e-07
4.500403648e-07
5.622163825e-07
7.160386653e-07
9.279567249e-07
1.222131798e-06
1.635130565e-06
2.227412899e-06
3.112819989e-06
4.52973624e-06
6.993791589e-06
1.162047034e-05
2.08233103e-05
3.984709394e-05
8.018265432e-05
0.0001672721773
0.0003580518829
0.000781152619
0.001001629658
0.001000895612
0.0009998995606
0.0009992324978
0.0009989311631
0.0009988019031
0.0009987527273
0.0009987409763
0.0009987476304
0.0009987649702
0.0009987908373
0.0009988262645
0.000998874524
0.0009989418662
0.0009990403173
0.0009991885251
0.0009994444856
0.0003417062346
0.0008189806369
0.0005657723
0.0002926299438
0.0001604430645
3.070242196e-05
3.739503017e-06
4.413733846e-07
2.913026642e-07
2.56837429e-07
2.336742158e-07
2.164083036e-07
2.046153985e-07
1.996709792e-07
1.875789123e-07
1.627538936e-07
1.518341142e-07
1.513135243e-07
1.570948455e-07
1.665117296e-07
1.798054953e-07
1.981274627e-07
2.232545172e-07
2.576490387e-07
3.04490411e-07
3.681725366e-07
4.547418654e-07
5.72592317e-07
7.336992134e-07
9.551415669e-07
1.261956416e-06
1.692019564e-06
2.307742187e-06
3.226782622e-06
4.696571987e-06
7.254045323e-06
1.206128577e-05
2.162996095e-05
4.141028643e-05
8.332625513e-05
0.0001737401769
0.0003715540366
0.0008096153431
0.001001600094
0.001000846789
0.0009998470599
0.0009992176521
0.0009989316568
0.0009988080581
0.0009987606046
0.0009987491567
0.0009987557502
0.0009987730737
0.0009987991018
0.0009988348866
0.0009988836682
0.0009989516704
0.0009990508372
0.0009991996633
0.000999455888
0.0003336857738
0.0007133907842
0.0004644279712
0.000243384011
0.0001297035614
1.831541374e-05
1.799975097e-06
3.251741182e-07
2.458471999e-07
2.185230056e-07
1.996506959e-07
1.853199525e-07
1.758023724e-07
1.723310879e-07
1.592330822e-07
1.408855266e-07
1.347342978e-07
1.374611e-07
1.447340928e-07
1.553588844e-07
1.699962511e-07
1.899596218e-07
2.171398136e-07
2.539666485e-07
3.037801732e-07
3.710805967e-07
4.621742207e-07
5.85750334e-07
7.542449532e-07
9.854042378e-07
1.305219108e-06
1.752958826e-06
2.393204256e-06
3.347909038e-06
4.874625484e-06
7.533928763e-06
1.253951526e-05
2.251208137e-05
4.313134345e-05
8.680827794e-05
0.0001809466912
0.0003866897077
0.0008417309862
0.001001567773
0.001000795087
0.0009997970875
0.0009992034107
0.0009989321051
0.0009988140024
0.0009987682716
0.0009987571727
0.0009987637576
0.0009987811133
0.0009988073489
0.0009988435397
0.0009988928972
0.0009989616202
0.0009990615544
0.0009992110147
0.0009994673305
0.0003345591608
0.0006086384931
0.0003749714695
0.0002073845879
0.0001017387195
1.206348892e-05
8.75257803e-07
2.525892837e-07
2.077626996e-07
1.857677735e-07
1.70349491e-07
1.585634576e-07
1.510052272e-07
1.489618407e-07
1.357585953e-07
1.232616553e-07
1.213428035e-07
1.262655945e-07
1.34769126e-07
1.465584628e-07
1.625447492e-07
1.84160656e-07
2.133563466e-07
2.525618706e-07
3.053073659e-07
3.762089003e-07
4.71809789e-07
6.01133637e-07
7.770841349e-07
1.01811888e-06
1.351231427e-06
1.817185474e-06
2.482932906e-06
3.475192071e-06
5.062707535e-06
7.832019223e-06
1.305341607e-05
2.346744815e-05
4.500726513e-05
9.062437827e-05
0.0001888848152
0.000403446474
0.0008774743706
0.001001532672
0.001000740276
0.0009997497454
0.00099918985
0.0009989325512
0.0009988197575
0.0009987757391
0.0009987650318
0.0009987716601
0.0009987890979
0.0009988155889
0.0009988522347
0.0009989022202
0.0009989717218
0.0009990724675
0.0009992225699
0.0009994788077
0.0003454421045
0.0005120637425
0.0003160300967
0.0001841960509
5.871925072e-05
7.953460084e-06
4.557250201e-07
2.034257147e-07
1.755328025e-07
1.577607841e-07
1.452619084e-07
1.357522748e-07
1.300044128e-07
1.292371529e-07
1.167549241e-07
1.094029873e-07
1.108267756e-07
1.173081084e-07
1.268552216e-07
1.397628562e-07
1.570871976e-07
1.803276257e-07
2.114610968e-07
2.530242253e-07
3.086477522e-07
3.831178814e-07
4.831940763e-07
6.182650442e-07
8.017177062e-07
1.052755828e-06
1.399426183e-06
1.884080135e-06
2.57623597e-06
3.607843547e-06
5.25991871e-06
8.147304504e-06
1.360188121e-05
2.449492509e-05
4.703708733e-05
9.47743015e-05
0.0001975562886
0.0004218308315
0.0009168630631
0.001001494824
0.001000682185
0.0009997050609
0.0009991770169
0.0009989330299
0.0009988253446
0.0009987830203
0.0009987727437
0.0009987794667
0.0009987970371
0.0009988238321
0.0009988609813
0.0009989116458
0.0009989819819
0.000999083584
0.0009992343169
0.0009994903122
0.0003640151897
0.0004752501533
0.0002772889512
0.0001661256132
3.135088313e-05
3.29016802e-06
2.687714798e-07
1.681460484e-07
1.489404727e-07
1.344688193e-07
1.243374121e-07
1.16748095e-07
1.126271408e-07
1.128340505e-07
1.017485095e-07
9.859772865e-08
1.025788455e-07
1.101896439e-07
1.206696957e-07
1.346557707e-07
1.532931583e-07
1.781110941e-07
2.111244993e-07
2.550094276e-07
3.13447112e-07
3.914317051e-07
4.959410537e-07
6.367442512e-07
8.277315939e-07
1.08888282e-06
1.449347304e-06
1.953152547e-06
2.67257551e-06
3.745267315e-06
5.465612005e-06
8.479128562e-06
1.418435439e-05
2.559431841e-05
4.922161421e-05
9.926135543e-05
0.0002069703905
0.0004418657691
0.0009599514774
0.001001454309
0.001000620677
0.0009996630094
0.0009991649366
0.0009989335686
0.0009988307838
0.000998790129
0.000998780319
0.0009987871872
0.0009988049406
0.0009988320883
0.0009988697891
0.0009989211816
0.0009989924061
0.0009990949085
0.0009992462492
0.0009995018344
0.0003861540746
0.0004141493718
0.0002483820109
0.0001472369373
1.698718251e-05
1.259202536e-06
1.829198092e-07
1.414106085e-07
1.271406559e-07
1.152412734e-07
1.069712736e-07
1.010844035e-07
9.820357297e-08
9.867273833e-08
9.011769909e-08
9.045468207e-08
9.606874308e-08
1.045646893e-07
1.159243173e-07
1.30966647e-07
1.508819401e-07
1.772295335e-07
2.120774136e-07
2.582111509e-07
3.193957247e-07
4.008292232e-07
5.09724392e-07
6.562381462e-07
8.547853972e-07
1.126149098e-06
1.500629549e-06
2.024015654e-06
2.771534616e-06
3.887016115e-06
5.67933485e-06
8.827109415e-06
1.480070488e-05
2.676617009e-05
5.156304962e-05
0.000104091708
0.0002171425308
0.000463587797
0.001002088191
0.001001411237
0.001000555637
0.0009996235302
0.0009991536179
0.0009989341892
0.0009988360944
0.0009987970799
0.0009987877694
0.0009987948316
0.0009988128181
0.0009988403668
0.0009988786663
0.0009989308343
0.0009990029977
0.0009991064284
0.0009992583654
0.0009995133641
0.0004126379588
0.0003795849156
0.0002345814531
0.0001262746231
9.888677686e-06
4.52410181e-07
1.411982782e-07
1.200596618e-07
1.089163687e-07
9.910950462e-08
9.250556115e-08
8.796067726e-08
8.613041302e-08
8.558425558e-08
8.125094065e-08
8.420904002e-08
9.091094311e-08
1.001743982e-07
1.123887209e-07
1.284637783e-07
1.496122393e-07
1.774351767e-07
2.140591206e-07
2.623627311e-07
3.262249807e-07
4.110417802e-07
5.242748403e-07
6.764765235e-07
8.826077604e-07
1.164280233e-06
1.552992797e-06
2.096379153e-06
2.87280987e-06
4.032782097e-06
5.900815979e-06
9.191118881e-06
1.54511925e-05
2.801169003e-05
5.406485424e-05
0.0001092740672
0.0002280935108
0.0004870452472
0.001002060515
0.001001365745
0.001000486948
0.0009995865391
0.0009991430581
0.0009989349086
0.0009988412943
0.0009988038878
0.0009987951067
0.0009988024102
0.0009988206788
0.0009988486762
0.0009988876204
0.0009989406093
0.000999013758
0.0009991181333
0.000999270659
0.00099952489
0.000440476394
0.0003655999988
0.0002296154903
8.418743781e-05
4.729766349e-06
1.86373519e-07
1.167566806e-07
1.023672888e-07
9.347439099e-08
8.561920537e-08
8.022998431e-08
7.687904303e-08
7.60697917e-08
7.539798588e-08
7.459695826e-08
7.932437494e-08
8.684655573e-08
9.682206518e-08
1.098687993e-07
1.269395251e-07
1.492668332e-07
1.785046744e-07
2.168381788e-07
2.672387237e-07
3.337109658e-07
4.218496116e-07
5.393763027e-07
6.972472777e-07
9.109907844e-07
1.203071772e-06
1.606234741e-06
2.170040922e-06
2.976200877e-06
4.18238326e-06
6.129946695e-06
9.571254247e-06
1.613642039e-05
2.933266859e-05
5.673156769e-05
0.0001148192999
0.0002398486781
0.0005122963353
0.001002029653
0.001001317994
0.001000414475
0.000999551938
0.0009991332461
0.0009989357402
0.0009988464
0.000998810567
0.0009988023428
0.000998809933
0.0009988285317
0.0009988570245
0.0009988966576
0.000998950511
0.0009990246872
0.0009991300169
0.0009992831188
0.0009995363997
0.0004845986456
0.0003675958978
0.000229660204
4.079651113e-05
1.25286873e-06
1.173457901e-07
9.899331802e-08
8.788156372e-08
8.059333252e-08
7.414258233e-08
6.98799007e-08
6.76641532e-08
6.784072045e-08
6.773252115e-08
6.964498691e-08
7.552124029e-08
8.369232349e-08
9.434286529e-08
1.081891568e-07
1.262073454e-07
1.496558588e-07
1.802463498e-07
2.202243261e-07
2.72652641e-07
3.416708034e-07
4.330740997e-07
5.548551827e-07
7.183823441e-07
9.397716104e-07
1.242365851e-06
1.660201694e-06
2.244851065e-06
3.081565913e-06
4.335708221e-06
6.366710092e-06
9.967742768e-06
1.685719678e-05
3.073126099e-05
5.956844981e-05
0.0001207397982
0.0002524367577
0.0005394070035
0.00100199577
0.001001268174
0.001000338047
0.0009995196217
0.0009991241654
0.000998936694
0.0009988514265
0.0009988171313
0.0009988094892
0.0009988174096
0.0009988363849
0.0009988654186
0.0009989057831
0.0009989605421
0.0009990357837
0.0009991420706
0.0009992957327
0.0009995478789
0.0005264617353
0.000361873278
0.0002243156078
1.907954738e-05
2.964943502e-07
9.527597317e-08
8.49795768e-08
7.589498498e-08
6.979188756e-08
6.453510584e-08
6.131198252e-08
6.016381254e-08
6.126192215e-08
6.21416384e-08
6.593646853e-08
7.256227027e-08
8.129540793e-08
9.258514314e-08
1.071889941e-07
1.261006627e-07
1.50616805e-07
1.824984486e-07
2.24058907e-07
2.784509904e-07
3.499568115e-07
4.445730643e-07
5.705758625e-07
7.397535703e-07
9.688287025e-07
1.282047708e-06
1.714785386e-06
2.32070882e-06
3.188818496e-06
4.492711474e-06
6.61117325e-06
1.038092732e-05
1.761450603e-05
3.220992523e-05
6.258133989e-05
0.0001270491522
0.0002658890766
0.000568449061
0.001001959026
0.00100121651
0.00100025996
0.000999489482
0.0009991157954
0.0009989377777
0.0009988563876
0.0009988235936
0.0009988165564
0.0009988248487
0.0009988442457
0.0009988738643
0.0009989150007
0.0009989707042
0.000999047044
0.0009991542847
0.0009993084875
0.0009995593119
0.0005664305836
0.0003519112515
0.0002107794091
9.546649647e-06
1.24642206e-07
8.139989933e-08
7.342049468e-08
6.59620457e-08
6.081181902e-08
5.657401616e-08
5.432445539e-08
5.417581472e-08
5.610702619e-08
5.812416779e-08
6.311394678e-08
7.027581694e-08
7.952167968e-08
9.141261068e-08
1.067280356e-07
1.264804854e-07
1.52013901e-07
1.851292688e-07
2.282139173e-07
2.8451182e-07
3.584541976e-07
4.562408405e-07
5.864415167e-07
7.612743866e-07
9.980855525e-07
1.322051691e-06
1.769932031e-06
2.397574925e-06
3.297943735e-06
4.653434251e-06
6.863513202e-06
1.081129837e-05
1.840954723e-05
3.377146319e-05
6.577668243e-05
0.0001337621021
0.0002802392786
0.000599499181
0.001001919573
0.001001163169
0.001000187131
0.000999461411
0.0009991081132
0.0009989389963
0.0009988612953
0.0009988299657
0.0009988235547
0.0009988322585
0.0009988521205
0.0009988823663
0.000998924313
0.0009989809975
0.000999058463
0.0009991666482
0.0009993213684
0.000999570683
0.0005856149064
0.0003409023618
0.0001867937666
5.642191277e-06
9.289024019e-08
7.028217635e-08
6.386479085e-08
5.769509507e-08
5.333676573e-08
5.001169324e-08
4.870222469e-08
4.94762295e-08
5.213075417e-08
5.52140407e-08
6.093720759e-08
6.853314903e-08
7.825479608e-08
9.070809103e-08
1.066893153e-07
1.272347682e-07
1.53735281e-07
1.880319133e-07
2.325855736e-07
2.907375868e-07
3.670712155e-07
4.679944073e-07
6.023765081e-07
7.828771136e-07
1.027482779e-06
1.362327064e-06
1.825600576e-06
2.475420602e-06
3.408935699e-06
4.817926337e-06
7.123915575e-06
1.125935455e-05
1.92435279e-05
3.541869193e-05
6.916096811e-05
0.0001408935392
0.0002955214659
0.0006326353422
0.001001877562
0.001001108072
0.001000119244
0.0009994353034
0.0009991010945
0.0009989403533
0.0009988661602
0.0009988362585
0.0009988304931
0.0009988396461
0.0009988600149
0.0009988909282
0.0009989337209
0.0009989914204
0.0009990700335
0.0009991791488
0.0009993343593
0.0009995819747
0.0005729483158
0.0003355864825
0.0001544314044
2.182935722e-06
7.570852954e-08
6.11656954e-08
5.591380019e-08
5.077750739e-08
4.710775977e-08
4.464371122e-08
4.424693369e-08
4.583915378e-08
4.909240865e-08
5.305138186e-08
5.925035635e-08
6.722875192e-08
7.739300653e-08
9.037098913e-08
1.069758208e-07
1.282722014e-07
1.556908573e-07
1.911219026e-07
2.370951866e-07
2.970573922e-07
3.757442232e-07
4.79778732e-07
6.183344781e-07
8.045236024e-07
1.056991466e-06
1.402854506e-06
1.881782583e-06
2.554251475e-06
3.521825592e-06
4.986278878e-06
7.392612772e-06
1.172564719e-05
2.011771396e-05
3.715449285e-05
7.274075541e-05
0.0001484584156
0.000311769771
0.0006679354796
0.001001833144
0.001001051147
0.001000056005
0.0009994110569
0.0009990947139
0.0009989418505
0.0009988709916
0.0009988424817
0.0009988373796
0.0009988470177
0.000998867933
0.000998899552
0.0009989432242
0.0009990019697
0.0009990817462
0.0009991917725
0.0009993474427
0.000999593167
0.0005565351249
0.0003330841815
8.251541186e-05
7.363960794e-07
6.420819814e-08
5.368685288e-08
4.930801811e-08
4.500298323e-08
4.195272424e-08
4.032073636e-08
4.077799769e-08
4.305332061e-08
4.665000954e-08
5.14018968e-08
5.794996619e-08
6.627696813e-08
7.685204502e-08
9.031899592e-08
1.075093402e-07
1.295185203e-07
1.578081231e-07
1.943309741e-07
2.416807271e-07
3.034151966e-07
3.844238846e-07
4.915498703e-07
6.342782009e-07
8.261824687e-07
1.086586478e-06
1.443615253e-06
1.938466276e-06
2.634065353e-06
3.636631527e-06
5.158562707e-06
7.669803628e-06
1.22106668e-05
2.103325513e-05
3.898151879e-05
7.652214767e-05
0.0001564707622
0.0003290164412
0.0007054736128
0.001001786482
0.001000992306
0.000999997135
0.0009993885741
0.0009990889456
0.0009989434883
0.0009988757973
0.0009988486437
0.0009988442213
0.0009988543784
0.0009988758779
0.0009989082387
0.0009989528209
0.0009990126408
0.0009990935896
0.0009992045036
0.0009993605995
0.0009996042378
0.0005358324791
0.0003278724493
4.505704481e-05
2.761730235e-07
5.572280265e-08
4.75282932e-08
4.379887958e-08
4.017580207e-08
3.771810953e-08
3.689745519e-08
3.810941491e-08
4.092292008e-08
4.487105217e-08
5.012128571e-08
5.695703172e-08
6.560458342e-08
7.656047412e-08
9.048354068e-08
1.08225023e-07
1.309099083e-07
1.600304588e-07
1.976074609e-07
2.462978956e-07
3.097721696e-07
3.930789142e-07
5.032825226e-07
6.50189012e-07
8.478419311e-07
1.116262874e-06
1.484611762e-06
1.995662235e-06
2.714883778e-06
3.75339688e-06
5.334874399e-06
7.955708597e-06
1.27149093e-05
2.19912623e-05
4.090227451e-05
8.051083543e-05
0.0001649435642
0.0003472911731
0.0007453177032
0.001001737746
0.001000931428
0.0009999423759
0.0009993677613
0.0009990837639
0.0009989452656
0.0009988805838
0.0009988547519
0.0009988510241
0.000998861732
0.0009988838516
0.0009989169875
0.0009989625075
0.0009990234267