/*--------------------------------*- C++ -*----------------------------------*\
  =========                 |
  \\      /  F ield         | OpenFOAM: The Open Source CFD Toolbox
   \\    /   O peration     | Website:  https://openfoam.org
    \\  /    A nd           | Version:  12
     \\/     M anipulation  |
\*---------------------------------------------------------------------------*/
FoamFile
{
    format      ascii;
    class       volScalarField;
    location    "400";
    object      p;
}
// * * * * * * * * * * * * * * * * * * * * * * * * * * * * * * * * * * * * * //

dimensions      [1 -1 -2 0 0 0 0];

internalField   nonuniform List<scalar> 
16200
(
80933.40307
80940.25083
80949.23819
80960.91153
80976.21829
80996.4108
81023.38281
81059.16088
81104.09026
81158.03539
81222.29429
81298.78417
81389.36696
81497.1845
81624.72701
81776.18606
81955.24313
82167.18714
82417.28917
82712.1631
83058.84649
83465.42995
83940.51379
84493.18438
85132.32794
85865.84592
86699.28608
87633.98278
88664.62104
89776.68316
90944.89328
92134.16261
93303.75441
94413.68776
95430.87989
96333.05762
97109.43993
97759.41004
98289.92039
98713.00552
99043.37396
99296.54522
99487.40644
99629.30545
99733.60382
99809.56206
99864.48862
99903.98843
99932.28058
99952.482
99966.87305
99977.10989
99984.37984
99989.54553
99993.18227
99995.81034
99997.50675
99999.13298
99999.15111
100001.0905
80052.32773
80060.59261
80070.17943
80083.09342
80100.23952
80123.05263
80153.90588
80194.28981
80244.64525
80304.7375
80376.14469
80461.15409
80561.70808
80681.4064
80822.89227
80990.85883
81189.32897
81424.16351
81701.19624
82027.75164
82411.63377
82861.74373
83387.45384
83998.47847
84704.06472
85511.99137
86426.84927
87447.64711
88564.84158
89757.73003
90993.843
92231.86197
93427.9553
94543.25285
95549.42408
96430.73051
97182.75138
97809.66756
98321.17976
98730.26411
99051.2959
99298.87277
99486.7835
99627.43186
99731.44812
99807.6098
99862.92574
99902.84403
99931.50418
99951.99986
99966.61058
99976.99939
99984.37207
99989.59105
99993.27477
99995.88918
99997.62074
99999.18601
99999.19889
100001.0934
79327.27774
79336.43391
79347.18341
79361.69669
79381.0461
79406.96024
79442.18656
79487.4405
79543.20013
79609.50128
79688.20039
79781.99801
79892.88189
80024.98111
80181.14382
80366.64063
80585.93689
80845.55089
81151.97215
81513.26704
81937.99429
82435.79134
83016.72185
83691.05856
84468.30693
85355.80979
86356.43632
87465.50311
88667.4468
89933.73813
91224.02877
92491.58768
93691.60694
94788.91587
95762.07384
96603.10778
97314.3722
97904.70914
98386.27629
98772.62131
99077.49622
99314.25914
99495.33315
99631.8974
99733.61476
99808.5706
99863.30801
99902.98671
99931.57384
99952.06939
99966.70342
99977.116
99984.50543
99989.72671
99993.41601
99996.004
99997.74601
99999.25675
99999.26064
100001.1408
78748.07416
78757.97146
78770.35193
78786.82324
78808.84278
78838.53271
78878.6306
78929.36908
78991.18115
79064.66765
79151.79366
79255.77741
79378.65979
79525.16045
79698.36255
79904.13665
80147.40383
80435.31599
80774.9976
81175.23396
81645.38216
82195.94347
82837.85859
83582.04189
84437.9876
85411.75719
86503.00109
87701.35177
88983.18748
90310.86547
91636.44114
92909.79248
94088.16072
95142.93812
96061.41687
96844.07328
97499.86178
98041.76115
98483.8197
98839.718
99122.27102
99343.36
99513.84415
99643.48594
99740.80505
99813.03049
99866.10206
99904.77498
99932.7563
99952.88409
99967.28969
99977.55568
99984.84596
99989.9948
99993.63522
99996.17057
99997.89286
99999.3459
99999.32363
100001.1751
78311.96893
78322.93075
78337.27244
78356.06063
78381.27054
78415.55073
78461.27409
78518.35074
78587.11642
78668.9334
78765.79584
78881.47815
79018.04247
79180.82357
79373.15589
79601.52962
79871.39029
80190.61466
80567.14306
81010.71419
81531.75637
82141.81552
82852.63126
83675.24671
84618.10874
85684.44845
86868.73237
88152.79399
89503.31099
90873.28102
92208.92101
93460.06435
94589.62986
95578.22266
96422.99707
97132.74151
97722.17055
98207.42732
98603.62997
98924.04628
99180.22358
99382.38162
99539.69428
99660.40887
99751.80874
99820.17471
99870.75968
99907.84042
99934.80346
99954.27688
99968.25735
99978.24323
99985.34438
99990.36239
99993.91288
99996.37464
99998.05664
99999.44979
99999.3941
100001.2235
78013.19336
78025.49198
78042.14638
78063.66454
78092.67269
78132.3711
78184.53893
78248.61589
78325.0634
78415.99872
78523.47739
78651.95716
78803.56119
78984.32648
79197.96246
79451.71764
79751.77163
80106.93403
80526.18573
81020.34631
81600.863
82279.95911
83069.45838
83979.50963
85016.23272
86178.43189
87453.41494
88813.25837
90214.02631
91600.49371
92916.27785
94115.34243
95169.78475
96071.26252
96826.95904
97453.07196
97968.78704
98392.23363
98738.72958
99020.60498
99247.86479
99428.9533
99571.31238
99681.64906
99765.98072
99829.60182
99877.03495
99912.03456
99937.6268
99956.19572
99969.57628
99979.16149
99985.99136
99990.82407
99994.24713
99996.6144
99998.23784
99999.56719
99999.46998
100001.2777
77845.26789
77859.20827
77878.57303
77903.40579
77937.10259
77983.10904
78042.63023
78114.1776
78199.22351
78300.71171
78420.59063
78564.11013
78733.54203
78935.73286
79174.89473
79459.1189
79795.41185
80193.51209
80663.36112
81216.62082
81865.38863
82622.0696
83497.93096
84501.35661
85634.87559
86891.05731
88247.85763
89665.92966
91091.00311
92462.48035
93725.86759
94843.58471
95799.60485
96597.31188
97253.09166
97789.04206
98227.28093
98586.70472
98882.01906
99124.16962
99321.42338
99480.40525
99606.84377
99705.94035
99782.4697
99840.74701
99884.5572
99917.11648
99941.07101
99958.54137
99971.18366
99980.27112
99986.76283
99991.36514
99994.62989
99996.88463
99998.43492
99999.69661
99999.55212
100001.341
77818.09624
77834.28316
77856.67321
77885.4458
77924.92704
77978.15689
78045.41548
78125.45213
78221.24547
78335.67838
78470.68946
78632.39914
78823.26797
79050.98866
79320.33281
79640.20966
80018.42179
80465.50579
80992.19061
81610.76316
82333.77419
83173.59287
84140.48332
85240.0243
86469.235
87811.89979
89234.39232
90685.37799
92102.41067
93424.06162
94602.78242
95613.08542
96452.19267
97134.6366
97684.37606
98127.56418
98487.68878
98783.30921
99027.8529
99230.55586
99397.84339
99534.54297
99644.74069
99732.21032
99800.54504
99853.12017
99893.00226
99922.87459
99944.99969
99961.22706
99973.02511
99981.53866
99987.63868
99991.97374
99995.05486
99997.18157
99998.64666
99999.83689
99999.64029
100001.4122
77945.7904
77964.76286
77990.67344
78024.20132
78070.81801
78132.35514
78208.86107
78299.41382
78406.69753
78535.1359
78686.57847
78868.08197
79082.32959
79337.8637
79640.08229
79998.7206
80422.43311
80922.58168
81510.73812
82199.78833
83002.48903
83930.54634
84992.10968
86188.16706
87507.6165
88922.66197
90386.79938
91838.24339
93210.64842
94447.30871
95512.2537
96394.33599
97103.88945
97664.96012
98106.96646
98458.2127
98742.14807
98976.09854
99171.73046
99336.37606
99474.60185
99589.51439
99683.66623
99759.51065
99819.54549
99866.26769
99902.06371
99929.10486
99949.27893
99964.16622
99975.04555
99982.92975
99988.59803
99992.63751
99995.51524
99997.50131
99998.87163
99999.98732
99999.73455
100001.4918
78212.04215
78234.27283
78264.2642
78303.46631
78358.04975
78427.52328
78512.69733
78614.66001
78735.51943
78880.21597
79050.52882
79254.49539
79495.03975
79781.52074
80120.04884
80521.26392
80994.86184
81553.23469
82208.98307
82975.47746
83864.97822
84887.06453
86045.63529
87334.61885
88732.30507
90197.50795
91671.39738
93085.60019
94375.67171
95495.07653
96422.69976
97162.25613
97735.70471
98174.28535
98510.62778
98773.45255
98985.02941
99160.80344
99310.38365
99439.12589
99549.79322
99643.88823
99722.56314
99787.07441
99838.92494
99879.80758
99911.47891
99935.62965
99953.79055
99967.28156
99977.19538
99984.41325
99989.62182
99993.34517
99996.00479
99997.84036
99999.10865
100000.1477
99999.83456
100001.5796
78591.36432
78617.42653
78652.13214
78698.15427
78761.90147
78842.25023
78939.43101
79054.54915
79190.73608
79354.00716
79545.87638
79775.43347
80046.03962
80367.98774
80748.2344
81198.30134
81728.92203
82353.33273
83084.68856
83936.17829
84918.67623
86038.14733
87291.73015
88663.28096
90118.55572
91603.15912
93048.75126
94385.91913
95558.31449
96533.85408
97307.66495
97897.2038
98333.62746
98652.79015
98888.44189
99068.30006
99212.62712
99334.58434
99441.59239
99537.05724
99622.04753
99696.60475
99760.62623
99814.30197
99858.2459
99893.42694
99921.02831
99942.29772
99958.43224
99970.50517
99979.4304
99985.9611
99990.69272
99994.08639
99996.51771
99998.1955
99999.35657
100000.3176
99999.94028
100001.6756
79081.16627
79111.78638
79152.12446
79206.59714
79280.7699
79372.09394
79481.50363
79611.2836
79764.29399
79948.2651
80164.70917
80423.8549
80729.66148
81093.37994
81522.82123
82030.23318
82626.97807
83326.39285
84141.14067
85083.21898
86161.00128
87375.56442
88715.1715
90150.68441
91634.12314
93100.33921
94476.53497
95698.49623
96723.34674
97535.8769
98146.90018
98585.25539
98888.43039
99094.42417
99236.36624
99339.9274
99422.8403
99495.79171
99564.01448
99629.06396
99690.45807
99746.93299
99797.2793
99840.75002
99877.17551
99906.88159
99930.53666
99948.98589
99963.11916
99973.77978
99981.71282
99987.54893
99991.7955
99994.85199
99997.04876
99998.56383
99999.61423
100000.4961
100000.0531
100001.7801
79681.31175
79717.41828
79764.55797
79828.61013
79913.07479
80015.58885
80139.66126
80287.99837
80462.19968
80671.55642
80917.60384
81211.6318
81558.12518
81969.15043
82453.39959
83023.84563
83692.45149
84472.50905
85375.911
86411.89832
87583.70283
88884.93738
90293.30281
91765.6725
93240.67681
94646.62064
95912.94729
96986.57826
97841.66729
98480.18937
98926.50652
99217.79618
99395.02975
99496.24518
99552.64727
99587.18648
99614.80582
99643.69343
99676.98947
99714.54491
99754.48886
99794.41036
99832.13705
99866.10856
99895.47218
99919.98862
99939.86909
99955.59708
99967.78301
99977.05844
99984.01107
99989.15611
99992.91703
99995.63395
99997.5933
99998.94279
99999.88054
100000.6819
100000.1751
100001.8931
80408.82576
80451.40557
80506.67273
80581.92029
80680.83788
80799.24351
80938.9722
81106.89372
81303.62186
81539.85458
81817.07755
82147.77065
82537.15884
82998.22699
83540.69312
84178.14856
84922.90937
85787.61795
86782.24475
87911.73962
89172.19946
90545.67227
91997.12317
93471.24592
94896.41599
96199.71449
97319.89865
98219.68594
98891.45095
99352.75669
99638.39848
99790.7136
99851.65985
99857.69734
99837.23967
99810.16275
99788.56524
99778.23101
99780.36338
99793.28047
99813.88954
99838.78555
99864.96798
99890.17741
99912.97123
99932.61793
99948.92628
99962.05765
99972.37066
99980.30375
99986.29952
99990.76553
99994.04625
99996.42539
99998.14726
99999.33012
100000.1546
100000.8743
100000.3046
100002.015
81247.30315
81297.72093
81362.9021
81450.60847
81563.07055
81697.16562
81854.16323
82043.11313
82264.261
82530.18927
82842.32242
83214.3877
83652.41272
84170.08454
84777.79736
85489.15512
86315.97297
87269.05549
88354.70106
89571.85319
90907.49142
92331.02323
93792.43828
95226.92014
96558.89023
97720.46855
98665.46043
99374.897
99858.28132
100145.8334
100279.3403
100303.4077
100259.011
100179.9223
100091.281
100009.7844
99944.77756
99899.81011
99874.3372
99865.32425
99868.61931
99879.96606
99895.65892
99912.8429
99929.56993
99944.68288
99957.63874
99968.31408
99976.84221
99983.48685
99988.55787
99992.36333
99995.17398
99997.22049
99998.70711
99999.72387
100000.4356
100001.0728
100000.4393
100002.1457
82173.90668
82233.87848
82309.77903
82409.26792
82534.72856
82687.67509
82866.81101
83082.69297
83334.57102
83637.1591
83991.76298
84413.0679
84907.65632
85489.47735
86169.09566
86959.49678
87871.33368
88912.61662
90084.57623
91377.61409
92766.69292
94208.38236
95640.44825
96990.72691
98187.83467
99175.42698
99925.38097
100437.0991
100734.4898
100856.8831
100849.8145
100757.8033
100619.4458
100465.1693
100316.6588
100187.5073
100084.4902
100009.1337
99959.3455
99930.91521
99918.78389
99917.97381
99924.18442
99934.05717
99945.21383
99956.13144
99965.96126
99974.32944
99981.16888
99986.58615
99990.77044
99993.93848
99996.29275
99998.01437
99999.26983
100000.1223
100000.7225
100001.2764
100000.5794
100002.2852
83206.4222
83278.05862
83366.34933
83484.81474
83630.56484
83804.7675
84008.21437
84253.94975
84539.55417
84881.83977
85282.11585
85755.93971
86310.49582
86959.9327
87714.81717
88586.90383
89584.18257
90709.65941
91957.16952
93306.61204
94719.69144
96140.17534
97498.93425
98721.59839
99748.16444
100538.7642
101083.5736
101398.3889
101518.0068
101487.3303
101352.9212
101157.4794
100936.3519
100716.3282
100515.677
100345.0762
100208.9659
100107.0756
100035.9634
99990.40924
99964.58574
99952.90932
99950.58136
99953.82058
99959.88479
99966.93825
99973.86775
99980.08022
99985.33107
99989.58615
99992.92551
99995.48246
99997.39655
99998.803
99999.83283
100000.5239
100001.0141
100001.4846
100000.7249
100002.4335
84359.1166
84445.22048
84548.07796
84686.12487
84850.39377
85047.555
85276.24447
85553.32142
85874.60931
86258.98912
86707.96932
87237.93047
87856.56603
88577.77112
89411.3176
90366.3607
91446.35295
92647.01667
93951.97183
95329.38138
96728.80368
98084.63939
99325.25724
100382.8333
101212.4782
101793.1054
102131.5916
102256.8751
102211.0022
102041.3412
101793.4129
101506.9605
101213.6413
100936.5806
100690.8119
100484.3511
100319.5577
100194.5883
100104.8377
100044.228
100006.2859
99984.92366
99974.92876
99972.16736
99973.59107
99977.0979
99981.34677
99985.55338
99989.31645
99992.47629
99995.0146
99996.98876
99998.48064
99999.58306
100000.3939
100000.9272
100001.3098
100001.698
100000.876
100002.591
85609.68849
85713.6672
85830.93411
85988.78397
86174.7683
86398.72453
86656.43119
86969.3823
87331.75841
87764.26174
88268.49204
88861.12271
89549.72979
90346.84787
91260.04366
92294.24348
93446.82905
94704.81695
96040.56311
97409.64674
98752.48082
99999.16275
101081.3754
101945.3629
102562.1008
102929.1417
103067.4258
103015.2391
102818.5622
102524.7705
102176.9276
101811.1843
101455.3897
101129.1565
100844.5453
100607.1902
100417.6229
100272.6389
100166.6392
100092.8218
100044.1762
100014.1974
99997.33218
99989.15435
99986.35929
99986.61938
99988.39777
99990.74384
99993.11838
99995.24995
99997.03185
99998.4526
99999.5413
100000.3518
100000.9511
100001.3309
100001.6092
100001.9171
100001.0316
100002.7586
86973.8787
87098.36149
87229.50323
87408.07793
87617.77322
87873.73773
88165.87106
88520.18865
88929.33921
89415.37068
89979.65145
90638.39544
91398.38698
92269.79464
93256.87102
94359.02837
95566.01566
96854.86649
98186.74163
99506.38557
100748.6502
101845.337
102737.6292
103388.9307
103786.62
103944.4135
103893.9894
103679.2991
103347.535
102944.3217
102509.4165
102075.1266
101665.5934
101297.1739
100979.2559
100715.373
100504.4681
100342.1674
100222.0289
100136.6445
100078.5587
100040.9254
100017.912
100004.8523
99998.2282
99995.52158
99995.02799
99995.65244
99996.73453
99997.90355
99998.9735
99999.87056
100000.5757
100001.1071
100001.5028
100001.734
100001.9121
100002.1387
100001.1891
100002.9364
88466.3578
88615.18799
88767.26245
88975.44043
89210.40307
89500.05358
89828.62795
90225.98042
90683.20572
91223.27456
91847.17686
92569.99811
93397.18328
94335.61245
95385.02578
96537.85045
97774.74739
99061.98409
100350.2173
101577.8284
102678.53
103591.6234
104272.4652
104701.7515
104882.8307
104841.8186
104617.6353
104256.7802
103805.632
103306.9425
102796.7587
102303.5614
101848.0204
101443.5457
101097.1582
100810.5577
100581.3162
100404.061
100271.6387
100176.1361
100109.733
100065.3055
100036.7953
100019.3396
100009.2439
100003.8299
100001.25
100000.2842
100000.1657
100000.4358
100000.8374
100001.2403
100001.5817
100001.8471
100002.0476
100002.1354
100002.218
100002.3632
100001.3476
100003.1228
90100.35929
90277.621
90450.13684
90685.87486
90946.68453
91270.37675
91635.72022
92076.13723
92581.17143
93174.21131
93855.82576
94639.15724
95527.50208
96523.18416
97619.84049
98801.37171
100038.4115
101287.0301
102490.3468
103585.0222
104509.2777
105214.4761
105672.3034
105879.6481
105853.2956
105628.0162
105246.7978
104756.3094
104200.7539
103619.4029
103044.5085
102500.9146
102006.1255
101570.928
101200.2687
100894.2576
100649.2886
100459.1394
100316.0578
100211.7128
100137.9864
100087.5318
100054.1092
100032.6973
100019.4562
100011.5736
100007.08
100004.6471
100003.4152
100002.8472
100002.6226
100002.5603
100002.5576
100002.5704
100002.5842
100002.5344
100002.5262
100002.5904
100001.5125
100003.3166
91845.58017
92052.94279
92245.71855
92512.79715
92801.16207
93160.13368
93563.73985
94048.58927
94602.78175
95249.11363
95987.45022
96827.76744
97769.89824
98810.04981
99934.24288
101117.0305
102319.4862
103489.908
104568.2489
105494.2758
106215.827
106699.0091
106931.7425
106924.6655
106704.7362
106311.9911
105790.9164
105186.6945
104540.5487
103888.0431
103257.7608
102671.1948
102143.0165
101681.7034
101290.3971
100967.8344
100709.3998
100508.1488
100355.8278
100243.7606
100163.5893
100107.7895
100069.9778
100045.0064
100028.9163
100018.7839
100012.536
100008.751
100006.4874
100005.1393
100004.3291
100003.8298
100003.5023
100003.2757
100003.1115
100002.9302
100002.8363
100002.8166
100001.6881
100003.517
93700.22027
93932.74281
94139.00555
94437.90423
94758.19146
95156.38207
95602.0875
96134.38409
96740.18823
97440.14853
98232.75043
99123.42945
100107.1563
101172.8797
102298.3347
103449.1767
104578.9221
105631.8352
106549.4733
107279.2254
107781.8255
108038.6276
108052.0613
107843.4073
107446.5066
106903.8827
106259.6419
105556.4405
104832.1424
104118.638
103441.0909
102817.9723
102261.45
101777.9837
101369.1498
101032.5012
100762.5576
100551.7617
100391.44
100272.6335
100186.7919
100126.2523
100084.5192
100056.3451
100037.6747
100025.4923
100017.637
100012.6066
100009.3883
100007.3147
100005.9576
100005.0483
100004.415
100003.9621
100003.6284
100003.3219
100003.1474
100003.0418
100001.8748
100003.7227
95643.49947
95910.50399
96143.97839
96476.51007
96831.57198
97271.81399
97761.95349
98341.87234
98997.82049
99746.7448
100584.9162
101512.2579
102517.9077
103583.094
104677.5541
105759.6456
106778.4116
107678.3146
108406.8202
108922.19
109199.467
109233.8103
109039.5459
108645.4219
108089.3063
107414.1044
106662.2942
105873.4492
105081.9941
104316.3397
103598.5421
102944.3862
102363.8455
101861.6233
101437.9408
101089.3295
100809.5681
100590.5786
100423.3364
100298.6521
100207.8234
100143.0808
100097.8438
100066.7876
100045.7803
100031.7302
100022.4024
100016.2254
100012.1239
100009.3764
100007.5091
100006.2158
100005.2951
100004.6286
100004.134
100003.7091
100003.4588
100003.265
100002.0736
100003.9327
97717.93368
98023.15591
98284.14108
98650.81329
99039.54833
99519.57845
100051.359
100673.3471
101371.5381
102158.2208
103026.5528
103970.2257
104971.9763
106005.4945
107033.711
108010.2298
108883.2781
109601.5181
110121.5609
110414.2336
110468.2549
110290.3441
109903.7298
109341.8042
108644.1932
107852.7319
107007.5251
106144.8615
105295.8406
104485.6755
103733.6457
103053.1709
102452.3102
101934.24
101498.0073
101139.2611
100851.1432
100625.1327
100451.9122
100322.1052
100226.8916
100158.4221
100110.0538
100076.4036
100053.2794
100037.5276
100026.851
100019.6187
100014.7008
100011.3278
100008.985
100007.3326
100006.1421
100005.2746
100004.6275
100004.091
100003.7696
100003.4857
100002.2853
100004.1457
99922.99805
100268.7876
100557.5433
100956.5253
101375.2476
101889.3052
102456.5864
103112.0184
103840.9498
104650.2232
105529.0833
106464.5766
107433.0623
108401.7194
109328.7915
110166.3207
110865.3583
111381.9366
111683.6726
111754.0279
111593.3989
111217.6501
110655.9975
109944.189
109121.9531
108229.1576
107303.1662
106377.0174
105478.7135
104630.5875
103849.4656
103146.6968
102528.6725
101997.241
101550.4293
101183.1213
100887.9095
100655.8961
100477.5191
100343.2517
100244.1841
100172.4101
100121.243
100085.2576
100060.2154
100042.913
100031.0012
100022.798
100017.1257
100013.1724
100010.387
100008.3991
100006.9557
100005.8994
100005.108
100004.4673
100004.079
100003.7036
100002.5105
100004.3601
102245.392
102628.6427
102939.5528
103369.3048
103816.0528
104358.6796
104954.222
105632.7491
106378.4441
107192.0932
108058.6351
108958.6925
109863.0587
110734.2426
111528.5358
112199.6949
112704.6039
113008.6332
113090.8644
112946.1349
112584.0443
112027.2277
111308.4154
110463.9828
109532.6623
108551.877
107556.1537
106575.4556
105634.9721
104754.4757
103948.6404
103227.0061
102594.511
102051.8451
101596.1456
101221.6306
100920.4172
100683.2852
100500.4692
100362.3226
100259.8694
100185.1658
100131.4969
100093.409
100066.6288
100047.9134
100034.8703
100025.774
100019.405
100014.9137
100011.7167
100009.4158
100007.736
100006.5025
100005.5748
100004.8372
100004.3857
100003.9184
100002.7498
100004.574
104674.3214
105090.7943
105420.7515
105875.1102
106344.4854
106907.2554
107520.3147
108207.9827
108952.9995
109749.7171
110578.6674
111414.8324
112224.9266
112969.1472
113604.6819
114089.795
114389.1811
114478.2573
114346.8652
113999.1789
113451.5776
112731.3645
111872.8589
110911.8476
109885.4297
108828.3978
107772.5281
106744.956
105768.3591
104860.2533
104033.4309
103295.8519
102651.1847
102099.1051
101635.9709
101255.4172
100949.1479
100707.6666
100521.0385
100379.5233
100274.0986
100196.7984
100140.8933
100100.912
100072.5568
100052.5538
100038.4749
100028.5571
100021.545
100016.5555
100012.976
100010.3833
100008.4828
100007.0832
100006.0272
100005.2005
100004.6886
100004.1298
100003.0035
100004.7849
107189.203
107634.1042
107979.532
108450.9728
108935.3992
109508.1397
110126.0676
110806.5721
111530.9747
112287.4721
113052.6676
113797.267
114485.8888
115078.9134
115536.8892
115824.5127
115915.1445
115793.8979
115459.8885
114924.3465
114208.4819
113342.3643
112360.5573
111297.4956
110188.3486
109065.283
107957.5132
106889.627
105882.082
104950.4157
104105.7764
103354.7417
102699.8664
102139.9335
101670.6141
101285.03
100974.5245
100729.3634
100539.4718
100395.0369
100287.0067
100207.4063
100149.5026
100107.8163
100078.0337
100056.8574
100041.8301
100031.1574
100023.5519
100018.1012
100014.1666
100011.3024
100009.196
100007.6412
100006.4646
100005.5566
100004.9863
100004.3378
100003.2716
100004.9905
109773.029
110238.8641
110594.9661
111075.4495
111564.8668
112134.1324
112741.3387
113395.9474
114077.8548
114770.0158
115446.2012
116074.5055
116619.4448
117043.7611
117313.1189
117399.5962
117285.1143
116963.4133
116441.034
115734.1952
114867.4281
113871.9778
112781.8063
111629.5984
110448.5123
109268.218
108115.6014
107012.9881
105978.8852
105027.0997
104167.3412
103404.9736
102741.5697
102175.1221
101700.6929
101310.9496
100996.9185
100748.6612
100555.9861
100409.0266
100298.7148
100217.0781
100157.3887
100114.1672
100083.0911
100060.8458
100044.9506
100033.584
100025.4314
100019.5542
100015.2904
100012.1737
100009.8759
100008.1761
100006.8866
100005.9049
100005.2774
100004.5427
100003.5533
100005.188
112403.5648
112879.6558
113240.2951
113720.7737
114203.7976
114753.5801
115332.0033
115940.7646
116558.5241
117163.8158
117728.9063
118221.083
118606.4912
118851.8413
118928.8906
118817.1979
118506.4683
117997.6367
117302.8283
116441.6147
115440.5314
114330.9706
113145.7728
111915.7339
110672.0384
109442.0655
108250.6183
107118.0314
106061.103
105092.1266
104219.5485
103447.6619
102777.1685
102205.3566
101726.7447
101333.5957
101016.6564
100765.8113
100570.7736
100421.6375
100309.3312
100225.8934
100164.6092
100120.0059
100087.7579
100064.539
100047.8497
100035.8459
100027.1892
100020.9179
100016.3491
100012.9982
100010.5225
100008.6873
100007.2926
100006.245
100005.5604
100004.7453
100003.8464
100005.3743
115065.6759
115537.7312
115889.2718
116351.3715
116814.7722
117329.5859
117861.6388
118405.706
118939.8059
119439.2717
119876.0501
120218.3019
120435.1605
120498.2478
120385.6715
120083.9491
119589.4319
118908.748
118058.0037
117058.8715
115938.8386
114728.8827
113460.426
112162.4016
110864.1296
109590.9411
108365.7965
107207.2864
106130.7137
105147.0456
104263.6145
103483.7638
102807.4173
102231.2321
101749.2382
101353.3364
101034.0253
100781.0364
100584.0048
100432.9991
100318.953
100233.924
100171.2165
100125.3699
100092.0606
100067.9553
100050.5398
100037.9513
100028.8305
100022.1955
100017.3445
100013.7765
100011.1359
100009.1746
100007.6825
100006.5762
100005.834
100004.946
100004.1467
100005.5503
117711.6176
118163.7118
118498.9543
118932.0699
119362.3406
119827.5724
120297.4339
120760.4815
121194.7723
121574.0224
121870.8978
122055.672
122101.3516
121984.7986
121690.1721
121210.0717
120546.2576
119709.6813
118719.1359
117597.4534
116372.3872
115074.1911
113732.7433
112375.223
111029.2588
109718.374
108463.9065
107282.9253
106189.4215
105193.197
104300.5962
103514.1151
102832.9784
102253.2734
101768.5885
101370.4986
101049.2813
100794.5356
100595.8334
100443.2285
100327.6682
100241.2354
100177.2586
100130.2939
100096.024
100071.1121
100053.033
100039.9082
100030.3605
100023.3902
100018.2785
100014.5097
100011.7166
100009.6378
100008.056
100006.8978
100006.0969
100005.1453
100004.4505
100005.7214
120298.1848
120723.1064
121035.7203
121428.706
121814.232
122216.8339
122610.9467
122979.9613
123302.7449
123552.5378
123703.6844
123729.3401
123606.7285
123317.8082
122852.1484
122207.4315
121389.6654
120412.9811
119297.8659
118067.6491
116749.9646
115374.204
113968.6697
112558.9483
111171.1948
109827.3346
108547.283
107346.7831
106238.6723
105231.7238
104331.4003
103539.4373
102854.4266
102271.9385
101785.16
101385.3711
101062.652
100806.4867
100606.3969
100452.431
100335.5567
100247.8872
100182.7796
100134.8101
100099.6711
100074.0256
100055.3405
100041.7243
100031.7844
100024.5051
100019.153
100015.1987
100012.2646
100010.0766
100008.4131
100007.209
100006.3482
100005.3434
100004.7554
100005.889
122810.0445
123192.4972
123471.8122
123812.3836
124141.5426
124470.5248
124778.509
125044.6878
125249.2075
125365.6957
125370.7683
125240.8087
124957.19
124506.5216
123882.9994
123088.4272
122132.0682
121030.3361
119804.6832
118478.5294
117079.2055
115635.1996
114173.268
112717.6274
111293.1526
109920.3631
108617.9313
107400.4454
106279.723
105263.6258
104356.8248
103560.3688
102872.2733
102287.6367
101799.2794
101398.2134
101074.3423
100817.0503
100615.8202
100460.7026
100342.6914
100253.9343
100187.8202
100138.9483
100103.0234
100076.7112
100057.473
100043.4068
100033.1069
100025.5435
100019.9697
100015.8446
100012.7805
100010.4911
100008.7538
100007.509
100006.5867
100005.5417
100005.0593
100006.0501
125196.1083
125529.7427
125771.714
126053.4875
126319.2379
126567.8335
126783.6163
126942.8272
127027.211
127011.463
126874.7057
126596.5569
126162.2342
125562.4259
124795.1772
123865.5773
122785.343
121572.5019
120248.9716
118838.0722
117366.729
115862.553
114350.8455
112854.7209
111397.8753
109999.6317
108677.5732
107445.2802
106313.6647
105289.7765
104377.5713
103577.4742
102886.9731
102300.7336
101811.2398
101409.2596
101084.5377
100826.3725
100624.2169
100468.1311
100349.1394
100259.4272
100192.4181
100142.7361
100106.1011
100079.1833
100059.4407
100044.9629
100034.3328
100026.5084
100020.7308
100016.4485
100013.2646
100010.8813
100009.0782
100007.7966
100006.8118
100005.7414
100005.3587
100006.2034
127444.4512
127718.9936
127916.1551
128132.4451
128329.4597
128494.2838
128615.9392
128668.6005
128635.4922
128492.7576
128221.9561
127805.8203
127232.9744
126497.6175
125600.9534
124550.6592
123360.2936
122049.0179
120638.9256
119153.1654
117618.1986
116060.8418
114505.0908
112973.1888
111487.7148
110067.0128
108727.7028
107482.4835
106341.4583
105310.9509
104394.2662
103591.2608
102898.9367
102311.561
101821.3081
101418.7232
101093.4082
100834.5872
100631.6921
100474.7977
100354.963
100264.4133
100196.6088
100146.2
100108.9235
100081.4558
100061.2536
100046.3997
100035.4671
100027.4032
100021.4383
100017.0117
100013.7175
100011.2475
100009.3867
100008.0708
100007.0237
100005.9434
100005.647
100006.3535
129512.575
129726.7283
129879.405
130030.1919
130158.7664
130241.6804
130271.8474
130222.4235
130078.0514
129816.6017
129421.9042
128879.6223
128181.3281
127324.1943
126312.0113
125154.4876
123866.5798
122468.2703
120981.6785
119429.7201
117838.4493
116233.9949
114639.2043
113075.5567
111564.6946
110124.1289
108769.6253
107513.1087
106363.9575
105327.8428
104407.4751
103602.1896
102908.5393
102320.4235
101829.7307
101426.8024
101101.1119
100841.8198
100638.3441
100480.7793
100360.2213
100268.9378
100200.4264
100149.3655
100111.5095
100083.5426
100062.9215
100047.7239
100036.5145
100028.231
100022.0944
100017.5355
100014.1397
100011.5902
100009.6792
100008.3303
100007.2228
100006.1464
100005.9179
100006.5075
131386.4481
131540.6313
131652.0845
131740.8844
131804.0675
131809.8612
131754.0401
131609.6505
131362.6033
130992.5925
130485.5443
129829.7194
129019.2314
128053.7374
126939.1642
125686.8202
124312.7675
122837.6298
121283.442
119672.8299
118031.6576
116385.4389
114755.9696
113164.013
111630.5895
110172.4158
108804.5051
107538.1038
106381.9368
105341.0866
104417.7179
103610.6867
102916.1294
102327.6053
101836.738
101433.6828
101107.7975
100848.1886
100644.2663
100486.1486
100364.9708
100273.0439
100203.9036
100152.2571
100113.8773
100085.4571
100064.4544
100048.9429
100037.4802
100028.9955
100022.7014
100018.0214
100014.5322
100011.91
100009.9561
100008.5744
100007.4096
100006.3468
100006.1783
100006.6622
133062.4726
133161.8092
133235.2393
133267.1256
133269.2143
133204.1867
133069.6182
132839.0313
132499.2913
132031.8831
131424.5914
130667.9147
129758.1334
128696.9995
127492.2018
126156.33
124706.3827
123163.5097
121549.5375
119886.8874
118201.4461
116518.1365
114857.7264
113240.4857
111686.9763
110213.1602
108833.3958
107558.3343
106396.1092
105351.2706
104425.4801
103617.1519
102922.0354
102333.3745
101842.5481
101439.5408
101113.6066
100853.8062
100649.5477
100490.9755
100369.2658
100276.7734
100207.0726
100154.8991
100116.045
100087.2127
100065.862
100050.0637
100038.3691
100029.7001
100023.2618
100018.471
100014.8959
100012.2079
100010.2174
100008.8021
100007.5843
100006.5428
100006.4373
100006.8053
134551.6139
134599.4978
134635.4989
134615.8916
134562.2804
134433.8508