/*--------------------------------*- C++ -*----------------------------------*\
  =========                 |
  \\      /  F ield         | OpenFOAM: The Open Source CFD Toolbox
   \\    /   O peration     | Website:  https://openfoam.org
    \\  /    A nd           | Version:  12
     \\/     M anipulation  |
\*---------------------------------------------------------------------------*/
FoamFile
{
    format      ascii;
    class       surfaceScalarField;
    location    "400";
    object      phi;
}
// * * * * * * * * * * * * * * * * * * * * * * * * * * * * * * * * * * * * * //

dimensions      [1 0 -1 0 0 0 0];

internalField   nonuniform List<scalar> 
32120
(
-0.0006411874626
-0.0457700511
0.04641123856
-0.00144888149
-0.06502272126
0.0658304166
-0.00244797485
-0.08451999502
0.08551908928
-0.003653555019
-0.1073858062
0.1085913873
-0.004994383848
-0.1355200927
0.1368609226
-0.006269978499
-0.171300309
0.1725759053
-0.007416256439
-0.2175203594
0.21866664
-0.01022126678
-0.2741973976
0.2770024122
-0.01765915102
-0.3331665173
0.3406044081
-0.02790616732
-0.3973127946
0.40755982
-0.04013310417
-0.4729032785
0.4851302269
-0.0546459692
-0.5629863038
0.5774991828
-0.07189705852
-0.6701327974
0.687383903
-0.09240583226
-0.7977096664
0.818218459
-0.1167823473
-0.9495140809
0.9738906176
-0.1457579889
-1.130194172
1.159169838
-0.1801962397
-1.345174427
1.379612706
-0.2211292841
-1.600961397
1.641894472
-0.2697822655
-1.905234
1.953887015
-0.3276195474
-2.267127853
2.324965173
-0.3963858503
-2.697442136
2.766208477
-0.4781687149
-3.208950964
3.29073387
-0.575469919
-3.81673386
3.914035104
-0.6912991343
-4.538557994
4.654387253
-0.829290371
-5.395292325
5.533283597
-0.993844945
-6.411401005
6.575955619
-1.190302761
-7.615504476
7.811962315
-1.425133052
-9.04106201
9.275892323
-1.706123355
-10.72726112
11.00825144
-2.042526543
-12.72025142
13.05665465
-2.445127639
-15.0748887
15.47748984
-2.926242051
-17.85709315
18.33820763
-3.499744202
-21.14677825
21.7202805
-4.18126543
-25.04116301
25.72268431
-4.988681134
-29.65828795
30.46570374
-5.942837561
-35.14074969
36.0949062
-7.06842832
-41.65983468
42.78542552
-8.394800109
-49.42036768
50.74673959
-9.956620337
-58.66652769
60.22834799
-11.79430285
-69.68894077
71.52662344
-13.95423905
-82.83332094
84.99325718
-16.48878359
-98.5110557
101.0456004
-19.45592469
-117.2120832
120.1792243
-22.91844353
-139.5205617
142.9830807
-26.94222276
-166.1338154
170.1575946
-31.59322208
-197.8852819
202.5362813
-36.93237787
-235.7722345
241.1113902
-43.00739674
-280.9894176
287.0644366
-49.83992292
-334.9699422
341.8024684
-57.40592788
-399.4352234
407.0012284
-65.60620542
-476.4562103
484.6564878
-74.2225281
-568.5288283
577.145151
-82.85307209
-678.66744
687.297984
-90.81799771
-810.52122
818.4861457
-97.02223308
-968.520088
974.7243233
-99.75667815
-1158.058396
1160.792841
-96.41221138
-1385.72983
1382.385363
-83.06656705
-1659.63074
1646.285095
-53.89432319
-1989.721684
1960.549441
-2388.39306
2334.819952
-0.0005680470437
-0.04520200345
-0.001295470822
-0.06429529622
-0.002187179901
-0.08362828493
-0.003243686616
-0.1063292983
-0.00439543536
-0.1343683424
-0.005474524557
-0.1702212175
-0.006515064137
-0.216479816
-0.01026852454
-0.2704439311
-0.01757123122
-0.325863802
-0.02667197997
-0.3882120347
-0.0374936458
-0.4620815992
-0.05037323559
-0.5501066982
-0.06569595996
-0.6548100547
-0.08393049081
-0.7794751143
-0.1056258752
-0.9278186723
-0.1314431147
-1.104376905
-0.162161655
-1.314455856
-0.1987148983
-1.564408119
-0.2422112999
-1.861737561
-0.2939769607
-2.215362152
-0.3555951855
-2.63582387
-0.4289681255
-3.135577979
-0.516389478
-3.729312467
-0.6206366872
-4.43431074
-0.7450860249
-5.270842954
-0.8938546
-6.262632393
-1.071970325
-7.43738873
-1.28555621
-8.827476097
-1.541995033
-10.47082224
-1.850020663
-12.41222571
-2.219699512
-14.70520973
-2.66234313
-17.41444932
-3.190481018
-20.61864023
-3.818055481
-24.41358821
-4.560924123
-28.91541925
-5.437602391
-34.26407085
-6.470118373
-40.62731869
-7.684788934
-48.20569627
-9.112853612
-57.23846308
-10.79087825
-68.01091518
-12.76097348
-80.86322583
-15.07076715
-96.20126126
-17.77309385
-114.5097568
-20.92520222
-136.368453
-24.58720505
-162.4718126
-28.81932008
-193.6531665
-33.67723985
-230.9143145
-39.20468089
-275.4619763
-45.42174949
-328.7528733
-52.30715316
-392.5498195
-59.77144018
-468.991923
-67.61721572
-560.6830526
-75.48057664
-670.8040789
-82.74541809
-803.2563784
-88.4189113
-962.8465946
-90.95115466
-1155.526152
-87.97551039
-1388.705474
-75.93399701
-1671.672253
-49.54130122
-2016.114381
-2436.9163
-0.0004500098514
-0.0447519928
-0.001010897153
-0.06373440732
-0.001682180487
-0.08295700027
-0.002431132121
-0.1055803452
-0.00314459545
-0.1336548769
-0.003679832189
-0.1696859775
-0.004353248208
-0.2158063947
-0.00834179841
-0.2664553729
-0.01499863879
-0.3192069506
-0.02311143206
-0.3800992275
-0.03275491326
-0.4524381013
-0.04423105123
-0.5386305409
-0.05788324607
-0.6411578375
-0.07413027396
-0.7632280608
-0.09346015427
-0.9084887631
-0.1164628373
-1.081374189
-0.1438339485
-1.287084709
-0.1764093159
-1.531832713
-0.2151855
-1.822961336
-0.2613619381
-2.169185671
-0.3163804703
-2.580805295
-0.3819850431
-3.069973362
-0.4602921596
-3.651005313
-0.5538817852
-4.340721073
-0.6659142948
-5.158810419
-0.800279371
-6.128267289
-0.9617671376
-7.275900956
-1.15623588
-8.633007345
-1.390724155
-10.23633395
-1.673455346
-12.12949448
-2.013723795
-14.36494124
-2.421748397
-17.00642463
-2.90865631
-20.13173228
-3.486740743
-23.83550365
-4.170016374
-28.2321436
-4.974969276
-33.45911778
-5.921349661
-39.68093831
-7.032877129
-47.09416856
-8.337797202
-55.93354304
-9.869252684
-66.47945944
-11.66548037
-79.06699822
-13.76979261
-94.09694883
-16.23029251
-112.049257
-19.09914717
-133.4995983
-22.43118015
-159.1397798
-26.2813586
-189.8029879
-30.70059772
-226.4950755
-35.72900989
-270.433564
-41.38536585
-323.0965174
-47.65097741
-386.2842079
-54.44545542
-462.1974451
-61.59066527
-553.5378427
-68.75763427
-663.6371099
-75.38891546
-796.6250972
-80.58568157
-957.6498285
-82.94430211
-1153.167532
-80.32086768
-1391.328909
-69.49179709
-1682.501324
-45.66759261
-2039.938585
-2480.785767
-0.0003472013153
-0.04440479063
-0.0007654553903
-0.06331615153
-0.001249400508
-0.08247305373
-0.001730463257
-0.1050992808
-0.002038093812
-0.133347244
-0.002048021116
-0.1696760465
-0.002889111432
-0.2149652985
-0.006989626509
-0.2623548491
-0.01297353717
-0.3132230283
-0.0201428021
-0.3729299482
-0.02866451104
-0.4439163753
-0.03880822704
-0.528486805
-0.05087541408
-0.6290906276
-0.06523905335
-0.7488643955
-0.08233277393
-0.8913950131
-0.1026840205
-1.06102291
-0.1269166572
-1.262852037
-0.1557837408
-1.50296559
-0.190187158
-1.788557878
-0.2312172058
-2.128155579
-0.2801902903
-2.53183217
-0.3387062416
-3.011457367
-0.4087209371
-3.580990583
-0.492644307
-4.256797666
-0.5934682356
-5.057986471
-0.7149204006
-6.006815104
-0.8616231946
-7.129198157
-1.03921922
-8.455411322
-1.25440805
-10.02114511
-1.514854017
-11.86904848
-1.828993934
-14.05080129
-2.205882577
-16.62953593
-2.655245724
-19.6823691
-3.187835053
-23.30291424
-3.816033469
-27.60394516
-4.554579851
-32.72057128
-5.421273649
-38.81424449
-6.437583043
-46.07785902
-7.629118695
-54.74200738
-9.025962663
-65.0826153
-10.66285161
-77.4301093
-12.57917033
-92.18062998
-14.81869974
-109.8097277
-17.42896428
-130.8893336
-20.45995508
-156.108789
-23.96185663
-186.3010863
-27.9812506
-222.4756815
-32.55500869
-265.8598059
-37.70076059
-317.9507655
-43.4023162
-380.5826522
-49.58773208
-456.0120292
-56.09669709
-547.0288777
-62.63247092
-657.1013361
-68.69165203
-790.5659161
-73.46191475
-952.8795659
-75.67412307
-1150.955323
-73.38907008
-1393.613962
-63.69037529
-1692.200019
-42.24391741
-2061.385043
-2520.360512
-0.0002478386989
-0.04415695086
-0.0005171800788
-0.06304680838
-0.0008022396758
-0.08218799258
-0.001010319107
-0.1048911995
-0.0009255688441
-0.1334319916
-0.0004136224318
-0.1701879886
-0.001610385697
-0.2137685286
-0.005559838891
-0.2584053864
-0.01083536867
-0.3079474862
-0.01712328795
-0.366642014
-0.02460358265
-0.4364360632
-0.03351389884
-0.5195764687
-0.04412059043
-0.618483913
-0.05675651264
-0.7362284471
-0.07180785203
-0.8763436444
-0.08974617228
-1.043084557
-0.1111301233
-1.241468051
-0.1366351611
-1.477460515
-0.1670724065
-1.758120595
-0.2034261855
-2.09180176
-0.2468947674
-2.48836355
-0.2989520398
-2.959400054
-0.3614303466
-3.518512246
-0.4366266338
-4.181601345
-0.5274322132
-4.967180876
-0.6374771873
-5.896770116
-0.7712609598
-6.995414381
-0.9342188373
-8.292453447
-1.132669809
-9.822694129
-1.37363117
-11.62808709
-1.664585429
-13.75984698
-2.013376781
-16.28074452
-2.428381149
-19.26736468
-2.918962159
-22.81233317
-3.496100751
-27.02680652
-4.173057892
-32.04361406
-4.965971064
-38.02133129
-5.89435482
-45.14947515
-6.981493473
-53.65486871
-8.254730896
-63.80937776
-9.745639726
-75.93920047
-11.49003443
-90.43623518
-13.52775508
-107.7720071
-15.90208898
-128.5149997
-18.65862139
-153.3522566
-21.84318833
-183.1165193
-25.4984489
-218.820421
-29.65837471
-261.69988
-34.33964129
-313.2694989
-39.52846966
-375.3938239
-45.16080888
-450.37969
-51.09287525
-541.0968113
-57.057747
-651.1364644
-62.6018303
-785.0218328
-66.99251729
-948.4888789
-69.08444422
-1148.863396
-67.12670711
-1395.571699
-58.48534379
-1700.841382
-39.24475311
-2080.625634
-2555.965632
-0.0001621811483
-0.04399476857
-0.0002938778723
-0.06291510984
-0.0003880106314
-0.08209385819
-0.0003246832768
-0.1049545248
0.0001255330813
-0.133882205
0.0009233590301
-0.1709858099
-0.0005730362489
-0.2122721262
-0.004144741269
-0.2548336715
-0.00877336016
-0.3033188549
-0.01428259871
-0.3611327607
-0.02083831956
-0.4298803252
-0.02865050094
-0.5117642675
-0.03795198479
-0.6091824065
-0.049036706
-0.7251437004
-0.06224480115
-0.8631355209
-0.07799292812
-1.027336399
-0.09677656748
-1.222684378
-0.1191978683
-1.455039178
-0.1459868403
-1.731331587
-0.1780403773
-2.059748185
-0.2164683032
-2.449935591
-0.2626613994
-2.913206922
-0.3183795157
-3.462794105
-0.3858589664
-4.114121865
-0.4679361135
-4.885103716
-0.5681745036
-5.796531718
-0.6909576777
-6.872631203
-0.8414830135
-8.141928106
-1.025608378
-9.63856875
-1.249595467
-11.40409997
-1.519893336
-13.48954907
-1.843145335
-15.95749248
-2.22649444
-18.88401553
-2.67811404
-22.36071352
-3.207817084
-26.49710344
-3.827626956
-31.42380414
-4.552257768
-37.29670044
-5.399512872
-44.30221997
-6.390607307
-52.66377424
-7.550424645
-62.64956033
-8.907677249
-74.58194785
-10.4949383
-88.84897406
-12.34846296
-105.9184824
-14.50768165
-126.3557809
-17.01417692
-150.8457614
-19.90984255
-180.2208536
-23.23380204
-215.4964615
-27.01744639
-257.9162356
-31.2766835
-309.0102618
-36.00007364
-370.6704337
-41.13097638
-445.2487873
-46.54097929
-535.6868084
-51.99074064
-645.686703
-57.07271767
-779.9398557
-61.12780941
-944.4337872
-63.1246858
-1146.86652
-61.48582683
-1397.210558
-53.83712338
-1708.490086
-36.64794151
-2097.814816
-2587.894928
-8.925254283e-05
-0.04390551501
-9.607277898e-05
-0.06290828812
-2.971590748e-06
-0.082186958
0.0003519480106
-0.1053094426
0.001210875157
-0.1347411295
0.001922890832
-0.1716978215
0.0002514034017
-0.2106006327
-0.003045071765
-0.2515371883
-0.007067451109
-0.2992964656
-0.01185406011
-0.35634614
-0.01754789751
-0.4241864742
-0.02433302178
-0.5049791276
-0.03241100765
-0.6011044029
-0.04203880332
-0.7155158846
-0.05351461708
-0.8516596849
-0.06720612855
-1.013644863
-0.08355557549
-1.206334905
-0.1031074527
-1.435487273
-0.1265323585
-1.707906653
-0.1546699176
-2.031610595
-0.1885764304
-2.416029052
-0.2295927996
-2.872190523
-0.2794349847
-3.4129519
-0.3403045098
-4.053252317
-0.4150086265
-4.810399591
-0.5070614661
-5.704478876
-0.6207173214
-6.75897534
-0.7608706466
-8.001774769
-0.9328078871
-9.466631484
-1.14192884
-11.19497897
-1.393617436
-13.23786043
-1.693396441
-15.65771342
-2.04735041
-18.53006152
-2.462681114
-21.94538278
-2.948252973
-26.01153154
-3.515053532
-30.85700353
-4.176564238
-36.63518969
-4.949071978
-43.52971216
-5.851937202
-51.76090898
-6.907822873
-61.59367459
-8.14285373
-73.34691697
-9.586662222
-87.40516552
-11.27224983
-104.2328948
-13.23554903
-124.3924817
-15.51451387
-148.5667965
-18.14747901
-177.5878885
-21.17039625
-212.4735442
-24.61238294
-254.4742489
-28.48875575
-305.133889
-32.79037318
-366.3688162
-37.46757266
-440.5715878
-42.40627293
-530.7481081
-47.39273912
-640.7002369
-52.06201914
-775.2705757
-55.82290223
-940.6729041
-57.74928224
-1144.94014
-56.42341706
-1398.536423
-49.71055432
-1715.202948
-34.43448177
-2113.090888
-2616.413302
-2.844977725e-05
-0.04387706421
7.603638668e-05
-0.06301277282
0.0003572954765
-0.0824682157
0.001013627366
-0.1059657727
0.002288855932
-0.1360163553
0.002705550668
-0.172114512
0.0007778458753
-0.208672922
-0.002146309004
-0.2486130257
-0.005567622058
-0.2958751432
-0.009647938466
-0.3522658126
-0.01450733449
-0.4193270655
-0.02030717539
-0.4991792723
-0.02722313406
-0.5941884279
-0.03548135649
-0.7072576439
-0.04534653951
-0.8417944819
-0.05714764281
-1.001843738
-0.07128628149
-1.192196243
-0.08826335119
-1.418510178
-0.1087061588
-1.687463822
-0.1334130787
-2.00690365
-0.1634045236
-2.386037585
-0.1999929245
-2.835602097
-0.244876257
-3.368068552
-0.300250215
-3.997878342
-0.3689197819
-4.741730016
-0.4543550606
-5.619043596
-0.5606332465
-6.652697146
-0.6922385476
-7.870169448
-0.8537609071
-9.305109093
-1.049667617
-10.99907222
-1.284317275
-13.00321073
-1.562260688
-15.37976997
-1.888732758
-18.20358941
-2.270176846
-21.56393865
-2.714694657
-25.5670137
-3.232396605
-30.33930154
-3.83567848
-36.03190779
-4.53946637
-42.82592422
-5.361445159
-50.93893017
-6.322269238
-60.63285045
-7.445718684
-72.22346751
-8.758764898
-86.09211926
-10.29146306
-102.7001967
-12.0765811
-122.6073636
-14.14879869
-146.4945789
-16.54325111
-175.193436
-19.29306402
-209.7237313
-22.42537035
-251.3419426
-25.95507766
-301.6041817
-29.87531214
-362.4485817
-34.14302029
-436.3038796
-38.65752754
-526.2336008
-43.22890743
-636.128857
-47.53170454
-770.9677786
-51.0375211
-937.1670876
-52.91743529
-1143.060226
-51.90118218
-1399.552676
-46.07470645
-1721.029424
-32.58842098
-2126.577174
-2641.758985
2.301914256e-05
-0.0439000826
0.0002387058822
-0.06322845831
0.0007201033874
-0.08294961202
0.00167492918
-0.106920597
0.003212533359
-0.1375539572
0.00333960508
-0.1722415803
0.001418861355
-0.2067521735
-0.001016636924
-0.2461775214
-0.003903738164
-0.2929880347
-0.007352531537
-0.3488170106
-0.0114631567
-0.4152164304
-0.0163772702
-0.4942651474
-0.0222497361
-0.5883159491
-0.02928265367
-0.7002247119
-0.03771564563
-0.833361474
-0.04784854002
-0.9917108259
-0.06005262319
-1.179992142
-0.07479573711
-1.403767044
-0.09267010902
-1.66958943
-0.1144400571
-1.98513368
-0.1411042118
-2.359373414
-0.173977069
-2.802729221
-0.214782003
-3.327263608
-0.2657465809
-3.946913752
-0.3296825845
-4.677794005
-0.4099790997
-5.538747077
-0.5104390382
-6.552237196
-0.6350016888
-7.745606772
-0.7874586497
-9.152652096
-0.9713434662
-10.81518736
-1.190106492
-12.78444766
-1.447522746
-15.12235367
-1.748189419
-17.90292269
-2.097975376
-21.21415265
-2.504363917
-25.16062512
-2.976705165
-29.86696026
-3.526421241
-35.48219168
-4.167204214
-42.1851412
-4.915217758
-50.1909166
-5.789294384
-59.75877378
-6.811094214
-71.20166765
-8.005181671
-84.89803177
-9.398953953
-101.3064244
-11.02232608
-120.9839915
-12.90703704
-144.6098679
-15.08536198
-173.015111
-17.58792529
-207.2211679
-20.44015726
-248.4897106
-23.65673158
-298.3876073
-27.23303914
-358.8722741
-31.1323172
-432.4046015
-35.26647441
-522.0994436
-39.46780213
-631.9275293
-43.44752524
-766.9880555
-46.73547485
-933.879138
-48.59264992
-1141.203051
-47.88508988
-1400.260236
-42.90249355
-1726.01202
-31.09666005
-2138.383007
-2664.145463
7.296741456e-05
-0.0439730493
0.0004114687046
-0.06356695827
0.001110430505
-0.08364857255
0.002393159473
-0.1082033243
0.003914396865
-0.1390751921
0.003438767881
-0.1717659477
0.001805433848
-0.2051188347
-0.0002133348415
-0.2441587467
-0.002606524854
-0.2905948374
-0.005473616502
-0.3459499106
-0.008899599371
-0.4117904379
-0.01300944088
-0.4901552949
-0.01794098052
-0.5833843971
-0.0238753605
-0.6942903181
-0.03103027433
-0.8262065453
-0.03968195102
-0.9830591328
-0.05017862814
-1.169495448
-0.0629667554
-1.390978899
-0.07862008908
-1.65393608
-0.09789279967
-1.965860951
-0.1217890437
-2.335477157
-0.1516539081
-2.772864341
-0.189268282
-3.289649227
-0.2369108249
-3.899271204
-0.2973717919
-4.61733303
-0.37386968
-5.462249181
-0.4698028668
-6.456303993
-0.5884445708
-7.62696504
-0.7327496456
-9.008346986
-0.9053994269
-10.64253754
-1.109112696
-12.58073435
-1.347098746
-14.88436758
-1.623504905
-17.6265165
-1.943766976
-20.89389055
-2.314851448
-24.78954062
-2.745431476
-29.4363802
-3.246042023
-34.98158111
-3.829247779
-41.60193541
-4.509827325
-49.51033703
-5.304962408
-58.96363866
-6.234397054
-70.27223299
-7.32052724
-83.81190156
-8.588358483
-100.0385931
-10.06524766
-119.5071023
-11.78030345
-142.8948121
-13.76326278
-171.0321517
-16.04256018
-204.9418705
-18.64218942
-245.8900813
-21.57677314
-295.4530236
-24.84397725
-355.60507
-28.41306226
-428.8355165
-32.2078029
-518.304703
-36.08126839
-628.0540638
-39.77886014
-763.2904637
-42.88448896
-930.7735092
-44.74252864
-1139.345011
-44.34515882
-1400.657606
-40.17051237
-1730.186667
-29.94883481
-2148.604685
-2683.763299
0.0001247725535
-0.04409782115
0.0005937782013
-0.06403596257
0.001508162509
-0.08456295554
0.003118284088
-0.1098134441
0.004426969638
-0.1403838752
0.003678825935
-0.1710178005
0.00227507304
-0.2037150772
0.0006068992894
-0.2424905672
-0.001377998547
-0.2886099328
-0.003764838394
-0.3435630628
-0.00662533875
-0.4089299285
-0.01006692608
-0.4867136972
-0.01420813882
-0.5792431728
-0.01920563088
-0.6892928132
-0.02525358657
-0.8201585758
-0.03261270905
-0.9756999953
-0.04161499045
-1.160493151
-0.05269918675
-1.379894686
-0.0664559387
-1.640179314
-0.08367364827
-1.948643226
-0.1053991633
-2.313751631
-0.1330221904
-2.745241302
-0.1683750711
-3.254296342
-0.2137705349
-3.853875739
-0.2719147691
-4.55918879
-0.3457326748
-5.388431262
-0.4380892018
-6.363947446
-0.5515246736
-7.513529539
-0.6882003709
-8.871671251
-0.8500965104
-10.48064136
-1.039403324
-12.39142749
-1.258956895
-14.66481396
-1.512600178
-17.37287318
-1.805432533
-20.60105816
-2.143969997
-24.45100313
-2.536267516
-29.04408265
-2.99204361
-34.525805
-3.522829583
-41.0711494
-4.14214379
-48.8910228
-4.865673487
-58.24010893
-5.71143721
-69.42646924
-6.699883856
-82.82345489
-7.853877151
-98.88459979
-9.198490056
-118.1624894
-10.76049771
-141.3328045
-12.56740032
-169.2252491
-14.64573719
-202.8635336
-17.01832942
-243.5174891
-19.69992569
-292.7714273
-22.69050217
-352.6144935
-25.96512177
-425.5608969
-29.4587932
-514.8110315
-33.0441016
-624.4687554
-36.49837718
-759.8361881
-39.45587281
-927.8160135
-41.3384068
-1137.462477
-41.25516403
-1400.740849
-37.85879507
-1733.583036
-29.1372059
-2157.326274
-2700.781741
0.0001708319851
-0.04426865233
0.0007746120857
-0.06463974107
0.001897246824
-0.08568558869
0.003707621068
-0.1116238163
0.004625798202
-0.1413020493
0.003878362283
-0.1702703605
0.002720767662
-0.2025574773
0.001343558741
-0.2411133519
-0.0002939488801
-0.2869724177
-0.002262516497
-0.3415944865
-0.004623097051
-0.406569338
-0.007468752237
-0.4838680309
-0.01090606411
-0.5758058487
-0.01507923235
-0.6851196315
-0.02017417028
-0.8150636237
-0.02643723754
-0.9694369129
-0.03419741175
-1.152732962
-0.04389803343
-1.370194049
-0.05616414571
-1.627913188
-0.07183090563
-1.932976452
-0.09202265354
-2.293559875
-0.1181973736
-2.719066573
-0.1522149501
-3.22027876
-0.196358702
-3.809731985
-0.2531554203
-4.502392067
-0.3251107382
-5.316475932
-0.4144652275
-6.274592936
-0.5230344068
-7.404960332
-0.6523043851
-8.742401238
-0.8037435759
-10.32920213
-0.9792086804
-12.21596235
-1.181315297
-14.46270731
-1.413700449
-17.140488
-1.681185233
-20.33357335
-1.989876043
-24.14231229
-2.34725418
-28.68670449
-2.762283013
-34.11077615
-3.2455478
-40.58788458
-3.809422674
-48.32714791
-4.468248338
-57.58128323
-5.23849467
-68.6562229
-6.138869681
-81.92307985
-7.190330906
-97.83313855
-8.415926993
-116.9368933
-9.840374959
-139.9083565
-11.48922752
-167.5763965
-13.38741326
-200.9653478
-15.55683078
-241.3480715
-18.01254035
-290.3157177
-20.75687869
-349.8701552
-23.77053684
-422.5472387
-26.9992218
-511.5823465
-30.33389983
-621.1340773
-33.58182992
-756.588258
-36.42428103
-924.9735624
-38.35517196
-1135.531586
-38.59243266
-1400.503588
-35.95064577
-1736.224823
-28.6565678
-2164.620352
-2715.350113
0.0002275318105
-0.04449618332
0.0009903315124
-0.06540253939
0.002364252341
-0.08705950807
0.004207082544
-0.1134666445
0.004510355002
-0.141605319
0.00379707669
-0.1695570786
0.00291699145
-0.2016773877
0.001869952474
-0.2400663076
0.0006127821095
-0.2857152411
-0.0009160008387
-0.3400656963
-0.002773216604
-0.404712114
-0.005046523232
-0.481594715
-0.007840158402
-0.5730122034
-0.01129614671
-0.6816636321
-0.01560076675
-0.810758992
-0.02099814727
-0.9640395199
-0.02782719506
-1.145903903
-0.0365536401
-1.361467591
-0.04781407686
-1.616652741
-0.06248841224
-1.918302106
-0.081793233
-2.274255048
-0.1072804216
-2.693579379
-0.1408179718
-3.186741205
-0.1845523548
-3.765997597
-0.2407096285
-4.446234785
-0.3112811631
-5.245904382
-0.3978553627
-6.188018715
-0.5016063204
-7.301209347
-0.6235131609
-8.620494363
-0.764725531
-10.18798972
-0.9269269665
-12.05376088
-1.112617182
-14.27701706
-1.325283642
-16.92782151
-1.569499354
-20.08935761
-1.850987181
-23.86082444
-2.176691982
-28.36099966
-2.554880292
-33.73258782
-2.995274499
-40.14749035
-3.509214813
-47.81320758
-4.109835004
-56.98066302
-4.812222311
-67.95383557
-5.633540218
-81.10176193
-6.593058838
-96.87361992
-7.712045956
-115.8179062
-9.013425196
-138.6069772
-10.52107581
-166.0687459
-12.25858635
-199.2278373
-14.24718157
-239.3594763
-16.50241936
-288.0604799
-19.02906757
-347.3435069
-21.8133161
-419.7629902
-24.81110273
-508.5845599
-27.93081054
-618.0143695
-31.00784784
-753.5112207
-33.76749483
-922.2139154
-35.77100735
-1133.528074
-36.33760482
-1399.936991
-34.43247147
-1738.129956
-28.50420246
-2170.548621
-2727.599154
0.0002859329497
-0.04478211529
0.001213112317
-0.06632971707
0.002835020148
-0.08868141412
0.004564976812
-0.1151965988
0.004596855496
-0.1416371945
0.004065100765
-0.1690253198
0.003405830526
-0.2010181124
0.002609078321
-0.2392695494
0.001638220158
-0.2847443759
0.0004384004808
-0.3388658686
-0.001042558736
-0.4032311458
-0.002886058978
-0.4797512049
-0.005192721218
-0.5707055305
-0.008101436139
-0.6787549059
-0.0118007765
-0.8070596401
-0.01655059326
-0.9592896912
-0.02271489086
-1.139739594
-0.03080191134
-1.353380559
-0.04150345112
-1.605951193
-0.05577142115
-1.904034126
-0.07484900371
-2.25517746
-0.1003570862
-2.668071292
-0.1341390181
-3.152959269
-0.1780899697
-3.722046641
-0.2340181062
-4.390306642
-0.3033572458
-5.176565229
-0.3870889546
-6.104286985
-0.4858872411
-7.202411035
-0.6004096952
-8.505971879
-0.7316531328
-10.05674625
-0.8812411355
-11.90417284
-1.051616914
-14.10664125
-1.246143736
-16.73329466
-1.469160032
-19.86634129
-1.726024571
-23.60395988
-2.023181839
-28.06384238
-2.368258585
-33.38751106
-2.770195807
-39.7455531
-3.239406958
-47.34399642
-3.787949131
-56.43212082
-4.429686673
-67.31209802
-5.180420309
-80.35102827
-6.057941277
-95.99609894
-7.081969362
-114.7938781
-8.27388264
-137.4150639
-9.656150098
-164.6864784
-11.25128252
-197.6327048
-13.08007472
-237.5306841
-15.15877257
-285.981782
-17.49466536
-345.0076141
-20.0793521
-417.1783034
-22.87862117
-505.7852908
-25.81742895
-615.0755617
-28.75774705
-750.5709026
-31.4662443
-919.5054182
-33.56721402
-1131.427104
-34.47448793
-1399.029717
-33.29365427
-1739.31079
-28.67978135
-2175.162494
-2737.642114
0.0003561042598
-0.04513821881
0.001455888983
-0.06742950057
0.003220503182
-0.090446027
0.004626013834
-0.1166021078
0.004553548651
-0.1415647271
0.004129248299
-0.1686010165
0.003629130067
-0.2005179907
0.003019092284
-0.2386595075
0.002271524737
-0.2839968036
0.0013376861
-0.3379320245
0.0001685034306
-0.402061957
-0.001313695134
-0.4782689994
-0.003212370529
-0.5688068475
-0.005673835478
-0.6762934326
-0.008905101235
-0.8038283659
-0.01319650001
-0.9549982833
-0.01895468424
-1.133981401
-0.02673937134
-1.345595863
-0.03731862512
-1.595371932
-0.05171720361
-1.88963554
-0.07122253594
-2.235672123
-0.09738749404
-2.641906331
-0.1319521059
-3.118394651
-0.17648469
-3.677514048
-0.232297787
-4.334493534
-0.3002809913
-5.10858201
-0.3809216058
-6.02364635
-0.474564206
-7.108768411
-0.5817136831
-8.398822371
-0.7033355978
-9.935124309
-0.8410597894
-11.76644862
-0.9972975555
-13.95040346
-1.175293965
-16.55529823
-1.379159596
-19.66247564
-1.613907975
-23.36921149
-1.885520092
-27.79223024
-2.201041552
-33.07198959
-2.568712026
-39.37788261
-2.998120855
-46.91458758
-3.500374867
-55.92986678
-4.088265617
-66.72420726
-4.776403728
-79.66289015
-5.581301481
-95.19120117
-6.521345781
-113.8538338
-7.616611886
-136.3197978
-8.888408848
-163.4146814
-10.35842597
-196.1626877
-12.04726641
-235.8418436
-13.97206342
-284.056985
-16.14273645
-342.8369411
-18.5562456
-414.7647942
-21.18792668
-503.1536097
-23.97856788
-612.2849205
-26.81536703
-747.7341035
-29.50400428
-916.816781
-31.72802425
-1129.203084
-32.98989365
-1397.767847
-32.5264244
-1739.774259
-29.18537492
-2178.503544
-2745.575786
0.0004705195759
-0.04560873751
0.001749505162
-0.06870848452
0.00352594821
-0.09222246829
0.004325140043
-0.1174012973
0.004180364338
-0.1414199485
0.003903136219
-0.1683237848
0.00358106271
-0.2001959128
0.003169832019
-0.2382482718
0.002646574821
-0.2834735406
0.001963314361
-0.3372487576
0.001066752799
-0.4011653882
-0.0001250977309
-0.477077141
-0.001725895434
-0.5672060416
-0.003896710566
-0.6741226089
-0.006868022151
-0.8008570458
-0.0109676635
-0.9508986333
-0.01664970088
-1.128299356
-0.02453737953
-1.337708177
-0.03546143806
-1.584447868
-0.05049624277
-1.874600729
-0.07096306746
-2.215205293
-0.09829792823
-2.614571466
-0.1339584258
-3.082734151
-0.1791654692
-3.632306999
-0.2347154859
-4.278943508
-0.3010271355
-5.042270348
-0.3782498694
-5.946423597
-0.4665632903
-7.020454968
-0.5664491223
-8.298936513
-0.6789157614
-9.822657643
-0.805627045
-11.63973731
-0.9489652953
-13.80706518
-1.112054924
-16.39220858
-1.29878424
-19.47574631
-1.513843055
-23.15415265
-1.762789114
-27.54328416
-2.052146037
-32.78263266
-2.389531586
-39.04049704
-2.783810406
-46.52030875
-3.245261358
-55.46841581
-3.78574356
-66.18372505
-4.418845319
-79.02978838
-5.159984769
-94.45006171
-6.026429562
-112.9873889
-7.037177944
-135.3090494
-8.212624237
-162.2392351
-9.573885497
-194.8014264
-11.14161304
-234.2741161
-12.93403053
-282.2645675
-14.96381688
-340.8071547
-17.23328691
-412.4953242
-19.72707799
-500.6598186
-22.40122286
-609.6107756
-25.16694249
-744.9683838
-27.86689529
-914.1168282
-30.24047905
-1126.8295
-31.87348887
-1396.134838
-32.12576897
-1739.521979
-30.02535225
-2180.60396
-2751.481389
0.0006427194723
-0.04625145639
0.002069862644
-0.0701356263
0.003768211792
-0.09392081599
0.004318272652
-0.1179513564
0.004241633474
-0.141343307
0.004070732885
-0.1681528814
0.003867540795
-0.1999927173
0.003583318821
-0.2379640459
0.003193812894
-0.2830840301
0.002649096213
-0.3367040357
0.001889662208
-0.4004059484
0.0008254050247
-0.4760128774
-0.0006698846951
-0.565710745
-0.00277554829
-0.6720169379
-0.005748895316
-0.7978836915
-0.009951131104
-0.94669639
-0.01589108455
-1.122359396
-0.02426851026
-1.329330744
-0.03598331359
-1.572733059
-0.05213015594
-1.85845388
-0.07396590844
-2.193369532
-0.1027687658
-2.585768602
-0.1396132939
-3.045889614
-0.1853380371
-3.586582245
-0.2402817179
-4.223999816
-0.304517467
-4.978034585
-0.3780173804
-5.872923665
-0.4609280152
-6.937544314
-0.553790648
-8.206073856
-0.6576903236
-9.718757942
-0.7743280125
-11.5230996
-0.9060487042
-13.67534446
-1.055852429
-16.24240483
-1.227414471
-19.30418425
-1.425126325
-22.95644079
-1.654165429
-27.31424504
-1.920593885
-32.51620419
-2.231486105
-38.7296048
-2.595078862
-46.15671599
-3.020938636
-55.04255602
-3.520129607
-65.68453407
-4.105375336
-78.44454264
-4.791180549
-93.76425649
-5.593893767
-112.1846757
-6.531658762
-134.3712844
-7.624191324
-161.1467025
-8.892281268
-193.5333365
-10.35686872
-232.8095286
-12.03748071
-280.5839555
-13.949704
-338.8949314
-16.10123916
-410.343789
-18.48586221
-498.2751956
-21.07434172
-607.0222961
-23.80093118
-742.2417944
-26.54346475
-911.3742946
-29.0942444
-1124.278721
-31.11767021
-1394.111412
-32.08930529
-1738.550344
-31.20641508
-2181.486851
-2755.425351
0.0008654147525
-0.04711687025
0.002361857424
-0.07163206724
0.003901427891
-0.0954603846
0.004326805881
-0.1183767321
0.004255327623
-0.1412718259
0.004137246374
-0.1680347967
0.003987954064
-0.199843421
0.003759779157
-0.2377358663
0.003426126303
-0.282750372
0.002934204307
-0.3362121078
0.00221646446
-0.3996882022
0.001171465512
-0.4749678717
-0.0003466130163
-0.5641926595
-0.002546878312
-0.6698166654
-0.005728340696
-0.7947022222
-0.01030528714
-0.9421194365
-0.01684658796
-1.115818089
-0.02609856923
-1.320078756
-0.03900718871
-1.559824433
-0.05664119511
-1.840819867
-0.08011581472
-2.169894905
-0.110446865
-2.555437544
-0.1483466742
-3.0079898
-0.1942367524
-3.540692162
-0.2481298918
-4.170106667
-0.3098963871
-4.916268078
-0.379462873
-5.803357162
-0.4570327481
-6.859974421
-0.5432483122
-8.11985827
-0.6392771725
-9.622729059
-0.74684687
-11.41552988
-0.8682547671
-13.55393655
-1.006375832
-16.10428375
-1.164686225
-19.14587384
-1.347308846
-22.77381815
-1.559086196
-27.10246768
-1.805680426
-32.26960996
-2.093699576
-38.44158564
-2.430847273
-45.81956828
-2.826088326
-54.64731496
-3.289825739
-65.22079665
-3.834067951
-77.90030041
-4.472579715
-93.12574472
-5.220986065
-111.4362694
-6.096790603
-133.4954798
-7.119263859
-160.1242293
-8.30911058