/*--------------------------------*- C++ -*----------------------------------*\
  =========                 |
  \\      /  F ield         | OpenFOAM: The Open Source CFD Toolbox
   \\    /   O peration     | Website:  https://openfoam.org
    \\  /    A nd           | Version:  12
     \\/     M anipulation  |
\*---------------------------------------------------------------------------*/
FoamFile
{
    format      ascii;
    class       volVectorField;
    location    "400";
    object      U;
}
// * * * * * * * * * * * * * * * * * * * * * * * * * * * * * * * * * * * * * //

dimensions      [0 1 -1 0 0 0 0];

internalField   nonuniform List<vector> 
16200
(
(181.7220823 -7.342402308e-17 -1.483103405)
(216.5863857 3.549548299e-17 -1.405720578)
(236.1615118 -2.467558723e-20 -1.576747935)
(251.5289259 0 -1.744542026)
(265.7259992 0 -1.927938788)
(280.4111818 -2.522497544e-17 -2.14897945)
(295.8058291 2.883881134e-17 -2.454622683)
(308.4161223 6.239907231e-17 -2.828637562)
(312.3743763 -1.21806292e-16 -2.971277545)
(312.401275 1.092329395e-16 -2.956144167)
(312.0787811 -4.66055076e-17 -3.0237034)
(311.7763056 0 -3.011775472)
(311.4034562 0 -3.089906286)
(310.993335 -5.42966051e-17 -3.106551763)
(310.5104982 4.533248729e-17 -3.185398658)
(309.9592878 0 -3.238164217)
(309.3181747 0 -3.328482105)
(308.5766122 8.314792662e-19 -3.418575958)
(307.7146848 4.500346615e-17 -3.53499428)
(306.7134608 -3.654851432e-17 -3.665718369)
(305.5496169 0 -3.820393364)
(304.1979338 -2.52409663e-17 -3.996093721)
(302.630739 2.259223788e-17 -4.194797088)
(300.8188257 3.844747438e-17 -4.413329344)
(298.733092 -3.230351062e-17 -4.646565407)
(296.347415 -2.762106422e-17 -4.883947033)
(293.6428102 2.3228025e-17 -5.108856237)
(290.6135467 0 -5.297070712)
(287.2749369 0 -5.417126738)
(283.6713864 5.80311028e-17 -5.433326504)
(279.8813692 -3.658388664e-17 -5.313075313)
(276.0147663 -1.051965418e-17 -5.037374556)
(272.2005199 0 -4.610310447)
(268.5671731 -4.626227267e-17 -4.062074269)
(265.2235925 5.19542422e-17 -3.442869112)
(262.245966 -8.930075157e-17 -2.810283149)
(259.6740899 7.529087445e-17 -2.21565836)
(257.5145116 0 -1.6947378)
(255.7476901 0 -1.264750602)
(254.3362186 0 -0.9269159749)
(253.2325789 7.76641225e-17 -0.6718372798)
(252.3859749 -1.311669437e-16 -0.4850015938)
(251.7471574 1.103666449e-16 -0.351044485)
(251.271852 0 -0.2561843478)
(250.9222263 1.568542951e-16 -0.1892916969)
(250.6674253 -1.319734099e-16 -0.141963818)
(250.4830408 -4.095559387e-20 -0.1081542745)
(250.3503456 1.871641549e-16 -0.08365108546)
(250.255217 -3.153604067e-16 -0.06557899996)
(250.1872154 2.656204425e-16 -0.05199273261)
(250.1386854 2.239158861e-16 -0.0415778051)
(250.104056 3.777601493e-16 -0.03344077561)
(250.0793151 -3.188445367e-16 -0.02696908552)
(250.0615056 8.082383085e-16 -0.0217381968)
(250.0486064 -4.557944114e-16 -0.01745626317)
(250.0387208 0 -0.01391956153)
(250.0314137 1.638508366e-16 -0.01092839904)
(250.0246578 0 -0.00857121955)
(250.0201364 -4.753411279e-16 -0.00533521328)
(250.0126524 -3.971138404e-19 -0.006601593379)
(185.2952535 -1.551664802e-16 -4.101113121)
(221.1174146 1.518908388e-16 -4.346571527)
(241.2047654 -5.491541802e-17 -4.831447396)
(256.9908576 -4.915083749e-17 -5.211437379)
(271.6821741 5.056186867e-17 -5.592901676)
(286.976478 0 -6.024633945)
(302.512546 0 -6.569301556)
(312.9572554 6.73109231e-17 -7.010098366)
(315.1184023 -6.311446899e-17 -7.113933601)
(314.986397 0 -7.085112657)
(314.6436788 0 -7.166062012)
(314.319754 0 -7.14383217)
(313.9201808 -6.7323906e-17 -7.22726243)
(313.4791508 5.619453877e-17 -7.237638005)
(312.9577148 -1.44253449e-18 -7.315532786)
(312.3601451 -1.209088134e-18 -7.362582205)
(311.662859 0 -7.44671717)
(310.8537718 -2.564067044e-18 -7.527578168)
(309.9109144 0 -7.631483186)
(308.8131091 1.198510431e-18 -7.745589316)
(307.5346659 4.071105204e-18 -7.878119573)
(306.0478685 -2.93732613e-17 -8.024888789)
(304.3227968 -1.771602818e-17 -8.185556091)
(302.3284702 3.925300335e-17 -8.354175581)
(300.0349762 0 -8.52174976)
(297.4171037 7.077813601e-18 -8.672919438)
(294.4596373 -1.203886655e-17 -8.785108422)
(291.1649702 0 -8.82727765)
(287.5622435 -3.518367422e-17 -8.761228496)
(283.7152145 1.469355375e-17 -8.546764589)
(279.7241149 -3.828302529e-17 -8.151908611)
(275.7169885 1.088985306e-17 -7.565394848)
(271.8310237 -3.728106726e-17 -6.805662672)
(268.1901261 -1.5874362e-17 -5.920734333)
(264.8876482 0 -4.978046544)
(261.9790274 4.62459074e-17 -4.048663035)
(259.4843153 -3.898385388e-17 -3.192438281)
(257.3953761 0 -2.448964133)
(255.6847597 1.125000288e-16 -1.835622271)
(254.3127506 -9.510744456e-17 -1.351161373)
(253.2335748 8.03169571e-17 -0.982003942)
(252.3997761 2.710252982e-16 -0.7085993576)
(251.7659037 -1.140284624e-16 -0.5103695742)
(251.2907889 0 -0.3686698801)
(250.9389522 4.855900555e-16 -0.268152632)
(250.6810174 -5.446563258e-16 -0.1969688353)
(250.4934575 -3.436813019e-16 -0.146380545)
(250.3579497 3.855125976e-16 -0.1101469384)
(250.2605344 0 -0.08390627802)
(250.1907673 -2.728269334e-16 -0.0646443058)
(250.1409317 2.295570551e-16 -0.0502916065)
(250.1053822 5.796600466e-16 -0.03942403315)
(250.0800091 3.253832052e-16 -0.0310599712)
(250.0618177 -2.740754863e-16 -0.02451132534)
(250.048648 9.239947356e-16 -0.01932018722)
(250.0387105 -7.793083765e-16 -0.01513450688)
(250.0312314 -4.933757916e-16 -0.01171489601)
(250.0245867 5.558564408e-16 -0.009087657811)
(250.0199776 1.058112619e-15 -0.005539780424)
(250.0121394 9.803898229e-17 -0.006722202956)
(188.7558821 -1.604161506e-19 -6.794500527)
(225.5341439 1.630890638e-16 -7.532995836)
(246.1392044 -2.382315411e-16 -8.316431419)
(262.3730222 1.080750126e-16 -8.934756853)
(277.6063827 1.131064881e-16 -9.546113986)
(293.4529435 -2.550313482e-16 -10.22593971)
(308.7174492 2.831783136e-16 -11.0239398)
(316.4266124 3.686000823e-19 -11.44573465)
(317.3079364 -2.665362433e-16 -11.52988739)
(317.06046 1.163269548e-16 -11.48288149)
(316.6979096 0 -11.57234744)
(316.3480842 7.986867035e-17 -11.53473812)
(315.9139552 -6.660449016e-17 -11.61768935)
(315.4332871 -2.652513121e-18 -11.61710033)
(314.8637166 4.896999583e-17 -11.68761033)
(314.2092227 3.825043285e-18 -11.72370485)
(313.4442171 -3.33363616e-17 -11.79560805)
(312.554913 1.75954961e-18 -11.86205978)
(311.5172598 -4.73070743e-17 -11.94825468)
(310.3077341 3.717762549e-17 -12.04097046)
(308.8982426 -1.937579767e-20 -12.14630606)
(307.2585597 -2.133977332e-17 -12.25830939)
(305.3565191 1.785394735e-17 -12.37347715)
(303.1594459 0 -12.48224734)
(300.6369713 -4.315315992e-17 -12.57071841)
(297.7659026 7.127191577e-18 -12.61737439)
(294.5372606 3.744296631e-17 -12.59200152)
(290.9658094 2.160116212e-17 -12.45523002)
(287.1001165 1.862178578e-17 -12.16193711)
(283.0286019 -1.509607739e-17 -11.66984228)
(278.8759227 1.726938059e-19 -10.95296634)
(274.7866303 -4.526973342e-17 -10.0148326)
(270.9005268 3.852489394e-17 -8.894395569)
(267.3294546 -9.901697585e-17 -7.660477089)
(264.1445592 2.788071713e-17 -6.396788771)
(261.3761259 0 -5.183985858)
(259.0221736 -8.105828367e-17 -4.08541065)
(257.0592884 -6.878944659e-17 -3.13992859)
(255.4520196 -1.793878386e-20 -2.361864673)
(254.1588083 4.91775941e-17 -1.745842076)
(253.1360504 -8.276324064e-17 -1.273727514)
(252.3404487 -6.984255888e-17 -0.9213555875)
(251.7311559 2.353937613e-16 -0.6636997657)
(251.2711124 2.973861241e-16 -0.4780541687)
(250.928107 -1.666793321e-16 -0.3455267917)
(250.6751108 2.804480553e-16 -0.2513222977)
(250.4901885 5.893026434e-16 -0.1843477777)
(250.3560181 -3.96219828e-16 -0.1365427038)
(250.2592516 6.65843024e-16 -0.1021802429)
(250.1897863 -2.79711049e-16 -0.07724398672)
(250.1400947 -4.699357655e-16 -0.05894075334)
(250.1046303 1.973454727e-16 -0.0453312255)
(250.0793241 -6.630799349e-16 -0.03506872075)
(250.0612179 0 -0.02720639185)
(250.0481175 -1.871181985e-15 -0.02111217423)
(250.0383204 7.858426671e-16 -0.01629270952)
(250.0308703 3.300426139e-16 -0.01245411332)
(250.0243966 -1.386144021e-16 -0.00956309507)
(250.0198952 -9.315481382e-16 -0.005711290841)
(250.0121304 0 -0.006833414964)
(191.9372822 -3.471471476e-16 -9.600666483)
(229.5811342 -1.708889394e-19 -10.93235413)
(250.6728382 0 -12.00959138)
(267.4070764 1.165461112e-19 -12.88877601)
(283.2703136 -1.270812503e-16 -13.7570702)
(299.5376489 1.432656223e-16 -14.71095977)
(313.6931603 -3.028666882e-19 -15.6960607)
(318.6819983 -6.025947934e-19 -16.00645943)
(318.85957 1.077922955e-18 -16.08487618)
(318.5781319 1.174977413e-16 -16.01683311)
(318.1916481 -9.910931939e-17 -16.11621086)
(317.812596 1.297199403e-18 -16.06476043)
(317.3409385 -6.922992848e-17 -16.14743232)
(316.8167577 5.964850699e-17 -16.13777489)
(316.1943803 4.857059929e-17 -16.20144373)
(315.4771008 -4.319593864e-17 -16.22793899)
(314.6373094 -4.265717632e-18 -16.28787108)
(313.659277 0 -16.33972289)
(312.5168101 0 -16.40651516)
(311.1839285 0 -16.47446479)
(309.6300521 -3.884458349e-17 -16.54703917)
(307.8223226 1.443276547e-17 -16.61630689)
(305.7262789 3.703241158e-17 -16.67533655)
(303.3079138 -2.076676422e-17 -16.71038203)
(300.5377195 2.659682961e-17 -16.70153936)
(297.397375 1.506315604e-17 -16.61956256)
(293.8888067 -2.58350097e-17 -16.42515499)
(290.0452158 2.174320884e-17 -16.07034884)
(285.9405813 -1.868460384e-17 -15.50522996)
(281.6913778 -2.764412917e-19 -14.69048886)
(277.4450787 2.715520477e-17 -13.61310289)
(273.3557796 4.669433598e-17 -12.29777346)
(269.5559979 0 -10.80728072)
(266.1363359 6.802261094e-17 -9.230528797)
(263.1399434 0 -7.663668709)
(260.569992 0 -6.191869213)
(258.4032731 2.091153114e-16 -4.877253909)
(256.6030945 3.531379115e-17 -3.754512278)
(255.1280719 2.398229038e-16 -2.832911691)
(253.9364625 5.067465765e-17 -2.102179919)
(252.9879973 5.552530347e-16 -1.539729657)
(252.2444293 -2.15950231e-16 -1.1173697)
(251.6702143 -1.212619326e-16 -0.806403424)
(251.2330479 -9.178777402e-16 -0.5808236003)
(250.9045466 -1.480721948e-19 -0.4188382244)
(250.6605317 7.204692985e-16 -0.303196198)
(250.4810755 6.052540248e-16 -0.2207989183)
(250.3501947 -1.117928366e-15 -0.1620021938)
(250.2554036 -5.118057403e-16 -0.1198650252)
(250.1871338 2.862769103e-16 -0.08946324433)
(250.1381834 -1.20041453e-15 -0.06733676016)
(250.1031967 0 -0.05106489184)
(250.0782164 1.349495854e-15 -0.03895519586)
(250.0603555 1.130428754e-15 -0.02981480297)
(250.0474361 9.464333327e-16 -0.02284131469)
(250.0378295 0 -0.01740794871)
(250.030463 6.621725943e-16 -0.0131596841)
(250.0241519 6.915465173e-17 -0.01001881164)
(250.0197517 -2.078028938e-15 -0.005884526184)
(250.0119546 3.174843859e-15 -0.006938751918)
(194.8619443 -7.353222e-16 -12.56908997)
(233.3449649 3.761082112e-16 -14.51720313)
(254.9067446 -1.414418749e-16 -15.90921171)
(272.1629823 -5.939176967e-22 -17.07383573)
(288.7116678 0 -18.22868433)
(305.2692397 3.142652544e-19 -19.4812814)
(317.0317004 2.904751476e-21 -20.51920963)
(320.0104742 0 -20.69287374)
(319.8658315 -2.236107282e-18 -20.78440676)
(319.5629593 -1.202874153e-16 -20.69517125)
(319.1460385 1.011020484e-16 -20.8032486)
(318.7325069 0 -20.73831011)
(318.2173567 -7.293534226e-17 -20.81862396)
(317.6426462 -1.978621591e-18 -20.79929553)
(316.9596711 4.645641022e-17 -20.85316587)
(316.1706382 -8.343555116e-17 -20.86729456)
(315.2459512 7.426635883e-17 -20.91073264)
(314.1676082 3.679648787e-18 -20.94269952)
(312.907013 0 -20.98348373)
(311.4352779 4.197385853e-17 -21.01908923)
(309.7188974 -4.406207511e-17 -21.05024552)
(307.7221403 3.74863587e-17 -21.06668404)
(305.4086315 -3.786270666e-17 -21.05697861)
(302.7445332 0 -21.00136716)
(299.7042142 -1.824305009e-17 -20.87175986)
(296.2789158 0 -20.62933878)
(292.4876094 2.670408237e-17 -20.22512016)
(288.3885085 -2.247861069e-17 -19.60411274)
(284.0858598 0 -18.71617171)
(279.7245162 0 -17.53222955)
(275.4689512 0 -16.06005931)
(271.4722875 0 -14.35088986)
(267.8484938 0 -12.49226722)
(264.6587204 1.060436284e-16 -10.59000464)
(261.9145929 -1.499610896e-16 -8.74728762)
(259.5925708 1.01947496e-16 -7.048222123)
(257.6508078 -1.723392493e-16 -5.549256817)
(256.0423447 -1.827312279e-16 -4.277985)
(254.7223897 -9.230542411e-17 -3.237104693)
(253.6507022 -1.561443251e-16 -2.411003338)
(252.7913679 -5.707819938e-16 -1.772906927)
(252.1117868 -2.9592464e-16 -1.291255623)
(251.5821281 4.360601144e-16 -0.9344901557)
(251.175202 8.37921499e-16 -0.674088779)
(250.8667956 -7.041970855e-16 -0.4860374777)
(250.6359197 -7.39211726e-16 -0.3511634125)
(250.4649604 -8.686214872e-16 -0.2547560419)
(250.3395434 1.040939402e-15 -0.1858642999)
(250.2482647 1.221857841e-15 -0.136519299)
(250.1822643 -1.462663419e-16 -0.1010108037)
(250.1347972 1.347284466e-15 -0.07528961232)
(250.100795 -1.845026536e-15 -0.05650251696)
(250.0764845 -2.914414361e-15 -0.04264169734)
(250.0590945 -1.002703897e-15 -0.03228790192)
(250.0465109 0 -0.0244785033)
(250.0371816 1.595131088e-15 -0.01846312968)
(250.0299775 -4.980894996e-16 -0.01382335571)
(250.0238465 -2.070575076e-16 -0.0104457266)
(250.0195932 1.832983683e-15 -0.006050882491)
(250.0118125 -3.034123895e-15 -0.007038122442)
(197.5028208 1.897392976e-19 -15.68674505)
(236.817238 0 -18.28416519)
(258.8445439 1.508857769e-19 -20.01047744)
(276.6356196 -1.450327127e-19 -21.48583179)
(293.8444869 -3.136562702e-19 -22.95641612)
(310.3849813 0 -24.50506191)
(319.2238934 7.090094897e-19 -25.45118307)
(320.678109 -1.317698629e-18 -25.50036508)
(320.3402907 1.148200327e-18 -25.60465408)
(320.018263 -9.670320482e-19 -25.49299464)
(319.5657753 0 -25.60627452)
(319.113118 8.629758894e-17 -25.52633916)
(318.5493645 -7.207940835e-17 -25.59944484)
(317.9176834 6.243211552e-17 -25.56763398)
(317.1665726 -5.06505904e-17 -25.60690038)
(316.2964575 5.326474742e-18 -25.60471141)
(315.2755226 0 -25.62693379)
(314.0828735 -6.425181908e-17 -25.63444065)
(312.6870603 5.071650145e-17 -25.64415626)
(311.0559338 -1.074623272e-17 -25.64147228)
(309.1531746 9.068413679e-18 -25.62323393)
(306.9410714 0 -25.57518129)
(304.3832804 0 -25.4794555)
(301.4492599 0 -25.30839469)
(298.1215616 0 -25.02436746)
(294.4065026 -6.457782374e-17 -24.57855863)
(290.3465563 -3.482748177e-19 -23.91357714)
(286.030801 -2.351406725e-17 -22.9713735)
(281.5958977 2.340971668e-19 -21.70857733)
(277.2107804 1.702624728e-17 -20.11497684)
(273.0463496 -2.953478036e-17 -18.22616657)
(269.2415467 1.256231886e-16 -16.12237953)
(265.880824 -8.582953733e-17 -13.91332402)
(262.9901438 -7.261957782e-17 -11.71588903)
(260.5491675 1.234447123e-16 -9.633802293)
(258.5106169 -1.047389158e-16 -7.744778567)
(256.818234 0 -6.096075201)
(255.4186649 -1.883068366e-16 -4.706321299)
(254.2665723 -2.858441359e-16 -3.570969202)
(253.3249511 1.07021792e-16 -2.669143455)
(252.5631473 9.388326974e-20 -1.970397661)
(251.9545942 2.658160829e-16 -1.440528525)
(251.4753357 -5.110577236e-16 -1.04590044)
(251.1033904 4.297656374e-16 -0.7562178012)
(250.8188203 1.443326445e-15 -0.5458826991)
(250.6039585 1.514527457e-16 -0.3943118977)
(250.44365 -1.269659e-16 -0.285570238)
(250.3252761 0 -0.207680347)
(250.2386454 -1.604739247e-15 -0.1518411775)
(250.1757182 1.49212126e-16 -0.1116890966)
(250.1302945 2.246229134e-15 -0.08267389807)
(250.097662 3.12770164e-15 -0.06156729687)
(250.0742822 4.176509923e-15 -0.04608338742)
(250.0575354 0 -0.03460081912)
(250.0454032 0 -0.02601136797)
(250.0364172 -1.605619132e-15 -0.01945271621)
(250.0294305 1.664870696e-16 -0.0144443635)
(250.0234911 -2.756073792e-16 -0.01084503386)
(250.0194034 -1.820454841e-15 -0.006211909309)
(250.0116281 -5.849461665e-18 -0.007133020499)
(199.8320686 -2.013493233e-19 -18.94586324)
(239.9905944 2.180001938e-16 -22.22266304)
(262.4989609 -3.393604994e-16 -24.30906878)
(280.8824521 1.651206065e-16 -26.12523002)
(298.6830549 3.523397696e-19 -27.9478107)
(314.3859747 1.92955629e-16 -29.7091013)
(320.3439482 -1.917537207e-16 -30.45538141)
(320.8722476 1.366059167e-18 -30.40172508)
(320.2958742 -1.489532362e-16 -30.51288721)
(319.9495929 1.257858463e-16 -30.37606084)
(319.4563934 -1.643418165e-18 -30.49149306)
(318.9578912 0 -30.39762694)
(318.3377754 -3.957669827e-22 -30.46129079)
(317.6392703 -3.86269253e-18 -30.4171693)
(316.8083212 3.240874108e-18 -30.44023689)
(315.842866 3.276215381e-17 -30.42082608)
(314.708798 -3.658912993e-17 -30.41980622)
(313.3820908 0 -30.39983546)
(311.8286214 6.531156012e-18 -30.37324175)
(310.0135225 -3.320925091e-17 -30.32359192)
(307.8987446 3.71088516e-17 -30.2422871)
(305.4462798 1.584778221e-17 -30.1095077)
(302.6222035 0 -29.89985001)
(299.4026077 -2.291045208e-17 -29.5770968)
(295.7828537 0 -29.09389605)
(291.7903723 -3.134668339e-19 -28.39201647)
(287.4976751 2.823825293e-17 -27.40835852)
(283.0289371 4.831581317e-17 -26.08803016)
(278.551307 -4.13560102e-17 -24.40346345)
(274.2482358 0 -22.37191619)
(270.2828175 0 -20.06128646)
(266.7663349 8.194286587e-19 -17.57943455)
(263.7453985 -5.913599531e-19 -15.05231182)
(261.2087948 3.765915841e-17 -12.60040961)
(259.1069594 -1.594667801e-16 -10.32151269)
(257.3737891 -2.704409561e-17 -8.282580127)
(255.9436296 2.056914857e-16 -6.519382416)
(254.7607083 -2.709699353e-16 -5.040765651)
(253.781788 2.604222599e-16 -3.834981233)
(252.9745484 2.75409192e-17 -2.876372356)
(252.3142227 -9.248147343e-17 -2.131498368)
(251.7804148 3.888466065e-17 -1.564255338)
(251.3549808 6.547190644e-17 -1.139664104)
(251.021041 -9.344784439e-16 -0.8263243565)
(250.7628631 -7.383357418e-16 -0.5976296322)
(250.5660897 0 -0.4320537073)
(250.4180571 1.038232807e-15 -0.3127985796)
(250.3079622 0 -0.2271293817)
(250.2268962 0 -0.1656058501)
(250.167708 0 -0.1213455237)
(250.124802 -4.189955078e-15 -0.0893892507)
(250.0938714 -1.588612398e-15 -0.06619541621)
(250.0716513 -2.823126288e-15 -0.04924129255)
(250.0557013 -2.494886392e-15 -0.03673079767)
(250.044124 -1.827733477e-15 -0.0274275848)
(250.0355429 0 -0.02037040203)
(250.028823 0 -0.01502075969)
(250.0230895 1.376022532e-16 -0.01121522239)
(250.0191897 1.809381501e-15 -0.006366908304)
(250.0114275 -1.156405094e-17 -0.007223480706)
(201.7685081 2.133800806e-19 -22.36878093)
(242.7976117 0 -26.31285694)
(265.839929 1.819580732e-19 -28.80723091)
(284.904701 -2.958175982e-22 -30.99974479)
(303.2008589 -2.002258402e-16 -33.2174964)
(316.8150745 2.098497069e-16 -35.00130787)
(320.5622327 0 -35.49938351)
(320.1650408 0 -35.36883481)
(319.7078187 1.520924911e-16 -35.49609859)
(319.3292328 2.025447325e-19 -35.33950283)
(318.7878107 -1.070366721e-16 -35.45578247)
(318.2341641 0 -35.35039233)
(317.5474258 2.347760374e-18 -35.40306644)
(316.7698193 6.711887314e-17 -35.34665724)
(315.845234 -5.622005346e-17 -35.35077137)
(314.7686899 5.566500923e-18 -35.3104454)
(313.5040772 -4.705450138e-18 -35.27975041)
(312.0244372 7.938358461e-18 -35.22292317)
(310.293543 -5.361684872e-17 -35.14674894)
(308.2745918 -3.689843181e-19 -35.03222582)
(305.9288433 8.619664686e-17 -34.86468197)
(303.2194151 -4.850412413e-17 -34.61786917)
(300.117038 0 -34.25789342)
(296.6082698 -2.515109312e-19 -33.73909512)
(292.7073223 1.990743114e-17 -33.00430659)
(288.4702156 3.411779424e-17 -31.98761875)
(284.0054904 0 -30.62525158)
(279.4729345 0 -28.87434123)
(275.0624728 -2.164139751e-17 -26.73327501)
(270.9574972 1.824696522e-17 -24.25349388)
(267.2975154 0 -21.53553097)
(264.154945 -1.335380554e-16 -18.70937469)
(261.5344451 1.362885773e-16 -15.90889645)
(259.3896357 -1.925656965e-17 -13.25034184)
(257.6470659 -5.723197835e-19 -10.82004522)
(256.2278381 -2.222185193e-16 -8.671289549)
(255.062029 -4.453840557e-16 -6.827381064)
(254.0950811 4.145049878e-16 -5.287521623)
(253.2880506 -3.332707196e-17 -4.033390545)
(252.6143673 0 -3.035321276)
(252.0554819 -4.737191334e-17 -2.257646702)
(251.597087 -5.97499452e-16 -1.663078838)
(251.2266097 0 -1.215947374)
(250.9320121 0 -0.8843244634)
(250.701567 -7.544039784e-16 -0.6410890324)
(250.5240981 0 -0.4641775985)
(250.3893719 -9.267821467e-16 -0.3362494186)
(250.2883862 1.6620283e-15 -0.2440554039)
(250.2135284 -9.26296139e-17 -0.1776951322)
(250.1585631 -2.397765094e-15 -0.129895371)
(250.1185291 2.193314264e-15 -0.0953777999)
(250.0895546 -3.546139085e-15 -0.07034917393)
(250.0686723 0 -0.05209209101)
(250.0536411 2.373464975e-15 -0.03866421619)
(250.0427011 5.897823628e-15 -0.02871986623)
(250.0345755 0 -0.02121255997)
(250.0281619 1.673182189e-16 -0.01555181039)
(250.0226465 -1.374310082e-16 -0.01155597145)
(250.0189504 1.799630114e-15 -0.00651589662)
(250.0112015 5.871406862e-15 -0.007309840221)
(203.2120641 -9.269334891e-16 -25.91279853)
(245.1421622 2.545166389e-16 -30.54316422)
(268.8304659 -2.003630023e-19 -33.49491632)
(288.6237069 4.009562846e-19 -36.10404742)
(307.0826183 4.27263644e-19 -38.72625033)
(317.8861457 -2.217476781e-16 -40.291633)
(319.3010905 2.072828739e-16 -40.57531179)
(319.063974 0 -40.40528434)
(318.5411348 1.550143914e-16 -40.56041466)
(318.1214828 2.309571247e-19 -40.38207406)
(317.5260779 -1.074185351e-16 -40.49355878)
(316.9098189 0 -40.37499591)
(316.1485209 2.405236632e-18 -40.41075222)
(315.2823476 0 -40.33740508)
(314.2537434 -1.715620498e-20 -40.31507607)
(313.0544311 0 -40.24481892)
(311.6464925 -3.858590234e-17 -40.17242722)
(310.0000324 -1.617008187e-19 -40.06341152)
(308.0768946 2.04796058e-17 -39.91848932)
(305.8387675 4.662919953e-17 -39.71561523)
(303.2473209 -4.895597062e-17 -39.43363013)
(300.2690692 -1.681631275e-17 -39.038794)
(296.8832515 -2.863515685e-17 -38.48712834)
(293.0927481 2.40768806e-17 -37.72201092)
(288.9384213 2.087443224e-17 -36.67706512)
(284.5125424 1.814441948e-17 -35.28337824)
(279.9624725 0 -33.48525554)
(275.4777375 -5.234609235e-17 -31.26265986)
(271.2570295 8.953593467e-17 -28.64881843)
(267.4662243 5.735469411e-17 -25.73196868)
(264.2069976 1.464295488e-16 -22.64072052)
(261.5061771 1.108324571e-16 -19.5183866)
(259.3271941 0 -16.49755333)
(257.5939131 0 -13.68329175)
(256.2159058 1.005932601e-16 -11.14663815)
(255.10771 2.555273951e-16 -8.925872721)
(254.1997605 1.918699155e-16 -7.032035851)
(253.4416657 3.23805926e-16 -5.455551795)
(252.800365 5.467202149e-16 -4.172536535)
(252.2556671 4.603009403e-16 -3.150233867)
(251.795282 -4.841028373e-17 -2.35152659)
(251.4107236 6.912975824e-16 -1.738593431)
(251.0946189 -1.093539059e-15 -1.275628376)
(250.8394116 -5.736394862e-17 -0.9306538619)
(250.637091 8.174479884e-16 -0.6764415913)
(250.4794595 -8.059393606e-17 -0.490729229)
(250.3585877 6.743462483e-17 -0.3559053233)
(250.2672069 -3.609495116e-15 -0.2584179275)
(250.1989729 0 -0.1880657266)
(250.1485608 2.514962322e-15 -0.1373013455)
(250.1116516 -2.095143039e-15 -0.1006109355)
(250.0848206 6.970265776e-15 -0.07400837367)
(250.0654113 -1.808403985e-16 -0.05462252955)
(250.0513937 -2.247294977e-15 -0.04039299687)
(250.0411561 -3.838494284e-15 -0.02988372962)
(250.0335271 -3.367831909e-15 -0.02197683379)
(250.027452 0 -0.01603711197)
(250.0221652 0 -0.01186694294)
(250.0186876 -3.582150624e-15 -0.006658699659)
(250.0109538 -5.806316385e-15 -0.007392020851)
(204.1752975 6.382636873e-20 -29.55926424)
(247.0907973 -2.76606439e-16 -34.92404788)
(271.5387498 0 -38.38667888)
(292.0316899 4.489369314e-19 -41.46271558)
(309.8858116 -9.368217249e-19 -44.39808005)
(317.9409716 0 -45.56249141)
(317.7607863 -2.13868934e-16 -45.72008422)
(317.3759378 1.856414911e-16 -45.49776212)
(316.8212953 -1.251033144e-18 -45.65719551)
(316.3539891 0 -45.45899911)
(315.6983986 3.489896584e-18 -45.56067236)
(315.0115802 9.346031193e-17 -45.42772252)
(314.1675118 -2.184565576e-18 -45.44053511)
(313.2031479 2.560096095e-19 -45.34489004)
(312.0599998 -5.8775455e-17 -45.28822121)
(310.7260138 0 -45.17861289)
(309.1613853 4.90440474e-18 -45.05258677)
(307.3330441 -8.282674573e-18 -44.87634967)
(305.2009966 -2.825056557e-17 -44.64359517)
(302.7262871 1.172665089e-17 -44.32752333)
(299.8733066 2.034688718e-17 -43.8989422)
(296.616303 2.018111746e-20 -43.31543744)
(292.9494765 0 -42.52252373)
(288.899874 2.521976025e-17 -41.45290734)
(284.5425539 3.71998324e-19 -40.03390081)
(280.0104426 -1.824108018e-17 -38.20168287)
(275.486496 0 -35.92050373)
(271.1769923 1.075331726e-16 -33.20353392)
(267.2709666 -1.144658454e-16 -30.1235353)
(263.8999148 -5.854927473e-17 -26.8026998)
(261.1178506 -1.330292154e-16 -23.38890965)
(258.9048203 1.511180859e-17 -20.02835571)
(257.1880682 -3.613388517e-17 -16.84385016)
(255.8693159 -3.067323953e-16 -13.9242089)
(254.848506 -2.936414978e-16 -11.32323655)
(254.0392914 -1.896123149e-16 -9.064333776)
(253.3762157 3.689623722e-16 -7.147369156)
(252.8151871 3.523190182e-16 -5.555318858)
(252.330001 -1.133603844e-15 -4.259930327)
(251.9070733 -4.400933802e-16 -3.226306739)
(251.5401741 -2.467235062e-17 -2.416603733)
(251.2262351 -4.150381172e-17 -1.793026065)
(250.9626285 1.114431709e-15 -1.320084167)
(250.7458605 9.059525471e-16 -0.9661302343)
(250.5712993 4.89689562e-17 -0.7041516624)
(250.4334765 0 -0.5119589088)
(250.3265999 -2.195999282e-15 -0.3718925445)
(250.2450298 1.834802478e-15 -0.2702747834)
(250.1836326 -9.571285422e-17 -0.1967399514)
(250.1379649 -9.498706352e-21 -0.1435688478)
(250.1043389 1.990766951e-16 -0.1050870762)
(250.079776 -3.638803247e-15 -0.07716940616)
(250.0619335 0 -0.0568291515)
(250.048998 2.570291809e-15 -0.04191458651)
(250.039511 -1.247060852e-16 -0.03091758841)
(250.0324102 3.281519335e-15 -0.02266227689)
(250.0266983 -2.689042626e-15 -0.01647675309)
(250.0216472 0 -0.01214805572)
(250.0184019 3.56723461e-15 -0.006795146464)
(250.0106837 5.759110437e-15 -0.007469864033)
(204.7413706 -5.227486187e-16 -33.31529422)
(248.7690285 -3.017855518e-16 -39.47168067)
(274.0644629 2.51616211e-16 -43.5017875)
(295.2235634 -4.940633151e-19 -47.10124755)
(311.2683551 -2.574724744e-16 -50.07787276)
(315.8192751 4.876830822e-16 -50.74691703)
(315.5903767 -2.189174771e-16 -50.87957009)
(315.1983874 1.480869747e-18 -50.6416586)
(314.595192 -1.588989984e-16 -50.80723312)
(314.0725677 -3.006202625e-19 -50.58262279)
(313.3493395 1.097186193e-16 -50.66251336)
(312.5821637 -9.828910749e-17 -50.5073325)
(311.6445103 7.979176775e-17 -50.48526916)
(310.5687988 0 -50.3559333)
(309.2959643 -4.971087176e-17 -50.25193414)
(307.8098926 9.547480068e-17 -50.08906469)
(306.0691446 -3.002902428e-17 -49.8939382)
(304.0380993 3.421825894e-17 -49.63223321)
(301.6764547 -2.872431373e-17 -49.28891043)
(298.9470513 -2.477088701e-17 -48.82952446)
(295.8205604 2.068055012e-17 -48.21429697)
(292.2842254 1.786639712e-17 -47.3909109)
(288.35477 0 -46.29599381)
(284.091972 0 -44.85590948)
(279.6103319 -4.391331683e-17 -42.99825913)
(275.081618 -3.820858373e-17 -40.67440018)
(270.7139803 0 -37.88058761)
(266.7123125 -1.11055593e-16 -34.67045842)
(263.2367434 -9.542583534e-17 -31.15506939)
(260.3715031 2.027873809e-17 -27.48247826)
(258.1192063 1.209696339e-16 -23.80857476)
(256.4171758 -1.016136244e-16 -20.27227688)
(255.1645135 -1.857438673e-16 -16.98008012)
(254.2492324 3.125195105e-16 -14.00172342)
(253.5684706 2.81675099e-16 -11.37362869)
(253.0396365 2.377372861e-16 -9.105553489)
(252.6040965 -4.260424611e-16 -7.187850126)
(252.2253794 -3.167064697e-16 -5.597587252)
(251.88456 5.688607374e-16 -4.303363413)
(251.5745583 -2.993793253e-17 -3.269029444)
(251.294826 8.304024687e-16 -2.456642219)
(251.0472218 4.226923639e-17 -1.828888064)
(250.8333663 2.111576517e-20 -1.350945008)
(250.6533854 -9.81156098e-16 -0.9917835252)
(250.5056669 -4.983174438e-17 -0.7248526037)
(250.387202 -1.327895207e-20 -0.5282457053)
(250.2941457 4.497221906e-15 -0.3844317417)
(250.2223621 0 -0.2797507001)
(250.16785 -9.711278464e-17 -0.2037860528)
(250.1270025 1.617181554e-16 -0.1487338421)
(250.0967386 2.083701245e-15 -0.1088243344)
(250.0745146 0 -0.07984089951)
(250.0582969 0 -0.05871578487)
(250.0464886 -1.52475339e-16 -0.04323054546)
(250.0377855 4.142559735e-15 -0.03182200152)
(250.0312361 1.030084014e-16 -0.02326898141)
(250.0259053 2.610441566e-15 -0.01687115923)
(250.0210943 -1.09676888e-15 -0.01239931544)
(250.0180941 -1.777165916e-15 -0.006924943415)
(250.0103918 -5.739977623e-15 -0.007543062123)
(204.9398392 0 -37.18673882)
(250.2314524 6.413251593e-19 -44.19916957)
(276.379083 0 -48.85559115)
(297.9583826 -2.7753861e-16 -53.00166723)
(311.4102785 7.798404162e-19 -55.75563779)
(313.5916982 5.055369292e-16 -56.00382655)
(312.9470735 -2.237966952e-16 -56.11937607)
(312.5358282 -1.928891292e-16 -55.82923712)
(311.8781931 -2.91056487e-18 -55.99440388)
(311.2919787 1.39693144e-16 -55.74342088)
(310.4925222 0 -55.79196717)
(309.6331275 1.001833841e-16 -55.60865324)
(308.5880308 -8.650579953e-17 -55.54241673)
(307.3841209 6.88133108e-17 -55.36896969)
(305.9623852 -5.041686441e-17 -55.20342409)
(304.3028134 0 -54.96902849)
(302.3633834 -1.026382375e-17 -54.68208569)
(300.1078702 -3.508992723e-17 -54.30626141)
(297.4985416 -3.071902883e-19 -53.8173439)
(294.5036345 6.281563848e-17 -53.17268544)
(291.1046624 -2.126740857e-17 -52.32086546)
(287.3074145 -1.812458657e-17 -51.1980561)
(283.1580577 1.571100774e-17 -49.7333324)
(278.7562247 -1.322626943e-17 -47.85441907)
(274.2574386 6.912976152e-17 -45.50074637)
(269.8633341 -2.004029251e-17 -42.64966217)
(265.7903146 -8.436953429e-17 -39.33802596)
(262.2219712 8.547574729e-17 -35.66192703)
(259.2732974 7.271071736e-17 -31.76365593)
(256.9745309 -1.049521204e-17 -27.80540257)
(255.2793574 -1.052870958e-16 -23.93953069)
(254.0903597 -1.199052305e-16 -20.2894357)
(253.2879152 1.890780064e-16 -16.9413178)
(252.7543739 1.711659771e-16 -13.94518926)
(252.3897328 0 -11.32133282)
(252.1185491 0 -9.067803873)
(251.8907125 -4.096782989e-16 -7.16734408)
(251.6779858 3.447983679e-16 -5.59266622)
(251.4687067 5.981857655e-16 -4.310351609)
(251.261954 -5.02866236e-16 -3.283771343)
(251.0623669 -1.612549648e-15 -2.475397609)
(250.8761969 6.663636378e-16 -1.848749583)
(250.7088067 1.190031428e-15 -1.3699316)
(250.5635002 -3.021296184e-17 -1.008741084)
(250.4413276 0 -0.7392676653)
(250.3414657 4.234450484e-17 -0.5400442716)
(250.2618195 -2.299511518e-15 -0.3938030977)
(250.1996209 5.905298603e-17 -0.2870149514)
(250.151912 -4.920452633e-17 -0.2093042191)
(250.1158669 0 -0.1528543248)
(250.0889783 0 -0.1118554501)
(250.0691183 1.127157163e-16 -0.0820408055)
(250.0545528 2.98200439e-15 -0.06029192907)
(250.0438966 -2.304965792e-16 -0.04434568819)