/*--------------------------------*- C++ -*----------------------------------*\
  =========                 |
  \\      /  F ield         | OpenFOAM: The Open Source CFD Toolbox
   \\    /   O peration     | Website:  https://openfoam.org
    \\  /    A nd           | Version:  12
     \\/     M anipulation  |
\*---------------------------------------------------------------------------*/
FoamFile
{
    format      ascii;
    class       volScalarField;
    location    "0.125";
    object      k;
}
// * * * * * * * * * * * * * * * * * * * * * * * * * * * * * * * * * * * * * //

dimensions      [0 2 -2 0 0 0 0];

internalField   nonuniform List<scalar> 
16000
(
0.049729449
0.02159733
0.0224781
0.016548686
0.014037832
0.012706954
0.011916463
0.011443747
0.011123348
0.010907689
0.010748596
0.010630176
0.010537777
0.010464675
0.010405834
0.010358094
0.010319082
0.010287153
0.010261117
0.010239766
0.010222054
0.010207682
0.010196137
0.010186852
0.010179596
0.010174018
0.010169932
0.010167171
0.010165593
0.010165065
0.010165466
0.010166691
0.010168658
0.010171299
0.010174554
0.010178364
0.010182674
0.010187426
0.010192564
0.010198031
0.010203765
0.010209696
0.010215757
0.01022188
0.01022799
0.010234014
0.010239891
0.01024557
0.010251008
0.010256157
0.010260972
0.010265401
0.010269393
0.010272896
0.01027587
0.010278277
0.010280084
0.010281255
0.010281741
0.010281475
0.010280353
0.010278245
0.010275021
0.010270543
0.010264666
0.010257235
0.010248033
0.010236716
0.010222644
0.010204608
0.010180998
0.010151253
0.010119807
0.010096193
0.010078299
0.010066326
0.010059689
0.010068249
0.010050436
0.010070061
0.045924212
0.0204414
0.021033454
0.016002067
0.013691857
0.012503441
0.011753414
0.01132671
0.011022312
0.010823974
0.010675195
0.010565558
0.010479583
0.01041197
0.010357641
0.010313778
0.0102781
0.010249041
0.010225546
0.010206571
0.010190962
0.010178466
0.010168698
0.010161045
0.010155326
0.010151187
0.010148448
0.010146949
0.010146554
0.01014714
0.010148586
0.01015079
0.010153668
0.01015715
0.010161175
0.010165686
0.010170628
0.010175944
0.010181577
0.010187474
0.010193575
0.010199813
0.010206123
0.01021244
0.010218694
0.010224812
0.010230735
0.010236412
0.010241802
0.010246865
0.010251559
0.010255841
0.010259661
0.010262973
0.010265735
0.010267914
0.010269478
0.010270393
0.010270618
0.010270092
0.010268724
0.010266387
0.010262951
0.010258271
0.010252195
0.010244563
0.010235163
0.010223664
0.010209485
0.010191496
0.010168117
0.010139099
0.010109294
0.010086885
0.010070046
0.010058353
0.010053351
0.01005715
0.010051131
0.01007166
0.041506822
0.019621204
0.019704278
0.015437252
0.013338141
0.012275964
0.011584616
0.011199983
0.010919045
0.010738953
0.010601384
0.010500978
0.010421911
0.010360077
0.010310557
0.010270799
0.010238681
0.010212706
0.010191912
0.010175453
0.010162098
0.010151602
0.010143719
0.010137796
0.010133698
0.010131077
0.010129759
0.010129589
0.010130436
0.010132185
0.010134721
0.010137941
0.010141758
0.010146103
0.010150913
0.010156131
0.010161701
0.010167568
0.010173675
0.010179968
0.010186391
0.010192881
0.010199374
0.010205808
0.010212119
0.010218238
0.010224104
0.010229672
0.010234904
0.010239765
0.010244219
0.010248229
0.010251752
0.010254746
0.01025717
0.010258994
0.01026019
0.010260726
0.010260565
0.010259652
0.010257905
0.010255207
0.010251428
0.010246419
0.010240021
0.010232067
0.010222343
0.010210523
0.010196063
0.010177952
0.010154655
0.010126113
0.010098224
0.010077243
0.010061545
0.010050778
0.010046432
0.010048511
0.010051057
0.010071937
0.039150752
0.019069136
0.018555649
0.014931395
0.013017966
0.012070311
0.011430046
0.011084264
0.010824216
0.010660678
0.010533818
0.010441947
0.010369473
0.010313104
0.01026818
0.010232351
0.010203658
0.010180673
0.010162486
0.010148469
0.010137323
0.01012878
0.010122743
0.010118519
0.010116011
0.010114881
0.010114958
0.010116091
0.010118154
0.010121036
0.010124625
0.010128819
0.010133531
0.010138687
0.010144223
0.01015008
0.010156205
0.01016254
0.010169029
0.010175621
0.010182263
0.010188894
0.010195454
0.010201886
0.010208131
0.010214124
0.01021981
0.010225144
0.010230092
0.010234627
0.01023872
0.01024234
0.010245451
0.010248013
0.010249993
0.010251359
0.010252086
0.010252147
0.010251507
0.010250118
0.010247904
0.01024476
0.010240558
0.010235146
0.010228357
0.010220016
0.010209907
0.010197699
0.010182878
0.010164589
0.010141441
0.010113299
0.010087312
0.010067749
0.010053229
0.010043429
0.01003927
0.010040528
0.010047636
0.010065812
0.036375156
0.018759013
0.017565006
0.014462567
0.012719833
0.011875782
0.011285058
0.010975115
0.010735654
0.010587624
0.010471264
0.010387537
0.010321519
0.010270457
0.010230034
0.010198057
0.010172736
0.01015272
0.010137103
0.010125498
0.010116562
0.010109975
0.010105775
0.010103264
0.010102336
0.010102697
0.010104166
0.010106598
0.010109867
0.010113865
0.010118484
0.01012362
0.010129185
0.010135101
0.010141303
0.010147731
0.010154329
0.010161042
0.010167817
0.0101746
0.010181344
0.010187994
0.010194494
0.010200791
0.010206834
0.010212565
0.010217933
0.010222896
0.010227427
0.010231504
0.010235105
0.010238208
0.010240782
0.010242796
0.010244216
0.010245014
0.010245168
0.010244652
0.010243437
0.010241477
0.010238704
0.010235023
0.01023031
0.010224413
0.010217157
0.010208357
0.01019779
0.010185123
0.010169854
0.010151293
0.010128336
0.010100715
0.010076631
0.010058509
0.010045214
0.010036362
0.010032282
0.010033452
0.010043393
0.010055267
0.03323791
0.018690031
0.01683713
0.014032862
0.012445431
0.011694791
0.011151003
0.010873928
0.010654267
0.010520526
0.010414347
0.010338304
0.010278531
0.010232581
0.010196526
0.010168298
0.010146271
0.010129189
0.010116103
0.010106876
0.010100141
0.010095543
0.010093146
0.010092396
0.010093004
0.010094851
0.010097704
0.010101421
0.010105873
0.010110955
0.010116561
0.010122585
0.010128937
0.010135537
0.010142316
0.010149214
0.010156175
0.010163146
0.010170075
0.010176914
0.010183616
0.010190135
0.010196423
0.01020243
0.010208116
0.010213432
0.01021833
0.010222776
0.010226747
0.010230229
0.010233207
0.010235666
0.010237584
0.010238934
0.010239686
0.010239815
0.010239298
0.010238115
0.010236236
0.010233622
0.01023021
0.010225912
0.010220612
0.01021416
0.010206373
0.010197052
0.010185967
0.010172787
0.010157017
0.010138108
0.010115379
0.010088486
0.010066286
0.010049621
0.010037569
0.010029622
0.010025668
0.010026791
0.010037473
0.010046995
0.030634443
0.018789828
0.016320437
0.013638914
0.012192534
0.011526647
0.011027651
0.010780551
0.01057996
0.01045932
0.010362979
0.010294219
0.0102405
0.010199511
0.010167724
0.010143182
0.010124404
0.010110255
0.010099695
0.010092835
0.010088296
0.010085846
0.010085143
0.010086355
0.010088331
0.010091658
0.010095884
0.010100863
0.010106465
0.010112584
0.010119114
0.01012595
0.010132998
0.010140176
0.010147415
0.010154653
0.010161835
0.010168912
0.010175835
0.010182562
0.010189052
0.010195267
0.010201167
0.010206713
0.010211872
0.010216604
0.010220873
0.010224648
0.010227914
0.010230662
0.010232886
0.010234578
0.010235723
0.0102363
0.010236283
0.010235647
0.010234371
0.010232437
0.010229816
0.010226473
0.010222349
0.010217365
0.010211411
0.010204339
0.010195963
0.010186071
0.010174414
0.010160674
0.010144383
0.010125082
0.01010258
0.010076751
0.010056409
0.010041202
0.010030379
0.010023305
0.010019557
0.010020691
0.010031026
0.010038426
0.028949527
0.018974797
0.015900812
0.01327824
0.011959689
0.011371122
0.010914443
0.010694842
0.010512393
0.010403892
0.010317087
0.010255317
0.010207513
0.010171396
0.010143826
0.010122951
0.010107411
0.010096217
0.010088214
0.010083699
0.010081301
0.010081591
0.01008214
0.010084794
0.010088687
0.010093476
0.010099047
0.010105246
0.01011194
0.01011902
0.010126379
0.010133914
0.010141529
0.010149141
0.01015668
0.010164087
0.010171309
0.010178301
0.010185023
0.010191439
0.010197518
0.01020323
0.010208548
0.010213443
0.010217891
0.010221866
0.010225341
0.010228291
0.010230707
0.010232587
0.010233932
0.010234741
0.010235007
0.010234712
0.010233835
0.010232351
0.01023024
0.010227482
0.010224054
0.010219919
0.010215025
0.010209296
0.010202632
0.010194886
0.010185872
0.010175366
0.0101631
0.010148765
0.010131962
0.010112278
0.010089933
0.010065602
0.010047087
0.010033329
0.0100237
0.010017475
0.010014009
0.010015076
0.010024533
0.010029623
0.026886849
0.019162544
0.015411844
0.012947631
0.011745265
0.011227419
0.010810717
0.010616054
0.01045162
0.010354477
0.010276903
0.010221898
0.010179891
0.01014859
0.010125208
0.010108
0.010095704
0.010087482
0.010082112
0.01007977
0.010079084
0.010081328
0.010084651
0.010089057
0.01009446
0.010100685
0.010107546
0.010114888
0.010122577
0.010130497
0.010138546
0.010146619
0.010154623
0.010162474
0.010170107
0.010177464
0.0101845
0.010191179
0.010197468
0.010203343
0.010208784
0.010213775
0.010218301
0.010222344
0.010225893
0.010228935
0.010231453
0.010233429
0.010234859
0.010235749
0.010236103
0.010235927
0.010235219
0.010233968
0.010232154
0.010229754
0.010226745
0.010223109
0.010218821
0.010213846
0.010208135
0.010201616
0.010194197
0.010185735
0.010176044
0.010164892
0.010151996
0.010137051
0.010119758
0.010099765
0.010077421
0.010055123
0.010038403
0.010026069
0.010017582
0.010012187
0.010009078
0.010009918
0.010017878
0.010020236
0.025153004
0.019334999
0.014737947
0.012644335
0.011549212
0.011095963
0.010717303
0.010545272
0.010398209
0.010311524
0.010242855
0.010194428
0.010158105
0.010131574
0.010112361
0.010098835
0.010089803
0.010084513
0.010081969
0.010079606
0.010084493
0.010088006
0.010093025
0.010099131
0.010106076
0.010113657
0.010121704
0.010130062
0.010138591
0.010147176
0.010155713
0.010164102
0.010172256
0.010180094
0.010187556
0.010194595
0.010201175
0.010207269
0.010212862
0.010217941
0.010222499
0.010226537
0.010230053
0.010233044
0.010235511
0.010237452
0.01023886
0.010239728
0.010240054
0.010239846
0.010239115
0.010237871
0.010236116
0.010233844
0.010231035
0.010227667
0.010223716
0.010219161
0.010213976
0.010208129
0.010201569
0.010194231
0.010186027
0.010176819
0.010166421
0.010154605
0.01014108
0.010125533
0.01010777
0.010087608
0.010065144
0.01004537
0.01003041
0.010019465
0.010012059
0.010007456
0.010004755
0.010005278
0.010011571
0.010012781
0.023659144
0.019477679
0.014197188
0.012366208
0.011372027
0.010977119
0.010634719
0.010483157
0.010352336
0.010275427
0.010215364
0.010173388
0.010142666
0.010120886
0.010105844
0.010096025
0.01009031
0.010087695
0.010088466
0.010091453
0.010095149
0.010100944
0.010107817
0.010115546
0.010123911
0.010132712
0.010141777
0.010150952
0.010160094
0.01016909
0.010177837
0.010186248
0.010194241
0.010201747
0.010208718
0.010215119
0.010220929
0.010226139
0.010230747
0.010234758
0.010238184
0.010241038
0.010243335
0.010245085
0.010246302
0.010246994
0.010247164
0.010246811
0.010245937
0.010244551
0.010242666
0.010240295
0.010237442
0.010234103
0.010230263
0.010225896
0.010220976
0.010215479
0.010209379
0.010202642
0.010195218
0.010187045
0.01017804
0.010168071
0.010156954
0.010144463
0.010130328
0.010114228
0.010096003
0.010075835
0.010053957
0.010036384
0.010023143
0.010013541
0.01000715
0.010003291
0.010001023
0.010001214
0.010006081
0.010007308
0.022287211
0.019607734
0.013727692
0.012113454
0.011213633
0.010870536
0.010562762
0.010429436
0.010314334
0.010246664
0.01019493
0.010159333
0.010134159
0.01011714
0.010106291
0.010100205
0.010097893
0.010098627
0.01010161
0.010106537
0.010113187
0.010120868
0.010129454
0.010138661
0.010148266
0.010158065
0.010167889
0.010177585
0.010187018
0.010196077
0.010204669
0.010212722
0.010220171
0.010226963
0.01023307
0.010238474
0.010243175
0.010247181
0.010250512
0.01025319
0.010255244
0.010256703
0.010257594
0.010257943
0.010257772
0.010257098
0.010255932
0.010254279
0.01025214
0.010249525
0.010246445
0.010242913
0.010238936
0.010234511
0.010229624
0.010224247
0.010218352
0.010211909
0.010204891
0.010197263
0.010188976
0.010179969
0.010170162
0.010159433
0.010147599
0.010134439
0.010119718
0.010103149
0.010084514
0.010064283
0.010043758
0.010028218
0.010016612
0.010008297
0.010002862
0.0099996971
0.009997891
0.0099978382
0.010001359
0.010002401
0.021054956
0.019695527
0.013297539
0.011886065
0.011073601
0.010776221
0.010501562
0.010384696
0.010284551
0.010225759
0.010182131
0.0101529
0.010133264
0.010121037
0.010114423
0.010112113
0.010113163
0.010116871
0.010122686
0.010130101
0.010138692
0.010148201
0.010158303
0.010168739
0.010179286
0.010189742
0.010199945
0.01020975
0.010219035
0.010227704
0.010235683
0.01024292
0.010249375
0.010255025
0.010259861
0.010263893
0.010267141
0.010269637
0.010271418
0.010272525
0.010273002
0.010272891
0.010272232
0.01027106
0.010269404
0.010267288
0.010264728
0.01026173
0.010258297
0.010254434
0.010250149
0.010245453
0.010240353
0.010234845
0.010228916
0.010222539
0.01021568
0.010208305
0.010200383
0.010191879
0.010182745
0.01017292
0.010162327
0.010150853
0.010138323
0.010124521
0.010109237
0.010092281
0.010073395
0.010052939
0.010034604
0.010020897
0.010010814
0.010003717
0.0099991845
0.0099966561
0.0099953172
0.0099952228
0.009997828
0.0099987442
0.019945335
0.019701853
0.01290736
0.011682043
0.010951167
0.010694208
0.010451228
0.010349273
0.010263455
0.010213362
0.010177699
0.010154866
0.0101408
0.010133419
0.010131084
0.010132574
0.010137002
0.010143694
0.010152084
0.010161724
0.010172233
0.010183264
0.010194542
0.010205808
0.010216848
0.01022747
0.010237525
0.010246892
0.010255472
0.010263196
0.010270021
0.010275925
0.010280904
0.010284965
0.010288129
0.010290431
0.010291917
0.010292636
0.010292643
0.010291994
0.010290745
0.010288947
0.010286648
0.010283887
0.0102807
0.010277111
0.01027314
0.010268793
0.010264071
0.010258975
0.010253505
0.010247669
0.010241471
0.010234906
0.010227962
0.010220612
0.010212817
0.010204539
0.010195744
0.010186393
0.010176443
0.01016583
0.010154481
0.01014229
0.010129101
0.010114706
0.010098899
0.010081578
0.010062707
0.010042503
0.010026478
0.010014443
0.010005738
0.0099997739
0.0099960949
0.0099941322
0.009993216
0.0099933517
0.0099957312
0.0099967701
0.018945498
0.019489819
0.012555216
0.011500321
0.010846115
0.010624723
0.010412066
0.010323834
0.010251769
0.010210371
0.010182592
0.010166227
0.010157782
0.010155291
0.010157241
0.010162491
0.010170191
0.010179692
0.010190453
0.010202017
0.010214008
0.0102261
0.010238018
0.010249522
0.010260415
0.010270537
0.010279766
0.010288019
0.010295238
0.010301397
0.010306489
0.010310535
0.010313566
0.010315627
0.010316766
0.010317044
0.010316525
0.010315274
0.010313358
0.010310843
0.010307789
0.010304252
0.010300284
0.010295925
0.010291211
0.010286168
0.010280811
0.010275148
0.010269176
0.01026289
0.010256284
0.010249357
0.010242108
0.010234532
0.010226617
0.010218335
0.010209648
0.010200511
0.010190885
0.01018073
0.010170003
0.010158647
0.010146584
0.010133718
0.010119912
0.010104989
0.01008874
0.010071045
0.010052245
0.010033486
0.010019382
0.010008862
0.010001379
0.0099964445
0.0099935722
0.0099921004
0.0099914953
0.0099920315
0.0099946407
0.0099959608
0.018040733
0.01864563
0.012238377
0.011340189
0.010758699
0.010568174
0.010384623
0.010309337
0.010250558
0.010217959
0.01019804
0.010188206
0.010185398
0.010187768
0.010193909
0.010202745
0.010213456
0.010225408
0.010238074
0.010251008
0.010263845
0.010276276
0.010288055
0.010298979
0.010308894
0.010317689
0.010325296
0.010331682
0.010336849
0.010340817
0.010343629
0.010345346
0.010346036
0.010345772
0.010344631
0.010342687
0.010340019
0.010336701
0.010332804
0.010328395
0.010323535
0.01031828
0.010312677
0.010306765
0.010300578
0.010294139
0.01028746
0.010280546
0.01027339
0.010265983
0.01025831
0.01025036
0.010242127
0.010233603
0.010224774
0.010215616
0.01020609
0.010196148
0.010185745
0.010174838
0.010163386
0.010151336
0.010138613
0.010125124
0.010110751
0.01009535
0.010078764
0.010060831
0.010041859
0.010025699
0.010013315
0.010004149
0.0099977348
0.0099937079
0.0099915914
0.0099905651
0.0099901275
0.0099910919
0.0099943026
0.0099964359
0.017222811
0.017288991
0.011958912
0.011201383
0.010687995
0.01052549
0.010369952
0.0103072
0.01026127
0.010237597
0.010225493
0.010222172
0.010224908
0.010231961
0.010242008
0.010254025
0.010267215
0.01028096
0.010294752
0.010308173
0.010320894
0.010332654
0.010343266
0.010352594
0.010360555
0.010367113
0.010372268
0.010376054
0.010378531
0.010379775
0.01037987
0.010378911
0.010376995
0.010374217
0.010370666
0.010366427
0.010361581
0.010356203
0.01035036
0.010344114
0.010337521
0.01033063
0.010323483
0.010316113
0.010308548
0.010300806
0.010292897
0.010284821
0.010276569
0.010268126
0.01025947
0.010250582
0.010241445
0.010232047
0.010222373
0.010212402
0.010202098
0.010191413
0.010180295
0.010168696
0.010156575
0.010143887
0.010130561
0.010116511
0.01010163
0.01008579
0.010068895
0.01005108
0.01003304
0.010019003
0.010008225
0.010000278
0.0099947979
0.0099915407
0.0099900998
0.0099895357
0.0099891881
0.0099905969
0.0099945195
0.0099973252
0.016487636
0.016425301
0.011722948
0.011084301
0.010634901
0.010498066
0.010369551
0.010319103
0.010285602
0.010270917
0.010266505
0.010269525
0.010277504
0.010288792
0.01030213
0.010316541
0.010331259
0.010345704
0.010359425
0.010372072
0.010383396
0.010393228
0.010401475
0.010408102
0.010413118
0.010416573
0.010418545
0.010419131
0.010418443
0.0104166
0.010413719
0.010409914
0.010405296
0.010399967
0.01039402
0.010387538
0.010380596
0.01037326
0.01036559
0.010357636
0.010349444
0.010341054
0.010332496
0.010323799
0.01031498
0.010306055
0.010297028
0.010287896
0.010278647
0.010269262
0.010259716
0.01024998
0.010240029
0.010229843
0.010219402
0.010208687
0.010197669
0.010186305
0.010174538
0.010162315
0.010149588
0.010136318
0.010122446
0.010107892
0.010092565
0.010076368
0.010059189
0.010041322
0.010025564
0.010013347
0.010004024
0.0099971846
0.0099925417
0.0099899234
0.0099890039
0.0099889422
0.0099887982
0.0099905097
0.0099947132
0.0099980141
0.015827328
0.01542306
0.011521451
0.01098946
0.010600371
0.010487598
0.010385061
0.010346954
0.010325469
0.010319705
0.010322665
0.010331544
0.010344056
0.010358634
0.010374094
0.010389533
0.010404271
0.010417825
0.010429865
0.010440167
0.010448616
0.010455175
0.010459873
0.010462787
0.010464024
0.010463714
0.010461998
0.010459023
0.010454934
0.010449872
0.010443965
0.010437335
0.010430089
0.010422324
0.010414123
0.01040556
0.010396695
0.010387582
0.010378265
0.010368784
0.010359171
0.010349452
0.010339648
0.010329777
0.01031985
0.010309875
0.010299852
0.010289777
0.010279636
0.010269408
0.010259064
0.010248572
0.010237898
0.010227013
0.01021589
0.010204509
0.010192845
0.010180864
0.010168514
0.010155735
0.01014247
0.010128677
0.010114315
0.010099311
0.010083574
0.01006707
0.010049934
0.010032737
0.010019212
0.010008625
0.010000599
0.009994763
0.0099908932
0.0099888572
0.009988229
0.0099884692
0.0099887264
0.0099907308
0.0099950034
0.0099985665
0.015236211
0.014742812
0.011356828
0.010917543
0.010585451
0.010496288
0.010418672
0.01039311
0.010383107
0.010385806
0.010395305
0.010408896
0.010424482
0.010440621
0.010456275
0.010470709
0.01048342
0.010494108
0.010502629
0.010508946
0.010513105
0.010515214
0.010515424
0.010513909
0.010510852
0.010506439
0.010500845
0.010494239
0.010486775
0.010478594
0.010469817
0.010460554
0.010450898
0.010440928
0.010430713
0.010420307
0.010409756
0.010399096
0.010388356
0.010377559
0.010366724
0.010355865
0.010344992
0.010334113
0.01032323
0.010312346
0.010301456
0.010290553
0.010279623
0.010268646
0.010257593
0.01024643
0.010235119
0.010223623
0.010211907
0.010199942
0.010187705
0.010175169
0.010162295
0.010149025
0.010135295
0.010121046
0.01010624
0.010090841
0.010074768
0.010057946
0.010040756
0.010025652
0.010013859
0.010004718
0.0099978293
0.0099928881
0.0099897264
0.0099882337
0.0099878447
0.0099882666
0.0099889176
0.0099911622
0.0099953843
0.0099990587
0.014708632
0.013990239
0.011225735
0.010871183
0.010591994
0.010527482
0.010473439
0.010460291
0.010460612
0.010470379
0.010484543
0.010500613
0.010516773
0.010531841
0.010545059
0.010555977
0.010564367
0.010570177
0.010573492
0.01057446
0.010573283
0.010570189
0.010565411
0.010559183
0.010551724
0.010543234
0.010533895
0.010523866
0.010513288
0.010502278
0.010490942
0.010479363
0.010467611
0.010455745
0.010443812
0.010431846
0.010419876
0.01040792
0.010395992
0.010384102
0.010372252
0.010360447
0.010348684
0.010336962
0.010325277
0.010313623
0.010301993
0.010290376
0.010278758
0.01026712
0.010255437
0.010243679
0.010231806
0.010219779
0.010207554
0.010195093
0.010182364
0.010169341
0.010155996
0.010142289
0.010128162
0.010113535
0.010098341
0.010082556
0.010066218
0.010049434
0.010032749
0.010019712
0.010009419
0.010001515
0.0099956095
0.0099914487
0.0099889135
0.009987875
0.009987727
0.0099882892
0.0099891695
0.0099916537
0.009995851
0.0099994674
0.014244255
0.013407784
0.011132847
0.010855084
0.010623908
0.010585243
0.010552473
0.010550342
0.010558444
0.010572343
0.010587867
0.010602955
0.01061626
0.010627035
0.01063493
0.010639858
0.010641908
0.010641279
0.010638244
0.010633098
0.010626141
0.010617656
0.01060791
0.010597141
0.010585557
0.010573343
0.010560653
0.010547618
0.010534345
0.010520925
0.010507429
0.010493917
0.010480432
0.010467008
0.010453671
0.010440437
0.010427318
0.010414316
0.010401431
0.01038866
0.010375995
0.010363427
0.010350946
0.010338542
0.010326203
0.010313916
0.010301669
0.010289449
0.010277242
0.010265029
0.01025279
0.010240499
0.010228124
0.010215627
0.010202964
0.010190089
0.010176956
0.010163528
0.010149776
0.010135674
0.010121189
0.010106256
0.01009078
0.010074672
0.010057964
0.010041137
0.01002635
0.010014793
0.01000579
0.0099989286
0.0099938626
0.0099903643
0.0099883343
0.0099876309
0.0099878279
0.0099884357
0.0099895713
0.0099922165
0.0099962621
0.0099995693
0.013848481
0.012945315
0.011080647
0.010874347
0.010705843
0.010672616
0.010656843
0.010662072
0.010673445
0.010686849
0.010699204
0.010709116
0.010715889
0.010719313
0.010719475
0.010716632
0.010711124
0.010703325
0.010693608
0.010682326
0.010669793
0.010656287
0.010642046
0.01062727
0.010612127
0.010596756
0.010581269
0.010565756
0.010550289
0.010534922
0.010519698
0.010504647
0.010489789
0.010475138
0.0104607
0.010446473
0.010432455
0.010418637
0.010405006
0.010391549
0.010378248
0.010365087
0.010352046
0.010339108
0.010326253
0.010313463
0.010300721
0.01028801
0.010275312
0.010262611
0.010249888
0.010237123
0.010224293
0.010211367
0.01019831
0.010185077
0.010171617
0.010157878
0.01014381
0.010129378
0.010114556
0.010099316
0.010083616
0.010067403
0.010050718
0.01003418
0.010021182
0.010010855
0.010002893
0.009996889
0.0099925294
0.0099896026
0.0099880064
0.0099875082
0.009987834
0.0099885908
0.0099900081
0.0099928722
0.0099967823
0.0099997359
0.013530527
0.012573032
0.011073239
0.010929009
0.010807859
0.010788863
0.01078285
0.010789278
0.010797746
0.010805109
0.010809527
0.010810421
0.010807758
0.010801806
0.010792977
0.010781733
0.01076853
0.010753784
0.010737861
0.010721078
0.010703697
0.010685934
0.010667963
0.010649924
0.010631927
0.010614056
0.010596379
0.010578943
0.010561783
0.010544923
0.010528378
0.010512155
0.010496254
0.010480671
0.010465397
0.010450418
0.01043572
0.010421284
0.010407089
0.010393113
0.010379333
0.010365725
0.010352263
0.010338923
0.01032568
0.01031251
0.010299391
0.010286299
0.010273216
0.010260121
0.010246996
0.010233824
0.010220586
0.010207263
0.010193831
0.010180259
0.010166505
0.010152518
0.010138232
0.010123583
0.010108511
0.010092975
0.010076965
0.010060536
0.010044003
0.010028874
0.010017114
0.01000782
0.010000677
0.0099953433
0.0099915467
0.0099890918
0.0099878342
0.0099874681
0.0099878643
0.0099886505
0.0099902165
0.0099932609
0.0099972465
0.01000002
0.013307199
0.012302868
0.01111349
0.01102556
0.010940153
0.010925478
0.010920361
0.010920641
0.010919855
0.010916237
0.010909138
0.010898686
0.010885308
0.010869528
0.010851869
0.010832807
0.010812753
0.010792048
0.010770967
0.01074973
0.010728509
0.010707434
0.010686605
0.010666096
0.010645959
0.01062623
0.010606933
0.010588081
0.010569679
0.010551725
0.010534213
0.010517131
0.010500464
0.010484196
0.010468307
0.010452774
0.010437573
0.01042268
0.010408068
0.01039371
0.010379578
0.010365642
0.010351874
0.010338244
0.010324724
0.010311285
0.010297898
0.010284538
0.010271179
0.010257797
0.010244371
0.01023088
0.010217308
0.010203638
0.010189855
0.010175944
0.010161881
0.010147633
0.010133147
0.010118354
0.01010317
0.010087514
0.010071348
0.01005477
0.010038377
0.010024834
0.010014047
0.010005593
0.0099990951
0.0099942658
0.0099908763
0.0099887592
0.0099877656
0.0099875158
0.0099879498
0.0099887706
0.0099903374
0.0099932043
0.0099969519
0.0099997238
0.013178579
0.012133613
0.011206574
0.011152927
0.0110875
0.011068992
0.011055019
0.01104248
0.011027779
0.011010421
0.010990536
0.010968587
0.010945107
0.010920587
0.010895443
0.010870012
0.010844556
0.010819277
0.010794322
0.010769799
0.010745784
0.010722328
0.010699463
0.010677204
0.010655558
0.010634523
0.010614089
0.010594242
0.010574966
0.01055624
0.010538042
0.010520348
0.010503133
0.01048637
0.010470034
0.010454095
0.010438525
0.010423294
0.010408373
0.010393732
0.010379339
0.010365164
0.010351174
0.010337339
0.010323627
0.010310007
0.010296447
0.010282917
0.010269388
0.01025583
0.010242217
0.010228525
0.01021473
0.010200812
0.010186757
0.010172549
0.010158177
0.010143623
0.010128861
0.010113846
0.010098517
0.010082807
0.010066681
0.010050242
0.010034183
0.010021785
0.010011808
0.010004028
0.0099980612
0.0099936373
0.0099905509
0.0099886554
0.0099878111
0.0099876224
0.0099880809
0.0099889897
0.0099906335
0.0099933769
0.009996861
0.0099995512
0.013111744
0.012061159
0.011363621
0.011294596
0.011233402
0.011200671
0.011170983
0.011142099
0.011112315
0.011081638
0.011050332
0.011018761
0.010987251
0.010956064
0.010925399
0.010895393
0.010866141
0.010837701
0.010810106
0.010783367
0.010757482
0.01073244
0.010708222
0.010684802
0.010662153
0.010640246
0.010619048
0.01059853
0.010578658
0.010559399
0.010540723
0.010522597
0.010504988
0.010487867
0.0104712
0.010454957
0.010439106
0.010423616
0.010408455
0.010393591
0.010378993
0.010364629
0.010350467
0.010336475
0.010322621
0.010308873
0.010295199
0.010281568
0.010267947
0.010254305
0.010240612
0.010226839
0.010212956
0.010198937
0.010184759
0.010170398
0.010155835
0.010141049
0.010126014
0.010110699
0.010095064
0.01007908
0.010062781
0.010046437
0.010031331
0.010019614
0.010010249
0.010002971
0.0099974261
0.0099933467
0.0099905177
0.0099887779
0.0099879939
0.0099879062
0.0099883851
0.0099893527
0.0099909435
0.009993335
0.0099963185
0.0099990463
0.013119308
0.012019907
0.011517929
0.011426781
0.011354118
0.011302972
0.011256201
0.011212301
0.011169971
0.011129019
0.01108939
0.011051106
0.011014184
0.010978625
0.010944413
0.010911518
0.010879898
0.010849506
0.01082029
0.010792197
0.010765173
0.010739165
0.01071412
0.010689988
0.01066672
0.01064427
0.010622592
0.010601644
0.010581385
0.010561775
0.010542776
0.010524351
0.010506466
0.010489085
0.010472174
0.0104557
0.010439631
0.010423933
0.010408576
0.010393528
0.010378756
0.010364229
0.010349917
0.010335787
0.010321809
0.010307951
0.010294183
0.010280474
0.010266794
0.010253111
0.010239396
0.010225618
0.010211747
0.010197756
0.010183614
0.010169294
0.010154766
0.010139998
0.010124949
0.01010957
0.01009381
0.010077636
0.010061107
0.010044628
0.010030011
0.010018605
0.010009519
0.010002475
0.0099971323
0.0099932345
0.0099905686
0.0099889552
0.0099882262
0.0099882151
0.0099887732
0.0099898428
0.0099914577
0.009993672
0.0099963255
0.0099989067
0.013210433
0.012044388
0.01163357
0.011522928
0.011434891
0.011367861
0.011308216
0.011254016
0.011203622
0.011156375
0.011111827
0.011069683
0.011029713
0.01099173
0.010955575
0.01092111
0.010888212
0.01085677
0.010826685
0.010797865
0.010770228
0.010743697
0.010718203
0.01069368
0.010670069
0.010647312
0.010625359
0.01060416
0.010583669
0.010563843
0.010544641
0.010526023
0.010507952
0.010490392
0.010473308
0.010456665
0.01044043
0.01042457
0.010409054
0.01039385
0.010378926
0.010364251
0.010349795
0.010335528
0.01032142
0.01030744
0.010293559
0.010279749
0.010265981
0.010252227
0.010238458
0.010224648
0.010210769
0.010196797
0.010182705
0.010168469
0.010154062
0.010139454
0.010124604
0.010109465
0.010093983
0.010078122
0.010061915
0.010045658
0.010030742
0.010019207
0.010010005
0.010002878
0.0099974727
0.0099935303
0.0099908319
0.0099891896
0.0099884333
0.0099884136
0.0099890134
0.0099901268
0.0099917183
0.0099937368
0.00999611
0.0099986986
0.013335023
0.012100839
0.011694006
0.011571489
0.011473237
0.011397911
0.011332191
0.011273503
0.011219785
0.011170048
0.011123614
0.011080023
0.01103893
0.011000065
0.010963207
0.010928173
0.010894808
0.010862975
0.010832558
0.010803451
0.010775561
0.010748803
0.010723102
0.010698386
0.010674594
0.010651664
0.010629544
0.010608182
0.010587531
0.010567546
0.010548186
0.010529409
0.01051118
0.010493459
0.010476213
0.010459407
0.010443008
0.010426982
0.010411298
0.010395924
0.010380829
0.010365982
0.010351353
0.010336911
0.010322627
0.010308472
0.010294415
0.010280429
0.010266484
0.010252554
0.010238611
0.010224627
0.010210577
0.010196436
0.010182178
0.010167779
0.010153214
0.010138454
0.01012346
0.010108184
0.010092577
0.01007661
0.010060344
0.010044182
0.010029939
0.010018759
0.010009839
0.010002895
0.0099975975
0.0099937027
0.0099910123
0.00998936
0.0099885918
0.0099884005
0.0099892022
0.0099902893
0.0099918594
0.0099937411
0.0099959412
0.0099985361
66.064283
360.30259
121.00232
14.556132
0.40164489
0.021383995
0.020095086
0.019793107
0.019534404
0.018483067
0.017149848
0.015964106
0.015063859
0.014492535
0.014086616
0.013701863
0.013327192
0.012994981
0.012716069
0.012482752
0.012284484
0.012113542
0.011964722
0.011834212
0.011718984
0.011616566
0.011524971
0.011442605
0.011368216
0.011300817
0.011239592
0.011183826
0.011132899
0.011086287
0.011043578
0.011004439
0.010968583
0.010935759
0.010905733
0.010878298
0.01085327
0.010830474
0.010809733
0.010790881
0.010773758
0.010758203
0.01074405
0.010731141
0.01071934