/*--------------------------------*- C++ -*----------------------------------*\
  =========                 |
  \\      /  F ield         | OpenFOAM: The Open Source CFD Toolbox
   \\    /   O peration     | Website:  https://openfoam.org
    \\  /    A nd           | Version:  12
     \\/     M anipulation  |
\*---------------------------------------------------------------------------*/
FoamFile
{
    format      ascii;
    class       volScalarField;
    location    "0.125";
    object      p;
}
// * * * * * * * * * * * * * * * * * * * * * * * * * * * * * * * * * * * * * //

dimensions      [1 -1 -2 0 0 0 0];

internalField   nonuniform List<scalar> 
16000
(
89812.325
89937.688
89949.494
90083.25
90109.214
90235.957
90286.087
90402.212
90475.573
90586.034
90677.555
90787.897
90893.401
91008.004
91124.473
91246.352
91372.262
91502.801
91637.846
91777.483
91921.721
92070.563
92223.988
92381.955
92544.394
92711.209
92882.275
93057.434
93236.496
93419.24
93605.407
93794.706
93986.812
94181.367
94377.981
94576.236
94775.689
94975.874
95176.306
95376.491
95575.924
95774.098
95970.512
96164.674
96356.104
96544.346
96728.969
96909.569
97085.778
97257.264
97423.733
97584.931
97740.644
97890.696
98034.954
98173.319
98305.731
98432.16
98552.609
98667.111
98775.722
98878.52
98975.603
99067.087
99153.099
99233.78
99309.282
99379.764
99445.393
99506.339
99562.77
99614.862
99662.807
99706.728
99746.589
99782.724
99821.393
99827.276
99915.554
99833.209
89445.466
89587.661
89596.904
89742.729
89770.356
89907.981
89960.511
90087.885
90165.05
90285.593
90383.459
90502.69
90616.446
90739.842
90865.493
90996.772
91132.486
91273.116
91418.583
91568.939
91724.179
91884.282
92049.198
92218.85
92393.133
92571.905
92754.995
92942.194
93133.26
93327.911
93525.831
93726.666
93930.026
94135.491
94342.607
94550.894
94759.851
94968.958
95177.681
95385.483
95591.826
95796.178
95998.023
96196.861
96392.219
96583.657
96770.766
96953.178
97130.566
97302.647
97469.181
97629.97
97784.861
97933.741
98076.536
98213.206
98343.747
98468.182
98586.563
98698.965
98805.482
98906.225
99001.319
99090.901
99175.116
99254.115
99328.053
99397.091
99461.389
99521.113
99576.428
99627.515
99674.539
99717.554
99756.729
99793.318
99825.243
99847.942
99906.626
99851.777
89109.885
89267.455
89276.601
89435.593
89463.209
89614.486
89668.609
89808.216
89890.168
90021.133
90126.691
90255.422
90378.668
90511.849
90647.859
90789.723
90936.453
91088.407
91245.519
91407.801
91575.218
91747.714
91925.199
92107.554
92294.625
92486.222
92682.117
92882.044
93085.696
93292.726
93502.745
93715.328
93930.014
94146.308
94363.687
94581.603
94799.491
95016.776
95232.878
95447.221
95659.239
95868.385
96074.138
96276.008
96473.543
96666.334
96854.014
97036.269
97212.831
97383.481
97548.051
97706.416
97858.497
98004.253
98143.682
98276.813
98403.703
98524.437
98639.115
98747.86
98850.806
98948.098
99039.886
99126.329
99207.588
99283.823
99355.195
99421.861
99483.978
99541.7
99595.187
99644.605
99690.084
99731.699
99769.842
99805.002
99834.497
99863.159
99903.857
99869.529
88808.564
88976.842
88987.042
89161.272
89188.366
89355.784
89412.108
89565.936
89653.648
89796.589
89911.335
90050.937
90185.305
90329.739
90477.634
90631.558
90790.731
90955.388
91125.467
91300.943
91481.749
91667.792
91858.942
92055.033
92255.857
92461.164
92670.661
92884.01
93100.824
93320.675
93543.091
93767.56
93993.535
94220.437
94447.664
94674.596
94900.604
95125.057
95347.332
95566.825
95782.955
95995.174
96202.974
96405.894
96603.524
96795.508
96981.546
97161.394
97334.866
97501.829
97662.199
97815.942
97963.064
98103.611
98237.658
98365.311
98486.695
98601.955
98711.248
98814.74
98912.609
99005.029
99092.177
99174.23
99251.362
99323.74
99391.528
99454.88
99513.945
99568.864
99619.784
99666.845
99710.152
99749.835
99786.257
99819.271
99847.552
99876.899
99906.694
99887.877
88545.075
88728.184
88735.201
88928.07
88954.096
89139.862
89198.36
89368.268
89463.036
89619.389
89745.125
89896.815
90043.845
90200.793
90361.826
90529.015
90701.792
90880.301
91064.484
91254.284
91449.601
91650.298
91856.19
92067.049
92282.594
92502.495
92726.37
92953.786
93184.258
93417.255
93652.202
93888.485
94125.456
94362.446
94598.767
94833.725
95066.631
95296.808
95523.605
95746.403
95964.627
96177.752
96385.311
96586.897
96782.168
96970.85
97152.732
97327.669
97495.575
97656.421
97810.228
97957.061
98097.026
98230.257
98356.918
98477.189
98591.267
98699.356
98801.665
98898.406
98989.791
99076.023
99157.301
99233.815
99305.747
99373.271
99436.546
99495.721
99550.934
99602.315
99649.989
99694.064
99734.633
99771.858
99805.93
99836.477
99863.439
99891.03
99913.561
99906.771
88324.336
88524.996
88529.851
88743.685
88768.602
88974.693
89035.468
89223.154
89326.211
89496.764
89634.757
89799.072
89959.697
90129.999
90305.119
90486.644
90674.18
90867.791
91067.391
91272.872
91484.07
91700.774
91922.716
92149.573
92380.963
92616.445
92855.522
93097.638
93342.185
93588.508
93835.911
94083.664
94331.011
94577.185
94821.417
95062.947
95301.038
95534.986
95764.134
95987.88
96205.682
96417.073
96621.656
96819.115
97009.21
97191.775
97366.72
97534.019
97693.711
97845.886
97990.683
98128.276
98258.875
98382.709
98500.026
98611.083
98716.14
98815.458
98909.294
98997.896
99081.504
99160.346
99234.634
99304.567
99370.331
99432.095
99490.015
99544.229
99594.862
99642.029
99685.829
99726.337
99763.648
99797.898
99829.075
99856.894
99882.135
99906.658
99923.663
99926.606
88146.871
88368.285
88370.374
88608.706
88632.633
88862.787
88926.757
89133.793
89245.164
89429.26
89580.418
89757.956
89933.497
90118.645
90309.522
90507.211
90711.402
90922.053
91139.009
91362.072
91590.985
91825.431
92065.026
92309.322
92557.804
92809.892
93064.942
93322.253
93581.07
93840.596
94100
94358.428
94615.017
94868.909
95119.266
95365.283
95606.203
95841.327
96070.027
96291.756
96506.051
96712.541
96910.945
97101.073
97282.822
97456.171
97621.173
97777.949
97926.675
98067.575
98200.911
98326.974
98446.072
98558.529
98664.669
98764.819
98859.295
98948.405
99032.442
99111.682
99186.387
99256.795
99323.127
99385.582
99444.344
99499.573
99551.413
99599.99
99645.412
99687.774
99727.146
99763.58
99797.167
99827.972
99855.8
99880.658
99903.717
99924.259
99936.658
99948.217
88006.856
88252.648
88250.472
88518.31
88539.149
88795.974
88863.039
89089.052
89211.948
89411.982
89579.941
89773.502
89966.956
90169.846
90379.252
90595.835
90819.317
91049.554
91286.298
91529.245
91778.014
92032.151
92291.127
92554.335
92821.094
93090.652
93362.192
93634.84
93907.678
94179.751
94450.091
94717.723
94981.69
95241.064
95494.97
95742.593
95983.198
96216.14
96440.873
96656.956
96864.058
97061.953
97250.524
97429.749
97599.699
97760.527
97912.453
98055.757
98190.765
98317.839
98437.362
98549.735
98655.362
98754.644
98847.975
98935.734
99018.283
99095.961
99169.084
99237.947
99302.818
99363.939
99421.529
99475.779
99526.863
99574.928
99620.1
99662.487
99702.179
99739.246
99773.726
99805.66
99835.126
99862.071
99886.192
99907.908
99928.322
99944.132
99952.639
99972.1
87902.353
88176.342
88169.774
88474.149
88489.141
88774.522
88846.835
89094.671
89234.245
89452.725
89641.143
89853.642
90068.065
90291.788
90522.717
90761.163
91006.819
91259.413
91518.57
91783.834
92054.664
92330.428
92610.407
92893.793
93179.702
93467.174
93755.19
94042.683
94328.557
94611.704
94891.022
95165.443
95433.942
95695.568
95949.454
96194.836
96431.065
96657.614
96874.087
97080.216
97275.859
97460.996
97635.716
97800.209
97954.748
98099.678
98235.403
98362.367
98481.043
98591.922
98695.5
98792.271
98882.716
98967.301
99046.467
99120.63
99190.178
99255.465
99316.818
99374.532
99428.872
99480.072
99528.339
99573.85
99616.759
99657.195
99695.263
99731.049
99764.619
99796.015
99825.247
99852.35
99877.373
99900.117
99920.277
99938.74
99956.083
99966.652
99972.011
99998.602
87835.851
88142.77
88133.058
88474.364
88488.421
88805.834
88889.423
89162.402
89321.807
89560.716
89773.219
90007.845
90246.494
90494.443
90750.188
91013.734
91284.668
91562.55
91846.826
92136.842
92431.838
92730.951
93033.218
93337.584
93642.915
93948.011
94251.627
94552.496
94849.348
95140.937
95426.069
95703.618
95972.56
96231.984
96481.112
96719.314
96946.113
97161.186
97364.366
97555.63
97735.092
97902.986
98059.65
98205.509
98341.057
98466.839
98583.435
98691.444
98791.47
98884.114
98969.961
99049.575
99123.492
99192.214
99256.208
99315.907
99371.702
99423.948
99472.962
99519.028
99562.396
99603.28
99641.865
99678.307
99712.736
99745.256
99775.946
99804.869
99832.065
99857.54
99881.286
99903.335
99923.677
99941.968
99958.028
99973.186
99987.044
99992.061
99995.137
100028.23
87813.981
88160.029
88146.388
88527.966
88545.857
88899.531
88998.053
89298.079
89483.004
89745.202
89986.017
90246.71
90513.321
90789.301
91073.505
91365.653
91665.159
91971.358
92283.447
92600.502
92921.474
93245.197
93570.403
93895.736
94219.775
94541.062
94858.121
95169.497
95473.78
95769.639
96055.85
96331.323
96595.123
96846.491
97084.85
97309.813
97521.182
97718.935
97903.217
98074.321
98232.666
98378.775
98513.256
98636.776
98750.04
98853.779
98948.727
99035.609
99115.13
99187.97
99254.769
99316.13
99372.611
99424.727
99472.946
99517.69
99559.337
99598.222
99634.64
99668.848
99701.069
99731.489
99760.264
99787.521
99813.361
99837.858
99861.066
99883.02
99903.728
99923.168
99941.317
99958.203
99973.72
99987.41
99999.363
100011.21
100021.14
100020.41
100022.21
100061.53
87845.51
88238.105
88220.556
88649.868
88672.668
89065.796
89183.716
89512.63
89728.803
90017.595
90291.079
90582.312
90881.076
91189.323
91506.022
91830.578
92162.132
92499.696
92842.12
93188.111
93536.241
93884.968
94232.662
94577.628
94918.144
95252.497
95579.013
95896.104
96202.3
96496.288
96776.938
97043.331
97294.771
97530.795
97751.171
97955.884
98145.125
98319.264
98478.825
98624.458
98756.911
98877.003
98985.595
99083.574
99171.828
99251.229
99322.626
99386.826
99444.594
99496.644
99543.636
99586.175
99624.813
99660.043
99692.311
99722.008
99749.479
99775.023
99798.898
99821.326
99842.49
99862.543
99881.605
99899.768
99917.102
99933.649
99949.436
99964.468
99978.72
99992.144
100004.72
100016.44
100027.09
100036.16
100044.14
100052.68
100058.25
100051.91
100053.63
100098.42
87931.532
88379.5
88358.621
88842.338
88873.469
89309.851
89454.7
89815.077
90069.593
90389.73
90700.995
91028.194
91364.122
91709.537
92063.279
92424.339
92791.444
93163.15
93537.84
93913.748
94288.986
94661.579
95029.499
95390.712
95743.218
96085.106
96414.599
96730.102
97030.244
97313.907
97580.254
97828.732
98059.076
98271.291
98465.636
98642.587
98802.807
98947.11
99076.425
99191.758
99294.166
99384.724
99464.505
99534.557
99595.891
99649.468
99696.191
99736.9
99772.366
99803.295
99830.327
99854.034
99874.929
99893.462
99910.03
99924.977
99938.598
99951.145
99962.827
99973.821
99984.269
99994.28
100003.94
100013.29
100022.38
100031.22
100039.8
100048.11
100056.07
100063.63
100070.77
100077.44
100083.28
100087.87
100092.11
100097.35
100098.24
100086.87
100089.79
100138.58
88077.094
88590.802
88567.201
89112.715
89158.496
89642.064
89823.097
90218.28
90518.897
90876.68
91231.761
91601.367
91980.355
92368.427
92764.018
93165.54
93571.138
93978.779
94386.266
94791.276
95191.407
95584.222
95967.312
96338.356
96695.188
97035.857
97358.686
97662.314
97945.731
98208.284
98449.684
98669.976
98869.518
99048.938
99209.087
99350.995
99475.821
99584.814
99679.267
99760.489
99829.775
99888.382
99937.512
99978.3
100011.81
100039.01
100060.81
100078.01
100091.36
100101.5
100109.02
100114.42
100118.16
100120.62
100122.14
100122.98
100123.4
100123.58
100123.68
100123.83
100124.12
100124.61
100125.36
100126.36
100127.64
100129.16
100130.89
100132.79
100134.76
100136.73
100138.69
100140.5
100141.71
100142.08
100142.92
100144.84
100140.9
100125.57
100130.86
100181.53
88288.824
88881.163
88856.697
89472.441
89540.062
90074.858
90303.273
90738.422
91094.092
91497.967
91904.308
92323.791
92752.32
93188.55
93630.26
94075.119
94520.552
94963.816
95402.039
95832.282
96251.61
96657.178
97046.314
97416.613
97766.007
98092.835
98395.878
98674.378
98928.032
99156.965
99361.687
99543.036
99702.123
99840.262
99958.914
100059.63
100144.01
100213.64
100270.09
100314.85
100349.36
100374.95
100392.86
100404.21
100410.05
100411.29
100408.78
100403.24
100395.33
100385.63
100374.62
100362.73
100350.32
100337.71
100325.15
100312.84
100300.97
100289.66
100279.01
100269.09
100259.95
100251.62
100244.09
100237.35
100231.36
100226.08
100221.44
100217.36
100213.74
100210.51
100207.64
100204.88
100201.73
100198.29
100196.1
100194.66
100185.88
100167.95
100176.59
100226.41
88573.046
89259.331
89236.837
89932.338
90033.018
90624.862
90915.265
91398.88
91820.085
92280.304
92746.169
93223.039
93707.021
94195.694
94685.978
95174.631
95658.193
96133.079
96595.672
97042.437
97470.042
97875.483
98256.195
98610.136
98935.84
99232.441
99499.654
99737.74
99947.439
100129.89
100286.56
100419.14
100529.49
100619.55
100691.28
100746.63
100787.49
100815.64
100832.77
100840.45
100840.11
100833.04
100820.43
100803.32
100782.65
100759.23
100733.79
100706.94
100679.24
100651.13
100623.02
100595.22
100568.02
100541.63
100516.22
100491.94
100468.88
100447.12
100426.7
100407.65
100389.95
100373.6
100358.56
100344.77
100332.18
100320.7
100310.25
100300.72
100292.01
100284.04
100276.75
100269.78
100262.67
100255.9
100251.06
100246.24
100232.71
100213.38
100226.18
100272.92
88937.161
89735.673
89720.628
90510.881
90661.58
91320.477
91689.935
92232.821
92730.126
93257.021
93790.061
94330.516
94873.997
95416.813
95954.716
96483.283
96997.987
97494.364
97968.195
98415.683
98833.609
99219.45
99571.452
99888.647
100170.83
100418.48
100632.69
100815.02
100967.43
101092.13
101191.48
101267.92
101323.88
101361.75
101383.77
101392.1
101388.71
101375.41
101353.86
101325.54
101291.78
101253.73
101212.45
101168.83
101123.65
101077.58
101031.2
100985
100939.38
100894.7
100851.22
100809.18
100768.74
100730.05
100693.2
100658.25
100625.25
100594.2
100565.1
100537.92
100512.62
100489.14
100467.41
100447.34
100428.86
100411.86
100396.23
100381.84
100368.58
100356.4
100345.15
100334.4
100323.82
100314.28
100307.12
100298.96
100281.06
100261.31
100278.57
100321.87
89400.64
90337.405
90341.179
91245.955
91464.234
92200.423
92666.194
93279.479
93862.357
94465.425
95071.996
95679.926
96283.49
96877.243
97455.379
98012.164
98542.156
99040.483
99503.058
99926.751
100309.47
100650.18
100948.84
101206.31
101424.19
101604.67
101750.37
101864.18
101949.13
102008.31
102044.71
102061.25
102060.64
102045.42
102017.89
101980.17
101934.12
101881.42
101823.55
101761.8
101697.3
101631.02
101563.79
101496.34
101429.25
101363.04
101298.12
101234.85
101173.49
101114.26
101057.35
101002.85
100950.88
100901.47
100854.65
100810.42
100768.76
100729.63
100692.97
100658.72
100626.79
100597.1
100569.53
100544
100520.38
100498.56
100478.4
100459.77
100442.57
100426.73
100412.02
100397.97
100384.48
100372.72
100363.5
100352.1
100330.69
100311.58
100333.15
100372.99
89995.923
91108.466
91141.386
92179.229
92483.685
93304.991
93885.703
94582.836
95260.725
95948.344
96631.929
97305.836
97962.184
98593.504
99192.635
99753.217
100270
100739.08
101157.99
101525.69
101842.48
102109.8
102330.03
102506.23
102641.95
102741.01
102807.31
102844.73
102857.01
102847.66
102819.96
102776.88
102721.11
102655.06
102580.85
102500.34
102415.16
102326.72
102236.22
102144.7
102053.02
101961.94
101872.06
101783.89
101697.84
101614.27
101533.42
101455.5
101380.66
101309.01
101240.62
101175.52
101113.71
101055.17
100999.86
100947.72
100898.69
100852.66
100809.56
100769.28
100731.69
100696.69
100664.15
100633.94
100605.94
100580
100555.97
100533.74
100513.2
100494.25
100476.57
100459.75
100443.96
100430.49
100419.36
100404.97
100381.26
100364.07
100389.55
100424.8
90752.354
92076.698
92153.221
93343.138
93767.462
94685.766
95402.816
96200.258
96980.527
97754.864
98508.986
99233.724
99919.282
100557.25
101140.79
101665
102127
102525.91
102862.62
103139.5
103360.09
103528.7
103650.16
103729.52
103771.84
103782
103764.63
103724
103663.99
103588.11
103499.44
103400.7
103294.27
103182.2
103066.24
102947.89
102828.44
102708.95
102590.32
102473.28
102358.45
102246.33
102137.31
102031.7
101929.75
101831.62
101737.44
101647.3
101561.22
101479.21
101401.26
101327.31
101257.31
101191.16
101128.77
101070.04
101014.84
100963.06
100914.57
100869.24
100826.92
100787.47
100750.76
100716.64
100684.97
100655.58
100628.34
100603.11
100579.82
100558.28
100538.16
100519.13
100501.64
100486.85
100473.95
100457.06
100432.52
100418.39
100446.3
100475.13
91699.196
93288.2
93444.596
94803.979
95393.507
96424.716
97295.011
98203.129
99080.205
99924.367
100719.83
101455.69
102122.81
102715.02
103229.04
103664.4
104023.01
104308.72
104526.75
104683.26
104784.84
104838.2
104849.86
104826.01
104772.35
104694.03
104595.66
104481.29
104354.43
104218.14
104075.02
103927.29
103776.8
103625.14
103473.61
103323.29
103175.08
103029.68
102887.7
102749.59
102615.7
102486.31
102361.62
102241.77
102126.82
102016.84
101911.81
101811.7
101716.47
101626.03
101540.28
101459.12
101382.42
101310.06
101241.88
101177.74
101117.5
101061
101008.09
100958.61
100912.4
100869.3
100829.16
100791.83
100757.14
100724.94
100695.07
100667.43
100641.91
100618.29
100596.21
100575.52
100556.85
100541.07
100526.59
100507.84
100483.71
100473.06
100501.13
100522.47
92919.157
94842.654
95123.455
96672.885
97474.834
98627.625
99646.381
100650.1
101587.49
102449.99
103223.96
103901.75
104479.73
104958.29
105341.07
105634.23
105845.58
105983.87
106058.18
106077.44
106050.11
105983.96
105886.02
105762.45
105618.67
105459.31
105288.33
105109.07
104924.35
104736.51
104547.48
104358.85
104171.95
103987.81
103807.29
103631.06
103459.65
103293.45
103132.78
102977.83
102828.75
102685.62
102548.47
102417.29
102292.03
102172.62
102058.96
101950.93
101848.4
101751.23
101659.27
101572.34
101490.28
101412.93
101340.1
101271.61
101207.3
101147
101090.51
101037.68
100988.32
100942.27
100899.36
100859.44
100822.32
100787.86
100755.91
100726.36
100699.08
100673.81
100650.24
100628.37
100608.93
100592.39
100576.57
100556.65
100533.7
100525.91
100551.98
100567.11
94543.631
96880.434
97340.192
99078.087
100127.57
101387.53
102502.98
103536.5
104450.62
105239.13
105897.83
106428.85
106838.72
107137.24
107336.13
107447.97
107485.31
107460.1
107383.3
107264.69
107112.84
106935.11
106737.75
106525.99
106304.21
106075.99
105844.31
105611.56
105379.68
105150.25
104924.5
104703.42
104487.78
104278.14
104074.96
103878.55
103689.11
103506.78
103331.62
103163.65
103002.82
102849.06
102702.26
102562.31
102429.04
102302.31
102181.94
102067.73
101959.51
101857.07
101760.21
101668.75
101582.46
101501.16
101424.64
101352.71
101285.16
101221.82
101162.48
101106.97
101055.1
101006.69
100961.58
100919.59
100880.55
100844.31
100810.74
100779.71
100751.07
100724.54
100699.88
100677.25
100657.32
100640.14
100623.2
100602.63
100581.3
100576
100599.51
100608.94
96762.445
99562.522
100263.34
102141.26
103401.19
104708.27
105804.77
106741.56
107505.69
108102.88
108544.09
108844.99
109023.39
109097.56
109085.04
109001.92
108862.41
108678.78
108461.42
108218.97
107958.55
107685.96
107405.9
107122.13
106837.65
106554.83
106275.55
106001.24
105733.04
105471.78
105218.08
104972.41
104735.06
104506.22
104286.01
104074.44
103871.48
103677.04
103491.02
103313.26
103143.59
102981.82
102827.75
102681.15
102541.81
102409.51
102284
102165.06
102052.45
101945.94
101845.3
101750.3
101660.72
101576.33
101496.92
101422.26
101352.16
101286.41
101224.82
101167.18
101113.32
101063.04
101016.18
100972.57
100932.02
100894.4
100859.58
100827.42
100797.74
100770.29
100744.89
100721.83
100701.6
100683.85
100666.03
100645.43
100626.19
100623.09
100643.26
100646.01
99827.836
103003.5
104010.7
105954.64
107256.29
108417.9
109330.01
110017.28
110497.28
110796.53
110942.78
110963.37
110883.23
110724.19
110504.74
110240.2
109943.01
109623.16
109288.56
108945.43
108598.65
108251.98
107908.31
107569.85
107238.27
106914.8
106600.33
106295.49
106000.72
105716.27
105442.28
105178.77
104925.7
104682.98
104450.43
104227.88
104015.11
103811.88
103617.94
103433.02
103256.87
103089.2
102929.73
102778.2
102634.33
102497.84
102368.46
102245.92
102129.97
102020.35
101916.79
101819.06
101726.91
101640.1
101558.41
101481.61
101409.49
101341.84
101278.45
101219.13
101163.68
101111.92
101063.67
101018.76
100977.03
100938.34
100902.55
100869.52
100839.06
100810.94
100785.09
100761.79
100741.33
100723.06
100704.76
100684.87
100667.91
100665.49
100680.64
100679.91
103998.2
107387.4
108597.13
110280.49
111401.01
112228.15
112760.71
113053.11
113149.69
113093.31
112920.18
112660.38
112337.99
111971.94
111576.89
111164.02
110741.84
110316.72
109893.42
109475.45
109065.38
108665.04
108275.73
107898.33
107533.41
107181.29
106842.11
106515.89
106202.53
105901.87
105613.66
105337.66
105073.55
104821.03
104579.76
104349.41
104129.64
103920.09
103720.42
103530.31
103349.4
103177.37
103013.9
102858.67
102711.36
102571.68
102439.32
102314
102195.43
102083.34
101977.47
101877.55
101783.33
101694.57
101611.03
101532.48
101458.7
101389.47
101324.6
101263.87
101207.11
101154.11
101104.71
101058.74
101016.04
100976.47
100939.89
100906.15
100875.07
100846.47
100820.33
100796.86
100776.13
100757.41
100739
100720.32
100705.57
100702.97
100712.08
100706.84
109203.84
112556.95
113671.17
114794.25
115404.29
115688.58
115711.2
115545.17
115244.23
114850.57
114395.51
113902.15
113387.23
112862.81
112337.46
111817.24
111306.37
110807.72
110323.21
109854.09
109401.06
108964.48
108544.46
108140.9
107753.58
107382.19
107026.36
106685.67
106359.67
106047.9
105749.9
105465.21
105193.37
104933.91
104686.39
104450.39
104225.47
104011.22
103807.25
103613.15
103428.57
103253.12
103086.45
102928.23
102778.12
102635.79
102500.94
102373.26
102252.46
102138.25
102030.35
101928.51
101832.47
101741.96
101656.76
101576.63
101501.35
101430.7
101364.48
101302.48
101244.51
101190.39
101139.95
101093.01
101049.43
101009.06
100971.77
100937.41
100905.8
100876.82
100850.45
100826.78
100805.75
100786.75
100768.77
100751.72
100738.26
100732.93
100735.33
100730.46
115395.48
117898.1
118507.14
118788.74
118696.94
118371.96
117892.73
117319.49
116692.59
116039.38
115378.01
114720.42
114074.35
113444.69
112834.47
112245.38
111678.28
111133.45
110610.78
110109.9
109630.29
109171.33
108732.33
108312.58
107911.37
107527.98
107161.71
106811.88
106477.84
106158.94
105854.59
105564.2
105287.2
105023.06
104771.28
104531.34
104302.8
104085.19
103878.07
103681.04
103493.7
103315.64
103146.52
102985.96
102833.62
102689.18
102552.31
102422.69
102300.04
102184.06
102074.47
101971.01
101873.4
101781.41
101694.78
101613.29
101536.71
101464.82
101397.42
101334.31
101275.3
101220.19
101168.83
101121.05
101076.7
101035.63
100997.71
100962.78
100930.71
100901.39
100874.78
100850.85
100829.47
100810.21
100792.59
100776.74
100764.22
100757.18
100754.54
100747.6
121992.52
122433.1
122218.11
121674.15
120949.02
120132.13
119279.25
118421.93
117578.6
116759.42
115969.77
115212.18
114487.47
113795.43
113135.28
112505.94
111906.11
111334.48
110789.7
110270.46
109775.48
109303.58
108853.61
108424.49
108015.23
107624.86
107252.52
106897.36
106558.6
106235.5
105927.38
105633.59
105353.5
105086.53
104832.13
104589.79
104358.99
104139.26
103930.16
103731.25
103542.11
103362.36
103191.6
103029.48
102875.64
102729.75
102591.48
102460.52
102336.56
102219.32
102108.51
102003.87
101905.12
101812.02
101724.33
101641.81
101564.23
101491.4
101423.08
101359.1
101299.25
101243.35
101191.24
101142.76
101097.76
101056.08
101017.6
100982.17
100949.68
100920.03
100893.13
100868.87
100847.12
100827.68
100810.42
100795.46
100783.15
100773.76
100766.72
100759.91
125847
125226.33
124317.82
123273.49
122197.19
121132.67
120102.48
119115.84
118176.2
117283.8
116437.35
115634.83
114873.9
114152.13
113467.16
112816.72
112198.7
111611.13
111052.18
110520.19
110013.61
109531.03
109071.14
108632.74
108214.73
107816.06
107435.81
107073.07
106727.04
106396.95
106082.07
105781.74
105495.32
105222.22
104961.88
104713.76
104477.36
104252.2
104037.83
103833.8
103639.7
103455.14
103279.72
103113.09
102954.9
102804.79
102662.46
102527.57
102399.83
102278.95
102164.65
102056.64
101954.67
101858.49
101767.84
101682.5
101602.24
101526.84
101456.1
101389.81
101327.78
101269.83
101215.79
101165.5
101118.8
101075.56
101035.63
100998.87
100965.2
100934.49
100906.63
100881.47
100858.88
100838.86
100821.48
100806.71
100794.04
100782.75
100773.04
100766.86
103952.86
103926.13
103974.22
104022.38
104057.95
104067.61
104050.14
104020.6
103985.15
103940.42
103882.01
103810.5
103729.75
103644.6
103555.78
103463.38
103367.71
103269.25
103168.43
103065.64
102961.24
102855.57
102748.96
102641.68
102534.03
102426.25
102318.57
102211.21
102104.38
101998.26
101893.03
101788.87
101685.94
101584.39
101484.37
101386.04
101289.53
101194.99
101102.56
101012.37
100924.57
100839.28
100756.63
100676.77
100599.83
100525.92
100455.17
100387.71
100323.65
100263.08
100206.12
100152.85
100103.33
100057.63
100015.79
99977.817
99943.724
99913.483
99887.048
99864.345
99845.276
99829.712
99817.507
99808.469
99802.451
99799.1
99798.537
99799.702
99804.212
99807.909
99818.595
99820.484
99841.515
99833.637
99874.091
99842.273
99914.076
99848.422
99952.458
99854.391
103313.59
103307.43
103321.25
103337.39
103336.08
103328.65
103317.68
103300.04
103270.76
103235.77
103193.89
103146.92
103094.1
103036.55
102974.33
102908.1
102838.1
102764.66
102688.11
102608.75
102526.88
102442.79
102356.77
102269.09
102180.03
102089.84
101998.78
101907.1
101815.05
101722.84
101630.71
101538.88
101447.57
101356.97
101267.3
101178.74
101091.49
101005.74
100921.66
100839.45
100759.26
100681.28
100605.67
100532.6
100462.21
100394.65
100330.09
100268.65
100210.46
100155.64
100104.31
100056.54
100012.43
99972.018
99935.359
99902.468
99873.338
99847.939
99826.219
99808.095
99793.457
99782.169
99774.073
99768.971
99766.694
99766.91
99769.665
99774.033
99781.346
99787.988
99800.731
99805.636
99827.755
99823.09
99864.039
99835.669
99906.692
99843.347
99949.517
99848.881
102896.88
102881.35
102852.88
102822.99
102793.77
102766.5
102734.64
102703.47
102668.65
102633.32
102594.02
102553.36
102509.13
102462.82
102413.46
102361.58
102307.01
102249.9
102190.3
102128.31
102064.07
101997.69
101929.32
101859.13
101787.29
101713.96
101639.35
101563.63
101487.02
101409.71
101331.92
101253.85
101175.72
101097.75
101020.15
100943.12
100866.9
100791.68
100717.67
100645.09
100574.14
100505.01
100437.89
100372.99
100310.47
100250.53
100193.31
100138.99
100087.7
100039.59
99994.767
99953.339
99915.39
99880.985
99850.165
99822.95
99799.331
99779.275
99762.722
99749.584
99739.745
99733.06
99729.362
99728.448
99730.135
99734.103
99740.346
99748.035
99758.297
99767.905
99782.891
99790.691
99814.198
99812.426
99854.065
99828.81
99899.501
99838.284
99946.49
99843.645
102305.43
102282.89
102254.44
102223.08
102191.95
102164.29
102132.27
102103.14
102069.89
102038.61
102003.83
101969.81
101933.01
101895.84
101856.54
101815.96
101773.58
101729.55
101683.76
101636.2
101586.87
101535.77
101482.94
101428.44
101372.33
101314.71
101255.68
101195.37
101133.92
101071.47
101008.2
100944.27
100879.88
100815.23
100750.51
100685.93
100621.7
100558.05
100495.18
100433.32
100372.68
100313.48
100255.94
100200.25
100146.63
100095.26
100046.33
100000.03
99956.499
99915.899
99878.357
99843.986
99812.878
99785.102
99760.704
99739.702
99722.089
99707.826
99696.851
99689.071
99684.362
99682.575
99683.536
99687.039
99692.888
99700.775
99710.655
99721.775
99735.101
99747.714
99765.084
99775.703
99800.772
99801.675
99844.167
99821.798
99892.586
99833.275
99943.529
99838.678
101583.52
101567.7
101552.25
101533.97
101513.76
101497.8
101475.97
101458.51
101435.65
101416.07
101392.04
101369.82
101344.4
101319.46
101292.42
101264.56
101235.11
101204.34
101172.06
101138.27
101102.94
101066.04
101027.57
100987.55
100946.02
100903.01
100858.58
100812.81
100765.81
100717.66
100668.51
100618.49
100567.74
100516.45
100464.78
100412.93
100361.1
100309.48
100258.3
100207.77
100158.1
100109.53
100062.27
100016.53
99972.538
99930.491
99890.588
99853.016
99817.946
99785.536
99755.924
99729.229
99705.549
99684.956
99667.498
99653.192
99642.03
99633.971
99628.947
99626.861
99627.586
99630.965
99636.822
99644.946
99655.135
99667.091
99680.736
99695.387
99711.867
99727.533
99747.375
99760.769
99787.481
99790.944
99834.248
99814.705
99885.855
99828.363
99940.655
99833.95
100872.54
100866.46
100862.22
100857.06
100847.89
100843.89
100832.59
100827.16
100814.89
100807.19
100793.85
100783.3
100768.85
100755.53
100739.92
100723.81
100706.11
100687.29
100667.13
100645.64
100622.81
100598.6
100573.01
100546.02
100517.65
100487.91
100456.83
100424.46
100390.86
100356.09
100320.25
100283.45
100245.81
100207.45
100168.54
100129.25
100089.73
100050.2
100010.83
99971.847
99933.454
99895.866
99859.302
99823.978
99790.109
99757.901
99727.557
99699.264
99673.198
99649.519
99628.368
99609.866
99594.112
99581.178
99571.108
99563.921
99559.602
99558.109
99559.367
99563.275
99569.7
99578.484
99589.443
99602.368
99617.051
99633.203
99650.722
99668.987
99688.694
99707.454
99729.824
99745.948
99774.365
99780.329
99824.376
99807.609
99879.278
99823.572
99937.639
99829.504
100229.34
100229.55
100230.58
100233.74
100231.64
100236.22
100232.1
100235.6
100230.82
100232.2
100227.22
100226.52
100221.13
100217.05
100210.41
100203.81
100195.81
100187.02
100177.15
100166.22
100154.18
100141
100126.64
100111.09
100094.34
100076.37
100057.22
100036.88
100015.41
99992.837
99969.241
99944.694
99919.291
99893.144
99866.376
99839.129
99811.555
99783.823
99756.11
99728.602
99701.497
99674.995
99649.301
99624.623
99601.165
99579.127
99558.705
99540.081
99523.426
99508.895
99496.626
99486.735
99479.317
99474.438
99472.138
99472.428
99475.29
99480.673
99488.499
99498.658
99511.015
99525.406
99541.646
99559.523
99578.827
99599.281
99620.759
99642.703
99665.69
99687.577
99712.5
99731.311
99761.534
99769.935
99814.707
99800.598
99872.845
99818.912
99934.463
99825.374
99651.764
99656.904
99660.942
99669.163
99670.646
99680.862