/*--------------------------------*- C++ -*----------------------------------*\
  =========                 |
  \\      /  F ield         | OpenFOAM: The Open Source CFD Toolbox
   \\    /   O peration     | Website:  https://openfoam.org
    \\  /    A nd           | Version:  12
     \\/     M anipulation  |
\*---------------------------------------------------------------------------*/
FoamFile
{
    format      ascii;
    class       volScalarField;
    location    "0.125";
    object      T;
}
// * * * * * * * * * * * * * * * * * * * * * * * * * * * * * * * * * * * * * //

dimensions      [0 0 0 1 0 0 0];

internalField   nonuniform List<scalar> 
16000
(
294.93388
286.54374
289.7797
288.02403
289.12151
288.6185
289.03722
288.92765
289.12287
289.15667
289.27679
289.36099
289.46561
289.5676
289.67552
289.78669
289.90194
290.02112
290.14432
290.27153
290.40276
290.53801
290.67725
290.82041
290.96743
291.1182
291.2726
291.43047
291.59163
291.75587
291.92295
292.09259
292.2645
292.43835
292.61379
292.79044
292.96791
293.14578
293.32364
293.50105
293.67758
293.85279
294.02626
294.19758
294.36634
294.53219
294.69476
294.85375
295.00885
295.15983
295.30647
295.44859
295.58605
295.71875
295.84662
295.96961
296.08772
296.20098
296.30942
296.41315
296.5123
296.60701
296.69747
296.7839
296.86659
296.94585
297.02203
297.09543
297.1663
297.23485
297.30138
297.3664
297.43066
297.495
297.56002
297.62572
297.69987
297.75112
297.87742
297.87929
294.63358
286.14581
289.53181
287.67397
288.8383
288.29846
288.7522
288.6333
288.84284
288.88209
289.00913
289.10218
289.21391
289.32468
289.44095
289.56105
289.68541
289.81401
289.94686
290.08397
290.22534
290.37091
290.52065
290.67445
290.8322
290.99378
291.159
291.32767
291.49956
291.6744
291.8519
292.03172
292.21353
292.39692
292.58151
292.76686
292.95252
293.13805
293.32299
293.50686
293.68921
293.86959
294.04757
294.22273
294.39469
294.5631
294.72763
294.88798
295.04393
295.19526
295.3418
295.48342
295.62005
295.75162
295.87812
295.99956
296.11598
296.22745
296.33405
296.4359
296.53317
296.62603
296.71468
296.79935
296.88035
296.958
297.03265
297.10463
297.17422
297.24163
297.30715
297.37125
297.4347
297.49833
297.56287
297.62942
297.6978
297.76262
297.85994
297.89769
294.34756
285.77649
289.28452
287.36673
288.57062
288.02078
288.48818
288.37704
288.59143
288.64244
288.77496
288.87851
288.99831
289.11877
289.24456
289.37464
289.50925
289.64837
289.79202
289.94016
290.09276
290.24974
290.41102
290.57646
290.74591
290.91918
291.09605
291.27626
291.45953
291.64552
291.83388
292.02421
292.2161
292.40911
292.60276
292.79656
292.99004
293.18268
293.37398
293.56345
293.75062
293.93502
294.11623
294.29384
294.46749
294.63685
294.80165
294.96164
295.11664
295.26649
295.41109
295.55039
295.68434
295.81298
295.93634
296.05448
296.16752
296.27556
296.37873
296.47719
296.57114
296.66077
296.7463
296.82799
296.90614
296.98109
297.0532
297.12282
297.19023
297.25567
297.3194
297.38187
297.44381
297.50609
297.56961
297.63508
297.70138
297.77124
297.85568
297.90755
294.08473
285.43685
289.05451
287.09648
288.33626
287.77617
288.25757
288.15572
288.37551
288.43975
288.57876
288.69401
288.82318
288.95452
289.09109
289.23237
289.37842
289.52924
289.6848
289.84505
290.00992
290.17929
290.35302
290.53096
290.71287
290.89853
291.08764
291.27988
291.47489
291.67227
291.87159
292.07238
292.27414
292.47637
292.67852
292.88006
293.08043
293.2791
293.47554
293.66923
293.85968
294.04646
294.22914
294.40735
294.58077
294.74914
294.91222
295.06984
295.22189
295.36829
295.50901
295.64408
295.77353
295.89745
296.01596
296.12919
296.23729
296.34043
296.43878
296.53254
296.62193
296.70717
296.78851
296.8662
296.94055
297.01192
297.08066
297.14714
297.21167
297.27448
297.33583
297.3961
297.456
297.51644
297.57838
297.64211
297.70713
297.7774
297.85337
297.91609
293.84567
285.1336
288.84983
286.87126
288.1468
287.57288
288.06455
287.97652
288.2003
288.28037
288.42663
288.5549
288.69479
288.83813
288.98671
289.14032
289.29895
289.46257
289.63114
289.80457
289.98274
290.16549
290.35265
290.54396
290.73917
290.93793
291.13989
291.34465
291.55174
291.76069
291.97096
292.18201
292.39326
292.60412
292.81398
293.02224
293.22832
293.43163
293.63164
293.82782
294.0197
294.20687
294.38895
294.56561
294.73662
294.90176
295.06089
295.21394
295.36086
295.50169
295.63647
295.7653
295.88833
296.00572
296.11764
296.2243
296.3259
296.42266
296.51481
296.60256
296.68617
296.76588
296.84194
296.91463
296.98425
297.05116
297.11571
297.17829
297.23922
297.29874
297.35708
297.41458
297.47189
297.52996
297.58969
297.65123
297.71482
297.78349
297.85429
297.92317
293.63404
284.87304
288.6778
286.68342
287.98169
287.4172
287.91985
287.84562
288.07307
288.17
288.32438
288.46645
288.61819
288.77444
288.93611
289.10312
289.27545
289.45304
289.6358
289.82359
290.01623
290.2135
290.41514
290.62082
290.83017
291.04277
291.25816
291.47581
291.69518
291.91566
292.13662
292.35743
292.57742
292.79591
293.01224
293.22577
293.43587
293.64196
293.84349
294.03997
294.23097
294.41613
294.59513
294.76776
294.93384
295.09327
295.24602
295.3921
295.5316
295.66463
295.79135
295.91196
296.02668
296.13574
296.2394
296.33793
296.43157
296.5206
296.60527
296.68584
296.76257
296.83572
296.90556
296.97236
297.03642
297.0981
297.15774
297.21574
297.27242
297.32805
297.38282
297.43703
297.49126
297.54644
297.60341
297.6624
297.72408
297.79002
297.85666
297.92972
293.45281
284.65692
288.53813
286.53186
287.85183
287.31085
287.81204
287.7658
287.99251
288.11045
288.27392
288.43056
288.59556
288.76601
288.94224
289.12421
289.31184
289.50501
289.70356
289.90727
290.11587
290.32905
290.54643
290.76758
290.992
291.21914
291.44842
291.67919
291.91077
292.14244
292.37346
292.6031
292.8306
293.05522
293.27626
293.49304
293.70494
293.91137
294.11185
294.30593
294.49326
294.67357
294.84667
295.01243
295.1708
295.32183
295.46558
295.60222
295.73193
295.85493
295.9715
296.08193
296.18651
296.28557
296.37941
296.46836
296.55272
296.63279
296.70886
296.7812
296.85009
296.9158
296.97858
297.03872
297.09651
297.15228
297.20638
297.25919
297.31106
297.36224
297.41294
297.46338
297.51408
297.5659
297.6196
297.67567
297.73493
297.79739
297.86024
297.93592
293.29986
284.48328
288.42871
286.41529
287.75182
287.2373
287.74056
287.70417
287.96135
288.10017
288.27532
288.44838
288.62908
288.81597
289.00905
289.20822
289.41335
289.62422
289.84057
290.06208
290.28837
290.51899
290.75344
290.99112
291.2314
291.4736
291.71695
291.96068
292.20397
292.44597
292.68584
292.92275
293.15587
293.38443
293.60771
293.82503
294.0358
294.23952
294.43576
294.6242
294.8046
294.97682
295.14081
295.29661
295.4443
295.58408
295.71617
295.84084
295.95841
296.06924
296.17367
296.27209
296.36488
296.45241
296.53507
296.61319
296.68714
296.75722
296.82375
296.887
296.94726
297.00479
297.05986
297.11272
297.16365
297.21296
297.261
297.30813
297.35469
297.40098
297.44715
297.49342
297.5402
297.58821
297.6382
297.69099
297.74737
297.80576
297.86488
297.94209
293.17029
284.35021
288.35261
286.33398
287.70071
287.23425
287.73096
287.75457
287.98318
288.14318
288.33355
288.52557
288.72495
288.93101
289.14362
289.36259
289.58769
289.81859
290.05491
290.29619
290.5419
290.79143
291.04409
291.29913
291.55574
291.81304
292.07013
292.32604
292.57983
292.83054
293.07723
293.319
293.555
293.78444
294.00663
294.22097
294.42696
294.6242
294.81242
294.99144
295.1612
295.32174
295.47319
295.61575
295.7497
295.87538
295.99316
296.10346
296.20672
296.30338
296.39389
296.47871
296.55829
296.63304
296.70337
296.76967
296.8323
296.8916
296.94786
297.00138
297.05242
297.10125
297.14809
297.19321
297.23685
297.2793
297.32088
297.36194
297.40283
297.44383
297.48511
297.52686
297.56938
297.61322
297.65914
297.70832
297.76136
297.81526
297.87071
297.94834
293.06337
284.2599
288.31537
286.3028
287.70367
287.27232
287.76666
287.81818
288.06219
288.24832
288.45744
288.67103
288.89207
289.12019
289.35516
289.59665
289.84429
290.09762
290.35607
290.619
290.88568
291.15529
291.42693
291.69965
291.97241
292.24415
292.51377
292.78018
293.04228
293.29904
293.54945
293.7926
294.02765
294.25389
294.47073
294.67769
294.87445
295.06078
295.23662
295.40202
295.55713
295.70219
295.83755
295.96361
296.08083
296.18971
296.29076
296.38453
296.47156
296.55238
296.62751
296.69746
296.76271
296.82372
296.88091
296.93468
296.98538
297.03335
297.07889
297.12225
297.16371
297.20348
297.2418
297.27889
297.31496
297.35029
297.38516
297.4199
297.45484
297.49027
297.52639
297.56334
297.60134
297.64073
297.68228
297.72757
297.7768
297.82594
297.87787
297.95479
292.9827
284.22023
288.32283
286.38888
287.76467
287.37379
287.86068
287.95711
288.21024
288.42409
288.656
288.89425
289.14027
289.39364
289.65404
289.92094
290.1938
290.47192
290.75452
291.04071
291.32951
291.61984
291.91054
292.20041
292.48818
292.77259
293.05238
293.32632
293.59323
293.85203
294.10174
294.34149
294.57057
294.78842
294.99464
295.18897
295.37134
295.5418
295.70054
295.84787
295.98421
296.11003
296.2259
296.33242
296.43021
296.51993
296.6022
296.67768
296.74698
296.8107
296.86939
296.92359
296.97381
297.02049
297.06405
297.1049
297.14336
297.17975
297.21435
297.24739
297.27912
297.30972
297.3394
297.36834
297.39675
297.42485
297.45289
297.48117
297.51001
297.5397
297.57045
297.60242
297.6357
297.67045
297.70748
297.74859
297.79351
297.83774
297.88658
297.96155
292.93464
284.24412
288.38335
286.52592
287.87219
287.54414
288.02462
288.16612
288.43607
288.68031
288.93938
289.20595
289.48062
289.76278
290.0519
290.34723
290.64795
290.95307
291.2615
291.57204
291.88339
292.19414
292.50286
292.80807
293.10829
293.40207
293.68803
293.96486
294.2314
294.48662
294.72964
294.95981
295.17663
295.37982
295.56928
295.74508
295.90747
296.05683
296.19366
296.31857
296.43224
296.53539
296.62878
296.71318
296.78937
296.85809
296.92009
296.97606
297.02666
297.07251
297.11419
297.15222
297.18709
297.21924
297.24908
297.27694
297.30316
297.32801
297.35172
297.37452
297.39659
297.4181
297.43922
297.46009
297.48089
297.50179
297.52303
297.54485
297.56755
297.59142
297.61671
297.64357
297.67202
297.70203
297.7345
297.7712
297.81126
297.85047
297.89693
297.96847
292.92407
284.33762
288.50712
286.71439
288.04393
287.79059
288.26723
288.45758
288.75005
289.02801
289.31907
289.61826
289.92575
290.24058
290.56193
290.88871
291.2197
291.55354
291.88874
292.22369
292.55673
292.88611
293.21009
293.52695
293.83505
294.13281
294.41884
294.69188
294.9509
295.1951
295.42389
295.63693
295.83412
296.01558
296.18162
296.33272
296.4695
296.59272
296.70321
296.80184
296.88953
296.96723
297.03584
297.09627
297.14938
297.19599
297.23687
297.27275
297.30427
297.33205
297.35664
297.37854
297.3982
297.41602
297.43236
297.44752
297.46179
297.4754
297.48854
297.50138
297.51409
297.52678
297.53959
297.55262
297.566
297.57989
297.59447
297.60996
297.6266
297.64469
297.6645
297.68621
297.70974
297.73505
297.76304
297.79518
297.82985
297.86398
297.90867
297.97589
292.95294
284.50825
288.69927
286.98846
288.29044
288.12097
288.599
288.84143
289.16409
289.48034
289.80891
290.14579
290.49074
290.84237
291.19938
291.56019
291.92311
292.28625
292.64767
293.00531
293.35711
293.701
294.03499
294.35721
294.66594
294.95967
295.23715
295.49741
295.73977
295.96382
296.16948
296.35692
296.52654
296.67898
296.81502
296.9356
297.04172
297.13449
297.215
297.28439
297.34376
297.39416
297.43663
297.47212
297.50153
297.52568
297.54534
297.56119
297.57386
297.58392
297.59185
297.59812
297.6031
297.60714
297.61055
297.61359
297.61647
297.61937
297.62246
297.62586
297.62967
297.63398
297.63888
297.64444
297.65075
297.65793
297.66612
297.67549
297.68627
297.69871
297.71312
297.72968
297.7483
297.769
297.79269
297.82019
297.84909
297.87817
297.9215
297.98375
293.02611
284.76906
288.96325
287.34942
288.6236
288.54689
289.03368
289.33238
289.69381
290.05435
290.42663
290.80678
291.19393
291.5861
291.98137
292.37754
292.77229
293.16319
293.54776
293.9235
294.28802
294.63899
294.97435
295.29225
295.59116
295.86991
296.1277
296.36408
296.57899
296.7727
296.94575
297.09896
297.23335
297.35007
297.4504
297.53568
297.60726
297.66649
297.71469
297.75312
297.78298
297.8054
297.82141
297.83195
297.83791
297.84006
297.83909
297.83564
297.83026
297.82344
297.81559
297.8071
297.79829
297.78943
297.78075
297.77247
297.76473
297.75769
297.75142
297.74603
297.74156
297.73807
297.73558
297.73415
297.73384
297.73471
297.73687
297.74045
297.74564
297.75268
297.76185
297.77333
297.78708
297.80331
297.82291
297.84581
297.86881
297.89289
297.93481
297.99218
293.14792
285.1384
289.29559
287.81162
289.05715
289.08354
289.58942
289.95023
290.36009
290.77204
291.1945
291.62318
292.05639
292.4914
292.92552
293.3558
293.77926
294.19284
294.59359
294.97867
295.3455
295.69182
296.01577
296.31592
296.59134
296.84155
297.06655
297.26673
297.44288
297.59607
297.7276
297.83895
297.93171
298.00754
298.06808
298.11496
298.14977
298.174
298.18905
298.19622
298.19671
298.1916
298.18188
298.16842
298.152
298.13331
298.11295
298.09147
298.0693
298.04685
298.02446
298.00241
297.98095
297.96028
297.94058
297.92197
297.90456
297.88844
297.87366
297.86024
297.84822
297.83759
297.82835
297.8205
297.81407
297.80911
297.80568
297.80388
297.80384
297.80579
297.80997
297.81653
297.8255
297.83739
297.85305
297.87145
297.88878
297.90812
297.94797
298.00213
293.32295
285.64553
289.70254
288.39279
289.61222
289.75407
290.29192
290.72191
291.18985
291.66022
292.13831
292.61918
293.10006
293.57729
294.04724
294.50614
294.9503
295.37617
295.78054
296.16058
296.51399
296.83908
297.13473
297.40048
297.63643
297.84321
298.02191
298.17395
298.30104
298.40508
298.48807
298.55205
298.59905
298.63103
298.64987
298.65734
298.65507
298.64457
298.62721
298.6042
298.57666
298.54556
298.51175
298.476
298.43894
298.40116
298.36314
298.32529
298.28795
298.25144
298.21598
298.18178
298.14901
298.1178
298.08824
298.06041
298.03437
298.01015
297.98776
297.96717
297.94838
297.93134
297.91601
297.90237
297.89041
297.88015
297.87161
297.86486
297.86003
297.85728
297.85679
297.85865
297.86303
297.87071
297.88244
297.89638
297.9086
297.92413
297.96158
298.01061
293.56249
286.33726
290.22757
289.12392
290.31954
290.58961
291.17358
291.67959
292.21396
292.74838
293.28531
293.8189
294.34495
294.85866
295.35537
295.83058
296.28018
296.70062
297.08906
297.44341
297.76244
298.04571
298.29352
298.50687
298.68725
298.83663
298.95724
299.05153
299.12202
299.17125
299.2017
299.21575
299.21563
299.20342
299.18102
299.15015
299.11235
299.06901
299.02135
298.97044
298.91721
298.86248
298.80694
298.75118
298.69573
298.64099
298.58734
298.53506
298.4844
298.43554
298.38864
298.34382
298.30116
298.26072
298.22256
298.18668
298.15309
298.12177
298.0927
298.06582
298.04106
298.01836
297.99765
297.97886
297.96196
297.94694
297.93381
297.92261
297.91344
297.90642
297.90164
297.89914
297.89922
297.90282
297.9105
297.91988
297.92758
297.94047
297.97578
298.01721
293.89304
287.19978
290.8975
290.04215
291.21673
291.62481
292.27047
292.85911
293.46627
294.06755
294.66217
295.24297
295.80413
296.33977
296.84459
297.31405
297.74457
298.13366
298.47992
298.78303
299.04367
299.26333
299.44416
299.58883
299.70032
299.78178
299.83641
299.86738
299.87773
299.87031
299.84778
299.81256
299.76685
299.7126
299.65154
299.58522
299.51497
299.44194
299.36715
299.29144
299.21555
299.1401
299.0656
298.99249
298.92112
298.85177
298.78468
298.72003
298.65794
298.59852
298.54184
298.48793
298.43682
298.3885
298.34296
298.30018
298.2601
298.22268
298.18785
298.15552
298.1256
298.09798
298.07257
298.04928
298.02804
298.00883
297.99163
297.97647
297.96343
297.95259
297.94395
297.93751
297.93367
297.93342
297.9369
297.9415
297.94509
297.95634
297.99019
298.02374
294.35472
288.17232
291.75456
291.18291
292.34749
292.9013
293.62523
294.30219
294.98377
295.64751
296.28901
296.8998
297.47307
298.00288
298.4847
298.91551
299.29383
299.6196
299.89407
300.11953
300.29907
300.43633
300.5353
300.60007
300.63472
300.64319
300.6292
300.59618
300.54726
300.48526
300.41268
300.33172
300.24433
300.15216
300.05667
299.95909
299.86048
299.76172
299.66357
299.56665
299.47147
299.37846
299.28796
299.20023
299.11549
299.0339
298.95556
298.88055
298.80891
298.74067
298.6758
298.61429
298.5561
298.50117
298.44943
298.40083
298.35528
298.3127
298.27297
298.23601
298.20167
298.16983
298.14038
298.1132
298.0882
298.06534
298.04459
298.02597
298.00953
297.9953
297.98322
297.97331
297.96605
297.96224
297.96154
297.9613
297.96098
297.9708
298.00313
298.03044
295.00299
289.428
292.84611
292.59789
293.77218
294.477
295.29028
296.05326
296.79796
297.50371
298.1634
298.76879
299.31419
299.79591
300.21249
300.56439
300.85379
301.08418
301.26
301.3863
301.46839
301.51164
301.52125
301.50211
301.45877
301.39533
301.31545
301.22239
301.11897
301.00766
300.89055
300.76946
300.64592
300.52122
300.39644
300.27249
300.15011
300.02991
299.91238
299.79794
299.68688
299.57945
299.47584
299.37615
299.28049
299.18889
299.10136
299.0179
298.93846
298.86299
298.79143
298.72368
298.65966
298.59927
298.54242
298.489
298.43889
298.39199
298.34816
298.30729
298.26922
298.23381
298.20093
298.17043
298.14223
298.11624
298.09243
298.07082
298.05142
298.03421
298.01911
298.00619
297.99596
297.98897
297.98439
297.97973
297.97581
297.98349
298.0128
298.03658
295.89472
291.02649
294.25714
294.36632
295.56937
296.41907
297.31316
298.13816
298.91005
299.61204
300.2379
300.783
301.2461
301.6286
301.93419
302.16817
302.33698
302.44762
302.50727
302.52294
302.50127
302.44837
302.36974
302.27026
302.1542
302.02526
301.88661
301.74092
301.59047
301.43718
301.28261
301.12809
300.97471
300.82334
300.67472
300.5294
300.38785
300.25042
300.11738
299.98893
299.8652
299.74628
299.63222
299.52301
299.41865
299.31907
299.22421
299.13399
299.0483
298.96703
298.89007
298.81729
298.74856
298.68375
298.62272
298.56535
298.5115
298.46103
298.4138
298.36966
298.32847
298.29006
298.25429
298.22101
298.19011
298.16148
298.13509
298.11092
298.08896
298.06914
298.0514
298.03587
298.02305
298.01323
298.00521
297.99686
297.99002
297.99511
298.01972
298.04022
297.01336
293.09188
296.09291
296.57163
297.8055
298.77143
299.70147
300.52872
301.25969
301.88573
302.40693
302.82616
303.14956
303.38526
303.5426
303.63143
303.66146
303.64194
303.58132
303.48721
303.36626
303.22422
303.06602
302.89579
302.71703
302.5326
302.34491
302.1559
301.96719
301.78005
301.59555
301.4145
301.23757
301.06527
300.89799
300.73602
300.57956
300.42876
300.28368
300.14438
300.01083
299.883
299.76083
299.64422
299.53307
299.42727
299.32667
299.23115
299.14054
299.05469
298.97346
298.89667
298.82418
298.75581
298.69141
298.63083
298.57392
298.52053
298.47049
298.42365
298.37986
298.33895
298.30077
298.26516
298.23201
298.20119
298.17264
298.14631
298.12216
298.10009
298.08005
298.06225
298.04713
298.03469
298.0236
298.01221
298.00314
298.00582
298.02511
298.03932
298.53236
295.73658
298.44893
299.26737
300.477
301.50372
302.38084
303.11318
303.70988
304.17484
304.51855
304.75342
304.8933
304.95212
304.94321
304.87877
304.76966
304.62527
304.45362
304.26142
304.05424
303.83665
303.6124
303.38449
303.15536
302.92695
302.70081
302.47816
302.25994
302.0469
301.83959
301.63842
301.44369
301.2556
301.07428
300.89978
300.73211
300.57125
300.41712
300.26963
300.12866
299.99409
299.86576
299.74351
299.62718
299.5166
299.41158
299.31195
299.21751
299.12809
299.0435
298.96355
298.88806
298.81685
298.74975
298.68659
298.62719
298.5714
298.51904
298.46997
298.42402
298.38102
298.34083
298.30329
298.26826
298.23562
298.20528
298.17716
298.15116
298.12718
298.10519
298.08542
298.06821
298.05332
298.03942
298.02549
298.01465
298.01502
298.02875
298.03514
300.49645
299.03074
301.32228
302.42894
303.60849
304.46979
305.17365
305.69869
306.06738
306.29818
306.41231
306.42988
306.36947
306.24739
306.07757
305.87164
305.63912
305.38774
305.12368
304.85184
304.57611
304.29951
304.02443
303.75268
303.48568
303.22448
302.96987
302.72245
302.48262
302.25066
302.02674
301.81094
301.60328
301.40372
301.21219
301.02857
300.85273
300.68451
300.52373
300.37021
300.22376
300.08417
299.95124
299.82476
299.70451
299.5903
299.48189
299.37909
299.28169
299.18947
299.10223
299.01978
298.94191
298.86842
298.79914
298.73387
298.67245
298.61469
298.56042
298.50949
298.46173
298.41699
298.3751
298.33592
298.2993
298.26513
298.23329
298.20367
298.17614
298.15058
298.127
298.10557
298.08648
298.06934
298.05302
298.03713
298.02482
298.02229
298.02944
298.03103
302.93264
302.96114
304.9591
305.92869
306.81967
307.42855
307.83386
308.0568
308.13371
308.09418
307.96497
307.76815
307.5217
307.23993
306.93401
306.61261
306.28237
305.94835
305.61438
305.28333
304.95734
304.63799
304.32642
304.02345
303.72962
303.44531
303.17071
302.90593
302.65096
302.40575
302.17019
301.94412
301.72735
301.51969
301.32092
301.13081
300.94911
300.77558
300.60997
300.45204
300.30154
300.15822
300.02183
299.89214
299.7689
299.65187
299.54083
299.43554
299.33578
299.24132
299.15195
299.06746
298.98763
298.91227
298.84118
298.77416
298.71103
298.65162
298.59574
298.54323
298.49392
298.44767
298.40432
298.36371
298.3257
298.29018
298.25702
298.22609
298.19726
298.17041
298.14554
298.12276
298.10209
298.08306
298.06484
298.04749
298.03387
298.02852
298.03062
298.02327
305.98394
307.36934
308.69144
309.39024
309.86652
310.07574
310.09999
309.98091
309.75906
309.46467
309.12107
308.74562
308.35113
307.94697
307.53989
307.13479
306.73513
306.34334
305.96114
305.58965
305.2296
304.88145
304.54541
304.22154
303.90979
303.61002
303.32203
303.04559
302.78043
302.52625
302.28275
302.04963
301.82656
301.61324
301.40936
301.21461
301.02867
300.85126
300.68208
300.52083
300.36725
300.22105
300.08196
299.94972
299.82407
299.70476
299.59154
299.48418
299.38243
299.28607
299.19487
299.10861
299.02709
298.95009
298.8774
298.80884
298.74421
298.68334
298.62603
298.57212
298.52144
298.47384
298.42917
298.38727
298.348
298.31125
298.27687
298.24475
298.21474
298.18676
298.16078
298.13683
298.11483
298.09442
298.07507
298.05697
298.04188
298.03207
298.02617
298.01472
309.91708
311.69557
312.23386
312.41985
312.36584
312.13312
311.7838
311.3601
310.89205
310.40023
309.89865
309.3967
308.90064
308.41458
307.94116
307.482
307.03805
306.60975
306.19727
305.80051
305.41926
305.05319
304.70191
304.36502
304.04206
303.73258
303.43613
303.15226
302.88054
302.62053
302.37181
302.13399
301.90666
301.68946
301.48201
301.28396
301.09497
300.91471
300.74285
300.57908
300.42311
300.27465
300.1334
299.99909
299.87146
299.75025
299.63519
299.52606
299.4226
299.32458
299.23177
299.14396
299.06093
298.98246
298.90835
298.83841
298.77243
298.71024
298.65165
298.59649
298.54459
298.49578
298.44993
298.40687
298.36647
298.3286
298.29312
298.25992
298.22886
298.19986
298.17286
298.14782
298.12462
298.10298
298.08266
298.06387
298.04761
298.03492
298.02456
298.01116
314.85869
315.22774
314.95812
314.59066
314.06974
313.4787
312.85294
312.21793
311.58778
310.97104
310.37247
309.79463
309.23866
308.70491
308.1932
307.70305
307.2338
306.78471
306.35498
305.94383
305.55046
305.17411
304.81405
304.46959
304.14006
303.82483
303.5233
303.23491
302.95913
302.69546
302.4434
302.2025
301.97234
301.75249
301.54256
301.34217
301.15097
300.96859
300.79471
300.62901
300.47117
300.3209
300.1779
300.0419
299.91261
299.78979
299.67317
299.56251
299.45755
299.35808
299.26385
299.17465
299.09025
299.01046
298.93505
298.86384
298.79663
298.73324
298.67347
298.61716
298.56413
298.51423
298.46729
298.42318
298.38175
298.34287
298.3064
298.27223
298.24023
298.21031
298.18239
298.15636
298.1321
298.10949
298.08844
298.06906
298.05156
298.03604
298.02197
298.00799
316.84851
317.01481
316.44141
315.68152
314.90464
314.12686
313.36833
312.63665
311.93522
311.26503
310.62577
310.01648
309.43588
308.88259
308.35516
307.85221
307.3724
306.91449
306.4773
306.05974
305.66081
305.27956
304.91513
304.56672
304.23358
303.91501
303.61037
303.31904
303.04046
302.77411
302.51947
302.27608
302.04348
301.82126
301.60901
301.40635
301.21291
301.02833
300.85229
300.68446
300.52452
300.37219
300.22715
300.08915
299.9579
299.83315
299.71463
299.6021
299.49532
299.39405
299.29807
299.20714
299.12107
299.03963
298.96263
298.88986
298.82113
298.75626
298.69505
298.63735
298.58297
298.53176
298.48357
298.43823
298.39562
298.35559
298.31802
298.28278
298.24976
298.21886
298.18997
298.16297
298.13775
298.11427
298.09258
298.07261
298.05407
298.03656
298.02027
298.00642
310.55947
309.25886
305.60188
302.71959
301.4429
301.1551
301.08731
301.08436
300.97355
300.9164
300.8116
300.74328
300.65751
300.57136
300.48555
300.3993
300.31239
300.22478
300.1365
300.04759
299.95815
299.86829
299.77812
299.68779
299.59743
299.50718
299.41718
299.32756
299.23847
299.15003
299.06238
298.97564
298.88995
298.80543
298.7222
298.6404
298.56013
298.48154
298.40474
298.32986
298.25703
298.18638
298.11802
298.0521
297.98873
297.92805
297.87018
297.81525
297.76338
297.71469
297.66928
297.62727
297.58875
297.55381
297.52252
297.49495
297.47114
297.45113
297.43491
297.4225
297.41392
297.40915
297.40815
297.41086
297.4173
297.42737
297.4413
297.4585
297.48021
297.50354
297.53405
297.56052
297.60294
297.62694
297.69029
297.70304
297.79638
297.79819
297.91738
297.94178
309.77543
306.86958
302.71402
300.65966
300.0898
300.09075
300.19127
300.2025
300.1971
300.17139
300.14827
300.11069
300.06796
300.02057
299.96931
299.91426
299.85587
299.79444
299.73027
299.6637
299.59499
299.52442
299.45225
299.37872
299.30406
299.2285
299.15225
299.07552
298.9985
298.9214
298.84439
298.76767
298.6914
298.61577
298.54094
298.46709
298.39437
298.32295
298.253
298.18466
298.11811
298.05349
297.99096
297.93067
297.87276
297.81739
297.7647
297.71483
297.6679
297.62405
297.5834
297.54605
297.51211
297.48166
297.45478
297.43152
297.41193
297.39604
297.38383
297.37531
297.37049
297.36935
297.37182
297.37785
297.38743
297.40047
297.41716
297.437
297.46102
297.48671
297.51888
297.54765
297.59094
297.61731
297.68025
297.69606
297.78947
297.79314
297.91471
297.93645
308.37762
304.81224
301.7258
300.0282
299.69948
299.73973
299.77376
299.74822
299.72022
299.68795
299.65647
299.62189
299.58565
299.54647
299.50512
299.46138
299.41547
299.36736
299.31714
299.26491
299.21077
299.15486
299.09729
299.0382
298.97774
298.91606
298.85333
298.78971
298.72536
298.66047
298.59521
298.52976
298.46431
298.39902
298.3341
298.26972
298.20606
298.14332
298.08167
298.0213
297.96238
297.9051
297.84963
297.79614
297.74481
297.69579
297.64926
297.60536
297.56424
297.52603
297.49088
297.45888
297.43015
297.40478
297.38285
297.3644
297.34949
297.33813
297.3303
297.32601
297.32526
297.32802
297.3342
297.34375
297.35665
297.37282
297.39242
297.41499
297.44144
297.46951
297.5035
297.53448
297.57892
297.60738
297.67052
297.68894
297.78301
297.78815
297.91195
297.93141
307.19793
303.37911
300.55961
299.27808
299.22852
299.24466
299.26196
299.22669
299.20872
299.18013
299.15654
299.12783
299.0989
299.06802
299.03604
299.00244
298.96737
298.9307
298.89243
298.85258
298.81115
298.76817
298.72369
298.67777
298.63049
298.58192
298.53217
298.48136
298.4296
298.37704
298.32382
298.27009
298.21602
298.16177
298.10752
298.05346
297.99977
297.94663
297.89424
297.84279
297.79248
297.74349
297.69601
297.65024
297.60637
297.56456
297.525
297.48786
297.45328
297.42143
297.39243
297.36641
297.34348
297.32373
297.30725
297.29408
297.28427
297.27783
297.27475
297.27501
297.27861
297.28551
297.29564
297.30891
297.3253
297.34475
297.36737
297.39277
297.42175
297.45223
297.48816
297.5213
297.56702
297.59742
297.66096
297.68173
297.77662
297.78308
297.90918
297.9265
306.50684
302.17676
299.60589
298.65606
298.73262
298.70732
298.73372
298.69768
298.69128
298.66735
298.65233
298.63086
298.6107
298.58874
298.56618
298.54237
298.5175
298.49139
298.46404
298.43539
298.40544
298.37417
298.34157
298.30767
298.2725
298.23609
298.19851
298.15981
298.1201
298.07946
298.03801
297.99587
297.95317
297.91007
297.86672
297.82328
297.77993
297.73686
297.69424
297.65227
297.61115
297.57107
297.53223
297.49483
297.45906
297.42511
297.39317
297.3634
297.33598
297.31106
297.28878
297.26927
297.25264
297.23899
297.2284
297.22093
297.2166
297.21544
297.21741
297.22251
297.23073
297.242
297.25626
297.27343
297.29346
297.31631
297.34207
297.37039
297.40197
297.43491
297.47286
297.50811
297.55519
297.58747
297.65178
297.67451
297.77018
297.77805
297.90635
297.92176
305.94334
300.9982
298.81097
298.05901
298.20631
298.15145
298.19768
298.16226
298.17066
298.1534
298.14934
298.13653
298.12608
298.11354
298.10064
298.08662
298.07163
298.05555
298.03838
298.02009
298.00064
297.98004
297.95825
297.93529
297.91117
297.8859
297.85952
297.83206
297.80359
297.77418
297.7439
297.71285
297.68115
297.64891
297.61627
297.58337
297.55038
297.51746
297.48478
297.45253
297.4209
297.39009
297.36027
297.33166
297.30445
297.27882
297.25497
297.23306
297.21327
297.19576
297.18066
297.16811
297.15822
297.15109
297.14679
297.14537
297.14687
297.15129
297.15861
297.1688
297.18186
297.19772
297.21629
297.2375
297.26131
297.28767
297.31666
297.34797
297.38221
297.41765
297.45765
297.495
297.5435
297.5776
297.64293
297.66735
297.76381
297.7731
297.90347
297.91721
305.37114
299.95774
298.16569
297.51449
297.70966
297.62895
297.69464
297.65759
297.67832
297.66555
297.67046
297.66476
297.66218
297.65729
297.6523
297.64638
297.63968
297.63211
297.62364
297.61425
297.60392
297.5926
297.5803
297.56698
297.55266
297.53732
297.521
297.5037
297.48547
297.46636
297.44641
297.42572
297.40435
297.38242
297.36004
297.33733
297.31443
297.29149
297.26867
297.24613
297.22406
297.20263
297.18202
297.16244
297.14405
297.12706
297.11163
297.09794
297.08615
297.07642
297.06888
297.06366
297.06087
297.06059
297.06291
297.06786
297.07548
297.08576
297.09866
297.11418
297.13227
297.15289
297.17592
297.20131
297.22901
297.25896
297.29126
297.32561
297.36256
297.40053
297.4426
297.48203
297.532
297.56792
297.63407
297.66029
297.75757
297.76827
297.90064
297.91285
304.8974
299.01686
297.62177
297.01659
297.25108
297.14528
297.22953
297.18775