/*--------------------------------*- C++ -*----------------------------------*\
  =========                 |
  \\      /  F ield         | OpenFOAM: The Open Source CFD Toolbox
   \\    /   O peration     | Website:  https://openfoam.org
    \\  /    A nd           | Version:  12
     \\/     M anipulation  |
\*---------------------------------------------------------------------------*/
FoamFile
{
    format      ascii;
    class       volScalarField;
    location    "0.132";
    object      k;
}
// * * * * * * * * * * * * * * * * * * * * * * * * * * * * * * * * * * * * * //

dimensions      [0 2 -2 0 0 0 0];

internalField   nonuniform List<scalar> 
16000
(
0.048920975
0.021610216
0.022475738
0.016546577
0.014035715
0.01270519
0.011915345
0.011442739
0.011122475
0.010906833
0.010747791
0.010629379
0.010537007
0.010463912
0.010405071
0.01035733
0.010318337
0.010286423
0.01026038
0.010239043
0.01022134
0.01020696
0.010195419
0.010186141
0.010178886
0.010173309
0.010169226
0.010166467
0.010164889
0.010164363
0.010164764
0.010165989
0.010167955
0.010170595
0.010173848
0.010177656
0.010181964
0.010186713
0.010191849
0.010197315
0.010203049
0.010208982
0.010215048
0.010221179
0.010227299
0.010233337
0.01023923
0.01024493
0.01025039
0.010255565
0.010260408
0.010264866
0.010268884
0.010272408
0.01027539
0.010277791
0.010279573
0.010280698
0.010281116
0.010280758
0.010279514
0.010277244
0.010273804
0.010269022
0.010262699
0.010254609
0.01024448
0.010231976
0.010216625
0.010197651
0.010174136
0.01014614
0.010116852
0.010095148
0.010078664
0.010066966
0.010060645
0.010063232
0.010062108
0.010090894
0.046186947
0.02045189
0.021034224
0.015998163
0.013689507
0.012501612
0.011751968
0.011325366
0.01102111
0.010822795
0.010674081
0.010564465
0.010478522
0.010410927
0.010356606
0.010312741
0.010277084
0.010248055
0.010224564
0.010205601
0.010190006
0.01017751
0.010167748
0.010160107
0.010154395
0.010150263
0.010147532
0.010146039
0.010145651
0.010146243
0.010147696
0.010149906
0.010152789
0.010156276
0.010160305
0.01016482
0.010169766
0.010175086
0.010180723
0.010186625
0.010192733
0.01019898
0.0102053
0.010211631
0.010217902
0.01022404
0.010229986
0.01023569
0.01024111
0.010246206
0.010250936
0.010255253
0.010259107
0.010262446
0.010265225
0.010267404
0.010268949
0.010269823
0.010269984
0.010269366
0.010267875
0.010265377
0.010261727
0.01025675
0.010250238
0.010241955
0.010231637
0.010218998
0.010203679
0.010185033
0.010162125
0.010135026
0.010107061
0.010086308
0.010070653
0.01005959
0.010053886
0.01005383
0.010060752
0.010092735
0.042016277
0.019630567
0.019702527
0.015433004
0.013335395
0.012273759
0.011582837
0.011198321
0.010917546
0.010737491
0.010599995
0.010499618
0.01042059
0.010358781
0.010309278
0.010269525
0.010237428
0.010211491
0.010190712
0.010174263
0.010160925
0.010150438
0.010142564
0.010136657
0.010132572
0.010129964
0.010128658
0.010128501
0.010129361
0.010131123
0.010133671
0.010136902
0.010140732
0.010145088
0.010149909
0.010155137
0.010160718
0.010166596
0.010172713
0.010179018
0.010185456
0.010191961
0.010198471
0.010204926
0.010211261
0.010217406
0.010223303
0.010228905
0.010234174
0.010239074
0.01024357
0.010247623
0.010251185
0.010254212
0.010256658
0.010258488
0.01025967
0.010260171
0.01025995
0.010258949
0.01025708
0.010254218
0.010250222
0.010244914
0.010238082
0.010229483
0.010218863
0.010205975
0.010190551
0.010172073
0.010149595
0.010123174
0.010096808
0.010077213
0.010062562
0.010052385
0.01004689
0.010045841
0.010056036
0.010082841
0.038665379
0.01907703
0.018551949
0.014926829
0.013014861
0.012067786
0.011427981
0.011082335
0.010822463
0.010658975
0.010532193
0.01044036
0.010367929
0.010311591
0.010266693
0.010230875
0.010202205
0.010179264
0.0101611
0.010147094
0.010135967
0.010127441
0.010121418
0.010117214
0.010114725
0.010113613
0.010113708
0.01011486
0.010116941
0.010119842
0.01012345
0.010127663
0.010132393
0.010137567
0.010143121
0.010148996
0.010155138
0.010161491
0.010167999
0.01017461
0.010181273
0.010187926
0.010194511
0.01020097
0.010207246
0.010213274
0.010218996
0.01022437
0.010229362
0.010233943
0.010238083
0.01024175
0.010244905
0.010247505
0.010249511
0.010250888
0.010251608
0.01025164
0.010250946
0.010249474
0.010247141
0.010243832
0.010239408
0.010233692
0.01022647
0.010217498
0.010206534
0.010193368
0.010177802
0.010159445
0.010137371
0.010111435
0.010086684
0.010068261
0.010054657
0.010045338
0.010039933
0.010038787
0.010050435
0.010070553
0.035773893
0.018765661
0.017567837
0.014457853
0.012716511
0.011873035
0.01128277
0.010972972
0.010733691
0.01058572
0.010469442
0.01038576
0.010319788
0.010268762
0.010228372
0.010196413
0.010171113
0.010151143
0.010135559
0.010123969
0.010115055
0.010108493
0.010104312
0.010101824
0.010100921
0.010101306
0.0101028
0.010105257
0.01010855
0.010112574
0.010117218
0.01012238
0.01012797
0.010133911
0.010140138
0.010146591
0.010153214
0.010159952
0.010166752
0.010173563
0.010180335
0.010187015
0.010193547
0.010199878
0.010205959
0.010211731
0.010217141
0.010222151
0.010226731
0.010230859
0.010234512
0.010237665
0.010240287
0.010242342
0.010243792
0.010244606
0.010244757
0.010244219
0.010242957
0.010240921
0.010238035
0.010234189
0.010229248
0.010223039
0.01021535
0.010205944
0.010194591
0.010181106
0.010165339
0.010147016
0.010125315
0.010099869
0.010076776
0.010059567
0.010047039
0.010038542
0.010033241
0.010032186
0.01004392
0.010059562
0.033602388
0.018697168
0.016837103
0.014028082
0.012441953
0.011691875
0.011148544
0.010871618
0.010652138
0.010518462
0.010412367
0.010336373
0.010276649
0.010230739
0.010194721
0.010166517
0.010144511
0.010127474
0.010114431
0.010105225
0.010098516
0.010093947
0.010091578
0.010090854
0.010091493
0.01009337
0.010096254
0.010100002
0.010104486
0.0101096
0.010115238
0.010121294
0.010127679
0.010134311
0.010141122
0.010148053
0.010155046
0.01016205
0.010169012
0.010175884
0.010182622
0.010189179
0.010195505
0.010201555
0.010207285
0.010212647
0.010217594
0.010222092
0.010226117
0.010229654
0.010232687
0.0102352
0.010237167
0.01023856
0.010239344
0.010239492
0.010238979
0.01023778
0.010235864
0.010233182
0.010229664
0.010225205
0.010219674
0.010212901
0.010204685
0.010194798
0.010183021
0.010169191
0.010153182
0.01013481
0.010113453
0.010088555
0.010067148
0.01005119
0.010039746
0.010032034
0.010026908
0.010025969
0.010036999
0.010047679
0.031134652
0.018795012
0.016318149
0.013634125
0.012188953
0.011523614
0.011025066
0.010778115
0.010577699
0.01045713
0.010360872
0.010292165
0.010238497
0.01019755
0.010165804
0.010141293
0.010122538
0.010108431
0.010097924
0.010091091
0.01008658
0.010084163
0.010083499
0.010084737
0.010086755
0.010090118
0.010094381
0.010099398
0.010105039
0.010111197
0.010117766
0.010124642
0.01013173
0.010138948
0.010146226
0.010153504
0.010160726
0.010167842
0.010174806
0.010181574
0.010188106
0.010194365
0.010200312
0.010205906
0.010211115
0.0102159
0.010220223
0.010224055
0.010227378
0.010230184
0.010232466
0.010234213
0.010235409
0.010236029
0.010236046
0.010235432
0.010234165
0.010232222
0.010229574
0.010226175
0.010221957
0.010216818
0.010210634
0.01020324
0.010194445
0.010184038
0.010171812
0.010157615
0.010141332
0.010122831
0.010101776
0.010077619
0.010057907
0.010043228
0.010032853
0.010025895
0.010021029
0.01002013
0.010029779
0.010035389
0.028568906
0.01898433
0.015896679
0.013273477
0.011956046
0.011368012
0.010911755
0.010692309
0.010510024
0.010401601
0.010314879
0.010253165
0.010205414
0.010169344
0.010141818
0.01012098
0.010105467
0.010094312
0.01008637
0.010081892
0.010079525
0.010079845
0.010080449
0.010083141
0.010087076
0.010091908
0.010097524
0.010103768
0.010110508
0.010117634
0.01012504
0.010132622
0.010140284
0.010147943
0.010155529
0.010162983
0.010170251
0.010177291
0.01018406
0.010190524
0.010196651
0.010202414
0.010207785
0.010212733
0.010217237
0.01022127
0.010224803
0.010227814
0.01023029
0.010232231
0.010233635
0.0102345
0.010234816
0.010234566
0.010233723
0.010232264
0.010230166
0.010227409
0.010223965
0.010219789
0.010214813
0.010208944
0.010202058
0.010194
0.010184589
0.010173633
0.010160937
0.010146357
0.010129783
0.01011109
0.010090253
0.010067136
0.010049114
0.010035733
0.010026398
0.010020168
0.010015649
0.010014708
0.01002276
0.010024464
0.026849991
0.019171247
0.015403898
0.012942919
0.011741595
0.011224254
0.010807951
0.010613447
0.010449171
0.01035211
0.010274618
0.010219673
0.010177722
0.01014647
0.010123136
0.010105972
0.01009371
0.010085526
0.010080221
0.010077948
0.010077282
0.010079568
0.010082936
0.010087391
0.010092845
0.01009912
0.010106033
0.010113428
0.01012117
0.010129145
0.010137248
0.010145375
0.010153434
0.01016134
0.010169026
0.010176437
0.010183527
0.010190258
0.010196601
0.01020253
0.010208026
0.010213073
0.010217655
0.010221758
0.010225368
0.010228471
0.010231051
0.01023309
0.010234583
0.010235534
0.010235948
0.010235829
0.010235172
0.010233966
0.010232188
0.010229816
0.010226826
0.010223198
0.010218906
0.010213906
0.010208133
0.010201493
0.010193873
0.010185123
0.010175073
0.010163546
0.010150364
0.010135386
0.010118521
0.01009961
0.010078842
0.010057189
0.010040836
0.010028755
0.010020418
0.010014896
0.010010834
0.010009816
0.010016269
0.010016534
0.025155372
0.019343706
0.01473108
0.012639677
0.011545547
0.011092775
0.010714497
0.010542612
0.010395706
0.010309104
0.010240517
0.010192152
0.010155889
0.01012941
0.010110249
0.010096772
0.010087786
0.010082534
0.010080057
0.010077738
0.010082681
0.010086249
0.010091322
0.010097484
0.010104487
0.010112126
0.010120234
0.010128652
0.010137243
0.01014589
0.010154488
0.01016294
0.010171155
0.010179054
0.010186577
0.010193675
0.010200314
0.010206467
0.010212118
0.010217255
0.010221873
0.010225971
0.010229549
0.010232603
0.010235134
0.01023714
0.010238614
0.010239547
0.010239937
0.010239792
0.010239122
0.010237935
0.010236232
0.010234005
0.010231235
0.010227898
0.010223971
0.010219434
0.010214259
0.010208404
0.010201805
0.010194373
0.010185999
0.010176542
0.010165841
0.010153732
0.010140053
0.010124669
0.010107521
0.010088436
0.010067545
0.010047843
0.010033122
0.010022326
0.01001494
0.010010108
0.01000664
0.010005618
0.010010335
0.010009446
0.023627172
0.019486935
0.01419052
0.012361639
0.011368405
0.010973936
0.010631895
0.010480472
0.010349798
0.010272975
0.010212994
0.010171084
0.010140424
0.010118701
0.010103716
0.010093952
0.010088292
0.010085718
0.010086562
0.010089608
0.010093363
0.010099219
0.010106156
0.010113949
0.01012238
0.010131248
0.010140382
0.010149625
0.010158837
0.010167902
0.010176718
0.010185198
0.010193258
0.010200831
0.010207868
0.010214334
0.010220208
0.01022548
0.01023015
0.010234223
0.010237712
0.010240629
0.01024299
0.010244807
0.010246091
0.01024685
0.010247089
0.010246803
0.010245995
0.010244674
0.01024285
0.010240537
0.010237737
0.010234446
0.010230647
0.010226316
0.010221427
0.010215957
0.010209881
0.010203156
0.010195719
0.010187485
0.010178352
0.010168187
0.010156834
0.01014414
0.010129963
0.010114174
0.010096744
0.010077613
0.010056707
0.010039149
0.01002601
0.010016465
0.010009988
0.010005826
0.010003052
0.0100022
0.010005209
0.010003112
0.022265766
0.019617665
0.013721769
0.01210901
0.011210075
0.010867371
0.010559932
0.010426742
0.01031178
0.010244198
0.010192547
0.01015702
0.010131912
0.010114956
0.01010417
0.010098145
0.010095898
0.0100967
0.010099743
0.010104737
0.010111456
0.010119207
0.010127865
0.010137147
0.010146826
0.010156701
0.010166602
0.010176375
0.010185884
0.010195019
0.010203687
0.010211814
0.010219336
0.0102262
0.010232376
0.010237848
0.010242615
0.010246687
0.010250082
0.010252824
0.010254942
0.010256466
0.010257424
0.010257841
0.010257739
0.010257136
0.01025604
0.010254456
0.010252386
0.010249837
0.010246821
0.01024335
0.010239429
0.010235056
0.010230214
0.010224878
0.01021902
0.010212615
0.010205634
0.010198038
0.010189766
0.010180734
0.010170847
0.010159981
0.010147987
0.010134719
0.010120054
0.010103876
0.010086155
0.010067088
0.010046818
0.010031162
0.010019527
0.010011184
0.010005586
0.010002058
0.0099999622
0.0099995035
0.01000136
0.0099986592
0.021033586
0.01970524
0.01329171
0.011881757
0.011070117
0.010773087
0.010498739
0.010382007
0.010281997
0.010223295
0.010179754
0.010150597
0.010131035
0.010118877
0.010112334
0.010110093
0.010111215
0.010114995
0.010120887
0.010128378
0.010137049
0.010146638
0.010156822
0.010167342
0.010177972
0.010188512
0.010198799
0.010208689
0.010218057
0.010226808
0.010234867
0.010242181
0.010248713
0.010254436
0.010259344
0.010263445
0.010266761
0.010269323
0.010271169
0.010272341
0.010272882
0.010272837
0.010272246
0.010271144
0.010269559
0.010267516
0.010265029
0.010262104
0.010258743
0.010254949
0.010250731
0.0102461
0.010241061
0.010235611
0.010229734
0.010223404
0.010216591
0.010209263
0.010201391
0.010192937
0.010183843
0.010174029
0.010163403
0.010151851
0.010139237
0.010125418
0.010110287
0.010093758
0.010075758
0.010056683
0.010037876
0.010023937
0.010013696
0.010006489
0.010001757
0.0099988189
0.0099972449
0.0099973404
0.0099988841
0.0099959884
0.019925455
0.019711253
0.012901756
0.011677867
0.010947763
0.010691117
0.010448428
0.010346605
0.01026092
0.010210921
0.010175349
0.010152597
0.010138613
0.01013131
0.010129055
0.010130625
0.010135136
0.010141912
0.010150388
0.010160115
0.010170714
0.010181835
0.010193204
0.010204563
0.010215694
0.010226408
0.010236554
0.010246009
0.010254677
0.010262487
0.010269394
0.010275378
0.010280434
0.010284569
0.010287805
0.010290176
0.010291729
0.010292512
0.010292584
0.010292
0.010290815
0.010289082
0.010286851
0.010284161
0.010281047
0.010277535
0.01027364
0.010269371
0.010264726
0.010259705
0.010254308
0.010248543
0.010242413
0.010235914
0.010229031
0.010221737
0.010213997
0.010205775
0.010197039
0.010187752
0.01017786
0.010167288
0.010155947
0.010143733
0.010130524
0.010116191
0.010100626
0.010083793
0.010065634
0.010046386
0.010029897
0.010017513
0.010008532
0.010002379
0.0099985053
0.0099961406
0.0099948794
0.0099954793
0.0099978061
0.0099948023
0.018927006
0.019492873
0.012549803
0.011496292
0.0108428
0.010621691
0.010409304
0.010321205
0.010249273
0.010207976
0.010180295
0.010164021
0.010155667
0.010153264
0.010155306
0.010160647
0.010168442
0.010178039
0.010188897
0.01020056
0.010212651
0.010224843
0.010236861
0.010248464
0.010259456
0.010269674
0.010278998
0.010287342
0.01029465
0.010300894
0.010306069
0.010310194
0.010313301
0.010315434
0.010316643
0.010316988
0.010316533
0.010315346
0.010313493
0.01031104
0.010308049
0.010304578
0.010300678
0.010296391
0.010291753
0.010286789
0.010281515
0.010275936
0.010270049
0.010263847
0.010257322
0.010250475
0.010243304
0.010235804
0.010227961
0.010219747
0.010211124
0.01020205
0.010192489
0.010182403
0.010171744
0.010160445
0.01014842
0.010135574
0.010121804
0.010106998
0.010091047
0.010073936
0.010055876
0.010037365
0.01002284
0.01001191
0.010004056
0.0099988548
0.0099958092
0.0099940433
0.0099930219
0.0099938898
0.0099970628
0.009994764
0.018023409
0.018634692
0.012233154
0.011336312
0.010755488
0.010565217
0.01038192
0.010306772
0.010248127
0.010215638
0.010195827
0.010186094
0.010183389
0.01018586
0.010192106
0.010201047
0.010211866
0.010223926
0.0102367
0.010249743
0.010262689
0.010275228
0.010287114
0.010298141
0.010308158
0.010317051
0.010324752
0.010331229
0.010336483
0.010340534
0.010343426
0.010345219
0.01034598
0.010345786
0.01034471
0.010342831
0.010340225
0.010336967
0.01033313
0.010328782
0.010323984
0.010318793
0.010313259
0.010307421
0.010301313
0.010294959
0.01028837
0.010281549
0.010274489
0.010267177
0.010259597
0.01025174
0.010243597
0.010235162
0.010226419
0.010217341
0.010207889
0.010198015
0.010187676
0.010176835
0.010165446
0.010153455
0.010140783
0.010127342
0.010113045
0.010097806
0.010081542
0.010064207
0.010046182
0.010029448
0.010016709
0.010007123
0.010000286
0.0099959313
0.0099936413
0.0099924732
0.0099917771
0.0099929839
0.0099968409
0.0099968551
0.017206698
0.017273725
0.011953968
0.011197673
0.010684901
0.010522632
0.010367335
0.010304727
0.010258938
0.010235385
0.010223402
0.010220195
0.010223048
0.010230217
0.010240383
0.010252518
0.010265828
0.010279692
0.010293603
0.010307141
0.010319977
0.010331849
0.010342569
0.010352001
0.010360063
0.010366715
0.010371961
0.010375834
0.010378394
0.010379715
0.010379884
0.010378996
0.010377147
0.010374433
0.010370944
0.010366766
0.010361978
0.010356657
0.010350872
0.010344685
0.010338154
0.010331327
0.010324249
0.010316955
0.010309473
0.010301822
0.010294012
0.010286041
0.010277899
0.010269566
0.010261019
0.010252239
0.010243208
0.010233915
0.010224342
0.010214464
0.010204242
0.010193627
0.010182566
0.010171018
0.010158944
0.0101463
0.01013302
0.010119026
0.01010424
0.010088594
0.010072066
0.010054709
0.01003692
0.010022553
0.010011444
0.010003113
0.0099972164
0.009993623
0.0099919903
0.0099913382
0.0099909851
0.009992587
0.009996943
0.0099975761
0.016472742
0.016413296
0.011718329
0.011080775
0.010631946
0.010495335
0.010367052
0.010316758
0.010283407
0.010268858
0.010264579
0.010267731
0.010275843
0.010287262
0.010300732
0.010315274
0.010330122
0.010344694
0.01035854
0.010371307
0.010382746
0.010392689
0.010401041
0.010407767
0.010412878
0.010416422
0.010418477
0.010419142
0.01041853
0.010416758
0.010413943
0.010410203
0.010405646
0.010400377
0.010394487
0.010388062
0.010381175
0.010373894
0.010366279
0.010358383
0.010350252
0.010341926
0.01033344
0.010324821
0.010316091
0.010307264
0.010298346
0.010289333
0.01028021
0.010270955
0.010261538
0.01025193
0.010242103
0.010232036
0.010221711
0.010211102
0.010200174
0.010188877
0.010177155
0.010164958
0.010152247
0.010138992
0.010125143
0.010110636
0.010095401
0.010079386
0.0100626
0.010045371
0.01002906
0.010016568
0.01000696
0.0099997948
0.0099947915
0.0099918968
0.0099908145
0.0099905555
0.009990454
0.0099924256
0.0099966516
0.0099984782
0.01581358
0.015411527
0.011517127
0.010986139
0.010597577
0.010485028
0.010382721
0.010344781
0.010323462
0.010317849
0.010320961
0.010329988
0.010342648
0.010357371
0.010372974
0.010388553
0.010403426
0.010417109
0.010429272
0.010439691
0.010448249
0.010454912
0.010459707
0.010462711
0.010464033
0.010463802
0.01046216
0.010459255
0.010455232
0.010450232
0.010444386
0.010437814
0.010430624
0.010422913
0.010414766
0.010406255
0.010397443
0.010388383
0.010379122
0.010369698
0.010360145
0.010350492
0.010340762
0.010330973
0.01032114
0.010311271
0.010301369
0.010291428
0.010281432
0.010271355
0.010261165
0.010250823
0.010240293
0.010229544
0.010218548
0.01020728
0.010195709
0.01018379
0.010171469
0.010158686
0.010145398
0.010131577
0.010117194
0.010102204
0.010086552
0.010070218
0.010053277
0.010036201
0.010022318
0.010011441
0.010003159
0.0099970516
0.0099928961
0.0099906512
0.0099900123
0.0099900267
0.0099899707
0.0099924199
0.0099965936
0.0099990818
0.015223567
0.014733534
0.01135282
0.010914467
0.010582846
0.010493927
0.010416546
0.010391169
0.010381348
0.010384217
0.010393885
0.010407639
0.010423384
0.010439676
0.010455478
0.010470052
0.010482894
0.010493705
0.010502341
0.010508764
0.010513022
0.010515222
0.010515516
0.010514078
0.010511094
0.010506748
0.010501218
0.010494672
0.010487266
0.010479139
0.010470416
0.010461205
0.010451599
0.01044168
0.010431515
0.01042116
0.01041066
0.010400052
0.010389367
0.010378628
0.010367855
0.010357065
0.010346268
0.010335475
0.010324692
0.010313922
0.010303164
0.01029241
0.010281644
0.010270842
0.010259968
0.010248981
0.010237837
0.010226492
0.01021491
0.010203059
0.01019091
0.010178428
0.010165565
0.010152262
0.010138464
0.010124132
0.010109248
0.010093797
0.010077748
0.010061113
0.01004423
0.010028631
0.010016532
0.010007101
0.0099999583
0.0099947778
0.0099914002
0.0099897502
0.0099894525
0.0099896471
0.0099896562
0.0099924147
0.0099967229
0.0099996479
0.014697067
0.013981795
0.01122205
0.010868399
0.0105896
0.010525393
0.010471594
0.010458652
0.010459172
0.010469126
0.01048347
0.01049971
0.010516032
0.010531251
0.01054461
0.010555658
0.010564167
0.010570087
0.010573501
0.01057456
0.010573466
0.010570446
0.010565738
0.010559574
0.010552175
0.010543741
0.010534455
0.010524478
0.010513948
0.010502987
0.010491698
0.010480166
0.010468462
0.010456643
0.010444758
0.010432841
0.010420922
0.010409019
0.010397147
0.010385316
0.010373531
0.010361797
0.010350114
0.010338483
0.010326904
0.010315372
0.010303883
0.010292428
0.010280992
0.010269551
0.010258072
0.010246515
0.010234832
0.01022297
0.010210884
0.010198531
0.010185877
0.010172892
0.010159539
0.010145771
0.010131532
0.010116761
0.010101421
0.010085516
0.010069096
0.010052279
0.010035605
0.010022248
0.010011657
0.010003471
0.0099973052
0.0099929174
0.0099902102
0.0099890734
0.0099890465
0.0099893537
0.0099896848
0.0099924528
0.0099967732
0.0099998866
0.014233792
0.013401117
0.01112953
0.010852668
0.010621722
0.010583503
0.01055099
0.010549081
0.010557392
0.010571484
0.010587188
0.010602442
0.010615899
0.010626812
0.010634831
0.010639871
0.010642021
0.010641481
0.010638526
0.010633452
0.01062656
0.010618135
0.010608443
0.010597724
0.010586189
0.01057402
0.010561375
0.010548382
0.010535152
0.010521774
0.010508322
0.010494853
0.010481412
0.010468034
0.010454744
0.01044156
0.010428492
0.010415544
0.010402717
0.010390008
0.010377412
0.010364919
0.010352523
0.010340216
0.010327987
0.010315829
0.010303732
0.010291685
0.010279672
0.010267672
0.010255658
0.01024359
0.010231425
0.010219109
0.010206588
0.01019381
0.010180732
0.010167315
0.010153529
0.010139339
0.010124704
0.010109566
0.01009386
0.01007755
0.010060718
0.010043825
0.010028677
0.010016869
0.010007602
0.010000477
0.0099951565
0.0099914473
0.0099892826
0.0099885229
0.0099886968
0.0099891497
0.0099899543
0.0099926189
0.0099968455
0.010000011
0.013839179
0.012939799
0.011077735
0.010872399
0.010704282
0.010671308
0.010655797
0.010661252
0.010672831
0.010686419
0.01069894
0.010708999
0.010715902
0.010719441
0.010719703
0.010716947
0.010711516
0.010703783
0.010694126
0.010682897
0.010670413
0.010656951
0.010642751
0.010628014
0.010612908
0.010597574
0.010582124
0.010566649
0.010551219
0.010535891
0.010520707
0.010505696
0.010490882
0.010476276
0.010461884
0.010447708
0.010433743
0.010419982
0.010406412
0.010393021
0.010379794
0.010366713
0.010353763
0.010340927
0.010328189
0.010315535
0.010302949
0.010290416
0.01027792
0.010265441
0.010252954
0.010240426
0.01022782
0.010215088
0.010202178
0.010189036
0.010175608
0.010161844
0.010147702
0.010133145
0.010118141
0.010102655
0.010086651
0.010070107
0.01005312
0.010036348
0.010023062
0.01001249
0.010004295
0.0099980506
0.0099934512
0.0099903254
0.009988615
0.0099880885
0.0099883972
0.0099889958
0.0099901121
0.0099928965
0.0099969663
0.010000092
0.013522467
0.012568812
0.011070764
0.010927566
0.010806764
0.010788059
0.010782293
0.010788933
0.010797586
0.010805108
0.010809663
0.010810675
0.010808112
0.010802244
0.010793487
0.010782305
0.010769155
0.010754454
0.010738572
0.010721826
0.010704479
0.010686747
0.010668807
0.010650798
0.01063283
0.01061499
0.010597344
0.01057994
0.010562815
0.010545991
0.010529483
0.0105133
0.010497442
0.010481904
0.010466678
0.010451751
0.010437109
0.010422732
0.010408603
0.010394699
0.010380997
0.010367476
0.010354112
0.010340881
0.010327762
0.010314734
0.010301776
0.010288866
0.010275986
0.010263114
0.010250225
0.010237292
0.010224282
0.010211159
0.01019788
0.010184399
0.010170663
0.010156618
0.010142208
0.010127378
0.010112078
0.010096265
0.01007992
0.010063097
0.010046143
0.010030663
0.010018623
0.010009084
0.010001722
0.0099961675
0.0099921489
0.009989508
0.0099881586
0.0099877772
0.0099881336
0.0099888442
0.0099902573
0.0099932059
0.0099971665
0.010000104
0.013300512
0.012299925
0.011111453
0.011024698
0.010939613
0.010925201
0.010920302
0.010920761
0.010920124
0.010916628
0.010909629
0.010899259
0.010885947
0.010870222
0.010852608
0.010833584
0.010813562
0.010792885
0.01077183
0.010750617
0.010729417
0.010708365
0.010687558
0.010667072
0.010646959
0.010627256
0.010607986
0.010589163
0.010570793
0.010552873
0.010535397
0.010518355
0.010501731
0.010485509
0.01046967
0.01045419
0.010439049
0.01042422
0.010409678
0.010395397
0.010381349
0.010367508
0.010353845
0.010340333
0.010326946
0.010313655
0.010300435
0.01028726
0.010274103
0.010260938
0.010247739
0.010234477
0.010221123
0.010207647
0.010194016
0.010180196
0.010166148
0.010151825
0.010137178
0.010122148
0.01010667
0.01009068
0.01007413
0.010057099
0.010040217
0.010026364
0.010015292
0.010006594
0.0099998838
0.0099948541
0.0099912674
0.0099889783
0.0099878806
0.0099875974
0.0099879773
0.0099887609
0.0099903656
0.0099933963
0.0099972645
0.010000011
0.013172944
0.012131954
0.011205487
0.011152662
0.011087516
0.011069229
0.011055425
0.011043017
0.011028419
0.01101114
0.010991315
0.010969414
0.01094597
0.010921478
0.010896357
0.010870944
0.010845505
0.01082024
0.010795299
0.01077079
0.01074679
0.010723349
0.010700499
0.010678259
0.010656633
0.01063562
0.010615211
0.010595392
0.010576145
0.010557452
0.01053929
0.010521636
0.010504464
0.010487749
0.010471464
0.010455581
0.010440072
0.01042491
0.010410064
0.010395505
0.010381203
0.01036713
0.010353255
0.010339547
0.010325977
0.010312514
0.010299128
0.010285787
0.010272459
0.010259113
0.010245715
0.010232234
0.010218638
0.010204895
0.010190975
0.010176848
0.010162485
0.010147851
0.010132911
0.010117623
0.010101944
0.010085824
0.01006923
0.01005226
0.010035777
0.010023108
0.010012869
0.010004859
0.0099986898
0.0099940856
0.0099908294
0.0099887729
0.0099877902
0.0099875307
0.0099879556
0.0099887699
0.0099903742
0.009993192
0.009996817
0.0099996393
0.013107328
0.012060393
0.011363614
0.011294918
0.01123393
0.011201358
0.011171779
0.011142973
0.011113243
0.011082605
0.011051326
0.011019774
0.010988276
0.010957099
0.010926439
0.010896439
0.010867192
0.010838757
0.010811167
0.010784435
0.010758559
0.010733528
0.010709322
0.010685917
0.010663285
0.010641398
0.010620223
0.01059973
0.010579887
0.010560661
0.01054202
0.010523933
0.010506369
0.010489295
0.010472681
0.010456497
0.01044071
0.010425291
0.010410209
0.010395433
0.010380932
0.010366677
0.010352637
0.010338781
0.010325078
0.010311497
0.010298005
0.010284569
0.010271152
0.01025772
0.010244235
0.010230659
0.010216955
0.010203086
0.010189017
0.010174712
0.010160137
0.010145254
0.010130025
0.01011441
0.010098373
0.010081885
0.010064986
0.010048027
0.010032702
0.010020736
0.010011147
0.010003666
0.0099979341
0.0099936856
0.0099907095
0.009988846
0.0099879565
0.00998773
0.0099880942
0.0099889259
0.0099904755
0.0099930533
0.0099963896
0.0099992251
0.013116251
0.01201989
0.011518294
0.01142762
0.011355054
0.011304002
0.011257282
0.011213414
0.011171101
0.011130158
0.011090531
0.011052246
0.011015321
0.010979758
0.010945542
0.010912643
0.01088102
0.010850627
0.010821412
0.010793322
0.010766302
0.010740301
0.010715266
0.010691147
0.010667895
0.010645462
0.010623806
0.010602882
0.010582651
0.010563072
0.010544108
0.010525723
0.010507881
0.010490548
0.010473691
0.010457277
0.010441274
0.01042565
0.010410375
0.010395418
0.010380748
0.010366336
0.010352152
0.010338165
0.010324345
0.010310662
0.010297083
0.010283575
0.010270103
0.010256632
0.010243122
0.010229535
0.010215833
0.010201976
0.010187924
0.010173636
0.010159068
0.010144174
0.010128902
0.010113199
0.010097009
0.010080296
0.010063122
0.010045982
0.010031167
0.010019531
0.010010251
0.010003039
0.0099975469
0.0099935138
0.0099907225
0.0099889923
0.009988166
0.0099879881
0.0099884295
0.0099893942
0.0099909882
0.0099933065
0.0099961556
0.0099988918
0.013208543
0.01204511
0.011634377
0.011524107
0.011436104
0.011369111
0.011309477
0.011255278
0.011204877
0.01115762
0.01111306
0.011070903
0.01103092
0.010992926
0.010956761
0.010922288
0.010889384
0.010857937
0.010827849
0.01079903
0.010771395
0.01074487
0.010719384
0.010694872
0.010671274
0.010648535
0.010626602
0.010605426
0.010584962
0.010565167
0.010545999
0.01052742
0.010509393
0.010491881
0.01047485
0.010458267
0.010442099
0.010426315
0.010410882
0.010395771
0.010380952
0.010366394
0.01035207
0.01033795
0.010324003
0.010310202
0.010296514
0.010282908
0.010269351
0.010255808
0.010242245
0.010228624
0.010214911
0.010201069
0.010187061
0.010172849
0.010158394
0.010143649
0.010128565
0.010113086
0.010097153
0.010080716
0.010063802
0.010046811
0.010031719
0.010019958
0.010010567
0.010003281
0.0099977449
0.0099936955
0.0099909037
0.0099891689
0.0099883289
0.0099881218
0.0099885923
0.0099896107
0.0099911899
0.0099933107
0.009995869
0.009998635
0.01333358
0.012101665
0.011695242
0.011572814
0.011474589
0.011399269
0.011333541
0.011274839
0.011221104
0.011171349
0.011124898
0.01108129
0.011040182
0.011001302
0.010964432
0.010929388
0.010896015
0.010864177
0.010833756
0.010804648
0.01077676
0.010750007
0.010724312
0.010699607
0.010675828
0.010652915
0.010630814
0.010609474
0.010588849
0.010568894
0.010549567
0.010530829
0.010512642
0.010494969
0.010477776
0.010461029
0.010444696
0.010428744
0.010413143
0.010397863
0.010382872
0.010368142
0.010353645
0.010339349
0.010325228
0.01031125
0.010297385
0.010283602
0.010269868
0.010256148
0.010242408
0.010228613
0.010214727
0.010200714
0.01018654
0.010172168
0.010157558
0.010142666
0.010127444
0.010111837
0.010095788
0.010079255
0.01006229
0.010045394
0.010030942
0.010019509
0.010010376
0.010003254
0.009997818
0.0099938145
0.0099910328
0.0099892947
0.0099884482
0.0099882347
0.0099887122
0.0099897474
0.0099913013
0.0099932865
0.0099956721
0.0099984604
66.014001
360.2891
121.11376
14.618196
0.40369213
0.021407191
0.020134747
0.019830604
0.019566306
0.018512493
0.01717531
0.015985816
0.015083253
0.014510657
0.014104053
0.01371864
0.013343173
0.013010247
0.012730843
0.012497171
0.012298553
0.012127254
0.011978131
0.011847386
0.011731963
0.011629369
0.01153761
0.011455091
0.011380557
0.01131302
0.01125166
0.011195764
0.011144708
0.011097969
0.011055133
0.011015867
0.010979884
0.010946931
0.010916775
0.010889206
0.010864036
0.010841086
0.010820174
0.010801127
0.010783784
0.010767981
0.010753556
0.010740358
0.010728253
0.010717126
0.010706862
0.010697346
0.010688461