/*--------------------------------*- C++ -*----------------------------------*\
  =========                 |
  \\      /  F ield         | OpenFOAM: The Open Source CFD Toolbox
   \\    /   O peration     | Website:  https://openfoam.org
    \\  /    A nd           | Version:  12
     \\/     M anipulation  |
\*---------------------------------------------------------------------------*/
FoamFile
{
    format      ascii;
    class       surfaceScalarField;
    location    "0.132";
    object      phi;
}
// * * * * * * * * * * * * * * * * * * * * * * * * * * * * * * * * * * * * * //

dimensions      [1 0 -1 0 0 0 0];

internalField   nonuniform List<scalar> 
31760
(
-0.00063754199
-0.050874625
0.051512409
-0.0015985054
-0.064288569
0.065249839
-0.0025957764
-0.062929998
0.063931831
-0.0036122237
-0.068595478
0.069611987
-0.004683856
-0.070271343
0.071343059
-0.0057841076
-0.074533398
0.075633794
-0.0069540819
-0.077461857
0.078631967
-0.0081634369
-0.081466492
0.082676031
-0.0094328297
-0.085089063
0.086358646
-0.010761175
-0.089205312
0.090533878
-0.012145013
-0.093338395
0.09472247
-0.013596212
-0.09774881
0.099200269
-0.015109347
-0.10232346
0.10383687
-0.016692687
-0.10712446
0.1087081
-0.018345795
-0.11214056
0.11379398
-0.020073409
-0.11738843
0.11911637
-0.021878185
-0.12287609
0.12468121
-0.02376331
-0.128615
0.13050049
-0.025732015
-0.13461614
0.13658522
-0.027787681
-0.14089079
0.14294684
-0.029933734
-0.14745132
0.14959776
-0.032173915
-0.15430971
0.1565503
-0.034511809
-0.16147955
0.16381785
-0.036951303
-0.16897453
0.17141444
-0.039495353
-0.17680917
0.17935364
-0.04214852
-0.1849976
0.18765119
-0.044914678
-0.19355604
0.19632262
-0.047797228
-0.20250111
0.20538408
-0.05079964
-0.21184973
0.21485255
-0.053925929
-0.22161997
0.22474667
-0.057179371
-0.23183079
0.23508463
-0.060563259
-0.24250201
0.24588628
-0.064080365
-0.25365514
0.25717261
-0.067733691
-0.26531132
0.26896499
-0.071525177
-0.27749467
0.28128649
-0.075456431
-0.2902295
0.29416107
-0.079528724
-0.30354161
0.30761419
-0.083742466
-0.31745874
0.32167275
-0.088097402
-0.33200898
0.33636415
-0.092592141
-0.34722387
0.3517188
-0.097224601
-0.36313527
0.36776789
-0.10199127
-0.37977709
0.38454387
-0.10688744
-0.39718553
0.40208177
-0.11190722
-0.41539862
0.4204184
-0.11704277
-0.4344569
0.43959239
-0.12228485
-0.4544022
0.45964416
-0.12762181
-0.47527966
0.48061642
-0.13304063
-0.49713587
0.50255441
-0.13852573
-0.52002114
0.52550587
-0.14405875
-0.54398749
0.54952002
-0.14961858
-0.56908957
0.5746488
-0.15518171
-0.59538566
0.60094803
-0.16072074
-0.62293636
0.62847446
-0.16620475
-0.65180556
0.65728843
-0.17159931
-0.68206015
0.68745332
-0.17686458
-0.71377119
0.71903477
-0.1819566
-0.74701233
0.7521023
-0.18682607
-0.78186097
0.78672795
-0.19141672
-0.81839854
0.82298619
-0.19566642
-0.85670964
0.86095578
-0.19950514
-0.89688252
0.900717
-0.202855
-0.93900897
0.94235387
-0.20562863
-0.98318524
0.9859531
-0.20772863
-1.0295115
1.0316049
-0.20904614
-1.0780908
1.0794007
-0.2094602
-1.1290309
1.1294363
-0.20883445
-1.1824419
1.1818065
-0.20702335
-1.2384359
1.2366139
-0.20386011
-1.297134
1.2939586
-0.19915813
-1.3586603
1.3539447
-0.19271555
-1.4231433
1.4166858
-0.18431241
-1.4907127
1.4822934
-0.17369424
-1.5615004
1.5508649
-0.16059292
-1.6356277
1.6225082
-0.14470137
-1.7132238
1.6973135
-0.12571212
-1.7944228
1.7754151
-0.10314914
-1.8793919
1.8568124
-0.077053693
-1.9682905
1.9421812
-0.045889537
-2.0606747
2.0295046
-2.1588725
2.1239133
-0.00063387017
-0.050240589
-0.0015010121
-0.063421419
-0.0023928073
-0.062037978
-0.0033512235
-0.067636974
-0.0043203754
-0.069302016
-0.0053668598
-0.073486751
-0.0064283908
-0.076400112
-0.0075699557
-0.080324704
-0.00873728
-0.083921482
-0.0099789506
-0.087963367
-0.011263562
-0.092053486
-0.012615591
-0.096396464
-0.014025038
-0.10091367
-0.015500989
-0.10564815
-0.017043636
-0.11059754
-0.01865713
-0.11577454
-0.020343667
-0.12118915
-0.022107017
-0.12685123
-0.023950407
-0.13277232
-0.025877415
-0.13896334
-0.027891707
-0.14543658
-0.029996533
-0.15220443
-0.032196002
-0.15927961
-0.034493796
-0.16667626
-0.036894713
-0.17440778
-0.039401557
-0.18249028
-0.042019018
-0.1909381
-0.044750822
-0.19976883
-0.047601242
-0.20899884
-0.050573836
-0.21864692
-0.053672672
-0.22873151
-0.056901064
-0.23927319
-0.060262297
-0.25029349
-0.063759337
-0.26181389
-0.067394584
-0.27385905
-0.071170336
-0.28645342
-0.075087734
-0.29962391
-0.079148251
-0.31339797
-0.0833512
-0.32780582
-0.087696137
-0.34287877
-0.092181422
-0.35864989
-0.096803912
-0.37515458
-0.10155919
-0.39243031
-0.10644214
-0.41051581
-0.11144563
-0.42945364
-0.11656103
-0.44928712
-0.12177807
-0.47006305
-0.12708405
-0.49183042
-0.13246463
-0.5146412
-0.1379032
-0.5385497
-0.14338033
-0.56361336
-0.14887394
-0.58989312
-0.1543588
-0.61745275
-0.15980661
-0.6463592
-0.16518531
-0.67668313
-0.17045865
-0.70849978
-0.17558625
-0.74188697
-0.18052266
-0.77692716
-0.18521666
-0.81370757
-0.18961145
-0.8523184
-0.19364301
-0.89285508
-0.19723999
-0.9354168
-0.20032225
-0.98010856
-0.20280154
-1.0270387
-0.20457816
-1.0763215
-0.20554264
-1.1280747
-0.20556905
-1.1824249
-0.20452187
-1.2394938
-0.2022502
-1.2994177
-0.19858568
-1.3623382
-0.19334477
-1.4283991
-0.186321
-1.4977527
-0.17728724
-1.5705515
-0.1659904
-1.6469429
-0.15216012
-1.7270729
-0.13548685
-1.8111144
-0.11563567
-1.8992596
-0.092367134
-1.991572
-0.064801451
-2.0882463
-2.1901787
-0.00057269746
-0.04966752
-0.0013817271
-0.062612139
-0.0021880362
-0.061232215
-0.0030901337
-0.066734541
-0.0039812265
-0.068410578
-0.0049585833
-0.07250905
-0.0059373228
-0.075421022
-0.0069994977
-0.079262172
-0.0080807741
-0.082839842
-0.0092347947
-0.086808973
-0.010428543
-0.090859358
-0.011686168
-0.095138445
-0.012998648
-0.099600793
-0.014374262
-0.10427212
-0.015813687
-0.10915769
-0.01732051
-0.11426728
-0.018898085
-0.11961113
-0.020549354
-0.1251995
-0.022278594
-0.13104261
-0.02408862
-0.13715283
-0.02598392
-0.14354079
-0.027968007
-0.15021984
-0.030044761
-0.15720236
-0.032218954
-0.16450156
-0.03449385
-0.17213237
-0.036874648
-0.18010897
-0.039364788
-0.18844745
-0.04196932
-0.19716379
-0.044691786
-0.20627588
-0.047537314
-0.2158009
-0.050508995
-0.22575935
-0.053611131
-0.23617059
-0.056847502
-0.24705668
-0.060220765
-0.25844021
-0.063734479
-0.27034496
-0.067390778
-0.28279678
-0.071191866
-0.29582253
-0.075138222
-0.30945137
-0.079230824
-0.32371304
-0.083469118
-0.33864037
-0.08785128
-0.3542677
-0.092375153
-0.37063077
-0.097037323
-0.38776829
-0.10183229
-0.4057211
-0.10675403
-0.42453228
-0.11179453
-0.44424712
-0.11694454
-0.46491366
-0.12219214
-0.48658359
-0.12752476
-0.5093095
-0.13292675
-0.53314878
-0.13837997
-0.55816139
-0.14386502
-0.58440949
-0.14935865
-0.61196072
-0.15483502
-0.64088463
-0.16026505
-0.67125513
-0.16561593
-0.70315117
-0.17085125
-0.7366542
-0.17592898
-0.77185229
-0.18080381
-0.80883598
-0.18542339
-0.84770249
-0.18973034
-0.88855233
-0.19365964
-0.9314923
-0.19713965
-0.97663405
-0.20008944
-1.0240952
-0.20241899
-1.0739992
-0.20402701
-1.1264749
-0.20480503
-1.1816562
-0.20462664
-1.2396827
-0.20335207
-1.3007041
-0.20083352
-1.36487
-0.1968985
-1.4323488
-0.19136583
-1.5033015
-0.18402402
-1.5779107
-0.17464718
-1.6563379
-0.16298204
-1.7387566
-0.14875058
-1.8253639
-0.13167009
-1.9163562
-0.11141677
-2.0118374
-0.087452333
-2.112216
-2.2177067
-0.00051638089
-0.049150793
-0.001264907
-0.061863337
-0.0019993602
-0.060497156
-0.0028486369
-0.065884971
-0.0036737696
-0.067585139
-0.0045845129
-0.071597992
-0.0054865278
-0.074518678
-0.0064754794
-0.07827288
-0.0074768804
-0.081838089
-0.0085503051
-0.08573518
-0.0096603419
-0.089748943
-0.010831379
-0.093967013
-0.012055405
-0.098376362
-0.01333971
-0.10298739
-0.01468598
-0.10781099
-0.016097979
-0.11285483
-0.017579017
-0.11812964
-0.019132468
-0.12364558
-0.020761815
-0.12941279
-0.022471401
-0.13544275
-0.024264403
-0.14174728
-0.026145879
-0.14833785
-0.028119742
-0.15522797
-0.030189975
-0.1624308
-0.032361735
-0.16996009
-0.034638967
-0.17783121
-0.037026707
-0.18605919
-0.039529284
-0.19466069
-0.042152142
-0.2036525
-0.044898622
-0.21305392
-0.047773836
-0.22288365
-0.050782124
-0.23316183
-0.053927151
-0.24391121
-0.057212768
-0.25515418
-0.060642345
-0.26691501
-0.064218299
-0.2792205
-0.0679428
-0.29209775
-0.071817717
-0.30557625
-0.075843354
-0.31968727
-0.080019709
-0.33446396
-0.084346132
-0.34994132
-0.088819904
-0.36615714
-0.093438182
-0.38315027
-0.098196565
-0.4009631
-0.1030891
-0.41964026
-0.10810926
-0.43922762
-0.11324735
-0.4597764
-0.11849444
-0.4813375
-0.12383773
-0.50396739
-0.1292636
-0.52772427
-0.13475643
-0.55267012
-0.14029763
-0.57887006
-0.14586699
-0.60639334
-0.15144173
-0.6353121
-0.15699484
-0.66570446
-0.16249806
-0.69765064
-0.16791803
-0.73123718
-0.17321805
-0.76655553
-0.17835705
-0.80370058
-0.1832887
-0.84277483
-0.18796138
-0.88388411
-0.19231721
-0.92714147
-0.19629193
-0.97266496
-0.19981317
-1.0205803
-0.20280038
-1.0710192
-0.20516555
-1.1241179
-0.20680307
-1.1800279
-0.2076067
-1.2388895
-0.20744777
-1.3008748
-0.2061942
-1.3661368
-0.20369398
-1.4348637
-0.19977221
-1.5072394
-0.19425202
-1.5834482
-0.18691986
-1.6636883
-0.17755194
-1.748143
-0.1659008
-1.8370328
-0.15170331
-1.9305693
-0.13464392
-2.0289081
-0.11433164
-2.1325327
-2.2413113
-0.00046120469
-0.048689261
-0.0011626172
-0.061161677
-0.0018193395
-0.059840154
-0.0026123329
-0.065091694
-0.0033635353
-0.066833629
-0.0042165967
-0.070744618
-0.005052088
-0.073682856
-0.0059756236
-0.077349003
-0.0069060446
-0.080907313
-0.0079065938
-0.084734261
-0.0089425718
-0.088712584
-0.010037068
-0.09287212
-0.011184221
-0.097228802
-0.012390213
-0.10178098
-0.013657444
-0.10654333
-0.014989009
-0.11152282
-0.016388676
-0.11672951
-0.017860217
-0.12217357
-0.019407334
-0.12786519
-0.021034057
-0.13381553
-0.022745108
-0.14003573
-0.024543835
-0.14653861
-0.026435757
-0.15333553
-0.028425462
-0.16044057
-0.030517474
-0.16786755
-0.032717071
-0.17563108
-0.035029463
-0.18374627
-0.037459586
-0.19223005
-0.040012366
-0.20109921
-0.042693001
-0.21037278
-0.045506363
-0.22006981
-0.048456918
-0.23021082
-0.051549017
-0.24081868
-0.054787006
-0.2519158
-0.058174036
-0.26352763
-0.061713179
-0.27568106
-0.065406928
-0.28840377
-0.069257169
-0.30172584
-0.073264642
-0.31567971
-0.07742972
-0.33029889
-0.08175134
-0.34561981
-0.086228311
-0.36168039
-0.090857326
-0.37852161
-0.095634683
-0.39618624
-0.1005559
-0.4147197
-0.10561397
-0.43417037
-0.11080165
-0.45458972
-0.11610979
-0.47603056
-0.12152765
-0.49855093
-0.12704365
-0.52220989
-0.13264328
-0.54707234
-0.13831107
-0.57320436
-0.14402895
-0.60067779
-0.14977656
-0.62956708
-0.15553155
-0.65995233
-0.16126811
-0.6919172
-0.16695707
-0.72555165
-0.17256707
-0.76094925
-0.17806151
-0.7982102
-0.1834004
-0.83744039
-0.18853792
-0.87875146
-0.19342349
-0.92226128
-0.19800004
-0.96809437
-0.20220429
-1.0163827
-0.20596524
-1.0672656
-0.20920218
-1.1208893
-0.21182967
-1.1774098
-0.21374158
-1.2369882
-0.21483706
-1.2997912
-0.21498305
-1.3660041
-0.21405268
-1.4358088
-0.21189393
-1.5094143
-0.20834079
-1.5870186
-0.20320833
-1.6688389
-0.19629125
-1.7550784
-0.18736869
-1.8459727
-0.17621138
-1.9417417
-0.16251705
-2.0426129
-0.14598055
-2.1490727
-2.2608124
-0.00041145167
-0.048277486
-0.0010719445
-0.060500934
-0.0016662096
-0.059245602
-0.0024013198
-0.0643563
-0.0030766113
-0.066158028
-0.0038783243
-0.069942592
-0.0046470004
-0.072913853
-0.0055110198
-0.076484645
-0.0063779868
-0.080039997
-0.0073169751
-0.083794907
-0.008292816
-0.08773637
-0.0093251332
-0.091839412
-0.010410338
-0.096143198
-0.011553085
-0.10063781
-0.012756217
-0.10533977
-0.014023584
-0.11025501
-0.015358695
-0.11539395
-0.016765421
-0.12076638
-0.018248265
-0.12638187
-0.019811215
-0.1322521
-0.021459369
-0.13838709
-0.023197534
-0.14479995
-0.025030852
-0.15150171
-0.026964421
-0.1585065
-0.02900385
-0.16582761
-0.031154938
-0.17347948
-0.033422413
-0.18147829
-0.035812562
-0.1898394
-0.038330671
-0.19858061
-0.040982098
-0.20772089
-0.043772411
-0.21727904
-0.046706163
-0.22727665
-0.049788723
-0.23773573
-0.053023362
-0.24868081
-0.056414562
-0.26013613
-0.059965632
-0.27212974
-0.063678751
-0.28469047
-0.067555886
-0.2978486
-0.07159857
-0.31163701
-0.075806862
-0.32609068
-0.080180651
-0.34124621
-0.084717934
-0.35714343
-0.089416988
-0.37382301
-0.094274571
-0.39132926
-0.099285631
-0.40970941
-0.10444509
-0.42901186
-0.10974722
-0.44928875
-0.11518317
-0.47059599
-0.12074499
-0.49299072
-0.12642129
-0.51653544
-0.13220146
-0.54129429
-0.1380715
-0.5673367
-0.14401637
-0.59473558
-0.150019
-0.62356741
-0.15606005
-0.65391455
-0.16211778
-0.68586304
-0.16816853
-0.7195048
-0.17418429
-0.75493773
-0.18013464
-0.79226444
-0.18598461
-0.83159541
-0.19169602
-0.87304547
-0.19722489
-0.91673832
-0.20252241
-0.96280333
-0.2075335
-1.0113788
-0.21219647
-1.0626106
-0.21644209
-1.1166525
-0.22019288
-1.1736688
-0.22336438
-1.2338276
-0.22585426
-1.2973135
-0.22756178
-1.3643102
-0.22836374
-1.4350218
-0.22813094
-1.5096633
-0.22671762
-1.5884494
-0.223958
-1.6716168
-0.21967039
-1.7593842
-0.21366352
-1.8519967
-0.20572409
-1.9496957
-0.1955922
-2.0527544
-0.18300837
-2.1616589
-2.2760123
-0.0003689781
-0.047908198
-0.00099871518
-0.059870954
-0.0015382784
-0.058705749
-0.0022261765
-0.063668127
-0.0028422807
-0.065541627
-0.0035960751
-0.069188497
-0.0043089153
-0.072200699
-0.0051117619
-0.075681472
-0.0059370251
-0.079214398
-0.0068298739
-0.082901707
-0.0077597094
-0.086806174
-0.008742454
-0.090856291
-0.0097777576
-0.09510751
-0.010869646
-0.099545526
-0.012022191
-0.10418682
-0.013238871
-0.10903791
-0.014524554
-0.11410784
-0.01588333
-0.11940716
-0.017320006
-0.12494474
-0.018839971
-0.13073167
-0.020447833
-0.13677876
-0.022149791
-0.14309752
-0.023951059
-0.14969997
-0.025857318
-0.15659976
-0.02787492
-0.16380953
-0.030009491
-0.17134443
-0.032267911
-0.1792194
-0.03465572
-0.18745113
-0.037178638
-0.19605725
-0.039843251
-0.20505585
-0.042654548
-0.21446735
-0.045618096
-0.22431273
-0.04873855
-0.23461494
-0.052021008
-0.24539806
-0.055468505
-0.25668839
-0.05908469
-0.26851338
-0.062872658
-0.28090239
-0.066834072
-0.29388716
-0.07097004
-0.30750111
-0.07528119
-0.3217797
-0.079767465
-0.33676022
-0.084427597
-0.35248371
-0.089260016
-0.36899115
-0.09426155
-0.38632845
-0.099429274
-0.40454259
-0.10475863
-0.4236836
-0.11024416
-0.44380453
-0.11588033
-0.46496135
-0.12165917
-0.48721366
-0.12757324
-0.51062342
-0.13361249
-0.53525738
-0.13976653
-0.56118529
-0.14602365
-0.58848141
-0.15236971
-0.61722463
-0.15878956
-0.64749832
-0.16526536
-0.67939121
-0.17177787
-0.71299663
-0.17830469
-0.74841564
-0.18482053
-0.78575372
-0.19129744
-0.82512406
-0.1977028
-0.86664614
-0.20400076
-0.91044691
-0.21015011
-0.9566611
-0.21610496
-1.0054317
-0.22181353
-1.0569105
-0.22721683
-1.1112586
-0.23224926
-1.1686468
-0.23683782
-1.2292505
-0.24089682
-1.2932673
-0.24433401
-1.360887
-0.2470512
-1.4323201
-0.24893246
-1.5077988
-0.24984985
-1.5875497
-0.24966626
-1.6718187
-0.24821665
-1.760852
-0.24533357
-1.8548966
-0.24083724
-1.954206
-0.23449291
-2.0591074
-0.22607835
-2.1700747
-2.2866796
-0.00032579159
-0.047582111
-0.00093001951
-0.059266492
-0.0014203262
-0.058215168
-0.0020623243
-0.063025865
-0.0026341787
-0.064969489
-0.0033600722
-0.068462316
-0.0040399836
-0.071520488
-0.004827856
-0.074893287
-0.0056136757
-0.078428258
-0.0064603701
-0.082054678
-0.0073479319
-0.085918271
-0.0082877832
-0.089916083
-0.0092824677
-0.094112462
-0.010335397
-0.098492217
-0.011451029
-0.1030708
-0.01263393
-0.10785461
-0.013888069
-0.11285329
-0.015219415
-0.11807539
-0.016632803
-0.12353093
-0.018133898
-0.12923015
-0.019728541
-0.13518368
-0.021422722
-0.1414029
-0.023222748
-0.14789951
-0.025135845
-0.15468622
-0.027167476
-0.16177747
-0.029325108
-0.16918638
-0.031614866
-0.17692923
-0.034043556
-0.18502204
-0.036617666
-0.19348276
-0.039343226
-0.20232993
-0.042225938
-0.2115843
-0.045271508
-0.22126686
-0.04848503
-0.23140117
-0.05187052
-0.24201237
-0.055432182
-0.25312658
-0.059173486
-0.26477199
-0.063096582
-0.27697929
-0.067203705
-0.28978011
-0.071496174
-0.3032088
-0.075974549
-0.3173016
-0.08063867
-0.3320965
-0.085488533
-0.34763437
-0.090522068
-0.3639583
-0.095737724
-0.38111364
-0.10113303
-0.39914831
-0.10670467
-0.41811318
-0.11244908
-0.43806158
-0.11836195
-0.45905017
-0.12443809
-0.48113947
-0.13067169
-0.50439205
-0.13705637
-0.52887523
-0.14358398
-0.55466054
-0.1502461
-0.58182248
-0.15703258
-0.61044171
-0.1639323
-0.64060253
-0.17093247
-0.67239537
-0.17801786
-0.70591599
-0.18517179
-0.74126688
-0.19237515
-0.778556
-0.19960587
-0.81789945
-0.20683889
-0.85941977
-0.21404561
-0.9032474
-0.22119318
-0.94952136
-0.22824499
-0.9983884
-0.23515843
-1.0500064
-0.24188649
-1.1045407
-0.24837478
-1.1621697
-0.25456083
-1.2230768
-0.26037711
-1.2874645
-0.26574934
-1.3555296
-0.27058288
-1.4275027
-0.27479155
-1.5036074
-0.27826286
-1.5840967
-0.28087906
-1.6692213
-0.28250361
-1.7592459
-0.28299424
-1.8544229
-0.28219126
-1.9550227
-0.27989716
-2.0614095
-0.27593566
-2.1740363
-2.2925463
-0.00028369499
-0.047298137
-0.00086869052
-0.058681275
-0.001317914
-0.057765686
-0.0019367772
-0.062406753
-0.0024859037
-0.064420096
-0.0031904342
-0.067757514
-0.00384265
-0.07086799
-0.0046062626
-0.074129383
-0.0053619633
-0.077672258
-0.0061763873
-0.08123994
-0.0070370492
-0.085057289
-0.0079506152
-0.089002183
-0.0089219926
-0.093140746
-0.009954578
-0.09745928
-0.011053455
-0.10197157
-0.01222344
-0.10668426
-0.013470203
-0.11160616
-0.014799146
-0.11674607
-0.01621628
-0.12211342
-0.017728365
-0.12771767
-0.019341438
-0.13357022
-0.021063009
-0.13968094
-0.022899444
-0.14606269
-0.024858111
-0.15272717
-0.026946573
-0.15968863
-0.029171582
-0.166961
-0.031540644
-0.17455982
-0.034060585
-0.18250177
-0.036737806
-0.19080523
-0.039579063
-0.19948839
-0.04259037
-0.20857275
-0.045776732
-0.21808029
-0.049142975
-0.22803476
-0.052693854
-0.23846138
-0.056432996
-0.24938739
-0.060363121
-0.26084188
-0.064487086
-0.27285542
-0.068806737
-0.28546064
-0.073323107
-0.29869272
-0.078037276
-0.31258782
-0.08294925
-0.32718504
-0.088058719
-0.34252556
-0.093365425
-0.3586524
-0.098868733
-0.3756113
-0.10456698
-0.39345122
-0.11045877
-0.41222276
-0.11654204
-0.43197989
-0.12281461
-0.45277942
-0.129274
-0.47468217
-0.13591668
-0.49775175
-0.14273934
-0.52205526
-0.1497377
-0.54766521
-0.15690649
-0.57465709
-0.16424018
-0.60311179
-0.17173158
-0.63311532
-0.17937272
-0.66475884
-0.18715348
-0.6981403
-0.19506345
-0.73336248
-0.20308903
-0.7705365
-0.21121483
-0.80978027
-0.21942338
-0.85121843
-0.22769386
-0.89498476
-0.23600232
-0.94122143
-0.24432048
-0.99007952
-0.25261734
-1.0417196
-0.26085577
-1.0963133
-0.26899496
-1.1540425
-0.27698452
-1.2151005
-0.28477174
-1.2796918
-0.29229086
-1.3480263
-0.29947684
-1.4203337
-0.30625173
-1.4968507
-0.31253025
-1.5778373
-0.31820964
-1.6635614
-0.32317942
-1.754295
-0.32732138
-1.850298
-0.33049805
-1.9518595
-0.3325579
-2.059357
-0.33334428
-2.1732494
-2.293294
-0.00024563237
-0.047052243
-0.00081969224
-0.058107008
-0.0012392343
-0.057345902
-0.0018829949
-0.06176276
-0.0024173163
-0.063885526
-0.0030967078
-0.06707787
-0.0037262031
-0.070238233
-0.0044479608
-0.073407353
-0.0051905273
-0.076929414
-0.0059895419
-0.080440636
-0.0068405829
-0.084205955
-0.0077464079
-0.088096052
-0.0087141875
-0.092172658
-0.0097478314
-0.096425316
-0.010853108
-0.10086597
-0.012035766
-0.10550127
-0.013302052
-0.11033954
-0.014658639
-0.11538915
-0.016112318
-0.1206594
-0.017669789
-0.12615986
-0.019339664
-0.13190001
-0.021128373
-0.13789189
-0.023044764
-0.14414597
-0.025096083
-0.15067554
-0.027290127
-0.15749428
-0.029634942
-0.1646159
-0.032137881
-0.17205661
-0.034805855
-0.17983355
-0.037646201
-0.18796467
-0.040664829
-0.19646958
-0.043867257
-0.20537018
-0.047259067
-0.21468838
-0.050844616
-0.22444916
-0.054628034
-0.23467797
-0.058612542
-0.24540295
-0.062800895
-0.25665367
-0.067195283
-0.26846126
-0.071797364
-0.28085888
-0.076608847
-0.29388165
-0.081630377
-0.30756682
-0.086862834
-0.32195323
-0.092306955
-0.33708223
-0.097963178
-0.35299712
-0.10383147
-0.36974412
-0.10991263
-0.38737135
-0.11620711
-0.40592978
-0.12271484
-0.42547389
-0.12943619
-0.44606004
-0.13637131
-0.46774929
-0.14352036
-0.49060523
-0.15088254
-0.51469593
-0.15845802
-0.54009292
-0.1662453
-0.56687338
-0.17424285
-0.59511821
-0.18244865
-0.62491391
-0.19085946
-0.6563529
-0.19947146
-0.68953364
-0.20827913
-0.72456068
-0.2172761
-0.76154598
-0.22645416
-0.80060926
-0.23580251
-0.84187778
-0.24530909
-0.88548658
-0.25495863
-0.93158104
-0.26473336
-0.98031478
-0.27461151
-1.0318524
-0.28456801
-1.0863687
-0.29457307
-1.1440505
-0.30459313
-1.2050946
-0.31458593
-1.2697145
-0.32450612
-1.338123
-0.33430393
-1.410554
-0.34391418
-1.4872596
-0.35327639
-1.568495
-0.36231268
-1.6545453
-0.37093625
-1.745691
-0.37904461
-1.8422071
-0.3865341
-1.9443836
-0.39328249
-2.0526158
-0.39918223
-2.1673486
-2.2885657
-0.00021181868
-0.046840181
-0.00078664068
-0.057531993
-0.0011834089
-0.05694891
-0.0018440432
-0.061101911
-0.0023564909
-0.06337285
-0.0030272002
-0.066406929
-0.0036503668
-0.069614829
-0.0043674323
-0.07269004
-0.0051127986
-0.076183797
-0.0059123014
-0.079640871
-0.0067712415
-0.083346751
-0.0076896786
-0.08717734
-0.008676127
-0.091185935
-0.0097353862
-0.095365773
-0.010874136
-0.099726936
-0.012099079
-0.10427604
-0.013417395
-0.10902094
-0.014836401
-0.11396985
-0.016364521
-0.119131
-0.018009653
-0.12451445
-0.019780048
-0.13012935
-0.021684584
-0.13598709
-0.023731372
-0.14209893
-0.025929074
-0.14847759
-0.028286362
-0.15513677
-0.030810581
-0.16209148
-0.033509513
-0.1693575
-0.036390386
-0.17695253
-0.039459896
-0.18489505
-0.04272321
-0.19320619
-0.046186694
-0.20190666
-0.049854135
-0.21102096
-0.053730246
-0.22057312
-0.057817739
-0.23059061
-0.06211937
-0.24110152
-0.066638014
-0.2521353
-0.071375535
-0.2637241
-0.076333408
-0.27590146
-0.081513319
-0.2887023
-0.086917021
-0.30216379
-0.092545979
-0.31632507
-0.098401933
-0.33122721
-0.1044865
-0.34691364
-0.11080222
-0.36342965
-0.11735139
-0.38082363
-0.12413631
-0.39914649
-0.13116058
-0.41845149
-0.13842662
-0.43879611
-0.14593836
-0.46023992
-0.15369907
-0.48284719
-0.16171252
-0.50668547
-0.16998153
-0.53182724
-0.17850987
-0.55834875
-0.1873008
-0.58633139
-0.19635682
-0.61586246
-0.20568035
-0.64703441
-0.21527348
-0.67994608
-0.22513699
-0.7147033
-0.23527101
-0.75141868
-0.24567432
-0.79021332
-0.2563454
-0.83121478
-0.26727951
-0.87456132
-0.27847104
-0.92039919
-0.28991202
-0.96888438
-0.30159186
-1.0201841
-0.31349725
-1.0744759
-0.32561186
-1.1319497
-0.33791333
-1.1928083
-0.35037941
-1.2572649
-0.36297841
-1.3255418
-0.37567098
-1.3978805
-0.38842578
-1.4745249
-0.40119045
-1.5557512
-0.41391252
-1.6418442
-0.42652662
-1.7330972
-0.43896618
-1.8297857
-0.45113763
-1.932226
-0.46295983
-2.0408007
-0.47436802
-2.1559393
-2.2779321
-0.00019057173
-0.046649386
-0.00078480525
-0.056937585
-0.0011778323
-0.05655568
-0.0018306326
-0.060448917
-0.0023360554
-0.062867222
-0.0030125823
-0.065730194
-0.0036508259
-0.068976372
-0.0043746137
-0.07196603
-0.005141756
-0.075416433
-0.0059627231
-0.078819672
-0.0068512689
-0.082457975
-0.0078065389
-0.086221831
-0.008838128
-0.090154108
-0.0099520863
-0.094251571
-0.011156137
-0.098522646
-0.012458153
-0.10297378
-0.013866574
-0.10761228
-0.015390212
-0.11244598
-0.017037683
-0.1174833
-0.018818901
-0.12273301
-0.020742642
-0.1282054
-0.022818527
-0.13391101
-0.025055333
-0.13986195
-0.0274621
-0.14607067
-0.030047286
-0.15255145
-0.03281888
-0.15931977
-0.03578382
-0.16639249
-0.038949156
-0.17378715
-0.042320263
-0.18152393
-0.045903053
-0.18962344
-0.049701249
-0.19810855
-0.053718913
-0.20700343
-0.05795928
-0.21633296
-0.062424853
-0.2261253
-0.06711803
-0.23640869
-0.072040979
-0.24721277
-0.077195325
-0.25857026
-0.082583465
-0.27051392
-0.088207281
-0.28307919
-0.094069444
-0.29630245
-0.10017279
-0.31022267
-0.10652064
-0.32488044
-0.11311711
-0.3403184
-0.11996639
-0.35658177
-0.1270733
-0.37371831
-0.13444371
-0.39177786
-0.14208341
-0.41081379
-0.14999898
-0.43088278
-0.1581971
-0.45204431
-0.1666852
-0.47436188
-0.17547075
-0.49790303
-0.18456217
-0.52273929
-0.19396711
-0.54894766
-0.20369386
-0.57660889
-0.21375016
-0.60581086
-0.22414483
-0.63664494
-0.23488509
-0.66921154
-0.24597875
-0.70361595
-0.25743316
-0.73997121
-0.2692552
-0.77839891
-0.2814505
-0.81902786
-0.29402424
-0.86199676
-0.30698022
-0.90745327
-0.32032076
-0.95555486
-0.33404687
-1.0064701
-0.34815734
-1.0603787
-0.36264851
-1.117473
-0.37751382
-1.1779588
-0.3927471
-1.2420489
-0.40832877
-1.3099787
-0.42424655
-1.3819826
-0.44047416
-1.4583183
-0.45699082
-1.5392561
-0.47376981
-1.6250869
-0.49076754
-1.7161204
-0.50793429
-1.8126377
-0.52520896
-1.9149656
-0.54254356
-2.0234732
-0.55990288
-2.1385788
-2.260908
-0.00017203753
-0.046477144
-0.00079494878
-0.056314515
-0.0011946079
-0.056155838
-0.0018588656
-0.059784484
-0.0023771009
-0.062348804
-0.0030682175
-0.065038892
-0.0037369821
-0.06830742
-0.0044844236
-0.071218394
-0.0052917406
-0.074608922
-0.0061567124
-0.077954499
-0.0070990677
-0.081515422
-0.0081187045
-0.08520199
-0.0092259643
-0.089046651
-0.010428547
-0.093048788
-0.011735506
-0.097215494
-0.013156151
-0.10155294
-0.014700231
-0.10606802
-0.01637783
-0.1107682
-0.018199208
-0.11566176
-0.02017427
-0.1207578
-0.022313407
-0.12606613
-0.02462618
-0.13159812
-0.027121751
-0.13736628
-0.029809257
-0.14338309
-0.03269643
-0.14966424
-0.035790498
-0.1562257
-0.039098608
-0.16308441
-0.042625556
-0.17026027
-0.046376498
-0.1777731
-0.050355288
-0.18564481
-0.054565277
-0.19389878
-0.059009445
-0.20255954
-0.063689099
-0.21165364
-0.068607429
-0.22120738
-0.073765832
-0.23125077
-0.079166229
-0.24181294
-0.084811492
-0.25292565
-0.090703887
-0.26462227
-0.096847592
-0.27693634
-0.10324638
-0.28990463
-0.10990491
-0.30356524
-0.11682872
-0.31795786
-0.12402454
-0.33312398
-0.13149927
-0.34910859
-0.13926099
-0.36595832
-0.14731866
-0.38372212
-0.15568161
-0.40245298
-0.16436001
-0.42220677
-0.17336503
-0.44304193
-0.18270788
-0.46502196
-0.19240094
-0.48821321
-0.20245606
-0.51268775
-0.21288717
-0.53852052
-0.22370709
-0.56579335
-0.23493021
-0.59459258
-0.24656999
-0.62501049
-0.25864143
-0.65714597
-0.27115879
-0.69110505
-0.28413661
-0.7270005
-0.2975903
-0.76495303
-0.31153377
-0.80509296
-0.32598167
-0.84755828
-0.34094811
-0.89249717
-0.35644638
-0.94006792
-0.37248868
-0.99044019
-0.38908698
-1.043794
-0.40625204
-1.1003229
-0.42399377
-1.1602334
-0.44231628
-1.2237441
-0.46122511
-1.2910891
-0.48072019
-1.362508
-0.50080144
-1.4382585
-0.52146498
-1.5186146
-0.54270257
-1.6038715
-0.56450951
-1.6943349
-0.58685161
-1.7903149
-0.60970675
-1.8921253
-0.63304752
-2.0001395
-0.65686027
-2.1147646
-2.2369546
-0.00015805685
-0.046318904
-0.00082298459
-0.055649447
-0.0012364063
-0.055742254
-0.0019306962
-0.059090042
-0.0024792406
-0.061800101
-0.0031991278
-0.064318844
-0.0039188518
-0.067587536
-0.004711085
-0.070425995
-0.0055815111
-0.073738335
-0.0065176276
-0.077018215
-0.0075431045
-0.080489785
-0.0086600376
-0.084084894
-0.0098798339
-0.0878267
-0.011212265
-0.091716203
-0.012667916
-0.0957597
-0.01425785
-0.099962867
-0.015993202
-0.10433255
-0.017885185
-0.10887611
-0.019944907
-0.11360195
-0.022183138
-0.11851949
-0.024609953
-0.12363926
-0.027235233
-0.12897281
-0.030068115
-0.1345334
-0.033116062
-0.14033517
-0.036386536
-0.14639383
-0.039885437
-0.15272689
-0.043617569
-0.15935241
-0.047587206
-0.16629081
-0.051797434
-0.17356311
-0.056250556
-0.18119197
-0.060948303
-0.18920137
-0.06589274
-0.19761551
-0.071085307
-0.20646155
-0.076527757
-0.21576547
-0.082222571
-0.22555658
-0.088172428
-0.23586379
-0.094380801
-0.24671807
-0.10085279
-0.25815118
-0.10759281
-0.27019733
-0.11460792
-0.28289064
-0.12190505
-0.29626936
-0.12949355
-0.31037074
-0.1373819
-0.32523716
-0.14558093
-0.34091126
-0.15410265
-0.35743847
-0.16295877
-0.37486808
-0.17216298
-0.39325106
-0.18172979
-0.41264248
-0.19167394
-0.43310057
-0.20201181
-0.45468715
-0.21275974
-0.47746866
-0.22393606
-0.50151515
-0.23555828
-0.5269024
-0.24764563
-0.55371051
-0.26021831
-0.58202486
-0.27329659
-0.61193766
-0.28690141
-0.64354716
-0.30105539
-0.67695767
-0.31578087
-0.71228228
-0.33110058
-0.7496413
-0.34703854
-0.78916376
-0.36361927
-0.83098717
-0.38086718
-0.87525979
-0.39880657
-0.92214009
-0.41746336
-0.97179608
-0.43686226
-1.024409
-0.45702814
-1.0801722
-0.47798576
-1.1392924
-0.49975788
-1.2019901
-0.52236969
-1.2684969
-0.54583974
-1.3390589
-0.57018469
-1.4139355
-0.59542405
-1.4933977
-0.62158129
-1.5777367
-0.64866768
-1.6672703
-0.67668651
-1.762316
-0.70563565
-1.8631915
-0.73551399
-1.9702683
-0.76632338
-2.0839537
-2.2054152
-0.00015009925
-0.046168639
-0.00087592562
-0.054923496
-0.0013083706
-0.055309667
-0.0020465569
-0.058351723
-0.002646139
-0.061200383
-0.0034127486
-0.063552098
-0.0042064555
-0.066793696
-0.0050683267
-0.069563986
-0.0060275407
-0.072778991
-0.0070661627
-0.07597946
-0.0082099402
-0.079345885
-0.0094645434
-0.082830168
-0.010842879
-0.086448255
-0.01235676
-0.090202216
-0.014018575
-0.094097796
-0.01584065
-0.098140711
-0.017835294
-0.10233784
-0.020014363
-0.10669699
-0.022389348
-0.11122694
-0.024970949
-0.11593788
-0.027769168
-0.12084107
-0.030792621
-0.12594941
-0.034048871
-0.13127724
-0.037544647
-0.13683952
-0.0412846
-0.14265404
-0.045273024
-0.14873867
-0.04951208
-0.15511361
-0.054003902
-0.16179929
-0.058749888
-0.16881748
-0.063750731
-0.17619154
-0.069007684
-0.18394489
-0.074521595
-0.19210213
-0.080294623
-0.20068912
-0.086328962
-0.20973181
-0.092628464
-0.21925783
-0.099197068
-0.22929603
-0.10604101
-0.23987506
-0.1131665
-0.25102672
-0.12058253
-0.26278244
-0.12829758
-0.27517684
-0.13632337
-0.28824496
-0.14467052
-0.30202511
-0.15335276
-0.31655659
-0.16238455
-0.3318813
-0.17178073
-0.34804431
-0.18155791
-0.36509312
-0.19173368
-0.38307771
-0.20232662
-0.40205222
-0.21335664
-0.42207347