/*--------------------------------*- C++ -*----------------------------------*\
  =========                 |
  \\      /  F ield         | OpenFOAM: The Open Source CFD Toolbox
   \\    /   O peration     | Website:  https://openfoam.org
    \\  /    A nd           | Version:  12
     \\/     M anipulation  |
\*---------------------------------------------------------------------------*/
FoamFile
{
    format      ascii;
    class       volScalarField;
    location    "0.068";
    object      alphat;
}
// * * * * * * * * * * * * * * * * * * * * * * * * * * * * * * * * * * * * * //

dimensions      [1 -1 -1 0 0 0 0];

internalField   nonuniform List<scalar> 
16000
(
4.8240059e-07
1.0751815e-05
2.0280767e-05
2.5481923e-05
1.9553293e-05
2.6875757e-05
1.9015518e-05
2.6046712e-05
2.0358171e-05
2.8052711e-05
2.3648889e-05
2.7779777e-05
2.5359901e-05
2.6048778e-05
2.5192324e-05
2.5069195e-05
2.4829066e-05
2.4779872e-05
2.4815051e-05
2.4956912e-05
2.5197595e-05
2.5536832e-05
2.5972263e-05
2.6504273e-05
2.7135516e-05
2.7872842e-05
2.8725282e-05
2.9707148e-05
3.0835863e-05
3.2130215e-05
3.3610814e-05
3.5304966e-05
3.7247893e-05
3.9483015e-05
4.2063788e-05
4.505404e-05
4.8529885e-05
5.2582161e-05
5.7323361e-05
6.2893e-05
6.9455075e-05
7.7202977e-05
8.6380711e-05
9.7287641e-05
0.00011028061
0.00012578791
0.00014434062
0.00016658576
0.00019331062
0.00022547376
0.00026424691
0.00031106433
0.00036767361
0.00043620691
0.00051926514
0.0006200313
0.00074240654
0.00089118457
0.0010722842
0.0011779955
0.0011790764
0.0011800915
0.0011810684
0.0011819613
0.0011827687
0.0011834677
0.001184026
0.0011843951
0.0011845076
0.0011842823
0.0011836505
0.001182596
0.0011811441
0.0011793186
0.0011776142
0.0011765896
0.0011762138
0.0011767474
0.0011742917
0.0011713468
4.3437324e-07
1.0168269e-05
2.1170388e-05
2.284319e-05
1.7611126e-05
2.4055614e-05
1.6862474e-05
2.2785187e-05
1.7976517e-05
2.4760676e-05
2.1398613e-05
2.5029388e-05
2.3175507e-05
2.3589314e-05
2.2925786e-05
2.274862e-05
2.2552318e-05
2.2498307e-05
2.2534494e-05
2.2665529e-05
2.2888903e-05
2.3203991e-05
2.3609099e-05
2.4104705e-05
2.4692927e-05
2.5380209e-05
2.6174426e-05
2.7088506e-05
2.8138945e-05
2.9344071e-05
3.0723095e-05
3.2301002e-05
3.4110416e-05
3.6191562e-05
3.8594475e-05
4.1379186e-05
4.4617753e-05
4.8395565e-05
5.2817444e-05
5.801548e-05
6.4147265e-05
7.1394922e-05
7.998825e-05
9.0212621e-05
0.00010241067
0.00011698938
0.00013445503
0.00015542655
0.00018065867
0.0002110709
0.00024778762
0.00029218894
0.00034595858
0.00041115393
0.00049028618
0.00058643183
0.0007033659
0.00084571906
0.0010191873
0.0011771347
0.0011782238
0.0011791885
0.001180124
0.0011809758
0.0011817421
0.0011823993
0.0011829137
0.0011832367
0.0011833027
0.0011830334
0.0011823633
0.0011812877
0.0011798626
0.0011781319
0.0011765946
0.0011755816
0.0011755127
0.0011762586
0.0011737236
0.0011712715
3.8593803e-07
9.710049e-06
1.9960137e-05
2.0922249e-05
1.575135e-05
2.1159107e-05
1.5001473e-05
1.9792375e-05
1.61518e-05
2.1719724e-05
1.9501201e-05
2.2283431e-05
2.0985525e-05
2.1120648e-05
2.0613765e-05
2.0413157e-05
2.0250358e-05
2.0201149e-05
2.0239598e-05
2.0363782e-05
2.0572598e-05
2.0865795e-05
2.1242002e-05
2.1701967e-05
2.2247368e-05
2.2884413e-05
2.3620151e-05
2.44663e-05
2.5438228e-05
2.6553783e-05
2.7831206e-05
2.9293622e-05
3.0971484e-05
3.2902241e-05
3.5132874e-05
3.7719906e-05
4.0731787e-05
4.4249607e-05
4.8371732e-05
5.3222827e-05
5.8955207e-05
6.5742284e-05
7.3801655e-05
8.3405589e-05
9.4885314e-05
0.00010863047
0.00012512656
0.00014496905
0.00016888583
0.00019776501
0.00023269218
0.00027500335
0.00032633045
0.00038867151
0.00046446753
0.00055671213
0.00066908473
0.00080610382
0.00097331762
0.0011764734
0.0011775613
0.0011784592
0.0011793331
0.0011801244
0.0011808307
0.0011814279
0.0011818805
0.0011821385
0.0011821369
0.0011818012
0.0011810721
0.0011799559
0.0011785401
0.001176895
0.0011755187
0.0011746296
0.0011746842
0.0011754975
0.0011731816
0.0011708628
3.4815004e-07
9.3694679e-06
1.8952451e-05
1.9183769e-05
1.4129931e-05
1.8670905e-05
1.3356008e-05
1.7290416e-05
1.4526481e-05
1.9139197e-05
1.7791815e-05
1.9851971e-05
1.8965585e-05
1.889773e-05
1.850752e-05
1.8305334e-05
1.8171931e-05
1.8132977e-05
1.8176732e-05
1.8298032e-05
1.8496359e-05
1.877189e-05
1.9123591e-05
1.9552601e-05
2.0060297e-05
2.0652792e-05
2.1336586e-05
2.2122434e-05
2.3024643e-05
2.4060663e-05
2.5248096e-05
2.6608488e-05
2.8170528e-05
2.9969289e-05
3.204917e-05
3.4463676e-05
3.7278138e-05
4.0570279e-05
4.4433324e-05
4.8985033e-05
5.4373647e-05
6.0765938e-05
6.8369661e-05
7.7445394e-05
8.8316016e-05
0.00010135772
0.00011703949
0.00013593847
0.0001587617
0.00018637406
0.00021983136
0.00026043695
0.00030978451
0.00036982971
0.00044296416
0.00053212324
0.00064091952
0.00077379678
0.00093621243
0.0011348526
0.0011771053
0.0011779188
0.001178711
0.0011794227
0.0011800509
0.0011805711
0.0011809465
0.0011811254
0.0011810422
0.0011806265
0.0011798276
0.0011786615
0.0011772445
0.0011756886
0.0011744586
0.0011736944
0.0011738241
0.001174615
0.0011727538
0.0011705642
3.1018476e-07
9.1109099e-06
1.8040498e-05
1.9168923e-05
1.3847344e-05
1.6499473e-05
1.1911339e-05
1.5142559e-05
1.3131026e-05
1.6908908e-05
1.6271963e-05
1.766113e-05
1.7081456e-05
1.6876385e-05
1.6572579e-05
1.638413e-05
1.6275353e-05
1.6247761e-05
1.6295997e-05
1.6414175e-05
1.6601965e-05
1.6860152e-05
1.7188082e-05
1.7587411e-05
1.8059391e-05
1.8610121e-05
1.9245716e-05
1.9976181e-05
2.0814776e-05
2.1778515e-05
2.2884578e-05
2.41532e-05
2.5611612e-05
2.7292835e-05
2.9239048e-05
3.1501129e-05
3.4141625e-05
3.7235522e-05
4.0872182e-05
4.51628e-05
5.0252162e-05
5.6302039e-05
6.3512465e-05
7.2133041e-05
8.248025e-05
9.4919766e-05
0.00010990688
0.00012800364
0.00014989974
0.00017644183
0.00020866114
0.00024783469
0.00029552505
0.00035365412
0.00042457466
0.00051117574
0.00061701714
0.00074648508
0.00090496884
0.0010990671
0.0011768407
0.0011775542
0.0011782462
0.0011788606
0.0011793934
0.0011798203
0.0011801031
0.0011801886
0.0011800098
0.0011794992
0.0011786183
0.0011773953
0.0011759653
0.0011745118
0.0011734196
0.0011727644
0.0011729128
0.0011736443
0.0011723167
0.0011700319
2.8689798e-07
8.9508395e-06
1.7284579e-05
1.8978674e-05
1.3720869e-05
1.4605205e-05
1.1061374e-05
1.3364841e-05
1.1959879e-05
1.5015712e-05
1.4939683e-05
1.5738286e-05
1.5363035e-05
1.5077926e-05
1.4829296e-05
1.4657339e-05
1.4564718e-05
1.4544293e-05
1.459327e-05
1.4706032e-05
1.4882204e-05
1.5123118e-05
1.5428347e-05
1.579995e-05
1.6239242e-05
1.6752214e-05
1.7344693e-05
1.8026097e-05
1.8808678e-05
1.9708982e-05
2.0743958e-05
2.1932781e-05
2.3301534e-05
2.4881529e-05
2.6713134e-05
2.8845052e-05
3.133748e-05
3.426323e-05
3.7709187e-05
4.178089e-05
4.6619982e-05
5.2384943e-05
5.9270809e-05
6.7517255e-05
7.7436518e-05
8.9387171e-05
0.0001038142
0.00012126871
0.00014242718
0.00016812445
0.00019937379
0.00023743431
0.00028384713
0.00034051181
0.00040975685
0.00049444203
0.00059809413
0.00072506624
0.00088071404
0.0010715937
0.0011767554
0.0011773543
0.0011779293
0.0011784302
0.001178852
0.0011791703
0.0011793462
0.001179325
0.0011790391
0.0011784225
0.0011774494
0.0011761671
0.0011747129
0.0011733856
0.0011724179
0.0011718458
0.0011719885
0.0011727139
0.0011718698
0.0011693898
2.6072783e-07
8.8601556e-06
1.6705397e-05
1.801165e-05
1.3582386e-05
1.2902008e-05
1.1219506e-05
1.22572e-05
1.1720678e-05
1.3422094e-05
1.3749246e-05
1.4044748e-05
1.3777403e-05
1.3456893e-05
1.3239322e-05
1.3083461e-05
1.300224e-05
1.298724e-05
1.3036198e-05
1.31441e-05
1.3310218e-05
1.3536352e-05
1.3822045e-05
1.4085706e-05
1.4486648e-05
1.4958161e-05
1.5505353e-05
1.6136847e-05
1.6863681e-05
1.7701567e-05
1.8667186e-05
1.9778683e-05
2.106108e-05
2.2544062e-05
2.4266314e-05
2.6274549e-05
2.8626759e-05
3.1393625e-05
3.4660403e-05
3.8819211e-05
4.3455332e-05
4.8990583e-05
5.5617772e-05
6.3568051e-05
7.3150641e-05
8.4720342e-05
9.8715112e-05
0.00011567884
0.00013627835
0.00016134254
0.00019187262
0.00022911724
0.00027460447
0.0003302214
0.0003982846
0.0004816395
0.00058379686
0.00070909679
0.00086288906
0.0010517255
0.0011768325
0.0011773035
0.0011777471
0.0011781204
0.0011784173
0.0011786137
0.0011786696
0.00117853
0.0011781279
0.001177399
0.0011763265
0.0011749855
0.001173506
0.0011723282
0.0011714675
0.0011709515
0.0011710647
0.0011717793
0.0011713782
0.0011686846
2.3373815e-07
8.8085435e-06
1.6218458e-05
1.6413452e-05
1.2608269e-05
1.1246116e-05
9.8133267e-06
1.0991393e-05
1.0373985e-05
1.205271e-05
1.2562456e-05
1.2497252e-05
1.2271764e-05
1.1958139e-05
1.1764951e-05
1.1629245e-05
1.156149e-05
1.1554663e-05
1.1535613e-05
1.162444e-05
1.1771528e-05
1.1977665e-05
1.2240666e-05
1.2560996e-05
1.2943488e-05
1.3391806e-05
1.391119e-05
1.4510175e-05
1.5199185e-05
1.5993443e-05
1.6909835e-05
1.7965951e-05
1.9186308e-05
2.059956e-05
2.2243406e-05
2.4163302e-05
2.6415911e-05
2.9070595e-05
3.2212013e-05
3.5943279e-05
4.0390149e-05
4.5711883e-05
5.210115e-05
6.0286735e-05
6.9625561e-05
8.0924162e-05
9.4617137e-05
0.00011124482
0.00013146807
0.00015611612
0.00018618432
0.00022291867
0.00026784334
0.00032284324
0.0003902362
0.00047286946
0.00057425621
0.00069874528
0.00085170884
0.0010397349
0.0011770514
0.0011773836
0.0011776839
0.0011779178
0.0011780783
0.0011781416
0.0011780671
0.0011777995
0.0011772745
0.0011764319
0.0011752583
0.0011738586
0.0011724111
0.001171356
0.0011705837
0.0011700999
0.0011701678
0.0011708515
0.0011708241
0.0011679894
2.1563399e-07
8.7580742e-06
1.5733296e-05
1.436279e-05
1.035736e-05
1.0000848e-05
8.0747035e-06
9.3691605e-06
9.5800924e-06
1.0856355e-05
1.1358034e-05
1.1060252e-05
1.0853227e-05
1.0571947e-05
1.0403605e-05
1.0218227e-05
1.0138983e-05
1.0125967e-05
1.0171219e-05
1.0272012e-05
1.0424078e-05
1.0629182e-05
1.088691e-05
1.1197274e-05
1.1565115e-05
1.1995002e-05
1.2492242e-05
1.3065404e-05
1.3724489e-05
1.4484223e-05
1.5361811e-05
1.6374552e-05
1.7546787e-05
1.890646e-05
2.0490671e-05
2.2344127e-05
2.4522701e-05
2.7095034e-05
3.0145058e-05
3.3774924e-05
3.8110675e-05
4.3309148e-05
4.9565934e-05
5.7107891e-05
6.6225939e-05
7.7282094e-05
9.1512834e-05
0.00010795883
0.00012798829
0.00015243678
0.00018230035
0.00021883025
0.00026355591
0.00031837054
0.00038560638
0.0004681291
0.0005694733
0.00069401797
0.00084718461
0.0010356368
0.0011773888
0.0011775734
0.0011777215
0.0011778073
0.0011778227
0.0011777444
0.0011775319
0.0011771298
0.0011764772
0.0011755226
0.0011742543
0.0011727851
0.0011714331
0.001170483
0.0011697811
0.0011693108
0.0011693246
0.0011699605
0.0011701195
0.0011673368
1.9816031e-07
8.7119851e-06
1.4134649e-05
1.2501723e-05
8.3752851e-06
8.8789928e-06
7.1556082e-06
8.4643334e-06
8.8751695e-06
9.7147435e-06
1.0163473e-05
9.7489861e-06
9.5482806e-06
9.2150972e-06
9.0357479e-06
8.9250979e-06
8.8801742e-06
8.8922644e-06
8.9553394e-06
9.065951e-06
9.2249243e-06
9.4301347e-06
9.684128e-06
9.9871522e-06
1.0344263e-05
1.0760465e-05
1.124122e-05
1.1795269e-05
1.2432359e-05
1.3166755e-05
1.4016055e-05
1.4997616e-05
1.6135859e-05
1.7458332e-05
1.9001904e-05
2.0810988e-05
2.2941163e-05
2.5460955e-05
2.845461e-05
3.2024694e-05
3.6297268e-05
4.14286e-05
4.7617682e-05
5.5091218e-05
6.4142362e-05
7.5134947e-05
8.8517542e-05
0.00010481638
0.00012583897
0.00015030698
0.00018022707
0.00021686347
0.00026176082
0.00031683162
0.00038443633
0.00046747652
0.00056952868
0.0006950247
0.00084946215
0.0010396182
0.0011778189
0.0011778498
0.0011778403
0.0011777723
0.0011776369
0.0011774117
0.0011770569
0.0011765178
0.0011757358
0.0011746695
0.0011733207
0.0011717825
0.0011705782
0.0011697173
0.0011690715
0.0011686035
0.0011685544
0.001169119
0.0011693517
0.0011667311
1.8283423e-07
8.6638329e-06
1.121401e-05
1.0415009e-05
6.8670707e-06
7.9087431e-06
6.5248929e-06
7.6119961e-06
8.3045586e-06
8.6792692e-06
8.9935302e-06
8.4654333e-06
8.213992e-06
7.9843659e-06
7.8534867e-06
7.7826781e-06
7.7671308e-06
7.8005107e-06
7.8794389e-06
8.0015671e-06
8.1647901e-06
8.3718218e-06
8.6244855e-06
8.9234847e-06
9.2739746e-06
9.6814342e-06
1.0151619e-05
1.0693515e-05
1.1316832e-05
1.2035469e-05
1.2801038e-05
1.3752769e-05
1.4859161e-05
1.6147347e-05
1.7653955e-05
1.9423148e-05
2.1510295e-05
2.3983875e-05
2.6928594e-05
3.0447753e-05
3.4668593e-05
4.0060946e-05
4.6247852e-05
5.3731813e-05
6.2808391e-05
7.3844625e-05
8.7301015e-05
0.00010371516
0.00012376457
0.00014829293
0.00017996433
0.00021702348
0.00026247054
0.0003182489
0.00038676166
0.000470965
0.00057449923
0.00070187364
0.00085868871
0.0010518704
0.001178315
0.0011781888
0.0011780197
0.0011777958
0.0011775071
0.0011771326
0.0011766342
0.0011759591
0.0011750504
0.0011738714
0.0011724546
0.0011709417
0.0011698471
0.0011690628
0.001168463
0.0011679942
0.0011678752
0.0011683036
0.001168399
0.0011661352
1.6941342e-07
8.6188176e-06
8.8391272e-06
8.8318599e-06
6.033301e-06
7.0175302e-06
5.9964406e-06
6.8670266e-06
7.7287073e-06
7.7151886e-06
7.7265122e-06
7.2773681e-06
7.0729381e-06
6.9056093e-06
6.8158329e-06
6.7781544e-06
6.7877976e-06
6.8408404e-06
6.9332348e-06
7.0652763e-06
7.2356374e-06
7.4463528e-06
7.7004167e-06
7.9990419e-06
8.3474775e-06
8.7135609e-06
9.171545e-06
9.7006291e-06
1.0310388e-05
1.1014252e-05
1.1828388e-05
1.2773847e-05
1.3874362e-05
1.5157178e-05
1.6659317e-05
1.8425449e-05
2.0511678e-05
2.2987444e-05
2.5939204e-05
2.9472493e-05
3.3717586e-05
3.8837281e-05
4.5031012e-05
5.2537791e-05
6.1657842e-05
7.3397201e-05
8.7058073e-05
0.00010374131
0.00012413517
0.00014910773
0.00017971752
0.00021931324
0.00026569716
0.00032264681
0.00039262294
0.00047865648
0.00058447563
0.00071469416
0.00087504362
0.0010726299
0.00117885
0.0011785661
0.0011782388
0.0011778603
0.0011774194
0.0011768965
0.0011762558
0.0011754478
0.0011744201
0.0011731362
0.0011716407
0.0011702461
0.0011692413
0.0011685205
0.0011679595
0.0011674907
0.0011673002
0.0011675874
0.0011675492
0.0011655272
1.574637e-07
8.5673952e-06
7.0269996e-06
7.7616444e-06
5.3809129e-06
6.2165069e-06
5.5457998e-06
6.2109454e-06
7.0425606e-06
6.6200129e-06
6.5848332e-06
6.2398991e-06
6.0786505e-06
5.9616711e-06
5.9071385e-06
5.8981392e-06
5.930251e-06
6.0010221e-06
6.1075731e-06
6.2505541e-06
6.4293914e-06
6.6464168e-06
6.8754498e-06
7.1710854e-06
7.5162617e-06
7.9157881e-06
8.3777457e-06
8.9107801e-06
9.5247224e-06
1.0233253e-05
1.1052736e-05
1.2003999e-05
1.3112224e-05
1.4405099e-05
1.592033e-05
1.7703514e-05
1.9812101e-05
2.231707e-05
2.5307439e-05
2.8892142e-05
3.3204734e-05
3.8411634e-05
4.4722451e-05
5.2382049e-05
6.1699759e-05
7.3060232e-05
8.6941175e-05
0.00010391953
0.00012580362
0.00015144298
0.00018288668
0.00022148024
0.00027144434
0.00033004208
0.00040205377
0.00049060682
0.00059954386
0.00073361315
0.00089870963
0.0011021459
0.0011793982
0.0011789582
0.0011784773
0.0011779487
0.0011773599
0.0011766926
0.0011759139
0.0011749773
0.001173839
0.0011724766
0.0011709334
0.001169688
0.0011687604
0.0011680907
0.0011675628
0.0011670981
0.0011668359
0.0011669601
0.0011667967
0.0011650434
1.4687907e-07
8.5066539e-06
5.6386127e-06
6.7901563e-06
4.8035345e-06
5.50718e-06
5.1638538e-06
5.5418599e-06
6.1770526e-06
5.6700591e-06
5.5840052e-06
5.3332597e-06
5.2127491e-06
5.1379496e-06
5.1148446e-06
5.1318646e-06
5.1851908e-06
5.2734922e-06
5.3946572e-06
5.5287611e-06
5.7115972e-06
5.9326313e-06
6.1945509e-06
6.500814e-06
6.8563601e-06
7.2664317e-06
7.7390323e-06
8.283535e-06
8.9100376e-06
9.6324294e-06
1.0467242e-05
1.1435597e-05
1.2506083e-05
1.3810311e-05
1.5339856e-05
1.7141218e-05
1.9273435e-05
2.1809104e-05
2.4839867e-05
2.8478659e-05
3.2863488e-05
3.8455868e-05
4.4944387e-05
5.283022e-05
6.2433104e-05
7.4148294e-05
8.8475822e-05
0.00010601732
0.0001275087
0.00015527452
0.00018782362
0.00022778849
0.00027687785
0.00034043598
0.00041507232
0.00050685577
0.00061977371
0.00075874165
0.00092985721
0.0011406673
0.0011799355
0.0011793434
0.001178716
0.0011780448
0.0011773153
0.0011765104
0.0011756012
0.0011745443
0.0011733015
0.0011718833
0.001170399
0.0011692616
0.0011684031
0.0011677732
0.0011672721
0.001166815
0.0011664876
0.001166453
0.0011662161
0.0011647765
1.3751466e-07
8.3822359e-06
4.5828994e-06
5.9278321e-06
4.288815e-06
4.8768539e-06
4.8318327e-06
4.8120738e-06
5.3038604e-06
4.8234334e-06
4.7172031e-06
4.5442498e-06
4.4626686e-06
4.4245338e-06
4.4302206e-06
4.4715598e-06
4.5454686e-06
4.6326378e-06
4.7631124e-06
4.9276456e-06
5.1273591e-06
5.3640961e-06
5.6413096e-06
5.9626767e-06
6.3337819e-06
6.7601675e-06
7.2499231e-06
7.789153e-06
8.4292644e-06
9.1663462e-06
1.0017008e-05
1.1002431e-05
1.2148508e-05
1.3487785e-05
1.5059072e-05
1.6910441e-05
1.9103671e-05
2.1714148e-05
2.483722e-05
2.8591615e-05
3.3121728e-05
3.8609487e-05
4.5274757e-05
5.338821e-05
6.3283138e-05
7.6002403e-05
9.0902103e-05
0.00010915548
0.00013153362
0.00015898616
0.00019449114
0.00023615537
0.00028734667
0.00035025242
0.00043166664
0.00052741063
0.00064519937
0.00079015174
0.00096861549
0.0011811883
0.0011804403
0.0011797024
0.0011789376
0.0011781335
0.0011772734
0.0011763399
0.0011753099
0.0011741472
0.0011728149
0.001171332
0.0011700084
0.0011689651
0.0011681672
0.0011675688
0.0011670877
0.0011666388
0.0011662589
0.0011660908
0.0011658398
0.001164632
1.292885e-07
8.0513207e-06
3.8596968e-06
5.1638376e-06
3.8319172e-06
4.3195527e-06
4.3018594e-06
4.1517016e-06
4.4625229e-06
4.0755582e-06
3.9750557e-06
3.86434e-06
3.8194695e-06
3.8139422e-06
3.8462534e-06
3.8960061e-06
3.9830588e-06
4.1029403e-06
4.2549479e-06
4.4395046e-06
4.6584085e-06
4.9140691e-06
5.2104067e-06
5.5514154e-06
5.9294005e-06
6.3731398e-06
6.8809635e-06
7.4622326e-06
8.1287211e-06
8.8944479e-06
9.7764836e-06
1.079691e-05
1.1982731e-05
1.3367788e-05
1.4993648e-05
1.6910217e-05
1.9182679e-05
2.1890073e-05
2.5131775e-05
2.9033726e-05
3.374621e-05
3.9460456e-05
4.6410822e-05
5.4880184e-05
6.5220733e-05
7.786415e-05
9.4170332e-05
0.00011328477
0.00013672588
0.0001655007
0.00020081917
0.00024651728
0.00030020636
0.00036619786
0.00044731227
0.00055222258
0.00067579321
0.00082784761
0.0010150337
0.0011817651
0.0011808934
0.0011800193
0.0011791268
0.001178201
0.0011772228
0.0011761729
0.0011750327
0.0011737781
0.0011723927
0.0011709322
0.0011697467
0.0011687918
0.0011680493
0.0011674791
0.0011670137
0.0011665719
0.0011661543
0.0011658778
0.001165626
0.0011647685
1.2228816e-07
7.6434029e-06
3.4039861e-06
4.4869163e-06
3.4269373e-06
3.6651584e-06
3.8347097e-06
3.5466264e-06
3.701684e-06
3.426503e-06
3.3476911e-06
3.2863848e-06
3.27515e-06
3.2991031e-06
3.3391471e-06
3.420771e-06
3.5340309e-06
3.6777676e-06
3.8522429e-06
4.0586635e-06
4.29942e-06
4.5772189e-06
4.8867932e-06
5.248288e-06
5.6607249e-06
6.1306839e-06
6.6660715e-06
7.2765952e-06
7.9742824e-06
8.7740716e-06
9.6936044e-06
1.0755945e-05
1.1989376e-05
1.3429497e-05
1.5055376e-05
1.7033764e-05
1.9381525e-05
2.218197e-05
2.5692998e-05
2.977205e-05
3.4703537e-05
4.0687989e-05
4.7975645e-05
5.6864807e-05
6.7725848e-05
8.1016814e-05
9.7298908e-05
0.00011725985
0.00014300985
0.000173314
0.0002105231
0.00025622752
0.00031534211
0.00038489854
0.00047040596
0.0005811573
0.00071143097
0.00087172914
0.0010690428
0.0011822696
0.0011812798
0.001180282
0.0011792717
0.0011782353
0.0011771528
0.0011760023
0.0011747667
0.0011734324
0.0011720036
0.0011706793
0.001169603
0.0011687319
0.001168043
0.0011675039
0.0011670563
0.0011666225
0.0011661822
0.0011658396
0.0011656139
0.0011650698
1.1679767e-07
6.5682031e-06
3.0166532e-06
3.8728611e-06
3.0783829e-06
3.0602875e-06
3.3694953e-06
2.9988092e-06
3.0482988e-06
2.8724499e-06
2.8228787e-06
2.8020168e-06
2.8130032e-06
2.8559843e-06
2.9344842e-06
3.0441738e-06
3.1830794e-06
3.3511243e-06
3.5493761e-06
3.7795077e-06
4.0382902e-06
4.3386152e-06
4.6805657e-06
5.0688387e-06
5.5090427e-06
6.0079821e-06
6.5739353e-06
7.2170002e-06
7.9496001e-06
8.7678185e-06
9.7230614e-06
1.082479e-05
1.21025e-05
1.3593142e-05
1.5342912e-05
1.7409545e-05
1.9864378e-05
2.2796674e-05
2.6317122e-05
3.0562381e-05
3.5702021e-05
4.2247129e-05
4.9918889e-05
5.9286257e-05
7.0739243e-05
8.4762183e-05
0.00010194998
0.00012303391
0.00015027867
0.00018230561
0.00022164469
0.0002699757
0.00033257051
0.00040614909
0.00049662714
0.00060790687
0.00075184983
0.00092154385
0.0011304232
0.0011826878
0.0011815907
0.0011804826
0.0011793648
0.0011782276
0.001177054
0.0011758199
0.0011745071
0.0011731214
0.0011717137
0.0011705422
0.0011695671
0.0011687727
0.0011681377
0.0011676365
0.0011672163
0.0011667989
0.0011663527
0.0011659779
0.0011657849
0.0011654982
1.1237057e-07
4.6258654e-06
2.6658256e-06
3.3040852e-06
2.6335101e-06
2.5533222e-06
2.8793614e-06
2.5110352e-06
2.5043643e-06
2.4062309e-06
2.3895583e-06
2.3960078e-06
2.4378829e-06
2.5150466e-06
2.6231492e-06
2.7596869e-06
2.9239846e-06
3.1166845e-06
3.3361696e-06
3.5895646e-06
3.878019e-06
4.2048295e-06
4.5740064e-06
4.9904297e-06
5.4599881e-06
5.9897807e-06
6.5884286e-06
7.2553675e-06
8.0214218e-06
8.8949623e-06
9.895968e-06
1.1049248e-05
1.2386067e-05
1.3945678e-05
1.5777274e-05
1.794213e-05
2.0516367e-05
2.3594639e-05
2.7294639e-05
3.1762305e-05
3.7178342e-05
4.3765367e-05
5.2184092e-05
6.207917e-05
7.4185558e-05
8.901631e-05
0.00010720223
0.00012952026
0.00015692696
0.0001923095
0.00023399158
0.0002852182
0.00034819728
0.00042964133
0.00052561919
0.00064370278
0.00079660189
0.00097682171
0.0011842332
0.001183015
0.0011818211
0.0011806174
0.0011794038
0.0011781749
0.0011769199
0.0011756187
0.0011742485
0.0011728268
0.0011715612
0.0011705046
0.0011696242
0.0011689
0.0011683188
0.0011678621
0.0011674792
0.0011670887
0.0011666566
0.0011662875
0.0011661322
0.0011660338
1.0772384e-07
3.8447561e-06
2.2998584e-06
2.7797523e-06
2.2706659e-06
2.1296962e-06
2.3722358e-06
2.0829627e-06
2.06232e-06
2.0239296e-06
2.035992e-06
2.0768123e-06
2.1546381e-06
2.2625565e-06
2.397963e-06
2.5599078e-06
2.7486905e-06
2.9632603e-06
3.2092725e-06
3.4879756e-06
3.8022886e-06
4.155754e-06
4.5526145e-06
4.9979429e-06
5.4978382e-06
6.0596685e-06
6.6848406e-06
7.3961639e-06
8.2020544e-06
9.1192806e-06
1.0168938e-05
1.1377356e-05
1.2777641e-05
1.4411405e-05
1.6331e-05
1.8601941e-05
2.1305517e-05
2.4542405e-05
2.8437744e-05
3.3146095e-05
3.8859191e-05
4.6145768e-05
5.4704534e-05
6.5165817e-05
7.7973474e-05
9.3671216e-05
0.00011292815
0.00013656844
0.00016714182
0.0002031069
0.00024730338
0.00030164273
0.00036847632
0.00045494131
0.00055688185
0.00068237223
0.00084499809
0.0010367967
0.0011845377
0.0011832492
0.0011819704
0.0011806865
0.0011793916
0.0011780812
0.0011767508
0.0011753929
0.0011740022
0.0011726285
0.001171507
0.0011705556
0.001169759
0.0011690995
0.001168571
0.0011681606
0.0011678167
0.0011674562
0.0011670543
0.0011667344
0.0011666486
0.0011666585
1.0461578e-07
3.0977875e-06
1.9837962e-06
2.2475565e-06
1.9735143e-06
1.7672896e-06
1.9010215e-06
1.7201712e-06
1.7155093e-06
1.7252951e-06
1.767235e-06
1.8458775e-06
1.9545821e-06
2.0894025e-06
2.2492919e-06
2.4344901e-06
2.6448512e-06
2.8840651e-06
3.1539142e-06
3.4570711e-06
3.79674e-06
4.1766742e-06
4.6012783e-06
5.0757716e-06
5.606421e-06
6.1965222e-06
6.8618008e-06
7.6108629e-06
8.4577424e-06
9.4200538e-06
1.052016e-05
1.1785994e-05
1.325271e-05
1.4964426e-05
1.6976606e-05
1.935897e-05
2.2198622e-05
2.5602409e-05
2.9703692e-05
3.4666533e-05
4.0962136e-05
4.8364498e-05
5.7400714e-05
6.8453828e-05
8.1993091e-05
9.8596082e-05
0.00011897265
0.000143998
0.00017632513
0.00021441333
0.0002612434
0.00031884897
0.00038974108
0.00048145075
0.00058971213
0.00072309329
0.00089605466
0.0011003183
0.0011847492
0.0011833934
0.0011820429
0.0011806923
0.0011793326
0.0011779567
0.0011765606
0.0011751482
0.0011737493
0.0011725513
0.0011715366
0.00117068
0.0011699576
0.0011693577
0.0011688797
0.0011685128
0.001168203
0.0011678712
0.0011675147
0.0011672784
0.0011672904
0.0011673893
1.0336223e-07
2.4446932e-06
1.7107328e-06
1.7362076e-06
1.6995894e-06
1.4571591e-06
1.5164602e-06
1.4314233e-06
1.4576216e-06
1.502083e-06
1.582584e-06
1.6916596e-06
1.8257853e-06
1.9833706e-06
2.1646645e-06
2.3707997e-06
2.6026833e-06
2.8638334e-06
3.1563187e-06
3.4830752e-06
3.8474784e-06
4.2534235e-06
4.7054389e-06
5.2088645e-06
5.7700977e-06
6.3969286e-06
7.0989727e-06
7.8881926e-06
8.7693631e-06
9.7772399e-06
1.0928462e-05
1.2252672e-05
1.3787216e-05
1.5578961e-05
1.7686545e-05
2.0265692e-05
2.3267067e-05
2.6868381e-05
3.1211985e-05
3.6473382e-05
4.2868615e-05
5.0663228e-05
6.0185145e-05
7.1837857e-05
8.6118138e-05
0.00010363807
0.00012515054
0.00015290749
0.00018563988
0.00022588418
0.00027539263
0.00033632978
0.00041526718
0.00050840372
0.00062319403
0.00076477917
0.00094845457
0.0011658388
0.0011848796
0.0011834626
0.0011820498
0.0011806419
0.0011792307
0.0011778079
0.001176368
0.0011749313
0.0011736333
0.0011725529
0.0011716394
0.0011708642
0.0011702063
0.0011696617
0.001169231
0.0011689026
0.0011686213
0.0011683192
0.0011680214
0.0011678881
0.0011680038
0.0011681565
1.0500914e-07
1.8849183e-06
1.4832048e-06
1.3441444e-06
1.4209552e-06
1.1971052e-06
1.2351581e-06
1.2202324e-06
1.2790819e-06
1.3577525e-06
1.4667645e-06
1.5992567e-06
1.7538629e-06
1.9306668e-06
2.1308431e-06
2.3560971e-06
2.6081453e-06
2.8899995e-06
3.2041465e-06
3.5536559e-06
3.942006e-06
4.3731856e-06
4.8518263e-06
5.3833901e-06
5.9744296e-06
6.6329387e-06
7.3688214e-06
8.1944757e-06
9.1255199e-06
1.0181711e-05
1.1388024e-05
1.2776089e-05
1.4385751e-05
1.6267096e-05
1.8482799e-05
2.1111009e-05
2.4248926e-05
2.8017428e-05
3.2566025e-05
3.807972e-05
4.4786931e-05
5.2968553e-05
6.2968022e-05
7.5210774e-05
9.0219388e-05
0.00010953773
0.0001323312
0.00016033599
0.00019476796
0.00023712995
0.00028927805
0.00035682786
0.0004365697
0.00053488889
0.00065621865
0.00081390977
0.0010005219
0.0011864553
0.0011849483
0.0011834759
0.0011820101
0.0011805509
0.0011790937
0.0011776364
0.0011761828
0.0011747676
0.0011736084
0.0011726234
0.0011717959
0.0011710964
0.0011704917
0.0011699985
0.0011696111
0.0011693155
0.0011690579
0.0011687858
0.0011685501
0.0011685152
0.0011687228
0.0011689037
1.1070508e-07
1.4253441e-06
1.2987794e-06
1.0578933e-06
1.2683386e-06
9.8093758e-07
1.0443646e-06
1.0808349e-06
1.1665161e-06
1.2727378e-06
1.4027042e-06
1.5533172e-06
1.7249105e-06
1.9185773e-06
2.1359904e-06
2.3791208e-06
2.6502151e-06
2.9515974e-06
3.2863326e-06
3.6574581e-06
4.068528e-06
4.5236173e-06
5.0274627e-06
5.5856594e-06
6.2049314e-06
6.8934976e-06
7.661563e-06
8.5219894e-06
9.4910305e-06
1.058934e-05
1.1843052e-05
1.3285351e-05
1.495808e-05
1.6913868e-05
1.9218589e-05
2.1954418e-05
2.5223465e-05
2.9152273e-05
3.3897305e-05
3.9651727e-05
4.6972489e-05
5.5585525e-05
6.6113033e-05
7.9002897e-05
9.480589e-05
0.00011420092
0.0001380257
0.00016731456
0.00020334185
0.00025000595
0.00030504484
0.00037286706
0.0004565142
0.00055977635
0.00069409014
0.00085311956
0.0010500268
0.0011865158
0.0011849705
0.0011834522
0.0011819442
0.0011804432
0.0011789437
0.0011774467
0.0011759835
0.0011747157
0.0011736491
0.0011727474
0.0011719846
0.001171357
0.0011708016
0.0011703539
0.0011700042
0.0011697346
0.0011694967
0.0011692557
0.0011690802
0.0011691252
0.0011693978
0.0011695876
1.2110383e-07
1.1331106e-06
1.1401438e-06
9.1799792e-07
9.2951592e-07
8.5837684e-07
9.1894131e-07
9.9723196e-07
1.1036529e-06
1.2293617e-06
1.3751111e-06
1.5406534e-06
1.7271656e-06
1.9361413e-06
2.1694068e-06
2.429004e-06
2.7172171e-06
3.0365925e-06
3.3899842e-06
3.7806074e-06
4.2121163e-06
4.6887094e-06
5.2152775e-06
5.7976136e-06
6.4427037e-06
7.1565376e-06
7.9534559e-06
8.8451321e-06
9.8573144e-06
1.0997637e-05
1.2299543e-05
1.3797905e-05
1.553666e-05
1.7570998e-05
1.9969948e-05
2.2819507e-05
2.6226461e-05
3.0323069e-05
3.5272773e-05
4.12773e-05
4.8585392e-05
5.7503623e-05
6.8409556e-05
8.1766177e-05
9.8146359e-05
0.00011825585
0.00014423895
0.00017486189
0.00021253649
0.00025892666
0.00031609675
0.00038661741
0.00047369331
0.00058685649
0.00072104201
0.00088730027
0.0010936082
0.0011865473
0.0011849669
0.0011834091
0.0011818653
0.0011803333
0.0011788116
0.0011773085
0.0011758824
0.0011747217
0.0011737418
0.0011729193
0.0011722199
0.0011716185
0.0011711218
0.0011707131
0.0011703935
0.0011701429
0.0011699206
0.0011697092
0.0011695857
0.0011696854
0.0011699908
0.0011701799
1.4250767e-07
1.1681225e-06
9.8238321e-07
7.0119236e-07
7.5972656e-07
7.6739293e-07
8.4985542e-07
9.5084931e-07
1.073655e-06
1.2140722e-06
1.3731977e-06
1.5519276e-06
1.7517341e-06
1.974227e-06
2.2212627e-06
2.4949112e-06
2.7974896e-06
3.1315929e-06
3.5001362e-06
3.9064077e-06
4.3541409e-06
4.8476177e-06
5.3918153e-06
5.9926173e-06
6.6571124e-06
7.3940025e-06
8.2141444e-06
9.131241e-06
1.0162718e-05
1.1330768e-05
1.2663606e-05
1.4197041e-05
1.5976251e-05
1.8058006e-05
2.0513291e-05
2.3430504e-05
2.6919369e-05
3.1115676e-05
3.6187127e-05
4.2340522e-05
4.9830772e-05
5.9394627e-05
7.0661105e-05
8.4457512e-05
0.00010137631
0.00012214758
0.00014767427
0.00017907432
0.00021773383
0.00026537238
0.00032413467
0.00040035797
0.00049070986
0.00060252441
0.00074112037
0.00091321038
0.0011272729
0.0011865836
0.0011849715
0.0011833779
0.0011817985
0.0011802306
0.0011786782
0.0011771732
0.0011758682
0.0011747751
0.0011738584
0.001173093
0.0011724641
0.0011718949
0.001171434
0.0011710583
0.001170761
0.0011705232
0.0011703132
0.0011701273
0.0011700409
0.0011701647
0.0011704683
0.0011706583
1.3593739e-07
7.7981094e-07
8.0643573e-07
5.9804391e-07
6.5423754e-07
7.1405349e-07
8.1507408e-07
9.3274736e-07
1.0685456e-06
1.2214641e-06
1.3927173e-06
1.5834851e-06
1.7952721e-06
2.0297551e-06
2.288831e-06
2.574627e-06
2.8895283e-06
3.2361664e-06
3.6175962e-06
4.0371663e-06
4.498696e-06
5.0065545e-06
5.5658086e-06
6.182436e-06
6.8636294e-06
7.6182129e-06
8.457195e-06
9.3944823e-06
1.0456349e-05
1.1652062e-05
1.3016341e-05
1.4585942e-05
1.6407177e-05
1.8538188e-05
2.1051614e-05
2.4037874e-05
2.7609139e-05
3.1904215e-05
3.7094551e-05
4.3391622e-05
5.1056026e-05
6.0408629e-05
7.1844345e-05
8.5851396e-05
0.00010303164
0.00012412933
0.00015006584
0.00018358083
0.00022318632
0.0002720065
0.00033225739
0.00040670882
0.00049883872
0.00061302902
0.00075482035
0.00093124263
0.0011512246
0.0011866622
0.0011850213
0.0011833974
0.0011817905
0.0011801993
0.001178632
0.0011771335
0.001175916
0.001174883
0.0011740142
0.001173284
0.0011726729
0.001172153
0.0011717269
0.0011713698