/*--------------------------------*- C++ -*----------------------------------*\
  =========                 |
  \\      /  F ield         | OpenFOAM: The Open Source CFD Toolbox
   \\    /   O peration     | Website:  https://openfoam.org
    \\  /    A nd           | Version:  12
     \\/     M anipulation  |
\*---------------------------------------------------------------------------*/
FoamFile
{
    format      ascii;
    class       volScalarField;
    location    "0.068";
    object      nut;
}
// * * * * * * * * * * * * * * * * * * * * * * * * * * * * * * * * * * * * * //

dimensions      [0 2 -1 0 0 0 0];

internalField   nonuniform List<scalar> 
16000
(
4.576971e-07
9.868597e-06
1.9022594e-05
2.3438741e-05
1.807486e-05
2.4767087e-05
1.7538369e-05
2.3983162e-05
1.8741829e-05
2.5796004e-05
2.1733354e-05
2.5505566e-05
2.3265169e-05
2.3875205e-05
2.3069108e-05
2.2934212e-05
2.2691951e-05
2.2623634e-05
2.2631592e-05
2.2735885e-05
2.2929033e-05
2.3210469e-05
2.3577721e-05
2.4030798e-05
2.4571759e-05
2.5206429e-05
2.5942561e-05
2.6792619e-05
2.7771789e-05
2.889639e-05
3.0184274e-05
3.165919e-05
3.3351829e-05
3.5300029e-05
3.7550364e-05
4.0158381e-05
4.3190239e-05
4.6724804e-05
5.0859714e-05
5.5716004e-05
6.1435712e-05
6.8186085e-05
7.6178147e-05
8.5670611e-05
9.6971473e-05
0.00011045005
0.00012656413
0.00014587109
0.00016904866
0.00019692146
0.00023049692
0.00027100752
0.00031995418
0.0003791673
0.00045087872
0.00053781888
0.00064333311
0.00077153111
0.00092748634
0.001018296
0.0010184517
0.0010185997
0.001018764
0.001018905
0.0010190209
0.0010190918
0.0010190886
0.0010189684
0.0010186711
0.0010181243
0.0010172669
0.0010160823
0.0010145881
0.0010128008
0.0010111578
0.0010101532
0.0010096178
0.0010107508
0.0010075031
0.0010078387
4.1242587e-07
9.3577021e-06
1.9716512e-05
2.1102942e-05
1.6330104e-05
2.222645e-05
1.5597072e-05
2.1034487e-05
1.6594326e-05
2.2827583e-05
1.9716003e-05
2.3037245e-05
2.1312331e-05
2.167112e-05
2.1040522e-05
2.0856023e-05
2.0653708e-05
2.058119e-05
2.0590472e-05
2.0685502e-05
2.0863676e-05
2.1124103e-05
2.1464915e-05
2.1886205e-05
2.2389547e-05
2.298041e-05
2.3665517e-05
2.4456105e-05
2.5366555e-05
2.6412805e-05
2.7611482e-05
2.8984293e-05
3.0559651e-05
3.2372598e-05
3.4466721e-05
3.689426e-05
3.9717851e-05
4.3011613e-05
4.6866486e-05
5.139706e-05
5.6739853e-05
6.3052316e-05
7.0533135e-05
7.9428934e-05
9.0035495e-05
0.00010270371
0.00011787001
0.00013606754
0.00015794604
0.00018429653
0.00021608574
0.00025449974
0.00030098471
0.00035730706
0.00042562183
0.00050856828
0.00060938395
0.00073203919
0.00088141681
0.0010174207
0.0010176024
0.0010177255
0.0010178723
0.0010179953
0.0010180923
0.0010181424
0.0010181152
0.0010179673
0.0010176402
0.001017064
0.0010161802
0.0010149824
0.0010135155
0.0010118163
0.0010103217
0.0010092936
0.0010091879
0.0010101997
0.0010073098
0.0010077279
3.6745673e-07
8.957967e-06
1.8640688e-05
1.9376796e-05
1.4644348e-05
1.9599655e-05
1.3910467e-05
1.831638e-05
1.4944868e-05
2.007036e-05
1.800731e-05
2.0553872e-05
1.9337985e-05
1.9441491e-05
1.8954267e-05
1.8748469e-05
1.8577138e-05
1.8509525e-05
1.8521548e-05
1.8611144e-05
1.8777003e-05
1.9018581e-05
1.9334305e-05
1.9724526e-05
2.0190427e-05
2.0737278e-05
2.1371073e-05
2.2101979e-05
2.2943389e-05
2.3910838e-05
2.5020116e-05
2.6291296e-05
2.7750886e-05
2.9431492e-05
3.1374028e-05
3.3627666e-05
3.6251895e-05
3.9317091e-05
4.2908544e-05
4.7134362e-05
5.2126507e-05
5.803486e-05
6.5047486e-05
7.3399645e-05
8.3377289e-05
9.5316318e-05
0.00010963519
0.00012684682
0.00014757779
0.00017259213
0.00020282322
0.00023941929
0.00028378218
0.00033762746
0.00040305015
0.00048261871
0.00057948922
0.00069753661
0.00084151781
0.0010166019
0.0010168127
0.0010169075
0.0010170294
0.0010171273
0.0010171983
0.0010172205
0.001017162
0.0010169779
0.0010166099
0.0010159914
0.0010150695
0.0010138472
0.0010123979
0.0010107823
0.0010094272
0.001008517
0.0010085784
0.0010094774
0.0010070945
0.0010073556
3.319959e-07
8.6629988e-06
1.7749245e-05
1.7804944e-05
1.3168547e-05
1.7332953e-05
1.2412089e-05
1.6034413e-05
1.3468309e-05
1.7720068e-05
1.6459326e-05
1.834353e-05
1.750592e-05
1.7422901e-05
1.7042928e-05
1.6835932e-05
1.6691949e-05
1.6634254e-05
1.6651772e-05
1.6739473e-05
1.689659e-05
1.7122981e-05
1.7417385e-05
1.7780521e-05
1.8213307e-05
1.8720945e-05
1.9308943e-05
1.9986621e-05
2.0766434e-05
2.1663586e-05
2.2693316e-05
2.3874304e-05
2.5231509e-05
2.679544e-05
2.8604739e-05
3.0705925e-05
3.3155756e-05
3.6021657e-05
3.9384408e-05
4.3346057e-05
4.8035022e-05
5.3595401e-05
6.0206664e-05
6.8093875e-05
7.753576e-05
8.8856553e-05
0.00010246036
0.00011884424
0.00013861675
0.00016252189
0.00019146742
0.00022657347
0.00026920905
0.00032105344
0.00038415943
0.00046104579
0.0005548117
0.00066926872
0.00080909679
0.00098002831
0.0010160681
0.0010161306
0.001016221
0.0010162874
0.001016326
0.0010163147
0.0010162202
0.0010159959
0.0010155829
0.0010149181
0.0010139562
0.0010127091
0.0010112755
0.0010097513
0.0010085314
0.0010077536
0.0010079064
0.001008717
0.0010069193
0.0010071352
2.9744566e-07
8.439824e-06
1.6933992e-05
1.7826851e-05
1.2932592e-05
1.5345491e-05
1.1090232e-05
1.4066789e-05
1.2194752e-05
1.5679583e-05
1.5075315e-05
1.6341475e-05
1.5786652e-05
1.5577308e-05
1.52771e-05
1.5083097e-05
1.4962208e-05
1.4915509e-05
1.4937786e-05
1.5023353e-05
1.5171621e-05
1.5383014e-05
1.5656632e-05
1.5993671e-05
1.6394951e-05
1.6865669e-05
1.7411004e-05
1.8039608e-05
1.8763012e-05
1.9596042e-05
2.0553576e-05
2.1653134e-05
2.2918389e-05
2.4378028e-05
2.6068734e-05
2.8034702e-05
3.0330233e-05
3.302034e-05
3.6182403e-05
3.9912676e-05
4.433655e-05
4.9593738e-05
5.5856942e-05
6.3341605e-05
7.232087e-05
8.3109794e-05
9.6100554e-05
0.00011177708
0.00013073288
0.00015369619
0.0001815535
0.00021540228
0.00025658474
0.0003067512
0.00036792119
0.00044257399
0.00053376389
0.00064525365
0.00078166565
0.00094865826
0.001015371
0.0010153981
0.0010154506
0.0010154791
0.001015479
0.0010154281
0.001015292
0.0010150224
0.0010145594
0.0010138424
0.0010128367
0.0010115655
0.0010101436
0.0010087272
0.0010076431
0.0010069889
0.0010071778
0.0010079049
0.0010067225
0.0010067304
2.7588832e-07
8.3041473e-06
1.6254368e-05
1.7677309e-05
1.2835745e-05
1.3603354e-05
1.0313726e-05
1.2431533e-05
1.1120558e-05
1.3939503e-05
1.3854781e-05
1.457539e-05
1.4209594e-05
1.392667e-05
1.3677725e-05
1.3499396e-05
1.3393917e-05
1.3354405e-05
1.3378011e-05
1.34593e-05
1.3597653e-05
1.3794002e-05
1.4047665e-05
1.4360217e-05
1.4732543e-05
1.5169755e-05
1.5676782e-05
1.6261754e-05
1.6935302e-05
1.7711841e-05
1.8606052e-05
1.9634512e-05
2.081987e-05
2.2189296e-05
2.3777853e-05
2.5627803e-05
2.7791353e-05
3.0331584e-05
3.332367e-05
3.6858855e-05
4.1059729e-05
4.606309e-05
5.203722e-05
5.918881e-05
6.7787235e-05
7.8141306e-05
9.0634155e-05
0.00010574011
0.00012404115
0.00014625521
0.00017325317
0.00020611694
0.00024617022
0.00029504408
0.0003547373
0.00042770416
0.00051697093
0.00062627241
0.00076020288
0.00092438534
0.0010147152
0.0010147036
0.0010147125
0.0010146975
0.0010146529
0.0010145565
0.0010143731
0.0010140535
0.0010135372
0.001012765
0.0010117133
0.0010104222
0.0010090083
0.0010077257
0.0010067731
0.0010062245
0.0010064301
0.0010071374
0.0010065059
0.0010062437
2.4975859e-07
8.2293466e-06
1.573228e-05
1.6795295e-05
1.2721276e-05
1.2028985e-05
1.0471178e-05
1.1410674e-05
1.090614e-05
1.2468128e-05
1.2757463e-05
1.3012497e-05
1.2746828e-05
1.2431659e-05
1.221188e-05
1.2048944e-05
1.1954542e-05
1.1920625e-05
1.1944835e-05
1.2022301e-05
1.2152087e-05
1.2335563e-05
1.2572029e-05
1.2787133e-05
1.3125368e-05
1.3525721e-05
1.3992473e-05
1.4533037e-05
1.5156955e-05
1.5877892e-05
1.6710291e-05
1.7669811e-05
1.8778151e-05
2.0061023e-05
2.1551984e-05
2.3291513e-05
2.5329844e-05
2.7728145e-05
3.0560122e-05
3.4169226e-05
3.8187807e-05
4.2984795e-05
4.8726436e-05
5.5611868e-05
6.3907703e-05
7.3919355e-05
8.6023703e-05
0.00010068866
0.00011848768
0.00014013338
0.00016648604
0.00019861838
0.00023784272
0.00028577928
0.0003444166
0.00041619671
0.00050413226
0.00061194726
0.00074423152
0.00090660523
0.001014097
0.0010140436
0.001014004
0.0010139402
0.0010138458
0.0010136987
0.0010134627
0.0010130886
0.0010125168
0.0010116898
0.0010105917
0.0010092866
0.0010078852
0.0010067613
0.0010059317
0.0010054699
0.0010056734
0.0010063651
0.0010062406
0.0010057027
2.2476289e-07
8.1877583e-06
1.5290019e-05
1.531584e-05
1.1818575e-05
1.0491231e-05
9.1640665e-06
1.0236134e-05
9.6564603e-06
1.1198607e-05
1.16572e-05
1.1578229e-05
1.1351641e-05
1.1043412e-05
1.0846702e-05
1.0702943e-05
1.0621535e-05
1.0595727e-05
1.0558286e-05
1.061902e-05
1.073215e-05
1.0898107e-05
1.1114615e-05
1.1381816e-05
1.1703801e-05
1.2083579e-05
1.2525556e-05
1.3037076e-05
1.3627128e-05
1.4308935e-05
1.509712e-05
1.6006843e-05
1.7059335e-05
1.8279376e-05
1.9699617e-05
2.1359387e-05
2.3307699e-05
2.5604502e-05
2.832291e-05
3.1551909e-05
3.5399948e-05
4.000437e-05
4.5531189e-05
5.2613713e-05
6.0686658e-05
7.0450042e-05
8.2277631e-05
9.6634037e-05
0.00011408729
0.00013535005
0.00016127729
0.00019293919
0.00023164445
0.00027901124
0.00033702904
0.00040814141
0.00049536312
0.00060242584
0.00073393904
0.00089555479
0.0010135108
0.0010134126
0.0010133205
0.0010132037
0.0010130549
0.0010128524
0.0010125597
0.0010121276
0.0010114991
0.0010106207
0.0010094796
0.001008165
0.0010068297
0.0010058462
0.0010051293
0.0010047371
0.0010049254
0.0010055934
0.0010059023
0.0010051563
2.0774185e-07
8.1445729e-06
1.4843331e-05
1.3406095e-05
9.7130344e-06
9.332217e-06
7.5420015e-06
8.7265866e-06
8.9162168e-06
1.0084509e-05
1.0535031e-05
1.0240996e-05
1.0031965e-05
9.7543467e-06
9.5812113e-06
9.392496e-06
9.3013427e-06
9.2706772e-06
9.2928957e-06
9.3652164e-06
9.4834695e-06
9.6489969e-06
9.861151e-06
1.0119679e-05
1.0428689e-05
1.0792016e-05
1.1214138e-05
1.1702423e-05
1.226548e-05
1.2916077e-05
1.3669108e-05
1.453946e-05
1.5548182e-05
1.6719395e-05
1.8085175e-05
1.9684139e-05
2.1564535e-05
2.3785603e-05
2.6419725e-05
2.9554939e-05
3.3299825e-05
3.7789456e-05
4.3192229e-05
4.9703237e-05
5.757273e-05
6.7112038e-05
7.9390351e-05
9.3570263e-05
0.00011083378
0.0001318987
0.00015762026
0.00018907282
0.00022756928
0.00027473466
0.00033257059
0.00040353626
0.00049066479
0.00059771373
0.00072933516
0.00089124665
0.0010129507
0.0010128052
0.0010126576
0.0010124844
0.0010122776
0.0010120163
0.0010116641
0.001011172
0.0010104862
0.0010095612
0.001008386
0.001007056
0.0010058444
0.00100499
0.001004375
0.0010040376
0.0010042026
0.0010048485
0.0010054209
0.0010046165
1.9079521e-07
8.1026896e-06
1.3340032e-05
1.1668304e-05
7.8548124e-06
8.2829582e-06
6.681329e-06
7.8800973e-06
8.2546223e-06
9.0167838e-06
9.4174793e-06
9.0161633e-06
8.813587e-06
8.4890732e-06
8.3067794e-06
8.1877541e-06
8.1289276e-06
8.1219905e-06
8.1611422e-06
8.2429728e-06
8.367978e-06
8.5339759e-06
8.7430271e-06
8.9951083e-06
9.2945259e-06
9.6455115e-06
1.0052683e-05
1.052356e-05
1.1066515e-05
1.1693885e-05
1.2420891e-05
1.3262452e-05
1.4239649e-05
1.5376214e-05
1.6703963e-05
1.8261186e-05
2.0095793e-05
2.2266825e-05
2.4846829e-05
2.7924074e-05
3.1607009e-05
3.603004e-05
4.1364315e-05
4.7804599e-05
5.560283e-05
6.5071625e-05
7.6596316e-05
9.0628696e-05
0.00010872689
0.00012978109
0.00015551997
0.00018702862
0.00022563261
0.00027297315
0.00033107576
0.00040243017
0.00049010521
0.00059790378
0.00073054335
0.00089383943
0.0010124109
0.0010122158
0.0010120106
0.0010117788
0.0010115116
0.0010111891
0.001010776
0.0010102241
0.0010094818
0.0010085126
0.0010073174
0.0010059754
0.0010049335
0.0010041975
0.001003675
0.0010033813
0.0010035148
0.0010041328
0.0010048566
0.0010040736
1.7607433e-07
8.055484e-06
1.058265e-05
9.7179951e-06
6.4376953e-06
7.3739341e-06
6.0871359e-06
7.0793158e-06
7.7140498e-06
8.0441159e-06
8.3194429e-06
7.81439e-06
7.5660461e-06
7.338251e-06
7.2015567e-06
7.1199968e-06
7.0888472e-06
7.102025e-06
7.1561784e-06
7.2489272e-06
7.3781286e-06
7.5460111e-06
7.7539862e-06
8.0024579e-06
8.2958214e-06
8.6387345e-06
9.0360769e-06
9.4955739e-06
1.0025553e-05
1.0638e-05
1.1289908e-05
1.2103799e-05
1.3051283e-05
1.415568e-05
1.5448531e-05
1.6967836e-05
1.8761231e-05
2.0887612e-05
2.3419805e-05
2.6446585e-05
3.0077265e-05
3.4717812e-05
4.0039705e-05
4.6476762e-05
5.4282725e-05
6.3772672e-05
7.5341887e-05
8.945164e-05
0.00010668329
0.00012776076
0.00015497493
0.00018680947
0.00022584344
0.00027374406
0.000332573
0.00040486645
0.0004937477
0.00060308583
0.00073768656
0.00090349356
0.0010118856
0.0010116389
0.0010113753
0.0010110837
0.0010107549
0.00101037
0.0010098957
0.0010092858
0.0010084904
0.001007477
0.001006273
0.0010050009
0.0010040968
0.0010034699
0.0010030316
0.0010027756
0.0010028715
0.0010034202
0.0010040961
0.001003486
1.6306263e-07
8.0072993e-06
8.3363121e-06
8.2334626e-06
5.6500183e-06
6.534431e-06
5.5856283e-06
6.3757423e-06
7.1649695e-06
7.1351377e-06
7.1300436e-06
6.69981e-06
6.4960251e-06
6.3267236e-06
6.2287213e-06
6.1783235e-06
6.1708725e-06
6.2025238e-06
6.2693585e-06
6.3714153e-06
6.5072792e-06
6.6785731e-06
6.8877723e-06
7.1357512e-06
7.4269847e-06
7.7327238e-06
8.1187327e-06
8.5662161e-06
9.0833629e-06
9.6817177e-06
1.0375176e-05
1.1181847e-05
1.2122113e-05
1.3219342e-05
1.4505346e-05
1.6018487e-05
1.780694e-05
1.9930319e-05
2.2462836e-05
2.5495046e-05
2.9138718e-05
3.353352e-05
3.8850518e-05
4.5294684e-05
5.31235e-05
6.3201965e-05
7.4927274e-05
8.9245618e-05
0.00010674717
0.00012817637
0.00015444094
0.00018841573
0.0002282097
0.00027706565
0.00033709414
0.00041089496
0.00050166632
0.00061336661
0.00075091381
0.00092040614
0.0010113693
0.0010110695
0.0010107475
0.0010103963
0.0010100058
0.0010095586
0.0010090236
0.0010083578
0.0010075155
0.0010064645
0.0010052418
0.0010041183
0.0010033348
0.001002806
0.001002444
0.001002222
0.0010022807
0.0010027619
0.0010033723
0.0010028294
1.5140537e-07
7.9493156e-06
6.61966e-06
7.2247407e-06
5.0305784e-06
5.7775766e-06
5.1543807e-06
5.7527785e-06
6.5109602e-06
6.1041386e-06
6.0566407e-06
5.7243249e-06
5.5614652e-06
5.4394608e-06
5.3745989e-06
5.3511086e-06
5.3646947e-06
5.4128842e-06
5.4928499e-06
5.6049677e-06
5.7485242e-06
5.9254171e-06
6.1121917e-06
6.3572821e-06
6.6452593e-06
6.9801777e-06
7.3689603e-06
7.8189945e-06
8.3386792e-06
8.9397499e-06
9.6362388e-06
1.0446015e-05
1.1390673e-05
1.2493919e-05
1.3788081e-05
1.5312238e-05
1.711563e-05
1.9259084e-05
2.1818881e-05
2.4888355e-05
2.8581926e-05
3.3042172e-05
3.844869e-05
4.5011242e-05
5.2994858e-05
6.2729116e-05
7.4623349e-05
8.9171926e-05
0.00010792552
0.00012989616
0.00015684101
0.00018991338
0.00023273173
0.00028294916
0.00034466451
0.00042055967
0.0005139304
0.00062884988
0.00077037591
0.00094478389
0.0010108575
0.0010105029
0.0010101238
0.0010097141
0.001009263
0.0010087546
0.0010081605
0.0010074404
0.0010065564
0.0010054891
0.0010042738
0.0010033215
0.0010026468
0.0010022037
0.0010019095
0.0010017204
0.0010017433
0.0010021402
0.0010026665
0.0010022066
1.4100377e-07
7.8785909e-06
5.3025809e-06
6.3070455e-06
4.4800676e-06
5.1049471e-06
4.7849153e-06
5.1165741e-06
5.6901632e-06
5.2079148e-06
5.1143984e-06
4.8703631e-06
4.7460127e-06
4.6635691e-06
4.6281407e-06
4.6289166e-06
4.6621897e-06
4.7265302e-06
4.8198357e-06
4.9241758e-06
5.0713263e-06
5.2516826e-06
5.4674485e-06
5.7215068e-06
6.0180384e-06
6.3614793e-06
6.7586695e-06
7.2176192e-06
7.7469449e-06
8.3585337e-06
9.0665291e-06
9.8890107e-06
1.0798655e-05
1.1908935e-05
1.3212213e-05
1.4748267e-05
1.6567604e-05
1.8732326e-05
2.1320836e-05
2.4429753e-05
2.8177149e-05
3.2958323e-05
3.8506e-05
4.524948e-05
5.3462435e-05
6.3483222e-05
7.5739937e-05
9.074773e-05
0.0001091368
0.00013289724
0.00016075357
0.00019496008
0.00023698085
0.00029139249
0.00035529612
0.00043389063
0.00053059506
0.00064962529
0.0007962123
0.00097683208
0.0010103461
0.0010099355
0.0010095009
0.0010090349
0.0010085253
0.0010079577
0.0010073073
0.0010065368
0.0010056132
0.0010045449
0.0010034254
0.0010026065
0.001002031
0.0010016612
0.0010014242
0.0010012661
0.0010012605
0.0010015735
0.0010020323
0.0010016875
1.3172244e-07
7.7446963e-06
4.2993977e-06
5.4904767e-06
3.9872641e-06
4.5052316e-06
4.4597522e-06
4.4244056e-06
4.8633202e-06
4.4084283e-06
4.2974781e-06
4.1261861e-06
4.0384465e-06
3.9902445e-06
3.9815927e-06
4.0048393e-06
4.0569818e-06
4.1206338e-06
4.2224064e-06
4.3538557e-06
4.5158023e-06
4.7097154e-06
4.9384841e-06
5.2051917e-06
5.5145834e-06
5.871357e-06
6.2824144e-06
6.7356301e-06
7.2753778e-06
7.8980923e-06
8.6179536e-06
9.4530493e-06
1.0425488e-05
1.1563061e-05
1.2898903e-05
1.4474058e-05
1.6341286e-05
1.856497e-05
2.1226551e-05
2.4427458e-05
2.8291066e-05
3.2972847e-05
3.8660733e-05
4.5586134e-05
5.4034053e-05
6.4895537e-05
7.7621618e-05
9.3215173e-05
0.00011233609
0.00013579722
0.0001661447
0.00020176442
0.0002455371
0.00029933649
0.00036897543
0.00045089023
0.00055168506
0.00067574909
0.00082852676
0.0010103093
0.0010098318
0.0010093646
0.0010088763
0.0010083568
0.0010077921
0.0010071679
0.0010064647
0.0010056516
0.0010046967
0.0010036149
0.0010026738
0.0010019727
0.0010014855
0.0010011771
0.0010009856
0.0010008552
0.0010008323
0.001001074
0.0010014872
0.0010011842
1.2348657e-07
7.4165242e-06
3.6093044e-06
4.7656068e-06
3.5479349e-06
3.9731152e-06
3.9509532e-06
3.7972425e-06
4.068261e-06
3.7018895e-06
3.5973878e-06
3.4841249e-06
3.4306724e-06
3.412708e-06
3.4285715e-06
3.4598518e-06
3.5240384e-06
3.6169312e-06
3.7377232e-06
3.8866292e-06
4.0650904e-06
4.2750919e-06
4.5199398e-06
4.8030023e-06
5.1175627e-06
5.4884091e-06
5.9139891e-06
6.402276e-06
6.9633037e-06
7.6090181e-06
8.3539658e-06
9.2169665e-06
1.0221033e-05
1.1395005e-05
1.2774307e-05
1.4401481e-05
1.6332096e-05
1.8633551e-05
2.1390603e-05
2.471069e-05
2.8722062e-05
3.3587945e-05
3.9508439e-05
4.6725157e-05
5.5538985e-05
6.6318825e-05
8.0224718e-05
9.6530912e-05
0.00011653351
0.00014109391
0.00017124741
0.00021027027
0.00025613131
0.00031251515
0.00038183743
0.00047151347
0.00057717277
0.0007072199
0.00086735509
0.0010098291
0.001009311
0.0010087882
0.0010082479
0.001007678
0.0010070628
0.0010063864
0.0010056336
0.0010047839
0.0010038232
0.0010027987
0.001002009
0.0010014161
0.0010010076
0.0010007517
0.0010005956
0.0010004891
0.0010004606
0.0010006382
0.0010009907
0.0010008368
1.1637899e-07
7.0151465e-06
3.170074e-06
4.1222172e-06
3.1565748e-06
3.3527928e-06
3.5000561e-06
3.2225017e-06
3.3504539e-06
3.0885503e-06
3.0049967e-06
2.9376084e-06
2.915293e-06
2.9243732e-06
2.9476964e-06
3.0075994e-06
3.0950535e-06
3.208862e-06
3.3491114e-06
3.5167379e-06
3.7137212e-06
3.9423236e-06
4.1979682e-06
4.4979331e-06
4.8413099e-06
5.2336931e-06
5.6818083e-06
6.1939153e-06
6.7802476e-06
7.4535136e-06
8.2287203e-06
9.1254856e-06
1.0167865e-05
1.1386141e-05
1.2762702e-05
1.4439085e-05
1.6429812e-05
1.8805821e-05
2.1786188e-05
2.5250597e-05
2.9440902e-05
3.4528086e-05
4.0725577e-05
4.8287938e-05
5.7531323e-05
6.884684e-05
8.2713843e-05
9.9719931e-05
0.00012166367
0.00014749928
0.000179232
0.00021822219
0.00026866422
0.00032803947
0.00040105306
0.00049564323
0.00060694898
0.0007439482
0.00091263303
0.0010093434
0.0010087812
0.0010082061
0.0010076149
0.001006997
0.0010063363
0.0010056146
0.0010048184
0.0010039361
0.0010029707
0.0010020944
0.0010014261
0.0010009316
0.0010005942
0.0010003857
0.0010002603
0.0010001758
0.001000151
0.0010002839
0.0010005763
0.0010005508
1.1065213e-07
6.0020841e-06
2.79468e-06
3.537791e-06
2.8169945e-06
2.7802356e-06
3.0516649e-06
2.7024767e-06
2.7347474e-06
2.5649444e-06
2.5089232e-06
2.4787918e-06
2.4770703e-06
2.5035977e-06
2.561188e-06
2.6458089e-06
2.7555679e-06
2.8902727e-06
3.0507529e-06
3.2383804e-06
3.4503577e-06
3.6976864e-06
3.980402e-06
4.3024937e-06
4.6687285e-06
5.0848913e-06
5.5580184e-06
6.0966908e-06
6.7114614e-06
7.3991074e-06
8.2031135e-06
9.1315788e-06
1.0209547e-05
1.146839e-05
1.2947345e-05
1.4695462e-05
1.6773374e-05
1.9256978e-05
2.2240433e-05
2.5840046e-05
3.0200195e-05
3.5754575e-05
4.2268895e-05
5.022657e-05
5.9960266e-05
7.1883229e-05
8.6503237e-05
0.00010444467
0.0001276353
0.00015491045
0.00018842566
0.000229617
0.00028297906
0.00034573376
0.00042292878
0.00051790403
0.00064078762
0.00078571587
0.00096416955
0.0010088484
0.0010082433
0.0010076192
0.0010069785
0.0010063138
0.0010056116
0.0010048525
0.0010040216
0.0010031246
0.0010022046
0.001001482
0.0010009221
0.0010005141
0.0010002409
0.0010000778
0.00099998461
0.00099992515
0.00099991112
0.0010000105
0.0010002368
0.0010003058
1.0585443e-07
4.2032279e-06
2.4531737e-06
2.9965722e-06
2.3901781e-06
2.2998491e-06
2.5829507e-06
2.2401657e-06
2.2226581e-06
2.1243481e-06
2.0986897e-06
2.0936508e-06
2.1197438e-06
2.1765238e-06
2.2599647e-06
2.367736e-06
2.4991489e-06
2.6546852e-06
2.8329381e-06
3.0399516e-06
3.2766904e-06
3.5459545e-06
3.8511541e-06
4.1964391e-06
4.586815e-06
5.0283121e-06
5.528249e-06
6.086253e-06
6.7283006e-06
7.4615525e-06
8.3029401e-06
9.2734879e-06
1.0399694e-05
1.1714832e-05
1.3260616e-05
1.5089031e-05
1.7264691e-05
1.986798e-05
2.2998903e-05
2.678153e-05
3.1369571e-05
3.6952484e-05
4.4090312e-05
5.2485442e-05
6.276174e-05
7.5356653e-05
9.080824e-05
0.00010977946
0.00013308679
0.00016318645
0.000198665
0.00024228583
0.000295936
0.0003653359
0.00044716098
0.00054786978
0.00067830644
0.00083212101
0.0010089996
0.0010083453
0.001007698
0.00100703
0.0010063423
0.0010056314
0.0010048894
0.0010041001
0.001003245
0.0010023395
0.0010015617
0.0010009548
0.0010004923
0.0010001593
0.0009999433
0.00099982375
0.00099976522
0.00099973462
0.00099973613
0.0009998137
0.00099997505
0.0010001025
1.0076919e-07
3.4677637e-06
2.0988547e-06
2.4987935e-06
2.0399962e-06
1.8980568e-06
2.1032712e-06
1.8354572e-06
1.8065837e-06
1.7626344e-06
1.7631559e-06
1.7888288e-06
1.8464699e-06
1.9298703e-06
2.0366475e-06
2.1659052e-06
2.3178549e-06
2.4916065e-06
2.6919345e-06
2.9199091e-06
3.1780169e-06
3.469276e-06
3.7972979e-06
4.166396e-06
4.5817498e-06
5.0496106e-06
5.5712776e-06
6.1659065e-06
6.8406877e-06
7.6098094e-06
8.4911171e-06
9.5068851e-06
1.0685129e-05
1.2061068e-05
1.3679035e-05
1.5594539e-05
1.7876495e-05
2.0610316e-05
2.3902228e-05
2.7883518e-05
3.2717134e-05
3.8884147e-05
4.613334e-05
5.499878e-05
6.5858491e-05
7.9175772e-05
9.5521002e-05
0.000115597
0.00014156959
0.00017214218
0.00020972958
0.00025596411
0.00031285437
0.00038647786
0.00047332509
0.00058027796
0.00071891963
0.00088251156
0.0010085135
0.0010078347
0.0010071477
0.0010064415
0.0010057122
0.0010049573
0.0010041742
0.0010033576
0.0010025038
0.0010016568
0.0010010158
0.0010005112
0.0010001319
0.00099986379
0.00099969781
0.00099961742
0.00099959124
0.0009995883
0.00099960681
0.00099967705
0.00099980261
0.00099994319
9.7041353e-08
2.7691004e-06
1.7915731e-06
1.99835e-06
1.7507376e-06
1.5544661e-06
1.6614836e-06
1.4931415e-06
1.4794134e-06
1.4785858e-06
1.5057025e-06
1.5642811e-06
1.6484051e-06
1.7545959e-06
1.8819116e-06
2.030539e-06
2.200377e-06
2.3945379e-06
2.6145537e-06
2.8627077e-06
3.1417334e-06
3.454829e-06
3.8057419e-06
4.1989068e-06
4.6396399e-06
5.1308158e-06
5.6856212e-06
6.3113819e-06
7.0199581e-06
7.8262294e-06
8.7490811e-06
9.8121081e-06
1.1045013e-05
1.2485094e-05
1.4179262e-05
1.6186518e-05
1.858063e-05
2.1452162e-05
2.491422e-05
2.9106051e-05
3.4425462e-05
4.0685123e-05
4.8330898e-05
5.7688648e-05
6.9157795e-05
8.3230195e-05
0.00010051062
0.00012174498
0.000149185
0.00018153731
0.00022133484
0.00027031331
0.00033061657
0.00040865308
0.00050082546
0.00061443164
0.00076179256
0.00093591063
0.001008027
0.0010073189
0.0010065966
0.0010058571
0.0010050941
0.0010043028
0.0010034812
0.0010026338
0.0010017869
0.001001101
0.0010005607
0.0010001454
0.00099983688
0.00099962461
0.00099950164
0.00099945409
0.00099945417
0.00099947454
0.000999513
0.00099959128
0.00099970655
0.00099987576
9.4877626e-08
2.1607119e-06
1.5244838e-06
1.5224701e-06
1.4839875e-06
1.2608163e-06
1.3024257e-06
1.2203156e-06
1.2341922e-06
1.2639245e-06
1.3242803e-06
1.4087252e-06
1.5142005e-06
1.6393511e-06
1.7843984e-06
1.9503201e-06
2.1379256e-06
2.3501816e-06
2.5888724e-06
2.8565045e-06
3.1559561e-06
3.4905433e-06
3.8641162e-06
4.2812075e-06
4.7472391e-06
5.2688025e-06
5.8540231e-06
6.5129991e-06
7.2499314e-06
8.0938507e-06
9.0589107e-06
1.0170116e-05
1.1458983e-05
1.2965084e-05
1.4737969e-05
1.6908387e-05
1.9436373e-05
2.2471569e-05
2.6134616e-05
3.0574366e-05
3.5974183e-05
4.2559597e-05
5.0609275e-05
6.046629e-05
7.2553252e-05
8.7391109e-05
0.00010562094
0.00012915151
0.00015692061
0.00019108099
0.00023312693
0.00028490493
0.00035200052
0.00043121368
0.00052888684
0.00064941048
0.00080580931
0.00099100581
0.0010075473
0.0010068086
0.0010060529
0.0010052825
0.0010044916
0.0010036747
0.0010028284
0.0010019712
0.0010012196
0.0010006411
0.0010001929
0.00099985229
0.0009996026
0.00099943842
0.00099935206
0.00099933143
0.00099935214
0.000999392
0.00099945245
0.00099954973
0.00099967177
0.00099986222
9.5055029e-08
1.6418959e-06
1.2991295e-06
1.1581849e-06
1.216406e-06
1.0151357e-06
1.0390654e-06
1.0189152e-06
1.0611446e-06
1.1201688e-06
1.2045418e-06
1.3085074e-06
1.4309434e-06
1.5719592e-06
1.7325772e-06
1.9142643e-06
2.1185075e-06
2.3478554e-06
2.6044408e-06
2.8908818e-06
3.2101418e-06
3.565615e-06
3.9612364e-06
4.4016389e-06
4.8923707e-06
5.440189e-06
6.0534532e-06
6.7426158e-06
7.5208353e-06
8.404752e-06
9.4154023e-06
1.0579435e-05
1.1930439e-05
1.3510666e-05
1.5373028e-05
1.7583556e-05
2.0224445e-05
2.3397996e-05
2.7230843e-05
3.1879798e-05
3.7538609e-05
4.4445705e-05
5.2892801e-05
6.3241444e-05
7.5935979e-05
9.2282369e-05
0.00011158513
0.00013531519
0.00016450818
0.00020044461
0.00024470658
0.00030206187
0.00036981377
0.00045338932
0.0005565714
0.00069071698
0.00084955119
0.0010078613
0.0010070859
0.0010063163
0.0010055302
0.0010047292
0.0010039107
0.0010030745
0.0010022251
0.0010013934
0.0010007653
0.0010002722
0.00099990073
0.00099962727
0.00099942373
0.000999301
0.00099924572
0.00099924671
0.00099928296
0.00099933775
0.00099941697
0.00099953363
0.00099967144
0.00099987581
9.8368533e-08
1.2184997e-06
1.1126512e-06
8.9180536e-07
1.0602774e-06
8.1241109e-07
8.5834499e-07
8.8254803e-07
9.4750762e-07
1.0295695e-06
1.1313037e-06
1.2502261e-06
1.3866685e-06
1.5415915e-06
1.7164331e-06
1.912881e-06
2.1328551e-06
2.3783485e-06
2.6519637e-06
2.9562954e-06
3.2943708e-06
3.669656e-06
4.0861733e-06
4.5486651e-06
5.0628203e-06
5.6355798e-06
6.2755484e-06
6.9935573e-06
7.803285e-06
8.7221068e-06
9.7720137e-06
1.0980936e-05
1.2384117e-05
1.4025916e-05
1.5961904e-05
1.8261466e-05
2.1010898e-05
2.4317235e-05
2.8312931e-05
3.3161642e-05
3.9332226e-05
4.6598825e-05
5.548639e-05
6.6375374e-05
7.9733884e-05
9.6139212e-05
0.00011630402
0.00014110856
0.00017163784
0.00021119605
0.00025788822
0.00031545545
0.00038649057
0.00047422525
0.00058837874
0.00072361564
0.00089113172
0.0010074451
0.0010066503
0.0010058536
0.0010050422
0.0010042149
0.0010033684
0.0010025052
0.0010016532
0.0010009512
0.001000405
0.00099998467
0.00099966946
0.00099945819
0.00099929542
0.0009992069
0.00099917731
0.00099919479
0.00099924241
0.00099930894
0.00099940312
0.00099953505
0.0009996885
0.00099989677
1.0492937e-07
9.4626372e-07
9.5009439e-07
7.5351039e-07
7.5652733e-07
6.9300484e-07
7.3733245e-07
7.9645503e-07
8.7862879e-07
9.7676417e-07
1.0915128e-06
1.2227536e-06
1.3715137e-06
1.539082e-06
1.7270228e-06
1.9370831e-06
2.1712154e-06
2.4315941e-06
2.7206546e-06
3.0411373e-06
3.3961524e-06
3.7892685e-06
4.224635e-06
4.7071572e-06
5.2427389e-06
5.8365051e-06
6.5004288e-06
7.244376e-06
8.0898159e-06
9.0434602e-06
1.0133296e-05
1.1388652e-05
1.284651e-05
1.455336e-05
1.6567403e-05
1.8961214e-05
2.1824997e-05
2.5270573e-05
2.9436244e-05
3.4492845e-05
4.0651183e-05
4.8171255e-05
5.7373464e-05
6.8650959e-05
8.2490429e-05
9.9491751e-05
0.00012146788
0.00014739024
0.00017930098
0.00021861665
0.00026709531
0.00032692676
0.00040084164
0.00049693341
0.00061094522
0.00075226863
0.0009277062
0.0010070667
0.0010062519
0.0010054301
0.0010045959
0.0010037487
0.0010028888
0.0010020248
0.0010012075
0.0010005991
0.0010001283
0.00099977623
0.00099951518
0.000999325
0.00099920994
0.00099915012
0.00099914076
0.00099917058
0.00099922604
0.00099930086
0.00099940513
0.00099954633
0.00099971068
0.00099991186
1.1940616e-07
9.4745846e-07
7.9306893e-07
5.5908595e-07
6.0133757e-07
6.0407126e-07
6.6666363e-07
7.444735e-07
8.4010783e-07
9.5033789e-07
1.076113e-06
1.2182361e-06
1.377973e-06
1.5567083e-06
1.7560327e-06
1.9777176e-06
2.2237432e-06
2.4963247e-06
2.7979476e-06
3.1314122e-06
3.4998938e-06
3.9070291e-06
4.3570382e-06
4.8549004e-06
5.4066029e-06
6.0194817e-06
6.7026742e-06
7.4677002e-06
8.3291987e-06
9.3058098e-06
1.0421236e-05
1.1705576e-05
1.3196833e-05
1.4942801e-05
1.7003298e-05
1.9452892e-05
2.2384226e-05
2.5912059e-05
3.0178242e-05
3.5357843e-05
4.1666818e-05
4.9725297e-05
5.9227498e-05
7.0871251e-05
8.5159704e-05
0.00010271318
0.00012429926
0.00015086862
0.00018360047
0.0002239582
0.00027376758
0.0003384019
0.0004150687
0.00050999318
0.00062770725
0.00077393159
0.00095589308
0.0010067454
0.0010059111
0.0010050654
0.0010042065
0.0010033337
0.0010024518
0.0010015894
0.0010008774
0.0010003279
0.00099991167
0.00099960862
0.00099940765
0.00099924411
0.00099915627
0.00099912117
0.00099912786
0.00099916703
0.00099922812
0.00099930815
0.00099941674
0.00099955919
0.0009997252
0.00099991787
1.0949052e-07
6.1189455e-07
6.2923262e-07
4.6305919e-07
5.0463813e-07
5.4977858e-07
6.2748322e-07
7.1884104e-07
8.2508091e-07
9.4552844e-07
1.0812324e-06
1.2332242e-06
1.4027977e-06
1.5913926e-06
1.8006324e-06
2.0323349e-06
2.288535e-06
2.5714777e-06
2.8837604e-06
3.2282326e-06
3.6081396e-06
4.0271891e-06
4.4896744e-06
5.0006514e-06
5.566192e-06
6.1937315e-06
6.8925303e-06
7.6742728e-06
8.5608399e-06
9.5603089e-06
1.0701701e-05
1.2015896e-05
1.354183e-05
1.5328437e-05
1.7436904e-05
1.9943474e-05
2.2942825e-05
2.6552224e-05
3.0916641e-05
3.6215042e-05
4.2668129e-05
5.0547843e-05
6.0189095e-05
7.200616e-05
8.6510011e-05
0.00010433282
0.00012625754
0.00015460049
0.00018812177
0.00022946656
0.00028052066
0.00034364174
0.00042179093
0.00051869974
0.00063908734
0.00078894246
0.00097587275
0.0010065036
0.0010056515
0.001004786
0.0010039089
0.0010030207
0.00100213
0.0010012763
0.001000641