/*--------------------------------*- C++ -*----------------------------------*\
  =========                 |
  \\      /  F ield         | OpenFOAM: The Open Source CFD Toolbox
   \\    /   O peration     | Website:  https://openfoam.org
    \\  /    A nd           | Version:  12
     \\/     M anipulation  |
\*---------------------------------------------------------------------------*/
FoamFile
{
    format      ascii;
    class       surfaceScalarField;
    location    "0.068";
    object      phi;
}
// * * * * * * * * * * * * * * * * * * * * * * * * * * * * * * * * * * * * * //

dimensions      [1 0 -1 0 0 0 0];

internalField   nonuniform List<scalar> 
31760
(
-0.00063691981
-0.051050257
0.05168695
-0.0016061775
-0.064601295
0.065570591
-0.0026100802
-0.063213232
0.064218361
-0.0036338314
-0.06891824
0.069941805
-0.0047125559
-0.070591685
0.071670175
-0.0058203749
-0.074880558
0.07598816
-0.0069982036
-0.077819735
0.0789973
-0.0082155181
-0.081846449
0.083063496
-0.0094932769
-0.085485356
0.086762828
-0.010830247
-0.089623009
0.090959683
-0.012222995
-0.093776719
0.095169158
-0.013683426
-0.098209479
0.099669592
-0.015206084
-0.10280733
0.10432966
-0.016799263
-0.10763284
0.10922568
-0.018462515
-0.11267465
0.11433756
-0.020200587
-0.11794953
0.11968726
-0.02201613
-0.12346557
0.12528077
-0.023912332
-0.12923426
0.13113012
-0.025892418
-0.13526666
0.13724641
-0.02795977
-0.1415741
0.14364112
-0.030117804
-0.14816904
0.15032675
-0.032370262
-0.15506351
0.15731565
-0.03472072
-0.16227116
0.1646213
-0.037173067
-0.16980577
0.17225781
-0.03973025
-0.17768193
0.18023882
-0.042396835
-0.18591384
0.18858013
-0.045176697
-0.19451781
0.19729738
-0.04807324
-0.20351052
0.20640679
-0.051089938
-0.21290898
0.21592541
-0.054230819
-0.22273134
0.22587197
-0.057499169
-0.23299663
0.23626475
-0.0608983
-0.24372474
0.24712367
-0.064431007
-0.25493726
0.2584698
-0.068100322
-0.2666554
0.27032459
-0.07190822
-0.27890334
0.28271114
-0.075856352
-0.29170545
0.29565352
-0.079946036
-0.30508755
0.3091772
-0.08417774
-0.31907743
0.32330914
-0.08855127
-0.33370318
0.33807673
-0.0930653
-0.34899635
0.35351042
-0.097717821
-0.36498879
0.36964137
-0.1025054
-0.38171436
0.386502
-0.10742342
-0.39920921
0.4041273
-0.11246607
-0.4175113
0.42255401
-0.11762563
-0.43666105
0.44182067
-0.12289299
-0.45670018
0.46196756
-0.12825665
-0.47767367
0.48303728
-0.13370376
-0.4996279
0.50507488
-0.13921895
-0.52261297
0.52812787
-0.14478404
-0.54668057
0.55224519
-0.1503782
-0.57188493
0.57747835
-0.15597817
-0.59828378
0.60388266
-0.16155686
-0.62593695
0.63151411
-0.16708371
-0.65490728
0.66043199
-0.17252466
-0.68526026
0.6906983
-0.17784034
-0.7170651
0.72237687
-0.18298732
-0.75039314
0.75553493
-0.18791693
-0.78531898
0.79024177
-0.19257365
-0.82192071
0.82656856
-0.1968963
-0.86027908
0.86459028
-0.20081583
-0.90047771
0.90438262
-0.20425541
-0.94260273
0.94602388
-0.20712872
-0.98674335
0.98959372
-0.20933929
-1.0329912
1.0351737
-0.2107791
-1.0814396
1.0828455
-0.21132778
-1.1321863
1.1326949
-0.21084929
-1.1853339
1.1848084
-0.20919792
-1.2409908
1.2392847
-0.20620603
-1.2992805
1.2962251
-0.20168556
-1.360335
1.3557407
-0.19543317
-1.4242951
1.4179568
-0.1872285
-1.4913051
1.4830009
-0.17681959
-1.561514
1.5509914
-0.16394188
-1.6350626
1.6220592
-0.14821798
-1.7121424
1.696288
-0.12973506
-1.7928147
1.7742135
-0.10677872
-1.8769069
1.8538506
-0.081865835
-1.9658387
1.9409051
-0.050335943
-2.054307
2.0227689
-2.1526892
2.1183056
-0.00063363904
-0.050417079
-0.0015078889
-0.063727295
-0.002409347
-0.062310332
-0.0033736897
-0.067954286
-0.0043489706
-0.06961678
-0.005402251
-0.07382762
-0.0064707313
-0.076751592
-0.0076196765
-0.080697818
-0.0087945991
-0.084310736
-0.010044306
-0.088373586
-0.011337191
-0.092484105
-0.012697825
-0.096849103
-0.014116167
-0.10138923
-0.015601321
-0.10614791
-0.017153463
-0.11112272
-0.018776751
-0.11632645
-0.020473366
-0.12176914
-0.02224708
-0.12746072
-0.024101106
-0.13341279
-0.02603902
-0.13963633
-0.028064474
-0.1461437
-0.030180714
-0.15294736
-0.03239184
-0.16006011
-0.034701534
-0.16749612
-0.037114593
-0.1752689
-0.039633819
-0.18339461
-0.042263909
-0.19188768
-0.045008594
-0.20076576
-0.047872162
-0.2100453
-0.050858185
-0.21974516
-0.053970751
-0.22988385
-0.057213199
-0.24048202
-0.060588847
-0.25156128
-0.064100698
-0.26314315
-0.067751196
-0.27525237
-0.071542691
-0.28791341
-0.075476377
-0.30115324
-0.079553793
-0.31499933
-0.083774315
-0.3294819
-0.088137575
-0.34463226
-0.092642008
-0.36048346
-0.097284554
-0.37707086
-0.10206089
-0.39443186
-0.10696599
-0.41260512
-0.11199285
-0.43163307
-0.11713297
-0.45155892
-0.12237622
-0.47242928
-0.12771008
-0.49429294
-0.13312041
-0.51720162
-0.13859079
-0.54120928
-0.14410207
-0.56637294
-0.14963243
-0.59275297
-0.15515695
-0.62041235
-0.1606477
-0.64941696
-0.16607301
-0.67983605
-0.17139711
-0.71174299
-0.17658015
-0.74521325
-0.18157732
-0.78032644
-0.18633815
-0.8171664
-0.1908068
-0.85581938
-0.19492029
-0.89637619
-0.19860837
-0.93893032
-0.20179203
-0.9835798
-0.20438412
-1.0304245
-0.20628587
-1.0795692
-0.20738852
-1.1311218
-0.20756661
-1.1852016
-0.20668462
-1.2419272
-0.20459101
-1.3014384
-0.20111614
-1.3638855
-0.19607504
-1.429425
-0.18926116
-1.4982225
-0.18044885
-1.5704449
-0.1693775
-1.6462651
-0.15579175
-1.7258633
-0.13942293
-1.8093091
-0.11959415
-1.8968323
-0.097050038
-1.9884032
-0.069364901
-2.0819997
-2.18353
-0.00057312177
-0.049844221
-0.0013893141
-0.062911246
-0.0022013061
-0.061499594
-0.0031085978
-0.067047109
-0.0040056476
-0.068719886
-0.0049899513
-0.072843441
-0.0059755725
-0.075766113
-0.0070450867
-0.079628431
-0.0081337419
-0.083222208
-0.0092955303
-0.087211913
-0.01049722
-0.091282525
-0.011763044
-0.095583375
-0.013083956
-0.1000684
-0.014468256
-0.10476368
-0.015916603
-0.10967443
-0.017432587
-0.1148105
-0.019019546
-0.1201822
-0.02068042
-0.12579984
-0.022419473
-0.13167371
-0.024239515
-0.13781622
-0.026145028
-0.1442381
-0.028139527
-0.15095274
-0.030226885
-0.15797258
-0.032411884
-0.16531092
-0.034697787
-0.17298274
-0.037089805
-0.18100228
-0.039591384
-0.18938574
-0.042207594
-0.19814912
-0.044941988
-0.2073104
-0.047799724
-0.21688684
-0.050783914
-0.22689899
-0.053898898
-0.23736627
-0.057148495
-0.24831082
-0.060535408
-0.25975527
-0.06406325
-0.27172346
-0.067734214
-0.28424126
-0.071550569
-0.29733558
-0.075512862
-0.3110356
-0.079622148
-0.32537106
-0.083877953
-0.34037477
-0.088278533
-0.35608107
-0.092821823
-0.37252562
-0.097504508
-0.3897471
-0.10232119
-0.40778623
-0.10726597
-0.42668598
-0.11233096
-0.44649151
-0.11750707
-0.46725067
-0.12278253
-0.48901494
-0.12814497
-0.51183663
-0.13357897
-0.53577278
-0.1390666
-0.5608829
-0.14458878
-0.58722856
-0.15012258
-0.6148766
-0.15564252
-0.64389547
-0.16111993
-0.67435765
-0.1665225
-0.7063402
-0.17181433
-0.73992221
-0.17695409
-0.77518883
-0.18189721
-0.81222717
-0.18659227
-0.85113045
-0.19098294
-0.89199447
-0.19500534
-0.93492039
-0.19858902
-0.9800129
-0.20165418
-1.0273813
-0.20411183
-1.0771396
-0.20586149
-1.1294073
-0.20679526
-1.1843112
-0.20678683
-1.2419884
-0.20569592
-1.302593
-0.20337352
-1.3662843
-0.19964574
-1.4332436
-0.194331
-1.5036439
-0.18721758
-1.5776811
-0.1780777
-1.6555404
-0.16667381
-1.7374065
-0.1527017
-1.8234106
-0.13583491
-1.9137917
-0.11601952
-2.0082376
-0.092138511
-2.1058875
-2.2106722
-0.00051694541
-0.049327468
-0.0012722843
-0.062155911
-0.0020124854
-0.060759398
-0.0028684825
-0.066191156
-0.0036983254
-0.067890134
-0.0046156729
-0.071926143
-0.0055238224
-0.074858028
-0.0065195721
-0.078632724
-0.0075274767
-0.082214343
-0.0086080427
-0.086131368
-0.0097254311
-0.090165145
-0.010904066
-0.094404729
-0.012135887
-0.09883655
-0.013428183
-0.10347134
-0.014782612
-0.10831992
-0.016202941
-0.11339006
-0.017692465
-0.11869254
-0.019254564
-0.12423757
-0.020892712
-0.13003535
-0.022611265
-0.13609742
-0.024413393
-0.14243567
-0.02630417
-0.14906161
-0.028287507
-0.15598883
-0.030367396
-0.16323055
-0.032549001
-0.17080059
-0.03483628
-0.17871438
-0.037234281
-0.18698703
-0.039747353
-0.19563525
-0.042380965
-0.20467589
-0.045138483
-0.21412831
-0.048025057
-0.22401129
-0.05104507
-0.23434501
-0.054202237
-0.24515226
-0.057500464
-0.25645551
-0.060943186
-0.26827905
-0.064532888
-0.28064971
-0.068271812
-0.29359463
-0.072161912
-0.3071433
-0.07620357
-0.32132701
-0.080396873
-0.33617889
-0.084741264
-0.35173389
-0.089234116
-0.36802977
-0.093872689
-0.38510532
-0.098652691
-0.40300282
-0.10356828
-0.42176678
-0.10861308
-0.44144292
-0.11377752
-0.46208228
-0.11905283
-0.48373553
-0.12442641
-0.50645884
-0.12988486
-0.53031006
-0.13541279
-0.55535069
-0.1409919
-0.58164524
-0.14660232
-0.60926213
-0.15222164
-0.6382724
-0.15782328
-0.6687527
-0.16337946
-0.70078134
-0.16885741
-0.73444248
-0.17422106
-0.76982459
-0.17943012
-0.8070191
-0.18443917
-0.84612444
-0.1891976
-0.88724169
-0.19364869
-0.93047824
-0.19772938
-0.97594523
-0.20136844
-1.0237602
-0.20448636
-1.0740456
-0.20699599
-1.1269288
-0.2087923
-1.1825545
-0.20976924
-1.2410612
-0.20979772
-1.302626
-0.20874446
-1.3674128
-0.20645595
-1.435623
-0.20275632
-1.5074514
-0.19746824
-1.583094
-0.19037952
-1.6627671
-0.18127237
-1.7466558
-0.16987732
-1.8349365
-0.15594867
-1.9278094
-0.13921917
-2.0249855
-0.11904835
-2.1260629
-2.2339409
-0.00046143694
-0.048866188
-0.0011691508
-0.061448168
-0.0018308781
-0.060097671
-0.0026319318
-0.065390106
-0.0033890711
-0.067133032
-0.0042481271
-0.071067076
-0.0050883898
-0.07401776
-0.0060186425
-0.077702439
-0.0069543269
-0.081278614
-0.0079615895
-0.085124035
-0.0090043347
-0.089122309
-0.010105695
-0.093303252
-0.011259793
-0.097682307
-0.012472845
-0.10225811
-0.013747248
-0.10704531
-0.015086119
-0.11205094
-0.016493231
-0.11728513
-0.01797237
-0.12275809
-0.019527239
-0.12848009
-0.021161874
-0.13446234
-0.022880997
-0.14071604
-0.024687958
-0.14725407
-0.026588278
-0.15408786
-0.028586553
-0.16123154
-0.030687313
-0.16869901
-0.032895849
-0.17650492
-0.035217391
-0.18466445
-0.0376569
-0.19319458
-0.040219331
-0.20211217
-0.042909924
-0.21143629
-0.045733598
-0.22118603
-0.048694872
-0.23138199
-0.05179816
-0.24204706
-0.055047878
-0.25320369
-0.05844725
-0.26487737
-0.061999431
-0.277095
-0.065706996
-0.28988432
-0.069571923
-0.30327538
-0.073595042
-0.31730065
-0.07777682
-0.33199359
-0.082116291
-0.34739063
-0.086612363
-0.36352963
-0.091261831
-0.38045148
-0.0960611
-0.39819889
-0.1010058
-0.41681712
-0.10608906
-0.43635443
-0.11130376
-0.45686207
-0.11664092
-0.47839262
-0.12208996
-0.50100382
-0.12763953
-0.52475433
-0.13327536
-0.54970858
-0.13898225
-0.575932
-0.14474249
-0.60349559
-0.15053608
-0.63247265
-0.1563411
-0.66294181
-0.16213226
-0.69498479
-0.16788094
-0.72868913
-0.17355646
-0.76414543
-0.17912295
-0.80145035
-0.18454131
-0.84070566
-0.18976672
-0.88201822
-0.19474972
-0.92550021
-0.1994344
-0.9712693
-0.2037586
-1.0194495
-0.20765234
-1.0701711
-0.21103573
-1.1235716
-0.21382387
-1.1798011
-0.21591079
-1.2390194
-0.21719526
-1.3013992
-0.21754297
-1.3671374
-0.21682539
-1.4364294
-0.21488911
-1.5094946
-0.21156781
-1.5865397
-0.20667896
-1.6677938
-0.20001896
-1.7534578
-0.19135402
-1.8437302
-0.18046986
-1.9387772
-0.16705919
-2.0384146
-0.15068617
-2.1424409
-2.2531438
-0.00041101359
-0.048455276
-0.00107674
-0.060782359
-0.0016748827
-0.05949956
-0.0024167976
-0.064648129
-0.0030985774
-0.066451218
-0.0039058311
-0.070259734
-0.0046805762
-0.073242928
-0.005551329
-0.076831567
-0.0064241774
-0.080405631
-0.0073686461
-0.084179401
-0.0083500739
-0.08814069
-0.0093881389
-0.092264963
-0.010479244
-0.096590943
-0.011628076
-0.10110898
-0.012837462
-0.10583558
-0.014111261
-0.11077675
-0.015452967
-0.11594299
-0.016866445
-0.12134411
-0.018356186
-0.12698979
-0.019926171
-0.13289172
-0.02158149
-0.13906001
-0.023326951
-0.14550781
-0.025167697
-0.15224623
-0.027108835
-0.15928941
-0.029155989
-0.16665075
-0.031314985
-0.1743447
-0.033590572
-0.1823875
-0.035989082
-0.19079457
-0.038515842
-0.19958374
-0.041176265
-0.20877403
-0.043975983
-0.21838429
-0.046919615
-0.22843613
-0.05001261
-0.23895162
-0.05325832
-0.2499553
-0.056661314
-0.26147144
-0.060224997
-0.27352812
-0.063951639
-0.28615419
-0.067843306
-0.29937993
-0.071901629
-0.31323821
-0.076126764
-0.32776401
-0.080518699
-0.34299389
-0.085075529
-0.35896763
-0.089795631
-0.37572584
-0.094675867
-0.39331272
-0.099711288
-0.41177538
-0.10489694
-0.43116207
-0.11022721
-0.45152471
-0.11569339
-0.47291897
-0.12128773
-0.49540166
-0.12699903
-0.51903491
-0.1328169
-0.54388231
-0.13872765
-0.57001265
-0.14471655
-0.59749794
-0.15076691
-0.62641352
-0.15685983
-0.65684024
-0.16297409
-0.68886218
-0.16908658
-0.72256882
-0.17516992
-0.75805507
-0.18119444
-0.79541996
-0.18712599
-0.83476981
-0.19292736
-0.87621463
-0.19855563
-0.91987241
-0.2039631
-0.96586576
-0.20909572
-1.0143251
-0.21389276
-1.0653877
-0.21828567
-1.1191991
-0.22219742
-1.1759182
-0.22554362
-1.2357125
-0.22822145
-1.2987734
-0.23012895
-1.365297
-0.23114108
-1.4355017
-0.231127
-1.5096116
-0.22994076
-1.5878467
-0.22741931
-1.6704493
-0.22338164
-1.7576334
-0.21762539
-1.8496085
-0.20994367
-1.946532
-0.20007057
-2.0483019
-0.1876391
-2.1548748
-2.268067
-0.00036854958
-0.048086778
-0.0010029962
-0.060147775
-0.0015455471
-0.058956951
-0.0022393428
-0.063954204
-0.0028596745
-0.065830776
-0.0036198124
-0.069499441
-0.0043376251
-0.072524952
-0.00514641
-0.076022584
-0.0059765878
-0.079575235
-0.0068742761
-0.083281461
-0.0078091966
-0.087205485
-0.00879727
-0.091276566
-0.009838083
-0.095549766
-0.010935653
-0.100011
-0.01209401
-0.10467676
-0.013316615
-0.10955363
-0.014608313
-0.11465071
-0.015973184
-0.11997859
-0.017416021
-0.12554622
-0.018942218
-0.13136471
-0.020556377
-0.13744495
-0.022264715
-0.14379847
-0.024072455
-0.15043737
-0.025985305
-0.15737533
-0.028009644
-0.16462504
-0.030151137
-0.17220169
-0.03241671
-0.18012026
-0.034811958
-0.18839747
-0.03734266
-0.197051
-0.040015477
-0.20609897
-0.042835472
-0.21556183
-0.0458083
-0.22546059
-0.048938706
-0.23581824
-0.052231888
-0.24665887
-0.055690975
-0.2580088
-0.059319719
-0.26989551
-0.063121319
-0.28234837
-0.067097539
-0.29539912
-0.071249584
-0.3090812
-0.075578182
-0.32343003
-0.08008337
-0.33848289
-0.084763974
-0.35428077
-0.089618515
-0.37086457
-0.094643914
-0.38828012
-0.099837343
-0.40657426
-0.10519435
-0.42579686
-0.11070959
-0.44600077
-0.11637767
-0.46724168
-0.12219079
-0.48957886
-0.12814168
-0.51307386
-0.13422053
-0.53779287
-0.14041723
-0.56380496
-0.1467204
-0.59118347
-0.15311626
-0.62000614
-0.15959011
-0.65035477
-0.1661246
-0.68231613
-0.17270103
-0.71598111
-0.17929761
-0.75144773
-0.18588976
-0.78881792
-0.19245027
-0.82820063
-0.19894743
-0.86971053
-0.20534639
-0.91346884
-0.21160692
-0.95960362
-0.21768411
-1.0082502
-0.22352696
-1.0595521
-0.22907699
-1.1136627
-0.23426884
-1.170748
-0.23902941
-1.2309838
-0.24327245
-1.2945748
-0.24690448
-1.3617246
-0.24982548
-1.4326576
-0.25191769
-1.5076148
-0.25305295
-1.5868243
-0.25309707
-1.6705309
-0.25188499
-1.7589737
-0.24923513
-1.8523671
-0.24496724
-1.9508561
-0.23885142
-2.0544197
-0.23056695
-2.1631544
-2.2784641
-0.00032615224
-0.047760632
-0.00093517911
-0.059538564
-0.0014282603
-0.058463764
-0.0020754212
-0.063306856
-0.0026502389
-0.065255794
-0.0033804347
-0.068769028
-0.0040637536
-0.071841409
-0.0048548003
-0.075231263
-0.005645596
-0.07878415
-0.0064975263
-0.0824292
-0.0073903597
-0.086312283
-0.0083355317
-0.090330981
-0.0093355325
-0.094549303
-0.010393784
-0.098952227
-0.011514724
-0.10355525
-0.012702928
-0.10836478
-0.013962353
-0.11339057
-0.015298986
-0.11864116
-0.016717663
-0.12412666
-0.01822407
-0.12985732
-0.019824059
-0.13584387
-0.021523651
-0.14209767
-0.023329176
-0.14863051
-0.025247907
-0.15545512
-0.027285343
-0.16258597
-0.029449012
-0.17003622
-0.031745096
-0.17782218
-0.034180478
-0.1859599
-0.036761724
-0.19446735
-0.039494951
-0.20336309
-0.042385955
-0.21266792
-0.045440545
-0.22240282
-0.048663918
-0.23259138
-0.052060194
-0.24325877
-0.055633685
-0.25443115
-0.05938797
-0.26613668
-0.063325299
-0.2784061
-0.067448011
-0.29127104
-0.071757518
-0.30476586
-0.076254474
-0.31892677
-0.0809388
-0.33379176
-0.08581058
-0.34940165
-0.090867817
-0.36579944
-0.096109044
-0.38303042
-0.10153187
-0.40114236
-0.10713308
-0.42018596
-0.11290919
-0.44021433
-0.11885605
-0.46128387
-0.1249686
-0.48345471
-0.13124122
-0.50678901
-0.13766775
-0.5313535
-0.1442403
-0.55721899
-0.15095077
-0.58445904
-0.15778938
-0.6131531
-0.16474546
-0.64338392
-0.17180665
-0.67523995
-0.17895826
-0.70881448
-0.18618416
-0.74420699
-0.19346588
-0.78152184
-0.20078204
-0.82087094
-0.20810836
-0.86237196
-0.21541713
-0.90614966
-0.22267639
-0.95233647
-0.22985031
-1.0010717
-0.23689689
-1.0525054
-0.24376943
-1.1067959
-0.25041347
-1.1641172
-0.25676625
-1.2246538
-0.26275956
-1.2886164
-0.26831798
-1.3562156
-0.27334521
-1.4276964
-0.27775316
-1.5032906
-0.28142881
-1.5832488
-0.28425717
-1.6678141
-0.28610024
-1.7572427
-0.28679759
-1.8517575
-0.28618271
-1.9515026
-0.28406626
-2.0565208
-0.28018378
-2.1670159
-2.2840424
-0.00028450407
-0.047476095
-0.00087427464
-0.058948572
-0.0013261723
-0.058011717
-0.001948776
-0.062684015
-0.0025014206
-0.064702932
-0.0032060342
-0.068064146
-0.0038631429
-0.071184015
-0.004630601
-0.074463489
-0.005391602
-0.078022791
-0.0062107708
-0.081609629
-0.0070760618
-0.085446544
-0.0079942036
-0.08941234
-0.0089700755
-0.093572875
-0.010007106
-0.097914579
-0.011110377
-0.10245129
-0.012284722
-0.10718968
-0.013535816
-0.11213863
-0.014869078
-0.11730696
-0.016290531
-0.12270417
-0.017806962
-0.12833974
-0.019424427
-0.13422513
-0.02115048
-0.14037021
-0.022991522
-0.14678792
-0.024954979
-0.15348995
-0.027048473
-0.16049058
-0.029278832
-0.16780377
-0.03165364
-0.17544508
-0.034179816
-0.1834312
-0.036863854
-0.19178054
-0.03971262
-0.20051128
-0.042732235
-0.20964496
-0.045927814
-0.21920358
-0.049304297
-0.22921089
-0.052866551
-0.23969214
-0.056618313
-0.25067461
-0.060562407
-0.26218738
-0.064701788
-0.27426106
-0.069038396
-0.28692829
-0.073573346
-0.30022425
-0.078307795
-0.31418511
-0.083241819
-0.32884994
-0.088375172
-0.34425989
-0.09370766
-0.3604579
-0.099238714
-0.37748963
-0.10496674
-0.3954039
-0.11089041
-0.41425112
-0.11700778
-0.43408504
-0.12331677
-0.45496217
-0.12981503
-0.47694295
-0.13649922
-0.5000905
-0.14336624
-0.52447134
-0.15041208
-0.55015722
-0.15763175
-0.57722267
-0.1650201
-0.60574731
-0.17257034
-0.6358156
-0.18027495
-0.66751671
-0.18812425
-0.70094613
-0.19610835
-0.73620362
-0.20421418
-0.77339675
-0.21242695
-0.81263924
-0.22072985
-0.85405086
-0.22910278
-0.89775977
-0.2375225
-0.94390169
-0.24596133
-0.99262054
-0.25438865
-1.0440695
-0.26276734
-1.0984136
-0.27105626
-1.1558315
-0.27920444
-1.2165177
-0.28715842
-1.2806855
-0.29485152
-1.3485589
-0.30221729
-1.4203823
-0.30917584
-1.4963997
-0.31564086
-1.5768658
-0.32151135
-1.6620349
-0.3266735
-1.7521688
-0.3309884
-1.8475003
-0.33430681
-1.9481832
-0.33647925
-2.0543108
-0.33727881
-2.1661683
-2.2844678
-0.00024599782
-0.047230026
-0.00082413402
-0.058370178
-0.0012460754
-0.057589586
-0.0018912866
-0.062038527
-0.0024289746
-0.064164982
-0.0031137549
-0.067379039
-0.0037473059
-0.070550127
-0.0044734241
-0.073736983
-0.0052194921
-0.0772763
-0.0060221271
-0.080806522
-0.0068767238
-0.084591425
-0.0077861072
-0.088502375
-0.0087574084
-0.09260093
-0.0097945531
-0.09687672
-0.010903298
-0.10134175
-0.012089405
-0.10600269
-0.013359117
-0.11086794
-0.01471913
-0.11594587
-0.01617625
-0.12124586
-0.017737208
-0.12677747
-0.019410659
-0.13255023
-0.02120308
-0.13857619
-0.023123381
-0.14486585
-0.025178884
-0.15143249
-0.027377464
-0.15828985
-0.029727266
-0.16545161
-0.032235741
-0.172934
-0.034909908
-0.18075417
-0.037757223
-0.18893008
-0.04078371
-0.19748135
-0.043995008
-0.20642989
-0.047396817
-0.21579763
-0.05099361
-0.22560958
-0.054789628
-0.23589119
-0.058788192
-0.24667067
-0.062992154
-0.25797757
-0.067403783
-0.26984307
-0.072024812
-0.28230035
-0.076857016
-0.29538456
-0.081901094
-0.30913293
-0.087157975
-0.3235843
-0.092628445
-0.33877996
-0.098312985
-0.35476317
-0.10421161
-0.37158004
-0.11032518
-0.38927855
-0.11665422
-0.40790945
-0.12319872
-0.42752702
-0.12995919
-0.44818725
-0.1369359
-0.46995081
-0.14412918
-0.49288081
-0.15153844
-0.51704465
-0.15916409
-0.54251309
-0.16700494
-0.5693623
-0.1750598
-0.59767191
-0.18332701
-0.62752685
-0.19180373
-0.65901754
-0.20048655
-0.69223999
-0.20937036
-0.72729578
-0.21844922
-0.76429332
-0.2277154
-0.80334821
-0.23715857
-0.8445829
-0.24676721
-0.88812687
-0.25652653
-0.93411921
-0.26641913
-0.98270667
-0.27642332
-1.0340469
-0.28651373
-1.088309
-0.29665993
-1.1456767
-0.30682753
-1.2063491
-0.31697345
-1.2705481
-0.3270517
-1.3385007
-0.33701147
-1.4104557
-0.34678563
-1.4866722
-0.35631184
-1.5673977
-0.36551214
-1.6528987
-0.37429436
-1.7434424
-0.38253477
-1.8392781
-0.39011252
-1.9405636
-0.39689578
-2.0474573
-0.40272258
-2.1602503
-2.2793809
-0.00021158176
-0.047018338
-0.00078975541
-0.057791715
-0.0011885214
-0.057190592
-0.0018528662
-0.061373882
-0.0023681269
-0.063649417
-0.0030450146
-0.066701788
-0.0036709092
-0.069923843
-0.0043906868
-0.073016765
-0.0051389471
-0.076527556
-0.0059414031
-0.080003527
-0.0068032405
-0.083728992
-0.0077245675
-0.087580389
-0.0087138533
-0.091610915
-0.0097759061
-0.095813859
-0.010917397
-0.10019937
-0.012145044
-0.10477406
-0.013466038
-0.10954586
-0.014887727
-0.11452298
-0.01641857
-0.11971368
-0.018066521
-0.12512804
-0.019839885
-0.13077523
-0.021747625
-0.13666665
-0.023797927
-0.14281356
-0.025999557
-0.14922868
-0.028361291
-0.15592571
-0.03089059
-0.16291966
-0.033595354
-0.17022633
-0.036482942
-0.17786338
-0.039560175
-0.18584934
-0.042832345
-0.19420533
-0.046305944
-0.20295208
-0.049984873
-0.2121141
-0.053873954
-0.22171547
-0.057975992
-0.23178368
-0.062293826
-0.24234686
-0.066830402
-0.2534345
-0.071587643
-0.26507877
-0.07656707
-0.27731327
-0.081770407
-0.29017292
-0.087199441
-0.30369491
-0.092855663
-0.31791837
-0.098740844
-0.3328843
-0.10485663
-0.34863608
-0.1112056
-0.3652189
-0.11779009
-0.38268096
-0.12461248
-0.40107299
-0.13167643
-0.42044796
-0.13898449
-0.44086301
-0.14654071
-0.46237727
-0.15434851
-0.48505448
-0.16241188
-0.50896151
-0.17073387
-0.53417004
-0.17931853
-0.56075525
-0.18816944
-0.58879726
-0.19728943
-0.61838177
-0.20668125
-0.64959925
-0.21634733
-0.68254611
-0.22628875
-0.71732526
-0.23650598
-0.75404583
-0.24699806
-0.79282486
-0.25776378
-0.83378518
-0.26879869
-0.8770596
-0.28009739
-0.92278831
-0.29165196
-0.97112076
-0.30345155
-1.0222177
-0.31548227
-1.0762516
-0.32772677
-1.1334098
-0.34016162
-1.1938977
-0.35276371
-1.2579371
-0.36550092
-1.3257638
-0.37833336
-1.3976339
-0.39122777
-1.4737985
-0.40412881
-1.554525
-0.41698118
-1.6400758
-0.42971178
-1.730726
-0.4422338
-1.8267241
-0.45443525
-1.9282684
-0.46621136
-2.0355637
-0.47744517
-2.1488616
-2.2683829
-0.00019015455
-0.046828042
-0.00078761876
-0.057193929
-0.001182511
-0.056795435
-0.0018399733
-0.06071607
-0.0023481509
-0.063140892
-0.0030271103
-0.066022417
-0.0036680222
-0.069282493
-0.0043946644
-0.072289629
-0.0051644152
-0.075757263
-0.0059879653
-0.079179376
-0.0068789556
-0.082837337
-0.0078365888
-0.08662202
-0.0088704372
-0.090576253
-0.0099865714
-0.094696825
-0.011192724
-0.09899222
-0.012496801
-0.10346888
-0.013907276
-0.10813417
-0.015433017
-0.11299589
-0.017082698
-0.11806252
-0.018866318
-0.12334279
-0.020792736
-0.12884701
-0.022871678
-0.13458572
-0.02511203
-0.14057101
-0.027522957
-0.14681533
-0.030113044
-0.15333296
-0.03289042
-0.16013935
-0.035862154
-0.16725137
-0.039035438
-0.17468657
-0.042415775
-0.18246513
-0.046009204
-0.19060766
-0.049819557
-0.19913709
-0.053850996
-0.2080776
-0.058106837
-0.21745411
-0.062589649
-0.22729484
-0.067301882
-0.23762808
-0.072245742
-0.24848351
-0.077422877
-0.2598939
-0.082835706
-0.27189205
-0.088486122
-0.28451342
-0.094376804
-0.2977944
-0.1005106
-0.31177394
-0.10689086
-0.32649256
-0.11352169
-0.34199285
-0.12040735
-0.35831988
-0.12755268
-0.37552124
-0.13496363
-0.39364655
-0.14264606
-0.41274887
-0.15060665
-0.4328845
-0.15885222
-0.45411247
-0.16739036
-0.47649571
-0.17622873
-0.50010104
-0.18537596
-0.52499914
-0.19483998
-0.55126595
-0.20462934
-0.5789809
-0.21475207
-0.60823027
-0.22521724
-0.63910346
-0.23603235
-0.6716985
-0.24720538
-0.70611782
-0.25874384
-0.74247105
-0.27065474
-0.78087584
-0.28294375
-0.82145639
-0.29561608
-0.86434611
-0.30867539
-0.90968683
-0.32212371
-0.95762982
-0.33596144
-1.0083377
-0.35018637
-1.0619856
-0.36479353
-1.1187641
-0.37977497
-1.1788815
-0.39512356
-1.2425588
-0.4108195
-1.3100444
-0.42685034
-1.3815864
-0.44318812
-1.45745
-0.45980788
-1.5378972
-0.47667659
-1.623194
-0.4937396
-1.7136258
-0.51092676
-1.8094444
-0.52815656
-1.9108826
-0.54536062
-2.0181797
-0.56244106
-2.1315353
-2.251025
-0.00017162465
-0.046656246
-0.00079795728
-0.056567251
-0.0011995866
-0.05639351
-0.0018668571
-0.060048419
-0.0023873286
-0.062620035
-0.0030813039
-0.065327992
-0.003752365
-0.068610947
-0.0045021263
-0.071539324
-0.0053115623
-0.07494723
-0.0061785943
-0.078311682
-0.0071228467
-0.081892353
-0.0081442707
-0.085599787
-0.0092532026
-0.089466426
-0.010457378
-0.09349166
-0.011765878
-0.097682625
-0.013188075
-0.10204547
-0.014733773
-0.10658713
-0.016413143
-0.11131504
-0.018236533
-0.11623749
-0.020213957
-0.12136356
-0.022355922
-0.12670305
-0.024672121
-0.13226732
-0.027171854
-0.13806886
-0.029864406
-0.14412012
-0.032757657
-0.15043678
-0.035858985
-0.15703481
-0.039175682
-0.16393115
-0.042712673
-0.1711457
-0.046475235
-0.17869833
-0.050467321
-0.18661094
-0.054692364
-0.19490698
-0.059153404
-0.20361103
-0.063851789
-0.2127497
-0.068790739
-0.22234934
-0.07397166
-0.23244003
-0.079396474
-0.24305097
-0.085068052
-0.25421393
-0.090988649
-0.26596236
-0.097162442
-0.27832978
-0.1035932
-0.29135298
-0.11028558
-0.30507004
-0.11724513
-0.31952056
-0.12447861
-0.33474593
-0.13199295
-0.35079103
-0.13979628
-0.36770225
-0.14789763
-0.38552831
-0.15630641
-0.40432189
-0.16503289
-0.42413842
-0.17408838
-0.44503588
-0.18348422
-0.46707714
-0.193233
-0.49032783
-0.20334675
-0.51485911
-0.21383961
-0.54074485
-0.22472466
-0.56806554
-0.23601648
-0.59690591
-0.24772874
-0.62735631
-0.25987657
-0.65951328
-0.27247432
-0.69348009
-0.28553651
-0.72936621
-0.29907846
-0.76728851
-0.3131139
-0.80737288
-0.32765712
-0.84975223
-0.3427218
-0.89456914
-0.35832051
-0.94197609
-0.37446442
-0.99213728
-0.39116412
-1.0452287
-0.40842866
-1.1014424
-0.42626627
-1.1609878
-0.44467987
-1.2240911
-0.46367479
-1.290998
-0.48325107
-1.3619612
-0.50340724
-1.4372459
-0.52413431
-1.5171189
-0.54541402
-1.6018502
-0.56722633
-1.6917151
-0.58951597
-1.7869915
-0.61224015
-1.8879296
-0.63535161
-1.994811
-0.65876587
-2.1077641
-2.2267875
-0.00015745303
-0.046498593
-0.00082588122
-0.055898453
-0.001240982
-0.055978084
-0.0019381552
-0.059350834
-0.0024886905
-0.062069075
-0.0032108532
-0.06460534
-0.0039324739
-0.067888797
-0.0047266142
-0.070744593
-0.0055986832
-0.07407451
-0.006536346
-0.077373298
-0.0075631983
-0.080864703
-0.0086813944
-0.084480708
-0.0099023646
-0.088244479
-0.011235943
-0.092157001
-0.012692773
-0.096224599
-0.014284005
-0.10045292
-0.016020862
-0.10484881
-0.017914675
-0.10941961
-0.019976671
-0.11417371
-0.022217763
-0.11912049
-0.024648173
-0.12427047
-0.027277946
-0.12963515
-0.030116383
-0.13522778
-0.03317111
-0.14106248
-0.036449749
-0.14715495
-0.039958342
-0.15352271
-0.043701817
-0.16018383
-0.047684554
-0.16715876
-0.051909717
-0.17446857
-0.056379663
-0.18213597
-0.061096152
-0.19018502
-0.066061263
-0.19863996
-0.071276432
-0.20752804
-0.076743393
-0.21687532
-0.082464608
-0.22671115
-0.088442727
-0.23706453
-0.094681199
-0.24796644
-0.10118511
-0.25944868
-0.10795884
-0.27154548
-0.11500947
-0.28429091
-0.12234391
-0.29772321
-0.12997156
-0.31187952
-0.13790089
-0.32680213
-0.1461428
-0.34253348
-0.15470935
-0.3591188
-0.1636123
-0.37660711
-0.17286545
-0.39504902
-0.18248341
-0.41449917
-0.19248103
-0.43501527
-0.20287485
-0.45665851
-0.21368133
-0.47949455
-0.22491901
-0.50359252
-0.23660554
-0.52902709
-0.24876034
-0.55587704
-0.26140374
-0.58422611
-0.27455613
-0.61416463
-0.28823846
-0.64578855
-0.30247331
-0.67919952
-0.31728281
-0.71450745
-0.33268938
-0.75182897
-0.34871659
-0.79128888
-0.36538829
-0.83301982
-0.38272803
-0.87716477
-0.40075895
-0.92387672
-0.41950552
-0.97331866
-0.43899063
-1.0256683
-0.45923702
-1.0811179
-0.48026741
-1.139877
-0.50210304
-1.2021733
-0.52476859
-1.2682487
-0.54828272
-1.338361
-0.57266096
-1.4127765
-0.59791718
-1.4917611
-0.62406158
-1.5755822
-0.65108488
-1.6645226
-0.67896737
-1.758866
-0.70768969
-1.8588959
-0.73725033
-1.9649017
-0.76754186
-2.0769869
-2.1950789
-0.00014937039
-0.046348996
-0.0008790294
-0.055168403
-0.0013126868
-0.055544073
-0.0020535193
-0.05860956
-0.002654726
-0.06146741
-0.0034232946
-0.063836246
-0.004218473
-0.067093047
-0.0050817791
-0.069880649
-0.0060421579
-0.073113427
-0.007081842
-0.076332833
-0.0082265543
-0.079719127
-0.0094820385
-0.083224266
-0.010861254
-0.086864203
-0.012376104
-0.090640976
-0.014039063
-0.094560339
-0.015862581
-0.09862796
-0.017859089
-0.10285071
-0.020040599
-0.10723634
-0.022418763
-0.1117936
-0.025004463
-0.11653265
-0.027807882
-0.12146468
-0.030837822
-0.1266026
-0.034102017
-0.13196072
-0.037607356
-0.13755399
-0.041358622
-0.14340023
-0.045360217
-0.14951733
-0.049614374
-0.15592553
-0.054123273
-0.16264533
-0.05888833
-0.16969856
-0.063910232
-0.17710868
-0.069190208
-0.18489916
-0.07472907
-0.1930947
-0.080528933
-0.20172123
-0.086591945
-0.21080477
-0.092921914
-0.220373
-0.099522741
-0.23045483
-0.10640064
-0.24107893
-0.11356177
-0.25227713
-0.12101516
-0.26408082
-0.12876926
-0.2765246
-0.13683582
-0.28964344
-0.14522547
-0.30347557
-0.15395201
-0.31806012
-0.16302993
-0.33343882
-0.17247413
-0.34965649
-0.18230129
-0.36676034
-0.19252912
-0.38479998
-0.20317625
-0.40382909
-0.21426273
-0.42390394
-0.22580898