/*--------------------------------*- C++ -*----------------------------------*\
  =========                 |
  \\      /  F ield         | OpenFOAM: The Open Source CFD Toolbox
   \\    /   O peration     | Website:  https://openfoam.org
    \\  /    A nd           | Version:  12
     \\/     M anipulation  |
\*---------------------------------------------------------------------------*/
FoamFile
{
    format      ascii;
    class       volScalarField;
    location    "0.068";
    object      rho;
}
// * * * * * * * * * * * * * * * * * * * * * * * * * * * * * * * * * * * * * //

dimensions      [1 -3 0 0 0 0 0];

internalField   nonuniform List<scalar> 
16000
(
1.0562516
1.089519
1.077248
1.0855844
1.0816799
1.0851688
1.0841766
1.0860251
1.0861734
1.0873986
1.0880593
1.089087
1.0899768
1.0909868
1.0919962
1.0930582
1.0941529
1.0952879
1.0964615
1.0976745
1.0989269
1.1002187
1.1015499
1.1029198
1.104328
1.1057735
1.1072553
1.108772
1.1103219
1.111903
1.1135132
1.1151499
1.1168102
1.1184911
1.1201892
1.1219008
1.1236221
1.125349
1.1270773
1.1288026
1.1305206
1.1322268
1.1339168
1.1355862
1.137231
1.1388469
1.1404303
1.1419774
1.1434851
1.1449502
1.1463702
1.1477426
1.1490654
1.1503368
1.1515555
1.1527203
1.1538302
1.1548847
1.1558833
1.1568258
1.1577118
1.1585414
1.1593146
1.1600314
1.1606919
1.1612965
1.161846
1.1623419
1.1627866
1.1631836
1.1635373
1.1638529
1.1641366
1.1643918
1.1646075
1.1647642
1.165022
1.164252
1.1655496
1.1622298
1.0528191
1.0865958
1.0736492
1.0826099
1.078475
1.0822345
1.0811393
1.0831611
1.0833021
1.0846303
1.0853433
1.0864468
1.0874114
1.0884966
1.0895875
1.0907315
1.0919124
1.0931359
1.0944011
1.0957083
1.0970574
1.0984484
1.0998806
1.1013534
1.1028659
1.1044167
1.1060045
1.1076272
1.1092829
1.110969
1.1126828
1.1144213
1.1161809
1.1179582
1.119749
1.1215493
1.1233546
1.1251604
1.1269621
1.128755
1.1305343
1.1322953
1.1340336
1.1357448
1.1374246
1.1390691
1.1406748
1.1422382
1.1437565
1.1452271
1.1466476
1.1480163
1.1493316
1.1505923
1.1517974
1.1529463
1.1540385
1.155074
1.1560526
1.1569744
1.1578397
1.1586487
1.1594016
1.160099
1.1607413
1.1613291
1.1618634
1.1623461
1.1627798
1.1631679
1.1635146
1.1638252
1.1641052
1.1643544
1.1645646
1.1647594
1.1648282
1.1644078
1.1652075
1.1622797
1.0497055
1.0839293
1.0706068
1.0798748
1.0755943
1.0795573
1.0784323
1.0805754
1.0807583
1.0821704
1.0829583
1.0841394
1.0851908
1.08636
1.0875426
1.0887792
1.0900568
1.0913797
1.092747
1.0941588
1.0956148
1.0971144
1.0986568
1.1002409
1.1018654
1.1035286
1.1052284
1.1069625
1.1087283
1.1105227
1.1123424
1.1141835
1.1160422
1.1179142
1.1197948
1.1216792
1.1235627
1.1254401
1.1273064
1.1291566
1.1309856
1.1327888
1.1345615
1.1362993
1.1379984
1.139655
1.1412658
1.1428281
1.1443392
1.1457973
1.1472006
1.1485479
1.1498383
1.1510711
1.152246
1.153363
1.1544221
1.1554236
1.156368
1.1572557
1.1580872
1.1588632
1.1595843
1.1602512
1.1608646
1.1614256
1.1619353
1.162396
1.1628104
1.1631821
1.1635151
1.1638147
1.1640849
1.1643241
1.1645329
1.1647145
1.1647124
1.1644865
1.1649157
1.1623003
1.04692
1.0815112
1.067789
1.0774119
1.0729903
1.0771857
1.0760374
1.0783198
1.0785547
1.0800639
1.0809411
1.0822119
1.0833649
1.0846316
1.0859195
1.0872621
1.0886494
1.0900841
1.0915655
1.0930933
1.0946669
1.0962855
1.0979478
1.0996524
1.1013975
1.1031808
1.1049998
1.1068515
1.1087326
1.1106393
1.1125675
1.1145128
1.1164704
1.1184353
1.1204022
1.1223658
1.1243205
1.1262609
1.1281815
1.130077
1.1319424
1.1337727
1.1355636
1.1373109
1.139011
1.1406608
1.1422573
1.1437986
1.1452827
1.1467083
1.1480745
1.1493809
1.1506272
1.1518135
1.1529402
1.1540078
1.1550171
1.1559687
1.1568636
1.1577028
1.158487
1.1592171
1.1598942
1.1605192
1.1610929
1.1616167
1.1620921
1.1625214
1.1629074
1.1632537
1.1635646
1.1638447
1.1640969
1.1643202
1.1645179
1.1646699
1.164636
1.1644901
1.1646953
1.162254
1.0445061
1.0794756
1.0653468
1.0752721
1.0707218
1.0751858
1.0740298
1.0764565
1.0767657
1.0783788
1.0793641
1.0807346
1.0820032
1.0833787
1.0847831
1.0862423
1.0877493
1.0893057
1.0909109
1.0925643
1.094265
1.0960119
1.0978032
1.099637
1.1015108
1.1034217
1.1053664
1.107341
1.1093415
1.1113631
1.1134009
1.1154495
1.1175032
1.1195564
1.1216029
1.1236367
1.1256519
1.1276425
1.1296028
1.1315274
1.1334112
1.1352497
1.1370386
1.1387744
1.1404539
1.1420748
1.143635
1.1451331
1.1465682
1.1479399
1.1492482
1.1504933
1.151676
1.1527972
1.1538578
1.1548592
1.1558025
1.1566891
1.1575203
1.1582974
1.1590217
1.1596942
1.1603163
1.1608889
1.1614133
1.1618907
1.162323
1.1627124
1.1630618
1.163375
1.1636561
1.1639091
1.1641363
1.1643377
1.164515
1.1646315
1.1645733
1.1644644
1.1644901
1.1621929
1.042512
1.0778432
1.0633683
1.0735965
1.0689562
1.073635
1.0724729
1.0750588
1.0754634
1.077184
1.078291
1.0797658
1.0811576
1.0826491
1.0841776
1.0857623
1.0873984
1.0890869
1.0908268
1.0926172
1.0944566
1.0963433
1.0982747
1.1002481
1.1022602
1.1043071
1.1063845
1.1084874
1.1106108
1.1127487
1.1148953
1.1170441
1.1191885
1.121322
1.1234377
1.1255291
1.1275896
1.1296133
1.1315943
1.1335273
1.1354076
1.1372309
1.1389939
1.1406936
1.1423278
1.143895
1.1453943
1.1468253
1.1481881
1.1494833
1.1507119
1.1518752
1.1529748
1.1540122
1.1549894
1.1559081
1.1567702
1.1575774
1.1583315
1.1590341
1.1596868
1.1602909
1.1608477
1.1613586
1.1618248
1.1622476
1.1626288
1.1629707
1.1632762
1.1635489
1.1637928
1.1640115
1.1642068
1.1643793
1.1645276
1.1646035
1.1645192
1.1644268
1.1643
1.1621174
1.0409463
1.0766348
1.0618443
1.0724061
1.0676695
1.0725657
1.0714468
1.0741634
1.0746751
1.0764905
1.0777259
1.0793085
1.0808333
1.0824531
1.0841192
1.0858448
1.0876261
1.0894631
1.0913543
1.093298
1.0952919
1.0973332
1.0994185
1.1015439
1.103705
1.1058967
1.1081133
1.1103487
1.1125965
1.1148496
1.1171008
1.1193427
1.1215678
1.1237686
1.1259378
1.1280684
1.1301537
1.1321876
1.1341647
1.1360801
1.1379296
1.1397101
1.141419
1.1430544
1.1446154
1.1461017
1.1475136
1.148852
1.1501182
1.1513139
1.1524413
1.1535025
1.1545
1.1554362
1.1563137
1.1571347
1.1579016
1.1586166
1.1592818
1.1598989
1.1604699
1.1609961
1.1614791
1.1619201
1.1623205
1.1626815
1.1630048
1.1632927
1.1635479
1.1637737
1.163974
1.164152
1.1643091
1.1644464
1.164558
1.1645881
1.1644759
1.1643901
1.1641223
1.1620421
1.0397474
1.0757924
1.060713
1.0716547
1.0668282
1.071943
1.0708592
1.0737672
1.0743182
1.0762449
1.0776412
1.079357
1.0810408
1.0828145
1.0846424
1.0865326
1.0884821
1.0904898
1.0925535
1.0946704
1.0968373
1.0990501
1.1013043
1.1035944
1.1059146
1.1082584
1.1106186
1.1129876
1.1153574
1.1177198
1.1200662
1.1223882
1.1246775
1.126926
1.129126
1.1312704
1.1333529
1.1353676
1.1373099
1.1391758
1.1409623
1.1426674
1.14429
1.1458298
1.1472873
1.1486636
1.1499606
1.1511804
1.1523258
1.1533996
1.154405
1.1553451
1.1562232
1.1570423
1.1578056
1.1585158
1.1591756
1.1597875
1.1603538
1.1608765
1.1613574
1.1617981
1.1622001
1.1625647
1.1628931
1.1631865
1.1634465
1.1636749
1.1638744
1.1640481
1.1641995
1.1643313
1.164445
1.1645413
1.1646092
1.1645898
1.1644493
1.1643594
1.1639614
1.1619829
1.0389004
1.0752932
1.0599499
1.0713552
1.0663479
1.0716363
1.0706362
1.0736154
1.0744433
1.0765175
1.078106
1.0799809
1.0818497
1.0838046
1.0858203
1.0879011
1.090044
1.0922465
1.0945054
1.0968167
1.0991756
1.1015766
1.1040134
1.106479
1.1089658
1.1114653
1.1139686
1.1164666
1.1189497
1.1214082
1.1238325
1.1262133
1.1285418
1.1308095
1.133009
1.1351336
1.1371774
1.139136
1.1410058
1.1427844
1.1444704
1.1460636
1.1475647
1.1489753
1.1502975
1.1515342
1.1526888
1.153765
1.1547666
1.1556978
1.1565625
1.1573647
1.1581084
1.1587971
1.1594342
1.160023
1.1605664
1.1610668
1.1615267
1.1619481
1.1623328
1.1626824
1.1629983
1.1632816
1.1635334
1.1637549
1.1639473
1.1641123
1.1642522
1.1643697
1.164468
1.1645496
1.1646158
1.1646664
1.1646854
1.1646151
1.1644468
1.1643359
1.1638216
1.1619584
1.038435
1.075167
1.0595864
1.0714214
1.0662726
1.0719453
1.0709748
1.0741224
1.0751625
1.0773872
1.0791995
1.081263
1.0833451
1.085511
1.0877433
1.0900429
1.0924058
1.0948284
1.0973057
1.0998321
1.1024009
1.1050047
1.107635
1.1102827
1.1129379
1.1155902
1.1182288
1.1208426
1.1234206
1.125952
1.1284263
1.1308338
1.1331655
1.1354134
1.1375708
1.1396321
1.141593
1.1434508
1.145204
1.1468521
1.1483963
1.1498383
1.1511811
1.1524282
1.1535839
1.1546526
1.1556393
1.156549
1.1573867
1.1581574
1.1588659
1.1595168
1.1601144
1.1606625
1.1611649
1.1616248
1.1620452
1.1624285
1.1627772
1.163093
1.1633777
1.1636328
1.1638594
1.1640585
1.1642311
1.1643779
1.1645001
1.164599
1.1646766
1.1647353
1.1647779
1.1648067
1.1648227
1.1648242
1.1647912
1.1646716
1.1644762
1.1643248
1.1637106
1.1619843
1.0384235
1.0754896
1.0596786
1.0717349
1.0667018
1.0725131
1.0719031
1.0752268
1.0765359
1.0789402
1.0810115
1.0832986
1.0856253
1.088035
1.0905148
1.0930628
1.0956738
1.0983421
1.1010607
1.1038215
1.1066154
1.1094323
1.1122612
1.1150904
1.1179073
1.1206995
1.123454
1.1261583
1.1287999
1.1313675
1.1338502
1.1362386
1.1385245
1.1407012
1.1427637
1.1447086
1.1465341
1.1482399
1.1498273
1.1512988
1.1526578
1.153909
1.1550575
1.156109
1.1570695
1.1579451
1.1587421
1.1594665
1.1601243
1.1607211
1.1612621
1.1617523
1.162196
1.1625974
1.16296
1.1632869
1.1635811
1.1638449
1.1640802
1.1642889
1.1644724
1.1646319
1.1647683
1.1648823
1.1649747
1.165046
1.165097
1.1651287
1.1651429
1.1651416
1.1651273
1.1651022
1.1650669
1.1650173
1.1649318
1.1647668
1.1645442
1.1643371
1.1636406
1.1620733
1.0389532
1.07634
1.0603321
1.0726715
1.0678281
1.0739178
1.0735353
1.077037
1.0786656
1.0812772
1.083642
1.0861913
1.0887977
1.091487
1.0942484
1.0970772
1.0999657
1.1029054
1.1058864
1.1088974
1.111926
1.1149588
1.1179818
1.1209801
1.1239388
1.1268431
1.1296784
1.1324309
1.1350877
1.1376375
1.1400703
1.1423782
1.1445549
1.1465966
1.148501
1.1502681
1.1518996
1.1533984
1.1547693
1.1560179
1.1571504
1.1581741
1.1590962
1.1599244
1.1606662
1.1613291
1.1619201
1.1624461
1.1629135
1.1633281
1.1636954
1.1640202
1.1643069
1.1645593
1.1647809
1.1649745
1.1651427
1.1652874
1.1654104
1.165513
1.1655965
1.1656616
1.165709
1.1657391
1.1657524
1.165749
1.1657295
1.1656947
1.1656458
1.1655848
1.1655142
1.1654358
1.1653493
1.1652485
1.1651123
1.1649067
1.1646548
1.1643848
1.1636317
1.1622347
1.040019
1.0777228
1.061546
1.0743082
1.0696302
1.075957
1.0759257
1.0796241
1.0816331
1.0844957
1.0871957
1.0900544
1.092983
1.0959937
1.0990754
1.1022197
1.1054152
1.1086497
1.111909
1.1151778
1.1184398
1.1216779
1.1248744
1.1280118
1.1310727
1.1340404
1.1368995
1.1396361
1.1422381
1.144696
1.1470022
1.1491521
1.1511433
1.1529759
1.154652
1.1561759
1.1575533
1.1587913
1.1598979
1.1608818
1.1617522
1.1625182
1.163189
1.1637737
1.1642808
1.1647184
1.1650942
1.1654153
1.1656879
1.1659179
1.1661106
1.1662704
1.1664014
1.1665071
1.1665903
1.1666536
1.1666991
1.1667282
1.1667424
1.1667427
1.1667296
1.1667039
1.1666656
1.166615
1.166552
1.1664767
1.1663892
1.16629
1.1661802
1.1660616
1.1659367
1.1658069
1.1656704
1.1655202
1.1653374
1.1650966
1.1648133
1.164479
1.1637005
1.1624794
1.041674
1.0796876
1.0633789
1.0765917
1.0721903
1.078778
1.0791803
1.0831006
1.0855536
1.0887236
1.0918081
1.0950318
1.0983325
1.1017114
1.1051541
1.108647
1.112174
1.1157176
1.1192587
1.1227772
1.1262525
1.1296632
1.1329887
1.1362086
1.1393042
1.1422584
1.1450567
1.1476871
1.1501409
1.1524123
1.154499
1.1564013
1.1581224
1.1596678
1.1610449
1.1622627
1.1633313
1.1642614
1.1650643
1.1657513
1.1663334
1.1668215
1.1672259
1.1675562
1.1678214
1.1680297
1.1681888
1.1683054
1.1683854
1.1684343
1.1684568
1.1684567
1.1684377
1.1684025
1.1683536
1.1682929
1.1682218
1.1681416
1.168053
1.1679566
1.1678527
1.1677415
1.1676227
1.1674963
1.1673618
1.1672189
1.1670675
1.1669078
1.1667408
1.1665683
1.1663927
1.1662147
1.1660311
1.1658348
1.1656112
1.1653404
1.1650243
1.1646304
1.1638597
1.1628188
1.0439781
1.0822941
1.0659431
1.0796495
1.0756168
1.0824714
1.0834162
1.0876022
1.0905717
1.094125
1.0976561
1.101309
1.1050366
1.1088299
1.112669
1.116534
1.1204026
1.1242512
1.128055
1.1317886
1.1354266
1.1389442
1.1423183
1.1455279
1.1485549
1.151385
1.1540075
1.1564158
1.1586075
1.1605837
1.1623489
1.1639105
1.1652782
1.1664635
1.1674792
1.1683385
1.1690555
1.1696438
1.1701168
1.1704876
1.1707683
1.1709703
1.1711041
1.1711795
1.171205
1.1711884
1.1711368
1.1710561
1.1709518
1.1708284
1.1706897
1.1705392
1.1703794
1.1702127
1.1700407
1.1698648
1.1696858
1.1695045
1.1693211
1.1691357
1.1689483
1.1687586
1.168566
1.1683701
1.1681702
1.1679656
1.167756
1.1675413
1.1673224
1.1671013
1.16688
1.1666582
1.1664316
1.1661945
1.1659371
1.1656409
1.1652915
1.164849
1.1641194
1.1632588
1.046989
1.0855737
1.0693675
1.0835549
1.0800293
1.0871792
1.0888012
1.093329
1.0968996
1.1009271
1.1049731
1.1091182
1.1133216
1.117564
1.1218187
1.1260578
1.1302517
1.1343694
1.1383795
1.1422514
1.1459561
1.1494675
1.1527632
1.1558255
1.1586418
1.1612046
1.1635115
1.1655651
1.1673718
1.1689419
1.170288
1.171425
1.172369
1.1731369
1.1737457
1.1742121
1.1745524
1.1747821
1.1749155
1.174966
1.1749458
1.1748659
1.1747365
1.1745662
1.1743629
1.1741335
1.1738838
1.1736191
1.1733436
1.1730609
1.1727742
1.1724857
1.1721975
1.171911
1.1716273
1.171347
1.1710705
1.1707979
1.1705291
1.1702637
1.1700013
1.1697412
1.1694827
1.1692249
1.1689668
1.1687075
1.1684465
1.1681835
1.1679193
1.1676561
1.1673952
1.1671351
1.1668715
1.1666008
1.1663171
1.1659993
1.1656182
1.1651424
1.1644849
1.1637994
1.0507789
1.0895359
1.0737804
1.0884621
1.0856376
1.093149
1.0955998
1.1005652
1.1048188
1.1094093
1.1140316
1.1187195
1.1234308
1.1281349
1.1327951
1.1373735
1.1418308
1.1461282
1.1502291
1.1541005
1.1577143
1.1610487
1.1640887
1.166826
1.1692591
1.1713925
1.1732359
1.1748031
1.1761113
1.1771796
1.1780286
1.1786796
1.1791534
1.1794706
1.1796507
1.1797119
1.1796712
1.1795442
1.1793449
1.1790859
1.1787785
1.1784325
1.1780566
1.1776585
1.1772445
1.1768203
1.1763906
1.1759592
1.1755295
1.175104
1.1746847
1.1742733
1.1738708
1.173478
1.1730953
1.1727227
1.1723601
1.1720071
1.1716631
1.1713275
1.1709994
1.1706779
1.1703619
1.1700503
1.1697419
1.1694357
1.1691308
1.168827
1.1685251
1.168227
1.1679334
1.1676416
1.1673482
1.1670528
1.1667507
1.1664151
1.1660062
1.1655155
1.1649546
1.164434
1.0555419
1.0943325
1.079419
1.0947011
1.0927757
1.1007123
1.1041365
1.1096367
1.1146432
1.1198769
1.1251266
1.1303889
1.1356115
1.1407482
1.1457487
1.1505631
1.1551442
1.1594496
1.1634438
1.1670998
1.1703998
1.1733352
1.175906
1.1781201
1.1799919
1.1815406
1.1827892
1.1837627
1.1844876
1.1849905
1.1852973
1.1854328
1.1854205
1.185282
1.185037
1.1847035
1.1842975
1.1838332
1.183323
1.182778
1.1822076
1.18162
1.1810222
1.1804201
1.1798186
1.179222
1.1786334
1.1780557
1.1774909
1.1769406
1.176406
1.1758877
1.1753861
1.1749012
1.1744329
1.1739807
1.1735439
1.1731217
1.1727132
1.1723174
1.1719332
1.1715594
1.1711946
1.1708377
1.1704872
1.170142
1.169801
1.1694641
1.1691323
1.1688068
1.1684873
1.1681709
1.1678559
1.1675451
1.1672329
1.1668845
1.1664563
1.1659707
1.1655195
1.1651485
1.0615602
1.1005453
1.0866772
1.1026089
1.1017907
1.1101954
1.1147441
1.1209007
1.1267321
1.1326817
1.1385875
1.1444102
1.1500794
1.1555307
1.1607018
1.1655373
1.1699919
1.174032
1.1776369
1.1807981
1.1835189
1.1858127
1.1877003
1.189209
1.1903697
1.1912154
1.1917799
1.1920968
1.1921979
1.1921136
1.1918717
1.1914976
1.1910143
1.190442
1.189799
1.1891009
1.1883615
1.1875927
1.1868046
1.1860061
1.1852043
1.1844054
1.1836146
1.182836
1.182073
1.1813282
1.1806037
1.1799011
1.1792212
1.1785649
1.1779323
1.1773234
1.1767379
1.1761753
1.1756348
1.1751154
1.1746162
1.1741359
1.1736734
1.1732274
1.1727965
1.1723793
1.1719744
1.1715803
1.1711957
1.1708192
1.1704498
1.1700873
1.1697327
1.1693867
1.1690479
1.1687136
1.1683852
1.1680679
1.1677525
1.1673972
1.166964
1.1665071
1.166168
1.1659224
1.0690174
1.108707
1.0957598
1.1124227
1.1130598
1.122023
1.1278674
1.1348338
1.1415478
1.1482326
1.1547363
1.160985
1.1668922
1.1723853
1.1774052
1.1819101
1.1858762
1.1892969
1.192181
1.1945502
1.1964356
1.1978752
1.1989112
1.199587
1.1999463
1.200031
1.1998807
1.1995317
1.1990171
1.1983666
1.1976065
1.1967597
1.1958463
1.1948837
1.1938867
1.1928679
1.191838
1.1908061
1.1897796
1.1887649
1.1877668
1.1867896
1.1858365
1.18491
1.184012
1.1831437
1.1823061
1.1814996
1.1807244
1.1799802
1.1792665
1.1785827
1.177928
1.1773011
1.1767011
1.1761265
1.175576
1.1750482
1.1745416
1.1740547
1.173586
1.173134
1.172697
1.1722736
1.1718622
1.1714615
1.1710706
1.1706894
1.1703184
1.1699577
1.1696052
1.1692593
1.1689248
1.168608
1.1682937
1.1679358
1.1675122
1.167112
1.1668833
1.1667303
1.0780543
1.1186907
1.1072841
1.1246901
1.1272336
1.1368938
1.1441596
1.1520364
1.159578
1.166847
1.1736886
1.1800119
1.1857377
1.190814
1.1952142
1.198936
1.2019977
1.2044339
1.2062911
1.2076228
1.2084863
1.2089392
1.2090376
1.2088342
1.2083775
1.2077112
1.2068743
1.2059011
1.2048212
1.2036603
1.2024404
1.2011801
1.1998951
1.1985986
1.1973016
1.1960132
1.1947408
1.1934905
1.1922672
1.1910747
1.1899159
1.188793
1.1877077
1.1866609
1.1856532
1.1846848
1.1837556
1.1828651
1.1820127
1.1811974
1.1804183
1.179674
1.1789633
1.1782847
1.1776367
1.1770178
1.1764262
1.1758604
1.1753187
1.1747996
1.1743012
1.1738219
1.1733601
1.1729143
1.1724829
1.1720645
1.1716582
1.1712639
1.1708819
1.1705112
1.1701498
1.169798
1.1694636
1.1691517
1.1688408
1.1684843
1.1680823
1.1677554
1.1676354
1.1675374
1.0894262
1.1314191
1.1221625
1.1403712
1.1452722
1.1557099
1.1643236
1.1729832
1.1810239
1.1884204
1.1950461
1.2008392
1.2057707
1.2098471
1.2131026
1.2155922
1.2173848
1.2185564
1.2191853
1.219348
1.2191166
1.2185571
1.2177287
1.2166836
1.2154673
1.2141188
1.2126713
1.2111528
1.2095869
1.2079933
1.2063882
1.2047849
1.2031944
1.2016255
1.2000854
1.1985797
1.1971127
1.1956879
1.1943078
1.192974
1.1916877
1.1904495
1.1892596
1.1881177
1.1870235
1.1859761
1.1849745
1.1840177
1.1831043
1.1822329
1.181402
1.18061
1.1798551
1.1791358
1.1784501
1.1777963
1.1771726
1.1765772
1.1760083
1.1754643
1.1749432
1.1744434
1.1739632
1.173501
1.1730552
1.1726244
1.1722078
1.1718052
1.1714164
1.1710397
1.1706735
1.1703207
1.1699905
1.1696855
1.1693792
1.1690295
1.1686603
1.1684135
1.1683883
1.1683189
1.1047174
1.1479992
1.1416811
1.160542
1.1681454
1.1792401
1.1887082
1.1975692
1.2053704
1.2120888
1.2176883
1.2221932
1.2256634
1.2281864
1.2298646
1.2308068
1.2311207
1.2309077
1.2302609
1.2292626
1.2279848
1.2264891
1.2248279
1.2230449
1.2211765
1.2192528
1.2172985
1.2153335
1.2133742
1.2114337
1.2095223
1.2076482
1.205818
1.2040365
1.2023073
1.2006332
1.1990159
1.1974565
1.1959555
1.194513
1.1931287
1.1918018
1.1905314
1.1893165
1.1881555
1.1870472
1.1859898
1.1849818
1.1840213
1.1831065
1.1822356
1.1814066
1.1806176
1.1798667
1.179152
1.1784713
1.177823
1.1772051
1.1766157
1.176053
1.1755151
1.1750003
1.1745068
1.1740331
1.1735775
1.1731386
1.1727158
1.1723086
1.1719161
1.1715365
1.1711692
1.1708191
1.1704958
1.1701983
1.1698974
1.1695602
1.1692312
1.1690597
1.1691071
1.1690495
1.1254076
1.1697336
1.1672718
1.1862169
1.1962196
1.2074249
1.2167064
1.2246646
1.2311322
1.236176
1.2398928
1.2424219
1.2439176
1.2445373
1.2444303
1.2437324
1.2425631
1.2410252
1.2392051
1.237175
1.2349938
1.2327097
1.2303617
1.2279809
1.2255923
1.2232157
1.2208666
1.2185571
1.2162965
1.214092
1.2119489
1.2098709
1.2078607
1.2059199
1.2040495
1.2022496
1.2005202
1.1988604
1.1972694
1.1957458
1.1942883
1.1928951
1.1915645
1.1902946
1.1890836
1.1879294
1.1868299
1.1857831
1.1847869
1.1838392
1.1829379
1.1820808
1.1812659
1.180491
1.1797542
1.1790534
1.1783865
1.1777518
1.1771471
1.1765707
1.1760207
1.1754952
1.1749927
1.1745112
1.1740493
1.1736057
1.1731796
1.1727702
1.1723763
1.1719961
1.1716304
1.1712854
1.1709697
1.1706788
1.1703843
1.1700645
1.1697782
1.1696687
1.1697622
1.1697085
1.1541403
1.1974184
1.2000184
1.2182836
1.2286457
1.2386151
1.2462925
1.2520768
1.2560979
1.258597
1.2598125
1.2599786
1.259306
1.2579778
1.2561483
1.2539443
1.2514688
1.2488042
1.2460158
1.2431548
1.2402614
1.2373666
1.2344944
1.231663
1.2288864
1.2261748
1.2235358
1.2209748
1.2184953
1.2160997
1.2137893
1.2115644
1.2094247
1.2073694
1.2053974
1.2035072
1.201697
1.1999649
1.1983088
1.1967265
1.1952158
1.1937743
1.1923997
1.1910897
1.1898418
1.1886537
1.187523
1.1864474
1.1854246
1.1844523
1.1835282
1.18265
1.1818156
1.1810228
1.1802694
1.1795534
1.1788728
1.1782256
1.1776099
1.1770236
1.1764649
1.175932
1.1754232
1.1749368
1.1744711
1.174025
1.1735974
1.1731874
1.1727934
1.1724142
1.1720515
1.171712
1.1714025
1.1711161
1.170828
1.1705282
1.1702819
1.1702162
1.1703294
1.1702831
1.1934607
1.2328618
1.2386959
1.2541562
1.2633781
1.2703531
1.2747758
1.2771984
1.2779854
1.2775059
1.2760624
1.2739048
1.2712319
1.2681991
1.2649264
1.2615053
1.2580053
1.2544784
1.2509638
1.2474901
1.2440786
1.2407444
1.2374986
1.2343484
1.2312988
1.2283526
1.2255112
1.2227749
1.2201432
1.2176148
1.215188
1.2128607
1.2106306
1.2084952
1.206452
1.204498
1.2026306
1.200847
1.1991444
1.1975198
1.1959706
1.1944939
1.193087
1.1917472
1.1904719
1.1892584
1.1881043
1.1870068
1.1859637
1.1849725
1.1840308
1.1831363
1.1822867
1.1814799
1.1807136
1.1799859
1.1792946
1.1786378
1.1780134
1.1774196
1.1768544
1.176316
1.1758027
1.1753127
1.1748444
1.1743967
1.1739684
1.1735582
1.1731644
1.1727865
1.1724269
1.1720918
1.1717858
1.1715012
1.1712188
1.1709383
1.1707241
1.170681
1.1707903
1.1707546
1.2415339
1.2743656
1.2816003
1.2914853
1.2964321
1.2987867
1.2989437
1.2975583
1.2950678
1.2918211
1.2880731
1.2840113
1.2797715
1.2754513
1.2711201
1.266827
1.2626066
1.2584824
1.2544703
1.2505806
1.2468196
1.2431905
1.2396945
1.2363311
1.2330988
1.2299954
1.227018
1.2241635
1.2214285
1.2188094
1.2163025
1.2139042
1.2116108
1.2094187
1.2073244
1.2053243
1.203415
1.2015931
1.1998554
1.1981985
1.1966195
1.1951152
1.1936826
1.192319
1.1910213
1.1897869
1.1886132
1.1874973
1.1864369
1.1854294
1.1844725
1.1835637
1.1827008
1.1818815
1.1811037
1.1803654
1.1796645
1.178999
1.178367
1.1777664
1.1771953
1.1766519
1.1761343
1.1756408
1.17517
1.1747204
1.1742909
1.1738799
1.1734859
1.1731085
1.1727507
1.1724176
1.1721118
1.1718261
1.1715471
1.1712822
1.17109
1.1710519
1.1711414
1.1711122
1.296109
1.3169506
1.3215513
1.3239379
1.3231352
1.3204597
1.3165314
1.3118442
1.3067222
1.3013849
1.2959777
1.2905962
1.2853028
1.2801371
1.2751238
1.2702771
1.2656045
1.2611086
1.2567891
1.2526436
1.2486684
1.2448587
1.2412095
1.2377155
1.234371
1.2311706
1.228109
1.2251807
1.2223807
1.219704
1.2171458
1.2147015
1.2123666
1.2101369
1.2080082
1.2059765
1.2040382
1.2021894
1.2004266
1.1987464
1.1971455
1.1956207
1.1941688
1.192787
1.1914721
1.1902215
1.1890323
1.1879019
1.1868276
1.1858071
1.1848377
1.1839173
1.1830434
1.1822139
1.1814266
1.1806796
1.1799708
1.1792983
1.1786601
1.1780542
1.1774785
1.1769311
1.1764101
1.1759138
1.1754406
1.1749893
1.1745585
1.1741464
1.1737516
1.1733743
1.173017
1.1726839
1.1723759
1.1720865
1.1718079
1.1715528
1.1713725
1.171327
1.1713872
1.1713666
1.3494495
1.352781
1.3515506
1.3470485
1.3411633
1.334526
1.3276049
1.3206439
1.3137905
1.3071247
1.3006898
1.2945063
1.2885813
1.282914
1.2774989
1.2723278
1.2673913
1.2626792
1.2581814
1.2538879
1.2497888
1.2458751
1.2421378
1.2385687
1.2351599
1.231904
1.2287942
1.2258239
1.2229869
1.2202775
1.2176901
1.2152197
1.2128612
1.21061
1.2084617
1.2064121
1.2044571
1.2025929
1.2008157
1.1991221
1.1975085
1.1959718
1.1945087
1.1931161
1.1917911
1.1905309
1.1893325
1.1881934
1.1871109
1.1860825
1.1851057
1.1841781
1.1832975
1.1824617
1.1816686
1.1809163
1.1802028
1.1795262
1.1788846
1.1782758
1.1776978
1.1771486
1.1766259
1.1761281
1.1756534
1.1752006
1.1747683
1.1743548
1.1739588
1.1735803
1.1732218
1.1728865
1.172574
1.1722791
1.1719979
1.1717459
1.1715678
1.171508
1.1715406
1.171526
1.3837821
1.3761429
1.3685431
1.3602072
1.3515446
1.3429733
1.3346609
1.3266826
1.3190672
1.3118181
1.3049269
1.298379
1.2921569
1.2862428
1.2806189
1.275268
1.2701741
1.2653222
1.2606984
1.2562899
1.252085
1.2480726
1.2442428
1.2405862
1.2370943
1.233759
1.230573
1.2275293
1.2246216
1.2218438
1.2191902
1.2166555
1.2142347
1.211923
1.209716
1.2076093
1.205599
1.203681
1.2018518
1.2001076
1.1984451
1.1968609
1.1953519
1.1939151
1.1925473
1.1912458
1.1900077
1.1888303
1.187711
1.1866472
1.1856364
1.1846764
1.1837647
1.1828993
1.1820781
1.1812991
1.1805605
1.1798604
1.1791967
1.1785676
1.1779708
1.1774041
1.1768652
1.1763522
1.1758633
1.175397
1.1749519
1.1745266
1.1741198
1.1737317
1.1733644
1.1730204
1.1726992
1.1723967
1.1721086
1.171852
1.1716694
1.1715985
1.1716155
1.1716039
1.1663708
1.170894
1.1855061
1.1974774
1.2030083
1.2042752
1.2043433
1.2040136
1.2040465
1.2037563
1.203506
1.2029455
1.2023578
1.2017011
1.2010068
1.2002738
1.1995044
1.1987045
1.1978789
1.1970318
1.1961672
1.1952886
1.1943993
1.1935021
1.1925998
1.1916949
1.1907894
1.1898854
1.1889848
1.1880894
1.1872007
1.1863203
1.1854496
1.1845901
1.183743
1.1829096
1.1820912
1.1812889
1.1805041
1.1797379
1.1789914
1.1782658
1.1775624
1.1768821
1.1762263
1.1755958
1.1749918
1.1744153
1.1738672
1.1733482
1.1728592
1.1724005
1.1719726
1.1715756
1.1712094
1.1708736
1.1705677
1.1702905
1.1700409
1.1698171
1.1696168
1.1694374
1.1692761
1.1691294
1.1689943
1.1688656
1.1687417
1.1686098
1.1684826
1.1683076
1.1681778
1.1678898
1.1678068
1.1672561
1.1674092
1.1664962
1.1671152
1.1658683
1.1669015
1.1650112
1.1620778
1.1728702
1.1892936
1.1976908
1.1999586
1.1998639
1.1993354
1.1990863
1.1987676
1.1984635
1.1980667
1.1976702
1.1972236
1.1967432
1.1962223
1.1956685
1.1950832
1.1944693
1.1938292
1.1931653
1.1924799
1.1917753
1.1910538
1.1903177
1.1895692
1.1888106
1.1880438
1.1872712
1.1864947
1.1857162
1.1849378
1.1841613
1.1833886
1.1826214
1.1818614
1.1811103
1.1803698
1.1796414
1.1789268
1.1782274
1.1775447
1.1768803
1.1762355
1.1756118
1.1750105
1.1744329
1.1738802
1.1733536
1.172854
1.1723825
1.1719399
1.1715266
1.1711432
1.1707898
1.1704664
1.1701725
1.1699075
1.1696703
1.1694597
1.1692737
1.1691099
1.1689657
1.1688382
1.1687238
1.1686192
1.1685196
1.1684229
1.1683175
1.1682137
1.1680649
1.1679528
1.1676921
1.16762
1.167111
1.1672688
1.166405
1.1670387
1.1657998
1.1668826
1.1649021
1.1624582
1.1759025
1.187756
1.1941712
1.195138
1.1946546
1.1941431
1.1938815
1.1935863
1.1933022
1.1929688
1.1926319
1.1922596
1.1918738
1.1914605
1.1910273
1.1905707
1.1900927
1.1895935
1.1890739
1.188535
1.1879777
1.1874033
1.186813
1.1862083
1.1855906
1.1849615
1.1843226
1.1836757
1.1830223
1.1823644
1.1817036
1.1810417
1.1803807
1.1797222
1.1790681
1.1784202
1.1777804
1.1771503
1.1765317
1.1759264
1.1753362
1.1747625
1.1742071
1.1736716
1.1731574
1.1726659
1.1721984
1.1717563
1.1713404
1.1709518
1.170591
1.1702587
1.169955
1.1696799
1.169433
1.1692137
1.1690209
1.1688531
1.1687085
1.1685846
1.1684786
1.1683875
1.1683078
1.168236
1.1681674
1.1680997
1.1680221
1.1679433
1.1678213
1.167729
1.1674941
1.167437
1.1669658
1.1671336
1.1663123
1.1669629
1.1657311
1.1668593
1.1647943
1.1601119
1.1745904
1.1853575
1.1900998
1.1899237
1.1895326
1.1890858
1.1888856
1.1885662
1.1883129
1.1879984
1.1877138
1.1873968
1.1870833
1.1867491
1.1864059
1.1860471
1.1856752
1.1852886
1.1848871
1.1844709
1.1840397
1.1835939
1.1831338
1.18266
1.1821732
1.1816742
1.181164
1.1806439
1.1801149
1.1795787
1.1790365
1.1784899
1.1779407
1.1773904
1.1768408
1.1762937
1.1757509
1.1752143
1.1746857
1.174167
1.1736599
1.1731664
1.1726882
1.172227
1.1717844
1.1713621
1.1709615
1.1705839
1.1702305
1.1699024
1.1696003
1.1693247
1.1690761
1.1688543
1.168659
1.1684896
1.1683449
1.1682235
1.1681235
1.1680424
1.1679772
1.1679249
1.1678819
1.1678447
1.1678088
1.1677715
1.1677229
1.1676704
1.1675756
1.1675043
1.1672949
1.1672557
1.1668193
1.1670017
1.1662176
1.1668896
1.165662
1.166832
1.1646879
1.1543894
1.170951
1.180879
1.1844391
1.1838831
1.1837968
1.1834324
1.1833712
1.1831263
1.1829909
1.1827674
1.1825915
1.1823721
1.1821655
1.1819363
1.1817024
1.1814536
1.1811941
1.1809217
1.1806362
1.1803376
1.1800255
1.1797001
1.1793613
1.1790095
1.1786449
1.1782682
1.1778799
1.1774808
1.1770718
1.176654
1.1762284
1.1757964
1.1753593
1.1749186
1.174476
1.1740329
1.1735913
1.1731528
1.1727193
1.1722926
1.1718747
1.1714674
1.1710726
1.170692
1.1703275
1.1699806
1.1696529
1.1693459
1.1690608
1.1687988
1.1685606
1.1683468
1.1681579
1.1679939
1.1678544
1.1677387
1.1676457
1.167574
1.1675216
1.1674859
1.1674639
1.1674525
1.1674483
1.1674475
1.1674457
1.1674401
1.1674216
1.1673962
1.167329
1.1672801
1.1670965
1.1670763
1.1666733
1.1668729
1.1661228
1.1668176
1.1655927
1.1668017
1.1645821
1.1482376
1.1673443
1.1758678
1.1787895
1.1780806
1.1782542
1.1779342
1.1780121
1.1778323
1.1778098
1.1776679
1.1775943
1.1774647
1.1773568
1.1772231
1.1770878
1.1769375
1.176778
1.1766069
1.1764244
1.1762304
1.1760246
1.1758069
1.1755773
1.1753357
1.1750825
1.1748177
1.1745417
1.1742551
1.1739583
1.1736523
1.1733377
1.1730157
1.1726873
1.1723538
1.1720165
1.171677
1.1713368
1.1709976
1.1706611
1.1703292
1.1700035
1.169686
1.1693785
1.1690828
1.1688006
1.1685338
1.1682837
1.168052
1.1678399
1.1676485
1.1674787
1.1673311
1.167206
1.1671036
1.1670235
1.1669649
1.1669268
1.1669077
1.1669055
1.1669175
1.1669409
1.1669724
1.1670086
1.1670456
1.1670793
1.1671065
1.1671189
1.1671215
1.1670821
1.1670569
1.1668997
1.1668987
1.1665287
1.1667467
1.1660285
1.1667469
1.1655232
1.1667691
1.1644767
1.1428919
1.1639109
1.1709157
1.1735354
1.1727203
1.1730987
1.172786
1.1729755
1.1728349
1.1729015
1.1728227
1.1728368
1.1727826
1.1727529
1.1726933
1.1726377
1.1725685
1.1724933
1.1724086
1.1723148
1.1722116
1.1720985
1.1719753
1.1718418
1.1716979
1.1715437
1.171379
1.1712042
1.1710195
1.1708253
1.1706221
1.1704106
1.1701914
1.1699656
1.1697341
1.1694982
1.169259
1.169018
1.1687768
1.1685368
1.1682997
1.1680671
1.167841
1.1676228
1.1674145
1.1672177
1.167034
1.166865
1.1667121
1.1665766
1.1664595
1.1663617
1.1662837
1.166226
1.1661885
1.1661709
1.1661724
1.1661919
1.1662279
1.1662782
1.1663401
1.1664107
1.1664868
1.1665647
1.1666409
1.1667111
1.1667722
1.1668162
1.1668472
1.1668358
1.1668349
1.1667053
1.1667239
1.166386
1.1666228
1.1659353
1.1666772
1.1654537
1.1667349
1.1643713
1.1379212
1.1607981
1.166263
1.1687632