/*--------------------------------*- C++ -*----------------------------------*\
  =========                 |
  \\      /  F ield         | OpenFOAM: The Open Source CFD Toolbox
   \\    /   O peration     | Website:  https://openfoam.org
    \\  /    A nd           | Version:  12
     \\/     M anipulation  |
\*---------------------------------------------------------------------------*/
FoamFile
{
    format      ascii;
    class       volScalarField;
    location    "0.148";
    object      alphat;
}
// * * * * * * * * * * * * * * * * * * * * * * * * * * * * * * * * * * * * * //

dimensions      [1 -1 -1 0 0 0 0];

internalField   nonuniform List<scalar> 
16000
(
4.8575733e-07
1.0774162e-05
2.0223453e-05
2.5578457e-05
1.9752798e-05
2.7145186e-05
1.9201516e-05
2.6288386e-05
2.0553561e-05
2.8284476e-05
2.3862613e-05
2.8014632e-05
2.5580334e-05
2.627184e-05
2.5410086e-05
2.5286092e-05
2.5045075e-05
2.4996423e-05
2.5033308e-05
2.5177561e-05
2.5421699e-05
2.5765128e-05
2.6205481e-05
2.6743121e-05
2.7380774e-05
2.8125208e-05
2.8985529e-05
2.9976109e-05
3.1114432e-05
3.241935e-05
3.3911586e-05
3.5618601e-05
3.7575806e-05
3.9826842e-05
4.2425417e-05
4.5435655e-05
4.8934012e-05
5.3011738e-05
5.7781837e-05
6.3384393e-05
6.9983977e-05
7.7774615e-05
8.7000962e-05
9.7962837e-05
0.00011101727
0.00012659267
0.00014522024
0.00016754744
0.00019436272
0.00022662705
0.00026551666
0.00031247421
0.00036926306
0.0004380436
0.00052146387
0.00062278321
0.00074602565
0.00089618097
0.0010794809
0.0011802438
0.0011809594
0.0011815534
0.0011820387
0.0011823715
0.0011825514
0.0011825688
0.0011824182
0.0011820986
0.0011816137
0.0011809663
0.0011801397
0.0011790764
0.001177763
0.0011765398
0.0011755578
0.0011746222
0.0011734967
0.0011727455
0.0011721507
0.0011717066
4.4530901e-07
1.0207359e-05
2.125868e-05
2.3213271e-05
1.7801717e-05
2.4323422e-05
1.7029895e-05
2.3018029e-05
1.8146546e-05
2.4984745e-05
2.1592837e-05
2.5250758e-05
2.3379766e-05
2.3793716e-05
2.3123938e-05
2.2944072e-05
2.2745916e-05
2.2691306e-05
2.2728344e-05
2.2860935e-05
2.308701e-05
2.3405606e-05
2.3814995e-05
2.4315588e-05
2.4909588e-05
2.5603326e-05
2.640472e-05
2.7326738e-05
2.8385918e-05
2.9600628e-05
3.0990158e-05
3.2579617e-05
3.4401781e-05
3.6497072e-05
3.8915748e-05
4.1718115e-05
4.4976549e-05
4.8776817e-05
5.3224217e-05
5.8451391e-05
6.4616484e-05
7.1902196e-05
8.053895e-05
9.0812612e-05
0.00010306608
0.00011770657
0.0001352408
0.00015628852
0.00018160613
0.0002121162
0.00024894837
0.00029349207
0.00034744818
0.00041290463
0.0004924232
0.00058916066
0.00070701949
0.00085083383
0.001026622
0.0011797128
0.0011804447
0.0011810051
0.0011814668
0.0011817792
0.0011819415
0.0011819445
0.0011817831
0.001181457
0.0011809692
0.0011803205
0.0011794975
0.0011784505
0.0011771579
0.0011759749
0.00117503
0.0011741043
0.0011730315
0.0011721496
0.001171666
0.0011714344
3.9158834e-07
9.7635639e-06
2.0091366e-05
2.1138699e-05
1.5921019e-05
2.1406834e-05
1.5148332e-05
1.9998317e-05
1.630125e-05
2.1910864e-05
1.9670287e-05
2.2470715e-05
2.1162368e-05
2.129602e-05
2.0785269e-05
2.058263e-05
2.0418968e-05
2.0369747e-05
2.0409548e-05
2.0535598e-05
2.0747278e-05
2.1044029e-05
2.1424459e-05
2.1889228e-05
2.2440138e-05
2.3083289e-05
2.3825772e-05
2.4679351e-05
2.5659442e-05
2.6783938e-05
2.8071156e-05
2.954434e-05
3.123409e-05
3.317805e-05
3.5423418e-05
3.8026992e-05
4.1057535e-05
4.4596507e-05
4.8742724e-05
5.3621399e-05
5.9385399e-05
6.6208692e-05
7.4309495e-05
8.3960649e-05
9.5493769e-05
0.00010929888
0.00012586208
0.00014577985
0.00016978186
0.0001987594
0.00023380348
0.00027625948
0.00032777628
0.00039038194
0.00046656704
0.00055940285
0.0006726906
0.00081114354
0.00098061939
0.0011793505
0.0011800854
0.0011805941
0.0011810115
0.0011812846
0.001181412
0.0011813844
0.0011811969
0.0011808495
0.0011803451
0.0011796817
0.0011788461
0.0011777986
0.001176519
0.0011753877
0.0011744803
0.0011735816
0.0011725326
0.001171585
0.0011710637
0.0011708079
3.5156172e-07
9.4289133e-06
1.9043872e-05
1.9635828e-05
1.4300489e-05
1.8886856e-05
1.3488486e-05
1.7465104e-05
1.4662216e-05
1.930225e-05
1.794328e-05
2.0013316e-05
1.9121701e-05
1.9051199e-05
1.8658842e-05
1.8455346e-05
1.8321919e-05
1.8283487e-05
1.8329013e-05
1.8452406e-05
1.8653665e-05
1.8932701e-05
1.9288491e-05
1.9722077e-05
2.0234994e-05
2.0833276e-05
2.1523466e-05
2.2316378e-05
2.3226379e-05
2.4270974e-05
2.5467847e-05
2.6838665e-05
2.8412273e-05
3.0223936e-05
3.2318282e-05
3.4749095e-05
3.7582035e-05
4.0895205e-05
4.4782284e-05
4.9361597e-05
5.478199e-05
6.121084e-05
6.8856602e-05
7.7980601e-05
8.8906356e-05
0.0001020107
0.00011776351
0.00013674325
0.0001596591
0.00018737954
0.00022096645
0.00026173316
0.00031129078
0.00037162517
0.00044517759
0.00053496059
0.00064470596
0.00077904724
0.00094374384
0.0011459581
0.0011799171
0.0011803575
0.0011807131
0.001180931
0.0011810089
0.0011809375
0.0011807108
0.0011803289
0.0011797945
0.0011791033
0.0011782413
0.0011771809
0.0011759005
0.0011748188
0.0011739453
0.0011730741
0.0011720362
0.0011710456
0.0011705548
0.0011700791
3.2383144e-07
9.1807898e-06
1.8134858e-05
1.960829e-05
1.4259563e-05
1.6693757e-05
1.2033938e-05
1.5296638e-05
1.3255746e-05
1.7057115e-05
1.64111e-05
1.7805245e-05
1.7223859e-05
1.7015658e-05
1.6710642e-05
1.652121e-05
1.6412657e-05
1.63856e-05
1.6435543e-05
1.6555652e-05
1.674614e-05
1.7007572e-05
1.733934e-05
1.7742994e-05
1.8219945e-05
1.8776249e-05
1.941806e-05
2.0155442e-05
2.1001726e-05
2.1973991e-05
2.3089506e-05
2.4368633e-05
2.5838767e-05
2.7533132e-05
2.949415e-05
3.1772998e-05
3.4432575e-05
3.7548281e-05
4.1209964e-05
4.552942e-05
5.0652142e-05
5.6740612e-05
6.3995704e-05
7.2667989e-05
8.3074922e-05
9.5583147e-05
0.00011064924
0.00012883702
0.00015083885
0.00017750572
0.0002098758
0.0002492372
0.00029717074
0.00035562905
0.00042701507
0.00051429544
0.00062114784
0.00075214378
0.00091296799
0.0011106811
0.0011799198
0.0011802771
0.001180554
0.0011807014
0.0011807158
0.0011805874
0.0011803091
0.0011798797
0.001179302
0.0011785703
0.0011776678
0.0011765824
0.0011753055
0.0011742718
0.0011734291
0.001172583
0.0011715546
0.0011705418
0.0011700307
0.0011694295
2.9233515e-07
9.0279479e-06
1.741221e-05
1.9334484e-05
1.4003532e-05
1.4780411e-05
1.137626e-05
1.3508405e-05
1.2299839e-05
1.5170139e-05
1.5073733e-05
1.5871604e-05
1.5496708e-05
1.5207436e-05
1.4957372e-05
1.4784133e-05
1.4691463e-05
1.467128e-05
1.4721744e-05
1.4836255e-05
1.5014973e-05
1.5259016e-05
1.5568014e-05
1.5943939e-05
1.6388165e-05
1.6906743e-05
1.7505508e-05
1.819394e-05
1.8984369e-05
1.989342e-05
2.0938143e-05
2.2137851e-05
2.3518801e-05
2.5112532e-05
2.6959671e-05
2.9109248e-05
3.1621851e-05
3.4570753e-05
3.804338e-05
4.2145932e-05
4.7020884e-05
5.2827581e-05
5.9762078e-05
6.8065268e-05
7.8050748e-05
9.0078472e-05
0.00010459519
0.00012215438
0.00014343595
0.00016927998
0.00020070787
0.0002389912
0.00028569058
0.00034273727
0.0004125109
0.00049795001
0.00060269911
0.00073129256
0.00088937416
0.0010839493
0.001180083
0.0011803435
0.0011805267
0.0011805897
0.0011805278
0.0011803304
0.001179989
0.0011795004
0.0011788667
0.0011780824
0.0011771272
0.0011760034
0.0011747404
0.0011737527
0.0011729382
0.0011721153
0.0011711015
0.0011700779
0.0011695408
0.001168802
2.6051623e-07
8.9425496e-06
1.6847399e-05
1.8277992e-05
1.3879565e-05
1.3054955e-05
1.1417432e-05
1.2444313e-05
1.1829807e-05
1.3538783e-05
1.3876865e-05
1.4167832e-05
1.3899942e-05
1.3575013e-05
1.3355745e-05
1.3198696e-05
1.3117589e-05
1.3103013e-05
1.3153681e-05
1.326358e-05
1.3432475e-05
1.3661956e-05
1.3951621e-05
1.4219761e-05
1.4625685e-05
1.5102967e-05
1.5656624e-05
1.6295341e-05
1.7030251e-05
1.7877162e-05
1.885287e-05
1.9975673e-05
2.1270785e-05
2.2768138e-05
2.4506701e-05
2.6533545e-05
2.8907095e-05
3.1698548e-05
3.499378e-05
3.9187832e-05
4.3862836e-05
4.9443605e-05
5.6124191e-05
6.4137224e-05
7.3793725e-05
8.5450371e-05
9.9547474e-05
0.00011663208
0.00013737535
0.00016261263
0.00019335469
0.00023086441
0.00027669122
0.00033275547
0.00040142656
0.00048563074
0.00058899765
0.00071604569
0.00087240495
0.0010650643
0.0011803902
0.0011805414
0.0011806179
0.0011805842
0.0011804343
0.0011801573
0.0011797425
0.0011791844
0.0011784832
0.0011776351
0.0011766177
0.0011754412
0.0011742133
0.0011732696
0.0011724806
0.0011716811
0.0011706939
0.001169662
0.0011690593
0.0011683525
2.3991097e-07
8.8927535e-06
1.6368241e-05
1.6620283e-05
1.2696103e-05
1.1375454e-05
9.8566808e-06
1.1104459e-05
1.0382934e-05
1.2171165e-05
1.2674255e-05
1.2605317e-05
1.2379163e-05
1.2062535e-05
1.186853e-05
1.1732566e-05
1.166572e-05
1.1659976e-05
1.1643034e-05
1.1734327e-05
1.1884577e-05
1.2094379e-05
1.2361564e-05
1.2686663e-05
1.3074553e-05
1.3528885e-05
1.4054993e-05
1.4661488e-05
1.5358896e-05
1.6162555e-05
1.7089484e-05
1.8157445e-05
1.9391162e-05
2.0819559e-05
2.2480648e-05
2.4420277e-05
2.6695588e-05
2.9376523e-05
3.2548446e-05
3.6315331e-05
4.0803967e-05
4.6174889e-05
5.2622264e-05
6.0881045e-05
7.0302146e-05
8.1698494e-05
9.550774e-05
0.00011227429
0.00013266446
0.00015751535
0.00018783359
0.00022488166
0.00027020752
0.00032573182
0.00039382762
0.00047742592
0.00058016144
0.00070655979
0.00086226526
0.0010542897
0.0011808219
0.0011808533
0.001180812
0.0011806711
0.0011804235
0.0011800573
0.0011795605
0.0011789242
0.0011781456
0.0011772233
0.0011761387
0.0011748965
0.00117373
0.0011728291
0.0011720643
0.0011712898
0.0011703441
0.0011693242
0.0011686596
0.0011679296
2.1997228e-07
8.8445851e-06
1.5874624e-05
1.4548831e-05
1.0434157e-05
1.0110788e-05
8.1252291e-06
9.4710492e-06
9.6718337e-06
1.0949082e-05
1.1456846e-05
1.1154668e-05
1.0948062e-05
1.0665166e-05
1.0496905e-05
1.0311892e-05
1.0234134e-05
1.0222735e-05
1.027041e-05
1.037407e-05
1.0529456e-05
1.0738687e-05
1.1000823e-05
1.1316157e-05
1.1689555e-05
1.212566e-05
1.2629849e-05
1.3210772e-05
1.3878548e-05
1.4648028e-05
1.5536571e-05
1.6561659e-05
1.7747859e-05
1.9123406e-05
2.0725742e-05
2.2600002e-05
2.4802587e-05
2.7402786e-05
3.048532e-05
3.4153313e-05
3.8533998e-05
4.378568e-05
5.0105743e-05
5.7723178e-05
6.693154e-05
7.8096045e-05
9.2464832e-05
0.0001090691
0.0001292907
0.00015397475
0.00018413063
0.00022102877
0.00026622562
0.00032165357
0.00038970347
0.00047332867
0.00057618966
0.00070284305
0.0008589748
0.0010516575
0.0011813554
0.0011812583
0.0011810909
0.0011808344
0.0011804808
0.0011800178
0.0011794318
0.0011787105
0.0011778468
0.0011768404
0.0011756876
0.0011743853
0.0011732968
0.0011724386
0.0011716981
0.0011709515
0.0011700559
0.0011690539
0.0011683175
0.0011675315
2.0174352e-07
8.7996096e-06
1.4263474e-05
1.2674873e-05
8.4373006e-06
8.9886425e-06
7.2306642e-06
8.5487481e-06
8.9578554e-06
9.7981698e-06
1.0254672e-05
9.8348734e-06
9.6346187e-06
9.3001388e-06
9.1211176e-06
9.0112932e-06
8.9680605e-06
8.9822699e-06
9.0472614e-06
9.1618448e-06
9.3241958e-06
9.5334063e-06
9.7919466e-06
1.0100075e-05
1.0462891e-05
1.0885465e-05
1.1373345e-05
1.1935363e-05
1.2581388e-05
1.3325822e-05
1.418643e-05
1.5180768e-05
1.6333498e-05
1.7672481e-05
1.9234958e-05
2.106581e-05
2.3221194e-05
2.5770358e-05
2.879843e-05
3.2409069e-05
3.6729687e-05
4.1918225e-05
4.8175777e-05
5.5731548e-05
6.4881862e-05
7.5994473e-05
8.9522821e-05
0.00010599925
0.0001272518
0.00015199086
0.00018224956
0.00021931454
0.00026476148
0.00032054656
0.00038909341
0.00047339629
0.00057716375
0.00070500941
0.00086268975
0.0010573746
0.0011819656
0.0011817337
0.0011814341
0.0011810557
0.0011805901
0.0011800245
0.0011793437
0.0011785326
0.0011775792
0.0011764807
0.0011752577
0.0011739405
0.0011729195
0.0011721044
0.0011713903
0.0011706748
0.0011698335
0.0011688521
0.0011680511
0.0011672755
1.862781e-07
8.7527922e-06
1.1331656e-05
1.0517e-05
6.9336535e-06
8.0069048e-06
6.5944435e-06
7.6856544e-06
8.3854854e-06
8.7562868e-06
9.0775954e-06
8.5439068e-06
8.2923873e-06
8.0621557e-06
7.9319015e-06
7.8622358e-06
7.8481791e-06
7.8848042e-06
7.9660829e-06
8.0912464e-06
8.258195e-06
8.4693837e-06
8.726692e-06
9.0308952e-06
9.3871955e-06
9.8011467e-06
1.0278594e-05
1.0828618e-05
1.1461059e-05
1.2189959e-05
1.296672e-05
1.393145e-05
1.5052618e-05
1.6357686e-05
1.7883687e-05
1.9675289e-05
2.178849e-05
2.4292558e-05
2.7273177e-05
3.0834864e-05
3.5106375e-05
4.0562805e-05
4.6823436e-05
5.4396559e-05
6.3581458e-05
7.4749852e-05
8.8368188e-05
0.0001049815
0.00012527728
0.0001501127
0.00018219018
0.00021974425
0.00026582798
0.00032243406
0.00039203467
0.00047768501
0.00058316543
0.00071317508
0.00087357232
0.0010716598
0.0011826258
0.0011822549
0.0011818199
0.0011813158
0.001180734
0.0011800619
0.0011792827
0.0011783785
0.0011773338
0.0011761416
0.001174839
0.0011735639
0.0011726037
0.001171832
0.0011711476
0.0011704662
0.0011696815
0.0011687299
0.0011678842
0.001167206
1.725482e-07
8.7089713e-06
8.9450849e-06
8.9556509e-06
6.1045738e-06
7.0974089e-06
6.0604153e-06
6.9344707e-06
7.8044331e-06
7.7856172e-06
7.8013979e-06
7.3480167e-06
7.1436693e-06
6.9763907e-06
6.8876071e-06
6.851489e-06
6.8632315e-06
6.9185737e-06
7.0139842e-06
7.1493919e-06
7.3235126e-06
7.5384592e-06
7.7972458e-06
8.1011503e-06
8.4554742e-06
8.8280441e-06
9.2933314e-06
9.8305866e-06
1.0449518e-05
1.1163707e-05
1.1989514e-05
1.2948215e-05
1.406383e-05
1.5363953e-05
1.6886048e-05
1.8675332e-05
2.0788594e-05
2.3296138e-05
2.6285502e-05
2.9863571e-05
3.4162322e-05
3.9346701e-05
4.5618835e-05
5.3221111e-05
6.245806e-05
7.4348859e-05
8.8188774e-05
0.00010509409
0.00012576489
0.00015108532
0.00018213574
0.00022232258
0.00026943918
0.00032734276
0.00039857066
0.00048626061
0.00059429059
0.00072747668
0.00089181484
0.0010947748
0.0011833086
0.001182797
0.0011822258
0.0011815945
0.0011808947
0.001180114
0.001179235
0.0011782363
0.0011771007
0.0011758236
0.0011744353
0.001173259
0.001172354
0.0011716252
0.0011709747
0.0011703295
0.0011696003
0.0011686942
0.0011678403
0.0011672405
1.603533e-07
8.6577083e-06
7.1206079e-06
7.8675761e-06
5.4453395e-06
6.2873877e-06
5.6041018e-06
6.2705968e-06
7.1125788e-06
6.6826179e-06
6.6508461e-06
6.3031643e-06
6.1422815e-06
6.0258995e-06
5.9726851e-06
5.9654739e-06
5.9998227e-06
6.0732686e-06
6.1828292e-06
6.329225e-06
6.5119088e-06
6.7332283e-06
6.9670334e-06
7.2679745e-06
7.6190511e-06
8.0251589e-06
8.4944651e-06
9.035727e-06
9.6589173e-06
1.0377878e-05
1.1209177e-05
1.217389e-05
1.3297504e-05
1.4608085e-05
1.6143812e-05
1.7950876e-05
2.008747e-05
2.2625516e-05
2.5655219e-05
2.9287008e-05
3.3656325e-05
3.8931989e-05
4.5326688e-05
5.3089118e-05
6.2533568e-05
7.4051068e-05
8.8127537e-05
0.00010535046
0.00012755687
0.00015358801
0.000185531
0.0002247662
0.00027560069
0.00033529116
0.0004087365
0.0004991806
0.00061062718
0.00074804307
0.00091760435
0.0011269843
0.0011839871
0.0011833352
0.0011826299
0.0011818721
0.0011810545
0.0011801652
0.0011791865
0.001178095
0.0011768696
0.001175524
0.0011741263
0.0011730265
0.0011721729
0.0011714858
0.0011708743
0.001170267
0.0011695866
0.0011687419
0.0011679237
0.0011673754
1.4954541e-07
8.5961879e-06
5.7173202e-06
6.8822742e-06
4.8601258e-06
5.5681846e-06
5.2176329e-06
5.5945443e-06
6.2402607e-06
5.7258423e-06
5.6420191e-06
5.3897668e-06
5.2698855e-06
5.1960794e-06
5.174542e-06
5.193553e-06
5.2492662e-06
5.3403076e-06
5.464594e-06
5.6022177e-06
5.7889502e-06
6.0143093e-06
6.2810239e-06
6.5926094e-06
6.9540701e-06
7.3707386e-06
7.850714e-06
8.4034866e-06
9.0393045e-06
9.7722289e-06
1.0619008e-05
1.1601029e-05
1.2686758e-05
1.4008961e-05
1.5559391e-05
1.7385181e-05
1.9546169e-05
2.2115967e-05
2.5187509e-05
2.8875371e-05
3.3319639e-05
3.8987966e-05
4.556614e-05
5.3562555e-05
6.3302577e-05
7.5188756e-05
8.9730685e-05
0.00010754232
0.00012937573
0.00015759777
0.00019070911
0.00023139964
0.00028143221
0.00034627905
0.00042254703
0.00051647937
0.00063223756
0.00077497422
0.00095109521
0.0011685245
0.0011846357
0.0011838466
0.0011830114
0.0011821302
0.0011811973
0.0011802009
0.001179124
0.0011779441
0.0011766366
0.0011752212
0.0011739005
0.0011728691
0.0011720617
0.0011714144
0.0011708472
0.0011702804
0.0011696374
0.0011688663
0.0011681578
0.0011676557
1.3998024e-07
8.4748795e-06
4.6480359e-06
6.0069214e-06
4.3386527e-06
4.9293601e-06
4.8818688e-06
4.8580478e-06
5.3597006e-06
4.8728168e-06
4.7679734e-06
4.5944743e-06
4.5137847e-06
4.4769512e-06
4.48441e-06
4.5278946e-06
4.6043044e-06
4.6943481e-06
4.8280135e-06
4.9960876e-06
5.1997167e-06
5.4407868e-06
5.7227973e-06
6.0494916e-06
6.4265225e-06
6.8595276e-06
7.3566989e-06
7.9041869e-06
8.5536604e-06
9.3013467e-06
1.0164082e-05
1.1163322e-05
1.2325305e-05
1.3683008e-05
1.5275779e-05
1.7152376e-05
1.9375439e-05
2.2021457e-05
2.5187182e-05
2.8993144e-05
3.3586035e-05
3.9150745e-05
4.591092e-05
5.4142119e-05
6.4183957e-05
7.7096084e-05
9.2230044e-05
0.0001107804
0.00013353689
0.00016147393
0.00019763158
0.00024011004
0.00029236239
0.00035665799
0.00043997763
0.00053814558
0.00065913055
0.00080830754
0.00099236485
0.0011861336
0.0011852313
0.0011843108
0.0011833521
0.0011823529
0.0011813086
0.0011802089
0.0011790361
0.0011777717
0.0011764019
0.0011749518
0.0011737523
0.0011727856
0.0011720204
0.0011714108
0.0011708917
0.0011703689
0.0011697528
0.0011690524
0.001168499
0.0011680452
1.3157352e-07
8.1478003e-06
3.9124575e-06
5.2311172e-06
3.8756577e-06
4.3645478e-06
4.347044e-06
4.1920021e-06
4.5105812e-06
4.1188457e-06
4.0192932e-06
3.9087585e-06
3.865045e-06
3.8610708e-06
3.8953215e-06
3.9473745e-06
4.0370331e-06
4.1598181e-06
4.3150358e-06
4.5031363e-06
4.7259542e-06
4.985949e-06
5.2870934e-06
5.6334525e-06
6.0174079e-06
6.4678117e-06
6.9831117e-06
7.5727987e-06
8.2488008e-06
9.0253272e-06
9.9196849e-06
1.0954246e-05
1.2156379e-05
1.3560386e-05
1.5208412e-05
1.7151097e-05
1.9454557e-05
2.2199022e-05
2.5485392e-05
2.9441577e-05
3.4220367e-05
4.0016254e-05
4.7067796e-05
5.5663284e-05
6.6161986e-05
7.9004814e-05
9.5575563e-05
0.00011501461
0.00013887128
0.00016818073
0.00020419015
0.00025082585
0.0003056957
0.00037323553
0.00045638675
0.00056409103
0.00069122397
0.00084797419
0.0010413581
0.0011867725
0.0011857537
0.001184711
0.001183637
0.001182527
0.001181377
0.0011801789
0.0011789158
0.0011775698
0.0011761516
0.0011747785
0.001173673
0.001172772
0.0011720478
0.0011714741
0.0011710029
0.001170526
0.0011699321
0.0011692917
0.0011688873
0.0011685284
1.2440879e-07
7.7327686e-06
3.4497795e-06
4.5437215e-06
3.4651357e-06
3.7023116e-06
3.8756291e-06
3.5818319e-06
3.7422137e-06
3.4641039e-06
3.3861543e-06
3.3255679e-06
3.3157254e-06
3.3414149e-06
3.3835623e-06
3.4675505e-06
3.5834391e-06
3.7300792e-06
3.907758e-06
4.1177208e-06
4.3624008e-06
4.644561e-06
4.9590181e-06
5.3259318e-06
5.7444259e-06
6.2211728e-06
6.7641896e-06
7.3833162e-06
8.0907405e-06
8.9015971e-06
9.8337743e-06
1.0910642e-05
1.2160868e-05
1.3620541e-05
1.5268776e-05
1.7274058e-05
1.9653832e-05
2.2492685e-05
2.6051847e-05
3.0187944e-05
3.5189429e-05
4.1260381e-05
4.8655655e-05
5.7679491e-05
6.8710037e-05
8.2215551e-05
9.8770642e-05
0.00011908068
0.00014529882
0.00017618647
0.00021415165
0.00026083987
0.00032129503
0.00039255048
0.00048029286
0.00059411357
0.00072829744
0.00089374341
0.0010978343
0.0011873188
0.0011861892
0.0011850348
0.001183855
0.0011826433
0.0011813948
0.0011801037
0.0011787587
0.0011773457
0.001175894
0.0011746735
0.001173657
0.001172821
0.0011721408
0.0011716028
0.0011711741
0.0011707392
0.0011701709
0.0011695914
0.0011693322
0.0011691374
1.1877771e-07
6.7067065e-06
3.056202e-06
3.920159e-06
3.1117103e-06
3.0906018e-06
3.4061007e-06
3.0293246e-06
3.0822095e-06
2.9049695e-06
2.856348e-06
2.8365685e-06
2.8491293e-06
2.8939921e-06
2.9746293e-06
3.0866885e-06
3.2282138e-06
3.3991563e-06
3.6006192e-06
3.8343208e-06
4.0971129e-06
4.4018829e-06
4.7487974e-06
5.1426221e-06
5.5890453e-06
6.0949649e-06
6.6687703e-06
7.3206942e-06
8.063325e-06
8.8928674e-06
9.8610922e-06
1.0977733e-05
1.2272691e-05
1.3783425e-05
1.5556786e-05
1.7651344e-05
2.0139502e-05
2.3111895e-05
2.668097e-05
3.0985649e-05
3.6198424e-05
4.2837856e-05
5.0623601e-05
6.0133999e-05
7.1767448e-05
8.6019328e-05
0.00010349908
0.00012495712
0.00015270492
0.00018535931
0.00022551232
0.00027490282
0.00033894204
0.00041434791
0.00050722655
0.00062166646
0.00076994103
0.00094515467
0.0011612844
0.0011877631
0.0011865299
0.0011852749
0.0011839992
0.0011826964
0.0011813593
0.0011799818
0.0011785608
0.0011771059
0.0011757373
0.0011746244
0.0011736957
0.001172924
0.0011722927
0.0011717932
0.0011713995
0.0011709972
0.0011704626
0.0011699567
0.0011698316
0.0011698074
1.1425368e-07
4.7097802e-06
2.7006248e-06
3.3421323e-06
2.661826e-06
2.5782565e-06
2.9111582e-06
2.5372974e-06
2.5327376e-06
2.4342982e-06
2.4187022e-06
2.426474e-06
2.4700408e-06
2.5491249e-06
2.659365e-06
2.7982678e-06
2.9651907e-06
3.1608142e-06
3.3835884e-06
3.6406423e-06
3.9331882e-06
4.2645782e-06
4.6388839e-06
5.0610545e-06
5.5370575e-06
6.0740853e-06
6.6808711e-06
7.3569726e-06
8.1333882e-06
9.0186953e-06
1.0033134e-05
1.1201846e-05
1.2556519e-05
1.4136946e-05
1.599301e-05
1.8186874e-05
2.079579e-05
2.3915867e-05
2.7666666e-05
3.2196531e-05
3.7689274e-05
4.4371527e-05
5.2914064e-05
6.2959786e-05
7.5256413e-05
9.0328641e-05
0.00010882257
0.00013153533
0.00015945004
0.00019551692
0.00023805633
0.00029039741
0.00035482917
0.00043825093
0.00053673416
0.00065810551
0.00081550437
0.0010014456
0.0011894373
0.0011881022
0.001186774
0.0011854297
0.0011840681
0.0011826844
0.0011812709
0.00117982
0.0011783367
0.0011768656
0.0011756456
0.0011746286
0.0011737813
0.001173072
0.0011724927
0.0011720374
0.0011716732
0.0011712943
0.0011708013
0.0011703837
0.0011703874
0.0011704628
1.0948575e-07
3.9133643e-06
2.328773e-06
2.8095464e-06
2.2954164e-06
2.1504358e-06
2.3986168e-06
2.1053358e-06
2.0860863e-06
2.0480886e-06
2.0613691e-06
2.1036729e-06
2.183233e-06
2.2930834e-06
2.4306364e-06
2.5949713e-06
2.7864271e-06
3.0040191e-06
3.2534065e-06
3.5358969e-06
3.85446e-06
4.2126938e-06
4.6149016e-06
5.066225e-06
5.5728418e-06
6.1422137e-06
6.7758641e-06
7.4967205e-06
8.3133779e-06
9.2428183e-06
1.0306408e-05
1.1530822e-05
1.294961e-05
1.4604947e-05
1.6549912e-05
1.8850952e-05
2.1590543e-05
2.487089e-05
2.8819087e-05
3.3592204e-05
3.9385207e-05
4.6774979e-05
5.5458669e-05
6.6076756e-05
7.9082221e-05
9.5030655e-05
0.00011460671
0.00013865493
0.00016977537
0.00020641996
0.00025149385
0.00030696919
0.00037527677
0.00046373915
0.00056819326
0.00069696076
0.00086404709
0.001061479
0.001189745
0.0011883366
0.0011869254
0.0011855035
0.0011840665
0.0011826112
0.0011811327
0.0011796243
0.0011781023
0.0011767297
0.001175608
0.0011746794
0.0011739074
0.0011732599
0.0011727304
0.0011723219
0.0011719851
0.001171624
0.0011711791
0.001170859
0.0011709552
0.0011710691
1.0628187e-07
3.152583e-06
2.008201e-06
2.2707133e-06
1.9949501e-06
1.7843461e-06
1.9220769e-06
1.7390045e-06
1.7354585e-06
1.7460754e-06
1.7893856e-06
1.8695887e-06
1.9800522e-06
2.1168302e-06
2.2789092e-06
2.4665659e-06
2.6797112e-06
2.9220531e-06
3.1954234e-06
3.5025422e-06
3.846664e-06
4.2315971e-06
4.6618069e-06
5.1425817e-06
5.6802674e-06
6.2782639e-06
6.9523851e-06
7.7113853e-06
8.5694713e-06
9.5444762e-06
1.0659042e-05
1.1941459e-05
1.3427338e-05
1.5161388e-05
1.7199823e-05
1.9613327e-05
2.2490238e-05
2.5938978e-05
3.0094919e-05
3.5124689e-05
4.1505828e-05
4.901124e-05
5.8175833e-05
6.9389637e-05
8.3130897e-05
9.998882e-05
0.00012068832
0.00014612416
0.00017899803
0.00021776076
0.00026545526
0.00032417087
0.00039649047
0.00049011666
0.00060076142
0.00073721228
0.00091430364
0.0011237089
0.0011899506
0.0011884749
0.0011869929
0.0011855051
0.0011840045
0.0011824872
0.0011809536
0.0011794131
0.0011779046
0.0011766636
0.0011756262
0.0011747703
0.0011740647
0.0011734809
0.0011729947
0.0011726312
0.0011723205
0.0011719764
0.0011715815
0.0011713616
0.0011715377
0.0011716556
1.049534e-07
2.486381e-06
1.7311106e-06
1.7532186e-06
1.7180623e-06
1.4711333e-06
1.5329878e-06
1.4472021e-06
1.474497e-06
1.5200881e-06
1.6020342e-06
1.7127139e-06
1.8486353e-06
2.0082351e-06
2.1918012e-06
2.4005045e-06
2.6353039e-06
2.8997384e-06
3.1959272e-06
3.526853e-06
3.8959416e-06
4.3071432e-06
4.7650477e-06
5.2750642e-06
5.8436698e-06
6.4787486e-06
7.1900299e-06
7.9896171e-06
8.8824442e-06
9.9035028e-06
1.1069714e-05
1.2411088e-05
1.3965441e-05
1.5780242e-05
1.79149e-05
2.0526836e-05
2.3566796e-05
2.7214603e-05
3.1614641e-05
3.6944987e-05
4.3424939e-05
5.1324159e-05
6.0975798e-05
7.2789973e-05
8.7271891e-05
0.00010504438
0.00012687399
0.00015504805
0.00018828753
0.00022917203
0.00027948963
0.00034145
0.00042174107
0.00051652313
0.00063338637
0.00077757691
0.00096467196
0.0011861775
0.0011900695
0.0011885331
0.0011869908
0.0011854468
0.001183895
0.0011823293
0.0011807471
0.0011791787
0.0011777998
0.001176653
0.0011756959
0.0011748997
0.0011742433
0.0011737272
0.0011732783
0.0011729518
0.0011726658
0.0011723445
0.0011720056
0.0011718762
0.0011721069
0.0011722085
1.0655718e-07
1.9156637e-06
1.5001444e-06
1.3565666e-06
1.4360005e-06
1.2085122e-06
1.2482535e-06
1.2335598e-06
1.2935753e-06
1.373538e-06
1.4840353e-06
1.6181787e-06
1.7746464e-06
1.9535571e-06
2.1561234e-06
2.3840869e-06
2.6392086e-06
2.9245297e-06
3.242584e-06
3.5964877e-06
3.9897695e-06
4.4264744e-06
4.9112955e-06
5.4497648e-06
6.0485149e-06
6.7156342e-06
7.4611406e-06
8.2975731e-06
9.2407282e-06
1.0310591e-05
1.1532428e-05
1.2938246e-05
1.4568372e-05
1.6473508e-05
1.8717111e-05
2.1378322e-05
2.4555593e-05
2.8371377e-05
3.2977163e-05
3.856043e-05
4.5352685e-05
5.363867e-05
6.3766577e-05
7.6167771e-05
9.1372179e-05
0.00011094372
0.00013403937
0.00016241818
0.00019731289
0.00024024666
0.00029309973
0.00036155895
0.00044236664
0.00054197774
0.00066485779
0.00082448766
0.0010132613
0.0011917313
0.0011901209
0.0011885317
0.0011869394
0.0011853463
0.0011837505
0.0011821527
0.001180559
0.001179011
0.0011777487
0.0011766867
0.0011758039
0.0011750677
0.001174461
0.0011739579
0.0011735748
0.0011732742
0.0011730093
0.0011727162
0.0011724393
0.0011723856
0.0011726426
0.0011727187
1.1225087e-07
1.4471513e-06
1.3127238e-06
1.0669673e-06
1.2816408e-06
9.9041032e-07
1.0550589e-06
1.0923221e-06
1.1792278e-06
1.2868104e-06
1.4183076e-06
1.5706448e-06
1.7441976e-06
1.9400928e-06
2.1600376e-06
2.4060375e-06
2.680376e-06
2.9854196e-06
3.3242712e-06
3.7000169e-06
4.1162624e-06
4.577139e-06
5.0874462e-06
5.6528494e-06
6.2801533e-06
6.9776709e-06
7.7557209e-06
8.6273056e-06
9.6088563e-06
1.0721254e-05
1.1990926e-05
1.3451432e-05
1.5145096e-05
1.7125159e-05
1.9458271e-05
2.2227576e-05
2.5536403e-05
2.9512803e-05
3.4315098e-05
4.0138739e-05
4.7546825e-05
5.6262739e-05
6.6915429e-05
7.9957656e-05
9.5945959e-05
0.00011556598
0.00013966319
0.00016928052
0.00020570151
0.00025285955
0.00030845275
0.00037691565
0.00046128557
0.00056533367
0.00070051543
0.00086029764
0.0010577688
0.0011917649
0.0011901194
0.0011884905
0.0011868614
0.0011852305
0.0011835943
0.001181957
0.001180351
0.0011789283
0.0011777425
0.0011767508
0.0011759259
0.0011752403
0.0011746903
0.0011742168
0.0011738672
0.0011735918
0.0011733455
0.0011730826
0.0011728648
0.0011728718
0.0011731384
0.0011731873
1.2268293e-07
1.1459308e-06
1.1514213e-06
9.2632443e-07
9.3813591e-07
8.6637113e-07
9.2806197e-07
1.0073831e-06
1.1150691e-06
1.2421886e-06
1.3895417e-06
1.5569079e-06
1.745499e-06
1.9568385e-06
2.1927846e-06
2.4554127e-06
2.7470429e-06
3.0702611e-06
3.4279646e-06
3.823416e-06
4.2603215e-06
4.7429372e-06
5.2762171e-06
5.8660255e-06
6.5194294e-06
7.242521e-06
8.0497377e-06
8.9529001e-06
9.977949e-06
1.1132735e-05
1.2450999e-05
1.3967988e-05
1.5728117e-05
1.7787182e-05
2.0214969e-05
2.3098416e-05
2.6545466e-05
3.0689788e-05
3.5696524e-05
4.1769425e-05
4.9159614e-05
5.8176426e-05
6.9200558e-05
8.2698452e-05
9.9246678e-05
0.00011955467
0.00014578299
0.00017667597
0.00021465624
0.00026138288
0.00031890749
0.00038977445
0.0004771398
0.0005904853
0.00072453894
0.00089016865
0.0010950261
0.0011917667
0.0011900886
0.0011884265
0.0011867705
0.0011851178
0.0011834657
0.0011818201
0.0011802262
0.0011789019
0.0011777821
0.0011768474
0.0011760684
0.0011754219
0.0011749178
0.0011744676
0.001174147
0.001173893
0.0011736673
0.0011734405
0.0011732796
0.0011733315
0.0011735927
0.0011736246
1.441836e-07
1.184137e-06
9.913496e-07
7.0682002e-07
7.66419e-07
7.7438895e-07
8.5795918e-07
9.6007231e-07
1.0841874e-06
1.2260862e-06
1.3869091e-06
1.5675739e-06
1.7695808e-06
1.9945675e-06
2.2444208e-06
2.5212434e-06
2.8273886e-06
3.1654912e-06
3.5385101e-06
3.9497818e-06
4.4030925e-06
4.9027823e-06
5.4538926e-06
6.0623784e-06
6.7354093e-06
7.4817817e-06
8.312465e-06
9.2413013e-06
1.0285892e-05
1.1468655e-05
1.2818091e-05
1.4370378e-05
1.6171161e-05
1.8277794e-05
2.0761987e-05
2.3713031e-05
2.7241724e-05
3.1485138e-05
3.6612468e-05
4.2832226e-05
5.0401223e-05
6.0062468e-05
7.1439461e-05
8.5364856e-05
0.00010243248
0.00012337266
0.00014908658
0.00018068689
0.00021954865
0.00026737085
0.00032626239
0.00040251946
0.00049267004
0.00060390926
0.00074130875
0.00091120583
0.0011215216
0.001191781
0.0011900702
0.0011883742
0.0011866883
0.0011850106
0.0011833422
0.0011817007
0.001180178
0.0011789205
0.0011778575
0.0011769698
0.0011762287
0.0011756127
0.0011751101
0.0011747093
0.0011744009
0.001174166
0.001173959
0.0011737715
0.0011736603
0.0011737287
0.00117395
0.0011739747
1.3746617e-07
7.8961036e-07
8.1299636e-07
6.0260683e-07
6.5981049e-07
7.2037976e-07
8.2250347e-07
9.4137503e-07
1.0785557e-06
1.23305e-06
1.4061014e-06
1.5989115e-06
1.8130102e-06
2.0501011e-06
2.3121109e-06
2.6011994e-06
2.9197883e-06
3.27055e-06
3.6565822e-06
4.0812827e-06
4.5485241e-06
5.0627339e-06
5.6290431e-06
6.2535004e-06
6.9433787e-06
7.7075951e-06
8.5572684e-06
9.5064411e-06
1.0581576e-05
1.1792145e-05
1.3173154e-05
1.4761716e-05
1.6604593e-05
1.8760488e-05
2.1302726e-05
2.4322554e-05
2.7933122e-05
3.2274368e-05
3.751901e-05
4.387989e-05
5.1618996e-05
6.1058468e-05
7.2594144e-05
8.6714466e-05
0.00010402019
0.00012525224
0.00015132497
0.00018497675
0.00022467472
0.00027351679
0.00033365897
0.00040777526
0.00049919261
0.00061205814
0.00075155306
0.00092416548
0.0011380192
0.0011918556
0.0011901171
0.001188391
0.0011866755
0.0011849707
0.0011832825
0.0011816428
0.0011801919
0.0011789793
0.0011779583
0.0011771054
0.0011763938
0.0011758099
0.0011753243
0.0011749423
0.0011746232