/*--------------------------------*- C++ -*----------------------------------*\
  =========                 |
  \\      /  F ield         | OpenFOAM: The Open Source CFD Toolbox
   \\    /   O peration     | Website:  https://openfoam.org
    \\  /    A nd           | Version:  12
     \\/     M anipulation  |
\*---------------------------------------------------------------------------*/
FoamFile
{
    format      ascii;
    class       volScalarField;
    location    "0.148";
    object      k;
}
// * * * * * * * * * * * * * * * * * * * * * * * * * * * * * * * * * * * * * //

dimensions      [0 2 -2 0 0 0 0];

internalField   nonuniform List<scalar> 
16000
(
0.048583355
0.021652814
0.022464216
0.016513235
0.014016416
0.012692286
0.011904628
0.011434015
0.011114786
0.010899959
0.010741513
0.010623558
0.010531517
0.01045866
0.010400052
0.010352624
0.010313868
0.010282138
0.010256303
0.010234942
0.010217472
0.010203259
0.010191841
0.010182675
0.010175565
0.010170116
0.010166159
0.010163525
0.010162072
0.01016167
0.010162197
0.010163549
0.010165646
0.010168421
0.010171813
0.010175767
0.010180225
0.010185129
0.01019042
0.01019604
0.010201921
0.010207989
0.010214174
0.010220406
0.010226609
0.01023271
0.010238648
0.010244373
0.010249837
0.010254995
0.010259803
0.010264219
0.010268203
0.010271721
0.01027474
0.01027723
0.010279151
0.010280449
0.010281055
0.010280881
0.010279821
0.010277753
0.01027457
0.010270145
0.010264332
0.010256989
0.010248009
0.010237337
0.010224948
0.01021076
0.010194432
0.010175071
0.010152207
0.01013018
0.010112785
0.010098057
0.010083838
0.010084928
0.010068066
0.010089722
0.045927005
0.020486238
0.021019778
0.015970129
0.013671564
0.012488115
0.011741814
0.011316685
0.011013729
0.010816134
0.010667986
0.010558795
0.010473173
0.010405799
0.010351672
0.010308109
0.010272699
0.010243829
0.010220606
0.010201568
0.010186194
0.010173877
0.010164247
0.010156708
0.010151142
0.010147138
0.010144535
0.01014317
0.010142908
0.010143626
0.010145206
0.010147544
0.010150559
0.01015418
0.010158349
0.010163009
0.010168105
0.010173579
0.010179373
0.01018543
0.010191687
0.010198072
0.010204516
0.010210951
0.010217307
0.01022351
0.0102295
0.010235228
0.01024065
0.010245726
0.01025042
0.010254694
0.010258514
0.010261849
0.010264672
0.010266954
0.010268662
0.010269746
0.01027014
0.010269759
0.010268506
0.010266265
0.010262933
0.010258392
0.010252497
0.010245104
0.010236102
0.010225441
0.010213087
0.010198947
0.010182739
0.010163685
0.010141298
0.01012028
0.010103744
0.010089313
0.010077093
0.010072952
0.010065117
0.010087066
0.041599118
0.019655872
0.01969095
0.015407927
0.013319149
0.012261586
0.011573331
0.01119019
0.010910489
0.010731087
0.010594106
0.010494119
0.010415395
0.010353796
0.010304454
0.010264982
0.010233148
0.010207331
0.010186884
0.010170323
0.010157188
0.010146884
0.010139154
0.010133343
0.010129402
0.010126924
0.010125747
0.010125717
0.010126704
0.010128593
0.010131269
0.010134629
0.01013859
0.01014308
0.01014804
0.010153412
0.010159142
0.010165172
0.010171444
0.010177903
0.010184489
0.010191132
0.010197766
0.010204327
0.010210746
0.010216955
0.010222894
0.010228516
0.010233783
0.010238661
0.010243119
0.010247127
0.010250658
0.010253684
0.010256183
0.01025813
0.010259494
0.01026023
0.010260275
0.01025955
0.010257963
0.010255409
0.010251793
0.010247003
0.010240902
0.010233342
0.010224208
0.010213447
0.010201025
0.010186827
0.010170588
0.010151674
0.010129653
0.01010984
0.010094226
0.010080675
0.010069326
0.010063135
0.010060363
0.010080297
0.038352449
0.019094342
0.018540002
0.014904374
0.013
0.012056363
0.011419054
0.011074586
0.01081572
0.010652816
0.010526507
0.010435031
0.010362889
0.010306755
0.010261988
0.010226424
0.010198041
0.010175166
0.010157409
0.010143257
0.010132315
0.010123972
0.010118106
0.010113992
0.010111645
0.010110664
0.010110888
0.010112167
0.010114376
0.010117404
0.010121139
0.01012548
0.01013034
0.010135646
0.010141337
0.010147352
0.010153639
0.01016014
0.010166799
0.01017356
0.010180368
0.010187157
0.010193864
0.010200426
0.010206784
0.010212871
0.010218631
0.01022402
0.010229006
0.010233561
0.010237661
0.010241284
0.010244408
0.010247013
0.010249076
0.010250578
0.01025149
0.010251773
0.010251366
0.010250197
0.01024818
0.010245224
0.01024124
0.010236125
0.010229747
0.010221956
0.010212625
0.010201694
0.01018913
0.010174795
0.010158432
0.010139586
0.010117817
0.010099235
0.010084607
0.010072024
0.010061122
0.010054073
0.010054662
0.010069791
0.036214781
0.018780509
0.017550651
0.014437711
0.01270294
0.011862429
0.011274398
0.010965635
0.010727258
0.010579812
0.010463966
0.010380612
0.010314912
0.010264087
0.010223806
0.010192062
0.010167086
0.010147112
0.010132016
0.010120256
0.010111504
0.010105118
0.01010111
0.01009871
0.010097944
0.01009846
0.010100082
0.010102667
0.010106087
0.010110236
0.010115006
0.010120294
0.010126011
0.010132081
0.01013844
0.010145029
0.010151791
0.010158671
0.010165615
0.010172569
0.01017948
0.010186289
0.010192937
0.010199366
0.010205523
0.010211348
0.01021679
0.010221809
0.010226377
0.010230475
0.010234086
0.010237196
0.010239789
0.01024185
0.01024336
0.010244301
0.010244649
0.010244367
0.010243401
0.010241684
0.01023914
0.010235687
0.010231245
0.010225721
0.010218987
0.01021089
0.01020129
0.01019011
0.010177318
0.010162766
0.010146171
0.010127313
0.010105932
0.01008861
0.010075023
0.010063398
0.010052878
0.010045714
0.010048336
0.010058217
0.033460561
0.018710251
0.016815926
0.014009989
0.012429575
0.011682033
0.011140705
0.010864682
0.010646015
0.010512811
0.01040711
0.010331416
0.010271947
0.010226237
0.010190314
0.010162278
0.010140643
0.010123519
0.010111043
0.010101654
0.010095085
0.010090679
0.010088497
0.010087868
0.010088636
0.010090642
0.010093654
0.010097528
0.010102137
0.010107375
0.010113135
0.010119315
0.010125822
0.010132578
0.010139515
0.010146574
0.010153698
0.010160834
0.010167931
0.010174936
0.010181803
0.010188479
0.010194911
0.010201049
0.010206847
0.010212254
0.010217224
0.010221723
0.01022573
0.010229232
0.010232221
0.010234689
0.010236628
0.010238028
0.010238872
0.010239145
0.010238823
0.010237875
0.010236253
0.010233898
0.01023074
0.010226709
0.010221733
0.010215725
0.010208565
0.010200096
0.010190162
0.010178663
0.010165563
0.01015072
0.010133807
0.010114831
0.01009408
0.010078046
0.010065541
0.010054859
0.010044807
0.010037812
0.01004158
0.010047815
0.030482129
0.018809681
0.016294332
0.013617857
0.012177688
0.011514505
0.011017738
0.010771578
0.010571888
0.010451744
0.010355844
0.010287412
0.010233981
0.010193233
0.010161579
0.010137178
0.010118851
0.010104566
0.010094689
0.010087681
0.010083295
0.010081007
0.010080551
0.010081925
0.010084036
0.010087527
0.010091916
0.010097057
0.010102821
0.010109099
0.010115787
0.01012278
0.010129984
0.010137318
0.010144714
0.01015211
0.010159451
0.010166688
0.010173774
0.010180661
0.010187308
0.010193674
0.010199713
0.010205383
0.010210647
0.010215465
0.010219801
0.010223624
0.010226922
0.010229689
0.010231922
0.010233623
0.01023479
0.010235415
0.010235486
0.010234988
0.010233901
0.010232196
0.010229833
0.010226758
0.010222911
0.010218228
0.010212648
0.010206089
0.010198435
0.01018953
0.010179203
0.010167323
0.010153838
0.010138635
0.010121352
0.010102117
0.010082413
0.01006768
0.010056273
0.010046537
0.010037107
0.010030466
0.010034155
0.010038472
0.028667992
0.01899578
0.015871886
0.013258861
0.011945814
0.011359602
0.010904927
0.010686169
0.01050453
0.010396488
0.01031009
0.010248631
0.010201101
0.010165226
0.0101378
0.010117007
0.010101979
0.010090566
0.010083239
0.010078659
0.010076417
0.010076762
0.010077628
0.010080449
0.010084519
0.010089476
0.010095215
0.01010158
0.010108438
0.010115679
0.010123198
0.01013089
0.01013866
0.010146426
0.010154118
0.010161676
0.01016905
0.010176195
0.01018307
0.010189636
0.010195861
0.010201713
0.010207159
0.010212168
0.010216712
0.010220764
0.010224296
0.010227287
0.010229729
0.010231624
0.010232976
0.010233791
0.010234074
0.010233822
0.010233025
0.010231668
0.010229731
0.010227191
0.010224014
0.010220152
0.010215551
0.010210156
0.010203911
0.010196742
0.010188536
0.010179136
0.010168361
0.010156047
0.010142109
0.010126477
0.010108827
0.010089189
0.010071033
0.010057615
0.010047314
0.010038542
0.010029885
0.010023738
0.010026912
0.010029834
0.026817681
0.019179956
0.01538024
0.012929804
0.01173232
0.011216515
0.010801609
0.0106077
0.010443998
0.010347281
0.010270084
0.010215377
0.010173632
0.01014257
0.010119354
0.010102168
0.010090405
0.010081965
0.010076967
0.010074884
0.010074274
0.010076851
0.010080314
0.010084899
0.010090475
0.010096874
0.010103905
0.010111417
0.01011927
0.010127353
0.01013556
0.010143788
0.010151943
0.010159943
0.01016772
0.01017522
0.010182398
0.010189216
0.010195644
0.010201655
0.010207228
0.010212343
0.010216982
0.010221125
0.010224757
0.010227863
0.010230427
0.010232434
0.010233882
0.010234779
0.010235134
0.010234959
0.010234263
0.010233045
0.010231298
0.010229007
0.010226154
0.010222716
0.010218666
0.010213963
0.010208557
0.0102024
0.010195442
0.010187612
0.0101788
0.010168853
0.010157581
0.010144792
0.010130349
0.01011421
0.010096254
0.010076346
0.010060052
0.010047963
0.010038765
0.010030979
0.010023247
0.010017642
0.01001998
0.010021487
0.025071023
0.019351626
0.014711332
0.01262795
0.011537165
0.011085681
0.010708629
0.010537265
0.010390867
0.010304576
0.01023626
0.010188118
0.010152047
0.010125751
0.010106734
0.01009319
0.010084506
0.010079334
0.010075764
0.010075604
0.010080035
0.010083714
0.010088923
0.01009521
0.010102335
0.010110093
0.010118313
0.010126841
0.010135536
0.010144281
0.010152972
0.010161511
0.010169808
0.010177784
0.01018538
0.010192548
0.010199253
0.010205471
0.010211184
0.010216379
0.01022105
0.010225193
0.010228803
0.010231876
0.01023441
0.0102364
0.010237842
0.010238727
0.01023906
0.01023885
0.010238112
0.010236861
0.010235107
0.010232854
0.010230095
0.010226814
0.010222994
0.010218613
0.010213649
0.010208065
0.010201818
0.010194862
0.010187151
0.010178617
0.010169156
0.010158618
0.010146808
0.010133509
0.010118533
0.010101816
0.010083582
0.010064159
0.010049573
0.010038821
0.010030718
0.010023934
0.010017251
0.010012227
0.010013509
0.010014158
0.023575838
0.019492876
0.014173467
0.012351184
0.011360864
0.010967472
0.0106265
0.010475536
0.01034531
0.010268772
0.01020904
0.010167339
0.010136863
0.010115313
0.010100491
0.010090696
0.01008432
0.010083334
0.010084179
0.010086922
0.010090971
0.010096955
0.010104015
0.010111929
0.010120476
0.010129456
0.010138696
0.010148039
0.010157343
0.010166493
0.010175388
0.010183938
0.010192062
0.010199692
0.01020678
0.010213292
0.010219208
0.010224518
0.010229224
0.010233328
0.010236843
0.010239779
0.010242148
0.01024396
0.010245224
0.010245948
0.010246135
0.010245786
0.010244905
0.010243505
0.010241602
0.010239211
0.010236346
0.010233009
0.010229196
0.01022489
0.010220072
0.010214721
0.010208817
0.01020233
0.010195219
0.010187439
0.010178947
0.010169679
0.010159534
0.010148368
0.010135985
0.010122147
0.010106638
0.010089336
0.010070699
0.010052661
0.010039701
0.010030272
0.010023251
0.010017465
0.010011911
0.010007562
0.010007801
0.0100082
0.022217138
0.019621476
0.013707734
0.01209975
0.011203336
0.010861525
0.010555013
0.010422231
0.010307664
0.010240346
0.010188925
0.010153598
0.010128667
0.010111876
0.010101245
0.010095435
0.01009349
0.010094109
0.010097334
0.010102553
0.010109361
0.010117239
0.010126018
0.010135415
0.010145203
0.01015518
0.010165176
0.010175035
0.010184622
0.010193825
0.010202552
0.010210729
0.010218291
0.010225188
0.010231389
0.01023688
0.010241661
0.010245742
0.010249143
0.010251887
0.010254003
0.010255517
0.010256457
0.010256844
0.010256698
0.010256037
0.01025487
0.010253204
0.010251043
0.010248399
0.010245286
0.010241721
0.010237714
0.010233271
0.010228384
0.010223038
0.010217211
0.010210882
0.01020403
0.010196631
0.010188647
0.010180031
0.010170742
0.010160717
0.010149863
0.010138043
0.010125063
0.010110665
0.010094626
0.010076864
0.010057719
0.010041939
0.01003052
0.01002238
0.010016421
0.010011607
0.010007197
0.010003662
0.010003134
0.010003024
0.020992091
0.019706749
0.013279103
0.011873626
0.011064142
0.010767855
0.010494306
0.010377939
0.010278278
0.010219825
0.010176499
0.010147534
0.010128144
0.010116151
0.010109759
0.010107648
0.010108885
0.010112876
0.010118888
0.010126492
0.010135297
0.010145006
0.010155303
0.010165929
0.010176658
0.010187288
0.010197654
0.010207612
0.010217037
0.010225834
0.010233929
0.010241267
0.010247812
0.010253539
0.010258443
0.010262533
0.010265831
0.010268371
0.010270191
0.010271334
0.010271842
0.010271759
0.010271121
0.010269963
0.01026831
0.010266186
0.010263605
0.010260576
0.010257103
0.010253194
0.010248859
0.010244112
0.010238961
0.01023341
0.010227453
0.010221072
0.010214245
0.010206946
0.010199155
0.01019085
0.010181995
0.010172545
0.010162453
0.010151663
0.010140085
0.010127592
0.010113999
0.010099041
0.010082465
0.010064453
0.010045929
0.010032041
0.010022097
0.010015188
0.010010269
0.010006386
0.010003064
0.010000475
0.0099995791
0.0099989264
0.019889894
0.019711329
0.012890757
0.011670784
0.010942521
0.0106865
0.010444494
0.010343003
0.010257629
0.010207865
0.010172498
0.010149934
0.010136118
0.010128978
0.010126876
0.0101286
0.010133257
0.010140156
0.010148767
0.010158625
0.01016934
0.010180574
0.010192045
0.010203497
0.010214711
0.010225496
0.0102357
0.010245202
0.010253901
0.01026173
0.010268643
0.010274621
0.010279658
0.010283765
0.010286963
0.01028929
0.010290792
0.010291521
0.010291535
0.010290889
0.01028964
0.010287839
0.010285533
0.01028276
0.010279552
0.010275934
0.010271921
0.010267523
0.010262743
0.01025758
0.010252041
0.010246132
0.01023986
0.010233226
0.010226221
0.01021883
0.010211026
0.010202783
0.010194076
0.010184883
0.010175173
0.0101649
0.010154012
0.010142456
0.010130153
0.010116978
0.01010276
0.010087268
0.010070217
0.010051884
0.010035221
0.010023056
0.010014476
0.010008722
0.010004817
0.010001827
0.0099994661
0.0099979066
0.0099972582
0.0099961421
0.018896464
0.019484255
0.012540214
0.011490201
0.010838275
0.010617692
0.01040589
0.010318096
0.010246446
0.010205374
0.010177891
0.010161801
0.010153615
0.010151374
0.010153568
0.010159056
0.010166991
0.010176725
0.010187709
0.01019949
0.01021169
0.01022398
0.010236086
0.010247763
0.010258816
0.01026908
0.010278436
0.010286796
0.010294105
0.010300336
0.010305483
0.010309566
0.01031262
0.01031469
0.010315827
0.010316092
0.010315553
0.010314277
0.010312333
0.010309787
0.010306701
0.010303131
0.010299128
0.01029473
0.010289971
0.010284875
0.010279457
0.010273722
0.01026767
0.010261296
0.010254598
0.010247573
0.010240225
0.01023255
0.01022454
0.010216178
0.010207437
0.010198286
0.010188698
0.010178648
0.010168106
0.010157031
0.010145367
0.010133058
0.010120037
0.010106186
0.010091332
0.010075312
0.010058014
0.010039836
0.010025599
0.010015024
0.01000769
0.010002994
0.010000067
0.0099979418
0.0099963739
0.0099957812
0.009995946
0.0099946219
0.017997262
0.018615513
0.012224936
0.011331168
0.010751666
0.01056185
0.010379052
0.01030419
0.010245806
0.010213535
0.010193917
0.010184367
0.010181829
0.010184462
0.010190859
0.010199945
0.010210899
0.010223086
0.010235977
0.010249126
0.010262165
0.010274783
0.010286732
0.010297808
0.010307856
0.010316764
0.010324463
0.010330922
0.01033614
0.010340141
0.010342967
0.010344682
0.010345354
0.010345059
0.010343876
0.010341882
0.010339157
0.010335778
0.010331818
0.010327345
0.010322421
0.010317102
0.010311435
0.010305459
0.010299203
0.010292688
0.010285925
0.010278917
0.010271659
0.010264141
0.01025635
0.010248277
0.010239916
0.010231261
0.0102223
0.010213019
0.01020339
0.01019338
0.010182955
0.010172086
0.010160747
0.0101489
0.010136489
0.01012345
0.010109724
0.010095216
0.010079753
0.01006319
0.010045774
0.01002932
0.010017023
0.010007957
0.010001759
0.0099980144
0.0099959961
0.0099947025
0.0099937841
0.0099939408
0.0099949784
0.0099941751
0.017184523
0.017257501
0.01194716
0.011193449
0.010681784
0.010519918
0.010365049
0.010302713
0.010257168
0.010233828
0.010222035
0.01021901
0.010222029
0.010229357
0.010239671
0.010251944
0.010265381
0.010279359
0.01029337
0.010306993
0.010319897
0.01033182
0.010342573
0.010352019
0.010360075
0.010366705
0.01037191
0.010375724
0.010378209
0.01037944
0.010379505
0.010378501
0.010376525
0.010373675
0.010370043
0.010365717
0.010360778
0.010355303
0.010349363
0.010343021
0.010336333
0.010329349
0.01032211
0.010314649
0.010306989
0.010299149
0.010291133
0.010282942
0.010274564
0.010265984
0.010257183
0.010248143
0.010238847
0.010229284
0.010219441
0.0102093
0.010198839
0.010188022
0.010176812
0.010165172
0.010153076
0.010140492
0.010127372
0.010113643
0.010099236
0.010084084
0.010068075
0.010051123
0.010033766
0.010020027
0.010009503
0.010001833
0.0099966854
0.009993787
0.0099925624
0.0099920332
0.0099916933
0.0099924357
0.0099943936
0.0099950489
0.016454142
0.016401474
0.011712799
0.011077453
0.01062954
0.010493299
0.010365388
0.010315354
0.010282237
0.010267897
0.010263808
0.010267138
0.010275413
0.010286985
0.010300594
0.010315261
0.010330218
0.010344883
0.010358802
0.010371623
0.010383096
0.010393053
0.010401398
0.010408097
0.010413161
0.010416639
0.01041861
0.010419175
0.010418447
0.010416545
0.010413588
0.010409695
0.010404976
0.010399536
0.010393471
0.010386865
0.010379796
0.010372331
0.010364531
0.01035645
0.010348134
0.010339622
0.010330945
0.010322129
0.010313192
0.010304143
0.010294986
0.010285715
0.010276316
0.01026677
0.01025705
0.01024713
0.010236986
0.010226597
0.010215945
0.010205012
0.010193777
0.010182209
0.010170269
0.010157914
0.010145111
0.010131833
0.010118043
0.010103673
0.010088634
0.010072862
0.010056338
0.010039277
0.010023623
0.010011856
0.010002987
0.009996607
0.0099924443
0.0099903059
0.0099897344
0.0099898497
0.0099900825
0.0099913744
0.0099941406
0.0099964753
0.015798164
0.015401798
0.011512768
0.010983712
0.010595888
0.010483703
0.010381723
0.010344037
0.010322943
0.010317537
0.010320834
0.010330034
0.010342849
0.010357711
0.010373435
0.010389114
0.010404067
0.010417809
0.010430008
0.01044044
0.010448989
0.01045562
0.010460363
0.010463293
0.010464523
0.010464182
0.010462414
0.010459367
0.010455189
0.010450022
0.010443998
0.010437238
0.010429853
0.010421941
0.010413588
0.010404867
0.010395844
0.010386571
0.010377096
0.010367459
0.010357692
0.010347823
0.010337872
0.010327856
0.010317784
0.010307661
0.010297485
0.010287247
0.010276931
0.010266513
0.010255966
0.010245256
0.010234351
0.010223222
0.010211842
0.010200189
0.010188244
0.010175981
0.010163365
0.010150354
0.010136905
0.010122983
0.010108564
0.0100936
0.010078001
0.010061693
0.010044799
0.010027999
0.010014889
0.010004831
0.0099974142
0.0099922107
0.0099889741
0.0099875327
0.0099874879
0.009988102
0.0099888925
0.0099907445
0.0099941556
0.0099975639
0.015211011
0.014727411
0.011349571
0.010912943
0.010581871
0.01049335
0.010416265
0.010391136
0.010381534
0.010384603
0.010394448
0.01040836
0.01042424
0.010440645
0.010456535
0.010471172
0.010484053
0.010494876
0.010503501
0.010509888
0.010514086
0.010516205
0.010516398
0.010514841
0.01051172
0.010507221
0.010501524
0.010494799
0.010487201
0.010478874
0.010469941
0.010460512
0.010450682
0.010440533
0.010430135
0.010419543
0.010408805
0.010397958
0.010387032
0.010376051
0.010365035
0.010353999
0.010342952
0.0103319
0.010320845
0.010309786
0.010298717
0.010287626
0.010276495
0.0102653
0.010254012
0.010242596
0.010231013
0.010219226
0.0102072
0.010194906
0.010182319
0.010169418
0.01015618
0.010142568
0.010128538
0.010114041
0.010099041
0.01008352
0.010067434
0.010050712
0.010033654
0.010018765
0.010007437
0.0099989021
0.0099927319
0.0099885673
0.00998618
0.0099853785
0.0099857654
0.0099867358
0.0099880266
0.0099904536
0.0099941916
0.0099981088
0.014687106
0.013977107
0.011219853
0.010867809
0.010589306
0.010525612
0.010472089
0.010459385
0.010460113
0.01047025
0.010484748
0.010501117
0.010517537
0.010532827
0.010546227
0.010557287
0.010565781
0.010571659
0.010575007
0.010575976
0.010574771
0.010571622
0.010566766
0.010560438
0.010552861
0.010544237
0.010534749
0.010524558
0.010513807
0.010502616
0.010491089
0.010479313
0.01046736
0.010455287
0.010443144
0.010430967
0.010418784
0.010406616
0.010394477
0.010382376
0.01037032
0.010358309
0.010346344
0.010334422
0.010322536
0.01031068
0.010298843
0.01028701
0.010275163
0.010263279
0.010251329
0.010239279
0.010227089
0.010214718
0.010202123
0.010189267
0.010176116
0.010162647
0.01014884
0.010134675
0.010120121
0.010105125
0.010089625
0.010073589
0.010057067
0.01004024
0.010023714
0.010011048
0.010001258
0.0099940069
0.0099888883
0.009985605
0.0099839566
0.009983719
0.0099844676
0.0099856905
0.0099873528
0.0099902952
0.009994362
0.0099984951
0.014226238
0.013398943
0.011128358
0.01085307
0.010622051
0.010584569
0.010552313
0.010550623
0.010559115
0.010573355
0.010589172
0.010604505
0.010618007
0.010628933
0.010636933
0.010641925
0.010644
0.01064336
0.010640283
0.010635068
0.010628016
0.010619417
0.010609536
0.010598615
0.010586868
0.010574476
0.010561599
0.010548366
0.010534889
0.010521257
0.010507545
0.01049381
0.010480099
0.010466446
0.010452877
0.01043941
0.010426055
0.010412818
0.010399698
0.010386693
0.010373794
0.010360995
0.010348284
0.010335649
0.010323079
0.01031056
0.010298076
0.01028561
0.010273144
0.010260654
0.010248114
0.010235492
0.010222753
0.010209855
0.010196755
0.010183409
0.010169776
0.01015582
0.010141517
0.010126851
0.010111809
0.010096369
0.010080475
0.010064047
0.01004708
0.010030086
0.010015752
0.010004653
0.009996227
0.0099900605
0.0099858195
0.0099832612
0.0099822152
0.0099824381
0.0099834931
0.0099849456
0.009986923
0.0099902539
0.0099946099
0.0099988217
0.01383391
0.012939331
0.011077547
0.010873859
0.010706049
0.010673262
0.010657978
0.010663611
0.010675322
0.010689002
0.010701573
0.010711645
0.010718525
0.010722009
0.010722186
0.010719319
0.010713754
0.010705867
0.010696038
0.010684621
0.010671936
0.010658262
0.010643839
0.010628869
0.010613524
0.010597942
0.010582237
0.0105665
0.010550804
0.010535203
0.01051974
0.010504446
0.010489343
0.010474444
0.010459755
0.010445276
0.010431003
0.010416929
0.010403041
0.010389326
0.010375768
0.010362349
0.010349049
0.01033585
0.010322733
0.010309678
0.010296666
0.010283675
0.010270684
0.010257672
0.010244613
0.010231478
0.010218237
0.010204855
0.010191291
0.010177506
0.010163456
0.010149098
0.010134394
0.010119313
0.010103835
0.010087956
0.010071687
0.010055058
0.01003818
0.010021687
0.010009224
0.009999482
0.0099921889
0.0099869385
0.0099834328
0.009981468
0.0099808911
0.0099814553
0.0099827484
0.0099844281
0.0099867175
0.0099903256
0.0099948384
0.0099989332
0.013519414
0.012570108
0.011071521
0.010929993
0.01080937
0.010790921
0.010785315
0.010792065
0.010800777
0.010808314
0.010812842
0.01081379
0.010811131
0.010805138
0.010796233
0.010784882
0.010771546
0.010756644
0.010740549
0.010723578
0.010705998
0.010688025
0.010669836
0.010651572
0.010633344
0.010615237
0.010597319
0.010579638
0.010562231
0.010545119
0.01052832
0.010511839
0.010495677
0.010479831
0.01046429
0.010449043
0.010434074
0.010419364
0.010404892
0.010390637
0.010376576
0.010362684
0.010348935
0.010335304
0.010321766
0.010308297
0.01029487
0.010281462
0.010268048
0.010254604
0.010241104
0.010227523
0.010213832
0.010200003
0.010186005
0.010171804
0.010157365
0.010142653
0.010127627
0.010112244
0.010096459
0.010080232
0.010063548
0.010046501
0.01002961
0.010015179
0.010003972
0.0099953757
0.0099890011
0.0099845021
0.0099816058
0.0099801302
0.0099799209
0.0099807299
0.0099821965
0.0099840751
0.0099866465
0.0099904674
0.0099950718
0.0099990691
0.013299789
0.012302854
0.011113107
0.011028122
0.010943174
0.01092891
0.010924086
0.010924565
0.010923896
0.010920328
0.010913219
0.010902708
0.010889231
0.01087332
0.010855504
0.010836264
0.010816015
0.010795101
0.010773802
0.010752337
0.010730881
0.010709567
0.010688494
0.010667737
0.010647349
0.010627367
0.010607813
0.010588702
0.010570039
0.010551821
0.010534043
0.010516692
0.010499754
0.010483211
0.010467043
0.010451228
0.010435743
0.01042056
0.010405655
0.010390999
0.010376563
0.01036232
0.010348238
0.010334288
0.010320441
0.010306667
0.010292935
0.010279218
0.010265487
0.010251712
0.010237868
0.010223926
0.01020986
0.010195643
0.01018125
0.010166655
0.010151834
0.010136762
0.010121414
0.010105762
0.010089769
0.010073397
0.01005663
0.010039583
0.010022959
0.010010068
0.0099999136
0.0099922165
0.0099865677
0.0099826544
0.0099802326
0.0099791384
0.0099792149
0.009980204
0.0099818041
0.0099838542
0.0099866473
0.0099906157
0.00999529
0.0099991676
0.013173371
0.012136405
0.011208979
0.011157002
0.011091918
0.011073675
0.011059837
0.011047346
0.011032621
0.011015183
0.010995172
0.010973065
0.0109494
0.010924675
0.01089931
0.010873648
0.010847952
0.010822426
0.01079722
0.010772442
0.01074817
0.010724454
0.010701327
0.010678806
0.010656896
0.010635596
0.010614895
0.010594781
0.010575235
0.010556237
0.010537765
0.010519794
0.0105023
0.010485255
0.010468631
0.010452401
0.010436535
0.010421003
0.010405775
0.01039082
0.010376106
0.010361602
0.010347276
0.010333095
0.010319027
0.010305038
0.010291096
0.010277169
0.010263222
0.010249225
0.010235146
0.010220954
0.01020662
0.010192115
0.010177413
0.010162491
0.010147328
0.010131905
0.010116208
0.010100222
0.010083931
0.010067322
0.010050431
0.010033545
0.010018066
0.010006206
0.0099969132
0.0099899157
0.0099848314
0.0099813635
0.0099792856
0.0099784418
0.0099786878
0.009979814
0.0099814993
0.0099836912
0.0099866064
0.0099905124
0.009995011
0.0099988805
0.013109521
0.012065661
0.011368725
0.011300088
0.01123903
0.011206375
0.011176647
0.011147657
0.011117718
0.011086849
0.011055327
0.01102352
0.010991761
0.010960318
0.010929389
0.010899116
0.010869595
0.010840884
0.010813017
0.010786006
0.01075985
0.010734536
0.010710046
0.010686354
0.010663434
0.010641255
0.010619785
0.010598994
0.010578847
0.010559313
0.010540358
0.010521951
0.010504059
0.010486649
0.010469691
0.010453151
0.010436997
0.010421197
0.01040572
0.010390532
0.010375601
0.010360894
0.010346378
0.010332019
0.010317786
0.010303642
0.010289555
0.010275489
0.010261409
0.010247282
0.010233072
0.010218745
0.010204269
0.01018961
0.010174739
0.010159627
0.010144249
0.010128586
0.010112621
0.010096343
0.010079749
0.010062856
0.010045772
0.01002899
0.010014649
0.0100035
0.0099948514
0.009988372
0.0099837125
0.0099805896
0.0099787857
0.0099781417
0.0099783004
0.0099796128
0.0099813177
0.009983608
0.0099865835
0.0099903852
0.0099946871
0.0099985727
0.013120292
0.012025848
0.011523867
0.011433459
0.011360644
0.011309393
0.011262427
0.011218299
0.011175713
0.011134491
0.011094583
0.011056014
0.011018804
0.010982956
0.010948455
0.010915272
0.010883366
0.010852689
0.01082319
0.010794816
0.010767513
0.010741227
0.010715905
0.010691497
0.010667955
0.01064523
0.010623277
0.010602054
0.010581518
0.01056163
0.010542352
0.010523645
0.010505475
0.010487804
0.0104706
0.010453827
0.010437453
0.010421444
0.010405767
0.01039039
0.010375279
0.010360403
0.010345728
0.010331222
0.010316851
0.010302581
0.010288379
0.010274211
0.010260042
0.010245838
0.010231563
0.010217183
0.010202664
0.010187972
0.010173074
0.010157939
0.010142536
0.010126837
0.010110817
0.010094456
0.010077742
0.01006069
0.010043434
0.010026596
0.010012826
0.010002062
0.0099937555
0.009987557
0.0099831327
0.0099802115
0.0099785898
0.0099780749
0.0099780945
0.0099796348
0.009981359
0.0099837419
0.0099867372
0.0099903922
0.0099944562
0.0099983335
0.013214108
0.012051979
0.011640536
0.011530321
0.01144198
0.011374698
0.011314755
0.011260248
0.011209539
0.011161977
0.011117114
0.011074658
0.011034379
0.010996091
0.010959635
0.010924873
0.01089168
0.010859947
0.010829574
0.010800469
0.01077255
0.010745739
0.010719966
0.010695166
0.010671279
0.010648248
0.01062602
0.010604546
0.010583779
0.010563676
0.010544195
0.010525297
0.010506942
0.010489094
0.010471718
0.010454778
0.01043824
0.010422071
0.010406238
0.010390707
0.010375447
0.010360425
0.010345609
0.010330966
0.010316465
0.010302072
0.010287754
0.010273479
0.010259213
0.010244923
0.010230576
0.01021614
0.010201582
0.010186873
0.01017198
0.010156877
0.010141536
0.010125931
0.010110043
0.010093853
0.010077352
0.010060554
0.010043575
0.010026949
0.01001297
0.010002144
0.0099937895
0.0099875683
0.0099831347
0.0099802133
0.00997859
0.0099780718
0.00997806
0.0099796764
0.0099814329
0.0099838842
0.0099868875
0.0099904195
0.0099942925
0.0099981726
0.013339735
0.012108575
0.011701861
0.011579164
0.011480589
0.011404929
0.011338867
0.011279838
0.011225782
0.011175711
0.01112895
0.011085038
0.01104363
0.011004454
0.010967291
0.010931957
0.010898296
0.010866172
0.010835466
0.010806073
0.010777901
0.010750863
0.010724883
0.010699891
0.010675824
0.01065262
0.010630226
0.01060859
0.010587665
0.010567405
0.010547767
0.010528712
0.0105102
0.010492195
0.01047466
0.01045756
0.010440861
0.01042453
0.010408533
0.010392838
0.010377413
0.010362225
0.010347243
0.010332434
0.010317766
0.010303206
0.010288723
0.010274282
0.01025985
0.010245396
0.010230884
0.010216284
0.010201564
0.010186694
0.010171642
0.010156383
0.010140887
0.010125132
0.010109097
0.010092766
0.010076131
0.010059214
0.010042158
0.010025593
0.010012202
0.010001673
0.0099935508
0.0099874751
0.0099831289
0.0099802503
0.0099786294
0.0099780975
0.0099782385
0.0099796484
0.0099814716
0.0099839345
0.0099869318
0.0099903929
0.0099941729
0.0099980805
67.046341
364.63164
122.75252
14.81979
0.40951104
0.021531665
0.020186025
0.019874029
0.019598156
0.018534998
0.017191369
0.016003119
0.015100791
0.014526074
0.014118364
0.013731607
0.013354153
0.013019916
0.012740129
0.012506433
0.012307826
0.012136499
0.011987285
0.011856415
0.011740877
0.01163818
0.011546317
0.011463687
0.011389038
0.01132138
0.011259894
0.011203866
0.011152673
0.01110579
0.011062802
0.011023377
0.010987228
0.010954102
0.010923767
0.010896012
0.010870652
0.010847506
0.010826393
0.010807141
0.010789588
0.010773572
0.01075893
0.010745511
0.010733182
0.010721828
0.010711332
0.010701581
0.010692458
0.010683845
0.010675626