/*--------------------------------*- C++ -*----------------------------------*\
  =========                 |
  \\      /  F ield         | OpenFOAM: The Open Source CFD Toolbox
   \\    /   O peration     | Website:  https://openfoam.org
    \\  /    A nd           | Version:  12
     \\/     M anipulation  |
\*---------------------------------------------------------------------------*/
FoamFile
{
    format      ascii;
    class       volScalarField;
    location    "0.148";
    object      Ma;
}
// * * * * * * * * * * * * * * * * * * * * * * * * * * * * * * * * * * * * * //

dimensions      [];

internalField   nonuniform List<scalar> 
16000
(
0.62654917
0.74417443
0.69928598
0.72385242
0.70885611
0.71574781
0.71006444
0.71156412
0.70892337
0.7084709
0.70684727
0.70570839
0.70429143
0.70290805
0.70144249
0.69993041
0.69836059
0.6967346
0.69505122
0.69330997
0.69151045
0.6896525
0.68773624
0.68576203
0.68373056
0.68164284
0.67950027
0.67730461
0.67505802
0.6727631
0.67042286
0.66804072
0.66562057
0.66316667
0.6606837
0.65817669
0.65565103
0.65311235
0.65056657
0.64801972
0.645478
0.64294759
0.64043467
0.63794529
0.63548532
0.63306035
0.63067567
0.62833617
0.6260463
0.62381004
0.62163085
0.61951165
0.6174548
0.6154621
0.61353476
0.61167341
0.60987812
0.60814842
0.60648333
0.60488126
0.60334003
0.60185724
0.60043008
0.59905499
0.59772751
0.59644221
0.59519273
0.5939722
0.59277361
0.5915899
0.59041351
0.58923593
0.58804863
0.58684621
0.58562851
0.5843997
0.58305434
0.58211701
0.57987588
0.5800521
0.63104342
0.74941495
0.70287729
0.72851544
0.7126948
0.72005364
0.71392257
0.71554348
0.71271983
0.71219636
0.71048523
0.70923115
0.70772285
0.70622537
0.70465115
0.70302237
0.70133321
0.69958354
0.69777278
0.69590049
0.69396656
0.6919711
0.68991457
0.68779774
0.68562174
0.6833881
0.68109878
0.67875615
0.67636302
0.67392268
0.67143887
0.6689158
0.66635808
0.66377079
0.66115938
0.65852963
0.65588764
0.65323974
0.65059241
0.64795225
0.64532583
0.64271968
0.64014016
0.6375934
0.63508521
0.63262102
0.63020581
0.62784407
0.62553976
0.62329628
0.62111642
0.61900242
0.61695591
0.61497794
0.61306901
0.61122903
0.60945739
0.60775299
0.60611425
0.6045391
0.6030249
0.60156878
0.60016764
0.59881772
0.59751445
0.59625235
0.59502498
0.59382532
0.59264617
0.59148035
0.59032022
0.5891571
0.58798229
0.58679049
0.5855793
0.58433785
0.58308305
0.58189908
0.580128
0.57975055
0.63525531
0.75422092
0.70638466
0.7325973
0.71632023
0.72378105
0.71749068
0.71900042
0.71612109
0.71544071
0.71366091
0.71226873
0.71065572
0.7090311
0.70733199
0.70557186
0.70374743
0.70185831
0.69990419
0.69788495
0.69580081
0.69365229
0.6914403
0.68916612
0.68683147
0.68443849
0.68198981
0.67948855
0.67693833
0.67434326
0.67170796
0.66903756
0.66633759
0.66361406
0.66087332
0.65812202
0.65536706
0.6526155
0.64987447
0.64715104
0.6444522
0.64178471
0.639155
0.63656915
0.63403273
0.63155083
0.62912791
0.62676786
0.62447389
0.62224861
0.62009395
0.61801123
0.61600116
0.61406388
0.61219898
0.61040552
0.60868211
0.60702687
0.60543756
0.60391151
0.60244559
0.60103647
0.59968063
0.5983741
0.59711217
0.59588928
0.59469897
0.59353418
0.59238762
0.59125205
0.59011985
0.58898245
0.58783124
0.58666025
0.58546483
0.58424093
0.58301672
0.5817466
0.58021623
0.57952961
0.63910639
0.75861394
0.70945521
0.73617108
0.71948585
0.72705387
0.72059823
0.72197744
0.71903414
0.71817743
0.71631476
0.71476839
0.71303268
0.71126477
0.70942327
0.70751493
0.70553849
0.70349351
0.70138003
0.69919831
0.69694897
0.694633
0.69225185
0.68980738
0.68730201
0.68473863
0.68212071
0.67945226
0.67673788
0.67398271
0.67119242
0.66837322
0.66553173
0.662675
0.65981038
0.65694546
0.65408797
0.65124566
0.64842623
0.64563717
0.64288567
0.64017853
0.63752207
0.63492204
0.63238354
0.62991098
0.6275081
0.62517785
0.62292249
0.62074358
0.61864196
0.61661786
0.6146709
0.61280017
0.61100425
0.60928128
0.60762899
0.60604474
0.60452558
0.60306826
0.60166914
0.60032443
0.5990303
0.59778251
0.59657627
0.59540601
0.59426531
0.5931471
0.59204407
0.59094898
0.5898543
0.58875167
0.5876325
0.58648976
0.58531858
0.58412207
0.58291458
0.58162619
0.5802404
0.57935429
0.64258025
0.7625216
0.71226484
0.73911302
0.72203744
0.72976415
0.72319079
0.72438061
0.7213911
0.72032391
0.71836761
0.71664933
0.71477239
0.71284551
0.71084459
0.70877197
0.7066274
0.70441063
0.70212199
0.69976211
0.69733209
0.6948335
0.69226845
0.68963963
0.68695031
0.68420441
0.68140647
0.6785617
0.6756759
0.6727555
0.66980746
0.66683926
0.66385879
0.66087426
0.65789409
0.65492684
0.65198102
0.64906501
0.64618689
0.64335436
0.64057461
0.63785421
0.63519901
0.63261412
0.63010383
0.62767159
0.62532002
0.6230509
0.62086522
0.61876325
0.61674455
0.61480807
0.61295221
0.6111749
0.60947365
0.60784562
0.60628765
0.60479633
0.60336804
0.60199895
0.60068497
0.59942191
0.59820563
0.59703171
0.5958953
0.59479088
0.59371212
0.59265204
0.59160341
0.59055903
0.58951157
0.588453
0.58737466
0.58626868
0.58513134
0.58396886
0.5827817
0.58150951
0.58021511
0.57920924
0.6456284
0.76586167
0.71461479
0.74159976
0.72424806
0.73183361
0.72513096
0.72613211
0.72309964
0.72180778
0.71974559
0.71784442
0.71581023
0.71371136
0.71153568
0.70928317
0.70695401
0.70454835
0.70206695
0.69951106
0.69688251
0.69418376
0.69141793
0.68858883
0.68570099
0.68275967
0.67977086
0.67674124
0.67367817
0.67058961
0.66748406
0.66437045
0.66125804
0.65815626
0.65507462
0.65202253
0.64900914
0.64604321
0.64313297
0.64028598
0.63750904
0.63480807
0.63218809
0.62965313
0.62720625
0.62484956
0.62258422
0.62041051
0.61832789
0.61633513
0.61443031
0.61261099
0.61087427
0.60921688
0.60763523
0.60612552
0.60468378
0.60330586
0.60198754
0.6007245
0.59951227
0.59834636
0.59722239
0.59613584
0.59508186
0.59405503
0.59304922
0.59205762
0.59107313
0.59008871
0.58909731
0.58809125
0.58706177
0.58600066
0.58490552
0.58378268
0.58262392
0.5813861
0.58016207
0.57906753
0.6482221
0.76861707
0.71651486
0.74359313
0.72599359
0.73324322
0.72657356
0.72719837
0.72417875
0.72260834
0.72042591
0.71833076
0.71611941
0.71383006
0.71145822
0.70900337
0.70646627
0.70384785
0.70114973
0.69837415
0.69552412
0.69260335
0.68961638
0.68656855
0.68346605
0.68031586
0.67712578
0.67390433
0.67066068
0.6674046
0.66414628
0.66089621
0.65766504
0.6544634
0.65130168
0.64818992
0.6451376
0.64215349
0.6392455
0.63642058
0.63368463
0.63104241
0.62849756
0.62605257
0.62370882
0.62146664
0.61932539
0.61728357
0.61533889
0.61348841
0.61172869
0.61005581
0.60846555
0.60695349
0.60551501
0.60414545
0.60284008
0.60159418
0.60040303
0.59926194
0.59816618
0.59711107
0.59609209
0.59510472
0.59414418
0.59320525
0.59228205
0.59136805
0.59045638
0.5895402
0.58861284
0.58766698
0.58669386
0.58568537
0.58464007
0.58356231
0.58244
0.58125059
0.58008682
0.57892547
0.6504033
0.77081841
0.71800549
0.7451218
0.72733024
0.73421784
0.72752391
0.7280192
0.72459549
0.72274786
0.72040945
0.71809405
0.7156712
0.71315951
0.71055869
0.70786892
0.70509172
0.70222912
0.69928394
0.69625978
0.69316118
0.68999353
0.68676322
0.68347756
0.68014479
0.67677404
0.67337529
0.66995919
0.66653704
0.66312053
0.65972165
0.65635242
0.65302474
0.64975016
0.64653965
0.64340342
0.64035075
0.63738983
0.63452764
0.63176986
0.62912082
0.62658351
0.6241596
0.62184948
0.6196524
0.61756654
0.61558916
0.61371674
0.6119451
0.61026957
0.60868512
0.60718644
0.60576809
0.60442458
0.60315045
0.6019403
0.60078884
0.59969092
0.5986415
0.59763568
0.59666861
0.59573554
0.59483199
0.59395348
0.59309541
0.59225284
0.59142025
0.59059144
0.58975985
0.58891896
0.5880625
0.58718349
0.58627339
0.58532461
0.58433589
0.58330809
0.58222947
0.58109975
0.57999232
0.5787774
0.65223885
0.77249326
0.71904363
0.7461835
0.72801156
0.73425099
0.72765021
0.72735105
0.72430549
0.72217243
0.71962891
0.71705721
0.71438088
0.71160761
0.70873891
0.70577617
0.70272196
0.69957972
0.69635386
0.69304984
0.68967417
0.68623448
0.6827395
0.67919903
0.67562389
0.67202578
0.66841723
0.66481133
0.66122161
0.65766178
0.65414549
0.65068606
0.64729629
0.64398813
0.64077251
0.63765913
0.6346563
0.63177079
0.62900782
0.62637099
0.62386231
0.62148227
0.61922997
0.61710322
0.61509871
0.6132122
0.61143866
0.60977248
0.60820757
0.60673762
0.60535611
0.60405652
0.60283238
0.60167738
0.6005854
0.59955054
0.59856718
0.59762993
0.59673364
0.59587337
0.59504432
0.59424184
0.59346157
0.59269922
0.59195046
0.59121069
0.59047483
0.5897371
0.58899134
0.5882314
0.58745141
0.58664474
0.58580335
0.58492054
0.58399417
0.5830207
0.58199289
0.58093217
0.57987828
0.578622
0.6537267
0.7736151
0.7195559
0.74657817
0.72797111
0.73374407
0.72717682
0.72649305
0.72324593
0.72076166
0.71796344
0.71509802
0.71212492
0.70904778
0.7058692
0.70259232
0.69922138
0.69576181
0.69222028
0.6886047
0.68492432
0.68118965
0.67741247
0.67360567
0.66978319
0.66595976
0.66215073
0.65837178
0.65463867
0.65096687
0.64737135
0.64386619
0.64046432
0.6371773
0.63401504
0.6309857
0.62809554
0.6253489
0.62274821
0.62029408
0.61798538
0.61581947
0.61379232
0.6118988
0.61013282
0.60848759
0.60695582
0.60552987
0.60420199
0.60296437
0.60180934
0.60072944
0.59971746
0.59876655
0.59787023
0.59702239
0.5962173
0.5954496
0.59471421
0.59400636
0.59332146
0.5926551
0.59200318
0.59136172
0.59072671
0.59009399
0.58945896
0.58881635
0.58816047
0.58748561
0.58678623
0.58605607
0.585288
0.58447637
0.58361695
0.58270165
0.58173149
0.58074683
0.57974401
0.5784595
0.65480485
0.77408169
0.71946519
0.7454426
0.72715772
0.73238903
0.7259148
0.72463687
0.72125871
0.71839855
0.71528832
0.71208363
0.70876473
0.70533562
0.70180017
0.69816388
0.69443343
0.69061703
0.68672448
0.68276705
0.6787576
0.67471041
0.67064105
0.66656619
0.66250334
0.65847056
0.65448613
0.65056817
0.64673426
0.64300109
0.63938408
0.63589702
0.63255185
0.62935838
0.62632417
0.62345444
0.6207521
0.61821783
0.61585024
0.61364603
0.6116003
0.60970674
0.60795795
0.60634571
0.60486117
0.60349518
0.6022384
0.60108153
0.60001545
0.5990313
0.59812062
0.59727539
0.59648806
0.59575159
0.59505946
0.59440563
0.59378455
0.59319109
0.59262049
0.5920683
0.5915303
0.59100247
0.5904811
0.58996256
0.58944329
0.5889196
0.58838741
0.58784204
0.58727834
0.58669107
0.58607491
0.58542406
0.58473272
0.58399618
0.58320708
0.58235333
0.58144693
0.58054211
0.57958808
0.57829185
0.65538285
0.77372764
0.7186588
0.74364308
0.72572594
0.73011561
0.7237173
0.72183287
0.71822212
0.71494572
0.7114597
0.70786087
0.7041402
0.70030434
0.69635946
0.69231423
0.68817893
0.68396571
0.67968869
0.6753637
0.6710083
0.66664145
0.66228327
0.65795471
0.65367711
0.64947182
0.64535968
0.64136061
0.63749306
0.63377368
0.63021683
0.62683439
0.62363548
0.62062637
0.61781051
0.6151886
0.6127588
0.61051697
0.608457
0.60657111
0.60485021
0.60328426
0.60186254
0.60057396
0.59940731
0.59835148
0.5973956
0.59652921
0.59574235
0.59502563
0.59437027
0.59376816
0.59321179
0.59269432
0.5922095
0.59175166
0.59131568
0.59089687
0.59049097
0.59009402
0.58970231
0.58931233
0.58892082
0.58852462
0.58812064
0.5877057
0.5872763
0.58682837
0.58635738
0.58585852
0.58532665
0.58475654
0.58414401
0.583485
0.58276826
0.58197926
0.58114228
0.58031755
0.57940804
0.57812044
0.65539853
0.7724787
0.71700004
0.74110718
0.72342083
0.72682303
0.72045966
0.7179148
0.71398851
0.71024466
0.70631055
0.70225117
0.69806329
0.69375776
0.68934469
0.68483743
0.68025146
0.67560452
0.67091648
0.66620906
0.66150559
0.6568305
0.65220894
0.64766625
0.64322733
0.63891611
0.63475491
0.63076386
0.62696044
0.62335902
0.61997063
0.61680277
0.61385944
0.61114127
0.60864571
0.60636745
0.60429876
0.60242991
0.60074966
0.59924564
0.59790478
0.59671363
0.59565867
0.5947266
0.5939045
0.59318
0.59254139
0.59197773
0.59147884
0.59103536
0.59063871
0.59028112
0.58995556
0.5896557
0.58937588
0.58911105
0.58885671
0.58860883
0.58836376
0.58811817
0.58786895
0.5876132
0.58734818
0.58707125
0.58677983
0.58647126
0.58614261
0.58579049
0.58541102
0.58499976
0.58455174
0.58406247
0.58352947
0.58294868
0.58230501
0.58158408
0.5808221
0.58007509
0.57920214
0.57794778
0.65483232
0.7702369
0.71441833
0.73747948
0.72010471
0.7223976
0.7159928
0.71273616
0.7083837
0.70410101
0.69963359
0.69503313
0.69030164
0.68545591
0.68051235
0.67549108
0.67041474
0.6653084
0.66019924
0.65511603
0.65008862
0.64514733
0.64032221
0.63564226
0.63113467
0.62682404
0.62273169
0.61887516
0.61526777
0.61191844
0.6088317
0.60600788
0.60344339
0.60113121
0.59906143
0.59722173
0.59559807
0.59417511
0.5929368
0.59186676
0.59094867
0.59016657
0.58950508
0.58894961
0.58848645
0.58810284
0.58778704
0.58752831
0.58731691
0.58714404
0.58700183
0.58688325
0.58678208
0.58669282
0.58661061
0.58653123
0.58645095
0.58636651
0.58627501
0.5861738
0.58606046
0.58593272
0.58578843
0.5856255
0.58544186
0.58523536
0.58500366
0.58474406
0.5844533
0.5841273
0.58376133
0.58335181
0.58289761
0.5823939
0.58182275
0.58117338
0.58049167
0.57981781
0.5789714
0.57777647
0.65362591
0.76683173
0.71086027
0.73267801
0.71561827
0.71667071
0.71011662
0.70608014
0.70117397
0.69625743
0.69115664
0.68592196
0.68056327
0.67510561
0.66957439
0.66399881
0.65841071
0.65284421
0.64733508
0.64191992
0.63663533
0.63151685
0.62659792
0.62190888
0.61747596
0.61332064
0.60945902
0.60590166
0.60265352
0.59971425
0.59707867
0.59473735
0.59267732
0.59088286
0.5893362
0.58801821
0.58690907
0.58598874
0.58523746
0.58463609
0.58416634
0.583811
0.58355403
0.58338068
0.58327743
0.58323205
0.58323351
0.58327197
0.58333867
0.58342588
0.58352679
0.58363546
0.58374672
0.5838561
0.58395975
0.58405434
0.58413705
0.58420544
0.58425741
0.58429106
0.58430463
0.58429655
0.58426526
0.58420922
0.58412687
0.58401656
0.58387652
0.5837047
0.58349843
0.583254
0.5829671
0.58263516
0.58225768
0.5818282
0.58132795
0.5807536
0.58015644
0.57954927
0.57872218
0.57760414
0.65172455
0.76202522
0.70636865
0.72651106
0.70975429
0.70941723
0.70256197
0.69764955
0.6920406
0.68637249
0.68052727
0.67456101
0.66849515
0.66236559
0.65620945
0.65006751
0.64398295
0.63800048
0.63216519
0.62652115
0.62111
0.61596953
0.61113236
0.60662491
0.60246674
0.59867016
0.59524037
0.59217577
0.58946871
0.58710631
0.58507142
0.58334367
0.5819004
0.58071759
0.5797706
0.57903488
0.57848645
0.5781023
0.57786074
0.5777415
0.57772594
0.577797
0.57793925
0.57813885
0.57838344
0.57866208
0.57896513
0.57928416
0.57961183
0.57994182
0.58026866
0.58058769
0.58089496
0.58118714
0.58146144
0.58171553
0.5819475
0.58215577
0.582339
0.58249604
0.58262583
0.58272746
0.58279994
0.58284229
0.58285344
0.58283221
0.58277738
0.58268745
0.58256029
0.5823926
0.58218084
0.58192341
0.58161939
0.58125997
0.58082818
0.58033178
0.57982238
0.57927485
0.57846146
0.57743654
0.64907061
0.75543008
0.70083056
0.71871566
0.70220508
0.70029155
0.69294152
0.68703126
0.68056008
0.6740132
0.66731458
0.66053007
0.65369711
0.64686609
0.64008941
0.6334224
0.62692136
0.62064177
0.61463623
0.60895242
0.60363132
0.59870575
0.59419944
0.59012665
0.58649233
0.58329274
0.58051648
0.57814568
0.5761574
0.57452495
0.57321924
0.57220986
0.5714661
0.57095774
0.57065564
0.57053221
0.57056173
0.57072044
0.57098672
0.57134102
0.57176586
0.57224567
0.57276675
0.57331706
0.57388614
0.57446491
0.57504559
0.57562152
0.57618703
0.57673739
0.57726861
0.57777742
0.57826112
0.57871755
0.57914499
0.5795421
0.57990785
0.58024148
0.58054239
0.58081015
0.58104436
0.58124469
0.58141076
0.58154207
0.58163803
0.58169794
0.58172104
0.58170631
0.58165202
0.58155545
0.58141412
0.58122725
0.58099251
0.58069843
0.58033226
0.57991502
0.57949466
0.57900312
0.57820333
0.57727544
0.64553017
0.74637847
0.69363168
0.70884033
0.69251431
0.68881851
0.68074997
0.6737087
0.66621793
0.6586683
0.65102263
0.64336182
0.63574586
0.62824517
0.62093109
0.61387467
0.60714346
0.60079858
0.59489216
0.58946533
0.58454699
0.58015335
0.57628834
0.57294466
0.57010519
0.56774494
0.56583282
0.5643336
0.56320958
0.56242208
0.56193265
0.56170405
0.56170086
0.56189003
0.56224113
0.56272647
0.56332113
0.56400287
0.56475203
0.56555135
0.56638577
0.56724224
0.56810956
0.56897814
0.56983984
0.5706878
0.57151632
0.57232064
0.5730969
0.57384198
0.57455338
0.57522919
0.57586795
0.57646861
0.57703047
0.57755309
0.5780363
0.57848006
0.57888446
0.5792497
0.57957601
0.57986359
0.58011256
0.58032294
0.58049458
0.58062721
0.58072051
0.58077378
0.58078562
0.58075404
0.58067786
0.58055679
0.58038642
0.5801532
0.57985019
0.57951065
0.57917548
0.57873911
0.5779649
0.5771068
0.64081579
0.73487178
0.68434347
0.69632397
0.68010263
0.67443713
0.66538627
0.65706257
0.64839986
0.63974057
0.63109505
0.622568
0.61424869
0.6062305
0.59860164
0.59144183
0.58481839
0.57878342
0.57337217
0.56860269
0.56447656
0.5609806
0.55808916
0.55576685
0.5539712
0.55265527
0.55176991
0.55126567
0.55109427
0.55120972
0.55156903
0.55213269
0.5528649
0.55373353
0.5547101
0.55576957
0.55689008
0.55805271
0.55924118
0.5604416
0.56164218
0.56283298
0.56400572
0.56515351
0.56627075
0.56735286
0.56839623
0.56939803
0.57035609
0.57126885
0.57213524
0.57295458
0.57372655
0.57445112
0.57512849
0.57575907
0.57634339
0.57688209
0.57737586
0.57782544
0.57823159
0.578595
0.57891625
0.57919578
0.57943389
0.57963074
0.57978634
0.57990024
0.57997132
0.57999848
0.57998174
0.5799209
0.57980949
0.57963329
0.57939202
0.57912669
0.57886619
0.57847786
0.57774105
0.57696492
0.63456697
0.72193031
0.67240709
0.68057949
0.66425244
0.65642637
0.64608263
0.63630606
0.62635409
0.6165524
0.60697117
0.59774441
0.58898777
0.58080762
0.57329221
0.56650842
0.56049946
0.5552847
0.55086112
0.54720614
0.54428122
0.54203586
0.54041148
0.53934506
0.53877212
0.53862913
0.53885534
0.53939393
0.54019282
0.54120497
0.54238848
0.54370641
0.54512653
0.54662098
0.54816582
0.54974065
0.55132821
0.55291399
0.55448591
0.55603397
0.55754995
0.55902724
0.5604605
0.56184559
0.56317931
0.56445929
0.56568385
0.56685192
0.56796291
0.56901664
0.57001328
0.57095327
0.57183728
0.57266615
0.57344088
0.57416257
0.57483238
0.57545151
0.57602117
0.57654257
0.57701689
0.57744523
0.57782856
0.57816771
0.57846339
0.57871616
0.57892631
0.57909356
0.57921719
0.57929694
0.57933374
0.57932697
0.57926861
0.57914601
0.57896589
0.57877095
0.57857221
0.57822065
0.57752797
0.57685285
0.6264571
0.70498762
0.65698904
0.66072016
0.64392012
0.63372773
0.62180736
0.61047502
0.5992645
0.58849603
0.57829614
0.56881501
0.56016932
0.55244666
0.54570028
0.53994987
0.53518417
0.53136562
0.52843611
0.52632295
0.52494465
0.52421587
0.52405146
0.5243695
0.52509334
0.5261529
0.52748522
0.52903463
0.53075249
0.53259679
0.53453156
0.53652626
0.53855518
0.5405968
0.54263327
0.54464989
0.54663465
0.54857785
0.55047174
0.55231023
0.55408863
0.55580342
0.55745208
0.5590329
0.56054488
0.56198759
0.56336107
0.56466576
0.5659024
0.56707202
0.56817582
0.56921518
0.5701916
0.57110665
0.57196199
0.57275929
0.57350024
0.57418647
0.57481966
0.57540136
0.57593313
0.57641636
0.57685237
0.57724232
0.57758728
0.57788814
0.57814543
0.5783591
0.57852891
0.57865542
0.57873989
0.57878078
0.57876938
0.57869675
0.57857655
0.57844818
0.57830046
0.57797497
0.57733079
0.57677982
0.61584092
0.68306964
0.63669507
0.63532974
0.6176312
0.60495359
0.59138782
0.57866456
0.56656698
0.55539181
0.54528041
0.53635344
0.52867651
0.5222681
0.51710267
0.51311888
0.51022855
0.50832607
0.5072968
0.50702411
0.50739479
0.50830268
0.50965099
0.51135336
0.51333409
0.5155278
0.5178787
0.52033967
0.52287129
0.52544082
0.52802134
0.53059081
0.53313142
0.53562883
0.5380717
0.54045113
0.54276028
0.54499403
0.54714866
0.54922163
0.55121138
0.55311711
0.5549387
0.55667656
0.55833153
0.55990479
0.5613978
0.56281224
0.56414996
0.56541294
0.56660324
0.56772299
0.56877435
0.56975948
0.57068056
0.57153973
0.57233907
0.57308061
0.57376633
0.57439813
0.5749778
0.57550702
0.57598734
0.57642021
0.57680697
0.57714877
0.57744635
0.57769998
0.57791006
0.57807777
0.57820422
0.57828663
0.57831651
0.5782898
0.57822607
0.57815856
0.57805598
0.57775874
0.57717213
0.57673305
0.60156575
0.65407254
0.60960745
0.60265137
0.58377595
0.56872636
0.55393342
0.54051721
0.52844213
0.51792432
0.50903619
0.50179479
0.49614993
0.4920022
0.48921653
0.48763724
0.48710085
0.4874461
0.4885211
0.49018762
0.49232326
0.49482195
0.49759333
0.5005615
0.50366349
0.50684756
0.51007158
0.51330155
0.51651027
0.51967617
0.52278234
0.52581569
0.52876627
0.53162666
0.53439154
0.53705726
0.53962154
0.54208324
0.54444205
0.54669842
0.54885336
0.55090833
0.55286515
0.5547259
0.5564929
0.55816861
0.55975561
0.56125655
0.56267415
0.56401112
0.56527019
0.56645405
0.56756539
0.56860683
0.56958094
0.57049021
0.57133705
0.57212378
0.57285264
0.57352577
0.57414516
0.5747127
0.57523013
0.57569911
0.57612118
0.57649766
0.57682945
0.57711724
0.57736208
0.57756565
0.57772856
0.57784704
0.57791367
0.57792915
0.57791614
0.57789973
0.57783602
0.57757949
0.57707314
0.5767031
0.58166024
0.61565048
0.57353494
0.56088381
0.5413336
0.52434493
0.50947377
0.49678651
0.48625066
0.47790899
0.47166403
0.46735608
0.46477397
0.46368361
0.46384706
0.46503772
0.46704936
0.46970087
0.47283741
0.4763294
0.48007022
0.48397337
0.48796947
0.49200345
0.49603204
0.50002157
0.50394614
0.50778606
0.51152666
0.51515725
0.51867027
0.5220607
0.52532546
0.52846307
0.53147325
0.53435667
0.53711478
0.53974956
0.54226346
0.54465925
0.54693993
0.54910869
0.55116885
0.55312377
0.55497688
0.5567316
0.55839136
0.55995953
0.56143946
0.56283443
0.56414764
0.56538224
0.56654126
0.56762767
0.56864435
0.56959404
0.5704794
0.57130297
0.57206719
0.57277437
0.57342668
0.57402614
0.57457469
0.57507411
0.57552606
0.57593195
0.57629285
0.57660985
0.57688455
0.57711882
0.57731279
0.57746237
0.5775622
0.57761705
0.57764944
0.5776743
0.57763911
0.57741869
0.57699734
0.57673948
0.55351149
0.5652975
0.5271163
0.50867634
0.48803043
0.4725535
0.45957295
0.44968838
0.44263513
0.43817024
0.43594741
0.4356032
0.43677995
0.43915125
0.4424325
0.44638456
0.45081183
0.45555773
0.46049902
0.46554001
0.47060738
0.47564554
0.48061294
0.48547892
0.49022134
0.49482458
0.49927808
0.50357514
0.507712
0.51168715
0.51550079
0.51915438
0.52265034
0.52599178
0.52918233
0.53222596
0.5351269
0.5378895
0.54051824
0.54301759
0.54539203
0.547646
0.5497839
0.55181002
0.55372859
0.55554372
0.55725943
0.55887962
0.56040807
0.56184847
0.56320437
0.56447919
0.56567627
0.5667988
0.56784985
0.56883239
0.56974921
0.57060304
0.57139647
0.57213193
0.57281173
0.57343803
0.57401287
0.57453816
0.57501562
0.57544672
0.57583269
0.57617496
0.57647542
0.57673583
0.57695587
0.57713196
0.57726141
0.57735206
0.57742412
0.57748313
0.57747409
0.57729547
0.57696117
0.576793
0.51300529
0.5004665
0.46324999
0.44535429
0.4279347
0.41573515
0.40742719
0.40279524
0.40118541
0.40201178
0.40470565
0.40878007
0.41383291
0.41954592
0.42567378
0.43203154
0.43848221
0.44492586
0.45129079
0.45752646
0.46359806
0.46948247
0.47516509
0.48063761
0.48589627
0.49094062
0.49577253
0.50039555
0.50481439
0.50903453
0.51306192
0.51690285
0.52056371
0.52405096
0.52737101
0.53053018
0.53353465
0.53639046
0.53910346
0.54167934
0.54412359
0.54644152
0.54863824
0.55071871
0.55268767
0.55454972
0.55630927
0.55797057
0.55953771
0.56101464
0.56240513
0.56371283
0.56494122
0.56609368
0.56717341
0.56818349
0.56912686
0.57000635
0.57082464
0.57158429
0.57228769
0.57293711
0.57353471
0.57408246
0.57458214
0.5750353
0.57544337
0.57580798
0.57613108
0.5764141
0.57665646
0.57685557
0.57701115
0.57713207
0.57723411
0.57731594
0.57732853
0.57719889
0.57695879
0.57687292
0.4512235
0.41866697
0.38897569
0.37413492
0.36330296
0.3585041
0.35793887
0.36068871
0.36576254
0.37240085
0.38001843
0.38819085
0.39661776
0.40509217
0.41347448
0.42167295
0.4296293
0.43730838
0.44469098
0.45176869
0.45854042
0.46500993
0.4711841
0.47707178
0.482683
0.48802835
0.49311867
0.49796475
0.50257718
0.50696627
0.51114192
0.51511365
0.51889056
0.52248132
0.52589418
0.52913703
0.53221732
0.53514219
0.5379184
0.54055242
0.54305038
0.54541814
0.54766131
0.54978522
0.55179499
0.55369548
0.55549138
0.55718715
0.55878707
0.56029525
0.56171561
0.56305191
0.56430776
0.56548662
0.5665918
0.56762644
0.56859356
0.56949605
0.57033668
0.57111806
0.57184269
0.5725129
0.57313091
0.57369879
0.57421837
0.57469131
0.57511922
0.57550388
0.57584712
0.57615008
0.57641235
0.57663255
0.57681202
0.57695863
0.57708262
0.57717877
0.57720972
0.5771308
0.57697902
0.57693166
0.3555166
0.32205181
0.30444603
0.29996809
0.30135049
0.30761308
0.31677876
0.32758231
0.33915047
0.35093212
0.36259165
0.37393313
0.38484894
0.39528606
0.4052249
0.41466585
0.42362096
0.43210873
0.44015093
0.44777061
0.4549909
0.46183433
0.46832245
0.47447562
0.4803129
0.48585212
0.49110984
0.49610149
0.50084138
0.50534281
0.50961817
0.51367897
0.51753597
0.5211992
0.52467804
0.5279813
0.53111723
0.5340936
0.53691773
0.53959653
0.54213653
0.54454393
0.54682458
0.54898407
0.5510277
0.55296052
0.55478735
0.55651278
0.5581412
0.5596768
0.56112358
0.56248539
0.56376588
0.56496856
0.5660968
0.56715378
0.56814254
0.56906604
0.56992706
0.57072827
0.5714722
0.57216125
0.5727977
0.57338364
0.573921
0.57441155
0.57485703
0.57525927
0.57561994
0.5759401
0.57621976
0.57645883
0.57665935
0.57682713
0.57696766
0.57707533
0.57712648
0.57709747
0.57701495
0.57699033
0.21647814
0.21519803
0.22057946
0.23396956
0.2512643
0.26963808
0.28788729
0.30536208
0.32183353
0.33723772
0.35159979
0.36498006
0.37745222
0.38909149
0.39996959
0.41015252
0.41969996
0.42866539
0.43709654
0.44503592
0.45252141
0.45958681
0.46626237
0.47257519
0.47854964
0.48420773
0.48956934
0.49465255
0.49947378
0.50404808
0.50838921
0.51250984
0.51642163
0.52013539
0.52366113
0.52700816
0.53018518
0.53320031
0.53606117
0.5387749
0.54134826
0.5437876
0.54609894
0.54828797
0.55036011
0.55232049
0.55417399
0.55592529
0.5575788
0.55913879
0.56060928
0.56199414
0.56329708
0.56452162
0.56567113
0.56674883
0.56775777
0.5687009
0.56958104
0.57040084
0.57116288
0.57186957
0.57252322
0.57312596
0.57367978
0.57418654
0.57464806
0.57506611
0.57544224
0.5757775
0.57607241
0.57632774
0.57654562
0.57672974
0.57688248
0.57699974
0.57706929
0.57708158
0.5770526
0.57703633
0.091896135
0.12178042
0.15918136
0.19280847
0.22292127
0.24942972
0.27295368
0.29395877
0.31286082
0.3299858
0.34559645
0.35990322
0.37307692
0.38525733
0.39656008
0.40708168
0.41690341
0.42609431
0.43471346
0.4428118
0.4504335
0.45761716
0.46439668
0.47080199
0.47685966
0.4825934
0.48802447
0.49317201
0.49805332
0.5026841
0.50707869
0.51125018
0.5152106
0.51897104
0.52254176
0.52593225
0.52915135
0.53220732
0.53510787
0.53786024
0.54047123
0.54294725
0.54529437
0.54751832
0.54962453
0.55161816
0.55350412
0.55528708
0.5569715
0.55856162
0.5600615
0.56147502
0.56280588
0.56405762
0.56523362
0.56633709
0.56737109
0.56833856
0.5692423
0.570085
0.5708692
0.57159734
0.57227172
0.5728945
0.5734677
0.57399325
0.57447298
0.5749086
0.57530154
0.57565286
0.57596335
0.57623414
0.57646716
0.57666479
0.57682798
0.57695403
0.57703707
0.57707297
0.57707632
0.57706218
0.010940179
0.29678362
0.47151813
0.51950941
0.52927388
0.52979336
0.52946973
0.53060708
0.53208729
0.53357006
0.53504887
0.53649163
0.53791141
0.53931689
0.54071881
0.54212714
0.54354338
0.54496805
0.54640091
0.54784097
0.5492868
0.5507366
0.55218838
0.55364003
0.55508938
0.55653422
0.55797239
0.55940174
0.56082017
0.56222565
0.56361617
0.56498978
0.56634459
0.5676787
0.56899026
0.57027744
0.57153841
0.57277136
0.57397446
0.5751459
0.57628385
0.57738647
0.57845192
0.57947835
0.58046391
0.58140676
0.58230506
0.58315701
0.58396086
0.5847149
0.58541751
0.58606716
0.58666245
0.58720211
0.58768502
0.5881102
0.5884769
0.58878447
0.58903247
0.58922039
0.58934746
0.58941327
0.5894178
0.58936109
0.5892423
0.58906112
0.5888133
0.58850236
0.58811276
0.58767315
0.58711875
0.58657532
0.58579199
0.58520506
0.5840584
0.58361587
0.5819231
0.58174464
0.5796163
0.57943654
0.064174861
0.38455641
0.5219902
0.54709217
0.54795634
0.54613388
0.54527853
0.54541911
0.54562239
0.5459263
0.54631602
0.54687091
0.54754609
0.54831221
0.54914072
0.55002834
0.55096844
0.55195651
0.55298717
0.55405525
0.55515601
0.55628498
0.55743797
0.55861097
0.55980019
0.56100203
0.56221301
0.56342985
0.56464935
0.56586845
0.56708422
0.5682938
0.56949441
0.57068338
0.57185808
0.57301595
0.57415449
0.57527126
0.57636383
0.57742983
0.57846693
0.57947282
0.58044523
0.58138193
0.5822807
0.5831394
0.58395591
0.58472821
0.58545432
0.58613239
0.58676067
0.58733754
0.58786153
0.58833134
0.58874584
0.58910408
0.58940536
0.58964909
0.58983493
0.58996242
0.59003092
0.59004016
0.58999026
0.58988137
0.58971284
0.58948428
0.589192
0.5888386
0.58841074
0.58793293
0.58734848
0.58676794
0.58596619
0.58534235
0.58419159
0.58370791
0.58201487
0.58182479
0.57962207
0.57955511
0.14915917
0.46557595
0.54173679
0.55449997
0.55313854
0.55219929
0.55218916
0.55274639
0.55316024
0.55368176
0.55418422
0.5547486
0.55533361
0.55596054
0.55662083
0.55731911
0.55805152
0.55881832
0.55961797
0.56044878
0.56130892
0.56219643
0.5631092
0.56404496
0.56500132
0.56597578
0.56696576
0.56796861
0.5689816
0.57000196
0.5710269
0.5720536
0.57307921
0.5741009
0.57511582
0.57612114
0.57711403
0.57809169
0.57905134
0.57999023
0.58090563
0.58179486
0.58265527
0.58348426
0.5842793
0.58503789
0.58575766
0.58643629
0.5870716
0.58766154
0.58820418
0.58869777
0.58914074
0.58953173
0.58986958
0.59015332
0.59038225
0.59055584
0.5906738
0.59073573
0.59074106
0.59068964
0.59058172
0.59041751
0.59019651
0.58991828
0.58957951
0.5891822
0.5887144
0.58819791
0.58758116
0.58696465
0.58614084
0.58548445
0.58432243
0.58380451
0.58210217
0.58190285
0.5796344
0.57966667
0.2315406
0.51289678
0.5553797
0.56288193
0.56020921
0.56043055
0.56049246
0.56108903
0.56136176
0.56181331
0.56218857
0.56264352
0.56310161
0.56359151
0.56409873
0.56463124
0.56518637
0.56576628
0.56637082
0.56699992
0.56765327
0.56833037
0.56903046
0.56975255
0.57049545
0.57125773
0.57203779
0.5728338
0.57364379
0.5744656
0.57529696
0.57613543
0.57697847
0.57782346
0.57866765
0.57950827
0.58034246
0.58116734
0.58197997
0.58277744
0.58355681
0.58431514
0.58504955
0.58575716
0.58643518
0.58708088
0.58769161
0.58826485
0.5887982
0.58928942
0.58973644
0.59013737
0.59049055
0.59079455
0.59104815
0.59125037
0.5914005
0.59149804
0.59154275