/*--------------------------------*- C++ -*----------------------------------*\
  =========                 |
  \\      /  F ield         | OpenFOAM: The Open Source CFD Toolbox
   \\    /   O peration     | Website:  https://openfoam.org
    \\  /    A nd           | Version:  12
     \\/     M anipulation  |
\*---------------------------------------------------------------------------*/
FoamFile
{
    format      ascii;
    class       volScalarField;
    location    "0.148";
    object      omega;
}
// * * * * * * * * * * * * * * * * * * * * * * * * * * * * * * * * * * * * * //

dimensions      [0 0 -1 0 0 0 0];

internalField   nonuniform List<scalar> 
16000
(
1090.2338
2190.88
1070.2045
644.59389
454.69675
316.20814
239.89745
181.10946
145.89184
118.12721
100.37374
85.912227
75.196874
66.242557
58.937174
52.781683
47.585553
43.153774
39.345815
36.049572
33.180876
30.668731
28.45473
26.492286
24.743856
23.180232
21.77723
20.51617
19.381222
18.357941
17.433265
16.596889
15.840607
15.157475
14.541562
13.987361
13.489686
13.043645
12.64515
12.290752
11.976576
11.698546
11.453695
11.23933
11.052384
10.889739
10.748971
10.627779
10.523955
10.435409
10.360268
10.296894
10.243754
10.199496
10.162951
10.133225
10.109723
10.092194
10.08095
10.076676
10.077292
10.077497
10.077078
10.07629
10.074995
10.073138
10.070661
10.067521
10.063659
10.058967
10.053248
10.046106
10.037191
10.0279
10.020705
10.015397
10.012145
10.018039
10.011999
10.026193
1131.9401
2182.4216
1062.5733
644.68965
454.8145
319.06552
240.94809
182.8987
146.71283
119.14814
100.90953
86.469798
75.552593
66.551086
59.159867
52.954401
47.711569
43.245094
39.409944
36.09211
33.206649
30.682277
28.459638
26.491436
24.73909
23.173019
21.76834
20.50602
19.370309
18.347006
17.422784
16.58698
15.831245
15.148522
14.532915
13.978983
13.481651
13.035967
12.637653
12.283382
11.969572
11.691927
11.447326
11.233193
11.046643
10.884404
10.744011
10.623181
10.51973
10.431563
10.356777
10.293743
10.240928
10.19698
10.1607
10.131156
10.107713
10.09002
10.078136
10.072649
10.072775
10.07294
10.072424
10.071548
10.070184
10.06827
10.065744
10.062557
10.05865
10.053922
10.048202
10.041141
10.032439
10.023721
10.017002
10.011911
10.009661
10.012926
10.012532
10.026992
1172.0567
2184.0335
1050.3644
641.13693
451.4439
319.29933
239.84595
183.08169
146.26329
119.30081
100.75359
86.478067
75.447547
66.451052
59.027076
52.810155
47.556626
43.085085
39.248843
35.932178
33.049763
30.530428
28.314256
26.353724
24.609457
23.051794
21.655386
20.400928
19.272695
18.256841
17.339973
16.511165
15.761992
15.085305
14.475254
13.926446
13.433943
12.992838
12.598673
12.2481
11.937914
11.663703
11.422167
11.210752
11.026827
10.867013
10.728797
10.609915
10.508222
10.421649
10.348268
10.28648
10.23476
10.19178
10.156337
10.127476
10.104546
10.087176
10.075293
10.069187
10.068696
10.068739
10.068076
10.067058
10.065569
10.063546
10.060919
10.057638
10.053643
10.048832
10.043051
10.036005
10.027434
10.019357
10.013156
10.008586
10.006822
10.009134
10.012537
10.026949
1210.3799
2192.3063
1040.742
637.70079
447.67327
319.33888
238.44899
183.10695
145.67352
119.35362
100.54641
86.424758
75.301499
66.304007
58.854141
52.627478
47.366488
42.892281
39.057383
35.744177
32.86682
30.354398
28.146392
26.195188
24.460539
22.912751
21.52604
20.280808
19.161264
18.153966
17.245537
16.424762
15.683155
15.013451
14.409846
13.866981
13.380043
12.94423
12.554935
12.208648
11.902613
11.63236
11.394399
11.186101
11.005159
10.848104
10.712362
10.595683
10.495953
10.411156
10.33933
10.278912
10.228386
10.186452
10.151913
10.123793
10.101419
10.084402
10.072608
10.06618
10.064993
10.064859
10.064016
10.062822
10.061174
10.059009
10.056254
10.052851
10.048742
10.043822
10.037949
10.030902
10.022418
10.014989
10.009346
10.005333
10.003836
10.005774
10.011288
10.024091
1246.734
2210.6497
1032.355
633.98295
443.15106
318.63422
236.37073
182.64489
144.70694
119.12822
100.15145
86.195016
75.016682
66.025052
58.566506
52.341041
47.083499
42.615622
38.790098
35.487514
32.621448
30.121461
27.926474
25.988982
24.267935
22.733678
21.360062
20.12724
19.019262
18.02312
17.125581
16.315143
15.583287
14.922615
14.327381
13.79224
13.312491
12.883486
12.500553
12.159864
11.859136
11.593925
11.360592
11.15629
10.979105
10.825515
10.692875
10.578945
10.481635
10.399015
10.329084
10.270322
10.221226
10.180532
10.147062
10.119829
10.098138
10.08159
10.070013
10.063434
10.061676
10.061302
10.060244
10.058838
10.056994
10.054652
10.051735
10.04818
10.043927
10.038872
10.032873
10.025801
10.017464
10.010691
10.005644
10.00218
10.000894
10.002842
10.009858
10.019539
1280.9742
2236.5276
1028.3996
631.00142
439.15678
317.30236
233.81589
181.77511
143.46809
118.66337
99.613317
85.81126
74.612664
65.63151
58.178725
51.964089
46.719195
42.265357
38.455976
35.170149
32.32072
29.837944
27.660203
25.740133
24.036188
22.518697
21.161191
19.943645
18.849847
17.867215
16.9828
16.184795
15.464689
14.814923
14.22982
13.704042
13.232974
12.812133
12.436919
12.103063
11.808682
11.549459
11.321701
11.122182
10.949425
10.79991
10.670909
10.560199
10.465692
10.385582
10.317823
10.260951
10.213476
10.174174
10.141901
10.115666
10.094754
10.078755
10.067484
10.060883
10.058692
10.058026
10.056722
10.055071
10.052999
10.05045
10.047343
10.043609
10.039187
10.033979
10.027825
10.020696
10.012621
10.006513
10.002087
9.9991582
9.9980952
10.000129
10.007987
10.016085
1313.059
2267.547
1028.5305
628.17619
435.22188
315.33353
231.1668
180.5336
142.05528
117.96194
98.940889
85.272265
74.085666
65.121266
57.687599
51.493649
46.270501
41.838523
38.051937
34.78911
31.961821
29.501202
27.345219
25.445979
23.762833
22.265562
20.927391
19.728199
18.651423
17.684856
16.815988
16.032685
15.326493
14.68966
14.116583
13.601935
13.141162
12.729923
12.363837
12.038292
11.751357
11.499066
11.277853
11.083954
10.916292
10.771451
10.646618
10.539593
10.448253
10.370972
10.305647
10.250883
10.205205
10.167436
10.136473
10.111335
10.091292
10.075916
10.06502
10.058502
10.056003
10.055003
10.053424
10.0515
10.049172
10.046387
10.043066
10.039129
10.034515
10.029138
10.022818
10.01558
10.007967
10.002525
9.9987288
9.9963251
9.9955112
9.997709
10.005629
10.012361
1343.0988
2301.165
1030.1682
625.03601
431.35761
312.71721
228.52566
179.06044
140.54197
117.04537
98.151001
84.58656
73.436803
64.496352
57.093214
50.929148
45.736298
41.333908
37.575882
34.342209
31.542635
29.109182
26.979832
25.102928
23.444421
21.971058
20.655694
19.478209
18.421598
17.473926
16.623289
15.857199
15.167317
14.545657
13.9867
13.485123
13.03643
12.636378
12.280855
11.965849
11.687509
11.443074
11.229344
11.042017
10.880085
10.740472
10.620308
10.517401
10.429553
10.355382
10.292716
10.240247
10.196518
10.160396
10.130836
10.106876
10.087772
10.07308
10.062611
10.056252
10.053559
10.052191
10.050314
10.048094
10.045486
10.042442
10.038884
10.034726
10.0299
10.02434
10.017868
10.010457
10.003556
9.9987767
9.9956065
9.993723
9.99316
9.9954275
10.003015
10.009359
1371.1883
2335.182
1028.6172
621.12052
426.57454
309.39988
224.99324
177.19321
138.70051
115.94427
97.239274
83.753198
72.659035
63.752024
56.390527
50.264838
45.110876
40.746384
37.019762
33.82135
31.055406
28.65447
26.557509
24.711762
23.082299
21.63697
20.348171
19.195928
18.162764
17.236872
16.407151
15.660762
14.989547
14.385239
13.842413
13.355752
12.920821
12.533467
12.189642
11.885315
11.616887
11.381314
11.176
10.996729
10.841153
10.707268
10.59231
10.493917
10.409853
10.339029
10.279211
10.229188
10.187529
10.153142
10.125051
10.102328
10.084221
10.070263
10.060257
10.054104
10.051307
10.04955
10.047355
10.044822
10.041915
10.038592
10.03478
10.030388
10.025335
10.019571
10.012992
10.005472
9.9994353
9.9953153
9.992753
9.9913861
9.99112
9.9934069
10.000517
10.006716
1397.4226
2367.9689
1019.9981
616.12131
420.08102
305.64005
220.63006
174.85449
136.80606
114.66119
96.19536
82.766852
71.744287
62.880259
55.571471
49.487819
44.380307
40.062579
36.381944
33.22739
30.502659
28.140674
26.081699
24.271536
22.675808
21.262785
20.004472
18.881174
17.874938
16.973884
16.167833
15.443742
14.793665
14.208981
13.684372
13.214524
12.795057
12.42191
12.091198
11.798952
11.541492
11.315634
11.119305
10.947994
10.799486
10.671798
10.562918
10.469402
10.389435
10.322145
10.265327
10.217861
10.178359
10.145767
10.119185
10.097732
10.08066
10.067475
10.057957
10.05203
10.049193
10.047034
10.044509
10.04165
10.038432
10.034815
10.030734
10.026098
10.020814
10.014826
10.008169
10.000892
9.9956459
9.9921768
9.9901941
9.9893336
9.9894249
9.9917153
9.9981503
10.004183
1421.9163
2398.827
1011.092
610.05307
411.93492
301.48166
216.01355
172.31837
134.81292
113.19678
95.006418
81.620449
70.680888
61.860492
54.613473
48.593194
43.545931
39.286501
35.66048
32.558433
29.882491
27.56609
25.551216
23.782359
22.225307
20.84902
19.625328
18.534865
17.559231
16.686278
15.906429
15.207291
14.580883
14.018142
13.513856
13.062713
12.660392
12.302906
11.98654
11.707419
11.461953
11.246749
11.060117
10.897506
10.756545
10.635222
10.532085
10.44381
10.368532
10.304916
10.251258
10.206426
10.169135
10.138367
10.113304
10.093131
10.077109
10.064725
10.055715
10.05001
10.047159
10.0446
10.041735
10.038545
10.035008
10.031089
10.026729
10.021841
10.01633
10.010121
10.003336
9.9967073
9.9922242
9.9893876
9.9879496
9.9875737
9.9880542
9.9903563
9.996053
10.001747
1444.7947
2428.7759
997.66616
602.44259
402.39325
296.91451
211.22346
169.52667
132.79444
111.55688
93.645328
80.283641
69.431065
60.686262
53.520089
47.577622
42.603974
38.414695
34.853717
31.813325
29.194586
26.930801
24.966291
23.244598
21.731572
20.396274
19.211548
18.158013
17.216837
16.375589
15.623193
14.951692
14.351549
13.81313
13.331321
12.900797
12.517317
12.176937
11.876156
11.611211
11.378641
11.175629
10.999193
10.845699
10.712736
10.598161
10.500999
10.418001
10.347092
10.287286
10.23714
10.195031
10.159981
10.13104
10.107477
10.088565
10.073587
10.062016
10.053534
10.048033
10.045151
10.042203
10.038995
10.035475
10.031617
10.027391
10.022748
10.017603
10.011872
10.005492
9.9985298
9.9929429
9.9891911
9.9869634
9.9860323
9.9861075
9.9869793
9.9893136
9.9943359
9.9995591
1466.3683
2456.941
980.32395
593.93292
392.34785
291.93737
206.36334
166.53663
130.72433
109.71956
92.046966
78.739725
67.999879
59.351511
52.284781
46.437307
41.551649
37.445414
33.960539
30.991404
28.438718
26.235232
24.327184
22.658884
21.195831
19.904109
18.76283
17.750515
16.847759
16.042379
15.323261
14.682017
14.110569
13.598686
13.141289
12.733022
12.369776
12.047618
11.7633
11.513265
11.293961
11.102492
10.936765
10.792781
10.668177
10.56108
10.469889
10.392294
10.325989
10.269888
10.222868
10.18376
10.151
10.123877
10.101771
10.084075
10.070109
10.059341
10.051413
10.046105
10.043117
10.039803
10.036255
10.032408
10.028235
10.023704
10.018777
10.013379
10.007422
10.000955
9.9943042
9.9895998
9.9865567
9.9849092
9.9844479
9.9849312
9.9861755
9.9885686
9.9930483
9.9979725
1486.8724
2479.5905
958.81631
584.86227
381.85628
286.60397
201.51885
163.35495
128.53141
107.58961
90.195525
76.977828
66.374495
57.847953
50.901404
45.167429
40.385698
36.376317
32.979856
30.09171
27.614722
25.480184
23.632469
22.023901
20.617608
19.378955
18.286218
17.319758
16.459575
15.69357
15.010443
14.401996
13.861069
13.377621
12.946299
12.561637
12.219762
11.916703
11.649454
11.414813
11.209317
11.029943
10.87497
10.740568
10.624267
10.524012
10.438809
10.366574
10.305285
10.253011
10.208999
10.172477
10.142231
10.116951
10.09625
10.079701
10.066694
10.05669
10.049333
10.044246
10.041018
10.037363
10.033482
10.029318
10.024839
10.020012
10.014805
10.009166
10.003006
9.9964163
9.9905996
9.9866986
9.9843188
9.9832194
9.9831945
9.9840361
9.9856127
9.9881149
9.9921377
9.9967996
1506.565
2492.0518
933.19117
575.14411
370.98699
280.94615
196.76461
159.90239
126.09535
105.1743
88.06364
74.980143
64.542403
56.165439
49.362574
43.762903
39.103194
35.205083
31.910991
29.111107
26.719724
24.664042
22.890615
21.349535
20.006704
18.826615
17.787599
16.871027
16.057267
15.334068
14.689923
14.116559
13.606183
13.152533
12.748547
12.38846
12.068769
11.78545
11.535638
11.316628
11.125075
10.958691
10.814392
10.689477
10.581581
10.488364
10.40894
10.341686
10.284793
10.236746
10.195757
10.161622
10.133509
10.110275
10.090966
10.07548
10.063365
10.054058
10.047249
10.042465
10.038828
10.034854
10.030653
10.026185
10.021415
10.016306
10.010825
10.004952
9.9986798
9.9921736
9.9874098
9.9842406
9.9824677
9.9818774
9.9822606
9.9834102
9.9852507
9.9879335
9.991779
9.9962321
1525.6661
2483.9273
903.83162
564.82447
359.7868
274.96996
192.09408
156.05148
123.33891
102.42868
85.621564
72.723938
62.487566
54.292871
47.660909
42.218206
37.701418
33.925787
30.749535
28.058367
25.766191
23.80026
22.109665
20.644052
19.371069
18.25569
17.275426
16.410642
15.646387
14.96867
14.365629
13.82959
13.353006
12.929686
12.553636
12.218479
11.921202
11.657802
11.425341
11.221839
11.043677
10.888914
10.755191
10.639537
10.539895
10.454238
10.380528
10.31807
10.265177
10.220828
10.183201
10.151378
10.125154
10.103675
10.085927
10.071443
10.060147
10.051458
10.045098
10.040595
10.036537
10.032256
10.027752
10.022994
10.017949
10.01258
10.006848
10.000745
9.9944082
9.9886385
9.9847143
9.9822201
9.9809881
9.9808597
9.9816228
9.9830411
9.9850628
9.9879364
9.9918088
9.9961526
1544.3437
2435.0414
872.20584
553.93671
348.31258
268.58778
187.19693
151.77441
120.14868
99.304951
82.835622
70.184567
60.194145
52.220673
45.789856
40.523901
36.172938
32.550106
29.511828
26.944606
24.76563
22.900907
21.302325
19.920008
18.720455
17.674563
16.757766
15.950675
15.238051
14.607653
14.046951
13.548811
13.106023
12.712883
12.364427
12.053989
11.77882
11.535201
11.319851
11.131507
10.966528
10.822983
10.699278
10.592421
10.500325
10.421327
10.353731
10.29591
10.246747
10.205735
10.17106
10.141799
10.117298
10.097371
10.080981
10.067604
10.057053
10.048928
10.042893
10.038553
10.034137
10.029561
10.024772
10.019744
10.01444
10.00883
10.002886
9.9966258
9.9903206
9.9856761
9.9825091
9.9806212
9.9798628
9.9801396
9.9812461
9.9829079
9.9850494
9.9880681
9.9921194
9.9964625
1562.4627
2399.4556
840.30778
542.4236
336.56698
261.25759
182.14687
146.96798
116.41091
95.745162
79.670795
67.338005
57.646846
49.940629
43.737041
38.691671
34.539317
31.093479
28.214497
25.788383
23.735889
21.983502
20.482046
19.190139
18.072237
17.099469
16.248574
15.50059
14.840365
14.25746
13.739245
13.278892
12.86964
12.505882
12.182834
11.896366
11.642488
11.418094
11.220328
11.046472
10.894241
10.761349
10.64697
10.548433
10.463467
10.39053
10.32814
10.274929
10.229655
10.19166
10.159665
10.132662
10.110013
10.091435
10.076281
10.063935
10.054076
10.046494
10.040706
10.036342
10.031631
10.026775
10.02172
10.016441
10.010899
10.005068
9.9989436
9.9926404
9.987062
9.9832348
9.9807593
9.9794191
9.9790732
9.9796918
9.9810879
9.9829701
9.9852247
9.9883401
9.992556
9.9969875
1579.5664
2357.4769
807.49108
529.95001
324.44721
252.74495
176.75036
141.51703
112.01711
91.68828
76.093638
64.16352
54.827079
47.438408
41.527863
36.74403
32.824596
29.582385
26.882915
24.613965
22.695999
21.06588
19.672294
18.47488
17.440817
16.542733
15.758323
15.069583
14.461174
13.923216
13.446408
13.022645
12.64579
12.310778
12.013289
11.749398
11.51557
11.308784
11.12648
10.966374
10.826395
10.704497
10.598743
10.507867
10.429529
10.362248
10.304659
10.255567
10.213899
10.178679
10.14911
10.1242
10.103299
10.085909
10.071811
10.060323
10.051182
10.04413
10.038617
10.033979
10.029029
10.023916
10.018613
10.013103
10.007347
10.001323
9.9950958
9.9889485
9.9844301
9.9813026
9.979415
9.9785699
9.9786022
9.9794913
9.9811105
9.9831692
9.9855496
9.9887308
9.9929573
9.9974219
1594.9899
2289.688
773.016
516.01696
311.18774
242.90089
170.69262
135.28199
106.86683
87.075528
72.0784
60.641995
51.752321
44.761958
39.198775
34.719814
31.066922
28.051885
25.545001
23.446447
21.67681
20.174566
18.891765
17.790516
16.84034
16.015956
15.296162
14.663348
14.105696
13.612303
13.174744
12.785674
12.439308
12.131
11.857005
11.614026
11.398864
11.208591
11.040808
10.893274
10.764142
10.651798
10.554843
10.470905
10.398614
10.336502
10.283282
10.237838
10.19921
10.166847
10.139411
10.116332
10.096971
10.08084
10.067673
10.056921
10.048348
10.041738
10.03648
10.031511
10.026354
10.021016
10.015486
10.009758
10.003818
9.9976369
9.9913605
9.9860897
9.9823466
9.979842
9.9784283
9.9779905
9.9783918
9.9795074
9.9812831
9.9834521
9.9859501
9.9892087
9.9933703
9.997799
1607.6398
2220.8033
735.98057
500.04573
297.1413
231.52978
163.50294
128.09566
100.88337
81.877102
67.619433
56.814587
48.484584
41.970387
36.809459
32.672071
29.312651
26.539172
24.241449
22.320485
20.702458
19.329905
18.157848
17.151124
16.282009
15.527924
14.868401
14.290005
13.779724
13.32759
12.92645
12.569522
12.251464
11.96791
11.715418
11.491277
11.293019
11.117682
10.963174
10.827318
10.708256
10.605032
10.515254
10.437647
10.37077
10.313325
10.264091
10.222037
10.186304
10.156152
10.130643
10.109171
10.09118
10.076194
10.063867
10.053764
10.045643
10.039323
10.034225
10.028986
10.023637
10.01811
10.012386
10.006454
10.000345
9.9941461
9.9881164
9.9838005
9.9807505
9.9788028
9.977784
9.9776247
9.9783829
9.979692
9.9815781
9.9837977
9.9863643
9.9896929
9.9937787
9.9980732
1614.7149
2137.2816
696.14948
480.33635
282.04239
218.31194
154.70634
119.82059
94.066706
76.140751
62.801023
52.789714
45.120989
39.150358
34.434193
30.662263
27.60751
25.090776
23.005499
21.262932
19.794761
18.548617
17.483468
16.567112
15.77417
15.084534
14.481961
13.952827
13.486094
13.071567
12.703356
12.375464
12.083071
11.822145
11.589326
11.381996
11.198778
11.036661
10.893869
10.768566
10.658945
10.563273
10.48012
10.408124
10.346027
10.292691
10.247017
10.207884
10.17482
10.146667
10.122828
10.102728
10.085902
10.07196
10.06038
10.050873
10.043161
10.037011
10.031919
10.026465
10.020927
10.015232
10.009364
10.003281
9.9969841
9.9907118
9.985643
9.9819841
9.9795256
9.9780795
9.9774636
9.9774319
9.9784959
9.9799797
9.9819498
9.9842039
9.9868096
9.9901682
9.9941929
9.9983169
1611.0462
2034.8041
653.00803
454.58733
265.71157
202.89687
144.06199
110.48178
86.568501
69.995231
57.809672
48.715498
41.781401
36.397604
32.150557
28.754553
26.005066
23.743821
21.866704
20.295915
18.970114
17.842689
16.877161
16.044801
15.322838
14.693205
14.141484
13.655866
13.226572
12.845677
12.506634
12.204347
11.934548
11.693732
11.478929
11.287593
11.117537
10.96695
10.834091
10.717408
10.615424
10.526624
10.449326
10.382346
10.324459
10.274638
10.232212
10.195823
10.164763
10.138383
10.116031
10.097112
10.081346
10.068141
10.057195
10.048203
10.040925
10.034949
10.029633
10.024031
10.018312
10.012441
10.006428
10.000284
9.9940524
9.9880015
9.9837194
9.980623
9.9786066
9.9775195
9.9771907
9.9776504
9.9786666
9.9803075
9.9823395
9.9846386
9.987294
9.9906382
9.9945437
9.998439
1590.4818
1903.671
606.76609
422.12279
248.15301
185.07711
131.79307
100.40636
78.739619
63.767025
52.867183
44.757901
38.589522
33.805601
30.03032
27.005231
24.548969
22.53049
20.848626
19.43665
18.240948
17.220882
16.344726
15.587373
14.928697
14.352514
13.845972
13.39915
13.003364
12.651641
12.337961
12.057822
11.807405
11.583593
11.383759
11.205653
11.047297
10.906911
10.782871
10.673683
10.578039
10.495111
10.422889
10.360302
10.306238
10.259683
10.219726
10.185534
10.156246
10.131302
10.11029
10.092463
10.077431
10.064843
10.054386
10.045823
10.038787
10.032945
10.027454
10.021746
10.015903
10.009884
10.00369
9.9973635
9.9911345
9.9860004
9.9822632
9.9796671
9.9780412
9.9772526
9.9770497
9.9777781
9.9789256
9.9806317
9.982695
9.9850304
9.9877516
9.9911043
9.9949085
9.9985839
1544.1797
1743.7097
558.58807
383.7346
230.28817
165.12701
118.58697
90.22024
71.038074
57.780953
48.198588
41.07728
35.662378
31.459166
28.134751
25.461121
23.279155
21.475882
19.969326
18.698188
17.61682
16.690255
15.891288
15.198385
14.594201
14.064432
13.596581
13.182677
12.815003
12.488089
12.195929
11.93458
11.700619
11.491247
11.304101
11.13715
10.98861
10.856874
10.740462
10.638
10.548194
10.469823
10.401707
10.342559
10.291403
10.247271
10.209349
10.177083
10.149413
10.1258
10.105702
10.088671
10.074284
10.062174
10.05214
10.043793
10.036906
10.031102
10.025449
10.019643
10.01372
10.007648
10.001422
9.9950906
9.9889596
9.9844744
9.9811878
9.9789782
9.9776691
9.9771298
9.9770285
9.9779809
9.9792167
9.9809513
9.9830084
9.9853429
9.9880867
9.9914296
9.9951724
9.9986853
1463.9676
1581.4619
509.4611
344.19822
206.29658
145.80359
105.38606
80.612546
63.920587
52.351073
44.019709
37.829034
33.110765
29.434254
26.512301
24.149537
22.209945
20.59692
19.240651
18.089943
17.105597
16.257772
15.523101
14.883049
14.322688
13.829846
13.394503
13.008354
12.664659
12.357808
12.083152
11.837031
11.616375
11.418648
11.241703
11.083687
10.942955
10.818011
10.707465
10.610005
10.524406
10.449588
10.384839
10.328552
10.279865
10.237865
10.20174
10.170752
10.144236
10.121545
10.102198
10.085764
10.071953
10.060272
10.050465
10.042277
10.035452
10.02962
10.023801
10.017861
10.011812
10.00564
9.9993596
9.9930945
9.9874515
9.9833898
9.9804533
9.9785246
9.9774496
9.9771017
9.9773569
9.9781813
9.9795221
9.9812604
9.9833042
9.9856202
9.9883253
9.9915561
9.9951581
9.9986044
1351.6576
1493.5498
463.26952
296.76289
182.43052
127.65595
93.451
72.104488
57.761145
47.770972
40.548639
35.164519
31.038308
27.801071
25.209718
23.099584
21.356027
19.897078
18.661935
17.608265
16.702303
15.918321
15.236017
14.639155
14.114573
13.651509
13.241059
12.875891
12.550054
12.259066
11.997998
11.763655
11.553223
11.364394
11.195206
11.043963
10.909159
10.78942
10.683468
10.590088
10.508108
10.436382
10.373787
10.31939
10.272245
10.231506
10.196403
10.16627
10.140642
10.11868
10.099949
10.084005
10.070476
10.059041
10.049413
10.041338
10.03456
10.028698
10.022758
10.016701
10.010526
10.004233
9.9978653
9.9916352
9.9864726
9.9827057
9.9800299
9.9783052
9.9773975
9.9771306
9.9775377
9.9784346
9.9798044
9.981549
9.9835921
9.9859155
9.9885968
9.9917117
9.995142
9.9985108
1218.788
1251.8437
423.03756
254.44612
160.2348
112.52009
83.573742
65.233299
52.892786
44.240917
37.938627
33.197332
29.530046
26.626784
24.282803
22.358807
20.757349
19.408593
18.261362
17.277349
16.427448
15.689009
15.044096
14.478231
13.97952
13.53807
13.145843
12.796081
12.483212
12.202631
11.950568
11.723877
11.519973
11.336691
11.172194
11.024886
10.893351
10.77629
10.672498
10.580845
10.500311
10.430164
10.368848
10.315527
10.269283
10.229296
10.194808
10.165138
10.139673
10.117878
10.099267
10.083418
10.069962
10.058578
10.048987
10.040936
10.034172
10.028312
10.022357
10.016267
10.010042
10.003678
9.9972304
9.9909648
9.9860381
9.9824279
9.9798929
9.9782874
9.9774893
9.9772836
9.9777226
9.9786608
9.9800396
9.9817825
9.9838291
9.9861634
9.988823
9.991836
9.9951174
9.9984327
1099.3158
1113.734
390.31494
223.69686
143.62793
101.3825
76.256406
60.227826
49.412118
41.763388
36.134984
31.859805
28.522238
25.857354
23.68893
21.896267
20.394334
19.121795
18.033453
17.095338
16.281424
15.571388
14.949071
14.401495
13.918526
13.489834
13.108158
12.767118
12.461471
12.186855
11.939673
11.716959
11.516262
11.335534
11.173039
11.027272
10.896891
10.780669
10.677455
10.586152
10.505706
10.435105
10.373387
10.319618
10.27293
10.232509
10.19761
10.167556
10.141735
10.119603
10.100678
10.084536
10.070807
10.059167
10.049336
10.041063
10.034101
10.028108
10.022252
10.01623
10.0101
10.003846
9.9975151
9.9913344
9.9863053
9.9826562
9.9800878
9.9784623
9.9776551
9.9774493
9.9778921
9.9788227
9.9801927
9.9819276
9.9839788
9.9863245
9.9889691
9.9919078
9.9950833
9.9983756
1044.4312
1072.6545
366.01923
206.59176
132.74195
93.816576
70.799843
56.247385
46.445343
39.503419
34.379112
30.46883
27.402907
24.94467
22.936625
21.270509
19.869817
18.679195
17.657759
16.774739
16.006548
15.334758
14.744677
14.224354
13.763893
13.355008
12.990679
12.664994
12.372979
12.110487
11.874077
11.660907
11.468627
11.295284
11.139228
10.999038
10.873457
10.761337
10.661608
10.573249
10.495276
10.426738
10.366722
10.314354
10.268808
10.229315
10.195163
10.165705
10.140355
10.118589
10.099942
10.084006
10.070421
10.058874
10.049091
10.040829
10.033847
10.027806
10.021876
10.015789
10.009597
10.003289
9.9969237
9.9907719
9.9860064
9.9824892
9.9800199
9.9784488
9.977652
9.9774272
9.9779495
9.9788572
9.9802213
9.9819476
9.9840001
9.9863522
9.9889915
9.9918995
9.9950346
9.9983364
31551.352
79223.636
37121.478
10759.86
1416.625
612.53605
434.85735
351.15061
290.92476
236.64596
192.78412
159.47172
134.84389
116.56958
102.50739
91.011031
81.280661
72.97848
65.869053
59.737411
54.405322
49.736903
45.627078
41.990332
38.761208
35.875099
33.286543
30.955468
28.849943
26.944769
25.21845
23.651826
22.228171
20.932763
19.754043
18.682291
17.708754
16.825674
16.025974
15.303209
14.651765
14.066073
13.541064
13.072169
12.6549
12.285022
11.958706
11.671918
11.420976
11.202521
11.013282
10.850141
10.710124
10.590704
10.489363
10.403884
10.333939
10.279337
10.240055
10.218741
10.211748
10.209943
10.208112
10.205516
10.202502
10.199104
10.19465
10.18793
10.178515
10.168404
10.153271
10.141792
10.1128
10.098303
10.069299
10.073555
10.020898
10.04356
9.988817
10.009143
19942.253
59687.778
24724.691
5113.102
974.91699
529.78431
398.43512
321.96608
264.47957
213.06588
174.70324
145.84484
124.75863
108.94966
96.46864
85.997213
77.070208
69.444689
62.892057
57.211744
52.248979
47.887386
44.034651
40.614627
37.565303
34.833514
32.377762
30.160566
28.153751
26.334658
24.683451
23.182375
21.816026
20.570859
19.436536
18.404063
17.465272
16.612959
15.840483
15.14182
14.511723
13.944857
13.436463
12.982213
12.577795
12.219177
11.902703
11.624445
11.380895
11.168827
10.985069
10.826611
10.690583
10.574565
10.476123
10.393018
10.324578
10.271295
10.233234
10.21315
10.206756
10.205128
10.203324
10.200789
10.197854
10.194524
10.190558
10.184504
10.175737
10.16602
10.151427
10.140023
10.111846
10.097615
10.068686
10.073465
10.0207
10.043654
9.9894103
10.009687
28153.111
35643.749
13592.846
2561.6214
838.5731
499.77544
388.36651
306.65999
251.02242
201.46376
166.91365
139.74126
120.1795
105.26297
93.360068
83.298976
74.74988
67.448546
61.162947
55.704921
50.930951
46.73156
43.018655
39.719387
36.772838
34.13169
31.755732
29.608433
27.663683
25.899751
24.297502
22.839866
21.512132
20.30135
19.197882
18.193046
17.279002
16.448862
15.696226
15.015315
14.401104
13.848378
13.352587
12.909545
12.515047
12.165197
11.856449
11.584941
11.347293
11.140365
10.961054
10.806427
10.673707
10.560565
10.464492
10.383429
10.316239
10.263974
10.226851
10.207699
10.201756
10.200285
10.198527
10.196066
10.193216
10.189964
10.186254
10.180908
10.172825
10.163528
10.14951
10.138202
10.110905
10.096842
10.068006
10.073178
10.020517
10.043718
9.990107
10.010344
35710.297
24054.334
8377.1381
1551.2282
755.95548
476.43027
375.94141
290.69315
239.76437
190.7659
159.8647
133.81721
115.83112
101.71756
90.390449
80.735081
72.551904
65.553059
59.517579
54.268783
49.672299
45.625038
42.043155
38.85711
36.009284
33.451765
31.150609
29.069399
27.183627
25.472266
23.916862
22.500968
21.210499
20.033048
18.959637
17.98182
17.092073
16.28379
15.550781
14.887501
14.289117
13.750522
13.267369
12.835596
12.451096
12.110105
11.809182
11.544522
11.312875
11.111181
10.936406
10.785697
10.656432
10.546144
10.452512
10.373533
10.307793
10.256571
10.220417
10.202166
10.19673
10.195418
10.19371
10.191329
10.188567
10.185395
10.181722
10.17706
10.169694
10.160842
10.147428
10.136226
10.109831
10.095995
10.067267
10.072715
10.020354
10.04376
9.99083
10.010978
40264.632
20466.211
5891.0432
1230.047
721.29755
458.93244
366.23041
278.20454
231.56071
182.58562
154.86979
129.21165
112.54903
98.901631
88.002732
78.647852
70.750041
63.983074
58.14163
53.05693
48.601217
44.67583
41.19985
38.106134
35.339026
32.853236
30.612844
28.587364
26.751788
25.085505
23.570573
22.191012
20.933223
19.785224
18.738576
17.784957
16.917115
16.128658
15.413558
14.766458
14.18268
13.657188
13.185818
12.764599
12.389503
12.056884
11.763382
11.505242
11.279335
11.082663
10.912259
10.765352
10.639403
10.531902
10.44065
10.36371
10.299512
10.249273
10.214047
10.196564
10.191696
10.190531
10.18888
10.186586
10.183916
10.180825
10.177233
10.172987
10.166365
10.157984
10.145202
10.134121
10.108629
10.09509
10.066461
10.072088
10.020211
10.043779
9.9915464
10.011517
43069.093
19087.575
4528.5575
1157.7307
700.72869
440.4844
358.69604
268.36651
225.29024
176.06058
150.95039
125.31186
109.83699
96.473229
85.945274
76.83646
69.178447
62.60372
56.925522
51.979941
47.644376
43.82356
40.438904
37.425203
34.728544
32.305002
30.118708
28.142522
26.351489
24.725467
23.246875
21.900107
20.671978
19.550851
18.528765
17.597446
16.749898
15.9799
15.28155
14.649658
14.079667
13.566594
13.106445
12.695311
12.329238
12.004681
11.71835
11.46653
11.246207
11.05444
10.888331
10.74522
10.622445
10.517686
10.42879
10.353867
10.291327
10.242032
10.207716
10.191041
10.186667
10.18563
10.184043
10.181841
10.179265
10.176258
10.17274
10.168687
10.162827
10.154946
10.14282
10.131872
10.107272
10.094087
10.065581
10.071359
10.020087
10.043779
9.9922643
10.012048
45297.48
17180.088
3637.0557
1106.9323
685.34291
427.82503
352.74882
260.47681
220.44741
170.86823
147.82783
122.02864
107.58743
94.377094
84.170963
75.261627
67.804369
61.389395
55.848623
51.020941
46.787922
43.056879
39.751061
36.806811
34.171601
31.80277
29.665763
27.73199
25.980359
24.390299
22.944355
21.627201
20.425994
19.329386
18.32983
17.419046
16.590287
15.837453
15.154749
14.53713
13.980132
13.478811
13.029328
12.627816
12.270382
11.953575
11.674158
11.428453
11.213558
11.026588
10.864754
10.725229
10.605584
10.503528
10.416956
10.34403
10.283232
10.234859
10.201434
10.185581
10.181636
10.180721
10.179205
10.177099
10.174618
10.171697
10.168257
10.164241
10.159081
10.15173
10.140283
10.129479
10.105742
10.092905
10.064622
10.070526
10.019983
10.043761
9.9929751
10.012655
46943.187
14534.024
3068.5733
1075.7046
673.65134