/*--------------------------------*- C++ -*----------------------------------*\
  =========                 |
  \\      /  F ield         | OpenFOAM: The Open Source CFD Toolbox
   \\    /   O peration     | Website:  https://openfoam.org
    \\  /    A nd           | Version:  12
     \\/     M anipulation  |
\*---------------------------------------------------------------------------*/
FoamFile
{
    format      ascii;
    class       volScalarField;
    location    "0.148";
    object      T;
}
// * * * * * * * * * * * * * * * * * * * * * * * * * * * * * * * * * * * * * //

dimensions      [0 0 0 1 0 0 0];

internalField   nonuniform List<scalar> 
16000
(
294.51695
286.07126
289.36053
287.56005
288.6652
288.15915
288.58039
288.47041
288.6668
288.70099
288.82186
288.90672
289.01206
289.11481
289.22349
289.33548
289.45157
289.57165
289.69576
289.82395
289.95619
290.09251
290.23285
290.37717
290.52539
290.67742
290.83314
290.99238
291.15496
291.32068
291.48929
291.66053
291.83409
292.00965
292.18685
292.36533
292.54468
292.7245
292.90437
293.08385
293.26251
293.43993
293.61567
293.78934
293.96052
294.12887
294.29403
294.45569
294.61358
294.76745
294.91711
295.06237
295.20314
295.33931
295.47086
295.59777
295.72009
295.83789
295.95125
296.06032
296.16527
296.26629
296.36361
296.45749
296.54826
296.63629
296.722
296.80588
296.88847
296.97038
297.05225
297.13472
297.21826
297.30319
297.3898
297.47859
297.57728
297.65189
297.8176
297.83756
294.21238
285.66682
289.07777
287.20621
288.37879
287.83535
288.29212
288.17258
288.3835
288.42311
288.55099
288.64474
288.75725
288.86883
288.98594
289.10694
289.23221
289.36178
289.49564
289.63381
289.77628
289.92302
290.07396
290.22902
290.38809
290.55104
290.71769
290.88785
291.06128
291.23771
291.41687
291.59841
291.78199
291.96722
292.1537
292.341
292.52868
292.71628
292.90334
293.0894
293.27401
293.45671
293.63707
293.81468
293.98916
294.16017
294.32737
294.4905
294.64931
294.80361
294.95324
295.09809
295.23809
295.37321
295.50346
295.62888
295.74957
295.86562
295.97719
296.08443
296.18755
296.28678
296.38235
296.47455
296.5637
296.6502
296.73446
296.81699
296.89831
296.97904
297.05983
297.14135
297.22408
297.30831
297.39442
297.48387
297.57648
297.66728
297.80075
297.8602
293.92294
285.29373
288.81905
286.89582
288.10809
287.5546
288.02512
287.91337
288.12919
288.18063
288.31403
288.41837
288.53901
288.66036
288.78707
288.91813
289.05374
289.19393
289.33868
289.48799
289.6418
289.80005
289.96265
290.12947
290.30036
290.47512
290.65354
290.83537
291.02031
291.20803
291.39818
291.59037
291.78417
291.97915
292.17482
292.37072
292.56634
292.76118
292.95474
293.14652
293.33606
293.52289
293.70659
293.88675
294.06302
294.23507
294.40263
294.56547
294.72341
294.87631
295.02407
295.16665
295.30405
295.43629
295.56346
295.68565
295.80301
295.91568
296.02387
296.12777
296.22763
296.32369
296.41621
296.50549
296.59188
296.67577
296.75759
296.83782
296.917
296.99574
297.07468
297.15449
297.23567
297.31851
297.40351
297.49162
297.58201
297.67871
297.79679
297.87196
293.65699
284.9512
288.59681
286.62246
287.87092
287.30721
287.79184
287.68947
287.91075
287.97555
288.11551
288.23165
288.36175
288.49408
288.63167
288.77403
288.92119
289.07318
289.22997
289.3915
289.55769
289.72845
289.90363
290.08307
290.26655
290.45384
290.64463
290.83863
291.03545
291.23471
291.43596
291.63874
291.84256
292.0469
292.25122
292.45499
292.65764
292.85864
293.05745
293.25357
293.4465
293.63581
293.82106
294.00191
294.17803
294.34915
294.51506
294.67559
294.83064
294.98013
295.12407
295.26246
295.3954
295.52297
295.64533
295.76264
295.87509
295.9829
296.0863
296.18553
296.28087
296.37258
296.46095
296.54629
296.62896
296.70934
296.78788
296.86504
296.94135
297.01741
297.09386
297.17136
297.25042
297.33139
297.4147
297.50081
297.58983
297.6873
297.79533
297.88212
293.41516
284.64482
288.38689
286.39493
287.67932
287.1018
287.59679
287.50834
287.73367
287.81442
287.96171
288.09097
288.23189
288.37632
288.52603
288.68082
288.84067
289.00559
289.1755
289.35032
289.52995
289.71423
289.90296
290.09592
290.29283
290.49337
290.69717
290.90383
291.11289
291.32386
291.53622
291.74942
291.96287
292.17599
292.38816
292.59878
292.80726
293.01302
293.21552
293.41423
293.60869
293.79847
293.9832
294.16257
294.33632
294.50427
294.66627
294.82226
294.97222
295.11616
295.25417
295.38636
295.5129
295.63395
295.74974
295.86049
295.96647
296.06792
296.16514
296.25838
296.34796
296.43417
296.51731
296.5977
296.6757
296.7517
296.82613
296.89945
296.97218
297.04488
297.11819
297.19276
297.26911
297.34763
297.42862
297.51227
297.59965
297.6957
297.79716
297.8903
293.20136
284.38197
288.21329
286.20547
287.51282
286.94468
287.45069
287.37619
287.60519
287.70297
287.85845
288.00162
288.15449
288.31195
288.47484
288.64316
288.81683
288.99584
289.18006
289.36939
289.56363
289.76257
289.96593
290.17341
290.38463
290.59917
290.81656
291.03628
291.25777
291.48044
291.70366
291.92677
292.14911
292.37
292.58879
292.8048
293.01743
293.22607
293.43019
293.62928
293.82293
294.01076
294.19247
294.36783
294.53669
294.69895
294.85458
295.00362
295.14615
295.2823
295.41225
295.53621
295.65443
295.76716
295.87469
295.97731
296.07532
296.16905
296.25879
296.34486
296.42757
296.50725
296.58419
296.65874
296.73124
296.80208
296.87167
296.94046
297.00896
297.07769
297.14728
297.21835
297.29145
297.36699
297.4451
297.5259
297.61105
297.70439
297.80057
297.89777
293.01847
284.16415
288.07258
286.05275
287.38192
286.83752
287.34205
287.29572
287.52408
287.64295
287.80762
287.96546
288.1317
288.30348
288.48106
288.66446
288.85358
289.04831
289.24848
289.45389
289.66425
289.87927
290.09855
290.32167
290.54813
290.77739
291.00885
291.24187
291.47575
291.70978
291.94322
292.17532
292.40532
292.63249
292.8561
293.07548
293.29
293.49908
293.70221
293.89897
294.08899
294.27201
294.44782
294.61633
294.77748
294.93132
295.07794
295.21751
295.35022
295.47631
295.59609
295.70984
295.81789
295.9206
296.01829
296.11132
296.20004
296.2848
296.36593
296.44377
296.51865
296.59089
296.66081
296.72873
296.795
296.86
296.92411
296.98779
297.05148
297.1157
297.18103
297.24808
297.31743
297.38946
297.46418
297.54177
297.62412
297.71374
297.80524
297.90494
292.8643
283.98929
287.96234
285.9354
287.2813
286.76339
287.27037
287.23371
287.49296
287.63279
287.80924
287.98364
288.16573
288.35409
288.54868
288.74945
288.95623
289.16884
289.38699
289.61038
289.83862
290.07127
290.30781
290.54766
290.79019
291.03469
291.28041
291.52657
291.77234
292.01688
292.25933
292.49885
292.73461
292.96584
293.19179
293.4118
293.62527
293.83169
294.03063
294.22177
294.40487
294.57979
294.74648
294.90499
295.05543
295.19797
295.33287
295.46042
295.58094
295.6948
295.80238
295.90408
296.00029
296.09143
296.1779
296.26008
296.33836
296.41311
296.48468
296.55343
296.61967
296.68375
296.74596
296.80663
296.86609
296.92469
296.98281
297.04086
297.09926
297.15851
297.21913
297.28171
297.34686
297.4149
297.4858
297.55985
297.63887
297.72397
297.81094
297.91217
292.73384
283.85549
287.88596
285.85375
287.23033
286.76094
287.26119
287.28494
287.51525
287.67657
287.86839
288.06193
288.26286
288.47057
288.68487
288.90564
289.13258
289.36542
289.60374
289.84712
290.09499
290.34676
290.60173
290.85916
291.11822
291.37803
291.63768
291.89622
292.15267
292.40608
292.6555
292.90001
293.13876
293.37096
293.59591
293.813
294.02172
294.22168
294.41259
294.59429
294.76671
294.9299
295.08399
295.22919
295.36581
295.49417
295.61468
295.72777
295.83389
295.9335
296.02709
296.11512
296.19806
296.27636
296.35045
296.42077
296.48771
296.55164
296.61294
296.67193
296.72895
296.78432
296.83833
296.89128
296.94348
296.99527
297.047
297.09904
297.15179
297.20569
297.26123
297.31898
297.37952
297.44316
297.50985
297.58007
297.65527
297.73514
297.81769
297.91962
292.62642
283.765
287.84902
285.82314
287.23414
286.79985
287.29761
287.34991
287.59565
287.78328
287.99402
288.20932
288.43211
288.66209
288.89896
289.14246
289.39217
289.64766
289.90834
290.1736
290.44267
290.71476
290.98894
291.26427
291.5397
291.81416
292.08654
292.35575
292.62069
292.88029
293.13355
293.37954
293.61743
293.84648
294.06611
294.27583
294.47529
294.66431
294.84279
295.01079
295.16847
295.31609
295.45398
295.58258
295.70234
295.81379
295.91746
296.0139
296.10368
296.18736
296.26547
296.33855
296.40709
296.47159
296.53249
296.59023
296.6452
296.69778
296.74832
296.79715
296.84458
296.8909
296.93639
296.98133
297.02601
297.07072
297.11579
297.16156
297.2084
297.25669
297.30687
297.35949
297.41511
297.47399
297.53619
297.60234
297.67323
297.74733
297.82555
297.92734
292.54578
283.72596
287.85751
285.91201
287.29668
286.90314
287.39349
287.49084
287.74591
287.96149
288.19522
288.4354
288.68339
288.93885
289.20139
289.47054
289.74572
290.02626
290.31135
290.60012
290.89157
291.18462
291.4781
291.77081
292.06147
292.3488
292.63154
292.90843
293.1783
293.44005
293.69269
293.93533
294.16727
294.38793
294.5969
294.79394
294.97895
295.15199
295.31325
295.46306
295.60183
295.73006
295.84832
295.95722
296.05741
296.14955
296.23431
296.31234
296.38427
296.45073
296.5123
296.56954
296.62297
296.67307
296.7203
296.76506
296.80776
296.84873
296.88832
296.92681
296.9645
297.00165
297.03852
297.07534
297.11238
297.1499
297.18819
297.22756
297.26833
297.31085
297.35551
297.40282
297.45327
297.50711
297.5646
297.62648
297.69265
297.76067
297.83461
297.93527
292.49836
283.75137
287.91987
286.05028
287.40591
287.07612
287.56003
287.70282
287.97485
288.22107
288.48219
288.75094
289.02784
289.31235
289.60388
289.90174
290.20506
290.51288
290.82408
291.13748
291.45173
291.76546
292.0772
292.38547
292.68878
292.98565
293.2747
293.55461
293.82419
294.0824
294.32837
294.56142
294.78105
294.98696
295.17907
295.35744
295.52232
295.6741
295.81328
295.94049
296.05641
296.16178
296.25738
296.34399
296.4224
296.49339
296.55772
296.61609
296.6692
296.71769
296.76214
296.80312
296.84113
296.87665
296.91009
296.94184
296.97226
297.00167
297.03035
297.05859
297.08662
297.11469
297.143
297.17177
297.20122
297.23158
297.26311
297.29608
297.33076
297.36746
297.40653
297.44842
297.49355
297.54217
297.59481
297.65225
297.71336
297.77521
297.84507
297.94341
292.48897
283.84725
288.04628
286.24197
287.58065
287.32601
287.80612
287.99811
288.29288
288.57309
288.86648
289.16814
289.47816
289.79564
290.11972
290.44934
290.78324
291.12008
291.45835
291.79644
292.13265
292.46526
292.79248
293.1126
293.42393
293.72491
294.0141
294.29026
294.55233
294.79949
295.03114
295.24696
295.44682
295.63084
295.79934
295.95281
296.09187
296.21729
296.3299
296.4306
296.52033
296.60003
296.67064
296.73308
296.78824
296.83695
296.88
296.91814
296.95205
296.98236
297.00963
297.0344
297.05714
297.07827
297.09817
297.1172
297.13565
297.1538
297.1719
297.19019
297.20886
297.22811
297.24812
297.26907
297.29113
297.31452
297.33943
297.3661
297.39478
297.42571
297.45924
297.49571
297.53545
297.57876
297.6265
297.67934
297.73507
297.79089
297.8571
297.95173
292.51962
284.02119
288.24178
286.5199
287.83088
287.66073
288.14229
288.38676
288.71198
289.03082
289.36204
289.70173
290.04955
290.40418
290.76426
291.12826
291.49441
291.86088
292.22566
292.58671
292.94193
293.28925
293.62666
293.95225
294.2643
294.56128
294.84193
295.10524
295.35054
295.57741
295.78576
295.97576
296.14782
296.30257
296.44081
296.56348
296.67162
296.76631
296.84869
296.9199
296.98105
297.03324
297.0775
297.1148
297.14607
297.17216
297.19385
297.21184
297.22679
297.23927
297.24981
297.25888
297.26689
297.27421
297.28116
297.28804
297.29509
297.30254
297.3106
297.31943
297.32922
297.3401
297.35222
297.36571
297.38073
297.39743
297.41599
297.43659
297.45944
297.48478
297.51289
297.54403
297.57841
297.61645
297.65928
297.70732
297.75744
297.8076
297.87081
297.95986
292.5952
284.28641
288.50972
286.8857
288.16868
288.09196
288.5824
288.88359
289.24791
289.61141
289.98674
290.37008
290.76048
291.15604
291.55474
291.95444
292.35276
292.74729
293.13549
293.51488
293.883
294.23755
294.5764
294.8977
295.1999
295.48182
295.74262
295.98188
296.1995
296.39576
296.57122
296.72669
296.86319
296.9819
297.08412
297.17117
297.24445
297.30531
297.35509
297.39508
297.42649
297.45046
297.46806
297.48024
297.48789
297.49183
297.49276
297.49135
297.48815
297.48367
297.47838
297.47265
297.46683
297.46122
297.45608
297.45164
297.44809
297.44559
297.44431
297.44437
297.44589
297.44897
297.45373
297.46027
297.46868
297.4791
297.49166
297.50651
297.52382
297.54381
297.56671
297.59268
297.62185
297.65477
297.69273
297.73575
297.78012
297.82513
297.88573
297.96823
292.72003
284.66136
288.8463
287.3537
288.60787
288.63502
289.14474
289.50854
289.92168
290.33703
290.76296
291.19525
291.63213
292.07092
292.50885
292.94301
293.37034
293.78781
294.19239
294.58126
294.95178
295.30168
295.62906
295.9325
296.21102
296.46415
296.69189
296.89462
297.07313
297.22851
297.36206
297.47529
297.56979
297.64724
297.7093
297.75763
297.79381
297.81938
297.83574
297.84421
297.84602
297.84226
297.83394
297.82195
297.80709
297.79006
297.77151
297.75196
297.73191
297.71176
297.69188
297.67257
297.6541
297.63669
297.62052
297.60577
297.59257
297.58102
297.57124
297.5633
297.55728
297.55326
297.55128
297.55143
297.55376
297.55838
297.56538
297.57487
297.58699
297.60194
297.6199
297.64094
297.66513
297.69319
297.72635
297.76409
297.80263
297.84323
297.90159
297.97645
292.89877
285.17575
289.259
287.94184
289.16976
289.31322
289.85517
290.28868
290.76037
291.23461
291.71663
292.20156
292.68652
293.16792
293.64203
294.10509
294.55336
294.98327
295.39155
295.77537
296.13239
296.46088
296.75973
297.02846
297.26716
297.47648
297.65748
297.81163
297.94064
298.04643
298.131
298.19643
298.24476
298.27797
298.29798
298.30655
298.30536
298.29592
298.27961
298.25769
298.23126
298.20133
298.16877
298.13436
298.09876
298.06255
298.02625
297.99029
297.95503
297.92078
297.88782
297.85636
297.82659
297.79865
297.77266
297.74873
297.72692
297.70732
297.68995
297.67487
297.66212
297.65171
297.64368
297.63807
297.63491
297.63426
297.63618
297.64075
297.64809
297.65836
297.67169
297.68807
297.70762
297.73115
297.75966
297.7919
297.82451
297.8613
297.91775
297.9842
293.14296
285.87625
289.79084
288.68131
289.88523
290.15781
290.74622
291.25632
291.79496
292.33375
292.8751
293.41319
293.94373
294.46194
294.96307
295.44261
295.89639
296.32084
296.71306
297.07097
297.3933
297.6796
297.93018
298.14602
298.32865
298.48004
298.60244
298.69831
298.77022
298.8207
298.85228
298.86735
298.86817
298.85683
298.83526
298.80519
298.76819
298.72567
298.67885
298.62883
298.57656
298.52286
298.46845
298.41394
298.35986
298.30664
298.25467
298.20425
298.15564
298.10905
298.06466
298.0226
297.98296
297.94584
297.91129
297.87935
297.85005
297.82339
297.7994
297.77806
297.75938
297.74335
297.72997
297.71925
297.7112
297.70584
297.70319
297.70332
297.70632
297.71231
297.72135
297.73339
297.74867
297.76804
297.79208
297.8188
297.84552
297.87872
297.93325
297.99162
293.47937
286.74653
290.46878
289.60924
290.79199
291.20354
291.85411
292.44746
293.05945
293.66562
294.26514
294.85083
295.41678
295.95709
296.46639
296.94012
297.37465
297.76745
298.11711
298.42332
298.68672
298.90884
299.09184
299.2384
299.35153
299.4344
299.49025
299.52226
299.53351
299.52688
299.50504
299.47044
299.4253
299.37159
299.31108
299.24531
299.17563
299.10322
299.0291
298.95415
298.87909
298.80458
298.73113
298.6592
298.58916
298.5213
298.45588
298.39308
298.33306
298.27593
298.22179
298.17068
298.12264
298.07768
298.03582
297.99704
297.96131
297.92861
297.89892
297.87219
297.84839
297.82749
297.80946
297.79429
297.78194
297.77242
297.76573
297.7619
297.761
297.76312
297.76822
297.77629
297.78767
297.80324
297.82302
297.84446
297.86576
297.89538
297.94729
298.00048
293.94821
287.72989
291.33513
290.76132
291.93399
292.4923
293.22173
293.90403
294.59099
295.2601
295.90683
296.52271
297.10083
297.63521
298.12128
298.55599
298.93782
299.26674
299.54397
299.77183
299.95343
300.09245
300.19288
300.25886
300.29451
300.30379
300.29046
300.25797
300.20948
300.14783
300.07556
299.99489
299.90776
299.81588
299.72069
299.62346
299.52525
299.42697
299.32937
299.2331
299.13868
299.04655
298.95705
298.87048
298.78706
298.70695
298.63028
298.55715
298.48762
298.4217
298.35942
298.30076
298.2457
298.1942
298.14622
298.10169
298.06056
298.02278
297.98826
297.95696
297.92881
297.90375
297.88173
297.86271
297.84665
297.83351
297.82328
297.81597
297.81162
297.81025
297.81179
297.81626
297.82414
297.83618
297.85188
297.86847
297.88528
297.91204
297.96087
298.00779
294.6052
288.99789
292.43771
292.18961
293.37202
294.08233
294.90172
295.67061
296.4211
297.13244
297.7974
298.40774
298.95766
299.44349
299.86371
300.21881
300.51095
300.74367
300.92143
301.04931
301.13267
301.17691
301.18726
301.16868
301.12573
301.06254
300.98282
300.88984
300.78646
300.67515
300.55804
300.43696
300.31346
300.18884
300.06419
299.94044
299.81834
299.69852
299.58147
299.46761
299.35727
299.2507
299.14808
299.04955
298.95521
298.86512
298.7793
298.69775
298.62046
298.54738
298.47845
298.41362
298.35281
298.29594
298.24291
298.19365
298.14805
298.10604
298.06751
298.03239
298.00058
297.97201
297.94661
297.92431
297.90506
297.8888
297.8755
297.86515
297.85777
297.85331
297.85167
297.85295
297.85769
297.86644
297.87823
297.89041
297.90364
297.92823
297.97357
298.01318
295.50702
290.61127
293.8621
293.97363
295.18494
296.04096
296.94161
297.7728
298.5505
299.25787
299.88861
300.43804
300.90493
301.29068
301.59899
301.83521
302.00581
302.11784
302.17852
302.19493
302.17375
302.12112
302.04258
301.94307
301.82688
301.69774
301.55883
301.41287
301.26214
301.10858
300.95378
300.79907
300.64556
300.49413
300.34552
300.20031
300.05897
299.92185
299.78925
299.66137
299.53834
299.42028
299.30722
299.19919
299.09618
298.99815
298.90505
298.8168
298.73331
298.6545
298.58025
298.51046
298.44501
298.38379
298.32668
298.27357
298.22432
298.17884
298.13701
298.09872
298.06387
298.03236
298.00411
297.97905
297.95708
297.93815
297.92221
297.90925
297.89922
297.89203
297.8876
297.88609
297.88804
297.89372
297.90182
297.91007
297.92039
297.94303
297.98428
298.01608
296.63565
292.69442
295.71383
296.19696
297.43907
298.41187
299.34844
300.18162
300.91788
301.54857
302.07372
302.49627
302.82236
303.06018
303.21914
303.30914
303.33996
303.32089
303.26046
303.16632
303.04516
302.90278
302.74414
302.57342
302.3941
302.20912
302.02086
301.83132
301.6421
301.45451
301.26961
301.08824
300.91107
300.73862
300.57128
300.40937
300.25308
300.10257
299.95792
299.81918
299.68634
299.55939
299.43825
299.32286
299.21311
299.1089
299.01012
298.91662
298.82828
298.74496
298.66651
298.59279
298.52366
298.45897
298.39858
298.34235
298.29015
298.24185
298.19731
298.15642
298.11905
298.0851
298.05448
298.02707
298.00281
297.9816
297.96341
297.94818
297.93584
297.92628
297.91943
297.91552
297.91501
297.91785
297.92255
297.92743
297.93525
297.9554
297.99144
298.0176
298.16832
295.3598
298.08814
298.91271
300.12974
301.16373
302.04668
302.78405
303.38494
303.8533
304.19967
304.43656
304.57786
304.63759
304.62918
304.56489
304.45564
304.31089
304.13871
303.94585
303.73792
303.51953
303.29443
303.06567
302.8357
302.60648
302.37957
302.15619
301.93733
301.7237
301.51589
301.31432
301.11928
300.931
300.74958
300.57512
300.40761
300.24704
300.09334
299.94644
299.80621
299.67254
299.54529
299.4243
299.30942
299.20049
299.09734
298.9998
298.9077
298.82087
298.73913
298.66232
298.59028
298.52283
298.45982
298.4011
298.34651
298.29591
298.24916
298.20613
298.16668
298.1307
298.09808
298.06871
298.04249
298.01935
297.99922
297.98203
297.96769
297.95607
297.94715
297.94117
297.93847
297.93872
297.94041
297.94252
297.94835
297.96604
297.99679
298.01733
300.14654
298.67728
300.9807
302.09527
303.28205
304.14881
304.85721
305.38581
305.75717
305.98985
306.10518
306.12339
306.06316
305.94089
305.77059
305.56394
305.33055
305.07818
304.81304
304.54008
304.26321
303.98548
303.70927
303.43644
303.1684
302.90622
302.65071
302.40246
302.16188
301.92927
301.70479
301.48854
301.28054
301.08076
300.88913
300.70555
300.52987
300.36196
300.20163
300.04872
299.90304
299.7644
299.63258
299.50741
299.38866
299.27615
299.16967
299.06903
298.97402
298.88445
298.80014
298.72089
298.64653
298.57688
298.51177
298.45102
298.39449
298.34201
298.29343
298.24862
298.20743
298.16975
298.13544
298.1044
298.07652
298.05171
298.02991
298.01102
297.99494
297.98154
297.97084
297.96307
297.95839
297.9563
297.95545
297.95544
297.95975
297.97487
297.99974
298.01277
302.59882
302.63113
304.64008
305.61565
306.51182
307.1246
307.53265
307.75736
307.83524
307.79605
307.66665
307.46926
307.22195
306.93909
306.63194
306.30919
305.97755
305.64209
305.30668
304.9742
304.64681
304.32611
304.01325
303.70904
303.41406
303.12867
302.85309
302.58741
302.33165
302.08576
301.84961
301.62307
301.40596
301.19808
300.99922
300.80914
300.62762
300.45441
300.28928
300.13199
299.98229
299.83995
299.70472
299.57637
299.45467
299.3394
299.23033
299.12725
299.02993
298.93818
298.85178
298.77055
298.69429
298.62282
298.55595
298.49351
298.43533
298.38125
298.33112
298.28479
298.24211
298.20295
298.16718
298.13468
298.10535
298.0791
298.05584
298.03546
298.01785
298.00291
297.99068
297.98132
297.97485
297.97069
297.9678
297.96624
297.96916
297.98127
298.00053
298.00977
305.668
307.06319
308.39226
309.09541
309.5747
309.78561
309.81058
309.69148
309.46905
309.17366
308.82877
308.45183
308.05572
307.64985
307.24104
306.83418
306.43277
306.03928
305.6554
305.2823
304.92071
304.57108
304.23364
303.90847
303.5955
303.2946
303.00559
302.72823
302.46225
302.20737
301.96328
301.72969
301.50628
301.29274
301.08877
300.89407
300.70833
300.53126
300.36257
300.20199
300.04923
299.90403
299.76612
299.63526
299.51118
299.39366
299.28245
299.17732
299.07806
298.98444
298.89625
298.81329
298.73536
298.66227
298.59384
298.52988
298.47023
298.41472
298.36319
298.31548
298.27145
298.23096
298.19388
298.16008
298.12945
298.1019
298.07733
298.05562
298.03667
298.02039
298.00682
297.99604
297.98797
297.98208
297.9777
297.97515
297.97682
297.98565
297.9994
298.0061
309.62309
311.41006
311.95179
312.13948
312.08593
311.85277
311.50241
311.07723
310.60742
310.11368
309.61007
309.10604
308.60789
308.11976
307.6443
307.18315
306.73726
306.3071
305.89283
305.49436
305.11149
304.74388
304.39117
304.05293
303.72872
303.4181
303.12062
302.83582
302.56327
302.30256
302.05325
301.81496
301.5873
301.36988
301.16235
300.96437
300.77558
300.59567
300.42432
300.26122
300.10609
299.95864
299.81859
299.68567
299.55963
299.44022
299.32719
299.2203
299.11934
299.02407
298.93429
298.84979
298.77036
298.69581
298.62596
298.56062
298.49962
298.4428
298.38998
298.34101
298.29575
298.25405
298.21578
298.1808
298.14902
298.12031
298.09457
298.07169
298.05157
298.03415
298.01941
298.00738
297.99792
297.99065
297.9852
297.9819
297.98228
297.98787
297.997
298.00246
314.5856
314.95769
314.6881
314.31981
313.79731
313.20424
312.57621
311.9388
311.30619
310.68699
310.08598
309.50574
308.94744
308.41143
307.89753
307.40527
306.934
306.48297
306.05141
305.6385
305.24348
304.86558
304.50407
304.15825
303.82747
303.51109
303.20853
302.91922
302.64262
302.37825
302.12561
301.88426
301.65376
301.4337
301.2237
301.02338
300.83238
300.65037
300.477
300.31197
300.15498
300.00572
299.86392
299.72931
299.60162
299.48059
299.36599
299.25758
299.15512
299.05839
298.96718
298.88127
298.80047
298.72458
298.65341
298.58678
298.52453
298.46646
298.41244
298.36229
298.31587
298.27304
298.23365
298.19758
298.16471
298.13494
298.10813
298.08421
298.06306
298.04462
298.02887
298.01577
298.00517
297.99683
297.99059
297.98668
297.98588
297.98884
297.99455
297.99949
316.58426
316.75188
316.17752
315.41512
314.6356
313.85502
313.09368
312.35919
311.65503
310.98217
310.34031
309.72851
309.1455
308.58988
308.06022
307.55514
307.07329
306.61343
306.1744
305.75509
305.35451
304.97171
304.60584
304.25608
303.92169
303.60199
303.29631
303.00407
302.72469
302.45764
302.20243
301.95858
301.72566
301.50323
301.29092
301.08832
300.89509
300.71087
300.53534
300.36817
300.20907
300.05774
299.9139
299.77727
299.6476
299.52462
299.4081
299.2978
299.19348
299.09493
299.00194
298.91428
298.83176
298.75419
298.68138
298.61315
298.54932
298.48973
298.43422
298.38262
298.33479
298.29058
298.24986
298.2125
298.17837
298.14736
298.11936
298.09428
298.07202
298.05253
298.03577
298.02166
298.01008
298.00087
297.99394
297.98945
297.98775
297.98913
297.99302
297.99775
310.31973
309.00349
305.32187
302.4102
301.12113
300.83126
300.76329
300.76057
300.64886
300.59216
300.48849
300.41778
300.33138
300.24466
300.15838
300.07167
299.9843
299.89623
299.80748
299.7181
299.62818
299.53784
299.44719
299.35637
299.26552
299.17477
299.08426
298.99414
298.90453
298.81558
298.72741
298.64016
298.55395
298.46891
298.38517
298.30284
298.22207
298.14297
298.06567
297.99031
297.917
297.84587
297.77707
297.71072
297.64696
297.58591
297.52772
297.47252
297.42043
297.37159
297.3261
297.28409
297.24567
297.21091
297.17992
297.15276
297.12949
297.11015
297.09479
297.08344
297.07618
297.07308
297.07414
297.07942
297.089
297.10292
297.12147
297.14437
297.1727
297.2045
297.24457
297.28406
297.34097
297.38361
297.46706
297.49974
297.62727
297.64362
297.82191
297.85131
309.51847
306.60298
302.40678
300.33222
299.75689
299.75795
299.85946
299.87089
299.86546
299.83947
299.81589
299.77855
299.73583
299.68829
299.63682
299.58154
299.5229
299.4612
299.39675
299.32986
299.26083
299.18992
299.11739
299.04349
298.96845
298.89249
298.81583
298.73868
298.66124
298.58369
298.50624
298.42907
298.35234
298.27625
298.20096
298.12664
298.05346
297.98159
297.91118
297.8424
297.77541
297.71036
297.64742
297.58674
297.52848
297.47278
297.41981
297.3697
297.3226
297.27865
297.23796
297.20066
297.16686
297.13666
297.11012
297.08734
297.06835
297.0532
297.04193
297.03457
297.03119
297.03183
297.03651
297.04527
297.05817
297.07526
297.09678
297.12251
297.15339
297.18775
297.22982
297.27181
297.32994
297.37511
297.45876
297.49442
297.62174
297.63932
297.82172
297.8447
308.11222
304.52303
301.40308
299.69494
299.36329
299.40386
299.43833
299.41264
299.38443
299.35203
299.32051
299.28573
299.2493
299.20993
299.16839
299.12444
299.07831
299.02997
298.9795
298.92701
298.8726
298.8164
298.75853
298.69913
298.63835
298.57634
298.51326
298.44929
298.38458
298.31932
298.25368
298.18784
298.12199
298.05631
297.99098
297.9262
297.86214
297.79899
297.73695
297.67618
297.61687
297.55921
297.50338
297.44956
297.39791
297.34863
297.30186
297.25778
297.21653
297.17827
297.14314
297.11125
297.08273
297.05766
297.03614
297.01823
297.00399
296.99346
296.98666
296.98363
296.98443
296.9891
296.99765
297.01009
297.02649
297.0469
297.07152
297.10019
297.13373
297.17068
297.2149
297.25933
297.3189
297.36633
297.45064
297.4888
297.61651
297.63517
297.82109
297.83869
306.91929
303.06884
300.23142
298.94015
298.88943
298.90588
298.92329
298.88762
298.8694
298.84052
298.81671
298.78778
298.75865
298.72755
298.69533
298.66149
298.62618
298.58927
298.55076
298.51065
298.46897
298.42573
298.38098
298.33479
298.28723
298.23837
298.18833
298.13722
298.08516
298.03228
297.97874
297.92469
297.87029
297.81571
297.76113
297.70672
297.65269
297.59921
297.54648
297.4947
297.44405
297.39474
297.34697
297.30092
297.25679
297.21477
297.17503
297.13776
297.10313
297.07128
297.04237
297.01652
296.99386
296.97449
296.95849
296.94594
296.93688
296.93136
296.9294
296.93103
296.93631
296.94527
296.9579
296.97423
296.99431
297.01818
297.04604
297.07773
297.11403
297.15362
297.20009
297.2469
297.30808
297.35759
297.44283
297.48313
297.61148
297.63113
297.82013
297.83325
306.2178
301.85527
299.26815
298.31252
298.39047
298.365
298.39131
298.35467
298.34802
298.32374
298.30849
298.28674
298.26633
298.24411
298.22129
298.19724
298.17213
298.14578
298.11819
298.08932
298.05914
298.02763
297.9948
297.96067
297.92526
297.88861
297.85079
297.81185
297.77188
297.73099
297.68928
297.64688
297.60392
297.56054
297.51692
297.47321
297.42958
297.38623
297.34334
297.3011
297.25971
297.21938
297.18031
297.14269
297.10673
297.07263
297.04058
297.01075
296.98334
296.95849
296.93637
296.9171
296.90082
296.88763
296.8776
296.87083
296.86735
296.8672
296.8704
296.87698
296.887
296.90048
296.91741
296.93781
296.96171
296.98918
297.02037
297.05518
297.0943
297.13657
297.18535
297.23454
297.29742
297.34895
297.43523
297.47752
297.60664
297.62725
297.81896
297.82824
305.65028
300.66703
298.46717
297.71057
297.85971
297.8042
297.85048
297.81442
297.82267
297.80508
297.80083
297.78778
297.7771
297.76435
297.75124
297.737
297.72181
297.70554
297.68817
297.66969
297.65006
297.62926
297.60729
297.58415
297.55984
297.53439
297.50781
297.48017
297.45151
297.4219
297.39143
297.36018
297.32828
297.29583
297.26299
297.22988
297.19668
297.16355
297.13066
297.09821
297.06639
297.03538
297.0054
296.97665
296.94932
296.92361
296.89972
296.87783
296.85812
296.84075
296.82589
296.81367
296.80421
296.79761
296.79396
296.79333
296.79577
296.80131
296.80997
296.82177
296.83677
296.85498
296.87639
296.90101
296.92888
296.96004
296.99466
297.03265
297.07465
297.11965
297.17077
297.22231
297.28697
297.34051
297.42786
297.4721
297.60196
297.62355
297.81738
297.8239
305.07251
299.61695
297.81808
297.16132
297.35777
297.2762
297.34217
297.30453
297.32523
297.3122
297.31698
297.31109
297.30837
297.30332
297.29818
297.29212
297.28527
297.27756
297.26895
297.25943
297.24896
297.23752
297.22508
297.21163
297.19718
297.18172
297.16526
297.14783
297.12947
297.11022
297.09015
297.06932
297.04782
297.02575
297.00322
296.98037
296.95733
296.93424
296.91128
296.88861
296.86641
296.84486
296.82417
296.80451
296.78608
296.76908
296.75369
296.74009
296.72846
296.71896
296.71174
296.70693
296.70466
296.70501
296.70807
296.71391
296.72257
296.73408
296.74844
296.76569
296.78588
296.809
296.83504
296.86401
296.89595
296.93091
296.96902
297.01025
297.05518
297.10292
297.1564
297.21029
297.27675
297.33233
297.42073
297.46688
297.59746
297.62007
297.8158
297.81984
304.59346
298.66808
297.26946
296.65825