/*--------------------------------*- C++ -*----------------------------------*\
  =========                 |
  \\      /  F ield         | OpenFOAM: The Open Source CFD Toolbox
   \\    /   O peration     | Website:  https://openfoam.org
    \\  /    A nd           | Version:  12
     \\/     M anipulation  |
\*---------------------------------------------------------------------------*/
FoamFile
{
    format      ascii;
    class       volScalarField;
    location    "0.112";
    object      Ma;
}
// * * * * * * * * * * * * * * * * * * * * * * * * * * * * * * * * * * * * * //

dimensions      [];

internalField   nonuniform List<scalar> 
16000
(
0.62653502
0.74411832
0.69949083
0.72379139
0.70881358
0.71569784
0.71002238
0.71151956
0.70888277
0.70842995
0.70680803
0.70566967
0.70425346
0.70287059
0.70140543
0.69989363
0.69832399
0.69669808
0.6950147
0.69327335
0.69147367
0.68961548
0.6876989
0.68572429
0.68369234
0.68160406
0.67946083
0.6772644
0.67501694
0.672721
0.6703796
0.66799613
0.66557446
0.66311884
0.66063391
0.6581247
0.65559655
0.65305508
0.65050617
0.64795583
0.64541019
0.64287543
0.64035765
0.63786287
0.6353969
0.63296528
0.63057325
0.62822563
0.62592684
0.62368079
0.62149091
0.61936005
0.61729056
0.61528418
0.61334205
0.61146475
0.60965222
0.60790387
0.60621861
0.60459478
0.6030303
0.60152304
0.60007082
0.59867108
0.59732074
0.596016
0.59475217
0.59352366
0.59232412
0.59114637
0.58998248
0.58882397
0.58766275
0.58649257
0.58530827
0.58413025
0.58270541
0.58203992
0.5793227
0.58012547
0.63103061
0.74934739
0.70278161
0.72846475
0.71266038
0.72000776
0.71388378
0.71549994
0.71267891
0.71215391
0.71044336
0.70918898
0.7076807
0.70618317
0.70460889
0.70298005
0.70129081
0.69954102
0.69773012
0.69585765
0.69392349
0.69192776
0.68987089
0.68775365
0.68557717
0.68334298
0.68105301
0.67870961
0.67631561
0.67387427
0.6713893
0.6688649
0.66630568
0.66371669
0.66110334
0.65847142
0.65582698
0.65317633
0.65052593
0.64788231
0.64525205
0.64264161
0.64005732
0.63750526
0.63499118
0.63252048
0.63009808
0.62772842
0.62541542
0.62316241
0.62097217
0.61884688
0.61678816
0.61479702
0.6128739
0.61101868
0.60923064
0.60750857
0.60585079
0.60425516
0.60271912
0.60124006
0.59981544
0.59844245
0.59711784
0.59583769
0.5945972
0.59339069
0.59221164
0.59105274
0.58990581
0.58876179
0.58761225
0.5864524
0.58527651
0.58405598
0.58279662
0.58172175
0.57965144
0.57978654
0.63523951
0.7541539
0.70634297
0.73254091
0.71627871
0.72372911
0.71744549
0.71895074
0.71607395
0.7153922
0.71361293
0.71222054
0.71060754
0.7089829
0.70728376
0.70552357
0.70369908
0.70180986
0.69985561
0.69783619
0.69575183
0.69360304
0.69139072
0.68911614
0.68678102
0.68438748
0.68193815
0.67943613
0.67688502
0.67428894
0.67165249
0.66898075
0.66627929
0.66355405
0.66081138
0.65805791
0.65530051
0.65254621
0.64980211
0.64707526
0.6443726
0.64170084
0.6390664
0.63647529
0.63393306
0.63144472
0.62901472
0.62664688
0.62434438
0.62210977
0.61994497
0.61785127
0.61582935
0.61387934
0.61200079
0.61019273
0.60845367
0.60678167
0.60517438
0.60362909
0.60214273
0.60071224
0.59933466
0.5980069
0.59672549
0.59548637
0.59428467
0.59311459
0.59196956
0.59084219
0.58972413
0.58860606
0.58747971
0.58634023
0.58517692
0.5839669
0.58276597
0.58153661
0.57977588
0.57959195
0.63908168
0.75854104
0.7094232
0.73610684
0.71943561
0.7269945
0.72054562
0.72192118
0.71898032
0.71812282
0.7162607
0.71471438
0.71297878
0.71121095
0.7093695
0.70746117
0.70548471
0.70343966
0.7013261
0.69914422
0.69689469
0.69457846
0.69219699
0.68975214
0.6872463
0.68468237
0.6820638
0.67939459
0.67667933
0.67392315
0.67113171
0.66831118
0.6654682
0.66260976
0.65974322
0.65687614
0.65401621
0.65117118
0.6483487
0.64555622
0.64280092
0.64008955
0.6374284
0.63482317
0.63227891
0.62980002
0.62739016
0.62505226
0.62278854
0.62060051
0.61848901
0.61645424
0.61449581
0.6126128
0.61080377
0.60906684
0.60739968
0.60579958
0.60426351
0.6027882
0.60137008
0.60000564
0.59869152
0.59742438
0.59620057
0.59501592
0.59386549
0.5927435
0.59164335
0.59055765
0.58947795
0.58839485
0.58730021
0.58618796
0.58504536
0.58386268
0.58268316
0.58141178
0.57986006
0.57940507
0.6425496
0.76244434
0.71221708
0.73904441
0.72198249
0.72970068
0.72313337
0.72432001
0.72133236
0.72026468
0.71830873
0.71659053
0.71471366
0.71278686
0.710786
0.70871339
0.70656882
0.70435201
0.7020633
0.69970328
0.69727308
0.69477425
0.69220891
0.6895797
0.68688993
0.68414348
0.6813449
0.67849937
0.6756127
0.67269129
0.6697421
0.66677258
0.6637906
0.66080437
0.65782228
0.65485286
0.65190461
0.64898586
0.64610469
0.64326876
0.64048522
0.6377606
0.63510073
0.63251069
0.62999471
0.6275562
0.62519776
0.62292111
0.62072723
0.61861635
0.61658801
0.61464116
0.61277419
0.61098504
0.60927121
0.60762984
0.60605775
0.60455147
0.60310734
0.60172152
0.60038999
0.59910885
0.59787442
0.59668312
0.59553115
0.5944143
0.59332762
0.59226536
0.591221
0.59018721
0.58915559
0.58811685
0.58706276
0.58598588
0.58487454
0.58372757
0.58256672
0.58129297
0.57988024
0.5792733
0.64559226
0.76578083
0.71456363
0.74152776
0.72418823
0.73176597
0.72506833
0.72606732
0.72303563
0.7217441
0.71968216
0.71778117
0.71574708
0.71364833
0.71147276
0.70922029
0.70689118
0.7044855
0.70200406
0.69944806
0.69681936
0.69412039
0.69135428
0.68852481
0.68563653
0.68269468
0.67970523
0.67667486
0.67361092
0.67052135
0.66741465
0.66429971
0.66118579
0.6580823
0.65499873
0.65194446
0.64892862
0.64595996
0.64304666
0.64019626
0.63741553
0.63471036
0.63208574
0.62954565
0.62709314
0.62473026
0.62245814
0.62027702
0.61818636
0.61618488
0.61427067
0.61244129
0.61069382
0.60902501
0.6074313
0.60590888
0.60445376
0.60306178
0.60172868
0.60045016
0.59922185
0.59803954
0.5968993
0.59579739
0.59472993
0.5936927
0.59268084
0.5916887
0.59070988
0.58973722
0.58876249
0.58777665
0.58677118
0.58573767
0.58466682
0.58356203
0.58242681
0.58117291
0.57987779
0.57915049
0.64818017
0.76853277
0.71645872
0.74351803
0.72592972
0.73317192
0.7265066
0.72713032
0.72411121
0.72254078
0.72035856
0.71826367
0.71605248
0.71376328
0.71139159
0.70893683
0.7063998
0.70378139
0.70108324
0.69830758
0.69545742
0.69253644
0.6895492
0.68650102
0.68339809
0.68024738
0.67705667
0.67383446
0.67058995
0.66733285
0.66407336
0.66082196
0.65758928
0.6543859
0.65122223
0.64810828
0.6450535
0.64206663
0.63915557
0.63632723
0.63358748
0.63094107
0.62839159
0.62594151
0.62359216
0.62134385
0.61919592
0.61714682
0.61519425
0.61333526
0.61156638
0.60988373
0.60828309
0.60676004
0.60531002
0.60392837
0.60261036
0.60135128
0.6001464
0.59899108
0.59788071
0.59681088
0.59577754
0.59477687
0.593805
0.59285778
0.59193048
0.59101762
0.59011301
0.58920975
0.58829992
0.58737477
0.58642547
0.5854431
0.58442121
0.58336513
0.58226417
0.58104403
0.57984779
0.57903248
0.65035634
0.77073154
0.71794458
0.74504433
0.72726195
0.73414448
0.72745333
0.72794865
0.7245242
0.7226772
0.72033894
0.71802382
0.71560116
0.71308963
0.71048897
0.7077993
0.70502218
0.70215961
0.69921442
0.69619019
0.69309147
0.68992363
0.68669307
0.68340706
0.68007387
0.6767026
0.67330322
0.66988638
0.66646335
0.66304583
0.65964576
0.65627518
0.65294597
0.64966963
0.64645714
0.64331869
0.64026353
0.63729983
0.63443454
0.63167332
0.62902048
0.62647897
0.62405043
0.62173524
0.61953261
0.61744068
0.61545671
0.61357713
0.61179776
0.61011391
0.60852055
0.6070124
0.60558403
0.60422998
0.60294482
0.60172319
0.60055983
0.5994496
0.59838751
0.5973687
0.59638848
0.59544238
0.59452637
0.59363664
0.59276942
0.59192073
0.59108602
0.59026008
0.58943698
0.58861014
0.5877721
0.58691442
0.58602797
0.58510385
0.58413828
0.5831365
0.58207816
0.58090661
0.57979361
0.57891347
0.65218755
0.77240413
0.71897801
0.74610434
0.7279396
0.73417537
0.72757656
0.7272758
0.72423198
0.72209918
0.71955576
0.71698434
0.7143082
0.71153509
0.70866656
0.70570394
0.70264983
0.69950763
0.69628179
0.69297771
0.68960194
0.68616208
0.68266686
0.67912606
0.67555051
0.67195189
0.66834271
0.66473606
0.66114546
0.65758459
0.6540671
0.65060631
0.64721496
0.64390502
0.64068739
0.63757175
0.63456638
0.63167806
0.62891196
0.62627166
0.62375914
0.62137489
0.61911797
0.61698616
0.61497614
0.61308363
0.61130358
0.60963035
0.60805787
0.60657979
0.60518963
0.60388087
0.60264708
0.60148197
0.60037948
0.59933376
0.59833924
0.59739056
0.59648264
0.59561063
0.59476988
0.59395605
0.59316521
0.59239373
0.59163801
0.5908943
0.59015836
0.58942526
0.58868942
0.58794467
0.58718404
0.58639943
0.58558157
0.58472201
0.5838189
0.58287545
0.58186669
0.58075809
0.57971975
0.57878249
0.65367178
0.77352443
0.71948653
0.74649754
0.72789604
0.73366589
0.72710076
0.72641776
0.72316984
0.72068607
0.71788797
0.71502282
0.71204995
0.70897301
0.70579462
0.70251788
0.69914707
0.69568757
0.69214608
0.68853048
0.68485003
0.68111521
0.67733781
0.6735307
0.66970782
0.66588388
0.66207422
0.65829452
0.6545605
0.65088766
0.64729091
0.64378434
0.64038087
0.63709202
0.6339277
0.63089605
0.62800331
0.6252538
0.62264993
0.62019229
0.61787973
0.61570958
0.61367781
0.61177923
0.61000776
0.60835659
0.60681838
0.60538552
0.60405022
0.60280468
0.60164125
0.60055249
0.59953122
0.59857065
0.59766435
0.59680628
0.59599077
0.59521251
0.59446654
0.59374818
0.59305302
0.59237696
0.59171636
0.59106781
0.59042802
0.58979355
0.5891605
0.58852432
0.58787982
0.58722127
0.58654226
0.58583501
0.5850904
0.58430073
0.58346482
0.58258254
0.58162964
0.58059518
0.57962436
0.57864044
0.65474682
0.77398976
0.71939264
0.74535754
0.72707983
0.73230907
0.72583634
0.72455835
0.72118053
0.71832088
0.71521083
0.71200643
0.70868781
0.70525893
0.70172373
0.69808762
0.69435734
0.69054106
0.68664858
0.68269117
0.67868168
0.67463437
0.67056481
0.66648966
0.66242642
0.65839313
0.65440807
0.65048934
0.64665451
0.64292026
0.63930198
0.63581347
0.63246665
0.62927129
0.62623496
0.62336285
0.62065787
0.61812067
0.61574983
0.61354206
0.61149242
0.60959459
0.60784116
0.60622386
0.60473386
0.60336197
0.60209885
0.60093518
0.59986184
0.59886998
0.59795116
0.59709738
0.59630115
0.59555548
0.5948539
0.59419047
0.59355971
0.59295659
0.59237644
0.59181495
0.59126811
0.59073222
0.590204
0.58968039
0.58915847
0.58863519
0.58810706
0.58756995
0.5870191
0.58644928
0.58585455
0.58522756
0.5845597
0.58384407
0.58307869
0.58225981
0.58136939
0.58041694
0.57950544
0.57848485
0.65532149
0.77363425
0.71858288
0.74355837
0.72564618
0.73003393
0.72363673
0.72175285
0.71814211
0.71486627
0.71138052
0.70778202
0.70406169
0.70022613
0.69628154
0.69223656
0.68810148
0.68388843
0.67961153
0.6752866
0.67093119
0.66656425
0.6622059
0.65787705
0.65359907
0.64939327
0.64528049
0.64128062
0.63741212
0.6336916
0.63013344
0.62674949
0.62354885
0.62053778
0.61771971
0.61509535
0.61266281
0.61041797
0.60835468
0.60646515
0.60474029
0.60317003
0.60174363
0.60045
0.59927791
0.59821623
0.59725408
0.59638101
0.59558706
0.59486284
0.59419961
0.59358928
0.5930244
0.59249819
0.59200447
0.59153767
0.59109276
0.59066518
0.59025077
0.58984574
0.58944659
0.58905013
0.58865355
0.58825422
0.58784967
0.58743727
0.58701399
0.58657617
0.58611952
0.58563926
0.58512989
0.58458459
0.58399572
0.58335693
0.58266401
0.58191042
0.58108909
0.58022402
0.57936332
0.57831651
0.65533409
0.7723841
0.7169212
0.74102118
0.7233388
0.72674001
0.72037737
0.71783323
0.71390706
0.71016379
0.70623006
0.70217107
0.6979836
0.69367843
0.68926572
0.68475877
0.68017308
0.67552636
0.67083849
0.66613118
0.66142774
0.65675258
0.65213087
0.6475879
0.6431486
0.63883685
0.63467498
0.6306831
0.62687867
0.62327606
0.61988627
0.61671681
0.61377166
0.61105142
0.60855356
0.60627273
0.6042012
0.60232923
0.60064557
0.59913784
0.59779294
0.59659742
0.59553775
0.59460062
0.59377309
0.59304279
0.592398
0.59182779
0.59132198
0.59087122
0.59046697
0.5901015
0.58976782
0.5894597
0.58917154
0.58889841
0.58863591
0.58838013
0.58812759
0.58787511
0.58761982
0.58735914
0.58709076
0.58681257
0.58652255
0.58621857
0.58589808
0.58555791
0.58519428
0.58480279
0.58437828
0.58391467
0.58340558
0.58284488
0.58222502
0.58153818
0.58079138
0.58001659
0.57920119
0.57814021
0.65476518
0.77014139
0.71433721
0.73739256
0.72002121
0.72231354
0.71590924
0.71265348
0.70830122
0.70401913
0.69955219
0.69495219
0.69022119
0.6853759
0.68043277
0.67541187
0.67033588
0.66522983
0.6601209
0.65503783
0.65001049
0.64506916
0.64024389
0.63556367
0.63105567
0.62674447
0.6226514
0.61879397
0.61518549
0.61183487
0.60874663
0.60592109
0.60335465
0.60104028
0.59896805
0.59712566
0.59549903
0.59407284
0.59283101
0.59175715
0.59083494
0.59004841
0.58938217
0.58882163
0.58835305
0.5879637
0.58764181
0.58737666
0.58715851
0.5869786
0.58682908
0.58670296
0.58659409
0.58649705
0.58640708
0.58632005
0.58623237
0.58614092
0.58604296
0.58593604
0.58581795
0.58568677
0.58554076
0.58537833
0.58519795
0.58499798
0.58477639
0.58453055
0.58425715
0.58395208
0.58361048
0.58322718
0.58279722
0.58231415
0.58176679
0.58114785
0.58047861
0.57979271
0.57902129
0.57796352
0.65355638
0.76673553
0.71077758
0.73259039
0.71553351
0.7165859
0.71003221
0.70599669
0.70109087
0.69617496
0.69107476
0.68584063
0.6804825
0.67502537
0.66949467
0.66391954
0.65833187
0.65276572
0.64725687
0.6418419
0.63655741
0.63143889
0.62651981
0.62183046
0.61739709
0.61324113
0.6093787
0.60582033
0.60257098
0.59963029
0.59699306
0.59464986
0.59258773
0.59079092
0.58924165
0.58792081
0.58680856
0.58588485
0.58512993
0.58452464
0.58405068
0.58369085
0.5834291
0.58325066
0.58314202
0.58309094
0.58308641
0.58311859
0.58317874
0.58325914
0.58335303
0.58345453
0.58355852
0.58366062
0.58375707
0.58384468
0.58392075
0.58398301
0.58402952
0.58405858
0.58406869
0.58405858
0.58402711
0.5839732
0.58389583
0.58379382
0.58366569
0.58350936
0.58332195
0.58309958
0.58283769
0.58253212
0.58217916
0.58177157
0.58129524
0.58074543
0.58015466
0.5795502
0.5788207
0.57779277
0.651653
0.76192866
0.70628538
0.72642308
0.70966876
0.70933201
0.70247715
0.69756571
0.69195729
0.68628987
0.68044534
0.67447975
0.66841457
0.66228564
0.65613012
0.64998873
0.64390467
0.63792262
0.63208766
0.62644383
0.62103278
0.61589226
0.61105488
0.60654706
0.60238833
0.598591
0.59516026
0.5920945
0.58938606
0.58702206
0.58498534
0.58325552
0.58180995
0.5806246
0.57967483
0.57893609
0.57838438
0.57799672
0.57775138
0.57762811
0.57760826
0.57767476
0.5778122
0.57800671
0.57824593
0.57851894
0.5788161
0.579129
0.57945032
0.57977375
0.58009388
0.58040611
0.58070654
0.58099194
0.58125963
0.5815074
0.58173349
0.58193646
0.58211519
0.58226873
0.58239627
0.5824972
0.58257092
0.58261688
0.58263452
0.58262315
0.5825818
0.58250893
0.58240206
0.58225752
0.58207116
0.58183977
0.58156033
0.58122445
0.58081697
0.580338
0.57982614
0.57929221
0.5785954
0.57763347
0.64899735
0.75533337
0.70074607
0.71862758
0.70211917
0.70020621
0.69285668
0.68694745
0.680477
0.67393092
0.66723315
0.66044945
0.6536173
0.64678704
0.64001109
0.63334473
0.62684426
0.62056514
0.61455994
0.60887633
0.60355528
0.59862959
0.59412297
0.59004967
0.58641463
0.58321411
0.5804367
0.57806453
0.57607465
0.57444038
0.57313262
0.57212095
0.57137468
0.57086357
0.57055849
0.57043187
0.57045795
0.57061299
0.57087537
0.57122554
0.57164601
0.57212121
0.57263744
0.57318267
0.57374642
0.57431965
0.57489456
0.57546451
0.57602387
0.57656794
0.57709277
0.57759515
0.57807245
0.5785226
0.57894401
0.57933544
0.57969603
0.58002519
0.5803225
0.58058777
0.58082085
0.5810217
0.58119027
0.5813265
0.58143025
0.5815013
0.58153914
0.58154274
0.58150999
0.58143755
0.58132182
0.5811603
0.5809498
0.58068067
0.58033932
0.57993295
0.57950024
0.57902654
0.57835373
0.57747765
0.6454554
0.74628217
0.6935466
0.70875236
0.69242839
0.68873347
0.68066559
0.67362546
0.66613566
0.65858702
0.65094237
0.64328253
0.63566754
0.62816774
0.62085449
0.61379879
0.60706818
0.60072375
0.59481764
0.58939093
0.58447251
0.58007859
0.57621309
0.57286868
0.57002828
0.56766685
0.56575333
0.56425248
0.56312661
0.56233703
0.56184531
0.56161418
0.56160825
0.56179447
0.5621424
0.56262436
0.56321543
0.56389336
0.56463851
0.5654336
0.56626357
0.5671154
0.56797786
0.56884137
0.5696978
0.5705403
0.57136317
0.5721617
0.57293203
0.57367108
0.57437642
0.57504617
0.57567897
0.57627385
0.57683023
0.5773478
0.57782653
0.57826657
0.57866822
0.57903189
0.57935807
0.57964724
0.57989983
0.58011623
0.5802967
0.58044142
0.58055033
0.5806228
0.58065709
0.58065039
0.58059985
0.58050332
0.58035649
0.58014865
0.57987047
0.57953769
0.57918309
0.57876029
0.57810717
0.57733028
0.64073979
0.73477759
0.68425831
0.69623657
0.68001721
0.67435301
0.66530308
0.65698068
0.64831919
0.63966111
0.6310168
0.6224909
0.61417268
0.60615548
0.59852749
0.5913684
0.58474552
0.5787109
0.57329981
0.56853027
0.56440385
0.56090735
0.55801515
0.55569184
0.55389496
0.55257756
0.55169051
0.55118435
0.55101082
0.55112391
0.55148067
0.55204158
0.55277082
0.55363629
0.55460951
0.55566544
0.55678221
0.55794091
0.55912527
0.56032139
0.56151748
0.56270361
0.56387149
0.56501425
0.56612628
0.56720303
0.5682409
0.56923707
0.57018943
0.57109644
0.57195708
0.57277074
0.57353718
0.57425646
0.57492888
0.57555498
0.57613546
0.57667113
0.57716289
0.5776117
0.57801859
0.57838449
0.57871027
0.57899671
0.57924443
0.57945398
0.57962565
0.5797591
0.57985302
0.57990535
0.57991415
0.57987723
0.57978855
0.57963687
0.57941901
0.57915903
0.57887952
0.57850218
0.57787142
0.57718541
0.63449014
0.72183723
0.6723223
0.68049375
0.66416844
0.65634405
0.64600159
0.63622651
0.62627601
0.61647573
0.60689589
0.5976704
0.58891491
0.58073576
0.57322117
0.56643798
0.5604294
0.55521478
0.55079109
0.54713575
0.54421022
0.541964
0.54033852
0.53927076
0.53869624
0.53855147
0.53877567
0.53931204
0.54010852
0.54111806
0.54229877
0.54361371
0.54503068
0.54652179
0.54806311
0.54963425
0.55121795
0.55279971
0.55436744
0.55591114
0.55742261
0.55889521
0.56032364
0.56170374
0.56303233
0.56430705
0.56552626
0.5666889
0.56779441
0.56884266
0.56983387
0.57076854
0.57164742
0.57247145
0.57324172
0.57395947
0.574626
0.5752427
0.57581098
0.57633227
0.57680801
0.57723955
0.57762811
0.57797482
0.57828065
0.57854642
0.57877269
0.57895936
0.57910556
0.57921014
0.57927213
0.579289
0.57925296
0.57915322
0.57899317
0.57880252
0.5785907
0.57825455
0.57765504
0.57704716
0.62637987
0.70489672
0.6569055
0.66063702
0.6438387
0.63364823
0.62172954
0.61039893
0.5991901
0.58842322
0.5782248
0.56874494
0.56010034
0.55237853
0.54563275
0.53988267
0.53511703
0.53129827
0.52836827
0.52625437
0.52487506
0.52414503
0.52397913
0.52429546
0.52501739
0.52607483
0.52740483
0.52895174
0.53066693
0.53250839
0.53444014
0.53643167
0.53845725
0.54049537
0.54252819
0.54454101
0.54652182
0.54846092
0.55035057
0.55218467
0.55395853
0.55566865
0.5573125
0.5588884
0.56039534
0.56183292
0.5632012
0.56450064
0.56573203
0.56689642
0.56799509
0.56902947
0.57000114
0.57091176
0.57176308
0.5725569
0.57329505
0.57397935
0.57461165
0.57519375
0.57572742
0.57621434
0.57665604
0.57705394
0.57740931
0.57772323
0.57799642
0.57822897
0.57842053
0.5785709
0.57867982
0.57874428
0.57875545
0.57870449
0.57860084
0.57847503
0.57832035
0.57801755
0.57745675
0.57694348
0.61576423
0.68298198
0.63661425
0.63525013
0.61755366
0.60487822
0.59131447
0.57859316
0.56649739
0.55532381
0.54521379
0.53628792
0.52861181
0.52220391
0.5170387
0.51305481
0.51016409
0.50826094
0.50723072
0.50695683
0.50732607
0.5082323
0.50957874
0.51127905
0.51325753
0.51544882
0.51779713
0.52025536
0.52278408
0.52535057
0.52792788
0.53049403
0.53303115
0.53552496
0.53796408
0.54033962
0.54264476
0.54487436
0.54702471
0.54909328
0.5510785
0.55297958
0.55479642
0.55652942
0.55817945
0.55974769
0.56123565
0.56264502
0.5639777
0.5652357
0.56642115
0.56753622
0.56858315
0.5695642
0.57048163
0.5713377
0.57213463
0.57287462
0.57355982
0.57419235
0.57477422
0.57530735
0.57579354
0.57623446
0.57663161
0.57698629
0.57729934
0.57757111
0.5778018
0.57799198
0.57814172
0.57824745
0.57830049
0.5782957
0.57824767
0.57818281
0.57807577
0.57779962
0.57728516
0.57687943
0.60149099
0.65398967
0.60953091
0.60257679
0.58370378
0.56865659
0.55386583
0.54045159
0.5283782
0.51786176
0.50897468
0.50173397
0.49608945
0.49194173
0.48915572
0.4875758
0.48703847
0.48738253
0.4884561
0.49012096
0.49225474
0.49475139
0.49752055
0.50048634
0.5035858
0.5067672
0.5099884
0.51321543
0.51642107
0.51958377
0.52268661
0.52571651
0.52866351
0.5315202
0.53428126
0.53694305
0.53950328
0.5419608
0.54431533
0.54656731
0.54871774
0.5507681
0.55272021
0.55457618
0.55633833
0.55800915
0.55959123
0.56108728
0.56250002
0.56383223
0.56508668
0.56626612
0.56737331
0.56841094
0.56938169
0.57028816
0.57113288
0.57191832
0.57264688
0.57332089
0.57394255
0.57451399
0.57503717
0.57551395
0.57594606
0.57633491
0.57668152
0.57698655
0.57725079
0.57747531
0.57766006
0.57780101
0.57789082
0.57792881
0.57793261
0.57792143
0.57785558
0.57761274
0.57715914
0.5768503
0.58158834
0.61557426
0.57346436
0.56081581
0.5412679
0.52428202
0.50941289
0.49672732
0.48619276
0.47785196
0.47160747
0.46729959
0.46471717
0.46362616
0.46378866
0.46497808
0.46698825
0.46963806
0.47277271
0.47626263
0.48000123
0.483902
0.4878956
0.49192695
0.49595279
0.49993945
0.50386103
0.50769785
0.51143525
0.51506253
0.51857212
0.52195902
0.52522014
0.528354
0.53136032
0.53423979
0.53699382
0.53962443
0.54213405
0.54452546
0.54680167
0.54896587
0.55102138
0.5529716
0.55481995
0.5565699
0.55822487
0.55978829
0.56126353
0.56265391
0.56396269
0.56519306
0.56634814
0.56743095
0.56844448
0.56939156
0.57027498
0.57109738
0.57186138
0.57256943
0.57322389
0.57382699
0.57438087
0.57488751
0.57534874
0.57576609
0.57614075
0.57647376
0.57676643
0.57702008
0.57723435
0.5774052
0.57752722
0.57760323
0.57765089
0.57768193
0.57765228
0.57745763
0.57708493
0.57683176
0.55344418
0.5652299
0.52705272
0.50861628
0.48797301
0.47249812
0.45951916
0.44963567
0.44258302
0.43811824
0.4358951
0.43555019
0.4367259
0.43909587
0.44237554
0.44632581
0.45075111
0.45549488
0.46043389
0.46547248
0.47053733
0.47557287
0.48053755
0.48540071
0.49014021
0.49474045
0.49919085
0.50348471
0.50761828
0.51159005
0.5154002
0.51905021
0.5225425
0.52588017
0.52906685
0.53210652
0.53500339
0.53776183
0.54038631
0.54288131
0.54525132
0.54750079
0.54963411
0.5516556
0.5535695
0.55537995
0.55709099
0.55870654
0.56023044
0.56166639
0.56301799
0.56428873
0.56548199
0.56660105
0.56764906
0.56862908
0.56954401
0.57039669
0.57118982
0.571926
0.57260766
0.57323714
0.57381665
0.57434828
0.5748339
0.57527511
0.57567328
0.57602977
0.57634624
0.57662405
0.57686276
0.57705899
0.57720955
0.57731928
0.5774032
0.57746594
0.57746418
0.57731502
0.57702667
0.57686407
0.51294448
0.50040852
0.46319621
0.44530316
0.42788556
0.41568743
0.40738022
0.40274842
0.40113823
0.40196378
0.40465646
0.40872938
0.41378049
0.41949155
0.42561729
0.43197281
0.4384211
0.44486229
0.45122466
0.45745769
0.46352657
0.46940818
0.47508792
0.4805575
0.48581314
0.49085439
0.49568312
0.50030289
0.50471839
0.5089351
0.51295898
0.51679631
0.52045349
0.52393697
0.52725315
0.53040837
0.5334088
0.53626047
0.53896926
0.54154083
0.5439807
0.54629417
0.54848639
0.55056229
0.55252667
0.55438412
0.55613909
0.55779586
0.55935854
0.56083112
0.56221741
0.56352109
0.56474574
0.56589476
0.56697147
0.56797902
0.56892044
0.56979865
0.57061646
0.57137652
0.57208136
0.57273338
0.57333484
0.57388788
0.57439442
0.57485612
0.57527449
0.5756511
0.5759877
0.57628554
0.57654429
0.57676183
0.57693736
0.57707669
0.57719131
0.57728058
0.57730641
0.57720767
0.57700082
0.57689032
0.45117222
0.41862019
0.38893192
0.37409306
0.36326209
0.35846343
0.35789773
0.36064655
0.36571893
0.3723555
0.37997107
0.38814131
0.39656591
0.40503789
0.41341769
0.42161359
0.4295673
0.43724368
0.44462352
0.45169843
0.45846731
0.4649339
0.4711051
0.47698976
0.48259788
0.48794008
0.49302717
0.49786996
0.50247903
0.50686467
0.5110368
0.51500494
0.51877817
0.52236516
0.52577419
0.52901311
0.53208939
0.53501016
0.5377822
0.54041196
0.54290559
0.54526896
0.54750768
0.54962711
0.55163236
0.55352834
0.55531974
0.55701106
0.55860659
0.56011048
0.56152668
0.56285901
0.56411112
0.56528653
0.56638861
0.56742061
0.56838561
0.5692866
0.57012644
0.57090783
0.57163337
0.57230549
0.57292654
0.57349867
0.57402384
0.57450382
0.57494026
0.57533483
0.57568917
0.57600434
0.57628013
0.57651557
0.5767116
0.57687415
0.57701121
0.57711902
0.57716785
0.57711953
0.57699861
0.57695659
0.35547853
0.32201692
0.30441271
0.29993508
0.30131679
0.30757801
0.31674184
0.32754321
0.33910899
0.35088812
0.36254505
0.37388387
0.38479697
0.39523136
0.40516743
0.41460559
0.42355788
0.43204281
0.44008214
0.44769891
0.45491625
0.4617567
0.46824179
0.47439187
0.48022602
0.48576205
0.49101652
0.49600486
0.50074137
0.50523935
0.50951119
0.51356841
0.51742174
0.52108123
0.52455626
0.52785562
0.53098757
0.53395989
0.53677989
0.53945448
0.54199021
0.54439328
0.54666955
0.54882462
0.55086381
0.55279219
0.55461459
0.55633563
0.55795971
0.55949107
0.56093373
0.56229156
0.56356828
0.56476744
0.56589247
0.56694662
0.56793303
0.5688547
0.56971453
0.57051526
0.57125951
0.57194978
0.57258844
0.57317768
0.57371955
0.57421592
0.57466856
0.57507921
0.57544941
0.57578014
0.57607155
0.57632357
0.57653781
0.57671879
0.57687103
0.57699063
0.57705939
0.57705891
0.57701085
0.57700009
0.21645563
0.21517523
0.22055557
0.23394366
0.25123576
0.26960666
0.28785288
0.30532465
0.32179309
0.3371943
0.3515534
0.36493073
0.37739997
0.38903633
0.39991153
0.41009155
0.41963607
0.42859858
0.43702679
0.4449632
0.4524457
0.45950807
0.46618055
0.47249026
0.47846155
0.48411643
0.48947477
0.49455465
0.4993725
0.50394334
0.50828095
0.51239799
0.51630613
0.52001616
0.52353809
0.52688125
0.53005432
0.53306542
0.53592217
0.53863174
0.54120086
0.54363592
0.54594292
0.54812758
0.55019533
0.55215131
0.55400044
0.55574739
0.55739662
0.55895239
0.56041878
0.56179967
0.56309879
0.56431973
0.5654659
0.56654059
0.5675469
0.56848787
0.56936639
0.57018523
0.57094702
0.57165429
0.57230942
0.57291466
0.57347209
0.57398366
0.57445124
0.57487655
0.57526107
0.57560585
0.57591154
0.57617888
0.57640948
0.57660595
0.57677009
0.57689968
0.57698733
0.5770273
0.57703094
0.57703696
0.091886377
0.12176711
0.15916357
0.19278656
0.22289534
0.24940005
0.27292045
0.29392213
0.3128209
0.3299427
0.34555024
0.35985396
0.37302465
0.38520208
0.39650187
0.40702051
0.41683928
0.42602722
0.43464339
0.44273872
0.45035739
0.457538
0.46431441
0.47071657
0.47677105
0.48250155
0.48792932
0.4930735
0.49795139
0.50257869
0.50696972
0.5111376
0.51509434
0.51885103
0.52241791
0.5258045
0.52901964
0.53207156
0.53496799
0.53771618
0.54032292
0.54279465
0.54513744
0.54735702
0.54945884
0.5514481
0.5533297
0.55510835
0.55678851
0.55837446
0.55987027
0.56127983
0.56260689
0.56385501
0.56502761
0.56612796
0.56715918
0.56812429
0.56902618
0.56986761
0.57065125
0.57137963
0.57205513
0.57268002
0.57325639
0.57378623
0.57427138
0.57471353
0.57511408
0.5754741
0.57579455
0.57607658
0.57632165
0.57653113
0.57670552
0.57684417
0.57694616
0.57701203
0.57704573
0.57705718
0.011026611
0.2969806
0.47167429
0.51960368
0.52934392
0.52986162
0.52953949
0.53067852
0.53215735
0.53363953
0.53511754
0.53656082
0.53798069
0.53938622
0.54078823
0.54219672
0.54361311
0.54503797
0.54647103
0.54791133
0.5493574
0.55080744
0.55225946
0.55371133
0.55516087
0.55660589
0.55804418
0.5594736
0.56089204
0.56229745
0.56368781
0.56506118
0.56641563
0.56774926
0.56906022
0.57034665
0.57160671
0.57283858
0.57404042
0.57521039
0.57634665
0.57744734
0.57851059
0.57953452
0.58051726
0.58145693
0.58235167
0.58319961
0.58399894
0.58474788
0.58544472
0.58608783
0.58667565
0.58720673
0.58767972
0.5880934
0.5884467
0.58873864
0.58896845
0.58913522
0.5892378
0.58927534
0.5892473
0.58915341
0.5889926
0.58876584
0.58846884
0.58811103
0.5876707
0.58719607
0.58658579
0.58602721
0.58517789
0.58466544
0.58341674
0.58316202
0.58133194
0.58141946
0.57913057
0.579311
0.064224307
0.38473285
0.52209308
0.54716434
0.54802137
0.5462004
0.54534547
0.54548707
0.54569034
0.54599477
0.54638486
0.5469403
0.54761597
0.54838253
0.54921149
0.55009959
0.55104009
0.55202856
0.5530596
0.55412803
0.55522912
0.55635839
0.55751164
0.55868486
0.55987427
0.56107623
0.56228729
0.56350414
0.56472358
0.56594254
0.56715808
0.56836731
0.56956747
0.57075586
0.57192985
0.57308686
0.57422438
0.57533994
0.57643112
0.57749552
0.57853078
0.57953458
0.58050462
0.58143863
0.58233438
0.58318969
0.5840024
0.58477042
0.58549173
0.58616439
0.58678655
0.58735647
0.58787254
0.58833326
0.58873729
0.5890834
0.58937059
0.58959795
0.58976478
0.58987028
0.58991341
0.5898935
0.58981019
0.58966336
0.58945224
0.58917771
0.58883635
0.58843618
0.58795875
0.58744573
0.58680842
0.58621552
0.58535296
0.58480125
0.58355589
0.58326251
0.5814272
0.58151468
0.57914429
0.57942251
0.14938224
0.46576257
0.54179349
0.55456141
0.55320266
0.55226821
0.55225727
0.5528166
0.5532306
0.55375314
0.55425606
0.55482145
0.55540709
0.55603456
0.55669536
0.55739412
0.55812687
0.55889399
0.55969393
0.56052497
0.56138532
0.56227301
0.56318591
0.56412176
0.56507817
0.56605263
0.56704257
0.5680453
0.56905809
0.57007819
0.57110277
0.572129
0.57315404
0.57417502
0.5751891
0.57619343
0.57718516
0.57816149
0.5791196
0.58005673
0.58097013
0.5818571
0.58271495
0.58354106
0.58433287
0.58508785
0.58580357
0.58647767
0.5871079
0.5876921
0.58822826
0.58871452
0.58914914
0.58953058
0.58985742
0.59012844
0.59034265
0.59049918
0.5905974
0.59063657
0.59061575
0.59053441
0.59039234
0.59018954
0.58992549
0.58960102
0.58921332
0.58876948
0.58825311
0.58770172
0.58703477
0.58640991
0.58552851
0.58494282
0.58369131
0.58336587
0.58151739
0.58160568
0.57916562
0.57952418
0.23172084
0.51301152
0.55542117
0.56294705
0.56028428
0.56051333
0.56057135
0.56116961
0.56144111
0.5618933
0.56226816
0.56272359
0.56318161
0.56367154
0.56417877
0.56471131
0.5652664
0.56584629
0.5664508
0.56707987
0.56773318
0.56841022
0.56911023
0.56983223
0.570575
0.57133712
0.57211695
0.57291269
0.57372234
0.57454374
0.57537459
0.57621245
0.57705478
0.57789892
0.57874214
0.57958163
0.58041452
0.58123791
0.58204886
0.58284441
0.5836216
0.58437749
0.58510915
0.58581369
0.58648827
0.58713013
0.58773657
0.58830501
0.58883298
0.58931814
0.58975834
0.59015155
0.59049596
0.59078992