/*--------------------------------*- C++ -*----------------------------------*\
  =========                 |
  \\      /  F ield         | OpenFOAM: The Open Source CFD Toolbox
   \\    /   O peration     | Website:  https://openfoam.org
    \\  /    A nd           | Version:  12
     \\/     M anipulation  |
\*---------------------------------------------------------------------------*/
FoamFile
{
    format      ascii;
    class       volScalarField;
    location    "0.112";
    object      omega;
}
// * * * * * * * * * * * * * * * * * * * * * * * * * * * * * * * * * * * * * //

dimensions      [0 0 -1 0 0 0 0];

internalField   nonuniform List<scalar> 
16000
(
1090.7443
2190.6428
1071.0704
643.27298
453.84554
315.66581
239.43575
180.79082
145.62145
117.9359
100.20723
85.78255
75.082788
66.146299
58.853074
52.708539
47.521325
43.097126
39.295581
36.004914
33.140944
30.632863
28.422386
26.463012
24.717275
23.15603
21.755152
20.496004
19.362786
18.341073
17.417825
16.582759
15.827685
15.145672
14.530795
13.977552
13.480762
13.035537
12.637794
12.284087
11.970544
11.693093
11.448776
11.234896
11.048387
10.886132
10.745709
10.62482
10.521257
10.432933
10.357985
10.294781
10.241793
10.197676
10.161262
10.131654
10.108234
10.090716
10.079377
10.074935
10.075608
10.075991
10.075696
10.074999
10.073716
10.071759
10.06904
10.065495
10.06108
10.055767
10.049523
10.04221
10.033657
10.024683
10.018663
10.015917
10.015934
10.027222
10.010608
10.023008
1132.4925
2182.2099
1059.6038
643.64486
453.98406
318.50707
240.4929
182.58135
146.44762
118.95914
100.74629
86.341488
75.440368
66.45593
59.076897
52.882151
47.648156
43.189178
39.360352
36.048034
33.167262
30.646913
28.427761
26.462596
24.71291
23.149186
21.746594
20.486151
19.352137
18.330371
17.407547
16.573023
15.818466
15.136833
14.522236
13.96924
13.472771
13.027883
12.630302
12.276706
11.963513
11.686432
11.442351
11.228693
11.042571
10.880715
10.740662
10.62013
10.516939
10.428994
10.354398
10.291534
10.238871
10.195064
10.158917
10.129494
10.106144
10.088486
10.076541
10.070889
10.071004
10.07132
10.070901
10.07009
10.068713
10.066679
10.063899
10.06031
10.055867
10.050545
10.044329
10.037116
10.028817
10.020521
10.015021
10.012075
10.013167
10.020694
10.01067
10.022885
1172.6407
2183.7739
1048.4614
640.08307
450.64651
318.76553
239.40532
182.774
146.00438
119.11495
100.59365
86.351324
75.337222
66.357232
58.945439
52.739066
47.494282
43.030156
39.200142
35.888908
33.011124
30.495751
28.283008
26.325461
24.583804
23.02844
21.634073
20.381444
19.254865
18.240509
17.325001
16.497436
15.749406
15.073777
14.464705
13.916804
13.425138
12.984805
12.591351
12.241433
11.931846
11.658183
11.417149
11.206196
11.022688
10.863246
10.725363
10.606776
10.505338
10.418985
10.345794
10.284174
10.232606
10.189768
10.15446
10.125725
10.102896
10.085575
10.073658
10.067427
10.066867
10.067032
10.066438
10.065457
10.063926
10.061757
10.058861
10.055176
10.050658
10.045283
10.039051
10.03189
10.023734
10.01618
10.011173
10.008613
10.010344
10.016219
10.010964
10.022016
1211.0029
2192.0687
1038.7702
636.64403
446.89433
318.80821
238.01802
182.80259
145.42077
119.16956
100.38973
86.299191
75.19292
66.211416
58.773759
52.557506
47.305177
42.838315
39.009561
35.701699
32.828914
30.320396
28.115762
26.167488
24.4354
22.889863
21.505146
20.261697
19.143762
18.137921
17.230815
16.411247
15.670749
15.002069
14.399413
13.857426
13.3713
12.936236
12.54763
12.201978
11.896524
11.626802
11.389328
11.181478
11.000942
10.844251
10.708836
10.592446
10.49297
10.408392
10.336757
10.276507
10.226134
10.184343
10.149941
10.121951
10.099686
10.08273
10.070925
10.064412
10.063116
10.063076
10.062276
10.061092
10.059376
10.057043
10.054005
10.050199
10.045584
10.040135
10.033861
10.026741
10.018693
10.011854
10.007343
10.005239
10.007097
10.012146
10.011774
10.022232
1247.3952
2210.463
1030.4612
632.94945
442.3945
318.11049
235.95155
182.34583
144.4615
118.94693
99.998526
86.07112
74.910091
65.933953
58.487547
52.272332
47.023331
42.562703
38.743231
35.445885
32.584321
30.088169
27.896489
25.961869
24.243327
22.711269
21.339597
20.10851
19.002095
18.007368
17.111112
16.301843
15.57106
14.911379
14.317061
13.78277
13.303808
12.875527
12.493261
12.153186
11.853021
11.588326
11.355464
11.151596
10.974807
10.821573
10.689252
10.575607
10.47855
10.396149
10.32641
10.267818
10.218876
10.178328
10.144998
10.117897
10.096323
10.079849
10.068276
10.061624
10.059768
10.059459
10.058421
10.056998
10.055063
10.052533
10.049321
10.045364
10.040625
10.035077
10.028729
10.021634
10.013752
10.007612
10.003624
10.001962
10.003834
10.008566
10.011433
10.020904
1281.6715
2236.401
1026.62
629.97926
438.42165
316.78735
233.40954
181.48217
143.23065
118.48521
99.464154
85.689198
74.508086
65.54201
58.101255
51.896713
46.660229
42.213532
38.410115
35.129407
32.284402
29.805388
27.630885
25.713623
24.012124
22.496778
21.141164
19.925302
18.833019
17.851758
16.968586
16.171712
15.452642
14.803833
14.219614
13.694656
13.224347
12.804207
12.429638
12.096376
11.80254
11.543815
11.316514
11.117416
10.945044
10.795877
10.667189
10.556761
10.462505
10.382615
10.31505
10.258351
10.211032
10.171878
10.139748
10.113649
10.09286
10.076948
10.0657
10.059046
10.056764
10.056138
10.054833
10.053144
10.05096
10.048203
10.044791
10.04066
10.035773
10.030107
10.023659
10.016559
10.008964
10.003513
10.000067
9.9988018
10.000642
10.005391
10.010558
10.018627
1313.7921
2267.4852
1026.7384
627.16195
434.50432
314.82709
230.7748
180.24699
141.82759
117.78719
98.795473
85.152227
73.983167
65.033492
57.611709
51.42769
46.212812
41.787846
38.007137
34.7493
31.926348
29.469412
27.316593
25.420093
23.739331
22.244146
20.907812
19.710252
18.634942
17.6697
16.802032
16.019822
15.314629
14.678717
14.106493
13.592635
13.132593
12.722032
12.356569
12.031597
11.745189
11.49338
11.272609
11.079117
10.91183
10.767329
10.642804
10.536057
10.444968
10.367909
10.302781
10.248193
10.202675
10.165056
10.134239
10.109242
10.089327
10.074049
10.063195
10.056646
10.054071
10.053088
10.051491
10.049509
10.047051
10.044043
10.040407
10.036078
10.031021
10.025219
10.018654
10.011496
10.0044
9.9996257
9.9967303
9.9958319
9.9976335
10.00245
10.00942
10.015456
1343.867
2301.1657
1028.3884
624.02831
430.65761
312.22015
228.14594
178.78072
140.32037
116.87422
98.009271
84.468756
73.336468
64.410431
57.018998
50.864686
45.679961
41.28443
37.532196
34.303378
31.508043
29.078187
26.951924
25.077688
23.421498
21.95016
20.636577
19.460671
18.405473
17.459078
16.609598
15.844561
15.155641
14.534867
13.976729
13.475911
13.027923
12.628523
12.273602
11.959149
11.681318
11.43735
11.224048
11.037115
10.875547
10.736267
10.616406
10.513774
10.426176
10.352229
10.289764
10.237476
10.193911
10.157942
10.128531
10.104715
10.085747
10.071165
10.060756
10.054389
10.051639
10.05027
10.048359
10.046065
10.043314
10.040034
10.036152
10.031607
10.026359
10.0204
10.013721
10.006447
10.000102
9.9959971
9.9936551
9.9931041
9.9948838
9.9997173
10.007724
10.011978
1371.9907
2335.2457
1026.8331
620.12018
425.88694
308.91306
224.62421
176.9202
138.48603
115.77695
97.101088
83.637799
72.560944
63.668065
56.318073
50.20195
45.055965
40.698161
36.977238
33.783549
31.021736
28.624305
26.530347
24.687189
23.059973
21.616605
20.329528
19.178808
18.147005
17.222341
16.393732
15.648355
14.978065
14.374607
13.832568
13.346636
12.912382
12.525656
12.18241
11.878617
11.610681
11.375559
11.170658
10.99177
10.836547
10.702989
10.588329
10.490208
10.406394
10.335797
10.276184
10.226347
10.184857
10.150628
10.122689
10.100115
10.08215
10.068313
10.058385
10.052249
10.049417
10.047643
10.045402
10.042783
10.039723
10.036156
10.032013
10.027235
10.021779
10.015639
10.008868
10.001577
9.9961166
9.9926709
9.9908747
9.9906567
9.9924435
9.997231
10.00542
10.009411
1398.259
2368.0952
1018.2808
615.13277
419.40917
305.16346
220.27362
174.58927
136.59945
114.49765
96.060594
82.654015
71.648539
62.798379
55.500881
49.426597
44.326906
40.015682
36.340611
33.190673
30.46995
28.111372
26.055309
24.247655
22.654099
21.24297
19.986318
18.864486
17.859556
16.95968
16.154695
15.431575
14.782384
14.198515
13.67466
13.205511
12.786693
12.414149
12.083996
11.792264
11.535279
11.309857
11.113929
10.942988
10.794823
10.667455
10.558869
10.465624
10.385907
10.318847
10.262239
10.214964
10.175637
10.143208
10.116782
10.095483
10.078559
10.065508
10.056086
10.050199
10.04735
10.045165
10.042582
10.039629
10.036252
10.032389
10.027973
10.022948
10.017274
10.010934
10.004071
9.9971506
9.9924836
9.989682
9.9884118
9.9885102
9.9903178
9.9950248
10.002983
10.00679
1422.7845
2399.0078
1009.4021
609.07963
411.27948
301.01538
215.67082
172.06056
134.61355
113.03719
94.875012
81.510349
70.587615
61.780833
54.544878
48.533736
43.494106
39.241009
35.620346
32.522875
29.850786
27.537683
25.525627
23.759192
22.204234
20.829771
19.607676
18.51862
17.544239
16.67241
15.893582
15.195372
14.569812
14.007849
13.504284
13.05381
12.652112
12.295205
11.979376
11.700752
11.455744
11.240962
11.054718
10.892466
10.75184
10.63083
10.527983
10.439977
10.36495
10.301567
10.248124
10.20349
10.166381
10.135782
10.110879
10.090863
10.074997
10.062759
10.053863
10.04822
10.045379
10.04279
10.03986
10.03657
10.032873
10.028709
10.024016
10.018735
10.012838
10.00631
9.9992962
9.9931618
9.9892478
9.9870605
9.9862863
9.986687
9.9885124
9.9930313
10.000643
10.004922
1445.6935
2429.0141
996.01741
601.48624
401.75742
296.45904
210.8941
169.27635
132.60188
111.40132
93.517324
80.176491
69.340455
60.608976
53.453613
47.52004
42.553777
38.370701
34.814929
31.778924
29.163923
26.90332
24.941528
23.222167
21.711153
20.377606
19.19441
18.142223
17.202243
16.362067
15.610643
14.940027
14.340693
13.803018
13.321897
12.892013
12.509129
12.169305
11.869041
11.604575
11.372448
11.169845
10.993786
10.840642
10.708005
10.593736
10.496861
10.414131
10.343474
10.283904
10.233978
10.192073
10.157212
10.128447
10.105049
10.086298
10.071481
10.060067
10.051719
10.046302
10.04345
10.040473
10.037197
10.033572
10.029557
10.025095
10.020126
10.014588
10.00846
10.001799
9.9947549
9.9896401
9.9864383
9.9848268
9.9845112
9.9852067
9.987059
9.9912707
9.9983716
10.003157
1467.2968
2457.2392
978.71978
592.99774
391.73403
291.49308
206.0472
166.29401
130.53801
109.56818
91.922558
78.63576
67.912117
59.276755
52.220553
46.381722
41.503233
37.402971
33.92312
30.958227
28.409134
26.208707
24.30327
22.637208
21.176081
19.886032
18.746214
17.735185
16.833569
16.029209
15.311014
14.670611
14.099934
13.58876
13.13202
12.724364
12.361689
12.040065
11.756244
11.506672
11.287797
11.096726
10.931366
10.787723
10.663439
10.556642
10.465735
10.388407
10.322354
10.266492
10.219697
10.1808
10.148235
10.121296
10.099361
10.08183
10.068029
10.057427
10.049652
10.044451
10.041509
10.038171
10.034556
10.030605
10.026279
10.021525
10.016286
10.010503
10.004142
9.9973781
9.9908683
9.9865935
9.9840673
9.9829849
9.9830846
9.9840702
9.9859784
9.9898164
9.9962448
10.001483
1487.8299
2479.95
957.26299
583.94764
381.2644
286.17154
201.21549
163.11999
128.35098
107.44274
90.074966
76.877293
66.28978
57.775891
50.839556
45.113938
40.339121
36.335501
32.943869
30.059793
27.58625
25.454641
23.609421
22.002991
20.598536
19.361476
18.270129
17.304892
16.445791
15.680753
14.998501
14.390852
13.850658
13.367885
12.937189
12.553112
12.211784
11.909239
11.642469
11.408277
11.203198
11.024211
10.869596
10.735528
10.61954
10.519581
10.434658
10.36269
10.301653
10.249621
10.205838
10.169533
10.13949
10.1144
10.093879
10.0775
10.06466
10.054828
10.047641
10.042687
10.039512
10.035846
10.031904
10.027638
10.023013
10.017979
10.012479
10.006473
9.9999324
9.9930085
9.9875466
9.9840321
9.9821247
9.9815203
9.9819862
9.983252
9.9852585
9.988748
9.9944141
9.9997982
1507.5508
2492.4748
931.69455
574.25109
370.41728
280.52602
196.47348
159.67521
125.92068
105.03224
87.947235
74.883299
64.460946
56.096241
49.303241
43.711618
39.058549
35.165956
31.876483
29.080487
26.692388
24.639497
22.868444
21.329396
19.988312
18.809733
17.772034
16.85662
16.043885
15.321602
14.678284
14.105676
13.595994
13.142987
12.7396
12.380072
12.060907
11.778082
11.528735
11.31016
11.119014
10.953009
10.809062
10.684476
10.576887
10.483961
10.404814
10.337825
10.281186
10.233382
10.192626
10.158713
10.13081
10.107775
10.088654
10.073344
10.061399
10.052263
10.045634
10.041013
10.03743
10.033464
10.029213
10.024648
10.01974
10.014442
10.008698
10.002478
9.995873
9.9893146
9.98477
9.9819388
9.9805838
9.9804072
9.9811882
9.9827116
9.984847
9.9880774
9.993062
9.9982142
1526.6796
2484.4495
902.39804
563.95372
359.23948
274.56257
191.81457
155.8324
123.17009
102.29181
85.509666
72.631069
62.409591
54.226714
47.604229
42.169231
37.658781
33.888411
30.716549
28.029072
25.740009
23.776721
22.088374
20.624682
19.35335
18.239397
17.260375
16.396683
15.633396
14.956544
14.354285
13.818961
13.343038
12.920331
12.544853
12.210234
11.913463
11.650541
11.418531
11.215453
11.037689
10.883299
10.749922
10.634592
10.535254
10.449884
10.376448
10.314253
10.261614
10.217509
10.180119
10.148523
10.122516
10.101243
10.083691
10.069393
10.058272
10.049752
10.043566
10.039234
10.035253
10.031002
10.026465
10.021621
10.016446
10.010903
10.004945
9.9985449
9.9918431
9.9862876
9.9825244
9.9802891
9.9794078
9.9796185
9.9806685
9.9824155
9.9846861
9.9877369
9.9921419
9.9972677
1545.3845
2435.7024
870.84244
553.08899
347.78781
268.19365
186.92889
151.56376
119.98608
99.173734
82.728623
70.095979
60.119889
52.157738
45.735966
40.47734
36.132387
32.514528
29.480394
26.916651
24.740607
22.87837
21.281902
19.901392
18.70339
17.65884
16.743211
15.937147
15.225436
14.595855
14.035893
13.538432
13.096271
12.703717
12.35581
12.04589
11.771211
11.528056
11.313145
11.125217
10.960629
10.817451
10.694089
10.587552
10.495757
10.417043
10.349718
10.292158
10.243248
10.202481
10.168045
10.139016
10.114739
10.095025
10.078839
10.065658
10.055291
10.047335
10.041463
10.037286
10.032966
10.028444
10.023647
10.018548
10.013126
10.007355
10.001204
9.9947486
9.9883662
9.9838228
9.9807791
9.9790617
9.9785589
9.9791278
9.9804098
9.9823366
9.9847383
9.9877623
9.9918556
9.9968495
1563.5301
2400.0861
839.00999
541.5994
336.06489
260.87792
181.88996
146.76633
116.25517
95.620134
79.569134
67.254026
57.576555
49.881095
43.686074
38.647614
34.500906
31.059732
28.184629
25.761768
23.712014
21.961949
20.462469
19.172251
18.055801
17.08429
16.234491
15.487474
14.828107
14.245975
13.728461
13.268752
12.8601
12.496902
12.174382
11.888416
11.635013
11.411072
11.213736
11.040288
10.888443
10.755914
10.641877
10.543658
10.458992
10.386337
10.324216
10.271263
10.226239
10.188488
10.156733
10.129966
10.107548
10.089191
10.074249
10.062106
10.052441
10.045038
10.039405
10.035176
10.030571
10.025793
10.02076
10.015432
10.009787
10.003818
9.9975065
9.9909745
9.9856018
9.9818578
9.9794762
9.9782405
9.9780087
9.9789052
9.9803937
9.982455
9.984954
9.9880457
9.9920324
9.9968574
1580.6602
2358.1059
806.25893
529.15004
323.96831
252.38141
176.50451
141.32517
111.86908
91.570057
75.997782
64.08449
54.760997
47.382448
41.479926
36.702539
32.788358
29.550479
26.854606
24.588671
22.673246
21.045281
19.65353
18.457689
17.424978
16.528068
15.744687
15.056854
14.449254
13.912026
13.435884
13.012736
12.636454
12.301982
12.005005
11.741599
11.508235
11.301892
11.120012
10.960308
10.820711
10.699173
10.593759
10.503201
10.425162
10.358162
10.30084
10.252004
10.210583
10.175605
10.146276
10.121604
10.100938
10.083778
10.069901
10.058624
10.049683
10.042822
10.037477
10.032928
10.028086
10.023064
10.017814
10.012289
10.006446
10.000297
9.9939723
9.9877928
9.9833909
9.9803472
9.9785298
9.9777766
9.9777702
9.9789143
9.9805964
9.9827664
9.985336
9.9885192
9.9925044
9.9971596
1596.1093
2290.2823
771.85012
515.24231
310.73404
242.55557
170.45834
135.10095
106.72751
86.964778
71.988817
60.568237
51.690654
44.709691
39.153934
34.68092
31.032859
28.021802
25.518226
23.422441
21.65514
20.15488
18.873774
17.773981
16.825064
16.001775
15.282943
14.650982
14.094095
13.601394
13.16447
12.775988
12.430172
12.122386
11.848886
11.606382
11.391674
11.201835
11.034469
10.887333
10.75858
10.646596
10.549979
10.466359
10.394367
10.332537
10.279584
10.234394
10.196012
10.163887
10.136688
10.113846
10.094724
10.07883
10.065894
10.055361
10.046994
10.040573
10.035482
10.030603
10.025544
10.020296
10.01484
10.009142
10.003157
9.9968496
9.9904349
9.9853399
9.9816851
9.9792595
9.9778765
9.9774296
9.9779394
9.9791199
9.980976
9.9832492
9.9858934
9.9891563
9.9931218
9.9975662
1608.7832
2221.3441
734.88388
499.29956
296.71403
231.205
163.28158
127.92671
100.7538
81.77447
67.536538
56.746342
48.42746
41.921873
36.767727
32.635758
29.28073
26.510873
24.216156
22.297714
20.681819
19.311082
18.140583
17.135205
16.267257
15.514194
14.855573
14.27798
13.768422
13.316947
12.916413
12.56005
12.242523
11.959474
11.707465
11.483788
11.285975
11.111066
10.956969
10.821507
10.702822
10.599955
10.510516
10.433228
10.366652
10.309491
10.260525
10.218725
10.183236
10.15332
10.128044
10.106807
10.089052
10.074306
10.062218
10.052347
10.044441
10.038317
10.033385
10.028247
10.022991
10.017547
10.011898
10.006021
9.9999324
9.9937105
9.9876659
9.9834196
9.9804231
9.9785507
9.9776111
9.9773302
9.9781296
9.9795043
9.9814678
9.9838259
9.9865595
9.9899234
9.9938733
9.9980237
1615.8782
2137.7574
695.12571
479.62467
281.64277
218.01008
154.50011
119.66509
93.947805
76.046733
62.725077
52.727091
45.068438
39.10558
34.395524
30.62847
27.577665
25.064186
22.981616
21.241326
19.775088
18.530599
17.466878
16.551762
15.759905
15.071224
14.469498
13.941121
13.475074
13.061175
12.693545
12.366198
12.07432
11.813884
11.581535
11.374659
11.191878
11.030184
10.887799
10.762886
10.653639
10.558323
10.475509
10.403834
10.34204
10.288991
10.243587
10.204711
10.171891
10.143974
10.120366
10.100495
10.083901
10.070194
10.058855
10.049588
10.042107
10.036166
10.031236
10.025911
10.02048
10.014873
10.009075
10.003049
9.9967927
9.9905527
9.9856222
9.9820052
9.9795409
9.9780771
9.9775491
9.9776249
9.9784733
9.9799883
9.9820081
9.9843933
9.9871898
9.9906683
9.9946628
9.9985054
1612.2206
2035.1728
652.06187
453.91931
265.34135
202.62097
143.87337
110.34092
86.460852
69.91007
57.740717
48.65846
41.733345
36.356461
32.114835
28.723157
25.97718
23.718829
21.84413
20.275386
18.951331
17.825411
16.861191
16.029975
15.309019
14.680279
14.129356
13.644456
13.215814
12.83552
12.497036
12.195275
11.925976
11.685637
11.471294
11.280403
11.110778
10.960607
10.828151
10.711855
10.610243
10.521798
10.444839
10.378181
10.3206
10.271068
10.228917
10.192789
10.161977
10.135835
10.113715
10.095022
10.079481
10.066504
10.055791
10.047036
10.039995
10.034241
10.029088
10.023651
10.018073
10.012317
10.006393
10.000316
9.9941488
9.9882408
9.9840558
9.9810314
9.9790381
9.9779035
9.9775227
9.9779297
9.9789206
9.9805021
9.9825227
9.9848665
9.9876276
9.9910822
9.995049
9.9987331
1591.6588
1903.8658
605.90209
421.50868
247.81418
184.83032
131.62385
100.28063
78.64328
63.690599
52.805047
44.706252
38.545753
33.767881
29.997339
26.97604
24.522865
22.506944
20.827231
19.417088
18.222964
17.20427
16.329315
15.573019
14.915282
14.339936
13.834147
13.388007
12.992845
12.6417
12.328559
12.048929
11.798999
11.575653
11.376269
11.1986
11.040668
10.900693
10.777052
10.668248
10.572974
10.4904
10.418517
10.356253
10.302496
10.256234
10.216556
10.18263
10.153597
10.128897
10.108121
10.090523
10.075715
10.063349
10.053115
10.044776
10.037965
10.032341
10.027027
10.021506
10.015839
10.009981
10.003921
9.9976998
9.9915598
9.9865636
9.9828914
9.9803383
9.9787403
9.9779683
9.9777753
9.9782895
9.9793804
9.9809778
9.9829569
9.9852319
9.9879089
9.9912169
9.9950075
9.9986215
1545.3415
1743.6085
557.80847
383.18374
229.98018
164.91174
118.43759
90.10924
70.952605
57.712843
48.142867
41.030622
35.622512
31.424515
28.104202
25.43387
23.254609
21.453595
19.948956
18.679466
17.599531
16.674223
15.876364
15.184446
14.58114
14.05216
13.585024
13.171772
12.804697
12.478338
12.1867
11.925847
11.69236
11.483444
11.29674
11.130218
10.982096
10.850766
10.734749
10.632667
10.543229
10.465212
10.397434
10.33861
10.287764
10.243928
10.20629
10.174295
10.146886
10.123523
10.103669
10.086874
10.072717
10.060831
10.051017
10.042888
10.036214
10.030616
10.025135
10.019517
10.013782
10.007898
10.001851
9.99568
9.9896831
9.9853206
9.9820899
9.9798901
9.9785662
9.9780321
9.9780515
9.9786829
9.9798333
9.9814282
9.9833664
9.9855984
9.988231
9.9914358
9.9950763
9.9985884
1465.0888
1580.9239
508.76404
343.71248
206.02673
145.61725
105.25575
80.515169
63.84514
52.290514
43.96969
37.786707
33.074222
29.402186
26.483785
24.123904
22.1867
20.575687
19.221141
18.071928
17.088891
16.242225
15.508584
14.869455
14.309924
13.817832
13.383171
12.997646
12.654529
12.348217
12.074068
11.828431
11.608238
11.410959
11.234448
11.076855
10.936535
10.811993
10.701837
10.604756
10.519524
10.445058
10.380648
10.324686
10.276311
10.23461
10.198771
10.168058
10.141808
10.119375
10.100278
10.084088
10.070515
10.059066
10.049485
10.041517
10.034907
10.029275
10.023624
10.017864
10.011995
10.006006
9.9999099
9.9938292
9.988376
9.984431
9.9815664
9.979657
9.9785538
9.9781452
9.9783473
9.9790793
9.9802881
9.981895
9.983817
9.9860235
9.988601
9.9916691
9.995123
9.9985295
1352.7117
1492.5262
462.64906
296.35271
182.19711
127.49577
93.337653
72.019203
57.694401
47.716748
40.503273
35.125653
31.004388
27.771027
25.182788
23.075213
21.333799
19.876674
18.643102
17.590808
16.686059
15.903159
15.221823
14.625833
14.10204
13.639694
13.229899
12.865334
12.540058
12.249594
11.989022
11.755152
11.545175
11.356787
11.188027
11.037202
10.902805
10.783465
10.677901
10.584897
10.503281
10.431908
10.369652
10.315582
10.268751
10.228314
10.193501
10.163648
10.138288
10.116588
10.098111
10.082416
10.069131
10.057935
10.048541
10.040694
10.034136
10.028483
10.022722
10.016852
10.010862
10.004754
9.9985707
9.9925207
9.9875261
9.9838705
9.981266
9.9795651
9.9786286
9.9783292
9.9786323
9.9794344
9.9806809
9.9822961
9.9842128
9.9864141
9.9889628
9.9919266
9.9952136
9.9985002
1219.7549
1249.9891
422.48229
254.10166
160.03422
112.38143
83.474504
65.157729
52.832765
44.191427
37.896673
33.16099
29.498034
26.598208
24.257021
22.335342
20.735844
19.388769
18.243002
17.260278
16.411523
15.67411
15.030123
14.465094
13.967142
13.526386
13.134794
12.785619
12.473296
12.193229
11.941652
11.715427
11.511971
11.329124
11.16505
11.018157
10.887026
10.770362
10.666956
10.57568
10.495511
10.425717
10.364743
10.311751
10.265824
10.226141
10.191946
10.162558
10.137366
10.115835
10.097481
10.081882
10.068672
10.057529
10.048173
10.040353
10.033813
10.028167
10.0224
10.016507
10.010478
10.004313
9.9980604
9.9919815
9.9872103
9.9836997
9.981226
9.9796376
9.9788007
9.9785525
9.9788998
9.9797285
9.9809829
9.9825973
9.9845172
9.9867247
9.9892479
9.9921122
9.9952498
9.9984596
1100.2013
1112.5798
389.82902
223.39767
143.45234
101.26011
76.167777
60.1592
49.356745
41.717124
36.095338
31.825163
28.491505
25.829755
23.663903
21.873392
20.373291
19.102336
18.015381
17.078495
16.265682
15.556637
14.935218
14.388457
13.906231
13.478218
13.097167
12.756704
12.451595
12.177484
11.930782
11.708527
11.508273
11.327974
11.165898
11.020541
10.890561
10.774733
10.671903
10.580976
10.500897
10.430651
10.369277
10.315842
10.269474
10.229362
10.19476
10.164992
10.139446
10.117581
10.098914
10.083024
10.069542
10.058144
10.04855
10.040509
10.033773
10.027997
10.022331
10.016511
10.010585
10.004539
9.9984168
9.9924359
9.9875663
9.9840153
9.9814991
9.9798817
9.9790405
9.9788014
9.9791419
9.9799601
9.9812001
9.9828006
9.9847188
9.9869307
9.9894327
9.9922184
9.9952446
9.9984181
1045.2831
1071.1728
365.58345
206.31702
132.58366
93.706149
70.71951
56.184327
46.393857
39.459975
34.341601
30.435846
27.373489
24.918129
22.912457
21.248335
19.849347
18.660203
17.640068
16.758206
15.991056
15.32021
14.730988
14.21145
13.75171
13.343487
12.97977
12.654651
12.363165
12.101171
11.865233
11.652515
11.460672
11.287752
11.13211
10.992325
10.86714
10.755411
10.656064
10.568079
10.490471
10.422289
10.362617
10.310583
10.26536
10.226178
10.192325
10.163154
10.138081
10.116581
10.098193
10.082508
10.069169
10.057863
10.048318
10.040289
10.033534
10.02771
10.021973
10.016091
10.010106
10.00401
9.9978572
9.9919079
9.9872972
9.9838761
9.9814568
9.9798897
9.9790718
9.9788462
9.9792367
9.9800339
9.9812694
9.9828596
9.9847769
9.9869917
9.9894839
9.9922311
9.9952068
9.9983812
31528.51
79236.349
37091.74
10738.766
1411.7883
611.46532
434.10645
350.51668
290.38042
236.19644
192.43463
159.19786
134.62655
116.38711
102.34614
90.867318
81.154132
72.867472
65.771134
59.650449
54.327643
49.667179
45.564237
41.933472
38.709548
35.827988
33.243444
30.915942
28.813632
26.911378
25.187726
23.623543
22.20213
20.908794
19.732005
18.662059
17.690214
16.808717
16.010496
15.289112
14.638959
14.054467
13.530569
13.062703
12.646383
12.277376
11.951853
11.665784
11.415493
11.197626
11.008915
10.846248
10.706653
10.587602
10.48658
10.401406
10.331916
10.277758
10.238912
10.21782
10.210989
10.209583
10.208297
10.206328
10.204046
10.201488
10.197176
10.190934
10.181757
10.172792
10.156002
10.14462
10.117912
10.104065
10.064173
10.071317
9.9991758
10.018038
9.9857597
10.006561
19973.684
59648.954
24695.672
5104.2854
973.81211
528.87882
397.74473
321.36469
263.97568
212.65684
174.39546
145.60048
124.56205
108.77848
96.314897
85.86058
76.95034
69.339161
62.798452
57.128223
52.174088
47.819944
43.973687
40.559308
37.514913
34.787455
32.335542
30.121781
28.118073
26.301812
24.653197
23.154499
21.79034
20.547204
19.414778
18.384081
17.446956
16.596202
15.825185
15.127885
14.499063
13.933382
13.426087
12.972854
12.569375
12.211619
11.895928
11.618382
11.375477
11.163992
10.980758
10.82277
10.687161
10.571509
10.473385
10.390552
10.322572
10.269736
10.232108
10.212234
10.205995
10.204784
10.203526
10.201612
10.199396
10.19691
10.193342
10.18768
10.179096
10.170373
10.154289
10.143008
10.116276
10.102799
10.06349
10.071367
9.9990358
10.018303
9.9865658
10.00727
28206.988
35584.63
13569.217
2556.2801
837.19779
498.87441
387.67481
306.06583
250.54382
201.07701
166.62597
139.50704
119.99116
105.09498
93.209517
83.165971
74.633263
67.345495
61.0713
55.623006
50.857385
46.665218
42.958603
39.664824
36.723078
34.08616
31.71396
29.570032
27.628339
25.867197
24.267504
22.812217
21.486648
20.277876
19.176289
18.173216
17.260826
16.432235
15.681046
15.001491
14.388545
13.836997
13.342298
12.900267
12.506702
12.157708
11.84974
11.57894
11.341934
11.135585
10.956795
10.802637
10.670334
10.557556
10.461799
10.381018
10.314243
10.262429
10.225735
10.206771
10.200988
10.199945
10.198731
10.196885
10.19474
10.192296
10.189265
10.18422
10.176268
10.16781
10.152461
10.14128
10.114609
10.101485
10.062703
10.071318
9.9989418
10.018596
9.9873392
10.007951
35741.579
24038.097
8370.8364
1548.9725
754.82634
475.56799
375.2605
290.118
239.31081
190.40105
159.59556
133.59169
115.65052
101.55196
90.243005
80.605259
72.438054
65.452131
59.427652
54.188286
49.599912
45.559687
41.983936
38.803248
35.960118
33.406747
31.109281
29.03139
27.14863
25.440023
23.887144
22.473571
21.185243
20.009784
18.938238
17.96217
17.074064
16.267318
15.535746
14.873811
14.276684
13.739258
13.257188
12.826419
12.442846
12.102705
11.802555
11.538597
11.307588
11.106469
10.932212
10.781967
10.653116
10.543189
10.449871
10.371173
10.305806
10.255041
10.219309
10.201167
10.195952
10.195077
10.193911
10.192137
10.190064
10.187675
10.184872
10.180472
10.173186
10.165017
10.150415
10.139362
10.112794
10.10006
10.061817
10.071184
9.9989055
10.01892
9.988118
10.008644
40280.223
20462.224
5890.1205
1228.7552
720.22397
458.07959
365.55927
277.65113
231.13072
182.24626
154.61319
128.99139
112.3736
98.736642
87.857657
78.520219
70.63807
63.883573
58.052893
52.977436
48.529687
44.611217
41.141269
38.052823
35.290341
32.808641
30.571896
28.549698
26.717104
25.053548
23.541117
22.163854
20.90819
19.762168
18.717373
17.765491
16.899279
16.112349
15.398675
14.752912
14.170382
13.64605
13.175756
12.755533
12.381357
12.049582
11.756847
11.499404
11.274129
11.078028
10.908138
10.761691
10.63615
10.529006
10.438066
10.361404
10.297533
10.247757
10.212944
10.195566
10.190911
10.190184
10.189072
10.187374
10.185376
10.183041
10.180242
10.176457
10.169868
10.162016
10.148166
10.13728
10.110848
10.098553
10.060827
10.07097
9.9989251
10.019274
9.9888935
10.009354
43082.367
19089.985
4528.7728
1156.4178
699.69009
439.68215
358.0304
267.8251
224.8753
175.73187
150.7018
125.09611
109.66567
96.308589
85.802677
76.710699
69.06809
62.505488
56.837883
51.901388
47.57366
43.759656
40.38094
37.372431
34.680333
32.260829
30.078142
28.105203
26.317123
24.693804
23.217691
21.873202
20.647181
19.528019
18.507773
17.578179
16.732251
15.963769
15.266836
14.636271
14.067519
13.555597
13.096515
12.68637
12.32121
11.997489
11.711919
11.460789
11.241093
11.049891
10.88429
10.741633
10.619262
10.514855
10.426266
10.35162
10.289358
10.240531
10.206616
10.190052
10.185867
10.185272
10.184219
10.182602
10.180679
10.1784
10.175637
10.17217
10.166303
10.158795
10.145694
10.135022
10.108785
10.097004
10.059744
10.070677
9.9990003
10.019655
9.9896679
10.010051
45309.176
17182.462
3634.316
1105.311
684.30949
427.01771
352.08788
259.93456
220.02797
170.54319
147.58757
121.81662
107.41992
94.213408
84.031256
75.137839
67.695721
61.292537
55.762175
50.943403
46.718078
42.993727
39.693745
36.754602
34.123883
31.759034
29.625588
27.695031
25.946325
24.358943
22.915457
21.600564
20.401449
19.306792
18.309065
17.399995
16.572845
15.821516
15.14022
14.523918
13.968149
13.46797
13.019544
12.619012
12.262483
11.946504
11.667841
11.42282
11.208545
11.022134
10.8608
10.721724
10.602476
10.500766
10.414497
10.341843
10.281283
10.233374
10.200335
10.184566
10.180818
10.180348
10.179358
10.177825
10.175979
10.173756
10.171025
10.16764
10.162489
10.155358
10.142994
10.132577
10.106648
10.09541
10.058587
10.0703
9.9991305
10.020057
9.9904448
10.010802
46954.267
14537.958
3061.5722
1073.783