/*--------------------------------*- C++ -*----------------------------------*\
  =========                 |
  \\      /  F ield         | OpenFOAM: The Open Source CFD Toolbox
   \\    /   O peration     | Website:  https://openfoam.org
    \\  /    A nd           | Version:  12
     \\/     M anipulation  |
\*---------------------------------------------------------------------------*/
FoamFile
{
    format      ascii;
    class       surfaceScalarField;
    location    "0.112";
    object      phi;
}
// * * * * * * * * * * * * * * * * * * * * * * * * * * * * * * * * * * * * * //

dimensions      [1 0 -1 0 0 0 0];

internalField   nonuniform List<scalar> 
31760
(
-0.00064262239
-0.050884211
0.051527075
-0.0016099028
-0.06430555
0.06527319
-0.0025982019
-0.06295761
0.063941742
-0.0036213015
-0.0686119
0.069635519
-0.0046998148
-0.070290124
0.071369097
-0.0058062058
-0.074552113
0.075658949
-0.006983441
-0.077482795
0.078660458
-0.0081991141
-0.081487971
0.082704045
-0.009475763
-0.085112347
0.086389393
-0.010811035
-0.089229765
0.09056542
-0.012202244
-0.093364593
0.094756181
-0.013660932
-0.097776532
0.0992356
-0.015181853
-0.10235295
0.10387425
-0.016773239
-0.10715575
0.10874753
-0.018434707
-0.11217378
0.11383566
-0.020171013
-0.11742367
0.1191604
-0.021984836
-0.12291348
0.12472776
-0.023879392
-0.12865464
0.13054968
-0.025857932
-0.13465815
0.13663721
-0.027923869
-0.14093528
0.14300177
-0.030080646
-0.14749842
0.1496558
-0.032332039
-0.15435955
0.15661159
-0.034681651
-0.16153224
0.16388255
-0.037133403
-0.16903019
0.17148271
-0.039690275
-0.17686793
0.17942563
-0.042356861
-0.18505956
0.18772704
-0.045137063
-0.19362131
0.19640249
-0.048034317
-0.20256977
0.20546809
-0.051052126
-0.21192187
0.21494083
-0.054194544
-0.22169565
0.22483932
-0.057464885
-0.23191003
0.23518174
-0.060866489
-0.24258481
0.24598791
-0.064402175
-0.25374147
0.25727878
-0.068074998
-0.2654011
0.26907568
-0.071886953
-0.27758776
0.28140163
-0.075839709
-0.29032571
0.29428053
-0.079934598
-0.30364063
0.30773776
-0.084172097
-0.3175602
0.32180012
-0.088552018
-0.33211237
0.33649491
-0.093073038
-0.34732857
0.35185241
-0.097733147
-0.36324049
0.36790365
-0.10252891
-0.37988188
0.38468092
-0.10745569
-0.39728871
0.40221904
-0.11250768
-0.41549879
0.42055459
-0.11767713
-0.4345524
0.43972594
-0.12295488
-0.45449107
0.45977322
-0.12832936
-0.47535962
0.48073881
-0.13378765
-0.49720427
0.50266759
-0.13931426
-0.52007495
0.52560692
-0.14489087
-0.54402325
0.54960557
-0.15049647
-0.56910336
0.57471499
-0.15610758
-0.59537301
0.60099048
-0.16169684
-0.62289221
0.62848814
-0.16723332
-0.65172412
0.65726757
-0.17268253
-0.68193478
0.68739121
-0.17800455
-0.71359414
0.71892359
-0.18315526
-0.74677457
0.75193287
-0.18808519
-0.78155194
0.78648954
-0.19273788
-0.81800606
0.82266641
-0.19705107
-0.85622
0.86054073
-0.20095463
-0.89628071
0.90019155
-0.20437063
-0.93827925
0.94170213
-0.20721176
-0.98231184
0.98515925
-0.20938074
-1.0284795
1.0306539
-0.21076897
-1.0768864
1.0782791
-0.21125576
-1.1276423
1.1281321
-0.21070509
-1.1808591
1.1803098
-0.2089715
-1.2366503
1.2349163
-0.20588787
-1.2951373
1.2920514
-0.20126662
-1.3564412
1.3518158
-0.1949049
-1.4206844
1.4143169
-0.18658297
-1.4879906
1.4796618
-0.17604877
-1.5584937
1.5479525
-0.16303737
-1.6323275
1.6193102
-0.14719581
-1.7096592
1.6938143
-0.12846301
-1.790578
1.7718459
-0.10556857
-1.8751301
1.8522366
-0.080225294
-1.9644393
1.9391049
-0.04858241
-2.0552257
2.023583
-2.1554907
2.1207905
-0.00063664574
-0.050247616
-0.0015075235
-0.063434424
-0.0024114331
-0.06205168
-0.0033730399
-0.067650194
-0.0043461295
-0.069316949
-0.0053966145
-0.073501496
-0.0064627492
-0.076416528
-0.0076091022
-0.080341454
-0.0087817004
-0.083939573
-0.010028917
-0.087982349
-0.0113195
-0.092073789
-0.012677816
-0.096417972
-0.014093937
-0.10093656
-0.015576923
-0.10567247
-0.017126976
-0.11062341
-0.01874826
-0.11580203
-0.020442973
-0.12121838
-0.022214903
-0.12688228
-0.02406728
-0.13280531
-0.026003708
-0.13899835
-0.028027859
-0.14547372
-0.03014301
-0.1522438
-0.032353282
-0.15932131
-0.034662387
-0.16672037
-0.037075142
-0.1744544
-0.039594382
-0.18253947
-0.042224821
-0.19098994
-0.044970221
-0.19982336
-0.047834885
-0.20905609
-0.050822414
-0.2187069
-0.053936912
-0.2287942
-0.057181741
-0.23933853
-0.060560232
-0.2503614
-0.064075406
-0.2618842
-0.067729718
-0.27393157
-0.071525526
-0.28652786
-0.075464032
-0.2996999
-0.079546776
-0.31347505
-0.083773138
-0.3278834
-0.088142747
-0.34295613
-0.092654035
-0.35872614
-0.097303937
-0.37522866
-0.10208812
-0.39250094
-0.10700155
-0.4105815
-0.11203719
-0.4295126
-0.11718649
-0.44933729
-0.12243927
-0.47010203
-0.12778294
-0.49185546
-0.13320323
-0.51464915
-0.13868363
-0.538537
-0.14420479
-0.56357597
-0.14974471
-0.58982652
-0.15527819
-0.61735181
-0.16077696
-0.64621811
-0.16620894
-0.67649527
-0.17153783
-0.70825748
-0.17672311
-0.74158132
-0.18171918
-0.7765478
-0.18647464
-0.81324252
-0.19093254
-0.85175412
-0.19502874
-0.89217676
-0.19869182
-0.93460881
-0.20184167
-0.97915523
-0.20439018
-1.025925
-0.2062379
-1.0750339
-0.20727567
-1.126601
-0.20737806
-1.1807548
-0.20640986
-1.2376185
-0.20422006
-1.2973291
-0.20063942
-1.3600257
-0.19548326
-1.425846
-0.18854518
-1.4949352
-0.1796
-1.5674456
-0.16839148
-1.6435417
-0.15465968
-1.7233941
-0.13811863
-1.807119
-0.11822589
-1.8950204
-0.095340458
-1.9873164
-0.067526942
-2.0830357
-2.1865932
-0.00057583911
-0.049671901
-0.0013886365
-0.06262159
-0.0021997414
-0.061240513
-0.0031057612
-0.066744124
-0.0040013277
-0.068421312
-0.0049831699
-0.072519563
-0.0059668025
-0.075432784
-0.0070339345
-0.079274192
-0.0081205574
-0.082852798
-0.0092800636
-0.086822672
-0.010479643
-0.090874015
-0.011743325
-0.095154076
-0.013062163
-0.099617477
-0.01444443
-0.10428994
-0.015890812
-0.10917673
-0.017404919
-0.11428761
-0.018990107
-0.11963284
-0.020649345
-0.12522266
-0.022386914
-0.13106731
-0.024205656
-0.13717914
-0.026110069
-0.1435688
-0.028103695
-0.15024961
-0.030190424
-0.15723397
-0.032375059
-0.16453506
-0.034660884
-0.17216783
-0.037053128
-0.18014641
-0.039555255
-0.18848691
-0.042172352
-0.19720527
-0.044907993
-0.20631937
-0.047767346
-0.21584636
-0.050753541
-0.22580671
-0.053870927
-0.23621972
-0.057123333
-0.24710743
-0.06051347
-0.25849236
-0.064044951
-0.27039824
-0.067719972
-0.28285081
-0.0715408
-0.29587687
-0.07550798
-0.30950547
-0.079622561
-0.32376621
-0.083884063
-0.33869179
-0.088290737
-0.35431639
-0.092840508
-0.37067555
-0.097530044
-0.38780778
-0.10235394
-0.40575369
-0.10730625
-0.42455606
-0.11237906
-0.44425992
-0.11756322
-0.46491297
-0.12284688
-0.48656653
-0.12821759
-0.5092728
-0.1336598
-0.53308877
-0.13915543
-0.55807394
-0.14468519
-0.58428998
-0.15022589
-0.61180396
-0.15575174
-0.64068478
-0.16123364
-0.67100556
-0.16663877
-0.70284428
-0.17193058
-0.73628122
-0.17706696
-0.771403
-0.18200239
-0.80829862
-0.18668436
-0.84706375
-0.19105536
-0.88779758
-0.1950503
-0.9306061
-0.19859754
-0.97560082
-0.20161626
-1.0229
-0.20401667
-1.0726283
-0.20569786
-1.124916
-0.20655189
-1.1798986
-0.20645285
-1.2377173
-0.20526111
-1.2985225
-0.20282815
-1.3624622
-0.19898035
-1.429699
-0.19353623
-1.5003856
-0.18628504
-1.5747032
-0.1770016
-1.6528306
-0.16544326
-1.7349555
-0.1513118
-1.8212507
-0.13430338
-1.9120263
-0.11425071
-2.0073645
-0.090162079
-2.1071256
-2.2139518
-0.00051957966
-0.049152381
-0.0012716735
-0.061869406
-0.002008887
-0.060503515
-0.0028621671
-0.065890735
-0.0036916877
-0.06759169
-0.0046067446
-0.071604383
-0.0055134716
-0.074525932
-0.0065070995
-0.078280423
-0.0075135416
-0.081846203
-0.0085920992
-0.085743948
-0.0097075778
-0.089758352
-0.01088425
-0.093977204
-0.012114171
-0.098387333
-0.013404633
-0.10299923
-0.014757327
-0.10782377
-0.016176046
-0.11286859
-0.017664099
-0.11814446
-0.019224888
-0.12366151
-0.020861899
-0.1294299
-0.022579504
-0.1354611
-0.024380886
-0.14176693
-0.026271132
-0.14835883
-0.028254167
-0.15525034
-0.030334002
-0.16245457
-0.032515812
-0.1699853
-0.034803573
-0.17785785
-0.037202347
-0.18608726
-0.039716498
-0.19469016
-0.042351503
-0.2036833
-0.045110743
-0.21308596
-0.047999372
-0.2229168
-0.051021776
-0.23319591
-0.054181671
-0.243946
-0.05748296
-0.25518938
-0.060929074
-0.26695027
-0.064522488
-0.27925537
-0.068265439
-0.2921317
-0.072159866
-0.30560862
-0.076206142
-0.31971729
-0.080404342
-0.33449071
-0.084753895
-0.34996371
-0.089252164
-0.36617388
-0.09389639
-0.38315987
-0.098682262
-0.40096382
-0.10360391
-0.41963009
-0.10865491
-0.43920426
-0.11382566
-0.4597372
-0.1191073
-0.48127948
-0.12448716
-0.50388716
-0.12995171
-0.52761804
-0.13548541
-0.55253365
-0.14106977
-0.57869863
-0.14668466
-0.60618168
-0.15230736
-0.63505434
-0.15791087
-0.66539396
-0.16346691
-0.69727985
-0.16894205
-0.73079744
-0.17429944
-0.76603681
-0.17949788
-0.80309132
-0.18449084
-0.84206196
-0.18922655
-0.88305325
-0.19364704
-0.92617737
-0.19768803
-0.97155218
-0.20127723
-1.019304
-0.20433432
-1.0695655
-0.20677166
-1.1224744
-0.20848426
-1.1781835
-0.20936651
-1.2368344
-0.20929009
-1.2986002
-0.20812246
-1.3636331
-0.20571044
-1.4321159
-0.2018783
-1.5042236
-0.19644956
-1.5801382
-0.18921354
-1.6600719
-0.17995078
-1.7442215
-0.16839551
-1.8328069
-0.15429946
-1.9261205
-0.13737251
-2.0242891
-0.11698722
-2.1275153
-2.2374054
-0.00046396538
-0.048688485
-0.0011684777
-0.061164813
-0.0018290077
-0.05984287
-0.0026255967
-0.065094059
-0.0033808208
-0.066836399
-0.00423771
-0.0707474
-0.0050774364
-0.073686108
-0.0060051994
-0.077352545
-0.006940154
-0.080911119
-0.0079453822
-0.084738577
-0.0089863238
-0.088717247
-0.010085977
-0.092877372
-0.011238521
-0.097234585
-0.012450157
-0.10178738
-0.013723277
-0.10655039
-0.015061004
-0.11153059
-0.016467103
-0.11673805
-0.017945372
-0.1221829
-0.019499514
-0.12787538
-0.021133585
-0.1338266
-0.022852311
-0.14004773
-0.024659066
-0.14655156
-0.026559383
-0.15334944
-0.028557876
-0.16045544
-0.030659088
-0.16788338
-0.032868328
-0.17564783
-0.035190831
-0.1837639
-0.03763157
-0.19224847
-0.040195504
-0.20111831
-0.042887873
-0.21039243
-0.045713592
-0.2200898
-0.048677177
-0.23023092
-0.051783027
-0.2408386
-0.055035547
-0.25193517
-0.058437945
-0.26354601
-0.061993359
-0.27569791
-0.065704346
-0.28841847
-0.069572866
-0.30173765
-0.073599729
-0.31568775
-0.077785387
-0.33030213
-0.082128857
-0.34561705
-0.086629028
-0.36167024
-0.091282678
-0.37850245
-0.096086192
-0.39615622
-0.10103517
-0.41467669
-0.10612271
-0.43411194
-0.11134164
-0.45451311
-0.11668292
-0.47593266
-0.12213589
-0.49842823
-0.12768908
-0.52205848
-0.13332807
-0.54688786
-0.13903748
-0.572982
-0.14479933
-0.60041221
-0.15059331
-0.62925233
-0.15639711
-0.65958178
-0.16218492
-0.69148334
-0.16792747
-0.72504592
-0.17359332
-0.76036179
-0.17914566
-0.79752969
-0.18454434
-0.83665403
-0.18974336
-0.87784514
-0.19469202
-0.92121998
-0.19933319
-0.96690286
-0.20360367
-1.0150262
-0.20743266
-1.0657304
-0.21073984
-1.1191626
-0.21344037
-1.17548
-0.21542892
-1.2348447
-0.21660519
-1.2974248
-0.2168359
-1.3634051
-0.21599303
-1.4329632
-0.21392321
-1.5062991
-0.2104606
-1.5836068
-0.2054236
-1.6651142
-0.19860805
-1.7510409
-0.18978022
-1.8416364
-0.17872304
-1.9371774
-0.16513797
-2.0378747
-0.14856524
-2.1440968
-2.2567738
-0.00041411424
-0.048274439
-0.0010775567
-0.060501307
-0.0016751179
-0.059245291
-0.0024134469
-0.064355661
-0.0030923656
-0.066157416
-0.0038975807
-0.069942101
-0.004670285
-0.072913312
-0.0055381817
-0.076484542
-0.0064093938
-0.080039786
-0.0073526781
-0.083795159
-0.0083330708
-0.0877367
-0.0093701325
-0.091840142
-0.010460286
-0.096144237
-0.011608214
-0.10063924
-0.012816743
-0.10534162
-0.01408975
-0.11025731
-0.015430741
-0.11539676
-0.016843608
-0.1207697
-0.018332856
-0.12638575
-0.019902496
-0.13225655
-0.021557632
-0.13839213
-0.023303097
-0.14480558
-0.025144045
-0.15150792
-0.0270856
-0.15851325
-0.029133393
-0.16583488
-0.031293254
-0.17348719
-0.033569937
-0.18148635
-0.035969767
-0.18984768
-0.038498065
-0.19858896
-0.041160233
-0.20772909
-0.043961883
-0.21728686
-0.04690762
-0.22728376
-0.050002864
-0.23774178
-0.053250947
-0.24868535
-0.05665641
-0.26013864
-0.060222628
-0.27212961
-0.063951848
-0.28468696
-0.06784611
-0.29784088
-0.071907021
-0.3116241
-0.076134715
-0.32607144
-0.080529159
-0.34121934
-0.085088434
-0.35710741
-0.089810895
-0.37377612
-0.094693387
-0.39126953
-0.099730937
-0.40963459
-0.10491856
-0.4289194
-0.1102506
-0.44917576
-0.1157183
-0.47045924
-0.12131381
-0.49282658
-0.12702583
-0.51633988
-0.13284383
-0.54106285
-0.13875391
-0.56706446
-0.14474112
-0.59441712
-0.15078843
-0.62319673
-0.15687655
-0.65348498
-0.16298373
-0.68536712
-0.16908625
-0.71893407
-0.17515596
-0.75428251
-0.18116229
-0.79151367
-0.18707003
-0.83073657
-0.19284083
-0.87206477
-0.19843053
-0.91562104
-0.20379026
-0.96153445
-0.20886498
-1.0099437
-0.21359319
-1.0609955
-0.21790602
-1.1148445
-0.22172663
-1.1716559
-0.22497141
-1.2315983
-0.22753881
-1.2948578
-0.22932811
-1.3616182
-0.230215
-1.4320803
-0.23006852
-1.5064508
-0.22874265
-1.5849385
-0.22607471
-1.6677877
-0.22188332
-1.7552367
-0.21596673
-1.8475559
-0.20811944
-1.9450263
-0.1980873
-2.0479107
-0.18549347
-2.1567038
-2.2718518
-0.0003714972
-0.047903004
-0.0010039253
-0.059868819
-0.0015465453
-0.058702649
-0.0022373405
-0.063664802
-0.0028567211
-0.065537976
-0.0036137491
-0.069184993
-0.004330253
-0.072196718
-0.0051366338
-0.075678061
-0.0059658705
-0.079210433
-0.0068626983
-0.082898203
-0.0077967132
-0.086802536
-0.0087838144
-0.090852877
-0.0098236399
-0.095104223
-0.01092025
-0.099542418
-0.0120777
-0.10418393
-0.013299495
-0.10903526
-0.014590498
-0.11410545
-0.015954822
-0.11940505
-0.017397275
-0.12494293
-0.01892327
-0.13073014
-0.02053742
-0.13677752
-0.02224595
-0.14309653
-0.024054085
-0.14969921
-0.025967538
-0.15659916
-0.027992678
-0.16380903
-0.030135166
-0.17134391
-0.032401908
-0.17921873
-0.034798486
-0.18745013
-0.037330656
-0.19605571
-0.04000505
-0.2050535
-0.042826703
-0.21446388
-0.045801236
-0.22430777
-0.048933359
-0.23460805
-0.052228231
-0.24538871
-0.055688948
-0.25667597
-0.059319227
-0.26849718
-0.06312223
-0.2808816
-0.067099694
-0.29386083
-0.071252798
-0.30746816
-0.075582246
-0.3217389
-0.080088057
-0.33671015
-0.084769039
-0.35242275
-0.089623699
-0.36891746
-0.094648945
-0.38623995
-0.099841927
-0.40443691
-0.10519817
-0.42355807
-0.11071228
-0.44365616
-0.11637883
-0.46478678
-0.12218992
-0.48700915
-0.12813819
-0.51038482
-0.13421367
-0.53498012
-0.14040607
-0.56086436
-0.14670376
-0.58811128
-0.15309263
-0.61679926
-0.15955759
-0.64701103
-0.16608078
-0.67883456
-0.17264288
-0.71236226
-0.17922137
-0.74769406
-0.18579078
-0.78493414
-0.1923229
-0.82419429
-0.19878487
-0.86559273
-0.20514067
-0.90925548
-0.21134898
-0.95531692
-0.21736393
-1.0039203
-0.22313389
-1.0552183
-0.22860022
-1.1093724
-0.23369794
-1.1665541
-0.23835492
-1.2269393
-0.24248645
-1.2907262
-0.24600059
-1.3581059
-0.24879813
-1.4292864
-0.25076098
-1.5044929
-0.25176041
-1.5839448
-0.25166204
-1.6678918
-0.25030098
-1.756603
-0.24750001
-1.8503613
-0.2430829
-1.9494475
-0.23682282
-2.0541787
-0.22842653
-2.1651185
-2.2823937
-0.00032812839
-0.047574933
-0.00093476668
-0.059262125
-0.001427899
-0.058209494
-0.0020726069
-0.063020034
-0.002647634
-0.064962892
-0.0033764455
-0.068456105
-0.0040596504
-0.071513429
-0.0048509541
-0.074886661
-0.005640285
-0.078420987
-0.0064906066
-0.082047755
-0.0073819405
-0.085911054
-0.0083257281
-0.089908926
-0.0093244817
-0.09410528
-0.010381652
-0.09848504
-0.01150168
-0.10306367
-0.01268916
-0.10784751
-0.013948051
-0.11284626
-0.015284348
-0.11806841
-0.016702883
-0.12352402
-0.018209347
-0.12922326
-0.019809585
-0.13517681
-0.021509616
-0.14139598
-0.023315755
-0.14789248
-0.025235261
-0.154679
-0.027273618
-0.16176994
-0.029438327
-0.16917839
-0.031735544
-0.1769206
-0.034172118
-0.18501255
-0.036754575
-0.19347213
-0.039488994
-0.20231784
-0.042381125
-0.21157038
-0.045436732
-0.22125065
-0.048660964
-0.23138214
-0.052057898
-0.24198993
-0.055631803
-0.25310004
-0.059386213
-0.26474053
-0.063323347
-0.27694201
-0.067445511
-0.28973598
-0.071754092
-0.30315664
-0.076249722
-0.31724005
-0.080932311
-0.33202406
-0.085801928
-0.34754932
-0.090856571
-0.36385868
-0.096094762
-0.38099726
-0.1015141
-0.3990127
-0.10711134
-0.41795556
-0.11288297
-0.43787884
-0.11882478
-0.45883885
-0.12493164
-0.48089572
-0.13119782
-0.50411161
-0.13761701
-0.52855343
-0.14418113
-0.55429226
-0.15088182
-0.58140213
-0.15770901
-0.60996317
-0.16465159
-0.64005912
-0.17169673
-0.67177968
-0.17882914
-0.70521977
-0.18603199
-0.74048085
-0.19328594
-0.77766962
-0.20056868
-0.8169009
-0.20785485
-0.858296
-0.21511561
-0.9019844
-0.222318
-0.94810475
-0.22942536
-0.996804
-0.23639523
-1.0482406
-0.24318091
-1.1025803
-0.24972855
-1.1600018
-0.25597659
-1.2206885
-0.26185856
-1.2848436
-0.26730079
-1.352665
-0.27220784
-1.4243825
-0.27649113
-1.5002144
-0.28003669
-1.5804049
-0.28272906
-1.6652056
-0.28443213
-1.7549061
-0.28499542
-1.849804
-0.28425815
-1.9501916
-0.28202072
-2.0564282
-0.27808161
-2.1690816
-2.2881072
-0.00028594771
-0.047289036
-0.000873236
-0.058674784
-0.0013253431
-0.057757362
-0.0019464909
-0.062398827
-0.0024985364
-0.064410789
-0.0032057848
-0.067748783
-0.0038610209
-0.070858107
-0.0046275312
-0.074120047
-0.00538637
-0.077662032
-0.0062040492
-0.081229947
-0.0070680681
-0.085046885
-0.0079851449
-0.088991684
-0.008960141
-0.093130092
-0.00999649
-0.097448478
-0.011099259
-0.10196065
-0.012273289
-0.10667321
-0.013524242
-0.111595
-0.014857542
-0.11673477
-0.016279199
-0.12210197
-0.017795998
-0.12770602
-0.019413978
-0.13355833
-0.021140682
-0.13966872
-0.022982484
-0.14605006
-0.024946789
-0.15271401
-0.027041179
-0.15967478
-0.029272449
-0.16694627
-0.031648133
-0.17454397
-0.034175105
-0.18248452
-0.036859806
-0.19078626
-0.039709046
-0.19946731
-0.042728888
-0.2085491
-0.045924394
-0.21805355
-0.049300449
-0.22800434
-0.052861867
-0.23842658
-0.056612339
-0.24934744
-0.06055465
-0.26079589
-0.064691719
-0.27280238
-0.069025458
-0.28539943
-0.073556967
-0.29862206
-0.078287387
-0.31250628
-0.083216791
-0.327091
-0.088344929
-0.3424172
-0.093671607
-0.35852768
-0.09919625
-0.37546794
-0.10491726
-0.39328663
-0.11083328
-0.41203407
-0.11694233
-0.43176389
-0.12324229
-0.45253255
-0.12973073
-0.47440047
-0.13640418
-0.49743087
-0.14325941
-0.52169043
-0.15029218
-0.54725122
-0.15749729
-0.57418828
-0.16486924
-0.602582
-0.17240084
-0.63251784
-0.18008411
-0.66408631
-0.18790883
-0.69738459
-0.1958644
-0.73251449
-0.203937
-0.76958602
-0.21211093
-0.80871586
-0.22036838
-0.85002746
-0.22868826
-0.89365368
-0.23704643
-0.93973622
-0.24541455
-0.98842629
-0.25376172
-1.0398849
-0.26205106
-1.094284
-0.27024223
-1.1518054
-0.27828565
-1.2126418
-0.28612974
-1.2769983
-0.29370967
-1.345086
-0.30095987
-1.4171351
-0.30779995
-1.4933788
-0.31414249
-1.5740681
-0.31988627
-1.6594684
-0.32492214
-1.7498775
-0.32912722
-1.8456066
-0.33236155
-1.9469669
-0.33445949
-2.0543468
-0.33526463
-2.1683063
-2.288671
-0.00024753541
-0.047041544
-0.00082354295
-0.058098723
-0.0012455007
-0.057335377
-0.0018919059
-0.061752361
-0.0024288289
-0.063873805
-0.0031107034
-0.067066829
-0.003742868
-0.070225852
-0.0044672198
-0.073395598
-0.0052125984
-0.076916533
-0.0060145272
-0.080427885
-0.0068685358
-0.084192719
-0.0077774609
-0.088082586
-0.0087484213
-0.092158929
-0.0097853607
-0.096411315
-0.010894031
-0.10085172
-0.012080205
-0.10548675
-0.013350119
-0.11032476
-0.01471047
-0.11537405
-0.016168047
-0.12064398
-0.017729575
-0.12614403
-0.019403673
-0.13188371
-0.021196802
-0.13787501
-0.023117823
-0.14412839
-0.025174022
-0.15065709
-0.027373218
-0.15747477
-0.029723502
-0.16459508
-0.03223226
-0.1720342
-0.034906453
-0.17980921
-0.037753462
-0.18793801
-0.04077925
-0.19644014
-0.043989388
-0.20533744
-0.047389514
-0.21465175
-0.050984042
-0.22440796
-0.054777161
-0.23463142
-0.058772151
-0.2453502
-0.062971828
-0.25659375
-0.067378436
-0.26839308
-0.071993695
-0.28078122
-0.076819369
-0.29379317
-0.081856158
-0.30746598
-0.087104997
-0.32183834
-0.092566676
-0.33695138
-0.098241684
-0.35284818
-0.10413004
-0.36957471
-0.11023258
-0.38717882
-0.11654982
-0.40571115
-0.12308173
-0.42522587
-0.12982872
-0.44577897
-0.136791
-0.46743113
-0.14396877
-0.49024555
-0.15136128
-0.51428987
-0.15896875
-0.53963519
-0.16678971
-0.56635826
-0.17482265
-0.5945395
-0.18306556
-0.6242649
-0.19151511
-0.65562628
-0.20016742
-0.68872141
-0.20901673
-0.72365396
-0.21805642
-0.76053487
-0.22727794
-0.79948275
-0.23667009
-0.84062372
-0.24622049
-0.8840919
-0.25591362
-0.93003216
-0.26573162
-0.97859812
-0.27565277
-1.0299547
-0.28565215
-1.084277
-0.29570033
-1.1417513
-0.30576442
-1.2025738
-0.31580326
-1.2669577
-0.32577266
-1.3351169
-0.3356228
-1.4072874
-0.34528625
-1.4837196
-0.35469976
-1.5646604
-0.36378585
-1.6503894
-0.37246032
-1.7412112
-0.38062081
-1.8374554
-0.38816151
-1.9394384
-0.39493841
-2.0475906
-0.40084872
-2.162431
-2.2837323
-0.00021359597
-0.046827983
-0.000790229
-0.057522034
-0.0011892611
-0.056936312
-0.0018520303
-0.061089525
-0.0023667082
-0.063359061
-0.0030395931
-0.06639386
-0.0036651521
-0.069600196
-0.0043847041
-0.072675936
-0.005132517
-0.07616859
-0.0059345903
-0.07962567
-0.0067961126
-0.083331029
-0.0077172355
-0.087161278
-0.0087064228
-0.091169526
-0.0097685033
-0.095348996
-0.010910141
-0.099709811
-0.01213806
-0.10425852
-0.013459432
-0.10900304
-0.014881598
-0.1139515
-0.016412981
-0.11911215
-0.018061509
-0.12449501
-0.019835441
-0.13010922
-0.021743691
-0.13596614
-0.023794385
-0.142077
-0.025996229
-0.14845446
-0.028357921
-0.15511221
-0.030886854
-0.16206518
-0.033590847
-0.16932913
-0.03647718
-0.17692168
-0.039552594
-0.18486127
-0.042822311
-0.19316896
-0.046292747
-0.20186538
-0.049967746
-0.21097496
-0.053852071
-0.22052166
-0.05794849
-0.23053284
-0.062259811
-0.24103651
-0.066788958
-0.252062
-0.071537846
-0.26364135
-0.076507997
-0.27580797
-0.081701142
-0.28859664
-0.087119081
-0.30204437
-0.092763318
-0.31619011
-0.098635639
-0.33107472
-0.1047377
-0.34674143
-0.11107207
-0.36323526
-0.11764109
-0.38060432
-0.1244471
-0.39889923
-0.13149372
-0.41817289
-0.1387834
-0.43848245
-0.14632013
-0.45988709
-0.15410718
-0.48245067
-0.16214835
-0.50624035
-0.17044651
-0.53132817
-0.17900543
-0.55778996
-0.18782838
-0.58570665
-0.19691782
-0.61516507
-0.20627611
-0.64625714
-0.21590521
-0.67908104
-0.22580566
-0.71374188
-0.23597731
-0.75035132
-0.24641853
-0.78902945
-0.25712738
-0.82990278
-0.26809873
-0.87310864
-0.27932667
-0.91879274
-0.29080306
-0.96711098
-0.30251731
-1.0182308
-0.31445621
-1.0723298
-0.32660359
-1.1295975
-0.33893757
-1.1902354
-0.35143684
-1.2544561
-0.36407104
-1.3224827
-0.37680138
-1.3945592
-0.38959479
-1.4709302
-0.40239561
-1.5518653
-0.41515026
-1.6376422
-0.42779708
-1.7285734
-0.44027453
-1.8249887
-0.45248733
-1.9272403
-0.46433239
-2.0357696
-0.47574758
-2.1510549
-2.2728713
-0.00019225495
-0.046635752
-0.00078821158
-0.056926018
-0.0011833929
-0.05654109
-0.0018377963
-0.06043505
-0.0023452147
-0.062851567
-0.0030236958
-0.065715287
-0.003664034
-0.068959751
-0.0043899082
-0.071949943
-0.0051591458
-0.075399212
-0.0059823262
-0.078802335
-0.0068730611
-0.082440111
-0.0078305864
-0.086203552
-0.0088644536
-0.090135424
-0.0099807381
-0.094232451
-0.011187148
-0.098503101
-0.012491579
-0.10295376
-0.013902466
-0.10759177
-0.015428645
-0.11242489
-0.017078737
-0.11746158
-0.018862687
-0.12271052
-0.020789287
-0.12818202
-0.022868192
-0.13388656
-0.025108205
-0.13983623
-0.027518408
-0.14604342
-0.030107293
-0.15252238
-0.032882898
-0.15928853
-0.035852202
-0.16635867
-0.039022305
-0.17375029
-0.042398631
-0.18148352
-0.04598714
-0.18957888
-0.049791605
-0.19805919
-0.053816138
-0.20694853
-0.058064015
-0.21627169
-0.062537786
-0.22605677
-0.067239891
-0.2363319
-0.072172536
-0.24712662
-0.077337384
-0.25847351
-0.082736868
-0.27040523
-0.088372904
-0.28295706
-0.094248195
-0.29616523
-0.10036561
-0.31006852
-0.1067285
-0.32470731
-0.11334099
-0.34012404
-0.12020732
-0.35636365
-0.12733232
-0.37347363
-0.13472189
-0.39150352
-0.14238182
-0.41050636
-0.15031872
-0.43053847
-0.15853927
-0.45165895
-0.16705093
-0.47393091
-0.17586117
-0.49742147
-0.1849784
-0.52220177
-0.19441028
-0.54834837
-0.20416507
-0.57594161
-0.21425047
-0.60506891
-0.22467519
-0.63582118
-0.2354463
-0.66829825
-0.24657136
-0.70260476
-0.25805739
-0.73885294
-0.26991084
-0.77716347
-0.28213685
-0.81766419
-0.29474017
-0.86049292
-0.30772421
-0.90579671
-0.3210911
-0.95373283
-0.33484176
-1.0044699
-0.34897496
-1.0581878
-0.36348708
-1.1150783
-0.37837173
-1.1753458
-0.39362344
-1.2392017
-0.40922399
-1.3068816
-0.42516228
-1.3786226
-0.44141132
-1.454685
-0.45794682
-1.5353357
-0.4747391
-1.6208578
-0.49174858
-1.7115738
-0.50893528
-1.807814
-0.52623793
-1.9099543
-0.54359327
-2.0184409
-0.56096422
-2.1337256
-2.2556217
-0.00017351373
-0.046462254
-0.0007979573
-0.05630151
-0.001199481
-0.056139519
-0.0018652835
-0.05976917
-0.0023852975
-0.062331468
-0.0030780662
-0.065022418
-0.0037485663
-0.068289133
-0.004497803
-0.071200576
-0.0053068313
-0.074590029
-0.0061736205
-0.077935376
-0.0071177438
-0.081495787
-0.0081391754
-0.085181899
-0.0092482215
-0.089026121
-0.010452606
-0.093027781
-0.011761369
-0.097194009
-0.013183849
-0.10153091
-0.014729788
-0.10604541
-0.016409303
-0.11074491
-0.018232663
-0.11563769
-0.020209806
-0.12073279
-0.022351142
-0.12604002
-0.024666274
-0.13157069
-0.027164393
-0.13733728
-0.029854683
-0.14335221
-0.032744912
-0.14963113
-0.035842359
-0.15618995
-0.039154213
-0.16304556
-0.042685318
-0.1702178
-0.046440874
-0.17772644
-0.050424778
-0.18559329
-0.05464042
-0.19384169
-0.059090817
-0.2024961
-0.063777313
-0.21158297
-0.068703126
-0.22112852
-0.073869683
-0.23116268
-0.079278931
-0.24171447
-0.084933768
-0.25281552
-0.090836481
-0.26449909
-0.096991272
-0.27679855
-0.10340194
-0.28975053
-0.11007314
-0.30339295
-0.11701046
-0.31776529
-0.12422061
-0.3329088
-0.13171053
-0.34886824
-0.13948829
-0.36568995
-0.14756286
-0.38342259
-0.15594357
-0.40211881
-0.16464059
-0.42183412
-0.17366508
-0.44262661
-0.18302823
-0.46455937
-0.19274241
-0.48769836
-0.20281946
-0.51211524
-0.21327324
-0.53788455
-0.22411655
-0.56508771
-0.23536369
-0.59381066
-0.24702801
-0.62414525
-0.25912431
-0.65618988
-0.2716666
-0.69005001
-0.28466902
-0.72583773
-0.29814656
-0.76367296
-0.31211258
-0.80368513
-0.32658122
-0.8460114
-0.34156616
-0.89079929
-0.35708041
-0.93820681
-0.37313603
-0.98840361
-0.38974488
-1.0415697
-0.40691758
-1.0978982
-0.42466393
-1.157594
-0.44298836
-1.2208741
-0.46189761
-1.2879716
-0.48139341
-1.3591283
-0.50147621
-1.4346058
-0.52213922
-1.5146784
-0.54336957
-1.5996354
-0.56516542
-1.6897881
-0.5875056
-1.7854867
-0.61037037
-1.8871075
-0.6337226
-1.995117
-0.65755732
-2.109934
-2.2314633
-0.00015937586
-0.046302882
-0.00082571353
-0.055635101
-0.0012406764
-0.055724498
-0.0019362956
-0.059073464
-0.0024863305
-0.061781337
-0.0032076332
-0.064301002
-0.0039287583
-0.067567876
-0.004722466
-0.070406722
-0.0055942182
-0.073718103
-0.0065317277
-0.076997677
-0.0075585223
-0.08046877
-0.0086767606
-0.084063415
-0.0098978237
-0.087804772
-0.011231511
-0.091693777
-0.012688398
-0.095736758
-0.014279577
-0.099939329
-0.016016185
-0.10430834
-0.017909469
-0.10885111
-0.019970551
-0.11357603
-0.02221024
-0.11849245
-0.024638636
-0.1236109
-0.027265667
-0.12894285
-0.030100502
-0.13450154
-0.033150656
-0.14030105
-0.036423629
-0.14635705
-0.039925367
-0.15268698
-0.043660714
-0.15930886
-0.047633983
-0.16624304
-0.051848294
-0.17351048
-0.056305982
-0.1811338
-0.061008802
-0.18913689
-0.065958844
-0.19754389
-0.071157568
-0.20638189
-0.076606742
-0.21567678
-0.082308865
-0.22545776
-0.088266627
-0.23575366
-0.094483517
-0.24659533
-0.10096465
-0.25801437
-0.10771443
-0.27004489
-0.11473995
-0.28272082
-0.12204813
-0.29608023
-0.12964834
-0.31016018
-0.13754905
-0.32500281
-0.14576109
-0.34065051
-0.15429646
-0.35714845
-0.16316685
-0.37454561
-0.17238594
-0.39289264
-0.18196821
-0.41224427
-0.19192837
-0.43265834
-0.20228277
-0.45419632
-0.21304767
-0.47692423
-0.22424138
-0.50091174
-0.23588133
-0.52623424
-0.24798666
-0.55297146
-0.26057747
-0.58120838
-0.27367388
-0.61103685
-0.28729662
-0.64255468
-0.30146801
-0.67586574
-0.31621001
-0.71108253
-0.33154484
-0.74832471
-0.34749598
-0.78772052
-0.36408736
-0.82940669
-0.38134291
-0.87353082
-0.39928655
-0.92025098
-0.41794399
-0.96973506
-0.43733978
-1.0221643
-0.4574985
-1.0777316
-0.47844454
-1.1366423
-0.50020051
-1.1991148
-0.52279242
-1.2653786
-0.54624095
-1.335681
-0.57056474
-1.4102854
-0.59578185
-1.4894668
-0.62191036
-1.5735146
-0.6489617
-1.6627468
-0.67695223
-1.7575089
-0.70588892
-1.8581891
-0.73578848
-1.9652462
-0.76664674
-2.0791184
-2.1998096
-0.00015128103
-0.046151594
-0.00087844878
-0.054907856
-0.0013120345
-0.055290845
-0.0020513594
-0.058334043
-0.0026521662
-0.061180423
-0.0034199075
-0.063533136
-0.0042146301
-0.066773007
-0.0050775979
-0.069543592
-0.0060377136
-0.072757795
-0.0070772602
-0.075957919
-0.0082218725
-0.079323909
-0.0094772704
-0.082807742
-0.010856341
-0.086425383
-0.012370926
-0.090178837
-0.014033408
-0.094073871
-0.015856147
-0.098116137
-0.017851459
-0.10231252
-0.020031238
-0.10667076
-0.022406998
-0.11119962
-0.024989486
-0.11590925
-0.027788734
-0.12081085
-0.030813411
-0.12591729
-0.034071115
-0.13124285
-0.037568622
-0.13680245
-0.041310617
-0.14261384
-0.045301432
-0.14869483
-0.049543255
-0.15506557
-0.054038248
-0.16174644
-0.058787824
-0.16875914
-0.063792694
-0.176127
-0.06905412
-0.18387337
-0.074572959
-0.19202276
-0.080351376
-0.20060097
-0.086391569
-0.20963387
-0.092697392
-0.21914899
-0.099272789
-0.22917508
-0.106124
-0.23974066
-0.11325722
-0.25087741
-0.12068146
-0.26261661
-0.1284052
-0.27499272
-0.13644013
-0.28804059
-0.14479688
-0.30179835
-0.15348917
-0.31630506
-0.16253143
-0.33160237
-0.17193846
-0.34773508
-0.18172686
-0.36475041
-0.19191418
-0.38269803
-0.20251892
-0.40163171
-0.21356095
-0.42160795