/*--------------------------------*- C++ -*----------------------------------*\
  =========                 |
  \\      /  F ield         | OpenFOAM: The Open Source CFD Toolbox
   \\    /   O peration     | Website:  https://openfoam.org
    \\  /    A nd           | Version:  12
     \\/     M anipulation  |
\*---------------------------------------------------------------------------*/
FoamFile
{
    format      ascii;
    class       volScalarField;
    location    "0.048";
    object      nut;
}
// * * * * * * * * * * * * * * * * * * * * * * * * * * * * * * * * * * * * * //

dimensions      [0 2 -1 0 0 0 0];

internalField   nonuniform List<scalar> 
16000
(
4.7328061e-07
1.0036994e-05
1.8421469e-05
2.4175395e-05
1.8577257e-05
2.5633023e-05
1.7938964e-05
2.4686995e-05
1.9024764e-05
2.6430595e-05
2.2014293e-05
2.6106136e-05
2.367371e-05
2.439501e-05
2.3534039e-05
2.3417087e-05
2.3167755e-05
2.3104582e-05
2.3117485e-05
2.3229919e-05
2.3433553e-05
2.3728058e-05
2.4110831e-05
2.4582032e-05
2.5143831e-05
2.580234e-05
2.656555e-05
2.7446366e-05
2.8460568e-05
2.9625232e-05
3.0958994e-05
3.2486497e-05
3.423955e-05
3.6257372e-05
3.858827e-05
4.128989e-05
4.4430937e-05
4.8093273e-05
5.2378118e-05
5.7410968e-05
6.3339228e-05
7.0336251e-05
7.8620535e-05
8.8459994e-05
0.00010017329
0.00011414119
0.0001308346
0.00015082632
0.00017481247
0.0002036391
0.00023833765
0.00028016645
0.00033065331
0.00039165904
0.00046545285
0.00055481358
0.0006631597
0.00079475311
0.00095502726
0.0010227876
0.0010228456
0.0010228434
0.0010227577
0.0010225264
0.0010221163
0.0010214337
0.0010202701
0.0010182181
0.0010147872
0.0010101531
0.0010067092
0.0010049354
0.0010044511
0.00100446
0.0010057018
0.001007376
0.0010088623
0.001009579
0.00100843
0.0010037175
4.2338945e-07
9.5183996e-06
1.9998525e-05
2.1859268e-05
1.6751907e-05
2.2982389e-05
1.5937194e-05
2.1627433e-05
1.6849505e-05
2.3360473e-05
1.9973614e-05
2.3553076e-05
2.1683581e-05
2.2122066e-05
2.1454155e-05
2.1279085e-05
2.1073206e-05
2.1004583e-05
2.1019046e-05
2.1121741e-05
2.1309844e-05
2.1582578e-05
2.1937967e-05
2.2376209e-05
2.2899016e-05
2.351212e-05
2.4222437e-05
2.5041587e-05
2.5984451e-05
2.7067646e-05
2.830853e-05
2.9729619e-05
3.1360332e-05
3.3236928e-05
3.5404521e-05
3.79172e-05
4.0839856e-05
4.4249258e-05
4.8239463e-05
5.2928934e-05
5.8458934e-05
6.4992138e-05
7.2733376e-05
8.1936778e-05
9.2906907e-05
0.00010600372
0.00012167359
0.00014046103
0.00016302906
0.00019018399
0.00022290927
0.00026240842
0.00031014528
0.00036790742
0.00043788163
0.00052275917
0.00062586808
0.00075136393
0.00090455097
0.0010216571
0.0010217208
0.0010216786
0.0010215649
0.0010213113
0.00102089
0.0010202168
0.0010191025
0.0010171777
0.0010139811
0.0010096205
0.0010064345
0.0010048088
0.0010043677
0.0010044435
0.0010056689
0.0010072454
0.0010085458
0.0010090271
0.0010078093
0.0010032815
3.8552195e-07
9.1180775e-06
1.8928865e-05
1.9922083e-05
1.5002087e-05
2.0233443e-05
1.4197748e-05
1.8798204e-05
1.5157039e-05
2.0493539e-05
1.8226051e-05
2.0975478e-05
1.966153e-05
1.9819071e-05
1.930877e-05
1.9108513e-05
1.8936258e-05
1.8872492e-05
1.8889957e-05
1.8986917e-05
1.9162051e-05
1.9414937e-05
1.9743944e-05
2.0149463e-05
2.0632837e-05
2.1199577e-05
2.1855857e-05
2.2612176e-05
2.348235e-05
2.44825e-05
2.5629066e-05
2.6942832e-05
2.8451175e-05
3.0187742e-05
3.2194752e-05
3.4522956e-05
3.7233763e-05
4.0399811e-05
4.4108997e-05
4.8472596e-05
5.3626475e-05
5.9724709e-05
6.6960091e-05
7.5573453e-05
8.5857231e-05
9.8153604e-05
0.00011288736
0.00013057794
0.00015185897
0.00017750191
0.00020844722
0.00024584926
0.00029111446
0.00034596519
0.00041251473
0.00049337613
0.00059180131
0.00071187361
0.00085881845
0.0010205985
0.0010206742
0.001020591
0.0010204445
0.0010201631
0.0010197215
0.0010190419
0.001017949
0.0010161044
0.0010130882
0.0010090071
0.0010061203
0.0010046579
0.0010042581
0.0010044255
0.0010056047
0.0010070707
0.0010081692
0.0010084068
0.0010072051
0.0010029262
3.4241618e-07
8.817772e-06
1.7972293e-05
1.8504897e-05
1.34906e-05
1.7861656e-05
1.265922e-05
1.6423962e-05
1.365229e-05
1.8060469e-05
1.6656542e-05
1.8693069e-05
1.7793157e-05
1.77426e-05
1.7349099e-05
1.7144843e-05
1.7001347e-05
1.6947183e-05
1.697005e-05
1.7064638e-05
1.7230285e-05
1.7466963e-05
1.7773422e-05
1.8150354e-05
1.8598844e-05
1.9124286e-05
1.9732411e-05
2.0432802e-05
2.1238278e-05
2.2164548e-05
2.3227428e-05
2.4446226e-05
2.5846668e-05
2.7460166e-05
2.9326503e-05
3.1493562e-05
3.4019765e-05
3.6974498e-05
4.0440779e-05
4.4523281e-05
4.935367e-05
5.5079473e-05
6.1883929e-05
6.9996337e-05
7.9700326e-05
9.1324597e-05
0.00010527728
0.00012205885
0.00014228091
0.00016668997
0.0001961951
0.00023191631
0.00027522089
0.00032778887
0.00039168766
0.00046948468
0.00056439424
0.00068047751
0.00082295209
0.00099866718
0.0010197005
0.0010195786
0.0010194005
0.0010190938
0.0010186341
0.0010179489
0.0010168787
0.0010151184
0.0010122873
0.0010084792
0.00100586
0.0010045062
0.0010041282
0.0010043942
0.0010054779
0.001006818
0.0010077241
0.0010077635
0.0010065467
0.0010025987
3.0581961e-07
8.5898639e-06
1.7136434e-05
1.8519642e-05
1.3402056e-05
1.5793404e-05
1.1304145e-05
1.4386077e-05
1.2354868e-05
1.5959351e-05
1.525611e-05
1.6633439e-05
1.6041633e-05
1.5849331e-05
1.5541505e-05
1.5348755e-05
1.5228998e-05
1.5185404e-05
1.5212711e-05
1.5304572e-05
1.5460579e-05
1.5681232e-05
1.5965725e-05
1.6315171e-05
1.6730568e-05
1.7217221e-05
1.7780582e-05
1.842951e-05
1.9175846e-05
2.0034853e-05
2.1021918e-05
2.2155123e-05
2.3458819e-05
2.4962492e-05
2.6703823e-05
2.8728202e-05
3.109137e-05
3.3860046e-05
3.7113546e-05
4.095032e-05
4.5498467e-05
5.0900519e-05
5.7332226e-05
6.5012251e-05
7.4217447e-05
8.526601e-05
9.8552483e-05
0.00011456204
0.00013388833
0.00015725866
0.00018555701
0.00021987692
0.0002615556
0.00031224194
0.00037397056
0.00044927741
0.00054135556
0.00065426405
0.00079323841
0.00096516633
0.0010188039
0.0010186451
0.0010184352
0.0010181046
0.0010176278
0.0010169362
0.0010158835
0.0010141947
0.0010115295
0.0010079888
0.001005615
0.0010043435
0.0010039823
0.0010043327
0.0010052943
0.0010064954
0.0010072181
0.0010071098
0.0010058015
0.0010023181
2.8533194e-07
8.4505132e-06
1.6469242e-05
1.8316268e-05
1.3203949e-05
1.397993e-05
1.0631663e-05
1.2700424e-05
1.1353907e-05
1.4179286e-05
1.4024483e-05
1.482128e-05
1.4435285e-05
1.4159099e-05
1.3905789e-05
1.3727976e-05
1.3623944e-05
1.3587167e-05
1.3615518e-05
1.3702615e-05
1.3848103e-05
1.405289e-05
1.4316473e-05
1.4640288e-05
1.5025459e-05
1.5477099e-05
1.6000418e-05
1.6603737e-05
1.7297961e-05
1.809788e-05
1.9018634e-05
2.0077307e-05
2.1297161e-05
2.2706078e-05
2.4340012e-05
2.624228e-05
2.8466357e-05
3.1076819e-05
3.4150539e-05
3.778064e-05
4.2092021e-05
4.7223849e-05
5.334694e-05
6.0670495e-05
6.9466773e-05
8.004685e-05
9.2795204e-05
0.00010818614
0.00012680011
0.00014935224
0.00017670902
0.00020994731
0.00025038591
0.00029965676
0.00035977955
0.00043327909
0.00052335023
0.00063407752
0.00077074918
0.00094032982
0.0010179813
0.0010177877
0.0010175462
0.0010171939
0.0010167033
0.0010160076
0.0010149699
0.0010133377
0.0010108107
0.0010075379
0.001005382
0.0010041725
0.0010038261
0.0010042123
0.0010050546
0.001006102
0.0010066603
0.0010064393
0.00100513
0.0010020781
2.5772585e-07
8.3713551e-06
1.5947464e-05
1.7342945e-05
1.3091792e-05
1.2341186e-05
1.0700788e-05
1.1675438e-05
1.1047257e-05
1.265808e-05
1.2917034e-05
1.3220358e-05
1.2943845e-05
1.2629785e-05
1.24075e-05
1.2245037e-05
1.2152531e-05
1.2121325e-05
1.2150208e-05
1.2233222e-05
1.2369789e-05
1.2561096e-05
1.2806773e-05
1.3031444e-05
1.3381365e-05
1.3794788e-05
1.4276248e-05
1.4833359e-05
1.5475906e-05
1.6217886e-05
1.7074154e-05
1.8060829e-05
1.9200169e-05
2.051853e-05
2.2050264e-05
2.3836798e-05
2.5929492e-05
2.8390839e-05
3.129606e-05
3.4996213e-05
3.911443e-05
4.4027028e-05
4.9902444e-05
5.6941845e-05
6.5414192e-05
7.562663e-05
8.7956875e-05
0.00010287228
0.00012094414
0.00014288172
0.00016954056
0.0002019894
0.00024153856
0.00028981529
0.00034883985
0.00042114383
0.00050994329
0.00061937046
0.0007547939
0.00092328566
0.0010172322
0.0010170056
0.0010167329
0.0010163611
0.0010158601
0.0010151628
0.0010141362
0.0010125418
0.0010101168
0.0010071173
0.0010051532
0.0010039938
0.001003653
0.0010040265
0.0010047643
0.001005649
0.0010060626
0.0010057725
0.0010045535
0.0010018652
2.3195123e-07
8.3261627e-06
1.5503416e-05
1.5766254e-05
1.2051575e-05
1.0745599e-05
9.2867993e-06
1.0429225e-05
9.71988e-06
1.1364997e-05
1.1804231e-05
1.1752846e-05
1.1520975e-05
1.1211853e-05
1.1014122e-05
1.0871266e-05
1.0792339e-05
1.0769499e-05
1.0736303e-05
1.0802316e-05
1.0921909e-05
1.1094939e-05
1.1320133e-05
1.1597e-05
1.1929651e-05
1.2321517e-05
1.2777048e-05
1.3303791e-05
1.3910964e-05
1.461209e-05
1.5422171e-05
1.6356791e-05
1.74377e-05
1.8690269e-05
2.0147877e-05
2.1850717e-05
2.3848828e-05
2.6203361e-05
2.8988814e-05
3.229572e-05
3.6234222e-05
4.0943563e-05
4.6591743e-05
5.3823875e-05
6.2057668e-05
7.2003732e-05
8.403659e-05
9.8620374e-05
0.0001163212
0.000137849
0.00016405546
0.00019600937
0.00023502318
0.00028273194
0.00034117263
0.00041290297
0.00050118091
0.00061020891
0.00074546265
0.00091415318
0.0010165537
0.0010162959
0.001015993
0.0010156032
0.0010150943
0.0010143964
0.0010133747
0.0010118016
0.0010094603
0.0010067221
0.0010049268
0.0010038094
0.0010034574
0.0010037891
0.0010044275
0.0010051557
0.0010054467
0.0010051291
0.0010040326
0.0010016623
2.1363757e-07
8.2815518e-06
1.5045874e-05
1.3775322e-05
9.8986628e-06
9.5475464e-06
7.6496726e-06
8.8775554e-06
9.0147864e-06
1.0221851e-05
1.0671034e-05
1.0388688e-05
1.0177597e-05
9.8987192e-06
9.7255458e-06
9.5376622e-06
9.449245e-06
9.4217234e-06
9.4485369e-06
9.5260688e-06
9.6507079e-06
9.8233494e-06
1.0043143e-05
1.031065e-05
1.0629723e-05
1.1004301e-05
1.1439024e-05
1.1941447e-05
1.25204e-05
1.3188924e-05
1.3962262e-05
1.4855702e-05
1.5890773e-05
1.7092148e-05
1.8492581e-05
2.0131488e-05
2.2058074e-05
2.4332696e-05
2.7029025e-05
3.023654e-05
3.4065422e-05
3.8652501e-05
4.4168085e-05
5.0809002e-05
5.88273e-05
6.8535989e-05
8.1019615e-05
9.5413688e-05
0.00011291233
0.00013423223
0.00016022861
0.00019197858
0.00023080715
0.00027836957
0.0003367355
0.00040850838
0.00049700889
0.00060653069
0.00074267949
0.00091283281
0.0010159422
0.0010156557
0.0010153238
0.0010149167
0.0010143997
0.0010136983
0.0010126729
0.0010111075
0.0010088399
0.0010063505
0.001004702
0.0010036237
0.0010032488
0.001003519
0.0010040538
0.0010046446
0.0010048383
0.0010045229
0.0010035532
0.0010014606
1.9639393e-07
8.2360411e-06
1.362262e-05
1.1977443e-05
8.0039346e-06
8.4680228e-06
6.7846766e-06
8.0044104e-06
8.3443534e-06
9.1350363e-06
9.5426413e-06
9.1429831e-06
8.9395335e-06
8.6134666e-06
8.4315924e-06
8.3139876e-06
8.2581824e-06
8.2547462e-06
8.2983836e-06
8.3863695e-06
8.5157279e-06
8.688887e-06
8.9055774e-06
9.166124e-06
9.4749951e-06
9.8365384e-06
1.0255524e-05
1.0739648e-05
1.1297491e-05
1.1941651e-05
1.268767e-05
1.3550841e-05
1.4552705e-05
1.5717514e-05
1.7077724e-05
1.8672385e-05
2.0550314e-05
2.2771618e-05
2.5410081e-05
2.8555364e-05
3.2317465e-05
3.6832498e-05
4.2273543e-05
4.8837147e-05
5.6777204e-05
6.6408316e-05
7.8117704e-05
9.2358342e-05
0.00011070732
0.0001320223
0.00015805188
0.00018989147
0.00022888904
0.00027673274
0.00033554112
0.00040798345
0.00049746499
0.00060839151
0.00074651863
0.00091941316
0.0010153936
0.0010150805
0.001014721
0.0010142958
0.0010137672
0.0010130553
0.0010120164
0.0010104511
0.0010082556
0.0010060027
0.0010044799
0.0010034403
0.00100304
0.0010032407
0.0010036617
0.0010041361
0.0010042582
0.0010039653
0.0010031218
0.0010012641
1.8107e-07
8.1862948e-06
1.0817035e-05
9.9359664e-06
6.5628967e-06
7.5269171e-06
6.177013e-06
7.1833731e-06
7.7996248e-06
8.1473805e-06
8.4319915e-06
7.9232544e-06
7.674198e-06
7.445893e-06
7.3103206e-06
7.2305535e-06
7.2024156e-06
7.2198553e-06
7.2773435e-06
7.3741642e-06
7.5108694e-06
7.6850889e-06
7.9002504e-06
8.1567529e-06
8.4590611e-06
8.81195e-06
9.2204435e-06
9.6924352e-06
1.0236455e-05
1.0864731e-05
1.1533715e-05
1.2367757e-05
1.3338249e-05
1.4469011e-05
1.5792199e-05
1.7346543e-05
1.9180555e-05
2.1354167e-05
2.3941417e-05
2.7032457e-05
3.0738165e-05
3.5472018e-05
4.0896811e-05
4.7453382e-05
5.5397772e-05
6.5047611e-05
7.6801149e-05
9.1122587e-05
0.00010859698
0.00012995375
0.00015751641
0.00018974332
0.00022927026
0.00027783124
0.0003376099
0.00041136193
0.00050259957
0.00061586208
0.00075707227
0.00093400266
0.0010149027
0.0010145644
0.0010141787
0.0010137327
0.001013186
0.0010124543
0.0010113945
0.0010098294
0.0010077112
0.0010056815
0.0010042654
0.0010032688
0.0010028387
0.0010029607
0.0010032687
0.0010036464
0.0010037172
0.0010034586
0.001002752
0.0010011088
1.6757474e-07
8.135917e-06
8.5257035e-06
8.4246097e-06
5.7535496e-06
6.6606679e-06
5.6634731e-06
6.4629029e-06
7.2470863e-06
7.2257619e-06
7.2275949e-06
6.7931092e-06
6.5892629e-06
6.4202913e-06
6.3239617e-06
6.2757958e-06
6.2705361e-06
6.3069508e-06
6.3783658e-06
6.4855538e-06
6.626631e-06
6.8041442e-06
7.0202176e-06
7.2758401e-06
7.5755715e-06
7.8905235e-06
8.2869926e-06
8.7461798e-06
9.2764683e-06
9.8896326e-06
1.0599853e-05
1.142559e-05
1.238765e-05
1.3509891e-05
1.4824731e-05
1.6371249e-05
1.8198493e-05
2.0367106e-05
2.2952524e-05
2.6046718e-05
2.9763086e-05
3.4243197e-05
3.9660283e-05
4.6221713e-05
5.418783e-05
6.4437685e-05
7.6352952e-05
9.0894454e-05
0.00010865946
0.00013040305
0.00015704999
0.00019153337
0.00023195892
0.00028168489
0.00034297603
0.00041869498
0.00051248405
0.00062903859
0.00077446642
0.00095675591
0.001014463
0.0010140996
0.001013688
0.0010132178
0.0010126456
0.0010118862
0.0010108034
0.0010092463
0.0010072126
0.0010053911
0.0010040674
0.001003115
0.0010026582
0.0010026934
0.0010028929
0.0010031859
0.0010032172
0.0010029902
0.0010024465
0.0010010383
1.5549622e-07
8.0756172e-06
6.7710401e-06
7.3848398e-06
5.1190476e-06
5.8812286e-06
5.2221625e-06
5.8262184e-06
6.5892248e-06
6.1822401e-06
6.1400575e-06
5.8046291e-06
5.6422702e-06
5.5212657e-06
5.4582156e-06
5.4376271e-06
5.4546351e-06
5.5064101e-06
5.5906448e-06
5.7075468e-06
5.8565311e-06
6.0393574e-06
6.232627e-06
6.4849477e-06
6.7809358e-06
7.1247574e-06
7.523459e-06
7.9845864e-06
8.5167308e-06
9.1318532e-06
9.844266e-06
1.0672182e-05
1.1637617e-05
1.2764766e-05
1.4086563e-05
1.5642808e-05
1.7483621e-05
1.967088e-05
2.2282133e-05
2.5412208e-05
2.9177279e-05
3.372202e-05
3.9228568e-05
4.5909595e-05
5.4033787e-05
6.3935387e-05
7.6029877e-05
9.0819793e-05
0.00010988429
0.00013222037
0.00015962634
0.00019329752
0.00023696131
0.00028831252
0.00035167298
0.00043003265
0.00052718708
0.00064801143
0.00079882163
0.00098783176
0.0010140664
0.001013676
0.0010132382
0.00101274
0.0010121366
0.0010113454
0.0010102431
0.0010087061
0.0010067669
0.0010051381
0.0010038959
0.0010029807
0.0010025073
0.0010024441
0.0010025438
0.0010027634
0.0010027601
0.0010025488
0.001002147
0.0010010107
1.4471855e-07
8.0013494e-06
5.4215985e-06
6.4409274e-06
4.5549357e-06
5.1894109e-06
4.8448131e-06
5.178605e-06
5.7627731e-06
5.2756197e-06
5.1855709e-06
4.9398391e-06
4.8164189e-06
4.7354794e-06
4.7023047e-06
4.7058428e-06
4.7423904e-06
4.8105243e-06
4.9080478e-06
5.0170777e-06
5.169364e-06
5.3553879e-06
5.5773914e-06
5.8383318e-06
6.1424758e-06
6.494372e-06
6.9009854e-06
7.3704814e-06
7.9116691e-06
8.5366603e-06
9.2598763e-06
1.0099738e-05
1.1028563e-05
1.2161655e-05
1.3491396e-05
1.5058294e-05
1.691376e-05
1.9120986e-05
2.1759714e-05
2.4928179e-05
2.8746401e-05
3.3616906e-05
3.926659e-05
4.6132481e-05
5.4492963e-05
6.4692588e-05
7.7167989e-05
9.2445995e-05
0.00011117337
0.00013538711
0.00016380669
0.00019876277
0.00024180846
0.00029772146
0.00036372107
0.00044540874
0.0005467571
0.00067284465
0.00083022599
0.001014121
0.0010137027
0.0010132825
0.001012817
0.001012288
0.0010116509
0.0010108274
0.001009709
0.0010082021
0.0010063818
0.0010049277
0.0010037602
0.0010028707
0.0010023704
0.0010022202
0.00100223
0.0010023839
0.0010023533
0.001002133
0.0010018001
0.0010009563
1.3510703e-07
7.8697915e-06
4.3921207e-06
5.6010673e-06
4.050516e-06
4.5739145e-06
4.5139085e-06
4.4769023e-06
4.9284127e-06
4.4670361e-06
4.3582142e-06
4.1864079e-06
4.0999407e-06
4.0535652e-06
4.0473255e-06
4.0734525e-06
4.1289025e-06
4.1962939e-06
4.3021716e-06
4.4381236e-06
4.6050018e-06
4.8043194e-06
5.0390257e-06
5.3122831e-06
5.628922e-06
5.9937551e-06
6.4138101e-06
6.8769423e-06
7.4279775e-06
8.0634668e-06
8.7978649e-06
9.6495976e-06
1.064119e-05
1.1800948e-05
1.316263e-05
1.4768046e-05
1.6670907e-05
1.8936763e-05
2.1648508e-05
2.4909379e-05
2.8844978e-05
3.3613613e-05
3.9406773e-05
4.6460449e-05
5.5065684e-05
6.6131854e-05
7.9102635e-05
9.5005481e-05
0.00011452288
0.00013850049
0.00016956464
0.00020611699
0.00025117586
0.00030678422
0.00037910973
0.00046482057
0.00057119945
0.00070355038
0.00086869836
0.0010137936
0.0010133601
0.001012908
0.0010124128
0.0010118519
0.0010111808
0.0010103259
0.0010091905
0.0010077106
0.0010060641
0.0010047608
0.0010036627
0.0010027952
0.0010022382
0.001002027
0.0010019576
0.0010020476
0.0010019947
0.0010017609
0.0010014551
0.0010008565
1.26579e-07
7.5448639e-06
3.6764265e-06
4.8560968e-06
3.6014655e-06
4.0288269e-06
3.9993667e-06
3.842416e-06
4.1242044e-06
3.7522679e-06
3.6491894e-06
3.5363065e-06
3.4844344e-06
3.4685437e-06
3.4869384e-06
3.5211845e-06
3.5886669e-06
3.6851759e-06
3.8099097e-06
3.9631142e-06
4.1462712e-06
4.3614242e-06
4.6119391e-06
4.9012671e-06
5.2227482e-06
5.6013071e-06
6.0355101e-06
6.5334833e-06
7.1054445e-06
7.7635657e-06
8.5226707e-06
9.4019229e-06
1.0424763e-05
1.1620565e-05
1.3025416e-05
1.4682669e-05
1.6648924e-05
1.8992859e-05
2.1800847e-05
2.5182393e-05
2.9268333e-05
3.4225271e-05
4.0257694e-05
4.7612934e-05
5.6599592e-05
6.7597076e-05
8.1793666e-05
9.8459482e-05
0.00011893148
0.00014411351
0.00017510208
0.00021531084
0.00026275901
0.00032136778
0.00039384674
0.00048820266
0.00060044655
0.00074005703
0.0009141482
0.0010134826
0.0010130269
0.001012543
0.0010120172
0.0010114244
0.0010107214
0.001009839
0.0010086931
0.0010072577
0.0010058138
0.0010046337
0.0010035954
0.0010027376
0.001002139
0.0010018542
0.001001729
0.0010017483
0.0010016689
0.0010014251
0.0010011549
0.0010007077
1.192078e-07
7.1321814e-06
3.2269993e-06
4.196018e-06
3.2016513e-06
3.3966336e-06
3.5439637e-06
3.2614697e-06
3.3970238e-06
3.1315522e-06
3.0492395e-06
2.9828781e-06
2.9623907e-06
2.9736943e-06
2.9996764e-06
3.0624886e-06
3.1531154e-06
3.2703704e-06
3.4143695e-06
3.5860918e-06
3.7875646e-06
4.0211129e-06
4.2822402e-06
4.5882577e-06
4.938366e-06
5.338264e-06
5.7948034e-06
6.3163952e-06
6.9134582e-06
7.5989291e-06
8.3880997e-06
9.3009435e-06
1.0361964e-05
1.1602008e-05
1.3003347e-05
1.4709811e-05
1.6736428e-05
1.9155564e-05
2.2190348e-05
2.5718933e-05
2.9988006e-05
3.5172601e-05
4.1491547e-05
4.9206529e-05
5.8643382e-05
7.0206524e-05
8.4393732e-05
0.00010181838
0.00012433897
0.00015092084
0.00018366317
0.00022403427
0.00027645703
0.00033851342
0.0004152929
0.00051539553
0.00063431691
0.00078215847
0.00096632383
0.0010131773
0.001012696
0.0010121815
0.0010116258
0.0010110036
0.0010102743
0.0010093765
0.0010082442
0.0010068826
0.0010056206
0.0010045395
0.001003558
0.0010027044
0.0010020623
0.0010017492
0.0010015417
0.0010014795
0.0010013645
0.0010011243
0.0010009048
0.0010005776
1.1325459e-07
6.1936812e-06
2.8427994e-06
3.5972741e-06
2.8548385e-06
2.8144448e-06
3.0913077e-06
2.7358969e-06
2.7730733e-06
2.6016114e-06
2.5468912e-06
2.5181834e-06
2.518458e-06
2.547303e-06
2.607451e-06
2.6948432e-06
2.8076096e-06
2.9455899e-06
3.109654e-06
3.3012243e-06
3.5175902e-06
3.7697445e-06
4.0578149e-06
4.3858645e-06
4.7587475e-06
5.1823514e-06
5.6638363e-06
6.2119351e-06
6.8373893e-06
7.5370638e-06
8.3549559e-06
9.2994463e-06
1.0396051e-05
1.1676747e-05
1.3181539e-05
1.4960467e-05
1.7075425e-05
1.9603945e-05
2.2642304e-05
2.6309574e-05
3.0753777e-05
3.6417986e-05
4.3066442e-05
5.1195036e-05
6.1148398e-05
7.3356241e-05
8.8349086e-05
0.00010678295
0.00013065719
0.000158822
0.00019354362
0.00023638377
0.00029210232
0.00035802276
0.00043961695
0.00054072312
0.00067246033
0.00082942931
0.0010133906
0.0010128727
0.001012363
0.0010118211
0.0010112388
0.0010105929
0.0010098476
0.001008952
0.0010078569
0.0010065855
0.00100547
0.001004469
0.0010035442
0.0010027149
0.0010020448
0.001001633
0.0010013975
0.0010012443
0.0010010817
0.0010008741
0.0010007185
0.0010004876
1.0830327e-07
4.3143785e-06
2.4950005e-06
3.0427444e-06
2.4213673e-06
2.3268595e-06
2.6178317e-06
2.2687475e-06
2.254281e-06
2.1556643e-06
2.1313909e-06
2.1280007e-06
2.1561273e-06
2.2151383e-06
2.3009988e-06
2.4113945e-06
2.5456762e-06
2.7043692e-06
2.8861439e-06
3.0970395e-06
3.33809e-06
3.6121529e-06
3.9227022e-06
4.27396e-06
4.671016e-06
5.1200023e-06
5.628362e-06
6.1958349e-06
6.8486396e-06
7.5941623e-06
8.4496452e-06
9.4365123e-06
1.0581775e-05
1.1919369e-05
1.3491866e-05
1.535236e-05
1.7566903e-05
2.0217759e-05
2.3407401e-05
2.7263167e-05
3.1943113e-05
3.7642525e-05
4.4935327e-05
5.3524021e-05
6.4051856e-05
7.6976237e-05
9.2862625e-05
0.00011241177
0.00013649248
0.00016767337
0.00020457372
0.00025013052
0.00030642844
0.0003795926
0.00046644556
0.00057405591
0.0007142895
0.00088111521
0.001013093
0.0010125643
0.0010120271
0.0010114622
0.001010859
0.0010101974
0.0010094463
0.0010085628
0.0010075098
0.00100635
0.0010053485
0.001004415
0.0010035401
0.0010027408
0.0010020694
0.001001588
0.0010012933
0.0010010574
0.0010008346
0.0010006721
0.0010005988
0.0010004751
1.0302924e-07
3.5568045e-06
2.1329119e-06
2.5335553e-06
2.0667595e-06
1.9199415e-06
2.1323642e-06
1.8597277e-06
1.8327818e-06
1.7893356e-06
1.7913287e-06
1.818735e-06
1.8783285e-06
1.9638444e-06
2.0729263e-06
2.2047137e-06
2.3594642e-06
2.5363639e-06
2.7401815e-06
2.9720511e-06
3.2345116e-06
3.5306369e-06
3.8641003e-06
4.2392868e-06
4.6614605e-06
5.1369754e-06
5.6672494e-06
6.2715976e-06
6.9574142e-06
7.7391476e-06
8.6349791e-06
9.6676183e-06
1.0865646e-05
1.2265017e-05
1.3911027e-05
1.5860442e-05
1.8183828e-05
2.0968772e-05
2.4324384e-05
2.8385788e-05
3.3321085e-05
3.9623327e-05
4.7041955e-05
5.612778e-05
6.727624e-05
8.0974309e-05
9.7824636e-05
0.00011857407
0.00014548428
0.00017727953
0.00021651651
0.00026498365
0.00032490202
0.00040278602
0.00049524217
0.00060975734
0.00075890572
0.00093602656
0.0010127895
0.0010122478
0.0010116892
0.0010111068
0.0010104888
0.0010098176
0.0010090653
0.001008195
0.0010071871
0.0010061563
0.0010052442
0.001004373
0.0010035428
0.0010027712
0.0010021083
0.0010016009
0.0010012341
0.00100093
0.0010006548
0.0010005258
0.0010005556
0.0010004924
9.9149652e-08
2.8393352e-06
1.8197793e-06
2.0242656e-06
1.7737757e-06
1.5722444e-06
1.6845455e-06
1.5134701e-06
1.5011539e-06
1.5012758e-06
1.5299505e-06
1.590229e-06
1.6762185e-06
1.7844472e-06
1.9140154e-06
2.0651524e-06
2.2378223e-06
2.4351497e-06
2.6587186e-06
2.9108604e-06
3.194359e-06
3.5124683e-06
3.8689988e-06
4.2684582e-06
4.71625e-06
5.2153619e-06
5.7790938e-06
6.4149485e-06
7.1350026e-06
7.9544163e-06
8.8924413e-06
9.9731519e-06
1.1226879e-05
1.2691743e-05
1.4415739e-05
1.6459299e-05
1.8898084e-05
2.1825171e-05
2.5357018e-05
2.9637357e-05
3.5073982e-05
4.1480944e-05
4.9318238e-05
5.8926748e-05
7.0726219e-05
8.5236004e-05
0.000103098
0.00012510821
0.00015362527
0.00018737894
0.00022905648
0.00028055902
0.00034424946
0.0004269882
0.00052524125
0.0006468625
0.00080505098
0.00099253665
0.0010124788
0.0010119248
0.0010113509
0.0010107558
0.0010101276
0.0010094507
0.0010087008
0.0010078507
0.0010068991
0.0010059852
0.0010051483
0.0010043398
0.0010035557
0.0010028115
0.0010021535
0.0010016249
0.0010012119
0.0010008526
0.0010005566
0.0010004374
0.0010005337
0.0010005369
9.6862695e-08
2.2130394e-06
1.5476051e-06
1.5407959e-06
1.5039025e-06
1.2752809e-06
1.3202519e-06
1.2371834e-06
1.2523096e-06
1.2832672e-06
1.3451523e-06
1.4312474e-06
1.5385412e-06
1.6657132e-06
1.8130296e-06
1.9815093e-06
2.1720185e-06
2.38754e-06
2.6299108e-06
2.9016849e-06
3.2057919e-06
3.5456058e-06
3.9250426e-06
4.3487122e-06
4.8221288e-06
5.3519974e-06
5.9465858e-06
6.6161749e-06
7.3651743e-06
8.2229475e-06
9.2040419e-06
1.0333992e-05
1.1645013e-05
1.3177601e-05
1.4982527e-05
1.7193045e-05
1.9769905e-05
2.2866277e-05
2.6606684e-05
3.1145187e-05
3.6672163e-05
4.3422595e-05
5.1687918e-05
6.1828435e-05
7.4289962e-05
8.9624627e-05
0.00010851522
0.00013295884
0.0001619107
0.00019764759
0.00024179321
0.00029636217
0.00036729658
0.00045140861
0.00055545411
0.00068413141
0.0008511343
0.0010127437
0.001012165
0.0010115975
0.0010110127
0.0010104085
0.0010097738
0.0010090952
0.0010083546
0.001007533
0.0010066398
0.0010058258
0.0010050587
0.0010043134
0.001003581
0.0010028737
0.0010022271
0.0010016755
0.0010012106
0.0010007963
0.0010004974
0.0010003936
0.0010005112
0.0010005583
9.6957328e-08
1.6796388e-06
1.3180212e-06
1.1711053e-06
1.2325082e-06
1.02688e-06
1.0529009e-06
1.0329404e-06
1.0763946e-06
1.1367446e-06
1.2226076e-06
1.3282043e-06
1.4524683e-06
1.5955487e-06
1.7585085e-06
1.942853e-06
2.1501158e-06
2.3828735e-06
2.6433086e-06
2.9340879e-06
3.2582296e-06
3.6191896e-06
4.0209739e-06
4.4682983e-06
4.9668108e-06
5.5233908e-06
6.1465511e-06
6.8469414e-06
7.6379767e-06
8.5366346e-06
9.5643972e-06
1.0748503e-05
1.2123325e-05
1.3732152e-05
1.5629273e-05
1.7882556e-05
2.0576641e-05
2.3817105e-05
2.7734973e-05
3.249296e-05
3.8292765e-05
4.5383514e-05
5.4071297e-05
6.4736992e-05
7.785081e-05
9.477329e-05
0.00011482008
0.00013953834
0.00017004294
0.00020771711
0.00025427395
0.0003147618
0.00038647233
0.00047514122
0.0005847589
0.00072717099
0.00089542004
0.0010124338
0.0010118504
0.0010112694
0.0010106755
0.001010064
0.0010094251
0.0010087473
0.0010080173
0.0010072256
0.0010064064
0.0010056776
0.0010049794
0.0010042965
0.0010036192
0.001002957
0.0010023346
0.0010017719
0.0010012644
0.0010008103
0.0010004871
0.0010003824
0.0010004888
0.0010005025
1.0023744e-07
1.2445384e-06
1.127897e-06
9.0093139e-07
1.0743574e-06
8.2214869e-07
8.6937272e-07
8.9436846e-07
9.6054646e-07
1.0439405e-06
1.1471563e-06
1.2677395e-06
1.40607e-06
1.5631441e-06
1.7404361e-06
1.9396697e-06
2.1628034e-06
2.4118767e-06
2.6895325e-06
2.9984203e-06
3.3416265e-06
3.7226843e-06
4.1456933e-06
4.6154869e-06
5.1378622e-06
5.7198929e-06
6.3703503e-06
7.1002787e-06
7.9236351e-06
8.8581617e-06
9.9263363e-06
1.1156737e-05
1.2585467e-05
1.4258035e-05
1.6231539e-05
1.8577404e-05
2.138465e-05
2.4763961e-05
2.8852681e-05
3.3821027e-05
4.0151811e-05
4.7622288e-05
5.6777265e-05
6.8018494e-05
8.1842399e-05
9.8863696e-05
0.0001198442
0.00014572821
0.00017768311
0.00021919107
0.00026835707
0.00032913094
0.00040426751
0.0004971471
0.0006178593
0.0007604862
0.000936066
0.0010121318
0.0010115402
0.0010109464
0.0010103428
0.0010097243
0.0010090824
0.0010084054
0.0010076831
0.0010069222
0.0010062032
0.0010055464
0.0010049157
0.0010042939
0.0010036721
0.0010030568
0.0010024646
0.0010019068
0.0010013811
0.0010009004
0.0010005379
0.0010003548
0.0010004427
0.0010003506
1.0680739e-07
9.6025294e-07
9.6211995e-07
7.6212932e-07
7.6533804e-07
7.0102467e-07
7.4650884e-07
8.0661642e-07
8.9000293e-07
9.8947688e-07
1.1057449e-06
1.2387154e-06
1.389453e-06
1.5592788e-06
1.7497909e-06
1.9627725e-06
2.2002159e-06
2.4643404e-06
2.7576314e-06
3.082886e-06
3.443279e-06
3.8424526e-06
4.2846411e-06
4.7748495e-06
5.3191008e-06
5.9226777e-06
6.59771e-06
7.3543063e-06
8.2142479e-06
9.1846508e-06
1.0294033e-05
1.1572434e-05
1.3057786e-05
1.4797841e-05
1.6852488e-05
1.9296553e-05
2.2223246e-05
2.5748403e-05
3.0015707e-05
3.5203183e-05
4.1531263e-05
4.9272801e-05
5.8765334e-05
7.0424711e-05
8.4767609e-05
0.00010243321
0.00012531917
0.00015240475
0.00018584229
0.00022715163
0.0002782121
0.00034134462
0.00041940044
0.00052076793
0.00064073667
0.00078859154
0.00097039601
0.0010118507
0.0010112477
0.0010106398
0.001010025
0.0010093983
0.0010087544
0.0010080859
0.001007386
0.0010066659
0.0010060312
0.0010054393
0.0010048708
0.0010043069
0.0010037395
0.0010031716
0.0010026135
0.0010020713
0.0010015434
0.0010010434
0.0010006375
0.001000416
0.0010003473
0.0010002267
1.2134949e-07
9.6566944e-07
8.023938e-07
5.6462418e-07
6.0798497e-07
6.1093622e-07
6.745977e-07
7.5344879e-07
8.5030281e-07
9.6191113e-07
1.0892708e-06
1.2332072e-06
1.3950161e-06
1.5761126e-06
1.7781209e-06
2.0028496e-06
2.252321e-06
2.5287981e-06
2.8348204e-06
3.1732498e-06
3.5473319e-06
3.9607843e-06
4.4179202e-06
4.9238282e-06
5.4846252e-06
6.1078055e-06
6.8027041e-06
7.5810925e-06
8.4579381e-06
9.4523137e-06
1.0588497e-05
1.1897353e-05
1.3417908e-05
1.5199319e-05
1.7303225e-05
1.9806619e-05
2.2805381e-05
2.6418581e-05
3.079382e-05
3.611382e-05
4.260472e-05
5.0908091e-05
6.0722489e-05
7.2775457e-05
8.7601048e-05
0.0001058597
0.00012837062
0.00015615018
0.00019045928
0.00023285908
0.00028528451
0.00035335193
0.00043410132
0.00053385903
0.00065697483
0.00080866787
0.00099509835
0.0010116129
0.0010109947
0.0010103714
0.0010097441
0.0010091076
0.0010084583
0.0010077933
0.0010071158
0.0010064679
0.0010058969
0.0010053634
0.0010048481
0.0010043351
0.0010038168
0.0010032942
0.0010027723
0.0010022537
0.0010017375
0.0010012373
0.0010008053
0.0010005114
0.0010003474
0.0010001964
1.1119973e-07
6.2261681e-07
6.3581325e-07
4.674496e-07
5.1002881e-07
5.5583779e-07
6.3456108e-07
7.2701218e-07
8.3451713e-07
9.5641103e-07
1.0937729e-06
1.2476578e-06
1.4193871e-06
1.6104301e-06
1.8224449e-06
2.0572875e-06
2.3170373e-06
2.6039905e-06
2.9208004e-06
3.2703831e-06
3.6560593e-06
4.0816234e-06
4.5514695e-06
5.0707711e-06
5.64574e-06
6.2839815e-06
6.9949669e-06
7.7906496e-06
8.6932632e-06
9.7113602e-06
1.0874569e-05
1.2214586e-05
1.3771444e-05
1.5595527e-05
1.7749965e-05
2.0313583e-05
2.3384492e-05
2.7084523e-05
3.1564706e-05
3.7012035e-05
4.3657836e-05
5.1788038e-05
6.1755904e-05
7.3999646e-05
8.9061251e-05
0.00010761279
0.00013048811
0.00016011502
0.00019524901
0.00023866485
0.00029234621
0.00035873677
0.00044083675
0.00054230829
0.0006675902
0.0008220105
0.0010118541
0.0010114452
0.0010108118
0.0010101736
0.001009534
0.0010088884
0.0010082339
0.0010075699
0.0010069091
0.0010063307
0.0010058112
0.0010053275
0.0010048581
0.0010043887
0.0010039116
0.0010034253
0.0010029316