/*--------------------------------*- C++ -*----------------------------------*\
  =========                 |
  \\      /  F ield         | OpenFOAM: The Open Source CFD Toolbox
   \\    /   O peration     | Website:  https://openfoam.org
    \\  /    A nd           | Version:  12
     \\/     M anipulation  |
\*---------------------------------------------------------------------------*/
FoamFile
{
    format      ascii;
    class       volScalarField;
    location    "0.048";
    object      omega;
}
// * * * * * * * * * * * * * * * * * * * * * * * * * * * * * * * * * * * * * //

dimensions      [0 0 -1 0 0 0 0];

internalField   nonuniform List<scalar> 
16000
(
1087.7194
2190.0457
1083.9504
649.55537
458.86877
318.7597
242.29952
182.68475
147.30441
119.03452
101.1766
86.49538
75.71578
66.669537
59.309867
53.103056
47.866738
43.400918
39.564422
36.244047
33.354829
30.825255
28.596348
26.621084
24.861567
23.288323
21.8769
20.608425
19.466957
18.43799
17.508355
16.667621
15.907479
15.220901
14.601905
14.044938
13.544783
13.096505
12.695958
12.339663
12.023728
11.744034
11.497583
11.281684
11.093276
10.929193
10.786971
10.664301
10.559004
10.469034
10.392563
10.327977
10.273754
10.228572
10.191322
10.161157
10.137476
10.120074
10.109489
10.106527
10.10832
10.109302
10.109268
10.108332
10.106054
10.101757
10.093845
10.079198
10.054059
10.019883
9.9952902
9.9838216
9.9806673
9.9829311
9.9973338
10.015448
10.030931
10.041711
10.037825
10.014896
1129.1694
2180.1449
1072.7064
649.16632
458.4941
321.41843
243.0813
184.32291
147.96532
119.95458
101.61227
86.982002
76.002702
66.922327
59.481608
53.231304
47.952812
43.456554
39.596458
36.257608
33.354329
30.814888
28.579426
26.600245
24.838453
23.264235
21.852475
20.583951
19.442803
18.414784
17.486488
16.647143
15.888306
15.20284
14.584798
14.028698
13.529437
13.082028
12.682141
12.32641
12.011247
11.732323
11.486479
11.271134
11.083421
10.920034
10.778464
10.656412
10.551715
10.462323
10.386378
10.322285
10.268513
10.223726
10.186779
10.156803
10.133161
10.115484
10.103977
10.099466
10.10066
10.101496
10.101244
10.100143
10.097795
10.093595
10.086096
10.07247
10.049182
10.017154
9.9945548
9.9840656
9.9812945
9.9843276
9.9987785
10.015724
10.029518
10.037499
10.033562
10.012135
1169.0183
2180.9138
1059.0438
645.06274
454.65238
321.35828
241.71381
184.32803
147.35472
120.00329
101.35591
86.919133
75.830393
66.767068
59.29912
53.043546
47.759054
43.261918
39.404342
36.069775
33.172249
30.640196
28.413275
26.443583
24.691486
23.127113
21.724921
20.465434
19.332817
18.313186
17.393091
16.561515
15.809952
15.131178
14.519297
13.968874
13.474947
13.032582
12.637277
12.28564
11.974462
11.699309
11.456844
11.244503
11.059674
10.898961
10.759809
10.639931
10.537195
10.449575
10.375191
10.312481
10.259924
10.216193
10.180128
10.150845
10.127711
10.110317
10.09865
10.093213
10.093664
10.094296
10.093807
10.092508
10.090031
10.085817
10.078529
10.065569
10.043713
10.013855
9.993527
9.9841951
9.9819064
9.9856172
9.9999369
10.015547
10.027651
10.033648
10.03013
10.01039
1207.0834
2188.4779
1048.0239
641.1034
450.45074
321.15366
240.07335
184.19581
146.61378
119.96019
101.05603
86.800514
75.623193
66.569575
59.081039
52.821365
47.53378
43.037794
39.184874
35.856624
32.966641
30.443648
28.226789
26.268085
24.527076
22.973881
21.582557
20.333356
19.210377
18.200145
17.289246
16.466391
15.723023
15.051809
14.446904
13.902908
13.414985
12.978312
12.588248
12.24124
11.934521
11.663609
11.424986
11.216003
11.034377
10.876631
10.740158
10.622677
10.522081
10.436391
10.363693
10.302467
10.251205
10.208599
10.173476
10.144933
10.12234
10.10527
10.093596
10.087617
10.087252
10.08766
10.086957
10.085485
10.082901
10.078686
10.071622
10.059361
10.038959
10.011186
9.9928546
9.9844331
9.9825353
9.9866433
10.000402
10.014603
10.025144
10.02964
10.026005
10.00905
1243.1934
2206.1867
1038.3771
636.9134
445.52636
320.21854
237.76838
183.58558
145.50435
119.64458
100.57549
86.509975
75.282428
66.24397
58.751952
52.498622
47.21861
42.732464
38.892003
35.57703
32.700657
30.192094
27.990014
26.046564
24.320518
22.782053
21.404896
20.169074
19.058529
18.06022
17.160894
16.34899
15.615933
14.954261
14.358192
13.822344
13.341992
12.912471
12.529085
12.187968
11.886818
11.621185
11.387412
11.18263
11.004944
10.850838
10.717638
10.603074
10.505054
10.421676
10.350987
10.291515
10.241773
10.200484
10.166473
10.13882
10.116897
10.100287
10.088794
10.082563
10.081487
10.081632
10.080725
10.079092
10.076411
10.07219
10.065311
10.053643
10.034536
10.00878
9.9922682
9.9846488
9.9830861
9.9873234
10.00025
10.013082
10.022269
10.025674
10.022068
10.007947
1277.2076
2231.4254
1033.4831
633.54418
441.13958
318.68033
235.00051
182.5799
144.12781
119.09544
99.959227
86.069982
74.827454
65.807505
58.326231
52.088429
46.824943
42.356082
38.534627
35.238868
32.381291
29.891792
27.708582
25.783973
24.076282
22.555682
21.195613
19.975942
18.880362
17.896254
17.010663
16.211737
15.490922
14.840602
14.255066
13.728946
13.257603
12.836538
12.461135
12.127098
11.832515
11.573066
11.345051
11.145224
10.972118
10.82223
10.692814
10.581616
10.486535
10.40579
10.337374
10.279877
10.231835
10.192014
10.159254
10.132613
10.111462
10.095407
10.084222
10.07792
10.076342
10.076192
10.075089
10.073313
10.070559
10.066343
10.059622
10.048426
10.030387
10.006639
9.9917459
9.9848007
9.9834427
9.9876374
9.9995404
10.011089
10.019164
10.021851
10.018672
10.007005
1309.0747
2261.8443
1032.8691
630.39481
436.89149
316.52253
232.13328
181.21267
142.5657
118.31444
99.215691
85.47877
74.253889
65.257705
57.800339
51.587545
46.349464
41.905519
38.109517
34.839036
32.005605
29.539983
27.380024
25.477554
23.791804
22.292429
20.952578
19.752048
18.674195
17.706773
16.837269
16.053524
15.34705
14.710047
14.136883
13.622202
13.161431
12.750214
12.384157
12.058629
11.771673
11.519318
11.297996
11.10393
10.936046
10.790951
10.665825
10.558437
10.466648
10.388844
10.322956
10.267645
10.221473
10.183258
10.151876
10.126367
10.106093
10.090682
10.079915
10.07371
10.071804
10.071334
10.07004
10.068136
10.065329
10.061132
10.054526
10.043646
10.026386
10.004692
9.99123
9.9848439
9.9835939
9.9876076
9.9984195
10.008806
10.015988
10.018256
10.015676
10.006233
1338.9028
2294.9776
1033.9446
626.97591
432.75512
313.73595
229.32725
179.62155
140.96163
117.32562
98.361641
84.744697
73.562619
64.596579
57.174311
50.99536
45.79098
41.379513
37.614511
34.375281
31.571408
29.134544
27.002573
25.123645
23.463563
21.989006
20.672755
19.494635
18.437572
17.489592
16.638793
15.872677
15.182879
14.561374
14.002618
13.501266
13.052803
12.652973
12.297654
11.982819
11.704603
11.460234
11.246515
11.059134
10.897086
10.757318
10.636963
10.533803
10.44562
10.371033
10.307898
10.254957
10.210801
10.174309
10.14441
10.120141
10.100838
10.086148
10.07588
10.069904
10.067839
10.067037
10.065557
10.063532
10.060686
10.056504
10.049956
10.039251
10.022627
10.002909
9.9907045
9.9847659
9.9836012
9.9872884
9.9970259
10.006403
10.012851
10.014917
10.013032
10.00554
1366.7938
2328.5758
1032.1753
622.81133
427.78666
310.26449
225.66488
177.65269
139.03064
116.15686
97.393103
83.867112
72.746586
63.819466
56.443103
50.306126
45.14372
40.772853
37.041474
33.839432
31.070864
28.667987
26.569625
24.722927
23.092831
21.647118
20.358137
19.205875
18.172805
17.247084
16.417609
15.671546
15.000722
14.396838
13.854449
13.36822
12.933702
12.546729
12.203247
11.899214
11.631023
11.395619
11.190408
11.011173
10.85557
10.721614
10.606552
10.508005
10.423712
10.352579
10.292387
10.24197
10.199952
10.165272
10.136936
10.113994
10.095752
10.081854
10.072142
10.066488
10.064406
10.063273
10.061611
10.059468
10.056577
10.05238
10.045813
10.035172
10.019112
10.001297
9.9901848
9.9846069
9.983512
9.9867187
9.995497
10.004004
10.009844
10.011847
10.01063
10.004757
1392.8461
2360.9878
1022.8361
617.57327
421.11185
306.36904
221.17188
175.21264
137.04479
114.81448
96.299212
82.840735
71.797432
62.91818
55.598464
49.50683
44.393663
40.07204
36.388661
33.232243
30.506407
28.14379
26.084556
24.274404
22.678876
21.266183
20.008307
18.885525
17.87985
16.979376
16.173915
15.450443
14.801004
14.216959
13.692973
13.223716
12.8048
12.432154
12.101889
11.810029
11.55289
11.327282
11.131133
10.959934
10.811475
10.68379
10.574882
10.481301
10.401208
10.333715
10.276627
10.228854
10.189068
10.156262
10.129537
10.107985
10.090881
10.077841
10.068727
10.063445
10.061455
10.060006
10.058167
10.055899
10.052932
10.048667
10.042002
10.031365
10.015872
9.9998946
9.9897271
9.9844547
9.9833945
9.9860548
9.9939612
10.001669
10.007015
10.009061
10.008444
10.00377
1417.1814
2391.5483
1013.5868
611.28688
412.80836
302.07219
216.42643
172.58898
134.97425
113.29597
95.065983
81.657993
70.702992
61.871847
54.617577
48.592428
43.542054
39.280992
35.654043
32.551735
29.876169
27.560271
25.546112
23.778116
22.221994
20.846659
19.623934
18.534438
17.559757
16.68772
15.908744
15.210457
14.584879
14.022939
13.519412
13.068976
12.667305
12.310404
11.994558
11.71589
11.470805
11.255913
11.069521
10.907086
10.766244
10.644996
10.541906
10.453651
10.378347
10.314641
10.260824
10.215789
10.178302
10.147405
10.122308
10.102176
10.086266
10.07415
10.06567
10.060768
10.058927
10.057194
10.055179
10.052768
10.049681
10.045279
10.038463
10.027838
10.012967
9.9987562
9.9894121
9.9843771
9.9833298
9.9853888
9.9924767
9.9994299
10.00436
10.006531
10.006557
10.002885
1439.9225
2421.2329
999.78454
603.48362
403.1081
297.38156
211.52283
169.71817
132.88634
111.60706
93.665359
80.288259
69.425265
60.673902
53.503906
47.5595
42.585095
38.396222
34.836127
31.796974
29.179635
26.917408
24.954481
23.23438
21.722908
20.38909
19.205772
18.153572
17.213658
16.37359
15.622294
14.951817
14.352639
13.815133
13.334173
12.90443
12.521662
12.181921
11.881708
11.61726
11.385114
11.182459
11.006316
10.853058
10.720279
10.60585
10.50881
10.425919
10.355086
10.295307
10.245129
10.202939
10.167802
10.138832
10.115349
10.096629
10.081939
10.070802
10.063003
10.058467
10.056757
10.054778
10.052587
10.050013
10.046756
10.042165
10.035192
10.024646
10.010461
9.9979252
9.9893224
9.9844242
9.9833215
9.9848282
9.9910899
9.9972995
10.001844
10.004157
10.005006
10.002752
1461.377
2449.2155
982.11747
594.76098
392.89579
292.30049
206.55812
166.654
130.75657
109.72561
92.031726
78.714869
67.969341
59.318315
52.250927
46.404221
41.520184
37.415954
33.93346
30.966803
28.416653
26.215609
24.309879
22.643783
21.182792
19.892988
18.753465
17.742765
16.8415
16.037485
15.319614
14.67951
14.109112
13.598205
13.141707
12.73426
12.37176
12.05027
11.766547
11.517039
11.298195
11.107125
10.941739
10.798049
10.673698
10.566821
10.475833
10.398434
10.332312
10.276364
10.229451
10.190407
10.157694
10.130664
10.108761
10.091411
10.077927
10.067797
10.06074
10.056569
10.054874
10.05269
10.050318
10.04756
10.044097
10.039297
10.032201
10.02183
10.008403
9.9974167
9.9895013
9.9846646
9.9833883
9.9844143
9.9898045
9.9953062
9.9994582
10.001891
10.003592
10.003108
1481.7794
2471.8015
960.31052
585.51351
382.25589
286.8656
201.62022
163.40567
128.51233
107.55623
90.149009
76.926999
66.32242
57.796859
50.852613
45.121749
40.343564
36.337896
32.945151
30.060578
27.586991
25.455633
23.610851
22.004968
20.601118
19.364691
18.273958
17.309301
16.450755
15.686227
15.004432
14.397188
13.857349
13.374901
12.944494
12.560665
12.219545
11.917169
11.650531
11.416439
11.211432
11.032498
10.877916
10.74387
10.627895
10.527946
10.443036
10.371095
10.3101
10.258111
10.214357
10.178063
10.14803
10.122993
10.102635
10.086588
10.074256
10.065109
10.058844
10.055104
10.05321
10.050851
10.048289
10.045331
10.041647
10.036636
10.029446
10.019323
10.006825
9.9972253
9.9899431
9.9851584
9.9835775
9.9841911
9.9886632
9.9934882
9.9972561
9.9998265
10.002312
10.002869
1501.3902
2484.3687
934.41145
575.63384
371.25232
281.11514
196.78229
159.89264
126.03254
105.10619
87.989807
74.906966
64.472112
56.099468
49.301572
43.707167
39.052751
35.159709
31.870443
29.075048
26.687777
24.63583
22.865763
21.327705
19.987568
18.809895
17.773027
16.858357
16.046301
15.324623
14.681838
14.109693
13.600414
13.147757
12.744678
12.385417
12.066479
11.783846
11.534659
11.316218
11.125185
10.959281
10.815432
10.690941
10.583453
10.490636
10.411608
10.344756
10.288277
10.240652
10.200082
10.166353
10.138642
10.115833
10.097033
10.082211
10.070954
10.062709
10.057202
10.053966
10.051707
10.049176
10.046415
10.043247
10.039339
10.03412
10.026822
10.016914
10.005759
9.9973395
9.990617
9.9859102
9.9839201
9.9842081
9.9877466
9.991919
9.9952975
9.9979751
10.001059
10.002166
1520.4297
2476.7238
904.78594
565.16754
359.93008
275.05239
192.03827
155.98784
123.2392
102.33066
85.524531
72.632221
62.402531
54.215175
47.590544
42.154957
37.644907
33.87552
30.704956
28.018924
25.731343
23.769508
22.082529
20.620119
19.349949
18.237057
17.258985
16.396134
15.63358
14.957372
14.355673
13.82083
13.345321
12.922972
12.547807
12.213462
11.916932
11.654221
11.4224
11.219493
11.04189
10.887659
10.75445
10.639299
10.540156
10.455001
10.381801
10.319867
10.267516
10.22373
10.186686
10.155457
10.129837
10.10899
10.091945
10.078303
10.068042
10.060595
10.055694
10.052864
10.050308
10.047589
10.044623
10.041243
10.037118
10.03171
10.024346
10.014789
10.005202
9.9977396
9.9915354
9.9869299
9.9845199
9.9846527
9.9871638
9.9906841
9.9936595
9.9963966
9.9999504
10.001834
1539.0698
2428.7343
872.85799
554.14552
348.34547
268.59039
187.07759
151.66387
120.01811
99.182006
82.719729
70.078322
60.098009
52.134527
45.713061
40.45578
36.112681
32.496886
29.464855
26.903153
24.729016
22.868544
21.273658
19.894576
18.697844
17.654411
16.739761
15.934551
15.223579
14.594637
14.035232
13.538249
13.096501
12.704305
12.356712
12.047075
11.772651
11.529731
11.315042
11.127328
10.962957
10.820005
10.696888
10.590622
10.499126
10.420742
10.353779
10.296613
10.248131
10.207829
10.173898
10.145416
10.121727
10.102648
10.087173
10.074833
10.065495
10.05878
10.05434
10.051752
10.048946
10.046033
10.042866
10.039284
10.034974
10.029461
10.022214
10.013243
10.00508
9.9983851
9.9926368
9.9881639
9.9854967
9.9851693
9.9870145
9.9898476
9.9924109
9.9951319
9.9989622
10.001441
1557.1823
2392.6836
840.70859
542.51336
336.50048
261.18728
181.97486
146.81771
116.25514
95.602542
79.54073
67.221527
57.543467
49.849435
43.65685
38.62121
34.477405
31.039026
28.166517
25.746025
23.69838
21.950202
20.452382
19.163611
18.048422
17.078006
16.229157
15.482963
14.82431
14.242791
13.725815
13.266574
12.85833
12.495493
12.173298
11.887628
11.634502
11.410827
11.213753
11.040573
10.889008
10.756782
10.643075
10.545224
10.460966
10.388764
10.327135
10.274716
10.230267
10.193132
10.162042
10.135994
10.114351
10.096832
10.082806
10.071695
10.063232
10.057237
10.053187
10.050562
10.047567
10.044469
10.041125
10.037379
10.032959
10.02747
10.020521
10.01227
10.005278
9.9992219
9.9938736
9.9895301
9.9867483
9.9860447
9.9872613
9.9893924
9.9915009
9.9941402
9.9981465
10.001068
1574.3069
2351.2654
807.68295
529.9338
324.2915
252.60808
176.53669
141.33447
111.8421
91.531808
75.954594
64.041441
54.720541
47.345664
41.447051
36.673442
32.762758
29.52803
26.834937
24.571453
22.658167
21.032052
19.641902
18.44744
17.415919
16.520036
15.737542
15.05048
14.443556
13.906918
13.431293
13.008603
12.63273
12.298627
12.00199
11.738907
11.505854
11.299821
11.118257
10.958883
10.819639
10.698486
10.593496
10.503407
10.42589
10.359463
10.302767
10.254607
10.21391
10.179701
10.151193
10.127401
10.107682
10.091542
10.078769
10.068705
10.061128
10.055825
10.052208
10.049268
10.04614
10.042886
10.039405
10.035555
10.031101
10.025713
10.019096
10.011729
10.00566
10.000174
9.9952252
9.9910494
9.9881893
9.9871529
9.987795
9.9892333
9.9908475
9.9934354
9.9976893
10.000867
1589.7766
2283.6741
773.02937
515.9005
310.9567
242.70447
170.44892
135.07576
106.67953
86.911773
71.936014
60.519149
51.646508
44.670623
39.119574
34.65074
31.006337
27.998461
25.497625
23.404185
21.638892
20.140352
18.860722
17.762195
16.814366
15.992019
15.274006
14.642767
14.086514
13.594377
13.157957
12.769932
12.424537
12.117141
11.844012
11.601866
11.387517
11.198044
11.031059
10.884327
10.75601
10.6445
10.548404
10.465359
10.393999
10.332863
10.280664
10.236287
10.198771
10.167566
10.141339
10.119529
10.101507
10.086792
10.075124
10.065967
10.0591
10.054332
10.051047
10.047889
10.044653
10.041285
10.037714
10.033809
10.029359
10.024079
10.017816
10.011458
10.006106
10.001152
9.9966077
9.9926537
9.9897655
9.9884099
9.9884974
9.9893045
9.9904895
9.9931423
9.9976563
10.000999
1602.5154
2215.2416
735.84017
499.83914
296.84242
231.28451
163.24107
127.87587
100.69172
81.712984
67.479336
56.695261
48.382533
41.882552
36.733271
32.605431
29.253899
26.487042
24.194855
22.278553
20.664474
19.295283
18.126109
17.121871
16.254911
15.502708
14.844847
14.267927
13.758974
13.308048
12.908017
12.552121
12.235035
11.952409
11.700812
11.477545
11.280148
11.105671
10.95203
10.817055
10.698896
10.596599
10.507784
10.431177
10.365344
10.308991
10.260897
10.220034
10.185544
10.156684
10.132522
10.112458
10.095944
10.082516
10.071839
10.063486
10.057213
10.052825
10.049727
10.046424
10.043106
10.039666
10.036041
10.032111
10.027694
10.022578
10.016754
10.011307
10.006548
10.002107
9.9979697
9.9942824
9.9914354
9.9898147
9.9893694
9.9896043
9.9905046
9.9933484
9.9980853
10.001254
1609.7529
2132.2182
695.88423
480.05163
281.69282
218.03134
154.4382
119.59817
93.878826
75.982566
62.667766
52.676798
45.024452
39.06703
34.361557
30.598321
27.550698
25.03992
22.959619
21.221235
19.756609
18.513491
17.450949
16.536856
15.745896
15.058008
14.456991
13.929255
13.463794
13.050441
12.683322
12.356462
12.065055
11.805082
11.573197
11.366792
11.184495
11.023307
10.88146
10.757123
10.648497
10.553855
10.47177
10.400884
10.339943
10.28781
10.243387
10.20556
10.17385
10.147108
10.124736
10.106165
10.090936
10.078669
10.06886
10.061231
10.05551
10.051423
10.048256
10.04488
10.041499
10.038015
10.034363
10.030439
10.026107
10.02122
10.015854
10.011189
10.00698
10.00304
9.9993207
9.9959389
9.9931929
9.9913679
9.9904485
9.9902021
9.9907867
9.9938834
9.9984749
10.001234
1606.364
2030.4064
652.64393
454.23792
265.33009
202.59705
143.79918
110.26719
86.391208
69.847668
57.685715
48.610188
41.690859
36.318885
32.081383
28.693137
25.950004
23.694046
21.82136
20.254302
18.931672
17.806967
16.843796
16.013499
15.293359
14.665355
14.115102
13.630823
13.202762
12.823019
12.485063
12.183816
11.915024
11.675193
11.461367
11.271008
11.10194
10.952357
10.820527
10.704903
10.604013
10.516347
10.440226
10.374467
10.317848
10.26934
10.228272
10.193289
10.163686
10.138815
10.118029
10.100738
10.086665
10.075231
10.066142
10.059105
10.05388
10.050023
10.046692
10.043267
10.039831
10.036314
10.032649
10.028748
10.02451
10.019864
10.015082
10.011089
10.007426
10.003983
10.000695
9.9976529
9.9950677
9.9931152
9.9917813
9.9910566
9.9914832
9.9944167
9.9984448
10.000923
1586.1639
1900.0588
606.32937
421.72597
247.76068
184.77679
131.54536
100.20745
78.576868
63.631768
52.752939
44.660053
38.504639
33.731106
29.964232
26.946003
24.495378
22.481569
20.803637
19.394986
18.202125
17.18451
16.310492
15.555025
14.898034
14.323373
13.818222
13.372685
12.9781
12.627512
12.314919
12.035833
11.786448
11.563658
11.364847
11.187774
11.030471
10.891164
10.768237
10.660201
10.565752
10.484061
10.413125
10.351871
10.299186
10.254055
10.215564
10.18288
10.155146
10.1318
10.112435
10.09631
10.083044
10.072294
10.063758
10.057203
10.052264
10.04857
10.045101
10.041614
10.038117
10.034563
10.03089
10.027009
10.022843
10.018447
10.014455
10.011034
10.007909
10.004952
10.002102
9.9994174
9.9970359
9.9950531
9.9934654
9.9924138
9.9925721
9.9946937
9.9980217
10.000478
1540.3748
1740.9004
558.10368
383.3086
229.9201
164.84719
118.36063
90.040168
70.890441
57.657399
48.093241
40.986174
35.582571
31.388426
28.07136
25.403744
23.226749
21.427622
19.924555
18.656386
17.577569
16.653221
15.856201
15.165031
14.562407
14.034062
13.567533
13.154865
12.788362
12.462567
12.171492
11.911208
11.678302
11.469985
11.283904
11.118039
10.970612
10.840024
10.724802
10.623575
10.535056
10.458023
10.391298
10.333594
10.283931
10.241339
10.204998
10.174346
10.148328
10.126402
10.10803
10.092766
10.080197
10.069967
10.061884
10.055574
10.050807
10.04717
10.043563
10.039994
10.036421
10.032817
10.029142
10.025339
10.021359
10.017292
10.013968
10.01106
10.008424
10.00592
10.00349
10.001166
9.9990356
9.9971552
9.9955249
9.9942637
9.9938923
9.9950866
9.9975553
9.9997975
1460.7789
1578.897
508.94234
343.80752
205.95426
145.5477
105.18379
80.450098
63.786271
52.237651
43.922163
37.743905
33.035479
29.366856
26.451299
24.093783
22.158548
20.54918
19.196015
18.047964
17.065916
16.220103
15.487213
14.848759
14.28985
13.798347
13.364254
12.979287
12.636726
12.330974
12.057395
11.812343
11.592755
11.396108
11.220263
11.063373
10.923804
10.800067
10.690776
10.594626
10.510395
10.437004
10.373739
10.318994
10.271905
10.231552
10.197117
10.167857
10.143101
10.1222
10.104669
10.090076
10.078134
10.068362
10.060517
10.054362
10.049649
10.045982
10.04223
10.03856
10.0349
10.03123
10.027522
10.023755
10.019959
10.016463
10.013644
10.011196
10.008975
10.006863
10.004808
10.002824
10.00096
9.9992439
9.9976723
9.9963457
9.9956618
9.9961679
9.9978308
9.9995598
1349.1165
1492.2346
462.75181
296.37688
182.12665
127.42787
93.2702
71.957106
57.637895
47.665986
40.457669
35.084457
30.966855
27.736514
25.150763
23.045242
21.305529
19.849822
18.617456
17.566174
16.662288
15.880134
15.199457
14.604066
14.08083
13.619018
13.209748
12.845709
12.520964
12.231043
11.971032
11.737747
11.528383
11.340643
11.172571
11.02248
10.88887
10.770375
10.665722
10.573699
10.493141
10.422902
10.36186
10.309082
10.263618
10.224617
10.191301
10.162998
10.13923
10.119158
10.10234
10.088328
10.076749
10.067283
10.059652
10.053612
10.048922
10.045195
10.04132
10.037546
10.033797
10.030063
10.026319
10.022565
10.018904
10.015955
10.01354
10.011483
10.00962
10.007843
10.0061
10.004385
10.002717
10.001112
9.9995913
9.9982795
9.9974906
9.9975966
9.9985749
9.9996841
1216.8443
1250.9682
422.53957
254.08702
159.96715
112.31576
83.409579
65.097757
52.778405
44.142616
37.852659
33.120971
29.461299
26.564173
24.225213
22.30538
20.707416
19.36162
18.216922
17.235098
16.387106
15.650349
15.00694
14.442435
13.944974
13.504693
13.113572
12.764876
12.453046
12.173492
11.922453
11.696795
11.493943
11.31174
11.148356
11.002206
10.871877
10.75608
10.653612
10.563348
10.484271
10.415645
10.355922
10.304263
10.259747
10.221548
10.188903
10.161124
10.137591
10.117763
10.101146
10.087316
10.075902
10.066583
10.059082
10.053151
10.04853
10.044791
10.04092
10.037128
10.033362
10.029617
10.025872
10.022136
10.018583
10.015954
10.013834
10.012069
10.010497
10.008996
10.007488
10.005937
10.004352
10.002774
10.001275
9.9999625
9.9989941
9.9985688
9.9988033
9.9995513
1097.8294
1112.6805
389.8388
223.36478
143.38544
101.19452
76.103962
60.101043
49.304247
41.66981
36.052417
31.785851
28.455159
25.795858
23.632039
21.843222
20.344537
19.074767
17.988805
17.052751
16.240639
15.532193
14.911296
14.365005
13.883211
13.45562
13.07499
12.734958
12.430298
12.156661
11.910462
11.688745
11.489068
11.309392
11.147989
11.003363
10.874178
10.759213
10.657322
10.567413
10.488433
10.419372
10.359267
10.307182
10.262243
10.223634
10.190601
10.16246
10.138592
10.118449
10.101543
10.087451
10.075804
10.066283
10.058613
10.05255
10.047845
10.044129
10.04043
10.036808
10.033236
10.029712
10.026204
10.022674
10.019228
10.016689
10.01468
10.013055
10.011644
10.01031
10.008947
10.00749
10.005933
10.004344
10.002831
10.001472
10.000285
9.9993191
9.9988439
9.9992721
1043.1441
1071.9094
365.56671
206.28456
132.51512
93.639967
70.656895
56.128912
46.344473
39.415627
34.301261
30.398747
27.339029
24.885842
22.881977
21.219365
19.821643
18.633562
17.614316
16.733198
15.96667
15.296346
14.707572
14.188427
13.729045
13.321166
12.95779
12.633021
12.341904
12.080303
11.844789
11.632531
11.441189
11.268817
11.113775
10.974649
10.850189
10.739255
10.640781
10.553749
10.477179
10.410122
10.351661
10.300923
10.257076
10.219345
10.187012
10.159421
10.135978
10.116156
10.099485
10.085558
10.07402
10.064567
10.056935
10.050886
10.046171
10.042412
10.038611
10.034879
10.031174
10.027526
10.023964
10.020555
10.017621
10.015475
10.01385
10.012572
10.011489
10.010462
10.009371
10.008133
10.006732
10.005244
10.003795
10.002459
10.001191
9.9999437
9.9990222
9.9988376
30458.185
78413.803
36194.262
10298.5
1355.8033
620.79662
442.45218
357.82175
296.87407
241.76093
196.72822
162.5373
137.3578
118.83876
104.63535
92.948383
82.989591
74.484532
67.213431
60.947706
55.498774
50.727391
46.526989
42.810452
39.510896
36.562287
33.918007
31.536964
29.386326
27.440217
25.676691
24.076265
22.621868
21.29838
20.093845
18.998288
18.002777
17.099426
16.281058
15.541095
14.873793
14.27354
13.735238
13.254259
12.82604
12.446301
12.111187
11.81658
11.558664
11.33398
11.139149
10.970887
10.82598
10.701666
10.595221
10.504281
10.427202
10.364273
10.320003
10.296675
10.286013
10.278569
10.271842
10.267072
10.265438
10.267229
10.267402
10.265459
10.263068
10.258856
10.244366
10.204332
10.138351
10.069936
10.021344
9.9912145
9.9769436
9.9710037
9.9958569
10.110186
20159.278
58038.079
23816.681
4874.4508
977.32442
538.27317
405.85801
328.3613
270.17071
217.86537
178.23096
148.67503
127.16668
111.20618
98.577256
87.881694
78.721552
70.909461
64.208336
58.400294
53.324693
48.863712
44.923529
41.426294
38.308586
35.515957
33.005819
30.739687
28.688551
26.829149
25.141253
23.606805
22.210048
20.937034
19.777049
18.720877
17.760183
16.887645
16.096529
15.380668
14.734692
14.153238
13.63151
13.165117
12.749665
12.381084
12.055687
11.769448
11.518723
11.300186
11.110553
10.946637
10.805337
10.684019
10.580075
10.491162
10.415593
10.353844
10.311014
10.289021
10.279192
10.272364
10.266412
10.262578
10.26187
10.264463
10.265635
10.264582
10.262223
10.256367
10.238281
10.193104
10.125125
10.059269
10.014483
9.9881364
9.9760367
9.9717927
10.000381
10.11382
28454.737
34226.957
13047.293
2468.311
841.79097
508.74645
396.1585
313.23653
256.69562
206.11798
170.28268
142.5688
122.58411
107.54666
95.462633
85.158401
76.380969
68.902727
62.471814
56.886889
52.001249
47.703771
43.904526
40.528961
37.514742
34.813357
32.3835
30.18762
28.198813
26.394779
24.756014
23.265147
21.907101
20.668517
19.539397
18.510856
17.574889
16.724497
15.953184
15.255025
14.624874
14.057496
13.5483
13.093027
12.687387
12.327447
12.00963
11.72996
11.484919
11.271269
11.08579
10.925371
10.787012
10.6682
10.566263
10.47906
10.404899
10.344085
10.302423
10.281524
10.272459
10.266289
10.261139
10.258201
10.25832
10.261573
10.263682
10.263347
10.260797
10.252821
10.231311
10.181353
10.112239
10.04935
10.008317
9.985592
9.9755432
9.9729145
10.005567
10.116305
35540.458
23720.567
8194.5825
1534.6009
765.37861
485.9741
383.86757
297.38836
245.48
195.33502
163.1143
136.65768
118.21746
104.02581
92.478034
82.568969
74.163021
66.994437
60.81578
55.441297
50.734549
46.590514
42.923425
39.662065
36.747425
34.130323
31.775838
29.6465
27.717046
25.9659
24.374264
22.925386
21.604802
20.399693
19.300738
18.299304
17.387702
16.559225
15.807584
15.127079
14.512768
13.959523
13.462955
13.018916
12.623214
12.272053
11.961952
11.688981
11.449754
11.241114
11.059907
10.903102
10.767879
10.651588
10.55179
10.466419
10.393878
10.334118
10.293725
10.273997
10.265751
10.260274
10.255934
10.253862
10.254731
10.258495
10.261439
10.261628
10.25871
10.248677
10.223284
10.169113
10.099667
10.040064
10.002746
9.9834819
9.9753934
9.9743339
10.011373
10.117583
39825.786
20194.285
5801.5836
1243.1022
732.33802
468.03485
374.18669
285.11788
237.29473
187.10054
158.04421
132.09025
114.91992
101.23771
90.071816
80.461779
72.346452
65.414344
59.430336
54.220633
49.655622
45.634376
42.074019
38.905743
36.072492
33.527713
31.234432
29.161227
27.282325
25.576575
24.025708
22.61343
21.325753
20.150275
19.078236
18.101133
17.211552
16.403009
15.669368
15.005113
14.405463
13.865367
13.380609
12.947123
12.560798
12.217957
11.915194
11.648618
11.414966
11.21115
11.034077
10.880805
10.748614
10.634832
10.537174
10.45366
10.38277
10.324196
10.28508
10.266524
10.259112
10.25435
10.250815
10.249557
10.251079
10.25517
10.258833
10.259366
10.255822
10.243877
10.214285
10.156537
10.087556
10.031475
9.9978572
9.9817712
9.9754199
9.975942
10.017098
10.117776
42547.204
18839.239
4503.9981
1173.7911
712.43998
450.18296
366.8837
275.42283
230.96493
180.51438
154.07023
128.22451
112.18675
98.831167
87.990064
78.631867
70.760294
64.023631
58.203244
53.133458
48.689524
44.773698
41.30545
38.217923
35.455785
32.97384
30.735128
28.711659
26.877693
25.21257
23.698391
22.319228
21.061491
19.913123
18.865859
17.91125
17.04214
16.252219
15.535474
14.88655
14.300795
13.77321
13.299742
12.876382
12.499088
12.16429
11.868646
11.608293
11.380092
11.181012
11.008033
10.858333
10.729075
10.617815
10.522339
10.440736
10.37156
10.314306
10.276488
10.25912
10.252552
10.248515
10.245765
10.245256
10.247328
10.251615
10.255788
10.256492
10.252322
10.238277
10.204493
10.143778
10.075984
10.023588
9.9936621
9.9804217
9.9755554
9.9776769
10.022525
10.116976
44724.888
16982.61
3642.0877
1124.9506
697.57276
437.67367
361.11586
267.58627
226.00768
175.25418
150.90929
124.97311
109.91222
96.746588
86.185986
77.037866
69.370021
62.795683
57.113239
52.16234
47.821941
43.99678
40.608202
37.590906
34.890925
32.464321
30.275474
28.294877
26.500759
24.872024
23.390905
22.041738
20.811262
19.687709
18.663254
17.729434
16.879348
16.106813
15.405915
14.771438
14.198832
13.683136
13.220447
12.806785
12.438174
12.111142
11.822392
11.568088
11.345215
11.150802
10.981941
10.835639
10.709325
10.600611
10.507355
10.427713
10.360308
10.304498
10.267991
10.251815
10.246086
10.242768
10.24077
10.240937
10.243452
10.247812
10.252229
10.252962
10.247948
10.231902
10.194072
10.130998
10.06503
10.01641
9.9901372
9.9794368
9.9761534
9.979653
10.027801
10.11531
46347.263
14401.164
3088.0469
1094.4767