/*--------------------------------*- C++ -*----------------------------------*\
  =========                 |
  \\      /  F ield         | OpenFOAM: The Open Source CFD Toolbox
   \\    /   O peration     | Website:  https://openfoam.org
    \\  /    A nd           | Version:  12
     \\/     M anipulation  |
\*---------------------------------------------------------------------------*/
FoamFile
{
    format      ascii;
    class       volScalarField;
    location    "0.048";
    object      p;
}
// * * * * * * * * * * * * * * * * * * * * * * * * * * * * * * * * * * * * * //

dimensions      [1 -1 -2 0 0 0 0];

internalField   nonuniform List<scalar> 
16000
(
90054.878
90180.112
90191.817
90325.729
90351.139
90478.193
90527.788
90644.253
90717.12
90827.822
90919.004
91029.428
91134.75
91249.325
91365.695
91487.511
91613.351
91743.828
91878.817
92018.404
92162.599
92311.408
92464.813
92622.773
92785.224
92952.072
93123.196
93298.442
93477.626
93660.53
93846.903
94036.461
94228.887
94423.832
94620.915
94819.731
95019.846
95220.809
95422.151
95623.393
95824.049
96023.632
96221.66
96417.663
96611.186
96801.793
96989.078
97172.663
97352.206
97527.398
97697.969
97863.686
98024.353
98179.81
98329.935
98474.636
98613.853
98747.55
98875.705
98998.305
99115.334
99226.751
99332.48
99432.386
99526.265
99613.853
99694.851
99768.962
99835.917
99895.47
99947.362
99991.292
100026.91
100053.9
100072.25
100083.2
100084.04
100067.36
100086.71
100020.48
89685.58
89827.689
89836.855
89982.814
90009.936
90148.009
90199.92
90327.726
90404.395
90525.21
90622.766
90742.095
90855.698
90979.079
91104.655
91235.883
91371.542
91512.121
91657.54
91807.854
91963.059
92123.135
92288.036
92457.689
92631.988
92810.799
92993.953
93181.245
93372.439
93567.258
93765.393
93966.497
94170.189
94376.057
94583.658
94792.525
95002.168
95212.083
95421.752
95630.657
95838.278
96044.104
96247.64
96448.409
96645.963
96839.883
97029.788
97215.336
97396.222
97572.188
97743.012
97908.514
98068.55
98223.014
98371.83
98514.955
98652.367
98784.064
98910.055
99030.355
99144.969
99253.879
99357.027
99454.3
99545.515
99630.431
99708.775
99780.271
99844.679
99901.797
99951.43
99993.339
100027.24
100052.83
100070.13
100079.92
100078.95
100068.49
100078.63
100016
89347.907
89505.435
89514.366
89673.678
89700.803
89852.586
89906.135
90046.226
90127.692
90258.984
90364.247
90493.103
90616.219
90749.393
90885.345
91027.164
91173.848
91325.758
91482.83
91645.079
91812.473
91984.956
92162.442
92344.815
92531.924
92723.581
92919.564
93119.61
93323.416
93530.642
93740.905
93953.788
94168.838
94385.569
94603.469
94822.002
95040.618
95258.756
95475.853
95691.351
95904.703
96115.384
96322.894
96526.767
96726.575
96921.933
97112.502
97297.993
97478.163
97652.815
97821.798
97985.001
98142.351
98293.808
98439.361
98579.02
98712.815
98840.784
98962.971
99079.414
99190.143
99295.155
99394.408
99487.803
99575.176
99656.309
99730.956
99798.861
99859.811
99913.628
99960.16
99999.221
100030.59
100054.07
100069.58
100077.67
100075.38
100067.97
100071.93
100011.28
89045.185
89213.521
89223.404
89398.016
89424.574
89592.498
89648.21
89802.549
89889.738
90033.022
90147.463
90287.18
90421.424
90565.841
90713.683
90867.568
91026.707
91191.339
91361.401
91536.871
91717.685
91903.75
92094.938
92291.086
92491.988
92697.398
92907.026
93120.537
93337.551
93557.644
93780.352
94005.17
94231.559
94458.95
94686.752
94914.357
95141.15
95366.515
95589.847
95810.557
96028.084
96241.9
96451.521
96656.507
96856.474
97051.091
97240.083
97423.235
97600.384
97771.417
97936.27
98094.921
98247.379
98393.688
98533.908
98668.117
98796.4
98918.842
99035.522
99146.506
99251.839
99351.533
99445.55
99533.796
99616.116
99692.312
99762.154
99825.412
99881.902
99931.462
99973.981
100009.33
100037.35
100058
100071.53
100077.22
100073.34
100066.97
100066.17
100006.3
88780.213
88963.438
88969.977
89163.298
89188.854
89375.159
89433.038
89603.516
89697.747
89854.445
89979.87
90131.673
90278.61
90435.564
90596.586
90763.78
90936.573
91115.109
91299.33
91489.18
91684.56
91885.334
92091.32
92302.291
92517.969
92738.028
92962.09
93189.725
93420.455
93653.754
93889.053
94125.747
94363.197
94600.742
94837.707
95073.408
95307.17
95538.331
95766.255
95990.34
96210.03
96424.82
96634.263
96837.976
97035.641
97227.007
97411.892
97590.174
97761.792
97926.739
98085.052
98236.811
98382.122
98521.116
98653.936
98780.731
98901.644
99016.81
99126.344
99230.336
99328.849
99421.898
99509.447
99591.399
99667.598
99737.852
99801.944
99859.663
99910.843
99955.33
99993.035
100023.87
100047.71
100064.63
100074.96
100078.16
100072.41
100065.8
100060.46
100001.3
88557.726
88758.459
88763.063
88977.316
89001.738
89208.505
89268.627
89456.953
89559.484
89730.46
89868.227
90032.723
90193.356
90363.74
90538.932
90720.537
90908.16
91101.865
91301.566
91507.156
91718.474
91935.311
92157.403
92384.427
92616.007
92851.705
93091.027
93333.423
93578.291
93824.981
94072.805
94321.039
94568.937
94815.742
95060.694
95303.046
95542.072
95777.084
96007.438
96232.548
96451.892
96665.018
96871.553
97071.199
97263.741
97449.038
97627.021
97797.693
97961.112
98117.391
98266.686
98409.183
98545.095
98674.643
98798.053
98915.542
99027.315
99133.549
99234.394
99329.964
99420.329
99505.51
99585.463
99660.079
99729.194
99792.609
99850.112
99901.5
99946.617
99985.308
100017.49
100043.08
100062.27
100074.62
100080.89
100080.73
100072.64
100064.81
100054.66
99996.614
88379.135
88600.694
88602.497
88841.31
88864.63
89095.548
89158.822
89366.584
89477.526
89662.187
89813.243
89991.028
90166.663
90351.946
90542.948
90740.764
90945.085
91155.871
91372.968
91596.183
91825.26
92059.885
92299.677
92544.191
92792.916
93045.276
93300.63
93558.283
93817.486
94077.447
94337.342
94596.324
94853.541
95108.142
95359.301
95606.222
95848.16
96084.431
96314.421
96537.596
96753.512
96961.812
97162.237
97354.616
97538.867
97714.992
97883.066
98043.232
98195.69
98340.683
98478.49
98609.411
98733.758
98851.843
98963.966
99070.411
99171.43
99267.241
99358.02
99443.895
99524.945
99601.184
99672.558
99738.94
99800.147
99855.966
99906.177
99950.577
99989.01
100021.31
100047.37
100067.17
100080.92
100088.03
100089.85
100085.18
100074.35
100064.38
100049.07
99992.751
88238.799
88484.817
88482.288
88750.734
88770.891
89028.56
89095.024
89321.986
89444.43
89644.99
89812.863
90006.634
90200.188
90403.207
90612.745
90829.467
91053.098
91283.494
91520.41
91763.543
92012.515
92266.874
92526.094
92789.569
93056.623
93326.508
93598.41
93871.462
94144.749
94417.325
94688.225
94956.486
95221.156
95481.319
95736.106
95984.716
96226.424
96460.598
96686.705
96904.319
97113.122
97312.907
97503.572
97685.114
97857.623
98021.273
98176.304
98323.017
98461.76
98592.911
98716.87
98834.044
98944.838
99049.641
99148.818
99242.701
99331.581
99415.703
99495.257
99570.379
99641.146
99707.561
99769.55
99826.965
99879.598
99927.21
99969.568
100006.46
100037.71
100063.14
100082.63
100096.17
100103.88
100105.65
100102.15
100092.36
100078.08
100065.02
100044.28
99990.416
88134.33
88408.549
88401.616
88707.058
88721.385
89007.833
89079.353
89328.041
89467.11
89686.023
89874.357
90087.028
90301.564
90525.426
90756.508
90995.121
91240.957
91493.745
91753.112
92018.604
92289.681
92565.713
92845.982
93129.686
93415.942
93703.795
93992.23
94280.186
94566.571
94850.284
95130.231
95405.349
95674.625
95937.115
96191.961
96438.412
96675.827
96903.693
97121.625
97329.369
97526.798
97713.904
97890.794
98057.673
98214.832
98362.634
98501.502
98631.898
98754.315
98869.259
98977.239
99078.754
99174.283
99264.274
99349.137
99429.236
99504.882
99576.329
99643.773
99707.344
99767.104
99823.039
99875.05
99922.958
99966.527
100005.49
100039.58
100068.58
100092.28
100110.49
100123.07
100129.98
100131.32
100126.98
100118.02
100102.92
100084.6
100067.47
100041.2
99990.49
88068.091
88375.252
88365.361
88707.393
88720.911
89039.305
89122.128
89395.847
89554.866
89794.229
90006.744
90241.571
90480.389
90728.524
90984.468
91248.225
91519.384
91797.506
92082.038
92372.327
92667.615
92967.042
93269.647
93574.379
93880.106
94185.633
94489.722
94791.107
95088.527
95380.743
95666.565
95944.879
96214.667
96475.027
96725.192
96964.541
97192.608
97409.082
97613.807
97806.772
97988.104
98158.049
98316.961
98465.279
98603.512
98732.222
98852.005
98963.476
99067.258
99163.965
99254.19
99338.5
99417.423
99491.443
99560.988
99626.433
99688.09
99746.206
99800.963
99852.476
99900.782
99945.837
99987.509
100025.59
100059.8
100089.84
100115.43
100136.3
100152.22
100162.98
100168.42
100168.5
100163.26
100152.72
100137.07
100117.1
100094.63
100072.57
100041.1
99993.921
88046.427
88392.772
88378.959
88761.261
88778.439
89132.995
89230.955
89531.856
89716.478
89979.138
90220.062
90480.987
90747.819
91024.033
91308.482
91600.887
91900.663
92207.146
92519.534
92836.906
93158.213
93482.293
93807.879
94133.621
94458.101
94779.865
95097.443
95409.384
95714.287
96010.827
96297.787
96574.086
96838.799
97091.173
97330.643
97556.832
97769.551
97968.789
98154.702
98327.594
98487.895
98636.141
98772.95
98899.005
99015.024
99121.753
99219.94
99310.325
99393.63
99470.542
99541.71
99607.734
99669.163
99726.484
99780.123
99830.439
99877.726
99922.206
99964.033
100003.29
100039.98
100074.03
100105.25
100133.4
100158.16
100179.21
100196.22
100208.89
100216.95
100220.16
100218.37
100211.51
100199.52
100182.39
100160.7
100135.55
100108.47
100080.99
100045.33
100001.85
88078.213
88471.161
88453.437
88883.476
88905.739
89299.876
89417.189
89746.97
89962.939
90252.166
90525.837
90817.336
91116.367
91424.892
91741.879
92066.735
92398.6
92736.488
93079.25
93425.594
93774.096
94123.216
94471.326
94816.737
95157.732
95492.599
95819.675
96137.375
96444.239
96738.959
97020.414
97287.694
97540.111
97777.213
97998.775
98204.794
98395.469
98571.179
98732.459
98879.968
99014.466
99136.781
99247.787
99348.382
99439.466
99521.927
99596.624
99664.382
99725.974
99782.124
99833.494
99880.686
99924.234
99964.603
100002.19
100037.31
100070.23
100101.13
100130.11
100157.23
100182.44
100205.6
100226.51
100244.86
100260.31
100272.48
100281
100285.55
100285.81
100281.52
100272.52
100258.72
100239.98
100216.32
100188.62
100158.24
100126.16
100092.9
100054.61
100015.63
88164.661
88613.046
88591.986
89076.478
89107.096
89544.545
89688.871
90050.099
90304.54
90625.097
90936.623
91264.125
91600.362
91946.094
92300.162
92661.557
93029.006
93401.068
93776.126
94152.417
94528.055
94901.069
95269.434
95631.121
95984.136
96326.573
96656.662
96972.817
97273.672
97558.119
97825.328
98074.757
98306.147
98519.515
98715.125
98893.464
99055.204
99201.168
99332.292
99449.594
99554.138
99647.01
99729.292
99802.046
99866.294
99923.009
99973.107
100017.44
100056.79
100091.86
100123.31
100151.68
100177.48
100201.12
100222.94
100243.21
100262.13
100279.84
100296.39
100311.77
100325.88
100338.55
100349.51
100358.41
100364.86
100368.45
100368.77
100365.43
100358.09
100346.48
100330.45
100309.84
100284.39
100254.22
100220.59
100185.02
100147.68
100108.47
100069.08
100035.62
88310.812
88825.007
88801.241
89347.602
89392.871
89877.539
90058.143
90454.135
90754.802
91112.989
91468.384
91838.325
92217.654
92606.073
93002.019
93403.903
93809.871
94217.891
94625.769
95031.183
95431.735
95824.991
96208.549
96580.092
96937.461
97278.712
97602.175
97906.498
98190.678
98454.072
98696.398
98917.709
99118.373
99299.025
99460.524
99603.908
99730.345
99841.09
99937.447
100020.73
100092.25
100153.26
100204.99
100248.57
100285.08
100315.51
100340.77
100361.68
100378.99
100393.35
100405.34
100415.46
100424.13
100431.7
100438.45
100444.57
100450.2
100455.42
100460.21
100464.52
100468.17
100470.95
100472.52
100472.5
100470.46
100465.94
100458.47
100447.62
100433.02
100414.4
100391.62
100364.42
100332.46
100295.99
100256.63
100215.91
100172.98
100128.04
100088.76
100060.83
88523.221
89116.11
89091.493
89708.134
89775.306
90311.192
90539.294
90975.184
91331.019
91735.289
92141.982
92561.828
92990.725
93427.328
93869.416
94314.658
94760.48
95204.14
95642.769
96073.43
96493.195
96899.222
97288.846
97659.669
98009.631
98337.078
98640.801
98920.047
99174.524
99404.363
99610.082
99792.528
99952.818
100092.27
100212.37
100314.65
100400.74
100472.22
100530.66
100577.59
100614.43
100642.53
100663.13
100677.38
100686.32
100690.89
100691.94
100690.21
100686.36
100680.97
100674.53
100667.43
100660.04
100652.59
100645.3
100638.28
100631.61
100625.28
100619.24
100613.33
100607.36
100601.02
100593.94
100585.7
100575.81
100563.77
100549.07
100531.21
100509.8
100484.58
100455.38
100421.88
100383.67
100341.26
100296.56
100250.7
100201.78
100151.47
100113.57
100090.73
88808.188
89495.099
89472.46
90168.889
90269.172
90862.066
91152.28
91636.566
92058.032
92518.653
92984.904
93462.165
93946.541
94435.609
94926.289
95415.34
95899.302
96374.594
96837.603
97284.798
97712.854
98118.774
98499.999
98854.497
99180.81
99478.078
99746.026
99984.921
100195.51
100378.95
100536.69
100670.45
100782.09
100873.56
100946.82
101003.84
101046.5
101076.6
101095.84
101105.78
101107.87
101103.41
101093.6
101079.5
101062.04
101042.07
101020.31
100997.4
100973.89
100950.23
100926.81
100903.94
100881.86
100860.74
100840.71
100821.8
100804.02
100787.29
100771.49
100756.4
100741.76
100727.22
100712.35
100696.69
100679.72
100660.87
100639.58
100615.31
100587.63
100556.31
100521.11
100481.61
100437.49
100389.63
100340.1
100289.23
100234.06
100178.79
100143.62
100125.54
89172.965
89972.216
89957.029
90748.215
90898.599
91558.496
91927.902
92471.413
92969.071
93496.391
94029.853
94570.726
95114.622
95657.849
96196.158
96725.131
97240.241
97737.032
98211.289
98659.222
99077.62
99463.969
99816.522
100134.32
100417.16
100665.54
100880.55
101063.77
101217.15
101342.91
101443.42
101521.13
101578.48
101617.84
101641.5
101651.58
101650.09
101638.85
101619.5
101593.55
101562.32
101527.01
101488.65
101448.15
101406.32
101363.83
101321.28
101279.16
101237.9
101197.83
101159.22
101122.28
101087.15
101053.91
101022.61
100993.21
100965.65
100939.78
100915.41
100892.28
100870.04
100848.3
100826.59
100804.4
100781.17
100756.3
100729.15
100699.15
100665.86
100629
100588.27
100543.18
100493.64
100440.98
100387.28
100331.71
100270.41
100211.03
100179.93
100166.39
89636.929
90574.556
90578.238
91483.98
91702.056
92439.238
92905.105
93518.992
94102.302
94705.825
95312.842
95921.209
96525.2
97119.37
97697.917
98255.111
98785.518
99284.271
99747.291
100171.46
100554.68
100895.94
101195.21
101453.34
101671.95
101853.22
101999.8
102114.56
102200.57
102260.89
102298.55
102316.45
102317.31
102303.68
102277.88
102242.01
102197.96
102147.42
102091.86
102032.59
101970.74
101907.31
101843.13
101778.94
101715.36
101652.89
101591.98
101532.97
101476.16
101421.76
101369.93
101320.77
101274.34
101230.65
101189.64
101151.23
101115.28
101081.59
101049.9
101019.89
100991.17
100963.29
100935.75
100907.98
100879.4
100849.33
100817.13
100782.17
100744.01
100702.32
100656.68
100606.61
100552.38
100495.79
100438.66
100378.84
100312.29
100250.65
100225.03
100215.49
90232.783
91346.323
91379.135
92417.977
92722.326
93544.647
94125.601
94823.314
95501.683
96189.778
96873.823
97548.175
98204.954
98836.698
99436.248
99997.252
100514.47
100984
101403.39
101771.6
102088.95
102356.88
102577.76
102754.69
102891.21
102991.14
103058.39
103096.85
103110.26
103102.15
103075.78
103034.14
102979.94
102915.57
102843.18
102764.63
102681.55
102595.36
102507.28
102418.35
102329.46
102241.36
102154.67
102069.93
101987.56
101907.91
101831.27
101757.84
101687.8
101621.23
101558.2
101498.72
101442.78
101390.28
101341.15
101295.21
101252.27
101212.07
101174.31
101138.61
101104.54
101071.59
101039.24
101006.89
100973.89
100939.54
100903.15
100864.12
100821.97
100776.31
100726.62
100672.52
100614.73
100555.39
100495.7
100432.22
100361.83
100300.93
100282.48
100275.89
90989.808
92315.283
92391.605
93582.817
94007.027
94926.3
95643.721
96441.727
97222.506
97997.335
98751.931
99477.126
100163.13
100801.54
101385.52
101910.17
102372.64
102772.04
103109.27
103386.72
103607.91
103777.18
103899.37
103979.53
104022.7
104033.81
104017.46
103977.94
103919.14
103844.56
103757.31
103660.1
103555.32
103445.02
103330.97
103214.68
103097.43
102980.3
102864.2
102749.89
102637.98
102528.99
102423.33
102321.32
102223.24
102129.26
102039.53
101954.14
101873.13
101796.52
101724.26
101656.31
101592.56
101532.88
101477.12
101425.07
101376.48
101331.05
101288.42
101248.18
101209.86
101172.93
101136.81
101100.88
101064.44
101026.78
100987.19
100945.07
100899.97
100851.41
100798.81
100742.01
100682.17
100621.58
100560.47
100494.38
100422.14
100364.97
100354.95
100349.75
91937.176
93527.458
93683.698
95044.459
95634.015
96666.137
97536.932
98445.633
99323.253
100167.94
100963.9
101700.24
102367.83
102960.5
103475
103910.84
104269.95
104556.18
104774.78
104931.89
105034.13
105088.21
105100.65
105077.65
105024.91
104947.59
104850.31
104737.11
104611.53
104476.62
104334.99
104188.86
104040.11
103890.31
103740.78
103592.61
103446.7
103303.79
103164.46
103029.2
102898.38
102772.29
102651.14
102535.09
102424.24
102318.65
102218.34
102123.3
102033.47
101948.78
101869.13
101794.4
101724.43
101659.06
101598.08
101541.23
101488.23
101438.74
101392.38
101348.69
101307.18
101267.3
101228.45
101189.96
101151.12
101111.17
101069.44
101025.36
100978.46
100928.21
100874.1
100816.22
100756.12
100695.88
100634.69
100567.64
100496.11
100445.05
100442.97
100439.09
93157.565
95082.613
95363.333
96914.217
97716.392
98870.07
99889.444
100893.79
101831.77
102694.83
103469.33
104147.63
104726.1
105205.15
105588.42
105882.08
106093.96
106232.81
106307.72
106327.62
106300.98
106235.59
106138.46
106015.79
105872.98
105714.67
105544.83
105366.81
105183.42
104997.02
104809.55
104622.61
104437.51
104255.32
104076.89
103902.91
103733.91
103570.31
103412.42
103260.47
103114.62
102974.96
102841.56
102714.41
102593.49
102478.76
102370.13
102267.5
102170.76
102079.76
101994.35
101914.35
101839.59
101769.85
101704.88
101644.41
101588.12
101535.65
101486.58
101440.45
101396.76
101354.93
101314.35
101274.31
101234.08
101192.93
101150.19
101105.32
101057.83
101007.2
100953.04
100895.77
100837.11
100778.69
100718.78
100652.72
100584.71
100541.49
100545.97
100542
94782.606
97121.302
97581.066
99320.496
100370.45
101631.3
102747.47
103781.68
104696.43
105485.52
106144.77
106676.3
107086.66
107385.66
107585.04
107697.39
107735.26
107710.62
107634.42
107516.48
107365.34
107188.39
106991.88
106781.04
106560.26
106333.15
106102.65
105871.18
105640.7
105412.77
105188.64
104969.31
104755.55
104547.95
104346.95
104152.88
103965.97
103786.35
103614.12
103449.3
103291.87
103141.77
102998.94
102863.26
102734.61
102612.86
102497.86
102389.43
102287.41
102191.61
102101.83
102017.88
101939.53
101866.55
101798.66
101735.59
101676.98
101622.45
101571.6
101523.95
101478.99
101436.13
101394.74
101354.11
101313.51
101272.21
101229.57
101185.05
101138.17
101088.42
101035.59
100980.35
100924.41
100868.8
100811.27
100748.13
100685.96
100650.45
100657.9
100652.3
97002.341
99804.7
100505.65
102385.17
103645.85
104953.85
106051.13
106988.62
107753.37
108351.12
108792.84
109094.22
109273.06
109347.68
109335.63
109252.98
109113.98
108930.91
108714.15
108472.36
108212.67
107940.88
107661.68
107378.86
107095.42
106813.73
106535.67
106262.69
105995.93
105736.22
105484.21
105240.35
105004.96
104778.23
104560.29
104351.17
104150.85
103959.26
103776.3
103601.85
103435.76
103277.85
103127.96
102985.9
102851.47
102724.47
102604.7
102491.94
102385.98
102286.62
102193.62
102106.77
102025.83
101950.54
101880.63
101815.78
101755.66
101699.89
101648.04
101599.66
101554.22
101511.15
101469.79
101429.45
101389.39
101348.9
101307.36
101264.23
101218.99
101171.2
101120.81
101068.59
101015.99
100963.52
100909
100850.17
100794.55
100764.13
100769.69
100760.06
100069.24
103247.54
104255.18
106200.75
107503.32
108665.84
109578.69
110266.58
110747.12
111046.83
111193.49
111214.46
111134.69
110976.03
110756.99
110492.89
110196.19
109876.86
109542.85
109200.38
108854.33
108508.45
108165.67
107828.18
107497.65
107175.34
106862.13
106558.66
106265.38
105982.54
105710.28
105448.65
105197.61
104957.07
104726.89
104506.88
104296.85
104096.59
103905.85
103724.4
103552
103388.4
103233.36
103086.62
102947.94
102817.08
102693.81
102577.87
102469.03
102367.07
102271.74
102182.82
102100.05
102023.18
101951.93
101885.97
101824.98
101768.59
101716.39
101667.92
101622.66
101580.04
101539.42
101500.09
101461.33
101422.45
101382.81
101341.85
101299.04
101253.98
101206.71
101157.92
101108.67
101059.09
101007.55
100953.32
100903.2
100873.42
100870.96
100858.03
104242.17
107634.23
108844.7
110529.53
111650.96
112478.84
113011.97
113304.81
113401.75
113345.66
113172.81
112913.27
112591.15
112225.41
111830.69
111418.22
110996.48
110571.87
110149.14
109731.82
109322.46
108922.93
108534.51
108158.1
107794.26
107443.32
107105.43
106780.62
106468.78
106169.76
105883.35
105609.28
105347.26
105097
104858.17
104630.45
104413.52
104207.05
104010.72
103824.21
103647.22
103479.46
103320.62
103170.42
103028.58
102894.85
102768.94
102650.62
102539.62
102435.71
102338.66
102248.21
102164.13
102086.16
102014.01
101947.38
101885.95
101829.37
101777.24
101729.11
101684.49
101642.8
101603.39
101565.56
101528.61
101491.84
101454.59
101416.24
101376.25
101334.24
101290.21
101244.66
101198.21
101150.82
101101.58
101050.84
101004.28
100972.96
100960.99
100943.28
109451.51
112807.67
113922.61
115046.73
115657.38
115942.08
115964.97
115799.11
115498.3
115104.75
114649.81
114156.59
113641.85
113117.66
112592.59
112072.71
111562.24
111064.07
110580.13
110111.63
109659.32
109223.55
108804.42
108401.85
108015.62
107645.43
107290.91
106951.64
106627.19
106317.11
106020.94
105738.22
105468.51
105211.36
104966.35
104733.05
104511.05
104299.98
104099.44
103909.09
103728.56
103557.54
103395.7
103242.73
103098.35
102962.26
102834.19
102713.88
102601.07
102495.53
102397.02
102305.29
102220.12
102141.24
102068.38
102001.26
101939.57
101882.96
101831.06
101783.45
101739.63
101699.03
101661
101624.86
101589.87
101555.33
101520.54
101484.83
101447.62
101408.51
101367.38
101324.43
101279.95
101233.95
101186.25
101137.97
101093.44
101059.32
101036.67
101009.29
115648.07
118153.06
118762.57
119044.54
118952.88
118627.9
118148.61
117575.28
116948.3
116295.03
115633.65
114976.11
114330.13
113700.65
113090.65
112501.87
111935.16
111390.78
110868.65
110368.4
109889.5
109431.33
108993.23
108574.48
108174.36
107792.18
107427.23
107078.84
106746.37
106429.18
106126.68
105838.29
105563.46
105301.68
105052.44
104815.27
104589.71
104375.35
104171.76
103978.57
103795.41
103621.92
103457.77
103302.65
103156.25
103018.28
102888.46
102766.53
102652.24
102545.35
102445.61
102352.81
102266.71
102187.06
102113.59
102046.05
101984.13
101927.52
101875.86
101828.73
101785.66
101746.08
101709.36
101674.78
101641.64
101609.16
101576.63
101543.32
101508.62
101472.04
101433.27
101392.2
101348.89
101303.67
101257.23
101210.83
101166.37
101126
101090.81
101058.64
122250.62
122691.71
122476.7
121932.51
121207.07
120389.84
119536.63
118679.04
117835.49
117016.15
116226.42
115468.81
114744.16
114052.25
113392.32
112763.27
112163.82
111592.64
111048.4
110529.79
110035.53
109564.44
109115.37
108687.26
108279.11
107889.97
107518.96
107165.26
106828.1
106506.73
106200.49
105908.73
105630.84
105366.26
105114.45
104874.9
104647.14
104430.71
104225.19
104030.17
103845.28
103670.16
103504.46
103347.86
103200.06
103060.75
102929.66
102806.52
102691.09
102583.13
102482.41
102388.7
102301.78
102221.42
102147.36
102079.35
102017.12
101960.36
101908.76
101861.91
101819.35
101780.53
101744.82
101711.53
101679.91
101649.18
101618.56
101587.3
101554.74
101520.27
101483.34
101443.55
101400.88
101356.06
101310.48
101265.08
101219.28
101172
101126.3
101092.52
126108.28
125487.18
124578.15
123533.2
122456.32
121391.26
120360.6
119373.58
118433.63
117541
116694.4
115891.81
115130.88
114409.2
113724.4
113074.21
112456.52
111869.36
111310.91
110779.5
110273.59
109791.76
109332.73
108895.28
108478.32
108080.83
107701.85
107340.52
106996.01
106667.58
106354.51
106056.13
105771.84
105501.05
105243.21
104997.81
104764.35
104542.4
104331.52
104131.29
103941.35
103761.33
103590.89
103429.7
103277.47
103133.88
102998.68
102871.6
102752.38
102640.81
102536.66
102439.72
102349.76
102266.56
102189.9
102119.51
102055.16
101996.55
101943.37
101895.24
101851.71
101812.23
101776.17
101742.82
101711.39
101681.07
101651.01
101620.43
101588.59
101554.77
101518.25
101478.41
101435.23
101389.76
101343.73
101297.81
101249.88
101197.38
101145.07
101110.45
104148.89
104123.16
104171.41
104220.03
104254.94
104263.46
104245.23
104215.38
104180.15
104135.48
104076.73
104004.9
103924.32
103839.65
103751.34
103659.43
103564.32
103466.49
103366.38
103264.37
103160.82
103056.08
102950.47
102844.28
102737.78
102631.21
102524.8
102418.77
102313.31
102208.61
102104.83
102002.16
101900.74
101800.73
101702.27
101605.51
101510.6
101417.66
101326.85
101238.3
101152.14
101068.52
100987.58
100909.45
100834.27
100762.19
100693.33
100627.84
100565.85
100507.49
100452.89
100402.18
100355.48
100312.89
100274.55
100240.54
100210.97
100185.92
100165.46
100149.62
100138.42
100131.81
100129.71
100131.93
100138.21
100148.2
100161.33
100177.04
100194.41
100212.69
100231.12
100247.29
100264.38
100269.68
100282.62
100268.68
100267.59
100240.52
100186.86
100226.13
103541.78
103534.89
103545.82
103558.97
103555.65
103546.4
103533.66
103514.53
103483.52
103446.93
103403.85
103355.81
103302.19
103243.98
103181.33
103114.84
103044.74
102971.36
102895.01
102815.99
102734.58
102651.07
102565.73
102478.83
102390.63
102301.39
102211.34
102120.74
102029.82
101938.8
101847.91
101757.36
101667.35
101578.1
101489.8
101402.64
101316.81
101232.5
101149.9
101069.17
100990.51
100914.07
100840.04
100768.58
100699.86
100634.03
100571.27
100511.72
100455.53
100402.86
100353.83
100308.57
100267.23
100229.91
100196.72
100167.78
100143.17
100122.97
100107.25
100096.04
100089.33
100087.09
100089.2
100095.46
100105.6
100119.22
100135.78
100154.66
100174.94
100195.89
100216.52
100235.01
100253.16
100261.08
100274.16
100261.97
100261.79
100233.55
100184.85
100217.38
103115.98
103099.67
103070.03
103038.98
103008.71
102980.59
102948.04
102916.22
102880.97
102845.22
102805.72
102764.81
102720.6
102674.27
102625.07
102573.39
102519.12
102462.38
102403.22
102341.75
102278.08
102212.34
102144.68
102075.24
102004.2
101931.74
101858.03
101783.26
101707.64
101631.36
101554.64
101477.68
101400.68
101323.88
101247.46
101171.66
101096.68
101022.74
100950.04
100878.79
100809.2
100741.47
100675.8
100612.38
100551.41
100493.08
100437.56
100385.03
100335.66
100289.6
100247.01
100208.03
100172.8
100141.43
100114.05
100090.76
100071.65
100056.8
100046.26
100040.07
100038.23
100040.67
100047.26
100057.82
100072.03
100089.48
100109.61
100131.79
100155.09
100178.79
100201.75
100222.5
100241.9
100252.09
100265.36
100254.98
100255.82
100227.67
100182.23
100208.88
102508.73
102486.61
102459.68
102429.65
102399.43
102372.71
102341.61
102313.33
102280.99
102250.44
102216.56
102183.19
102147.26
102110.74
102072.24
102032.36
101990.71
101947.39
101902.32
101855.49
101806.89
101756.53
101704.47
101650.74
101595.43
101538.62
101480.43
101420.97
101360.4
101298.85
101236.5
101173.53
101110.12
101046.46
100982.76
100919.23
100856.08
100793.53
100731.8
100671.11
100611.68
100553.73
100497.47
100443.14
100390.93
100341.05
100293.71
100249.09
100207.38
100168.74
100133.36
100101.36
100072.91
100048.12
100027.12
100010.01
99996.883
99987.822
99982.878
99982.08
99985.415
99992.818
100004.15
100019.21
100037.66
100059.09
100082.9
100108.48
100134.87
100161.38
100186.75
100209.76
100230.61
100242.77
100256.6
100247.8
100249.74
100221.91
100179.62
100200.65
101790.49
101775.41
101761.4
101744.61
101725.63
101710.86
101690.21
101673.78
101652.06
101633.38
101610.46
101589.01
101564.63
101540.42
101514.31
101487.25
101458.61
101428.59
101397.08
101364.03
101329.43
101293.26
101255.51
101216.22
101175.41
101133.12
101089.43
101044.4
100998.15
100950.77
100902.4
100853.17
100803.24
100752.78
100701.97
100651
100600.07
100549.4
100499.18
100449.65
100401.03
100353.55
100307.44
100262.91
100220.19
100179.51
100141.07
100105.07
100071.71
100041.17
100013.63
99989.231
99968.136
99950.474
99936.367
99925.921
99919.23
99916.368
99917.388
99922.313
99931.126
99943.753
99960.05
99979.791
100002.64
100028.17
100055.78
100084.84
100114.4
100143.75
100171.61
100196.86
100219.25
100233.25
100247.79
100240.47
100243.57
100215.64
100176.3
100192.68
101092.59
101086.82
101083.33
101079.02
101070.58
101067.33
101056.82
101052.06
101040.65
101033.52
101021.08
101011.02
100997.43
100984.51
100969.63
100954.12
100937.08
100918.85
100899.31
100878.43
100856.2
100832.58
100807.58
100781.18
100753.4
100724.25
100693.77
100661.99
100628.99
100594.84
100559.63
100523.47
100486.47
100448.79
100410.58
100371.99
100333.22
100294.46
100255.9
100217.76
100180.25
100143.61
100108.04
100073.78
100041.05
100010.08
99981.073
99954.239
99929.776
99907.869
99888.695
99872.415
99859.177
99849.117
99842.355
99838.996
99839.133
99842.836
99850.153
99861.1
99875.654
99893.732
99915.183
99939.771
99967.158
99996.898
100028.39
100060.98
100093.75
100125.98
100156.36
100183.84
100207.87
100223.59
100238.93
100233.04
100237.28
100209.37
100173.49
100184.92
100462.42
100462.68
100464.06
100467.58
100465.74
100470.65
100466.93
100470.69
100466.43
100468.01
100463.66
100463.22
100458.53
100454.48
100448.27
100441.98
100434.44
100426.05
100416.6
100406.09
100394.47
100381.71
100367.78
100352.65
100336.32
100318.79
100300.07
100280.17
100259.14
100237.03
100213.9
100189.84
100164.93
100139.3
100113.07
100086.38
100059.39
100032.27
100005.21
99978.394
99952.027
99926.316
99901.477
99877.726
99855.277
99834.345
99815.137
99797.857
99782.697
99769.841
99759.46
99751.713
99746.746
99744.688
99745.655
99749.751
99757.06
99767.646
99781.549
99798.779
99819.301
99843.025
99869.792
99899.361
99931.388
99965.421
100000.86
100037.04
100073.04
100108.15
100141.05
100170.75
100196.48
100213.86
100230.06
100225.51
100230.83
100203.13
100170.66
100177.51
99895.624
99900.641
99904.864