/*--------------------------------*- C++ -*----------------------------------*\
  =========                 |
  \\      /  F ield         | OpenFOAM: The Open Source CFD Toolbox
   \\    /   O peration     | Website:  https://openfoam.org
    \\  /    A nd           | Version:  12
     \\/     M anipulation  |
\*---------------------------------------------------------------------------*/
FoamFile
{
    format      ascii;
    class       volScalarField;
    location    "0.048";
    object      rho;
}
// * * * * * * * * * * * * * * * * * * * * * * * * * * * * * * * * * * * * * //

dimensions      [1 -3 0 0 0 0 0];

internalField   nonuniform List<scalar> 
16000
(
1.0598596
1.0927268
1.08057
1.0889385
1.0850881
1.0885498
1.0875655
1.0894067
1.089544
1.09076
1.0914078
1.0924241
1.0933
1.0942963
1.0952909
1.0963376
1.0974163
1.0985348
1.0996912
1.1008863
1.1021202
1.1033929
1.1047041
1.1060534
1.1074402
1.1088636
1.1103225
1.1118154
1.1133409
1.114897
1.1164814
1.1180917
1.1197252
1.1213788
1.1230492
1.1247331
1.1264265
1.1281257
1.1298265
1.1315249
1.1332166
1.1348973
1.136563
1.1382093
1.1398324
1.1414283
1.1429934
1.1445243
1.1460177
1.1474709
1.1488811
1.1502462
1.1515642
1.1528334
1.1540526
1.1552209
1.1563378
1.1574032
1.1584177
1.1593823
1.1602985
1.161169
1.161997
1.1627869
1.1635438
1.164274
1.1649851
1.1656856
1.1663839
1.1670863
1.1677914
1.1684804
1.1691053
1.1695922
1.1698781
1.1699568
1.1696905
1.1688179
1.1679817
1.1665145
1.0567099
1.0900732
1.0774422
1.0862271
1.0821596
1.0858849
1.0848046
1.0868155
1.0869495
1.0882667
1.0889681
1.0900598
1.0910106
1.0920817
1.0931575
1.0942856
1.0954499
1.0966562
1.0979033
1.0991917
1.1005214
1.1018921
1.1033032
1.1047542
1.106244
1.1077714
1.1093348
1.1109325
1.1125623
1.1142218
1.1159084
1.1176189
1.1193502
1.1210986
1.1228603
1.1246313
1.1264074
1.1281843
1.1299573
1.1317222
1.1334743
1.1352092
1.1369227
1.1386104
1.1402685
1.1418932
1.143481
1.145029
1.1465341
1.147994
1.1494066
1.15077
1.1520828
1.1533439
1.1545525
1.1557082
1.1568109
1.1578611
1.1588596
1.1598077
1.1607075
1.1615617
1.1623738
1.1631481
1.16389
1.1646054
1.1653012
1.1659853
1.1666654
1.167346
1.1680245
1.1686803
1.1692643
1.1697028
1.1699385
1.1699696
1.169629
1.1687517
1.1678371
1.1664498
1.0538695
1.087655
1.0746068
1.0837488
1.0795424
1.0834669
1.0823586
1.0844896
1.0846657
1.0860662
1.086842
1.0880105
1.0890474
1.0902017
1.0913683
1.092588
1.093848
1.0951524
1.0965005
1.0978923
1.0993275
1.1008054
1.1023253
1.1038861
1.1054865
1.1071246
1.1087985
1.110506
1.1122443
1.1140105
1.1158012
1.117613
1.1194417
1.1212833
1.1231333
1.1249872
1.1268402
1.1286875
1.1305242
1.1323456
1.1341468
1.1359234
1.1376709
1.1393854
1.1410629
1.1427001
1.1442939
1.1458416
1.147341
1.1487901
1.1501875
1.1515318
1.1528225
1.1540589
1.1552409
1.1563686
1.1574426
1.1584636
1.159433
1.1603525
1.1612244
1.1620517
1.162838
1.1635878
1.1643062
1.1649991
1.165673
1.1663346
1.166991
1.1676443
1.1682897
1.1689048
1.1694386
1.1698188
1.1699994
1.1699765
1.1695542
1.1686583
1.1677005
1.1663868
1.0513428
1.0854772
1.0720129
1.0815242
1.0771855
1.0813373
1.0802069
1.0824751
1.0827031
1.0841992
1.0850633
1.0863202
1.0874577
1.088708
1.0899787
1.091303
1.0926711
1.0940858
1.0955463
1.0970524
1.0986035
1.1001987
1.1018367
1.1035162
1.1052353
1.1069918
1.1087831
1.1106063
1.1124581
1.1143348
1.1162324
1.1181465
1.1200725
1.1220055
1.1239405
1.1258722
1.1277953
1.1297046
1.1315948
1.133461
1.1352982
1.1371018
1.1388677
1.140592
1.1422713
1.1439026
1.1454834
1.1470117
1.1484859
1.1499047
1.1512676
1.152574
1.153824
1.1550178
1.1561558
1.1572391
1.1582684
1.1592453
1.1601715
1.1610489
1.1618802
1.1626684
1.1634173
1.1641312
1.1648151
1.1654747
1.1661156
1.1667442
1.1673665
1.167982
1.168584
1.1691486
1.1696239
1.1699386
1.1700658
1.1699856
1.1694767
1.1685628
1.167581
1.1663259
1.049165
1.0836614
1.0698235
1.0796171
1.0751442
1.0795581
1.0784197
1.0808302
1.0811317
1.0827305
1.0837016
1.0850566
1.0863081
1.0876656
1.0890509
1.0904901
1.091976
1.0935106
1.095093
1.0967228
1.098399
1.1001205
1.1018856
1.1036922
1.1055379
1.1074199
1.1093348
1.1112789
1.1132481
1.1152377
1.1172429
1.1192585
1.121279
1.1232987
1.1253119
1.1273127
1.1292953
1.1312541
1.1331836
1.1350786
1.1369344
1.1387466
1.1405113
1.142225
1.1438851
1.1454892
1.1470355
1.1485229
1.1499506
1.1513184
1.1526265
1.1538753
1.1550657
1.1561987
1.1572757
1.158298
1.1592674
1.1601857
1.161055
1.1618776
1.1626564
1.1633945
1.1640956
1.1647638
1.1654039
1.1660211
1.1666208
1.1672081
1.167788
1.1683574
1.1689075
1.169413
1.1698219
1.1700629
1.1701337
1.1699898
1.1693932
1.1684677
1.1674677
1.1662697
1.0473813
1.0822234
1.068042
1.0781375
1.073606
1.0782043
1.0770579
1.0796276
1.0800217
1.0817277
1.0828185
1.0842756
1.0856485
1.08712
1.0886274
1.0901901
1.0918033
1.0934678
1.0951829
1.0969475
1.0987602
1.1006192
1.102522
1.1044659
1.1064476
1.1084631
1.1105083
1.1125783
1.114668
1.1167718
1.1188837
1.1209975
1.1231069
1.1252054
1.1272865
1.1293438
1.1313712
1.1333627
1.1353128
1.1372166
1.1390695
1.1408677
1.1426078
1.1442872
1.1459041
1.1474569
1.1489451
1.1503683
1.1517271
1.1530221
1.1542544
1.1554257
1.1565376
1.157592
1.158591
1.1595366
1.1604312
1.161277
1.1620765
1.1628324
1.1635475
1.1642251
1.1648686
1.165482
1.1660696
1.1666361
1.1671864
1.1677249
1.1682542
1.1687698
1.1692595
1.1696979
1.1700344
1.1702014
1.1702153
1.1699862
1.1693115
1.1683787
1.1673616
1.1662221
1.0459995
1.0811844
1.0666966
1.0771144
1.0724691
1.0773069
1.0762107
1.0788989
1.0794021
1.0811982
1.0824159
1.0839791
1.0854833
1.0870812
1.0887244
1.0904258
1.092182
1.0939928
1.0958567
1.097772
1.0997365
1.1017474
1.1038013
1.1058943
1.108022
1.1101794
1.112361
1.1145607
1.1167722
1.1189886
1.1212028
1.1234077
1.125596
1.1277604
1.1298939
1.1319897
1.1340414
1.1360434
1.1379902
1.1398774
1.1417011
1.1434582
1.1451465
1.1467644
1.1483111
1.1497864
1.1511908
1.1525255
1.1537918
1.1549918
1.1561277
1.1572019
1.1582171
1.1591759
1.1600812
1.1609355
1.1617418
1.1625027
1.1632208
1.1638992
1.1645407
1.1651485
1.1657258
1.1662764
1.1668039
1.1673127
1.1678068
1.1682897
1.1687615
1.1692162
1.1696386
1.1700028
1.1702644
1.1703639
1.1703109
1.1699726
1.1692416
1.1682993
1.1672654
1.1661888
1.0449599
1.080487
1.0657181
1.0765044
1.0717799
1.0768347
1.0757608
1.0786321
1.0791837
1.0810921
1.0824693
1.0841638
1.0858251
1.0875746
1.0893771
1.0912405
1.093162
1.0951405
1.0971737
1.099259
1.101393
1.1035719
1.1057911
1.1080453
1.1103287
1.1126348
1.1149566
1.1172867
1.1196172
1.1219402
1.1242472
1.1265302
1.128781
1.1309919
1.1331555
1.135265
1.1373142
1.1392978
1.1412112
1.1430508
1.1448139
1.1464986
1.1481041
1.1496301
1.1510773
1.1524471
1.1537413
1.1549624
1.1561131
1.1571965
1.158216
1.1591748
1.1600765
1.1609245
1.1617221
1.1624724
1.1631787
1.1638439
1.164471
1.1650628
1.1656223
1.1661526
1.1666566
1.1671376
1.1675988
1.1680438
1.1684758
1.168897
1.1693055
1.1696933
1.1700429
1.1703274
1.170511
1.1705543
1.170407
1.1699612
1.1691931
1.1682347
1.1671856
1.1661769
1.0442529
1.0801133
1.0650866
1.0763232
1.0714159
1.0766322
1.075652
1.078636
1.0794308
1.0814827
1.0830495
1.0849002
1.0867434
1.0886708
1.0906576
1.092708
1.0948191
1.0969884
1.0992128
1.1014882
1.1038101
1.1061729
1.1085706
1.1109961
1.1134418
1.1158997
1.118361
1.1208166
1.1232573
1.1256736
1.1280562
1.1303963
1.132685
1.1349146
1.1370776
1.1391678
1.1411797
1.143109
1.1449524
1.1467078
1.1483741
1.1499511
1.1514396
1.1528413
1.1541585
1.1553943
1.1565519
1.1576352
1.1586482
1.1595952
1.1604802
1.1613076
1.1620814
1.1628056
1.163484
1.16412
1.1647171
1.1652783
1.1658066
1.1663049
1.1667761
1.167223
1.1676482
1.1680544
1.1684444
1.1688208
1.169186
1.1695405
1.1698808
1.1701968
1.1704695
1.1706719
1.1707704
1.1707239
1.1704961
1.1699729
1.1691736
1.1681922
1.167131
1.166195
1.0439115
1.0800972
1.0648409
1.0764848
1.0714535
1.0770457
1.0761101
1.0792143
1.0802469
1.0824457
1.0842326
1.0862679
1.0883201
1.0904544
1.0926533
1.0949179
1.0972443
1.0996289
1.1020668
1.1045524
1.1070792
1.1096399
1.1122261
1.1148288
1.1174385
1.1200449
1.1226375
1.1252054
1.127738
1.1302247
1.1326556
1.135021
1.1373126
1.1395226
1.1416446
1.1436733
1.1456049
1.1474367
1.1491675
1.150797
1.1523264
1.1537577
1.1550937
1.1563382
1.1574953
1.1585696
1.159566
1.1604896
1.1613455
1.1621389
1.1628746
1.1635575
1.1641921
1.1647828
1.1653335
1.1658478
1.1663292
1.1667807
1.1672052
1.1676055
1.1679843
1.1683439
1.1686866
1.1690146
1.1693299
1.1696345
1.1699292
1.1702133
1.1704815
1.1707219
1.170915
1.1710343
1.1710481
1.1709164
1.1705881
1.170021
1.1691884
1.1681816
1.1671139
1.1662517
1.0439995
1.0805066
1.0650285
1.0769202
1.0719766
1.0777146
1.0771147
1.0804017
1.0816891
1.0840632
1.0861044
1.0883584
1.0906505
1.0930234
1.0954646
1.0979722
1.1005412
1.1031658
1.1058391
1.1085534
1.1112996
1.1140678
1.1168471
1.1196262
1.1223928
1.1251347
1.1278393
1.1304945
1.1330882
1.1356094
1.1380478
1.1403942
1.1426408
1.1447814
1.1468111
1.148727
1.1505273
1.1522121
1.1537827
1.1552417
1.1565925
1.1578398
1.1589887
1.1600448
1.1610141
1.1619027
1.1627169
1.1634626
1.164146
1.1647727
1.1653482
1.1658775
1.1663655
1.1668165
1.1672345
1.167623
1.1679853
1.1683243
1.1686428
1.1689431
1.1692276
1.1694982
1.1697568
1.1700049
1.1702438
1.1704744
1.1706966
1.170908
1.1711015
1.171264
1.1713762
1.1714128
1.1713433
1.1711314
1.1707353
1.1701099
1.169242
1.1682116
1.1671479
1.166358
1.0446007
1.0814204
1.0657505
1.07792
1.0731633
1.0791664
1.0787941
1.082253
1.0838568
1.0864333
1.0887628
1.0912736
1.0938395
1.0964861
1.0992027
1.1019847
1.1048245
1.107714
1.1106431
1.113601
1.1165755
1.1195534
1.122521
1.125464
1.1283677
1.1312177
1.1339999
1.136701
1.1393086
1.1418116
1.1442008
1.1464684
1.1486088
1.1506181
1.1524945
1.1542381
1.1558507
1.1573354
1.1586968
1.1599405
1.1610728
1.1621007
1.1630314
1.1638724
1.1646311
1.165315
1.1659311
1.1664862
1.1669867
1.1674387
1.1678478
1.168219
1.1685571
1.1688662
1.1691502
1.1694122
1.1696552
1.169882
1.1700947
1.1702955
1.1704862
1.1706684
1.1708432
1.1710115
1.1711738
1.1713301
1.171479
1.1716165
1.1717343
1.1718185
1.1718503
1.1718059
1.1716567
1.1713699
1.1709094
1.1702373
1.1693382
1.1682862
1.1672409
1.1665276
1.045712
1.0828428
1.0670072
1.0795698
1.0749944
1.0812307
1.0812024
1.0848539
1.0868315
1.089653
1.0923113
1.0951249
1.0980059
1.1009667
1.1039961
1.1070859
1.1102252
1.1134018
1.1166018
1.1198104
1.1230114
1.1261883
1.1293239
1.132401
1.1354029
1.1383134
1.1411176
1.1438022
1.1463556
1.1487687
1.1510344
1.1531484
1.1551085
1.156915
1.1585702
1.1600784
1.1614452
1.1626777
1.1637837
1.1647719
1.165651
1.1664303
1.1671186
1.1677248
1.1682574
1.1687243
1.1691333
1.1694911
1.1698045
1.1700793
1.1703209
1.1705342
1.1707234
1.1708925
1.1710446
1.1711828
1.1713095
1.1714269
1.1715369
1.1716411
1.1717408
1.1718369
1.1719301
1.1720204
1.1721075
1.1721905
1.1722668
1.172331
1.1723737
1.1723811
1.172335
1.1722132
1.1719886
1.1716317
1.1711139
1.1704031
1.1694799
1.1684088
1.1673957
1.1667653
1.0473884
1.0848238
1.0688578
1.0818645
1.0775522
1.0840471
1.0844447
1.0883124
1.0907263
1.0938479
1.0968826
1.1000529
1.1032976
1.1066178
1.1099994
1.1134292
1.1168914
1.1203687
1.1238426
1.1272935
1.1307011
1.1340449
1.1373046
1.1404607
1.143495
1.1463912
1.1491353
1.1517158
1.1541246
1.1563563
1.1584087
1.1602823
1.1619805
1.1635088
1.1648745
1.1660864
1.1671544
1.1680892
1.1689016
1.1696028
1.1702035
1.1707144
1.1711454
1.1715061
1.1718053
1.1720511
1.1722511
1.1724121
1.1725401
1.1726408
1.1727189
1.1727789
1.1728245
1.1728589
1.1728849
1.1729049
1.1729209
1.1729344
1.1729468
1.1729594
1.1729727
1.172987
1.1730023
1.173018
1.1730329
1.1730451
1.1730509
1.1730438
1.1730139
1.1729475
1.1728279
1.1726338
1.1723395
1.1719198
1.171353
1.1706118
1.1696689
1.1685855
1.1676149
1.1670615
1.0496881
1.0874229
1.07141
1.0848999
1.08095
1.0877058
1.0886356
1.0927617
1.0956823
1.0991781
1.1026495
1.1062391
1.1099008
1.1136254
1.1173936
1.1211858
1.1249804
1.1287541
1.1324829
1.1361419
1.1397066
1.1431531
1.1464587
1.1496035
1.1525702
1.1553448
1.1579174
1.1602819
1.1624359
1.1643808
1.1661213
1.1676646
1.1690203
1.1701997
1.1712152
1.1720801
1.1728078
1.1734118
1.1739051
1.1743004
1.1746096
1.1748439
1.1750134
1.1751277
1.1751954
1.175224
1.1752207
1.1751914
1.1751417
1.1750764
1.1749997
1.1749151
1.1748257
1.1747341
1.1746425
1.1745524
1.1744655
1.1743826
1.1743047
1.1742323
1.1741652
1.1741034
1.174046
1.1739917
1.1739386
1.1738839
1.1738228
1.173748
1.1736493
1.173514
1.1733262
1.1730654
1.1727081
1.1722338
1.1716277
1.1708634
1.1699048
1.1688181
1.1679007
1.1674124
1.0526691
1.0906743
1.0747911
1.0887553
1.0853
1.0923441
1.0939381
1.0983967
1.1019067
1.1058658
1.1098408
1.1139115
1.1180376
1.1222004
1.1263736
1.13053
1.1346406
1.1386753
1.1426037
1.146396
1.1500244
1.1534635
1.156692
1.1596929
1.1624541
1.1649686
1.1672345
1.1692543
1.1710347
1.1725855
1.1739194
1.1750509
1.1759958
1.1767706
1.1773919
1.177876
1.1782389
1.1784954
1.1786598
1.1787449
1.1787628
1.1787242
1.1786388
1.1785155
1.1783618
1.1781845
1.1779898
1.1777827
1.1775678
1.1773489
1.1771295
1.1769122
1.1766994
1.1764928
1.1762941
1.1761042
1.1759239
1.1757538
1.175594
1.1754444
1.1753044
1.1751732
1.1750492
1.1749307
1.174815
1.1746983
1.1745751
1.1744376
1.1742756
1.1740771
1.1738272
1.1735061
1.1730928
1.1725731
1.1719377
1.1711581
1.1701885
1.1691081
1.1682571
1.1678234
1.0563993
1.0945862
1.0791288
1.0935755
1.0908061
1.0982036
1.1006113
1.1054972
1.1096769
1.1141866
1.1187252
1.1233261
1.1279478
1.1325604
1.1371283
1.1416143
1.1459804
1.150189
1.1542047
1.1579956
1.1615348
1.1648013
1.1677807
1.1704654
1.1728541
1.1749515
1.1767671
1.1783147
1.1796109
1.1806747
1.1815262
1.1821861
1.1826748
1.1830123
1.1832176
1.1833087
1.1833019
1.1832126
1.1830542
1.1828393
1.1825786
1.1822819
1.1819578
1.1816135
1.1812557
1.1808898
1.1805207
1.1801524
1.1797883
1.1794315
1.1790841
1.1787483
1.1784254
1.1781167
1.1778228
1.1775444
1.1772815
1.1770341
1.1768018
1.1765838
1.1763791
1.176186
1.1760026
1.1758264
1.1756542
1.1754816
1.1753024
1.1751083
1.1748895
1.1746347
1.1743293
1.1739548
1.1734939
1.172939
1.1722855
1.1714989
1.1705257
1.1694656
1.1686958
1.1683089
1.0610654
1.0992911
1.084647
1.0996873
1.0977994
1.1056138
1.1089774
1.1143858
1.119303
1.1244415
1.1295929
1.1347541
1.1398741
1.144908
1.1498067
1.1545219
1.159008
1.1632238
1.1671353
1.1707164
1.1739502
1.1768285
1.1793519
1.181528
1.1833712
1.1849003
1.1861379
1.1871086
1.1878382
1.1883526
1.1886772
1.1888363
1.1888527
1.1887475
1.18854
1.1882476
1.1878859
1.1874689
1.1870087
1.1865159
1.1859999
1.1854686
1.1849289
1.1843867
1.1838469
1.1833136
1.1827905
1.1822803
1.1817855
1.1813079
1.180849
1.1804099
1.1799914
1.1795939
1.1792178
1.1788627
1.1785285
1.1782143
1.1779194
1.1776422
1.1773812
1.1771344
1.1768992
1.1766727
1.1764512
1.1762295
1.1760011
1.1757578
1.17549
1.1751868
1.1748339
1.1744143
1.1739159
1.1733381
1.1726777
1.1718925
1.170928
1.1699118
1.1692408
1.1688939
1.0669532
1.105334
1.0917446
1.1074306
1.1066265
1.1148976
1.1193642
1.1254133
1.1311375
1.1369752
1.1427669
1.1484747
1.1540301
1.1593705
1.1644354
1.1691713
1.1735344
1.1774924
1.1810252
1.1841251
1.1867957
1.18905
1.1909089
1.1923989
1.1935503
1.1943955
1.1949677
1.1952996
1.1954223
1.1953654
1.1951562
1.1948195
1.1943776
1.1938504
1.1932555
1.1926084
1.1919224
1.1912091
1.1904785
1.1897391
1.1889979
1.1882612
1.1875338
1.1868199
1.186123
1.1854459
1.1847907
1.1841593
1.1835528
1.1829724
1.1824187
1.1818919
1.1813924
1.1809199
1.1804741
1.1800544
1.17966
1.1792896
1.1789418
1.1786148
1.1783064
1.1780143
1.1777355
1.1774666
1.1772033
1.1769403
1.1766707
1.1763865
1.1760787
1.1757364
1.1753455
1.1748918
1.1743692
1.1737832
1.1731278
1.1723525
1.1714127
1.1704727
1.1699228
1.1696095
1.0742539
1.113328
1.1006304
1.1170289
1.1176529
1.1264691
1.1322059
1.139046
1.1456334
1.1521894
1.1585654
1.1646897
1.1704783
1.1758605
1.1807794
1.1851944
1.1890826
1.192438
1.1952696
1.1975986
1.1994558
1.2008785
1.2019079
1.2025867
1.2029576
1.2030616
1.2029373
1.2026204
1.2021432
1.2015346
1.2008204
1.200023
1.1991621
1.1982544
1.1973146
1.1963549
1.1953858
1.1944161
1.1934531
1.1925029
1.1915706
1.19066
1.1897744
1.1889165
1.1880882
1.1872909
1.1865257
1.1857933
1.1850941
1.1844284
1.183796
1.1831967
1.1826302
1.1820957
1.1815926
1.1811197
1.1806759
1.1802594
1.1798683
1.1795006
1.1791537
1.1788248
1.1785107
1.1782076
1.1779109
1.1776149
1.1773129
1.1769973
1.1766596
1.1762889
1.1758721
1.1753983
1.1748681
1.1742906
1.1736538
1.1729003
1.1720047
1.171172
1.1707629
1.170476
1.0830907
1.1230859
1.1118946
1.1290239
1.1315169
1.1410138
1.1481441
1.155875
1.1632732
1.1704021
1.1771106
1.1833103
1.1889244
1.1939025
1.1982188
1.2018716
1.2048791
1.2072754
1.209106
1.2104237
1.2112845
1.211745
1.21186
1.2116811
1.2112559
1.2106271
1.209833
1.2089069
1.2078779
1.2067712
1.2056082
1.2044072
1.2031834
1.2019497
1.200717
1.199494
1.1982881
1.1971052
1.19595
1.1948262
1.1937368
1.192684
1.1916694
1.1906941
1.1897588
1.1888639
1.1880095
1.1871953
1.1864211
1.1856863
1.1849904
1.1843325
1.1837119
1.1831276
1.1825784
1.182063
1.1815797
1.1811266
1.1807014
1.1803018
1.1799249
1.1795677
1.1792268
1.178898
1.1785764
1.1782564
1.1779314
1.1775946
1.177238
1.1768512
1.1764224
1.1759451
1.1754254
1.1748733
1.1742696
1.1735542
1.1727267
1.172025
1.1717609
1.1715047
1.0941936
1.1355257
1.1264356
1.1443554
1.1491619
1.1594207
1.1678755
1.1763755
1.1842664
1.1915246
1.1980266
1.2037122
1.2085537
1.2125576
1.2157579
1.2182088
1.2199778
1.2211396
1.2217711
1.2219472
1.2217386
1.22121
1.2204196
1.2194184
1.2182509
1.2169554
1.2155643
1.2141052
1.2126012
1.2110713
1.2095316
1.2079951
1.2064724
1.2049723
1.2035017
1.2020661
1.2006698
1.199316
1.1980073
1.1967452
1.1955311
1.1943654
1.1932485
1.1921803
1.1911605
1.1901884
1.1892635
1.1883847
1.1875512
1.1867619
1.1860158
1.1853118
1.1846488
1.1840254
1.1834403
1.1828917
1.182378
1.1818969
1.1814459
1.1810226
1.1806239
1.1802467
1.1798872
1.179541
1.1792033
1.1788683
1.1785301
1.1781825
1.1778185
1.1774283
1.1770026
1.1765387
1.1760464
1.175534
1.1749764
1.174317
1.1735818
1.173025
1.1728923
1.172673
1.1091094
1.1517383
1.1455211
1.1640872
1.1715503
1.1824579
1.1917587
1.2004629
1.2081261
1.2147265
1.2202291
1.2246582
1.2280731
1.2305595
1.2322184
1.2331566
1.2334798
1.2332876
1.2326713
1.2317117
1.2304795
1.229035
1.2274296
1.2257061
1.2239004
1.2220417
1.2201544
1.2182581
1.2163686
1.2144989
1.212659
1.2108571
1.2090994
1.2073908
1.2057347
1.2041339
1.20259
1.2011041
1.1996767
1.198308
1.1969976
1.195745
1.1945493
1.1934095
1.1923244
1.1912929
1.1903135
1.1893848
1.1885056
1.1876743
1.1868896
1.1861502
1.1854545
1.1848013
1.184189
1.1836156
1.1830793
1.1825778
1.1821086
1.1816691
1.1812561
1.1808664
1.1804961
1.1801407
1.1797951
1.179454
1.179112
1.1787639
1.1784032
1.178022
1.1776132
1.1771774
1.1767251
1.1762613
1.1757586
1.1751712
1.174547
1.1741275
1.1740902
1.1739281
1.1293448
1.1730184
1.170578
1.1892391
1.1990669
1.210091
1.2192196
1.2270474
1.23341
1.2383743
1.2420359
1.2445318
1.246014
1.2466372
1.246548
1.24588
1.2447505
1.2432605
1.2414948
1.2395243
1.2374068
1.2351896
1.232911
1.2306015
1.2282857
1.2259829
1.2237083
1.2214738
1.2192887
1.2171598
1.2150923
1.2130899
1.2111553
1.2092901
1.207495
1.2057704
1.2041161
1.2025313
1.2010152
1.1995666
1.1981841
1.1968662
1.1956113
1.1944176
1.1932835
1.1922071
1.1911866
1.1902204
1.1893066
1.1884436
1.1876298
1.1868638
1.1861439
1.1854686
1.1848362
1.1842449
1.1836927
1.1831773
1.1826963
1.1822471
1.1818265
1.1814311
1.181057
1.1806997
1.180354
1.1800151
1.1796782
1.1793384
1.1789904
1.1786281
1.178247
1.1778494
1.1774437
1.1770307
1.1765862
1.1760819
1.1755773
1.1752738
1.175285
1.1751494
1.1574713
1.2001608
1.2027106
1.2207064
1.2309087
1.2407256
1.2482858
1.253985
1.2579509
1.2604212
1.2616307
1.2618098
1.2611657
1.2598785
1.2580999
1.2559546
1.2535438
1.2509484
1.2482326
1.2454468
1.2426303
1.2398137
1.2370204
1.2342685
1.2315715
1.2289396
1.2263801
1.2238983
1.2214978
1.2191808
1.2169485
1.2148014
1.212739
1.2107607
1.2088653
1.2070513
1.2053171
1.2036607
1.2020801
1.2005733
1.1991382
1.1977725
1.1964741
1.1952408
1.1940704
1.1929608
1.1919099
1.1909157
1.1899762
1.1890897
1.1882545
1.1874688
1.1867311
1.1860399
1.1853933
1.1847896
1.1842268
1.1837029
1.1832155
1.1827619
1.1823391
1.1819438
1.1815718
1.1812188
1.1808799
1.1805503
1.1802256
1.1799015
1.1795732
1.1792362
1.1788884
1.1785324
1.1781734
1.1778089
1.1774208
1.1769988
1.1766022
1.1763783
1.1763872
1.176247
1.1960796
1.234969
1.2407267
1.2559727
1.2650606
1.2719412
1.2763084
1.2787079
1.2794988
1.2790445
1.2776429
1.27554
1.2729313
1.2699699
1.2667737
1.2634329
1.2600156
1.2565731
1.2531437
1.2497558
1.2464301
1.2431816
1.240021
1.2369555
1.2339899
1.231127
1.2283681
1.2257136
1.2231629
1.2207147
1.2183674
1.216119
1.2139671
1.2119093
1.209943
1.2080656
1.2062744
1.2045666
1.2029395
1.2013905
1.1999169
1.198516
1.1971854
1.1959226
1.194725
1.1935904
1.1925165
1.1915011
1.1905421
1.1896377
1.1887861
1.1879857
1.1872347
1.1865317
1.1858749
1.1852626
1.184693
1.1841642
1.183674
1.1832199
1.1827988
1.1824075
1.1820419
1.1816977
1.1813703
1.1810551
1.1807477
1.1804437
1.1801388
1.1798293
1.1795143
1.1791961
1.1788776
1.1785547
1.178215
1.1778575
1.1775319
1.1773415
1.1773308
1.1772688
1.2433683
1.2758131
1.2829515
1.2927167
1.2976074
1.2999456
1.3001192
1.2987745
1.2963426
1.2931672
1.2894993
1.2855237
1.2813741
1.2771465
1.2729092
1.2687107
1.2645847
1.2605544
1.2566356
1.2528383
1.2491686
1.2456297
1.2422226
1.2389469
1.2358012
1.2327832
1.2298901
1.2271188
1.2244658
1.2219278
1.219501
1.217182
1.214967
1.2128527
1.2108353
1.2089117
1.2070783
1.205332
1.2036696
1.202088
1.2005844
1.1991557
1.1977993
1.1965125
1.1952926
1.1941373
1.1930441
1.1920109
1.1910354
1.1901159
1.1892504
1.1884374
1.1876752
1.1869623
1.186297
1.1856779
1.1851032
1.1845711
1.1840797
1.1836265
1.1832088
1.1828231
1.1824657
1.1821321
1.181818
1.1815188
1.1812301
1.1809473
1.180666
1.1803828
1.1800965
1.1798082
1.1795189
1.1792267
1.1789268
1.1786251
1.1783582
1.1781877
1.1781268
1.1780261
1.2971337
1.3177637
1.322322
1.324701
1.3239332
1.3213194
1.3174713
1.3128761
1.3078535
1.3026198
1.2973183
1.2920434
1.2868563
1.2817962
1.2768872
1.2721434
1.267572
1.2631756
1.258954
1.2549046
1.2510237
1.2473067
1.2437485
1.2403439
1.2370875
1.2339736
1.2309972
1.2281528
1.2254355
1.2228403
1.2203625
1.2179976
1.2157412
1.2135891
1.2115373
1.2095819
1.2077192
1.2059457
1.204258
1.2026528
1.2011269
1.1996775
1.1983015
1.1969963
1.1957592
1.1945877
1.1934792
1.1924317
1.191443
1.1905111
1.1896344
1.188811
1.1880396
1.1873185
1.1866462
1.1860214
1.1854425
1.1849078
1.1844157
1.1839638
1.1835494
1.1831694
1.1828198
1.1824965
1.1821952
1.1819111
1.1816396
1.1813762
1.1811166
1.1808571
1.1805951
1.1803294
1.1800596
1.1797873
1.1795171
1.1792581
1.1790252
1.1788364
1.1787011
1.1785983
1.3497199
1.3530809
1.3519107
1.3474994
1.3417245
1.3352069
1.3284099
1.3215742
1.3148455
1.3083027
1.3019886
1.2959234
1.290114
1.2845595
1.2792546
1.2741911
1.2693597
1.2647504
1.260353
1.2561577
1.2521549
1.2483354
1.2446905
1.241212
1.2378922
1.2347238
1.2316999
1.2288142
1.2260604
1.223433
1.2209265
1.2185358
1.216256
1.2140827
1.2120115
1.2100381
1.2081588
1.2063698
1.2046675
1.2030486
1.2015098
1.2000481
1.1986604
1.197344
1.1960962
1.1949145
1.1937963
1.1927394
1.1917418
1.1908014
1.1899166
1.1890856
1.1883071
1.1875794
1.1869014
1.1862715
1.1856886
1.1851511
1.1846576
1.184206
1.1837938
1.183418
1.1830747
1.18276
1.1824692
1.1821976
1.1819405
1.1816932
1.1814514
1.1812109
1.1809678
1.1807184
1.180462
1.1802044
1.179957
1.179727
1.1795066
1.1792827
1.17908
1.1789922
1.3836163
1.3761148
1.368678
1.3604837
1.3519697
1.3435441
1.3353743
1.3275345
1.3200536
1.3129348
1.3061698
1.2997442
1.293641
1.2878423
1.2823305
1.2770888
1.2721014
1.2673533
1.2628309
1.2585215
1.2544135
1.2504959
1.246759
1.2431936
1.239791
1.2365436
1.2334438
1.230485
1.2276608
1.2249652
1.2223927
1.2199379
1.217596
1.2153623
1.2132325
1.2112022
1.2092676
1.2074248
1.2056704
1.204001
1.2024132
1.200904
1.1994706
1.1981099
1.1968195
1.1955967
1.194439
1.1933444
1.1923105
1.1913356
1.1904179
1.1895559
1.188748
1.1879928
1.1872891
1.1866356
1.1860311
1.1854743
1.1849638
1.1844976
1.1840735
1.1836882
1.1833381
1.183019
1.1827261
1.1824543
1.1821986
1.1819539
1.1817157
1.1814791
1.1812388
1.1809896
1.1807312
1.1804726
1.180229
1.1800053
1.1797798
1.1795243
1.1792779
1.1791993
1.1629202
1.1665853
1.1807709
1.1921931
1.1974903
1.1987037
1.1987664
1.1984411
1.1984782
1.1982007
1.197941
1.1973869
1.1967994
1.1961698
1.1954954
1.1947803
1.1940303
1.1932512
1.1924478
1.1916241
1.1907842
1.1899315
1.1890693
1.1882004
1.1873274
1.1864529
1.1855788
1.1847072
1.1838401
1.182979
1.1821257
1.1812816
1.1804483
1.1796271
1.1788194
1.1780266
1.17725
1.1764908
1.1757504
1.1750301
1.1743312
1.1736551
1.173003
1.1723764
1.1717766
1.1712051
1.1706633
1.1701527
1.1696745
1.1692303
1.1688214
1.168449
1.1681144
1.1678186
1.1675626
1.1673468
1.1671716
1.1670368
1.1669414
1.1668835
1.1668597
1.1668653
1.1668937
1.1669364
1.1669829
1.1670207
1.1670362
1.1670182
1.1669596
1.1668674
1.1667652
1.1666805
1.1666974
1.1667785
1.1671759
1.1677671
1.1687467
1.1694041
1.1693061
1.1692753
1.1583519
1.1688697
1.1845791
1.1926107
1.1947746
1.1946524
1.1941139
1.1938622
1.1935401
1.1932279
1.1928319
1.1924349
1.1919939
1.191516
1.1910012
1.1904564
1.1898826
1.1892823
1.1886577
1.188011
1.1873445
1.1866604
1.1859608
1.1852481
1.1845243
1.1837916
1.1830521
1.1823079
1.181561
1.1808133
1.1800669
1.1793235
1.1785852
1.1778535
1.1771304
1.1764175
1.1757166
1.1750293
1.1743574
1.1737023
1.1730659
1.1724497
1.1718553
1.1712844
1.1707386
1.1702194
1.1697285
1.1692674
1.1688376
1.1684407
1.1680779
1.1677507
1.1674601
1.1672071
1.1669927
1.1668172
1.1666807
1.1665829
1.1665226
1.1664976
1.1665044
1.166538
1.1665918
1.1666574
1.1667242
1.1667805
1.1668136
1.166814
1.1667772
1.1667133
1.1666456
1.1666063
1.1666656
1.1668104
1.1672756
1.167913
1.1688822
1.1694595
1.1693836
1.1691837
1.1583875
1.1715626
1.1829225
1.1891321
1.1900467
1.1895706
1.189086
1.1888277
1.1885427
1.188264
1.1879399
1.1876094
1.1872476
1.1868724
1.1864718
1.1860514
1.1856093
1.1851466
1.1846638
1.1841617
1.1836411
1.1831032
1.1825492
1.1819804
1.1813981
1.1808039
1.1801993
1.179586
1.1789657
1.1783402
1.1777112
1.1770805
1.1764501
1.1758218
1.1751975
1.174579
1.1739683
1.1733672
1.1727776
1.1722014
1.1716406
1.1710968
1.1705721
1.1700682
1.1695869
1.1691301
1.1686995
1.1682968
1.1679236
1.1675815
1.167272
1.1669963
1.1667557
1.166551
1.1663832
1.1662524
1.1661587
1.1661016
1.1660798
1.1660908
1.166131
1.1661952
1.166277
1.1663679
1.1664576
1.166535
1.1665886
1.1666107
1.1665991
1.1665664
1.1665359
1.1665418
1.1666443
1.1668505
1.1673661
1.1680537
1.1690091
1.1695168
1.1694433
1.1690912
1.1557966
1.1699492
1.1805703
1.1851297
1.1849772
1.1846076
1.1841965
1.1840076
1.1837143
1.1834749
1.1831812
1.1829107
1.182613
1.1823152
1.1819983
1.1816716
1.1813303
1.1809756
1.1806068
1.1802234
1.1798256
1.1794134
1.1789872
1.1785472
1.1780942
1.1776289
1.1771522
1.1766653
1.1761692
1.1756655
1.1751554
1.1746406
1.1741227
1.1736034
1.1730845
1.1725678
1.1720553
1.1715488
1.1710504
1.1705619
1.1700855
1.1696231
1.1691766
1.1687482
1.1683398
1.1679533
1.1675905
1.1672534
1.1669437
1.1666629
1.1664126
1.1661942
1.1660088
1.1658573
1.1657405
1.1656585
1.1656113
1.1655983
1.1656178
1.1656675
1.1657435
1.1658406
1.1659524
1.1660704
1.1661849
1.1662853
1.1663614
1.1664075
1.1664236
1.1664245
1.1664333
1.1664846
1.1666333
1.1668989
1.1674661
1.1681913
1.1691294
1.1695718
1.1694702
1.1689985
1.1502391
1.1664586
1.1762653
1.1796985
1.1792223
1.1791392
1.1788155
1.1787609
1.1785458
1.1784216
1.1782205
1.1780572
1.1778575
1.1776656
1.1774539
1.1772359
1.177004
1.1767609
1.1765051
1.1762365
1.175955
1.1756603
1.1753526
1.1750321
1.1746989
1.1743537
1.173997
1.1736294
1.1732518
1.1728653
1.172471
1.17207
1.1716639
1.171254
1.1708419
1.1704295
1.1700183
1.1696104
1.1692076
1.1688119
1.1684252
1.1680498
1.1676875
1.1673406
1.167011
1.1667007
1.1664118
1.1661461
1.1659053
1.1656912
1.1655054
1.165349
1.1652234
1.1651294
1.1650675
1.1650381
1.1650407
1.1650748
1.1651386
1.1652294
1.1653435
1.1654756
1.1656192
1.1657663
1.1659075
1.1660329
1.1661339
1.1662064
1.1662529
1.1662895
1.1663391
1.1664361
1.166632
1.1669566
1.1675754
1.1683254
1.1692419
1.1696172
1.1694685
1.1689053
1.1444325
1.1631025
1.1715564
1.1743728
1.1737625
1.1739173
1.1736405
1.1737152
1.1735651
1.173547
1.173426
1.1733603
1.1732483
1.1731505
1.1730313
1.172909
1.1727729
1.1726271
1.1724701
1.172302
1.1721226
1.1719317
1.1717294
1.1715155
1.1712901
1.1710536
1.1708062
1.1705483
1.1702805
1.1700035
1.1697182
1.1694256
1.1691266
1.1688227
1.1685151
1.1682054
1.1678951
1.1675861
1.16728
1.1669788
1.1666845
1.1663989
1.1661242
1.1658625
1.1656157
1.1653859
1.1651751
1.1649851
1.1648177
1.1646746
1.1645573
1.1644672
1.1644052
1.1643723
1.1643689
1.1643951
1.1644507
1.1645345
1.164645
1.1647794
1.1649336
1.1651026
1.1652799
1.1654578
1.1656273
1.1657798
1.1659076
1.1660088
1.1660878
1.1661618
1.1662533
1.1663963
1.1666408
1.1670237
1.1676905
1.1684558
1.1693461
1.1696537
1.1694642
1.168811
1.1393921
1.1599716
1.1669543
1.1694515
1.1687477
1.1690903
1.1688237
1.1690011
1.1688897
1.1689543
1.1688944
1.1689124
1.1688743
1.1688501
1.1688015
1.1687554
1.1686976
1.1686332
1.16856
1.1684778
1.1683865
1.1682856
1.168175
1.1680546
1.1679243
1.1677841
1.1676342
1.1674748
1.1673063
1.1671291
1.166944
1.1667517
1.166553
1.166349
1.1661408
1.1659298
1.1657173
1.1655049
1.1652942
1.165087
1.1648851
1.1646903
1.1645046
1.16433
1.1641683
1.1640217
1.1638918
1.1637807
1.1636899
1.1636211
1.1635757
1.1635549
1.1635598
1.1635911
1.1636491
1.1637338
1.1638448
1.1639809
1.1641403
1.1643201
1.1645164
1.1647239
1.1649366
1.1651468
1.1653464
1.1655275
1.1656843
1.1658163
1.1659298
1.1660425
1.1661764
1.1663656
1.1666599
1.1670999
1.1678095
1.1685818
1.1694413
1.169678
1.1694574
1.1687162
1.1347306
1.1571273
1.1626376
1.1650048
1.1642005
1.1646968