/*--------------------------------*- C++ -*----------------------------------*\
  =========                 |
  \\      /  F ield         | OpenFOAM: The Open Source CFD Toolbox
   \\    /   O peration     | Website:  https://openfoam.org
    \\  /    A nd           | Version:  12
     \\/     M anipulation  |
\*---------------------------------------------------------------------------*/
FoamFile
{
    format      ascii;
    class       volScalarField;
    location    "1500";
    object      Ma;
}
// * * * * * * * * * * * * * * * * * * * * * * * * * * * * * * * * * * * * * //

dimensions      [];

internalField   nonuniform List<scalar> 
16200
(
0.5344728918
0.6375155459
0.6957241969
0.7419333203
0.7854063313
0.8317316267
0.8828506517
0.9293331694
0.9459715459
0.9463922716
0.9452856551
0.9442413191
0.9429542221
0.9415353041
0.9398678044
0.9379576609
0.9357315643
0.9331495309
0.9301428504
0.9266450069
0.9225760364
0.9178494798
0.9123705406
0.9060392324
0.8987545757
0.8904222209
0.8809670169
0.8703515056
0.8586011853
0.8458345178
0.8322898385
0.8183324283
0.8044242967
0.7910560289
0.7786645112
0.7675694692
0.7579477428
0.7498423727
0.7431913581
0.7378618273
0.7336814728
0.7304641343
0.7280285961
0.726210688
0.7248695698
0.7238895554
0.7231787432
0.7226661214
0.722297979
0.7220343724
0.7218459727
0.7217114159
0.7216152366
0.7215461496
0.7214960642
0.7214587407
0.7214306443
0.7214080919
0.7213892874
0.7213677113
0.5481084996
0.6548126305
0.7149842136
0.7627797481
0.8081056851
0.8568796208
0.9096865789
0.9495223353
0.9588745441
0.9585586282
0.9573873602
0.9562555038
0.954869712
0.9533323673
0.9515211955
0.9494368566
0.9470011322
0.9441660284
0.9408556532
0.9369936367
0.9324900977
0.9272470957
0.9211582368
0.9141121648
0.9059987573
0.8967196233
0.8862052812
0.8744398544
0.8614935433
0.8475573434
0.8329643135
0.8181744952
0.8037126644
0.7900772735
0.7776589909
0.7666989253
0.757290692
0.7494101911
0.7429532121
0.7377684788
0.7336825755
0.7305177897
0.7281046296
0.7262900047
0.7249417442
0.723950088
0.7232267422
0.7227025948
0.7223247385
0.7220533971
0.7218590866
0.721720167
0.7216208584
0.7215496267
0.721498073
0.7214598713
0.7214310622
0.7214081783
0.7213891937
0.7213660611
0.5615055284
0.6718191739
0.7339254866
0.7833819628
0.830704861
0.8817257148
0.9351179706
0.9655136095
0.9696640499
0.9688267188
0.9675843423
0.9663503455
0.964835737
0.963144706
0.9611510322
0.9588482488
0.9561534462
0.9530094976
0.9493326741
0.9450356861
0.9400175634
0.9341677109
0.9273671994
0.919493384
0.9104291597
0.900077941
0.8883873199
0.8753818851
0.8612030101
0.8461428289
0.8306476519
0.8152687819
0.8005670751
0.7870103591
0.774907621
0.7643977848
0.75548031
0.7480617569
0.7419977591
0.7371220785
0.7332638688
0.7302576115
0.7279493827
0.7262010505
0.7248928628
0.7239243824
0.7232138338
0.7226963911
0.7223218269
0.7220519638
0.7218582295
0.7217194838
0.7216202021
0.7215489875
0.7214974676
0.721459377
0.721430615
0.7214078682
0.7213892617
0.7213661568
0.5738655943
0.6873605942
0.7512132127
0.8024346495
0.8520451418
0.9050639514
0.9560114454
0.9764911305
0.9776605243
0.9766639032
0.9753435311
0.9739903999
0.9723326227
0.9704687081
0.9682697067
0.9657200749
0.9627319496
0.9592379001
0.9551455144
0.9503557075
0.9447556881
0.9382220731
0.9306243719
0.9218318424
0.9117271033
0.9002272626
0.8873156794
0.8730832558
0.8577712073
0.841792623
0.8257037479
0.8101157875
0.795577305
0.7824794917
0.7710202683
0.7612264551
0.753007392
0.7462106524
0.7406627005
0.7361912707
0.7326345076
0.7298435896
0.7276834983
0.7260337606
0.7247893358
0.7238610819
0.7231753894
0.7226730482
0.7223075438
0.7220430734
0.7218525432
0.7217157165
0.7216176088
0.7215471512
0.7214961428
0.721458446
0.7214299152
0.7214073667
0.7213891029
0.721365725
0.5849333824
0.7012995846
0.7667533335
0.8197111163
0.8717727378
0.9267882668
0.9709785984
0.9831153722
0.9829459427
0.9818399642
0.980447604
0.9789533695
0.9771285197
0.975063211
0.9726271231
0.9697939735
0.966470675
0.9625783962
0.9580150482
0.9526689204
0.9464150289
0.9391181104
0.9306390238
0.9208451327
0.9096296792
0.8969406599
0.8828214549
0.8674579509
0.8512147868
0.8346297288
0.818343317
0.8029778701
0.7890169468
0.7767370578
0.7662091621
0.757350582
0.7499930908
0.7439400394
0.7390011964
0.7350070034
0.7318099998
0.7292812287
0.727306552
0.7257846264
0.7246264202
0.7237553079
0.7231069735
0.7226288189
0.7222788792
0.7220243991
0.7218402854
0.7217075968
0.7216121795
0.7215434992
0.7214936851
0.7214568219
0.7214288281
0.7214066432
0.7213888552
0.7213654243
0.594355981
0.713330433
0.7802810439
0.8350043952
0.8894937409
0.9459067904
0.980683324
0.9866626464
0.9855394508
0.9843895251
0.9828054892
0.9811543233
0.9791452638
0.9768561686
0.9741560714
0.9710060679
0.967307054
0.9629678684
0.9578762152
0.9519081655
0.9449279889
0.936791885
0.9273580401
0.9165019974
0.904143268
0.890282969
0.8750519043
0.8587564132
0.8418943107
0.8251091792
0.8090788864
0.7943787708
0.781380029
0.770220647
0.7608438667
0.753071364
0.7466762668
0.7414351135
0.7371539405
0.7336741023
0.7308669915
0.7286255837
0.7268574574
0.7254807717
0.7244228032
0.723619815
0.7230172266
0.7225695206
0.7222397279
0.721998533
0.7218231686
0.7216962458
0.7216046385
0.7215384927
0.7214903781
0.7214546741
0.7214274366
0.7214057286
0.7213884736
0.7213649958
0.6020613017
0.7235139609
0.7919648124
0.8486940181
0.9056579156
0.9609365294
0.985774292
0.9884349401
0.985617706
0.9843114174
0.9825931944
0.9807584968
0.9785360636
0.9759878644
0.9729830375
0.9694691499
0.9653409817
0.9604952919
0.9548100973
0.9481507275
0.9403732127
0.9313300165
0.9208850073
0.908935461
0.8954468852
0.8804988327
0.8643356466
0.8473994786
0.8303113648
0.8137800026
0.7984613432
0.7848288418
0.7731086344
0.7632936686
0.7552119857
0.7486105646
0.7432248987
0.7388213872
0.735213509
0.7322598793
0.7298536308
0.7279104784
0.7263595301
0.7251379653
0.7241889546
0.7234614326
0.7229105283
0.7224979149
0.7221918011
0.7219665155
0.7218018113
0.7216820213
0.7215951853
0.7215322376
0.7214862737
0.7214520267
0.7214257494
0.7214046319
0.7213879838
0.7213645241
0.6079744917
0.7318627245
0.8019793885
0.8610447411
0.9205266603
0.9705227961
0.9851319422
0.984680482
0.9832899573
0.9818625025
0.9799692747
0.9779218154
0.9754545273
0.9726110485
0.9692612037
0.9653385221
0.9607313919
0.9553246976
0.9489871454
0.94157512
0.9329401617
0.9229383415
0.9114512611
0.8984155566
0.8838657682
0.8679855786
0.8511525367
0.8339438202
0.8170719641
0.8012538581
0.787062792
0.7748280135
0.7646162786
0.7562847634
0.7495680992
0.7441626481
0.7397865515
0.7362104128
0.7332638353
0.730827004
0.7288161939
0.7271696155
0.7258369411
0.7247732704
0.7239367351
0.7232882848
0.7227923668
0.7224176605
0.7221375059
0.7219299085
0.7217772116
0.7216655494
0.7215842042
0.7215249636
0.7214815033
0.721448952
0.7214238
0.7214033676
0.7213873857
0.7213639773
0.6120585246
0.7383731955
0.8104951764
0.8721314657
0.9335754255
0.9755119425
0.9820809481
0.9806520089
0.9788128911
0.9772162496
0.9751361375
0.9728543209
0.9701176808
0.9669493558
0.9632196509
0.9588475769
0.9537146237
0.9476944633
0.9406479401
0.9324263228
0.9228833528
0.9118894454
0.8993592572
0.885289091
0.8698067439
0.8532223662
0.8360542456
0.8189934325
0.8027928588
0.7881138188
0.7753952713
0.7647983817
0.7562343915
0.7494458758
0.7441005568
0.73986788
0.736466117
0.7336811415
0.7313645849
0.729420513
0.7277884409
0.726428009
0.7253079531
0.7243998045
0.7236754101
0.7231068088
0.7226671429
0.7223317187
0.7220788034
0.7218899888
0.721750185
0.7216473398
0.721572005
0.7215168527
0.7214761691
0.7214455043
0.7214216132
0.7214019479
0.7213866881
0.7213633652
0.6146599043
0.7435769243
0.8180194223
0.8823046673
0.9435795011
0.9746779044
0.9757933407
0.9743560611
0.972477567
0.9706922434
0.9684007702
0.9658554469
0.9628165097
0.9592852371
0.95513204
0.9502616606
0.9445488813
0.9378581318
0.9300455472
0.9209630717
0.9104753644
0.8984798626
0.8849416955
0.8699391716
0.8537170999
0.8367264866
0.8196160188
0.8031480401
0.788052287
0.7748746774
0.7638851215
0.7550727818
0.7482120409
0.7429589836
0.7389415319
0.7358231099
0.7333358072
0.7312884165
0.7295579606
0.7280730335
0.726795498
0.725704805
0.7247869395
0.7240281745
0.7234126683
0.7229224799
0.7225386885
0.7222427262
0.7220174769
0.7218479411
0.7217215034
0.721627884
0.7215588923
0.7215080875
0.7214703756
0.7214417401
0.7214192155
0.7214003848
0.7213858952
0.7213626831
0.6159809827
0.7478195793
0.8249147915
0.8921138936
0.9496802502
0.9689523177
0.9681687589
0.9665634494
0.9645243759
0.96252409
0.9599960656
0.9571561648
0.953779275
0.9498442042
0.9452211699
0.9398018546
0.9334554282
0.9260401314
0.9174116592
0.9074296324
0.8959800341
0.8830025495
0.8685335649
0.8527577935
0.8360565812
0.8190213433
0.8023987126
0.7869622709
0.7733530502
0.7619558014
0.7528575312
0.7458892181
0.7407167603
0.7369400014
0.7341716917
0.7320859568
0.7304383624
0.7290651479
0.7278699886
0.7268053925
0.7258540021
0.7250131414
0.7242840973
0.7236661384
0.7231542911
0.7227395193
0.7224100255
0.7221528052
0.7219549888
0.7218047539
0.7216918207
0.7216076043
0.7215451314
0.7214988285
0.7214642156
0.7214377102
0.721416631
0.7213986898
0.7213850112
0.7213619313
0.6161387734
0.7513938819
0.8312946711
0.9010722379
0.9516866256
0.9609987233
0.9590677619
0.9573686741
0.9551611953
0.9529185251
0.950123706
0.9469538786
0.9431992319
0.9388166801
0.9336760657
0.9276576871
0.9206263683
0.9124375065
0.9029515349
0.892044683
0.87963798
0.8657329244
0.850461513
0.8341376249
0.8172867794
0.8006188219
0.7849247098
0.7709212354
0.7591049138
0.7496740838
0.7425393623
0.7374002752
0.7338468775
0.731451284
0.7298313396
0.7286839977
0.7277942484
0.7270277391
0.7263144822
0.7256294277
0.7249740374
0.7243614438
0.7238062904
0.7233191389
0.7229044817
0.7225610928
0.7222834836
0.7220636329
0.7218925216
0.7217612429
0.7216616876
0.7215868634
0.7215309539
0.7214892188
0.7214577734
0.7214334612
0.7214138822
0.7213968734
0.7213840397
0.7213611082
0.615273794
0.7546263306
0.8375347535
0.9080810677
0.9461642006
0.9512723946
0.9487677138
0.9469527429
0.9445392501
0.9420249469
0.9389323923
0.9353980313
0.9312268901
0.9263547148
0.920650094
0.91398344
0.9062170047
0.897208317
0.8868307382
0.874990126
0.8616610391
0.8469303801
0.8310499803
0.8144763978
0.7978670974
0.7820052047
0.7676589974
0.755424939
0.7456180336
0.738247234
0.7330695673
0.7296868371
0.7276454277
0.7265139399
0.7259304572
0.7256225418
0.72540747
0.7251803236
0.7248960596
0.7245500873
0.7241605578
0.7237543611
0.723357644
0.7229906666
0.7226660773
0.7223894286
0.7221607607
0.7219764692
0.7218309872
0.7217180531
0.7216315491
0.7215659604
0.7215165551
0.7214793814
0.7214511229
0.7214290351
0.7214109897
0.7213949458
0.721382987
0.7213602133
0.6135739715
0.7577273646
0.8438924193
0.9123463124
0.9393043111
0.9401136095
0.9373859401
0.9354237375
0.9327825157
0.9299721373
0.9265522782
0.92261875
0.9179893704
0.9125800323
0.9062580055
0.8988872652
0.8903321648
0.8804607686
0.8691713667
0.8564163807
0.8422459112
0.8268564665
0.8106370337
0.7941829645
0.7782479924
0.763625819
0.750993976
0.7407807491
0.7331056648
0.7278047699
0.7245145165
0.7227741233
0.7221146257
0.7221197942
0.7224580781
0.722891745
0.723270867
0.7235186556
0.7236129677
0.7235674516
0.7234148109
0.7231937487
0.7229402086
0.7226826987
0.7224408316
0.722225994
0.7220430314
0.7218922211
0.7217710649
0.7216756792
0.721601756
0.7215451375
0.7215020971
0.7214694206
0.7214443285
0.7214244691
0.7214079724
0.7213929174
0.7213818617
0.7213592462
0.611458963
0.7609093774
0.8498281924
0.9132223952
0.9286997497
0.9279504193
0.9250987576
0.9229314876
0.9200271354
0.9168801979
0.9130856526
0.9087006822
0.9035545276
0.897546608
0.8905447945
0.8824119933
0.8730211929
0.8622612939
0.850070208
0.8364670489
0.821601019
0.8057978356
0.7895864402
0.7736747579
0.7588569336
0.7458682182
0.7352387529
0.7272031609
0.7216934976
0.7184030518
0.7168846114
0.7166470495
0.7172286641
0.7182414036
0.7193898477
0.7204722114
0.7213702306
0.7220331215
0.7224592756
0.7226783182
0.7227354696
0.7226794639
0.7225545089
0.7223960688
0.7222296593
0.7220716532
0.7219310456
0.7218115029
0.7217132367
0.7216344864
0.7215725765
0.7215245853
0.7214877112
0.7214594236
0.7214374454
0.7214197965
0.7214048475
0.7213907987
0.7213806699
0.7213582069
0.6093271844
0.764570354
0.8542841059
0.9079927278
0.9166309921
0.9148699058
0.9118842281
0.9094573838
0.9062491998
0.9027198608
0.8985000199
0.8936108987
0.8878925286
0.8812315338
0.8734986006
0.8645614391
0.8543099976
0.8426676879
0.82963126
0.8153095991
0.799971831
0.7840804718
0.7682867236
0.7533635774
0.7400790029
0.7290472695
0.7206147052
0.7148202193
0.7114334049
0.7100418329
0.7101501793
0.711263677
0.7129442622
0.7148399786
0.7166938501
0.718339253
0.7196874228
0.7207110342
0.7214265649
0.7218774441
0.7221195381
0.7222100179
0.722200005
0.722130788
0.7220328535
0.7219268123
0.7218252232
0.7217346968
0.7216578252
0.7215947327
0.7215442084
0.7215044505
0.7214735019
0.7214494624
0.7214305207
0.7214150462
0.7214016308
0.7213886002
0.7213794063
0.7213570949
0.6075942458
0.7682066067
0.8563138065
0.8988716562
0.9030118232
0.9007979587
0.8976572943
0.8949252494
0.8913804091
0.8874322292
0.8827461349
0.8773098265
0.870973249
0.8636142657
0.8551102659
0.8453430541
0.8342330295
0.8217569381
0.8079923836
0.7931583947
0.7776542327
0.762068455
0.7471359178
0.7336333545
0.7222374743
0.7133958224
0.7072580346
0.7036850684
0.7023192467
0.7026802405
0.7042552771
0.7065660617
0.709208732
0.7118712162
0.7143347938
0.71646591
0.7182025826
0.7195382643
0.7205051464
0.7211584547
0.721563027
0.7217830718
0.7218754519
0.7218862995
0.7218502644
0.7217915408
0.7217257351
0.7216620052
0.7216050261
0.7215565895
0.7215167925
0.7214848426
0.7214595514
0.7214395955
0.7214235947
0.721410244
0.721398337
0.7213863299
0.7213780544
0.7213559096
0.6070727405
0.771225816
0.8553163627
0.8880820041
0.8882203159
0.8857428231
0.8824079978
0.8793316014
0.8754143162
0.8710066185
0.8658081012
0.8597762169
0.8527719739
0.8446716613
0.8353677881
0.8247700038
0.8128462598
0.7996460626
0.7853461805
0.7702868619
0.7549923532
0.7401475487
0.7265170058
0.7148168216
0.7055797623
0.6990631115
0.6952286669
0.6937906645
0.6943027847
0.6962509187
0.6991288743
0.7024884885
0.7059658087
0.7092893728
0.7122768714
0.7148249951
0.7168956209
0.7185003571
0.7196849058
0.7205144879
0.7210614429
0.7213958056
0.7215791723
0.7216616781
0.7216814403
0.72166567
0.7216325703
0.7215934959
0.7215549385
0.7215201602
0.7214904228
0.7214658409
0.7214459223
0.7214298703
0.721416701
0.7214054125
0.7213949799
0.7213839937
0.7213765848
0.7213546496
0.6085628957
0.7728935706
0.8513541007
0.8739775966
0.8723514719
0.8696921488
0.8661074305
0.8626382561
0.8583018353
0.8533838556
0.8476200726
0.8409434884
0.8332302074
0.8243652263
0.8142670058
0.8028875221
0.7902581289
0.7765169862
0.7619517225
0.7470235819
0.7323607436
0.7186990288
0.7067717336
0.6971774178
0.6902717523
0.6861207276
0.6845235724
0.6850854788
0.6873081715
0.690671624
0.694693331
0.6989633381
0.7031596082
0.7070499288
0.7104855887
0.7133903896
0.7157471731
0.7175832547
0.7189558638
0.7199386325
0.7206101302
0.7210451812
0.7213092567
0.7214557787
0.7215257367
0.7215488714
0.7215455907
0.7215291388
0.7215075888
0.7214854962
0.7214651576
0.7214475004
0.721432662
0.7214203247
0.7214098684
0.7214005719
0.7213915723
0.7213815942
0.7213750171
0.7213533144
0.612227057
0.7726753897
0.8421841504
0.8585292531
0.8553698825
0.8525061802
0.8486236238
0.8447168557
0.8399200747
0.8344518397
0.8280870007
0.8207418027
0.812312068
0.802702005
0.7918664343
0.7798131705
0.7666514949
0.7526210856
0.7381248645
0.7237317699
0.7101370974
0.698071778
0.6881793429
0.6808997873
0.6764006062
0.6745741858
0.6750920278
0.677488288
0.6812440308
0.6858540496
0.6908703833
0.6959249723
0.7007371065
0.7051111878
0.7089288314
0.7121377928
0.7147391555
0.7167737292
0.7183085228
0.7194242086
0.7202044979
0.7207281238
0.7210637055
0.7212673452
0.7213823976
0.7214407154
0.7214645729
0.7214688358
0.7214629509
0.7214526097
0.7214410268
0.721429857
0.721419805
0.7214109887
0.7214031212
0.7213957401
0.7213881266
0.7213791368
0.721373387
0.7213519066
0.6171416339
0.7706254762
0.8291008653
0.8411879686
0.8371570165
0.8340667808
0.8298508821
0.8254804458
0.8202030731
0.8141698385
0.8071962386
0.7991902686
0.7900719043
0.779775294
0.7683032681
0.7557343449
0.7422702481
0.7282601463
0.7142150447
0.7007822152
0.6886741029
0.6785588692
0.6709435674
0.6660891803
0.6639841182
0.6643773776
0.6668505539
0.6709007608
0.6760127304
0.6817100367
0.6875850328
0.693312068
0.6986495182
0.7034351049
0.7075773918
0.7110450875
0.7138550439
0.7160596108
0.7177340617
0.7189649352
0.719840162
0.7204416404
0.7208405253
0.7210950867
0.7212506142
0.7213407158
0.7213892408
0.7214124433
0.7214209621
0.7214214851
0.72141804
0.7214129317
0.7214073763
0.7214018862
0.72139648
0.7213909334
0.7213846545
0.7213766291
0.7213716656
0.7213504331
0.6210411954
0.7665674798
0.8151633758
0.822369775
0.8177623369
0.8144049877
0.8098359547
0.8049847298
0.7992148711
0.7926125419
0.7850336325
0.7763884179
0.7666275903
0.7557286384
0.743757565
0.7308789067
0.7173967556
0.7037662057
0.6905828028
0.6785280422
0.6682761193
0.6603824746
0.6551893156
0.6527788336
0.6529844709
0.6554478427
0.6596962938
0.6652175011
0.6715171077
0.6781556912
0.6847678904
0.6910688759
0.6968529472
0.7019876224
0.706405156
0.7100924644
0.7130799766
0.7154298849
0.7172244298
0.7185550206
0.7195130292
0.7201828947
0.7206377932
0.72093773
0.7211295665
0.7212483615
0.7213192892
0.7213597902
0.7213815354
0.7213920865
0.721396191
0.7213967342
0.7213953926
0.7213930361
0.7213899626
0.7213861667
0.721381167
0.7213740736
0.7213698654
0.7213489027
0.6241279759
0.7600432495
0.7982342713
0.8022816157
0.7973144406
0.7936252168
0.7886815611
0.7833275349
0.7770458059
0.7698663493
0.7616858055
0.7524311047
0.742094202
0.7307121142
0.7184286611
0.7055040596
0.6923430319
0.6794873915
0.6675789681
0.6572821465
0.6491822063
0.6436875957
0.6409675156
0.6409424057
0.6433233728
0.6476806968
0.6535177561
0.6603333004
0.6676648462
0.6751137569
0.6823563159
0.6891456797
0.6953085117
0.7007386581
0.7053890544
0.7092623806
0.7124007349
0.7148746963
0.7167723706
0.7181891976
0.7192193378
0.7199492479
0.7204536943
0.7207940528
0.7210184512
0.7211631393
0.7212544014
0.7213106898
0.7213445689
0.7213643651
0.721375463
0.7213812662
0.7213838649
0.7213844532
0.7213835844
0.7213814537
0.7213776732
0.7213714741
0.7213680134
0.7213473187
0.6254464019
0.7509395052
0.7795563564
0.7810983037
0.775852967
0.7717545074
0.7664052801
0.7605199193
0.7537025868
0.7459436215
0.7371827346
0.7273797201
0.7165802127
0.7048935648
0.6925497763
0.6799036246
0.6674451608
0.6557706099
0.6455221679
0.6372980063
0.6315565719
0.6285438749
0.628265667
0.6305085492
0.6348963369
0.6409600751
0.648202704
0.6561479095
0.6643709944
0.6725147222
0.6802947433
0.6874987464
0.6939821528
0.6996618899
0.7045088771
0.7085394224
0.7118056536
0.7143852994
0.7163714006
0.7178627235
0.7189556701
0.7197382776
0.7202865423
0.7206629042
0.7209164998
0.7210845485
0.7211942611
0.7212649503
0.7213099524
0.7213382638
0.7213558319
0.721366523
0.7213727997
0.721376149
0.7213773591
0.7213768069
0.7213741814
0.7213688434
0.7213661907
0.7213456715
0.6243893095
0.735294888
0.759149135
0.7587230591
0.7532540748
0.748669264
0.7428904406
0.7364660731
0.7291177791
0.7208165734
0.7115485976
0.7013199432
0.6902394589
0.6784958391
0.6664053776
0.6544058882
0.6430466111
0.6329383672
0.6246778764
0.6187576093
0.6154879021
0.6149545376
0.6170220135
0.6213757538
0.6275851285
0.6351680055
0.6436436475
0.6525689695
0.661559236
0.6702971472
0.6785345469
0.6860900141
0.6928442925
0.6987344541
0.7037470338
0.7079101281
0.7112844993
0.7139539804
0.7160157664
0.7175713594
0.7187189471
0.7195477822
0.7201347885
0.7205432157
0.7208229892
0.7210121112
0.7211385606
0.7212223804
0.7212775731
0.7213137207
0.7213372688
0.7213524961
0.7213621999
0.7213681329
0.7213712987
0.7213722377
0.7213706999
0.7213662107
0.7213644509
0.7213439494
0.6206356693
0.7185122371
0.7368852725
0.7349526879
0.7293130443
0.7242220205
0.718025847
0.7111040116
0.7032825882
0.69453335
0.6848928766
0.6744239065
0.6633051274
0.6518061904
0.6403220203
0.629352719
0.6194728944
0.6112661441
0.6052442917
0.6017685424
0.6009965775
0.6028698536
0.607140656
0.6134256316
0.6212675757
0.6301906386
0.6397412179
0.6495134655
0.6591622234
0.6684074366
0.6770335933
0.6848866077
0.6918693994
0.6979365894
0.7030882805
0.7073627888
0.7108283309
0.7135739649
0.7157003852
0.7173113366
0.7185064117
0.7193757744
0.7199970235
0.7204340046
0.7207372476
0.7209453772
0.7210870061
0.7211827943
0.7212473182
0.7212906722
0.7213197418
0.7213391736
0.7213520659
0.7213604122
0.7213654138
0.7213677561
0.7213672389
0.7213636103
0.7213626063
0.721342175
0.6139865647
0.6998068604
0.7128660467
0.7097890441
0.7040037457
0.6984391773
0.6918645602
0.6845189545
0.6763196163
0.6672563906
0.6574215046
0.6469423467
0.6360699872
0.6251496259
0.6146383121
0.6050695443
0.5970057007
0.5909649448
0.5873458812
0.5863680866
0.5880460637
0.5922013839
0.598504867
0.6065331683
0.6158242647
0.6259219215
0.6364057214
0.6469080077
0.657121211
0.6667992197
0.6757555849
0.6838602477
0.6910354987
0.6972512529
0.7025194295
0.7068872359
0.7104293487
0.7132393139
0.7154207771
0.7170793139
0.7183156039
0.7192204686
0.719871971
0.7203343739
0.7206586553
0.7208839271
0.7210393202
0.7211460137
0.721219078
0.7212690544
0.7213032175
0.7213265419
0.7213423962
0.7213529926
0.7213597141
0.7213633714
0.7213638095
0.7213610554
0.7213607345
0.7213403813
0.6045017243
0.6797436888
0.6873421465
0.683375027
0.6774387352
0.6714517027
0.6645514831
0.6568732015
0.6484168902
0.6392052087
0.6293897788
0.6191659159
0.6088531268
0.5988584334
0.5896765494
0.5818409343
0.5758657525
0.5721741132
0.5710364318
0.5725340155
0.5765573958
0.5828362491
0.5909886233
0.6005746454
0.611143167
0.6222657804
0.6335577764
0.644688631
0.655385486
0.6654326818
0.6746694285
0.6829867109
0.6903237382
0.6966637834
0.7020290965
0.7064746551
0.7100807618
0.7129448315
0.7151730026
0.7168723365
0.718144335
0.7190802658
0.71975848
0.7202435081
0.7205866443
0.7208273729
0.7209952433
0.7211118699
0.7211927465
0.7212488047
0.7212876622
0.721314586
0.7213331878
0.7213458786
0.721354208
0.7213590917
0.7213604249
0.7213585637
0.7213587565
0.721338573
0.5923974677
0.6569447198
0.6604768176
0.6557995318
0.6497234355
0.6433833774
0.6362364544
0.6283461753
0.619788123
0.6106293915
0.6010820947
0.5914068238
0.5819806633
0.5732517984
0.5657236118
0.5598964945
0.5562069019
0.5549646772
0.5563099985
0.5601996521
0.5664245476
0.5746500511
0.5844658704
0.5954333305
0.607122531
0.6191371529
0.6311282799
0.6428002516
0.6539116514
0.6642738539
0.6737486099
0.6822453157
0.6897179814
0.6961615898
0.7016074655
0.7061174142
0.7097766629
0.7126859766
0.7149536011
0.7166877953
0.7179906617
0.7189537378
0.7196555158
0.720160669
0.7205206965
0.7207753572
0.7209545344
0.7210802041
0.7211682229
0.7212298619
0.7212730418
0.72130329
0.7213244365
0.7213390737
0.7213489027
0.7213549248
0.7213570982
0.7213561419
0.7213566922
0.7213367814
0.5779428987
0.6319553755
0.6323899878
0.6271471893
0.6209731576
0.6143765502
0.6070926094
0.5991441212
0.5906751525
0.5818038105
0.5727999445
0.5639806172
0.5557635428
0.5486131488
0.5430120697
0.5393993414
0.5381136365
0.5393450157
0.5431118454
0.5492664837
0.5575257473
0.5675152653
0.5788156905
0.5910019571
0.6036715146
0.6164615533
0.6290574809
0.6411956049
0.6526626204
0.6632937432
0.6729704833
0.6816183602
0.6892043743
0.695733822
0.7012460444
0.7058088822
0.7095118976
0.7124587689
0.7147595254
0.7165233818
0.7178528556
0.7188396071
0.7195621474
0.7200851879
0.7204603391
0.7207275516
0.7209169695
0.7210508677
0.7211454113
0.7212121673
0.7212593229
0.7212926376
0.7213161375
0.7213325804
0.7213438046
0.7213508776
0.7213538442
0.7213537958
0.7213545306
0.721335019
0.5612242422
0.6050824375
0.6032072023
0.5975517385
0.5913311139
0.5846042895
0.577324311
0.5695022445
0.5613437763
0.5530184214
0.5448460878
0.537186327
0.5304767663
0.5251723418
0.5217087953
0.5204429973
0.521605891
0.5252712555
0.5313511446
0.5396161527
0.5497328625
0.5613074139
0.5739256006
0.5871839223
0.600710088
0.6141743178
0.6272939879
0.6398342538
0.6516067349
0.6624676019
0.6723156871
0.6810906681
0.6887709981
0.6953711089
0.7009374679
0.705543284
0.7092819576
0.712259712
0.7145880873
0.7163770499
0.7177293773
0.7187367299
0.7194775365
0.720016459
0.7204051408
0.7206836542
0.7208823413
0.7210237211
0.721124221
0.7211956641
0.7212464727
0.721282612
0.7213082849
0.7213264004
0.7213389186
0.7213469569
0.7213506784
0.7213515269
0.7213522873
0.7213333059
0.5423720655
0.5765465673
0.573062384
0.5671598334
0.5609778358
0.554277761
0.5471755871
0.5396905746
0.5320836387
0.5245716948
0.5175134887
0.5112941417
0.506349433
0.5031010902
0.5019173839
0.5030605993
0.5066531468
0.5126633807
0.520916242
0.5311228962
0.5429202247
0.5559104796
0.5696943097
0.5838942634
0.5981689782
0.6122200488
0.6257940396
0.6386818617
0.6507171227
0.6617743923
0.6717677169
0.6806492555
0.6884076136
0.695065365
0.7006753533
0.7053155928
0.709082902
0.7120857366
0.7144369165
0.7162469873
0.7176188569
0.7186440837
0.7194009295
0.7199539346
0.7203547093
0.7206433881
0.7208504581
0.7209986346
0.7211045664
0.7211802982
0.7212344588
0.7212731963
0.7213008722
0.7213205343
0.7213342484
0.7213431698
0.7213476168
0.7213493346
0.7213499656
0.7213316656
0.5215172022
0.5466128702
0.5419666558
0.5362150043
0.5301786131
0.5236741883
0.516938587
0.5100098687
0.5031965717
0.4967558362
0.4910712934
0.4865350551
0.4835600094
0.4825148013
0.4836862956
0.487237808
0.4931896603
0.5014201567
0.5116872439
0.5236627814
0.5369704819
0.5512199807
0.5660328453
0.5810596054
0.5959890164
0.6105517357
0.6245206123
0.6377093885
0.6499710186
0.6611962356
0.6713124881
0.6802829903
0.6881053981
0.6948095887
0.700454147
0.7051214148
0.7089112707
0.7119341364
0.7143039136
0.7161315821
0.7175200702
0.7185607496
0.7193316456
0.7198971168
0.7203086857
0.7206064987
0.7208211419
0.7209754865
0.7210863663
0.7211660176
0.7212232498
0.7212643733
0.7212938926
0.721314982
0.7213297967
0.7213395235
0.7213446749
0.7213472137
0.7213475767
0.7213301346
0.4988400387
0.5156740354
0.5106335313
0.5049729199
0.4992128941
0.4930758184
0.48689755
0.4807414177
0.4749534238
0.4698205372
0.4657354699
0.4630787015
0.4622217431
0.4634654393
0.4670080991
0.4729164493
0.4811200986
0.4914246164
0.5035399777
0.5171156592
0.5317747496
0.5471418592
0.5628627628
0.5786161546
0.5941192121
0.6091290613
0.6234420092
0.6368919572
0.6493488742
0.6607177241
0.67093781
0.6799821908
0.6878566418
0.6945976329
0.7002689514
0.7049568589
0.7087639874
0.7118024954
0.7141871975
0.7160293835
0.7174319104
0.7184858929
0.7192690631
0.7198455486
0.7202667381
0.7205727484
0.7207942256
0.720954161
0.7210695427
0.7211527713
0.7212128141
0.7212561251
0.721287338
0.7213097419
0.7213255647
0.7213360261
0.7213418664
0.7213451545
0.7213451409
0.7213287563
0.4743473337
0.4841122092
0.4791154659
0.473695458
0.4683463245
0.4627518252
0.4573206994
0.4521444232
0.4475947218
0.4439762143
0.4416749338
0.4410430317
0.4423961336
0.4459581708
0.4518378135
0.4600126204
0.4703355989
0.4825568748
0.4963551789
0.511371041
0.5272358922
0.543593977
0.5601165564
0.5765095357
0.5925163442
0.607917934
0.6225314256
0.6362084862
0.6488340646
0.6603256933
0.6706332109
0.6797384939
0.6876546468
0.6944241277
0.7001154655
0.7048184912
0.7086383241
0.7116886612
0.7140850843
0.7159390868
0.717353377
0.7184187552
0.7192126141
0.7197988094
0.7202285592
0.7205419156
0.7207695517
0.7209345484
0.7210540207
0.7211405096
0.7212031202
0.7212484335
0.7212811997
0.721304811
0.7213215526
0.7213326859
0.7213392014
0.7213431465
0.7213427102
0.7213275479
0.4486188901
0.4523184552
0.4476907648
0.4426370685
0.4378426988
0.4329645292
0.4284619288
0.4244545023
0.4213280639
0.4193926209
0.4190131644
0.4204997505
0.424101968
0.4299628867
0.4381052819
0.4484282271
0.4607231789
0.4747007804
0.4900224133
0.5063297754
0.5232686212
0.5405052671
0.5577363549
0.57469336
0.5911435912
0.6068892703
0.6217659149
0.6356408395
0.6484122033
0.6600086789
0.6703895139
0.6795445268
0.6874934764
0.6942842911
0.6999898436
0.7047032295
0.7085318241
0.7115906895
0.7139960476
0.7158595049
0.7172835565
0.718358641
0.7191617747
0.7197565093
0.7201938624
0.7205137923
0.7207469712
0.7209165435
0.7210397275
0.7211291836
0.7211941365
0.7212412793
0.7212754677
0.7213001849
0.7213177603
0.7213295115
0.721336686
0.7213411824
0.7213403468
0.7213264208
0.4218471912
0.420684379
0.4166232173
0.4120661044
0.4079602479
0.4039553438
0.4005414796
0.3978637101
0.3963103931
0.3961850994
0.3978192398
0.4014700549
0.4073149435
0.4154164
0.4257184613
0.4380540633
0.4521677479
0.4677445501
0.4844394775
0.5019026021
0.5197976344
0.5378138092
0.5556721579
0.5731277313
0.5899693328
0.6060180718
0.6211256976
0.6351733165
0.6480707698
0.6597566462
0.6701986392
0.6793937611
0.6873678463
0.6941738463
0.6998886318
0.7046082958
0.7084422658
0.711506816
0.7139186981
0.7157895537
0.7172216112
0.7183049103
0.7191160605
0.7197182862
0.7201623798
0.7204881827
0.7207263428
0.7209000462
0.7210265933
0.7211187455
0.7211858314
0.7212346432
0.7212701315
0.7212958582
0.7213141869
0.721326511
0.7213343221
0.7213392601
0.7213380619
0.7213254276
0.394345476
0.3895639849
0.3861784715
0.3822399317
0.3789386475
0.3759401794
0.3737469217
0.372525612
0.3726568111
0.3744268781
0.3781229427
0.3839414285
0.3919848102
0.4022385921
0.4145774393
0.4287809636
0.4445601763
0.4615860037
0.4795153507
0.49801147
0.5167578898
0.535466517
0.5538812485
0.5717785735
0.5889664972
0.6052828402
0.620593661
0.634792238
0.6477987736
0.6595607197
0.6700533888
0.6792803427
0.6872729908
0.6940889176
0.6998086872
0.7045311532
0.7083676135
0.7114354192
0.7138517545
0.7157282302
0.7171667633
0.7182569653
0.7190750176
0.7196837987
0.7201338574
0.7204649
0.7207075308
0.7208849588
0.721014549
0.7211091477
0.721178173
0.7212285051
0.7212651792
0.7212918238
0.7213108315