/*--------------------------------*- C++ -*----------------------------------*\
  =========                 |
  \\      /  F ield         | OpenFOAM: The Open Source CFD Toolbox
   \\    /   O peration     | Website:  https://openfoam.org
    \\  /    A nd           | Version:  12
     \\/     M anipulation  |
\*---------------------------------------------------------------------------*/
FoamFile
{
    format      ascii;
    class       volScalarField;
    location    "1500";
    object      nut;
}
// * * * * * * * * * * * * * * * * * * * * * * * * * * * * * * * * * * * * * //

dimensions      [0 2 -1 0 0 0 0];

internalField   nonuniform List<scalar> 
16200
(
0.0005122715365
0.0017549915
0.002918212598
0.003819585306
0.004080748622
0.003572013903
0.002599333532
0.0013930325
0.0007114284819
0.0001795555487
5.630574548e-06
2.617119916e-06
2.370922251e-06
2.329754768e-06
1.851187287e-06
1.593554478e-06
1.389914626e-06
1.245802551e-06
1.151647177e-06
1.090080905e-06
1.053420329e-06
1.038690506e-06
1.042944671e-06
1.064267846e-06
1.101994003e-06
1.156909796e-06
1.231598878e-06
1.330954161e-06
1.463311974e-06
1.642886923e-06
1.89434642e-06
2.261191591e-06
2.821432771e-06
3.719783453e-06
5.240181984e-06
7.970140956e-06
1.317352148e-05
2.363184267e-05
4.555399351e-05
9.296642238e-05
0.0001979224225
0.0004344194003
0.0009747229252
0.001002198047
0.001001788722
0.001000862218
0.0009995306287
0.000998922198
0.0009986861936
0.0009986071444
0.0009985919857
0.0009986021872
0.000998623246
0.0009986513386
0.0009986876268
0.0009987364094
0.0009988044553
0.0009989028924
0.0009990486424
0.0009992760224
0.000505561659
0.001716008683
0.002821127952
0.003619290065
0.003705454921
0.003069201599
0.002111361802
0.001022220812
0.0005603465589
3.99980259e-05
2.668333024e-06
2.198708711e-06
2.002264041e-06
1.962094674e-06
1.662628799e-06
1.42761286e-06
1.2414682e-06
1.109789429e-06
1.025278925e-06
9.711000184e-07
9.398086113e-07
9.283331919e-07
9.337210853e-07
9.539725132e-07
9.883122472e-07
1.037307083e-06
1.103178118e-06
1.190318898e-06
1.306458392e-06
1.464955231e-06
1.688787708e-06
2.017730833e-06
2.522107361e-06
3.331437992e-06
4.699167686e-06
7.149361092e-06
1.180977758e-05
2.116362423e-05
4.075478486e-05
8.310675076e-05
0.0001768396869
0.0003880449428
0.0008706617786
0.001002054423
0.001001686362
0.001000864965
0.000999541706
0.0009989273081
0.0009986895946
0.0009986108974
0.0009985968818
0.0009986083697
0.0009986305575
0.0009986594715
0.0009986962279
0.0009987450476
0.0009988128063
0.0009989107652
0.0009990565862
0.0009992877304
0.0004998346617
0.001676144149
0.002721040085
0.003407645754
0.003327505278
0.002595814755
0.001612169741
0.0007453427761
0.0003700099195
1.403119488e-05
2.096285083e-06
1.856554046e-06
1.696032464e-06
1.658217528e-06
1.485526274e-06
1.272387876e-06
1.103483154e-06
9.839250328e-07
9.084218417e-07
8.607860247e-07
8.338236682e-07
8.243383457e-07
8.293614667e-07
8.468366646e-07
8.75937189e-07
9.17142115e-07
9.725804985e-07
1.046627347e-06
1.147055899e-06
1.286988829e-06
1.488103571e-06
1.786684812e-06
2.245923902e-06
2.981859013e-06
4.221585165e-06
6.434571373e-06
1.063038459e-05
1.902907722e-05
3.657654842e-05
7.441621557e-05
0.0001579472141
0.0003456858473
0.0007736643665
0.001001953714
0.001001601708
0.001000857333
0.0009995551045
0.0009989375224
0.0009986979159
0.0009986185277
0.0009986045434
0.0009986163921
0.000998639018
0.0009986682848
0.0009987052116
0.0009987539272
0.0009988213283
0.0009989188045
0.0009990645884
0.0009992987955
0.0004960687065
0.001636511197
0.002616868314
0.003159061533
0.002938476109
0.002164424471
0.001140543873
0.0005527022721
0.0001788472098
4.881859631e-06
1.765638443e-06
1.582927003e-06
1.450515802e-06
1.414902e-06
1.326792766e-06
1.132757193e-06
9.79083885e-07
8.703237296e-07
8.026704341e-07
7.605503262e-07
7.370119675e-07
7.287597708e-07
7.328596234e-07
7.473305229e-07
7.714777678e-07
8.059718417e-07
8.532342333e-07
9.180521855e-07
1.008562968e-06
1.137770782e-06
1.32617136e-06
1.607196988e-06
2.038774767e-06
2.727675471e-06
3.883574735e-06
5.940454651e-06
9.831693357e-06
1.760879834e-05
3.383666325e-05
6.878259555e-05
0.0001458057205
0.0003186313659
0.0007119753697
0.001001875716
0.001001522648
0.001000817719
0.0009995575732
0.000998944503
0.0009987057484
0.0009986264455
0.000998612558
0.0009986246292
0.0009986475407
0.0009986770591
0.0009987141184
0.0009987627621
0.0009988298807
0.0009989269775
0.0009990727794
0.0009993098837
0.0004924432857
0.001596581575
0.002510499129
0.002908396822
0.002555168989
0.001782596809
0.0008199730865
0.0004193081789
4.303467069e-05
2.094249531e-06
1.509142609e-06
1.350105409e-06
1.24113785e-06
1.208393732e-06
1.175201832e-06
1.000011263e-06
8.614821288e-07
7.635088799e-07
7.034773282e-07
6.665596381e-07
6.461716206e-07
6.39032597e-07
6.423703434e-07
6.544493234e-07
6.7489328e-07
7.047732845e-07
7.46983027e-07
8.067680449e-07
8.924772972e-07
1.016764719e-06
1.198920787e-06
1.469985954e-06
1.883770059e-06
2.540008634e-06
3.635345723e-06
5.577239301e-06
9.241585426e-06
1.655100261e-05
3.177479272e-05
6.449100378e-05
0.0001364328964
0.0002974617243
0.0006630664096
0.001001822101
0.001001455453
0.00100076633
0.0009995547178
0.0009989509952
0.0009987145465
0.0009986354904
0.0009986214486
0.0009986334247
0.0009986563585
0.0009986859532
0.0009987230555
0.0009987716196
0.0009988385013
0.0009989353
0.0009990811496
0.0009993208744
0.0004883125972
0.001556036276
0.002400563002
0.002651162049
0.002179251423
0.001381504806
0.0006054879213
0.000287841414
1.698933788e-05
1.548774183e-06
1.270204779e-06
1.154605214e-06
1.064344459e-06
1.033818916e-06
1.032886065e-06
8.753794384e-07
7.513266968e-07
6.639300461e-07
6.113532771e-07
5.796055375e-07
5.625318431e-07
5.56946384e-07
5.60335975e-07
5.713328853e-07
5.899881616e-07
6.178465198e-07
6.582607279e-07
7.168039108e-07
8.018602966e-07
9.256971883e-07
1.106695196e-06
1.374246405e-06
1.779361805e-06
2.417075731e-06
3.475576796e-06
5.345386762e-06
8.86555447e-06
1.587496148e-05
3.044765173e-05
6.169859392e-05
0.0001302511556
0.0002832901755
0.0006298294784
0.001001786918
0.001001398532
0.00100071562
0.0009995450427
0.0009989558131
0.0009987234716
0.0009986451019
0.0009986308538
0.0009986425528
0.0009986653358
0.0009986948888
0.0009987319813
0.000998780478
0.0009988471841
0.0009989437763
0.0009990897267
0.0009993318533
0.0004831019367
0.001514212408
0.002285830362
0.002377177897
0.001820974618
0.001004251299
0.0004541701713
0.000169842326
5.132556838e-06
1.285016693e-06
1.082287124e-06
9.843981766e-07
9.096597901e-07
8.818667533e-07
8.97933715e-07
7.582034111e-07
6.48832853e-07
5.724405841e-07
5.276307376e-07
5.013706571e-07
4.88016837e-07
4.84585237e-07
4.889256157e-07
5.001194212e-07
5.186772068e-07
5.46360449e-07
5.873461763e-07
6.471667838e-07
7.341512588e-07
8.6025764e-07
1.04382067e-06
1.312351712e-06
1.715407077e-06
2.34495556e-06
3.383945275e-06
5.212757474e-06
8.648194983e-06
1.547706453e-05
2.964776695e-05
5.996763342e-05
0.0001263018674
0.0002739627078
0.0006073387708
0.00100176623
0.00100135008
0.001000665243
0.0009995301813
0.000998959385
0.0009987325621
0.0009986552242
0.0009986407189
0.0009986519821
0.0009986744627
0.0009987038705
0.0009987409076
0.00099878935
0.0009988559402
0.0009989524143
0.0009990985184
0.0009993428202
0.0004760855741
0.001469459041
0.002163113949
0.002096347822
0.001497360977
0.0007197772611
0.0003516261705
7.686645079e-05
2.549519848e-06
1.080933649e-06
9.187596945e-07
8.381381399e-07
7.767275538e-07
7.520305116e-07
7.750388782e-07
6.524307099e-07
5.572532362e-07
4.916535545e-07
4.544355381e-07
4.335922173e-07
4.240484487e-07
4.230971892e-07
4.289978838e-07
4.41290486e-07
4.60708705e-07
4.900864024e-07
5.331848155e-07
5.958943136e-07
6.865393224e-07
8.169644738e-07
1.004710989e-06
1.278330351e-06
1.684897519e-06
2.315125725e-06
3.349444829e-06
5.163945757e-06
8.565882906e-06
1.531768965e-05
2.930331384e-05
5.9159661e-05
0.0001243055424
0.0002688961199
0.0005943486677
0.001001755618
0.001001307719
0.001000614206
0.0009995108965
0.0009989616747
0.0009987415861
0.000998665634
0.000998650881
0.0009986616101
0.0009986836832
0.0009987128733
0.000998749828
0.0009987982376
0.0009988647756
0.0009989612207
0.0009991075354
0.000999353798
0.0004673900758
0.001419964107
0.002008195693
0.001811354902
0.001186679043
0.0005355397121
0.0002665419012
3.093684199e-05
1.477906857e-06
9.13861067e-07
7.843181494e-07
7.165089341e-07
6.656475375e-07
6.437108254e-07
6.670263604e-07
5.598705189e-07
4.776490315e-07
4.221137647e-07
3.919936869e-07
3.762807891e-07
3.704480658e-07
3.720843449e-07
3.796260051e-07
3.935779631e-07
4.150394667e-07
4.467167367e-07
4.928436021e-07
5.594326396e-07
6.548603779e-07
7.910184871e-07
9.854853645e-07
1.26657232e-06
1.681159134e-06
2.319213318e-06
3.360805268e-06
5.182431609e-06
8.592033682e-06
1.53499762e-05
2.932490821e-05
5.909332031e-05
0.0001238772476
0.0002672470737
0.0005889705266
0.001001751453
0.001001269471
0.001000561649
0.0009994884193
0.0009989629154
0.000998750463
0.0009986761925
0.0009986612251
0.0009986713621
0.0009986929577
0.0009987218821
0.0009987587422
0.0009988071472
0.0009988736982
0.0009989702018
0.0009991167836
0.0009993647969
0.0004570236984
0.001366064135
0.001834838579
0.001531289621
0.0008686753135
0.0004035124571
0.0001897433391
1.824373716e-05
1.157223863e-06
7.752882515e-07
6.709470341e-07
6.13837255e-07
5.715835316e-07
5.523696768e-07
5.723797026e-07
4.793366277e-07
4.090518148e-07
3.629441392e-07
3.394527172e-07
3.285335299e-07
3.261824972e-07
3.300563933e-07
3.398549168e-07
3.557396666e-07
3.794199076e-07
4.139294462e-07
4.636958968e-07
5.348507784e-07
6.35894923e-07
7.789095698e-07
9.81724649e-07
1.272748656e-06
1.699134837e-06
2.35100894e-06
3.409901378e-06
5.256708409e-06
8.708803436e-06
1.554356024e-05
2.965637353e-05
5.965741187e-05
0.0001247854125
0.0002685153982
0.0005900959463
0.001001750653
0.001001233594
0.001000506694
0.000999463796
0.0009989632995
0.0009987591104
0.0009986867651
0.0009986716388
0.0009986811638
0.0009987022455
0.0009987308805
0.0009987676489
0.0009988160845
0.0009988827157
0.0009989793636
0.0009991262681
0.0009993758277
0.000444870154
0.001307648534
0.001649686299
0.001264337615
0.0006255258884
0.0003071012056
0.000124885787
1.246753268e-05
9.467734235e-07
6.600703208e-07
5.757128112e-07
5.272238267e-07
4.919792943e-07
4.753121289e-07
4.902286695e-07
4.099691547e-07
3.505951777e-07
3.131924008e-07
2.957364258e-07
2.89121175e-07
2.895735711e-07
2.960383812e-07
3.078234684e-07
3.257635173e-07
3.519609811e-07
3.896934387e-07
4.43539986e-07
5.197695997e-07
6.270821624e-07
7.778671639e-07
9.903742504e-07
1.293384902e-06
1.734703205e-06
2.405378707e-06
3.489947393e-06
5.377116679e-06
8.901180109e-06
1.587285268e-05
3.025023634e-05
6.075758534e-05
0.0001268325854
0.0002722722585
0.0005967689243
0.001001750808
0.001001198704
0.001000448585
0.0009994380026
0.0009989630486
0.0009987674892
0.0009986972522
0.0009986820327
0.0009986909544
0.0009987115135
0.0009987398563
0.0009987765486
0.0009988250561
0.0009988918362
0.0009989887116
0.0009991359918
0.0009993868977
0.0004306424806
0.001243661916
0.001459830095
0.001001258079
0.0004687016461
0.0002408503617
5.996027378e-05
6.856277331e-06
7.596626836e-07
5.635803999e-07
4.948752724e-07
4.537236496e-07
4.243119237e-07
4.101276391e-07
4.193855668e-07
3.506388632e-07
3.01143733e-07
2.716381875e-07
2.595216845e-07
2.563407724e-07
2.597559144e-07
2.68330673e-07
2.820345475e-07
3.02175119e-07
3.311467732e-07
3.724024742e-07
4.306564397e-07
5.123493663e-07
6.26449972e-07
7.857518759e-07
1.009057633e-06
1.325750488e-06
1.784605133e-06
2.478262959e-06
3.595622931e-06
5.536206297e-06
9.157824727e-06
1.63189282e-05
3.107201569e-05
6.232625754e-05
0.0001298786962
0.0002782152827
0.0006083175261
0.001001750082
0.001001163736
0.001000386692
0.0009994118337
0.0009989623581
0.0009987755775
0.0009987075763
0.0009986923345
0.000998700684
0.0009987207346
0.0009987487998
0.0009987854431
0.0009988340693
0.0009989010677
0.0009989982509
0.0009991459563
0.0009993980125
0.0004142646009
0.001172014468
0.001264726904
0.000750174735
0.0003647871634
0.0001875134339
3.073237003e-05
3.535321161e-06
6.142709927e-07
4.823740179e-07
4.265100151e-07
3.914843845e-07
3.668986719e-07
3.549415172e-07
3.585293408e-07
3.000181304e-07
2.593945539e-07
2.369684018e-07
2.294891769e-07
2.294510059e-07
2.352587816e-07
2.45714182e-07
2.613612793e-07
2.838643623e-07
3.158222175e-07
3.608222265e-07
4.237203519e-07
5.111690578e-07
6.324648623e-07
8.008808047e-07
1.035878975e-06
1.367636195e-06
1.846177251e-06
2.566329105e-06
3.722571934e-06
5.727934647e-06
9.469663587e-06
1.686685228e-05
3.209482395e-05
6.43111978e-05
0.0001338161466
0.000286113013
0.0006242281663
0.001001747148
0.001001127911
0.001000320526
0.0009993859161
0.000998961398
0.0009987833702
0.0009987176827
0.0009987024898
0.0009987103146
0.0009987298887
0.0009987577052
0.0009987943358
0.0009988431316
0.0009989104181
0.0009990079861
0.0009991561614
0.0009994091756
0.0003963485866
0.001091949269
0.001068584051
0.000559006867
0.0002807737379
0.000139190654
1.849133564e-05
1.920291465e-06
5.026317207e-07
4.126767142e-07
3.686118686e-07
3.385387445e-07
3.177483098e-07
3.076725425e-07
3.059876673e-07
2.566808023e-07
2.241187892e-07
2.080412338e-07
2.042059515e-07
2.072848563e-07
2.150868497e-07
2.273238011e-07
2.449898985e-07
2.70000527e-07
3.050977301e-07
3.539890337e-07
4.216916571e-07
5.151068646e-07
6.439052017e-07
8.218980713e-07
1.069367888e-06
1.417230037e-06
1.917229452e-06
2.666844891e-06
3.867258381e-06
5.94747967e-06
9.829612625e-06
1.750522944e-05
3.329856349e-05
6.667400664e-05
0.0001385667866
0.0002957986857
0.0006441325504
0.001001741088
0.001001090686
0.001000249732
0.0009993607103
0.0009989603051
0.0009987908716
0.0009987275345
0.0009987124596
0.0009987198186
0.0009987389616
0.0009987665696
0.0009988032313
0.0009988522511
0.0009989198953
0.000999017921
0.0009991666045
0.0009994203888
0.0003781761303
0.001006408061
0.000859676241
0.0004271706402
0.0002272344429
0.0001011174809
1.286599272e-05
1.099681122e-06
4.152758319e-07
3.525150913e-07
3.170882285e-07
2.923308937e-07
2.748073524e-07
2.665509569e-07
2.604631466e-07
2.196360943e-07
1.944731681e-07
1.840287686e-07
1.836155824e-07
1.890012065e-07
1.985479642e-07
2.125446773e-07
2.32311531e-07
2.599323665e-07
2.982597016e-07
3.511247666e-07
4.237282748e-07
5.232497647e-07
6.597687338e-07
8.476822263e-07
1.108076766e-06
1.473021899e-06
1.995939382e-06
2.777549302e-06
4.026787924e-06
6.190962283e-06
1.023209981e-05
1.822531224e-05
3.466815573e-05
6.938642138e-05
0.0001440739318
0.0003071525532
0.0006677678569
0.001001731304
0.001001051704
0.001000174075
0.0009993365354
0.000998959185
0.0009987980924
0.0009987371098
0.0009987222183
0.0009987291774
0.0009987479448
0.0009987753929
0.0009988121353
0.000998861436
0.0009989295067
0.0009990280585
0.0009991772815
0.0009994316519
0.0003603412506
0.0009136827341
0.0006918121163
0.0003498200039
0.0001917788428
5.681467077e-05
8.628113094e-06
6.848131601e-07
3.464836777e-07
3.007016249e-07
2.721924761e-07
2.516294156e-07
2.375281552e-07
2.309825751e-07
2.214236814e-07
1.88335721e-07
1.698626492e-07
1.639360673e-07
1.667261935e-07
1.73985338e-07
1.85134511e-07
2.009024195e-07
2.228282748e-07
2.531117054e-07
2.947050526e-07
3.515742604e-07
4.291223549e-07
5.348288273e-07
6.792089981e-07
8.772852815e-07
1.151019189e-06
1.5337453e-06
2.080790296e-06
2.896579469e-06
4.198810792e-06
6.45530018e-06
1.067282028e-05
1.902055519e-05
3.61926714e-05
7.242852727e-05
0.0001502985324
0.0003200934421
0.000694957769
0.001001717444
0.001001010749
0.001000097547
0.0009993135944
0.0009989581157
0.0009988050468
0.0009987463982
0.000998731751
0.0009987383806
0.0009987568344
0.0009987841776
0.0009988210545
0.0009988706946
0.0009989392594
0.0009990384005
0.0009991881891
0.0009994429638
0.0003454195231
0.0008131166269
0.0005594089828
0.000289717572
0.0001596298061
3.135471877e-05
4.098742746e-06
4.618966309e-07
2.916056353e-07
2.568170304e-07
2.337243862e-07
2.165985458e-07
2.050736503e-07
2.003425646e-07
1.882244468e-07
1.62179419e-07
1.496826937e-07
1.478844835e-07
1.529289084e-07
1.617694191e-07
1.744456322e-07
1.919967545e-07
2.161045687e-07
2.490582404e-07
2.939109199e-07
3.547743161e-07
4.372675797e-07
5.491862098e-07
7.015034448e-07
9.099090794e-07
1.197281666e-06
1.598343744e-06
2.170530392e-06
3.022416743e-06
4.381443459e-06
6.738083324e-06
1.11485217e-05
1.988621749e-05
3.78645484e-05
7.578713768e-05
0.0001572156848
0.0003345710127
0.0007255949279
0.001001699336
0.001000967499
0.001000025867
0.0009992920011
0.0009989571522
0.0009988117515
0.0009987553983
0.0009987410516
0.0009987474239
0.0009987656306
0.000998792928
0.0009988299961
0.0009988800349
0.0009989491598
0.0009990489484
0.0009991993288
0.0009994543216
0.0003366260339
0.0007082410652
0.0004600610239
0.000241737284
0.0001294517381
1.866940836e-05
1.957487936e-06
3.343450798e-07
2.466164413e-07
2.193384616e-07
2.005077564e-07
1.86270862e-07
1.768977468e-07
1.737077485e-07
1.601935681e-07
1.406221443e-07
1.330887632e-07
1.349482126e-07
1.417453507e-07
1.519721005e-07
1.661292724e-07
1.854595486e-07
2.117395578e-07
2.473376497e-07
2.954120955e-07
3.602288956e-07
4.47633425e-07
5.657502055e-07
7.260309242e-07
9.448530315e-07
1.246098578e-06
1.665944668e-06
2.26414063e-06
3.153843925e-06
4.573207366e-06
7.037478561e-06
1.165684305e-05
2.081906878e-05
3.967901763e-05
7.945460987e-05
0.0001648120848
0.000350560109
0.0007596281342
0.001001676946
0.001000921463
0.0009999590159
0.000999271803
0.0009989563317
0.000998818224
0.0009987641152
0.0009987501204
0.0009987563081
0.0009987743363
0.0009988016499
0.0009988389677
0.0009988894646
0.0009989592136
0.0009990597035
0.0009992107025
0.0009994657218
0.0003367513515
0.0006043300609
0.0003731394943
0.0002066750369
0.0001023193899
1.224672735e-05
9.537892557e-07
2.574113797e-07
2.088869804e-07
1.870752324e-07
1.717384214e-07
1.600451847e-07
1.526015689e-07
1.508180761e-07
1.369283516e-07
1.23251066e-07
1.202356204e-07
1.245926473e-07
1.327724023e-07
1.44257873e-07
1.598622185e-07
1.809510847e-07
2.093697923e-07
2.475632774e-07
2.987994293e-07
3.675050986e-07
4.597601568e-07
5.840299003e-07
7.522615587e-07
9.815544892e-07
1.296839862e-06
1.73584109e-06
2.360807953e-06
3.289906817e-06
4.772973116e-06
7.352145025e-06
1.219617773e-05
2.181715115e-05
4.163365866e-05
8.342796275e-05
0.0001730841823
0.0003680567494
0.0007970533889
0.001001650348
0.001000872273
0.0009998968591
0.0009992530006
0.0009989556778
0.0009988244822
0.0009987725588
0.000998758963
0.0009987650375
0.0009987829571
0.0009988103502
0.0009988479769
0.0009988989911
0.0009989694256
0.0009990706671
0.0009992223073
0.0009994771594
0.0003466936324
0.0005097772928
0.0003163947295
0.000184094472
5.985509567e-05
8.620359651e-06
4.921120417e-07
2.065961076e-07
1.772405644e-07
1.596238723e-07
1.471928562e-07
1.377242958e-07
1.319879396e-07
1.314992501e-07
1.180348295e-07
1.095786467e-07
1.101913274e-07
1.163249258e-07
1.256460034e-07
1.383173885e-07
1.553409674e-07
1.781548074e-07
2.086620894e-07
2.493855997e-07
3.037072287e-07
3.762203649e-07
4.73247005e-07
6.036045453e-07
7.797532244e-07
1.019542257e-06
1.348998369e-06
1.807475703e-06
2.459904289e-06
3.429885541e-06
4.979919471e-06
7.681171326e-06
1.276556911e-05
2.287958979e-05
4.372802933e-05
8.770810535e-05
0.0001820365101
0.0003870744252
0.0008379057937
0.001001619687
0.001000819665
0.0009998391889
0.0009992355631
0.0009989552045
0.0009988305441
0.0009987807424
0.0009987675886
0.0009987736195
0.0009987915
0.0009988190362
0.0009988570314
0.000998908621
0.0009989797995
0.0009990818392
0.0009992341302
0.000999488628
0.0003640567996
0.0004720526814
0.0002753201941
0.0001653815044
3.196269119e-05
3.551893414e-06
2.825029462e-07
1.707929808e-07
1.510641336e-07
1.366848867e-07
1.26587379e-07
1.189814719e-07
1.147368824e-07
1.153248191e-07
1.029814743e-07
9.885769454e-08
1.023213207e-07
1.097322462e-07
1.200622768e-07
1.33881937e-07
1.522948258e-07
1.767880546e-07
2.093209078e-07
2.524970556e-07
3.098166851e-07
3.860451212e-07
4.877539391e-07
6.241235331e-07
8.081441147e-07
1.05844069e-06
1.402179125e-06
1.880424466e-06
2.560963279e-06
3.573262657e-06
5.1934897e-06
8.024013465e-06
1.336461609e-05
2.400643698e-05
4.596338564e-05
9.229929751e-05
0.0001916805771
0.0004076417588
0.0008822547441
0.001001585154
0.001000763448
0.0009997857577
0.0009992194395
0.0009989549184
0.0009988364271
0.0009987886812
0.0009987760087
0.0009987820632
0.0009987999731
0.0009988277158
0.0009988661383
0.0009989183601
0.0009989903382
0.0009990932181
0.0009992461541
0.000999500119
0.0003852082288
0.0004112077798
0.0002468921763
0.0001466800455
1.730006448e-05
1.35123121e-06
1.882334058e-07
1.438040499e-07
1.293318321e-07
1.174969563e-07
1.092512683e-07
1.032373665e-07
1.00342081e-07
1.006792856e-07
9.118980975e-08
9.078305665e-08
9.610721927e-08
1.045037023e-07
1.157800795e-07
1.307202754e-07
1.504833858e-07
1.76599029e-07
2.110845169e-07
2.566278e-07
3.168514321e-07
3.966978987e-07
5.029956283e-07
6.452986365e-07
8.371429396e-07
1.097954123e-06
1.456078444e-06
1.954369152e-06
2.663644549e-06
3.719676629e-06
5.413329523e-06
8.380408233e-06
1.399334337e-05
2.519846169e-05
4.834231241e-05
9.720845533e-05
0.0002020334908
0.0004297996225
0.0009301975453
0.001001546966
0.001000703481
0.0009997362997
0.0009992045675
0.0009989548218
0.0009988421482
0.0009987963917
0.0009987842364
0.0009987903791
0.0009988083851
0.0009988363968
0.0009988753045
0.0009989282133
0.0009990010432
0.0009991048008
0.000999258369
0.0009995116217
0.0004109538889
0.0003773426096
0.0002332789684
0.0001261456443
1.005061094e-05
4.858917386e-07
1.439947621e-07
1.222209882e-07
1.109898407e-07
1.012376487e-07
9.459007882e-08
9.001311554e-08
8.814789356e-08
8.730726155e-08
8.214123589e-08
8.461733865e-08
9.118502533e-08
1.004166429e-07
1.126029373e-07
1.286291877e-07
1.496922261e-07
1.773642225e-07
2.137230688e-07
2.615441217e-07
3.245761171e-07
4.079437565e-07
5.187393623e-07
6.669007111e-07
8.665247667e-07
1.137861409e-06
1.510477041e-06
2.029088783e-06
2.767723041e-06
3.868908183e-06
5.639268941e-06
8.750347027e-06
1.465215968e-05
2.645707426e-05
5.086857297e-05
0.0001024448266
0.0002131172235
0.0004535993524
0.0009818530564
0.001001505359
0.001000639648
0.0009996905462
0.000999190879
0.0009989549136
0.0009988477233
0.0009988038908
0.0009987922855
0.000998798578
0.0009988167451
0.0009988450867
0.0009988845358
0.0009989381846
0.0009990119151
0.0009991165836
0.0009992707598
0.000999523125
0.0004383715018
0.0003637649962
0.000228327548
8.534226701e-05
5.037741923e-06
1.966127779e-07
1.187226446e-07
1.043137903e-07
9.535569464e-08
8.755918298e-08
8.217564279e-08
7.87720216e-08
7.79063994e-08
7.682088278e-08
7.535179969e-08
7.981799592e-08
8.730821417e-08
9.729663101e-08
1.103570736e-07
1.274244468e-07
1.497286311e-07
1.788857599e-07
2.170365752e-07
2.670466573e-07
3.327945359e-07
4.195919791e-07
5.348019403e-07
6.887556605e-07
8.961256599e-07
1.178009171e-06
1.565231677e-06
2.104449277e-06
2.873075982e-06
4.020863417e-06
5.871299482e-06
9.134042878e-06
1.534180535e-05
2.77842336e-05
5.35469271e-05
0.0001080196094
0.0002249577738
0.0004791008451
0.001002187061
0.001001460581
0.001000571835
0.0009996482352
0.0009991783042
0.0009989551907
0.0009988531676
0.0009988111951
0.0009988001701
0.0009988066711
0.0009988250618
0.0009988537925
0.0009988938376
0.0009989482767
0.0009990229535
0.0009991285604
0.0009992832956
0.00099953462
0.0004821574833
0.0003656474348
0.000228320872
4.149538244e-05
1.363228298e-06
1.206756006e-07
1.006791223e-07
8.958187317e-08
8.235426156e-08
7.595206984e-08
7.167616483e-08
6.938005996e-08
6.947611853e-08
6.888591816e-08
7.033159167e-08
7.610514144e-08
8.429979993e-08
9.499423574e-08
1.088868572e-07
1.269429252e-07
1.504248281e-07
1.80994085e-07
2.208563024e-07
2.729699034e-07
3.413466361e-07
4.314899406e-07
5.510398178e-07
7.107303159e-07
9.258237562e-07
1.218287451e-06
1.620244523e-06
2.180365435e-06
2.979635815e-06
4.175515097e-06
6.109498802e-06
9.531828786e-06
1.606320533e-05
2.918221783e-05
5.63827486e-05
0.0001139452752
0.0002375839073
0.0005063701529
0.001002156818
0.001001412892
0.001000499908
0.0009996091176
0.0009991667744
0.0009989556485
0.000998858495
0.0009988183211
0.0009988079041
0.0009988146692
0.0009988333437
0.0009988625206
0.000998903214
0.0009989584912
0.0009990341568
0.0009991407198
0.0009992959348
0.0009995461007
0.0005231698483
0.0003594812596
0.000222848629
1.940864919e-05
3.27810286e-07
9.69967875e-08
8.655120822e-08
7.748091442e-08
7.144300239e-08
6.62181801e-08
6.295042654e-08
6.168895184e-08
6.268783925e-08
6.308222255e-08
6.660727618e-08
7.322530095e-08
8.201304784e-08
9.337130051e-08
1.080496913e-07
1.27038836e-07
1.516342134e-07
1.835441243e-07
2.250409363e-07
2.791783793e-07
3.501046362e-07
4.435191591e-07
5.673451252e-07
7.327284815e-07
9.555354148e-07
1.258625957e-06
1.67545945e-06
2.256797033e-06
3.087385656e-06
4.332896527e-06
6.354021314e-06
9.944141861e-06
1.681743909e-05
3.065356229e-05
5.938188749e-05
0.0001202352509
0.0002510264125
0.0005354778125
0.001002122892
0.001001362572
0.001000423688
0.0009995729597
0.0009991562233
0.0009989562817
0.0009988637185
0.000998825284
0.0009988155008
0.0009988225829
0.0009988415986
0.0009988712765
0.0009989126682
0.0009989688286
0.0009990455215
0.0009991530443
0.0009993086644
0.0009995575582
0.0005622473521
0.0003492918897
0.0002092422008
9.636889562e-06
1.269674625e-07
8.292146493e-08
7.487159363e-08
6.743316392e-08
6.234360555e-08
5.811514648e-08
5.578435444e-08
5.549700393e-08
5.732699597e-08
5.892003109e-08
6.379543863e-08
7.100013767e-08
8.032167685e-08
9.23024501e-08
1.077186537e-07
1.275853565e-07
1.532321158e-07
1.864154565e-07
2.294763445e-07
2.85566152e-07
3.589725336e-07
4.55595098e-07
5.836461549e-07
7.546925567e-07
9.852184573e-07
1.298999418e-06
1.730869984e-06
2.333759751e-06
3.196373664e-06
4.493119795e-06
6.605120977e-06
1.037155138e-05
1.760577443e-05
3.220109459e-05
6.255068801e-05
0.0001269038598
0.0002653177981
0.000566497861
0.001002085546
0.001001309925
0.001000342927
0.000999539545
0.0009991465881
0.0009989570846
0.0009988688497
0.0009988320984
0.0009988229727
0.0009988304217
0.0009988498337
0.000998880065
0.000998922202
0.0009989792881
0.0009990570416
0.0009991655156
0.0009993215013
0.0009995689741
0.0005811399563
0.000338345146
0.0001853457509
5.647172859e-06
9.45427192e-08
7.162496392e-08
6.51777508e-08
5.904048583e-08
5.473645873e-08
5.139370728e-08
4.996824183e-08
5.059580036e-08
5.316609892e-08
5.592731033e-08
6.163658139e-08
6.930232061e-08
7.911659219e-08
9.167874907e-08
1.077850548e-07
1.284755641e-07
1.551150213e-07
1.895095918e-07
2.34070576e-07
2.92049173e-07
3.678753739e-07
4.676529314e-07
5.998891348e-07
7.765807177e-07
1.014843998e-06
1.339393099e-06
1.786477199e-06
2.411273846e-06
3.306650001e-06
4.656296979e-06
6.863049032e-06
1.081461788e-05
1.842945839e-05
3.382760037e-05
6.589541751e-05
0.0001339652963
0.0002804903681
0.0005995040737
0.001002045019
0.001001255297
0.00100026399
0.0009995086741
0.0009991378095
0.0009989580508
0.0009988738992
0.0009988387777
0.0009988303316
0.0009988381948
0.0009988580551
0.0009988888894
0.0009989318162
0.0009989898673
0.0009990687094
0.0009991781174
0.0009993344444
0.000999580326
0.0005685947923
0.0003330259067
0.0001531218084
2.185801715e-06
7.709299854e-08
6.23413618e-08
5.708908517e-08
5.199827191e-08
4.837290379e-08
4.585871985e-08
4.532005432e-08
4.677863284e-08
4.995233275e-08
5.372517338e-08
5.996582388e-08
6.803035542e-08
7.830166833e-08
9.140514271e-08
1.08156141e-07
1.296205306e-07
1.571993277e-07
1.927496554e-07
2.387547391e-07
2.985676217e-07
3.767633368e-07
4.796536354e-07
6.160465704e-07
7.9837775e-07
1.044410001e-06
1.37981933e-06
1.84230956e-06
2.48938765e-06
3.418294335e-06
4.822572085e-06
7.128091131e-06
1.127393671e-05
1.928976695e-05
3.553587381e-05
6.942229384e-05
0.00014143355
0.0002965758308
0.0006345686536
0.001002001533
0.001001198809
0.001000190917
0.0009994801637
0.0009991298322
0.000998959174
0.0009988788762
0.0009988453341
0.0009988375881
0.0009988459099
0.000998866268
0.0009988977523
0.0009989415103
0.0009990005628
0.000999080515
0.0009991908341
0.0009993474772
0.000999591596
0.0005523473766
0.0003305522768
8.216659644e-05
7.405997751e-07
6.53897172e-08
5.472069184e-08
5.035939869e-08
4.610798966e-08
4.30863512e-08
4.136986159e-08
4.167648978e-08
4.384710228e-08
4.735857512e-08
5.205974923e-08
5.867764507e-08
6.710236008e-08
7.779664507e-08
9.140291109e-08
1.08755939e-07
1.309482283e-07
1.594180582e-07
1.960746972e-07
2.434747421e-07
3.050749506e-07
3.855979718e-07
4.915673075e-07
6.320975051e-07
8.200720402e-07
1.073914687e-06
1.420286833e-06
1.898387414e-06
2.568136064e-06
3.531366587e-06
4.992060591e-06
7.400488461e-06
1.175002617e-05
2.018783186e-05
3.732842532e-05
7.313695916e-05
0.0001493214103
0.0003136033428
0.0006717582646
0.0010019553
0.001001140411
0.001000123267
0.0009994538466
0.0009991226047
0.0009989604476
0.0009988837892
0.0009988517785
0.0009988447516
0.0009988535741
0.0009988744766
0.0009989066547
0.0009989512822
0.000999011369
0.0009990924462
0.0009992036498
0.0009993605835
0.0009996027634
0.0005318500504
0.0003253773967
4.488005273e-05
2.786699373e-07
5.67418924e-08
4.844843749e-08
4.474871622e-08
4.117939248e-08
3.872544353e-08
3.779026759e-08
3.886333773e-08
4.160859218e-08
4.550655668e-08
5.077353533e-08
5.769354275e-08
6.644776369e-08
7.753277581e-08
9.160603452e-08
1.095222565e-07
1.324013133e-07
1.617196268e-07
1.99439673e-07
2.481927442e-07
3.115410706e-07
3.943573949e-07
5.033806585e-07
6.480376128e-07
8.416686472e-07
1.103373011e-06
1.460821221e-06
1.954748163e-06
2.647571259e-06
3.645944052e-06
5.164893976e-06
7.680491361e-06
1.224339275e-05
2.112471899e-05
3.920756819e-05
7.704454206e-05
0.000157640393
0.000331598962
0.0007111321294
0.001001906527
0.001001080031
0.001000060638
0.0009994295692
0.0009991160789
0.0009989618651
0.0009988886452
0.0009988581208
0.0009988518307
0.0009988611931
0.0009988826838
0.0009989155964