/*--------------------------------*- C++ -*----------------------------------*\
  =========                 |
  \\      /  F ield         | OpenFOAM: The Open Source CFD Toolbox
   \\    /   O peration     | Website:  https://openfoam.org
    \\  /    A nd           | Version:  12
     \\/     M anipulation  |
\*---------------------------------------------------------------------------*/
FoamFile
{
    format      ascii;
    class       volScalarField;
    location    "1500";
    object      p;
}
// * * * * * * * * * * * * * * * * * * * * * * * * * * * * * * * * * * * * * //

dimensions      [1 -1 -2 0 0 0 0];

internalField   nonuniform List<scalar> 
16200
(
79459.7623
79466.60306
79475.62328
79487.33271
79502.68185
79522.96578
79550.16367
79586.24283
79631.47608
79685.74037
79750.3642
79827.27248
79918.33724
80026.68496
80154.83734
80306.95068
80486.73869
80699.45922
80950.41212
81246.21702
81593.9783
82001.89903
82478.82724
83034.32246
83678.14684
84419.66647
85266.68086
86223.72254
87289.6568
88454.70232
89697.5484
90984.29834
92271.19517
93511.31158
94662.73069
95694.7976
96590.54877
97345.7108
97965.86028
98463.17375
98853.51162
99154.07169
99381.654
99551.52572
99676.82044
99768.34454
99834.69289
99882.50892
99916.81735
99941.35426
99958.86103
99971.33118
99980.19981
99986.50298
99990.96663
99994.15078
99996.35494
99998.06076
99998.77196
100000.0767
78321.2913
78329.52444
78339.13225
78352.08427
78369.27837
78392.19557
78423.31384
78463.9829
78514.58553
78574.93427
78646.64125
78732.00082
78832.98579
78953.18029
79095.28722
79263.98656
79463.3853
79699.37734
79977.9219
80306.48132
80693.11654
81147.12652
81678.55485
82298.17813
83016.85262
83844.63428
84789.18349
85853.44088
87032.42364
88309.56778
89654.18285
91022.55895
92364.0812
93630.47151
94784.03886
95801.77147
96674.94091
97405.99739
98004.82473
98485.57509
98864.367
99157.67972
99381.22904
99549.22186
99673.93631
99765.5744
99832.34411
99880.66658
99915.45299
99940.39198
99958.21408
99970.91882
99979.95607
99986.37337
99990.91705
99994.14243
99996.37715
99998.08896
99998.77533
100000.0805
77371.50619
77380.69648
77391.48136
77406.06739
77425.52
77451.60103
77487.11418
77532.67589
77588.68401
77655.25685
77734.29545
77828.51635
77939.97323
78072.80645
78229.98078
78416.80725
78637.92369
78899.98903
79209.76942
79575.68312
80006.8524
80513.73562
81107.59603
81800.35565
82603.71073
83527.83016
84579.1519
85757.21868
87050.6098
88433.14988
89863.03074
91287.3919
92651.87934
93911.07258
95035.12711
96010.80542
96838.30277
97526.56907
98089.20024
98541.68647
98899.84888
99178.98028
99393.30774
99555.61956
99677.02434
99766.85323
99832.71121
99880.62858
99915.27674
99940.20513
99958.06825
99970.8268
99979.91373
99986.3688
99990.94136
99994.17942
99996.42403
99998.13383
99998.79699
100000.1248
76630.54805
76640.56062
76653.06712
76669.71019
76691.96195
76721.99452
76762.51001
76813.69685
76875.95175
76950.00737
77037.90009
77142.8658
77267.04707
77415.2056
77590.6084
77799.22836
78046.26485
78339.15858
78685.52919
79094.81303
79577.296
80144.69181
80809.50984
81584.65504
82482.16902
83511.3326
84675.65293
85968.74371
87369.7447
88840.58397
90328.3248
91773.82845
93123.67229
94339.79074
95403.07072
96311.04872
97072.51129
97701.98769
98215.8157
98630.04798
98959.66018
99218.37618
99418.64424
99571.58821
99686.9269
99772.92334
99836.40899
99882.88179
99916.66085
99941.07005
99958.62344
99971.19602
99980.16986
99986.55396
99991.08198
99994.28676
99996.50863
99998.19829
99998.82493
100000.1517
76125.18602
76136.40692
76151.03949
76170.17212
76195.82103
76230.71829
76277.1351
76335.03119
76404.76066
76487.77694
76586.15286
76703.68513
76842.57588
77008.23167
77204.26525
77437.37756
77713.45514
78040.86497
78428.27311
78886.29805
79426.49244
80061.77961
80805.65663
81671.44424
82670.52391
83809.66894
85087.0811
86487.50056
87978.05418
89508.16449
91016.21514
92441.69284
93737.44024
94876.56036
95852.21021
96672.37233
97353.12085
97913.06629
98370.03727
98739.78092
99035.89764
99270.24031
99453.29906
99594.40643
99701.78277
99782.52054
99842.58261
99886.84985
99919.21766
99942.7268
99959.70615
99971.91151
99980.64928
99986.88019
99991.30885
99994.44601
99996.62223
99998.27939
99998.86438
100000.1911
75860.33603
75873.08468
75890.25193
75912.36175
75942.12667
75982.8477
76036.19091
76101.57191
76179.3074
76271.63539
76380.83812
76511.56677
76666.18935
76850.87639
77069.72728
77330.29699
77639.29714
78006.08634
78440.39671
78953.94358
79559.37097
80270.5071
81101.33324
82064.72805
83170.00343
84419.30645
85802.77227
87293.53135
88845.43342
90397.05297
91882.70864
93246.32086
94451.70837
95485.45847
96353.01349
97071.41097
97662.17006
98146.3185
98541.95499
98863.75951
99123.55112
99331.12997
99494.96
99622.55533
99720.61491
99795.02874
99850.85082
99892.30119
99922.80918
99945.09484
99961.27054
99972.94798
99981.33866
99987.34091
99991.61929
99994.65597
99996.76463
99998.37665
99998.91307
100000.2346
75808.17386
75822.7792
75842.89733
75868.58752
75903.38789
75950.72397
76011.44351
76084.20249
76171.00418
76274.99034
76397.94671
76545.20409
76719.34325
76927.33279
77173.78004
77467.067
77814.72915
78227.07418
78714.87534
79290.88673
79968.72451
80762.80889
81686.92322
82752.27054
83964.19306
85317.67004
86792.00264
88346.88615
89923.61418
91453.87293
92873.87479
94137.5047
95222.79165
96130.38036
96876.69902
97485.76072
97982.49153
98388.74582
98721.84016
98994.79696
99217.39087
99397.3016
99540.99226
99654.21073
99742.1797
99809.61188
99860.65869
99898.87177
99927.19928
99948.0228
99963.22085
99974.2458
99982.20164
99987.91448
99992.00104
99994.90986
99996.93286
99998.48897
99998.97133
100000.286
75962.12144
75979.19295
76002.5483
76032.4138
76073.31697
76128.17856
76197.38181
76279.67256
76377.88566
76495.175
76633.71839
76799.64846
76995.73769
77229.79213
77507.01781
77836.67491
78227.22303
78689.9762
79236.78401
79881.34509
80637.93069
81520.86705
82542.57202
83710.86002
85024.82606
86469.62316
88011.49507
89596.47036
91156.29134
92621.47467
93936.28208
95068.78961
96012.5748
96781.32304
97400.25197
97897.99979
98300.96597
98630.49017
98902.30887
99127.39903
99313.3717
99465.81784
99589.2964
99687.89692
99765.45683
99825.57569
99871.54092
99906.25433
99932.18805
99951.38263
99965.47649
99975.75529
99983.20842
99988.58361
99992.44462
99995.20272
99997.12476
99998.61547
99999.03847
100000.3443
76302.68941
76322.74757
76349.80609
76384.64123
76432.86848
76495.8845
76574.02957
76666.85941
76776.934
76908.71708
77064.26639
77250.68891
77471.04422
77734.0134
78045.50029
78415.67872
78853.98738
79372.70844
79984.63237
80704.05716
81545.27829
82521.52962
83642.43333
84910.4777
86316.0663
87832.07673
89410.61336
90985.93171
92485.34306
93844.70316
95021.54459
96000.44071
96790.00338
97414.77437
97906.13743
98295.07562
98607.81884
98864.17363
99077.76474
99257.32391
99408.30034
99534.30269
99638.13068
99722.35794
99789.55578
99842.29916
99883.07138
99914.16099
99937.58409
99955.04918
99967.95713
99977.42602
99984.32815
99989.3301
99992.93981
99995.52911
99997.3379
99998.75518
99999.11416
100000.4103
76797.42788
76820.94842
76852.23879
76892.93107
76949.34641
77021.16609
77108.92526
77213.69892
77337.9983
77486.85056
77662.28354
77872.38656
78120.58898
78416.47437
78766.73516
79182.47333
79674.11033
80254.75969
80937.86889
81737.82582
82668.16271
83739.87044
84958.13184
86317.87226
87798.23876
89358.06378
90936.08103
92459.01023
93856.25373
95075.10533
96089.78813
96901.60547
97532.21197
98014.17733
98382.41627
98668.2818
98896.57282
99084.87611
99244.41468
99381.63085
99499.90489
99601.01964
99686.18788
99756.62694
99813.77451
99859.28175
99894.8995
99922.35051
99943.22425
99958.91412
99970.59229
99979.21316
99985.53316
99990.13745
99993.47729
99995.88408
99997.57002
99998.90718
99999.19807
100000.484
77430.52894
77458.0685
77494.2632
77542.11537
77607.88061
77690.30074
77789.87172
77907.66015
78047.0704
78214.4149
78411.62044
78647.81853
78926.92398
79259.44551
79652.89883
80119.20378
80669.60751
81317.77025
82077.39573
82962.35618
83984.48555
85151.10172
86460.87177
87898.56144
89429.80278
90999.14348
92535.13632
93963.14809
95221.40987
96273.22956
97110.73078
97750.3776
98223.95461
98569.08359
98821.86434
99012.47183
99163.40579
99289.64259
99399.90869
99498.42817
99586.66588
99664.76293
99732.52825
99789.98647
99837.57677
99876.13098
99906.74372
99930.62478
99948.97181
99962.88494
99973.32067
99981.07709
99986.79854
99990.9906
99994.04841
99996.26298
99997.81894
99999.07058
99999.29006
100000.5659
78178.46027
78210.68985
78252.61081
78308.68306
78383.61117
78476.08881
78588.3331
78722.00611
78879.56167
79068.75605
79291.53238
79558.01659
79872.58817
80246.57042
80688.26853
81210.32254
81824.73138
82545.52149
83386.26234
84359.53926
85474.17885
86731.86527
88122.18728
89617.21247
91168.01506
92706.9686
94157.97931
95452.10502
96542.04569
97409.47443
98063.51695
98532.97807
98856.51573
99074.0644
99221.02324
99325.29613
99406.56952
99477.05749
99543.03906
99606.66801
99667.68141
99724.77283
99776.52893
99821.94018
99860.5778
99892.55614
99918.38961
99938.82913
99954.71756
99966.88616
99976.0913
99982.98423
99988.10285
99991.87634
99994.64544
99996.66158
99998.08266
99999.24455
99999.38997
100000.6561
79031.36467
79069.05931
79117.63992
79183.16935
79270.53338
79376.66306
79502.98668
79654.13842
79831.80159
80045.02443
80295.73092
80595.11061
80948.13496
81366.99189
81860.91455
82443.27094
83126.6733
83925.06367
84851.03292
85914.56474
87119.60506
88459.76266
89912.9236
91436.8536
92969.18213
94434.77626
95759.87446
96887.70614
97788.9891
98463.7618
98935.6436
99242.35556
99426.30705
99527.4788
99579.19929
99606.42628
99625.80654
99646.81601
99673.43127
99705.92788
99742.5163
99780.63396
99817.81733
99852.17045
99882.51802
99908.35257
99929.68072
99946.84719
99960.37709
99970.85801
99978.86284
99984.90674
99989.42789
99992.78324
99995.26155
99997.07606
99998.35934
99999.42825
99999.49731
100000.7549
79979.33081
80023.43015
80080.13425
80156.9143
80257.21911
80376.97299
80518.3714
80688.09373
80887.2824
81126.55813
81407.80466
81743.41824
82139.11565
82607.91334
83159.87569
83808.7523
84567.20695
85448.26232
86462.37242
87615.30798
88903.9363
90311.23255
91801.42177
93318.2305
94789.53698
96139.26962
97302.99812
98240.8003
98942.47744
99424.47061
99721.46249
99876.63945
99933.49339
99930.35412
99897.59709
99856.90379
99821.86895
99799.37263
99791.28999
99796.22947
99811.07484
99832.18775
99856.21219
99880.49965
99903.23837
99923.38637
99940.50939
99954.59555
99965.88776
99974.75477
99981.6028
99986.82218
99990.75866
99993.70163
99995.89081
99997.50305
99998.6473
99999.62082
99999.61123
100000.8626
81001.32443
81053.20597
81119.43936
81207.47015
81320.46161
81456.44426
81616.04303
81807.94423
82032.68261
82302.72912
82619.87899
82997.65415
83442.42467
83967.77442
84584.30759
85305.71849
86144.15384
87110.86099
88212.79376
89449.4866
90808.20698
92259.10591
93752.33533
95220.31125
96587.05071
97782.69601
98757.76186
99491.37968
99991.2358
100286.9364
100420.547
100437.6561
100380.7746
100285.4432
100178.6126
100078.6181
99996.13525
99935.66047
99897.19413
99877.89001
99873.49423
99879.45717
99891.67144
99906.85481
99922.65682
99937.57911
99950.80709
99962.01781
99971.20517
99978.5427
99984.2864
99988.71288
99992.08295
99994.62341
99996.52812
99997.93954
99998.94503
99999.8213
99999.73113
100000.9793
82103.88921
82165.14339
82241.83
82343.12987
82470.88638
82625.06114
82805.87288
83023.65241
83277.82933
83582.88941
83940.5374
84365.2703
84864.04617
85450.86158
86136.66704
86934.70426
87855.84139
88908.19587
90093.17195
91401.56325
92808.76094
94271.24738
95726.98631
97102.13896
98323.81287
99334.63128
100103.3642
100627.9325
100931.0783
101051.8053
101036.149
100929.6499
100772.3988
100596.4921
100425.2993
100273.9185
100150.3267
100056.8828
99991.94313
99951.40913
99930.06192
99922.58715
99924.24991
99931.23818
99940.74834
99950.89451
99960.53574
99969.07903
99976.29971
99982.19803
99986.89532
99990.56526
99993.39107
99995.54193
99997.16914
99998.38291
99999.25113
100000.0288
99999.85781
100001.1053
83290.34769
83363.0814
83452.08871
83571.17967
83717.12271
83891.63446
84095.45694
84341.62413
84627.99862
84971.12135
85372.74293
85848.29622
86405.34011
87058.09574
87817.43416
88695.23755
89699.61349
90833.53193
92090.50984
93450.4853
94875.95113
96310.92785
97685.33999
98925.54082
99968.31501
100773.0427
101327.5158
101646.2299
101763.3044
101723.4623
101573.877
101358.2657
101113.4175
100867.7071
100640.9874
100445.3396
100286.3071
100164.3647
100076.4462
100017.3859
99981.15374
99961.79888
99954.06621
99953.70356
99957.52832
99963.32713
99969.68014
99975.76084
99981.15343
99985.70498
99989.41659
99992.36917
99994.67542
99996.45177
99997.81018
99998.83084
99999.56431
100000.2425
99999.99384
100001.2408
84562.42412
84649.39611
84752.48532
84890.54611
85055.19799
85252.56557
85481.5613
85758.97644
86081.03543
86466.28108
86916.60243
87448.18363
88068.91858
88792.58536
89628.97413
90587.16563
91670.71089
92875.49076
94185.33674
95568.27828
96974.53924
98338.8966
99588.94782
100657.815
101496.984
102084.3971
102425.4382
102547.7808
102493.0995
102308.6586
102040.6388
101729.7862
101409.1528
101103.3857
100829.0267
100595.4186
100405.9487
100259.4529
100151.6458
100076.4602
100027.1894
99997.35628
99981.27769
99974.33815
99973.03962
99974.89326
99978.24172
99982.05723
99985.75731
99989.05405
99991.84151
99994.11728
99995.93019
99997.34855
99998.44813
99999.2813
99999.88333
100000.4622
100000.1429
100001.3863
85919.88666
86024.23071
86140.84105
86297.94333
86484.01065
86708.42664
86966.71409
87280.05181
87643.0699
88076.04153
88580.82799
89173.82727
89862.67825
90659.74698
91572.58413
92606.0976
93757.77759
95014.91254
96350.51509
97720.7929
99066.00641
100316.5469
101403.9817
102273.7187
102894.7115
103262.9307
103398.4235
103338.2267
103128.1155
102815.412
102443.8586
102050.5997
101664.8436
101307.6811
100992.6253
100726.5802
100511.0478
100343.4513
100218.468
100129.2739
100068.6015
100029.542
100006.0623
99993.24882
99987.34254
99985.62377
99986.23357
99987.97115
99990.10902
99992.24055
99994.16474
99995.80452
99997.151
99998.22877
99999.08036
99999.73247
100000.2071
100000.6878
100000.3054
100001.5421
87377.6826
87502.1454
87633.88203
87813.19121
88022.31556
88277.56629
88569.08373
88922.30461
89330.29723
89814.68042
90377.02608
91033.29245
91790.29969
92658.11915
93641.03989
94738.57148
95940.70893
97224.83821
98552.72212
99870.25688
101111.7575
102209.0786
103103.5162
103756.3419
104154.3744
104309.3087
104252.2128
104025.8559
103677.3063
103252.1833
102790.9313
102326.8531
101885.4273
101484.4617
101134.7562
100841.0715
100603.2759
100417.5825
100277.791
100176.4451
100105.8153
100058.6412
100028.6056
100010.5523
100000.5074
99995.55865
99993.67654
99993.51181
99994.21104
99995.26337
99996.38349
99997.42757
99998.33466
99999.08965
99999.70465
100000.1827
100000.5345
100000.9193
100000.4774
100001.7081
88944.96813
89093.42278
89244.81665
89451.42778
89684.85428
89972.43308
90298.88602
90693.50102
91147.74299
91684.16909
92303.91206
93021.84439
93843.44551
94775.57641
95818.07558
96963.56051
98192.99271
99473.08123
100755.2738
101978.4743
103076.3841
103988.0983
104668.8288
105096.9934
105275.7024
105229.0639
104995.4841
104620.3894
104150.0667
103627.317
103088.8815
102564.2516
102075.4232
101637.2428
101258.1142
100940.9318
100684.1564
100482.9689
100330.4287
100218.5537
100139.2359
100084.9304
100049.092
100026.368
100012.6091
100004.743
100000.5962
99998.69252
99998.0692
99998.12399
99998.49693
99998.98449
99999.47888
99999.92901
100000.3191
100000.6307
100000.8646
100001.1563
100000.6581
100001.8839
90621.97459
90798.16822
90969.43402
91203.59283
91462.57378
91783.77614
92146.47419
92583.4593
93084.60927
93672.94726
94349.15171
95126.22325
96007.50192
96995.3339
98083.47974
99256.07839
100484.1475
101724.3624
102920.6458
104009.7061
104930.2248
105633.0964
106089.4934
106294.176
106263.7003
106030.9891
105638.5257
105132.0287
104555.6177
103948.6763
103344.1613
102767.953
102238.8801
101769.1601
101365.1016
101027.9831
100755.0565
100540.6241
100377.1225
100256.1335
100169.2407
100108.6717
100067.6992
100040.8137
100023.7236
100013.2241
100007.0209
100003.5292
100001.6916
100000.8257
100000.5056
100000.4744
100000.5821
100000.7451
100000.9221
100001.0749
100001.1964
100001.3988
100000.8485
100002.0686
92394.89457
92600.50661
92791.47742
93056.3351
93342.46931
93698.34672
94098.64813
94579.3679
95128.91417
95769.77681
96501.87034
97335.04507
98269.13638
99300.37618
100414.9542
101587.7712
102780.4314
103941.9644
105012.9961
105933.2682
106651.1207
107131.8739
107362.5981
107352.1096
107127.0295
106725.7497
106192.2218
105570.8017
104902.6277
104223.4467
103562.5623
102942.5374
102379.3724
101882.9763
101457.8362
101103.8357
100817.1901
100591.4539
100418.5397
100289.6691
100196.1763
100130.108
100084.5944
100054.0022
100033.9249
100021.0494
100012.9799
100008.039
100005.0876
100003.3731
100002.4111
100001.8971
100001.6433
100001.5366
100001.5123
100001.5143
100001.5292
100001.6468
100001.0451
100002.2619
94265.57251
94495.87619
94700.22904
94996.34938
95313.96433
95708.60308
96150.5059
96678.16437
97278.71103
97972.50627
98758.01672
99640.56868
100615.1691
101670.8919
102785.7908
103926.0352
105045.79
106090.0541
107000.8665
107725.5729
108225.177
108480.0186
108491.3864
108279.1064
107876.5465
107324.7828
106667.3314
105946.146
105199.0032
104458.0521
103749.1972
103092.0186
102500.0221
101981.103
101538.1697
101169.9027
100871.6271
100636.2608
100455.2759
100319.5966
100220.357
100149.4626
100099.9331
100066.0396
100043.2839
100028.265
100018.5022
100012.2396
100008.2674
100005.7714
100004.2156
100003.2531
100002.662
100002.3025
100002.0885
100001.9477
100001.8624
100001.8993
100001.2387
100002.4653
96217.5538
96482.14799
96713.72196
97043.16312
97395.14652
97831.31107
98316.96894
98891.43478
99541.10003
100282.6947
101112.5129
102030.4564
103025.8178
104080.1049
105163.5246
106235.0529
107244.3855
108136.6161
108859.5007
109371.1882
109646.4803
109679.6656
109483.6282
109086.0261
108524.0964
107839.4857
107074.0118
106266.6686
105451.7953
104658.1394
103908.5221
103219.8794
102603.5339
102065.6309
101607.7112
101227.4161
100919.305
100675.7522
100487.859
100346.3054
100242.066
100166.9378
100113.8577
100077.0242
100051.8674
100034.915
100023.6164
100016.1488
100011.2414
100008.0264
100005.9219
100004.5432
100003.6378
100003.0418
100002.6494
100002.3741
100002.1955
100002.1535
100001.422
100002.6809
98294.80368
98597.14493
98855.64987
99218.52755
99603.35923
100078.3878
100604.6193
101220.0419
101910.789
102688.9758
103547.8559
104481.2158
105472.0616
106494.4842
107511.975
108478.7751
109343.6852
110055.865
110572.0328
110862.6863
110915.9239
110737.8397
110349.9777
109784.9505
109081.5977
108280.6684
107421.5404
106540.0396
105667.1875
104828.6118
104044.3845
103329.1196
102692.2378
102138.364
101667.8535
101277.4466
100961.0421
100710.5487
100516.7553
100370.1414
100261.5565
100182.7164
100126.498
100087.0465
100059.737
100041.0408
100028.3494
100019.7836
100014.02
100010.1438
100007.5328
100005.7684
100004.5708
100003.7541
100003.1943
100002.7927
100002.5276
100002.4053
100001.606
100002.9078
100492.4519
100834.6567
101120.2819
101514.8965
101929.1096
102437.5452
102998.5796
103646.7427
104367.5589
105167.7608
106036.7455
106961.7603
107919.5349
108877.7335
109795.1931
110624.5461
111317.3042
111829.8722
112129.7535
112199.7928
112039.7406
111664.8841
111102.6447
110388.2386
109560.4683
108658.2639
107718.2111
106772.9934
105850.5469
104973.6966
104160.0905
103422.315
102768.1359
102200.8566
101719.8001
101320.9234
100997.5519
100741.1942
100542.3752
100391.4111
100279.0543
100196.9626
100137.9714
100096.189
100066.9499
100046.6811
100032.7269
100023.1605
100016.6133
100012.1296
100009.0514
100006.9302
100005.461
100004.4387
100003.7222
100003.2027
100002.8577
100002.6522
100001.8021
100003.1415
102798.2224
103177.423
103485.0856
103910.2012
104352.135
104888.8302
105477.7995
106148.7687
106886.1584
107690.7374
108547.6388
109437.7531
110332.3088
111194.3472
111980.7359
112645.7302
113146.5598
113448.8453
113531.2755
113387.8777
113027.8193
112472.9778
111754.2927
110907.8199
109971.2397
108981.1629
107971.3006
106971.3617
106006.4842
105097.0095
104258.4637
103501.6665
102832.9431
102254.4437
101764.5892
101358.6511
101029.455
100768.164
100565.0797
100410.3853
100294.7604
100209.823
100148.3835
100104.5268
100073.5582
100051.8715
100036.7726
100026.2949
100019.0311
100013.9896
100010.481
100008.0297
100006.3089
100005.0952
100004.2324
100003.6035
100003.1846
100002.8933
100002.0109
100003.3789
105205.068
105617.1169
105943.6594
106393.204
106857.6368
107414.4408
108020.9674
108701.1976
109438.1296
110226.2174
111046.254
111873.5268
112675.2049
113412.0358
114041.7331
114522.94
114820.5922
114910.2156
114780.948
114436.1622
113892.0862
113174.8971
112317.2204
111354.7319
110323.3474
109257.1608
108187.0989
107140.1411
106138.9302
105201.6271
104341.9069
103569.0505
102888.1251
102300.2707
101803.1148
101391.3259
101057.2911
100791.8735
100585.1856
100427.3034
100308.8529
100221.4288
100157.8295
100112.1275
100079.6097
100056.645
100040.5088
100029.2016
100021.2827
100015.7294
100011.8246
100009.0686
100007.1148
100005.7234
100004.7243
100003.9946
100003.507
100003.1279
100002.2346
100003.6177
107694.9464
108135.1828
108477.1343
108943.7026
109423.1471
109989.9693
110601.5732
111275.0535
111991.9194
112740.5205
113497.8213
114234.8949
114916.7934
115504.4266
115958.8
116244.8553
116336.0974
116217.5794
115887.4414
115356.3388
114645.4057
113783.2783
112802.9524
111738.9538
110625.1188
109493.0272
108371.012
107283.5994
106251.233
105290.1686
104412.4685
103626.0707
102934.9393
102339.3239
101836.1502
101419.5526
101081.5309
100812.6867
100602.9719
100442.3767
100321.4904
100231.8973
100166.3948
100119.0527
100085.1478
100061.0317
100043.9561
100031.8941
100023.3768
100017.3545
100013.0852
100010.0484
100007.8792
100006.3231
100005.1973
100004.3754
100003.8235
100003.356
100002.4732
100003.8552
110253.0167
110713.9727
111066.5403
111542.2476
112026.7609
112590.1834
113191.2383
113839.2456
114514.3369
115199.5612
115869.0556
116491.3751
117031.4495
117452.4802
117720.5046
117807.7141
117696.084
117379.1108
116862.1912
116161.2996
115300.6892
114310.0883
113221.9895
112069.3425
110883.8139
109694.595
108527.6641
107405.3737
106346.2421
105364.8648
104471.8973
103674.1004
102974.4662
102372.4545
101864.3658
101443.8576
101102.586
100830.9231
100618.6846
100455.7928
100332.814
100241.3334
100174.1564
100125.3579
100090.212
100065.0594
100047.1336
100034.3854
100025.3219
100018.87
100014.2661
100010.9705
100008.6027
100006.8941
100005.6511
100004.7454
100004.1325
100003.5778
100002.7264
100004.0895
112858.4496
113329.5962
113686.4646
114161.816
114639.9951
115184.1926
115756.7563
116359.3865
116971.0406
117570.4974
118130.273
118618.1178
119000.5971
119244.7868
119322.7164
119213.9413
118908.1418
118405.8311
117717.9294
116864.0495
115870.193
114766.235
113583.6407
112353.6007
111105.666
109866.8315
108660.9756
107508.5422
106426.3704
105427.6087
104521.6816
103714.3134
103007.6337
102400.397
101888.3423
101464.6991
101120.8161
100846.8634
100632.5406
100467.7176
100342.9493
100249.8309
100181.1835
100131.0936
100094.8385
100068.7534
100050.0588
100036.6873
100027.1259
100020.281
100015.3701
100011.8368
100009.2859
100007.4364
100006.0854
100005.104
100004.4323
100003.7938
100002.9939
100004.3174
115493.9449
115961.1911
116309.3102
116766.6789
117225.3778
117734.9871
118261.7163
118800.3912
119329.3004
119824.1551
120257.143
120596.7943
120812.6702
120876.6742
120767.076
120470.2975
119982.5972
119310.0218
118467.4833
117476.9046
116365.0541
115161.3517
113895.9665
112598.3098
111295.956
110013.9257
108774.247
107595.698
106493.6557
105480.005
104563.0891
103747.7145
103035.2402
102423.7862
101908.5845
101482.4773
101136.5369
100860.7548
100644.732
100478.2988
100352.0086
100257.4741
100187.5385
100136.3054
100099.0602
100072.1373
100052.7481
100038.8111
100028.7962
100021.5922
100016.4002
100012.6486
100009.9294
100007.95
100006.5
100005.4508
100004.7212
100004.0051
100003.2754
100004.534
118113.2903
118560.8157
118892.7866
119321.5866
119747.6364
120208.2955
120673.6067
121132.238
121562.5482
121938.5088
122233.1721
122417.1048
122463.7046
122350.047
122060.3457
121587.0361
120931.7265
120104.6453
119123.4518
118011.3976
116795.3624
115503.9669
114165.9904
112809.1448
111459.2092
110139.4564
108870.297
107669.0593
106549.8464
105523.4364
104597.2175
103775.178
103057.984
102443.1805
101925.5382
101497.5469
101150.0293
100872.8183
100655.4309
100487.6692
100360.0931
100264.3395
100193.2784
100141.0352
100102.9076
100075.2329
100055.2169
100040.7674
100030.3399
100022.8085
100017.3593
100013.4077
100010.534
100008.4351
100006.8949
100005.7849
100004.998
100004.2133
100003.5689
100004.7339
120674.2125
121094.8844
121404.4992
121793.622
122175.4391
122574.1821
122964.6016
123330.2682
123650.3285
123898.22
124048.7353
124075.2753
123955.399
123671.2182
123212.2626
122575.9967
121768.2231
120802.224
119697.4604
118477.8318
117169.927
115801.4062
114399.6786
112990.8925
111599.2282
110246.4276
108951.4941
107730.4955
106596.4226
105559.0795
104625.0063
103797.4569
103076.4701
102459.0664
101939.594
101510.2206
101161.5422
100883.2503
100664.7914
100495.9483
100367.2947
100270.4967
100198.4554
100145.3216
100106.4089
100078.0604
100057.4797
100042.5663
100031.7641
100023.9342
100018.2503
100014.1159
100011.1005
100008.8921
100007.2703
100006.1055
100005.2614
100004.4201
100003.8693
100004.9151
123161.5373
123540.2023
123816.8672
124154.1384
124480.1931
124806.1058
125111.3214
125375.2581
125578.2973
125694.2832
125700.2565
125572.8209
125293.6244
124849.3799
124234.165
123449.5169
122504.444
121414.4025
120199.9782
118885.2781
117496.3825
116059.9539
114602.1189
113147.6249
111719.2492
110337.4028
109019.8686
107781.618
106634.6679
105587.9616
104647.2809
103815.2169
103091.2362
102471.8781
101951.102
101520.7794
101171.2997
100892.2287
100672.953
100503.2446
100373.697
100276.0093
100203.1175
100149.2005
100109.5904
100080.639
100059.5502
100044.2174
100033.0753
100024.9741
100019.0762
100014.7749
100011.63
100009.3212
100007.6263
100006.4119
100005.5109
100004.6269
100004.1688
100005.0844
125524.6684
125855.0338
126094.7451
126373.8319
126637.132
126883.48
127097.4311
127255.4867
127339.5938
127324.6959
127190.2679
126916.1602
126487.799
125895.9317
125138.4191
124220.0333
123152.1988
121951.8968
120640.3797
119241.7001
117781.3394
116285.0008
114777.6521
113282.808
111822.0271
110414.5692
109077.1597
107823.8148
106665.6951
105610.9788
104664.7665
103829.0463
103102.7602
102482.0036
101960.3761
101529.4764
101179.5048
100899.9147
100680.0429
100509.6576
100379.3766
100280.936
100207.3091
100152.7049
100112.4766
100082.9867
100061.4413
100045.73
100034.2801
100025.9324
100019.8399
100015.3865
100012.1233
100009.7233
100007.963
100006.7029
100005.7467
100004.8342
100004.4621
100005.2472
127751.6819
128023.5685
128218.9208
128433.19
128628.4422
128791.8494
128912.599
128965.1516
128932.9073
128792.276
128525.1271
128114.4137
127548.9282
126822.8704
125937.1997
124899.2379
123722.2274
122424.2196
121026.8435
119553.963
118030.4532
116481.141
114929.9737
113399.3974
111909.9203
110479.8096
109124.8749
107858.2978
106690.4833
105628.9261
104678.1106
103839.4738
103111.474
102489.7951
101967.7029
101536.5432
101186.3435
100906.4565
100686.1782
100515.279
100384.4049
100285.3315
100211.0718
100155.8663
100115.0909
100085.1206
100063.1655
100047.1131
100035.3847
100026.8135
100020.5443
100015.9526
100012.5816
100010.0989
100008.2806
100006.9781
100005.9691
100005.042
100004.7446
100005.402
129800.3763
130012.4895
130163.7894
130313.2026
130440.6828
130522.9765
130553.1304
130504.59
130362.1344
130103.9222
129714.0986
129178.4864
128488.8106
127642.1832
126642.0884
125497.8624
124224.1315
122839.7134
121366.445
119827.9524
118248.5471
116652.2849
115062.2322
113499.9197
111984.9559
110534.7538
109164.3294
107886.1338
106709.9021
105642.5154
104687.8978
103846.9802
103117.7728
102495.5766
101973.3466
101542.1943
101191.9887
100911.9927
100691.469
100520.1953
100388.8492
100289.248
100214.4453
100158.7146
100117.4558
100087.0574
100064.735
100048.3755
100036.3956
100027.622
100021.1925
100016.4752
100013.0061
100010.4488
100008.5794
100007.2368
100006.179
100005.2486
100005.0103
100005.5513
131656.8397
131809.5641
131920.0259
132008.0435
132070.7557
132076.6629
132021.6539
131879.0593
131634.8838
131269.1493
130768.0636
130120.0222
129319.2638
128365.3404
127263.7988
126025.5876
124666.4141
123205.6697
121665.3153
120068.7438
118439.7742
116801.8041
115177.153
113586.5748
112048.9113
110580.8428
109196.6968
107908.2832
106724.741
105652.3982
104694.6668
103852.0109
103122.0241
102499.6505
101977.555
101546.6314
101196.6033
100916.6538
100696.0191
100524.4884
100392.7736
100292.735
100217.4678
100161.279
100119.5931
100088.8135
100066.1619
100049.526
100037.319
100028.3624
100021.7877
100016.9565
100013.3984
100010.7742
100008.8595
100007.479
100006.377
100005.4516
100005.2583
100005.7026
133317.5072
133415.8999
133488.6777
133520.304
133522.4864
133458.2232
133325.1928
133097.1976
132761.1831
132298.9887
131698.6142
130950.705
130051.6328
129002.9916
127812.0307
126491.0156
125056.529
123528.4232
121928.7534
120280.7163
118607.7225
116932.6228
115277.1136
113661.2965
112103.3638
110619.368
109223.0393
107925.6238
106735.7284
105659.1799
104698.9216
103854.9848
103124.5753
102502.3033
101980.563
101550.046
101200.3425
100920.5646
100699.9278
100528.2369
100396.2397
100295.8404
100220.176
100163.5874
100121.5241
100090.4046
100067.4581
100050.5733
100038.1614
100029.0393
100022.3332
100017.3986
100013.7598
100011.0761
100009.1214
100007.7044
100006.563
100005.649
100005.4965
100005.8579
134793.155
134840.6025
134876.2878
134856.8627
134803.8297
134676.7268
134473.9302
134170.085