/*--------------------------------*- C++ -*----------------------------------*\
  =========                 |
  \\      /  F ield         | OpenFOAM: The Open Source CFD Toolbox
   \\    /   O peration     | Website:  https://openfoam.org
    \\  /    A nd           | Version:  12
     \\/     M anipulation  |
\*---------------------------------------------------------------------------*/
FoamFile
{
    format      ascii;
    class       surfaceScalarField;
    location    "1500";
    object      phi;
}
// * * * * * * * * * * * * * * * * * * * * * * * * * * * * * * * * * * * * * //

dimensions      [1 0 -1 0 0 0 0];

internalField   nonuniform List<scalar> 
32120
(
-0.0006158460538
-0.04514942384
0.0457652699
-0.001364103503
-0.06419893098
0.06494718856
-0.002280517527
-0.08349579317
0.08441220728
-0.003383187254
-0.1061536167
0.1072562865
-0.004600252345
-0.1340984856
0.1353155508
-0.005728469356
-0.1697808797
0.1709090968
-0.006702705843
-0.2160721221
0.2170463588
-0.009595457765
-0.2725971322
0.2754898846
-0.01733099067
-0.3308654414
0.3386009749
-0.02785854347
-0.3944534515
0.4049810052
-0.04039539768
-0.4695227615
0.4820596169
-0.05527563574
-0.5590038939
0.5738841333
-0.07296110555
-0.6654643853
0.6831498567
-0.09398152681
-0.7922402238
0.813260647
-0.1189586576
-0.9431142046
0.9680913374
-0.1486362147
-1.122715103
1.152392663
-0.1838908399
-1.336452691
1.371707319
-0.2257674316
-1.590816656
1.632693251
-0.2755024101
-1.893470711
1.943205693
-0.3345668014
-2.253535094
2.312599489
-0.4047067572
-2.681803991
2.75194395
-0.4880012889
-3.191068502
3.274363037
-0.5869275894
-3.796445228
3.895371532
-0.704446951
-4.515777132
4.633296497
-0.8441102862
-5.3700751
5.509738438
-1.010193338
-6.384025903
6.550108958
-1.207864524
-7.586570546
7.784241733
-1.443383828
-9.011590815
9.24711012
-1.724321675
-10.69876397
10.97970181
-2.059769323
-12.6946929
13.03014055
-2.460497321
-15.05446602
15.45519402
-2.939022045
-17.84382946
18.32235419
-3.509611031
-21.14206381
21.7126528
-4.188364234
-25.04545214
25.72420535
-4.993541538
-29.67107659
30.4762539
-5.946197031
-35.1607839
36.1134394
-7.071024685
-41.68542453
42.81025219
-8.397229805
-49.44967301
50.77587814
-9.959264499
-58.69777867
60.25981337
-11.79733697
-69.72057588
71.55864836
-13.95767947
-82.86406862
85.02441111
-16.49254957
-98.53995483
101.0748249
-19.45989248
-117.2384741
120.205817
-22.92248157
-139.5440377
143.0066267
-26.94621419
-166.154174
170.1779066
-31.59707158
-197.9024613
202.5533187
-36.9360148
-235.7862641
241.1252074
-43.01076871
-281.0003689
287.0751228
-49.84299246
-334.9778912
341.810115
-57.40866691
-399.4402237
407.0058981
-65.60859204
-476.4582808
484.658206
-74.22454629
-568.5279457
577.1439
-82.85470795
-678.6635352
687.2936969
-90.81925189
-810.5141534
818.4786973
-97.02311269
-968.5096293
974.7134901
-99.75730197
-1158.044608
1160.778797
-96.41259923
-1385.71323
1382.368528
-83.06695713
-1659.610473
1646.264831
-53.89477245
-1989.702868
1960.530683
-2388.361032
2334.788027
-0.0005296118628
-0.04461981192
-0.001185782996
-0.06354275972
-0.001984831699
-0.08269674436
-0.002930149155
-0.1052082991
-0.003957945611
-0.133070689
-0.00492499715
-0.1688138279
-0.005880219946
-0.2151168989
-0.009845257375
-0.2686320942
-0.0174133428
-0.323297355
-0.02675970312
-0.3851070901
-0.03786750949
-0.4584149538
-0.05108598618
-0.5457854156
-0.06680861338
-0.6497417562
-0.08551269739
-0.7735361376
-0.1077570417
-0.9208698578
-0.1342122901
-1.096259852
-0.1656678375
-1.304997141
-0.2030654509
-1.553419039
-0.2475190112
-1.849017147
-0.3003547065
-2.200699395
-0.363148798
-2.619009895
-0.4377830108
-3.116434285
-0.5265090358
-3.7077192
-0.6320339883
-4.410252176
-0.7576285807
-5.244480505
-0.9072661674
-6.234388314
-1.085793992
-7.408042721
-1.299131865
-8.798252939
-1.554479638
-10.44341619
-1.860492207
-12.38868032
-2.227356192
-14.68760203
-2.666732168
-17.40445347
-3.191642937
-20.61715303
-3.816509606
-24.42058545
-4.557509846
-28.93007635
-5.433267263
-34.28502645
-6.465721442
-40.65297035
-7.68098345
-48.23441097
-9.11003543
-57.26872669
-10.78920957
-68.0414017
-12.76043184
-80.89284635
-15.07121578
-96.22917086
-17.77433743
-114.5353524
-20.92703291
-136.3913422
-24.58942835
-162.4917785
-28.82176868
-193.6701209
-33.67977698
-230.9282558
-39.20719859
-275.4729473
-45.4241631
-328.7609267
-52.30939625
-392.5549905
-59.77346075
-468.9942163
-67.618973
-560.6824335
-75.48204049
-670.8004677
-82.74656814
-803.2496257
-88.41974618
-962.8364513
-90.95175429
-1155.5126
-87.97591903
-1388.689066
-75.93438136
-1671.652011
-49.5417647
-2016.095484
-2436.884172
-0.0004002700699
-0.04421954176
-0.00088464394
-0.06305838567
-0.001463096747
-0.08211829141
-0.002105207569
-0.1045661881
-0.00270262503
-0.1324732713
-0.003146577087
-0.1683698755
-0.003878486393
-0.214384989
-0.00812625372
-0.264384326
-0.01499525894
-0.3164283486
-0.02332120578
-0.3767811417
-0.033211213
-0.4485249448
-0.04497710386
-0.5340195226
-0.05896918831
-0.6357496694
-0.07561230267
-0.7568930206
-0.09540131711
-0.9010808403
-0.1189320746
-1.072729091
-0.1469058952
-1.277023316
-0.180161977
-1.520162954
-0.219696058
-1.809483062
-0.2666987354
-2.153696713
-0.3225921611
-2.563116466
-0.3890837612
-3.049942681
-0.4682308767
-3.628572081
-0.5625284904
-4.315954558
-0.6750226542
-5.131986339
-0.8094564286
-6.099954537
-0.9704455762
-7.247053572
-1.163672958
-8.605025556
-1.396066886
-10.21102226
-1.67589954
-12.10884767
-2.012735548
-14.35076602
-2.417247971
-16.99994104
-2.901066992
-20.13333401
-3.476882487
-23.84476995
-4.158907501
-28.24805133
-4.963622597
-33.48031134
-5.910619984
-39.70597296
-7.023381317
-47.12164962
-8.329893425
-55.96221458
-9.863070225
-66.50822489
-11.66096927
-79.09494731
-13.76678728
-94.12335284
-16.22856445
-112.0735753
-19.09844984
-133.5214568
-22.43127588
-159.1589525
-26.28203543
-189.8193614
-30.70167452
-226.5086167
-35.73033712
-270.4442847
-41.38682113
-323.1044427
-47.65246129
-386.2893504
-54.44688733
-462.1997903
-61.59197968
-553.5373411
-68.7587803
-663.6336671
-75.38985163
-796.6185544
-80.58639163
-957.6399113
-82.94483161
-1153.15416
-80.32126732
-1391.31263
-69.49217892
-1682.481099
-45.668077
-2039.919586
-2480.753551
-0.0002913643856
-0.04392817729
-0.0006372986212
-0.06271245128
-0.001039268045
-0.08171632186
-0.001435891393
-0.1041695646
-0.001662706305
-0.1322464561
-0.001600765014
-0.1684318164
-0.002584760701
-0.2134009928
-0.006944091085
-0.2600249948
-0.01308379283
-0.3102886458
-0.02041732424
-0.369447609
-0.02911884997
-0.4398234174
-0.03947169606
-0.5236666747
-0.05178239686
-0.6234389664
-0.06642763623
-0.7422477788
-0.0838452975
-0.8836631763
-0.1045654376
-1.052008948
-0.1292130822
-1.252375669
-0.15853845
-1.490837582
-0.1934341331
-1.774587375
-0.2349708146
-2.112160028
-0.2844337556
-2.513653521
-0.3433774645
-2.990998968
-0.4136945978
-3.558254945
-0.4977101405
-4.231939013
-0.5983030465
-5.031393432
-0.7190582256
-5.979199357
-0.8644420752
-7.101669722
-1.03997692
-8.42949071
-1.252358061
-9.998641117
-1.509434747
-11.85177098
-1.820021765
-14.040179
-2.193648348
-16.62631446
-2.640466101
-19.68651626
-3.171490663
-23.31374538
-3.799174118
-27.62036788
-4.538161119
-32.74132434
-5.406056363
-38.83807772
-6.424090345
-46.10361563
-7.617637987
-54.76866694
-9.016576831
-65.10928603
-10.65548455
-77.45603959
-12.57363945
-92.20519793
-14.81476215
-109.8324526
-17.42635634
-130.9098626
-20.45841837
-156.1268905
-23.96115508
-186.3166247
-27.98117725
-222.4885946
-32.55538793
-265.870074
-37.70144513
-317.9583855
-43.40318385
-380.5876116
-49.58868189
-456.0142922
-56.09764587
-547.0283771
-62.63335233
-657.0979607
-68.69240988
-790.5594969
-73.46251886
-952.8698023
-75.67459426
-1150.942084
-73.38945842
-1393.597766
-63.69075244
-1692.179805
-42.24441514
-2061.365924
-2520.328214
-0.0001944938892
-0.04373368329
-0.0004050026926
-0.06250194231
-0.0006273524609
-0.08149397193
-0.0007783808051
-0.1040185361
-0.0006560555946
-0.1323687811
-0.0001178170322
-0.1689700545
-0.001457214274
-0.2120615948
-0.005549872915
-0.2559323352
-0.01090676112
-0.3049317563
-0.0172715332
-0.3630828354
-0.02485063171
-0.4322443172
-0.03387765906
-0.5146396454
-0.04462181282
-0.6126948104
-0.0574163701
-0.729453219
-0.07264724966
-0.8684322939
-0.09078258
-1.033873614
-0.1123745296
-1.230783716
-0.1380876048
-1.465124503
-0.1687165914
-1.743958385
-0.2052225553
-2.07565406
-0.2487727085
-2.470103365
-0.3007983115
-2.938973362
-0.3630690762
-3.495984178
-0.437793469
-4.157214618
-0.5277473037
-4.941439596
-0.6364290718
-5.870517587
-0.7682241364
-6.969874656
-0.9285329843
-8.269181862
-1.123789298
-9.803384801
-1.361302844
-11.61425743
-1.648972989
-13.75250885
-1.995062628
-16.28022481
-2.408248977
-19.2733299
-2.898022182
-22.82397217
-3.475327968
-27.04306209
-4.153280152
-32.06337215
-4.947814888
-38.04354298
-5.878231672
-45.17319884
-6.967614879
-53.67928373
-8.243137689
-63.83376322
-9.736240038
-75.96293724
-11.48264432
-90.45879365
-13.52213614
-107.7929608
-15.89798088
-128.5340178
-18.65576519
-153.3691062
-21.8413426
-183.1310473
-25.49739738
-218.8325398
-29.65792965
-261.7095418
-34.339642
-313.2766732
-39.52878027
-375.3984734
-45.16131516
-450.3817573
-51.09348178
-541.0962105
-57.0583758
-651.1330666
-62.60241455
-785.0154581
-66.99301476
-948.4792021
-69.08485619
-1148.850243
-67.12707905
-1395.555543
-58.48571543
-1700.821169
-39.24526029
-2080.606379
-2555.933257
-0.0001218784036
-0.04361180479
-0.0002154683088
-0.06240835228
-0.0002718257351
-0.08143761439
-0.0001752722027
-0.1041150895
0.0002939402187
-0.1328379933
0.00104693447
-0.1697230484
-0.0005483500777
-0.2104663098
-0.004051520471
-0.2524291641
-0.008705841807
-0.3002774341
-0.01424532706
-0.3575433491
-0.02084254603
-0.425647097
-0.02869640782
-0.5067857822
-0.0380386039
-0.6033526127
-0.04915889002
-0.718332931
-0.06239273094
-0.855198451
-0.07814981498
-1.018116528
-0.09691702711
-1.212016501
-0.1192858123
-1.442755716
-0.1459720241
-1.717272171
-0.1778521261
-2.043773956
-0.2160054767
-2.431950012
-0.2617750202
-2.893203816
-0.316848355
-3.440910842
-0.3833665399
-4.090696431
-0.4640595903
-4.860746544
-0.5623965507
-5.772180626
-0.6827166076
-6.849554597
-0.830278583
-8.121619884
-1.011152105
-9.622511277
-1.231942191
-11.39346734
-1.499484458
-13.48496658
-1.820737787
-15.95897148
-2.203014661
-18.89105303
-2.654503028
-22.3724838
-3.184914126
-26.51265099
-3.806104942
-31.44218133
-4.532603181
-37.31704474
-5.382030738
-44.32377128
-6.375441684
-52.68587278
-7.537583775
-62.67162112
-8.897063096
-74.60345792
-10.48637647
-88.86948027
-12.34173168
-105.9376056
-14.50253732
-126.3732122
-17.01037403
-150.8612695
-19.90714798
-180.2342733
-23.23200305
-215.5076847
-27.0163546
-257.9251902
-31.2761348
-309.016893
-35.99992689
-370.6746813
-41.13111111
-445.2505731
-46.54129359
-535.686028
-51.99114963
-645.6832106
-57.07314809
-779.9334596
-61.12821
-944.4241402
-63.12504325
-1146.85341
-61.48618084
-1397.194405
-53.83748814
-1708.469862
-36.64845431
-2097.795413
-2587.862478
-5.511289241e-05
-0.0435566918
-3.418131543e-05
-0.06242928373
8.626651352e-05
-0.0815580621
0.0004668547944
-0.1044956776
0.001354257489
-0.1337253958
0.002001728968
-0.1703705196
0.0001058252908
-0.2085704056
-0.003229466327
-0.2490938717
-0.007192146315
-0.2963147533
-0.01191815898
-0.3528173354
-0.01753794035
-0.4200273145
-0.02423467983
-0.5000890414
-0.03220862014
-0.5953786709
-0.04171333163
-0.7088282179
-0.05304352248
-0.8438682583
-0.06656171617
-1.004598332
-0.08270244653
-1.195875769
-0.1019980943
-1.423460066
-0.1251003709
-1.694169892
-0.1528174082
-2.016056916
-0.1861607403
-2.398606678
-0.2264130393
-2.852951515
-0.275219092
-3.392104788
-0.3347020057
-4.031213515
-0.4075963079
-4.78785224
-0.4973747371
-5.682402195
-0.6083196921
-6.73860964
-0.7454649901
-7.984474584
-0.9143623354
-9.453613929
-1.120748333
-11.18708134
-1.370317556
-13.23539735
-1.668793058
-15.66049598
-2.022318582
-18.5375275
-2.438036334
-21.95676605
-2.924678676
-26.02600864
-3.493072019
-30.87378798
-4.156537966
-36.65357879
-4.931217922
-43.54909132
-5.836347591
-51.78074311
-6.894485343
-61.61348337
-8.131673004
-73.36627026
-9.57748121
-87.42367206
-11.26487102
-104.2502157
-13.22975381
-124.4083294
-15.51007898
-148.5809443
-18.14418876
-177.6001635
-21.16805033
-212.4838231
-24.61080073
-254.4824398
-28.48777726
-305.1399164
-32.78985866
-366.3725999
-37.46740108
-440.5730307
-42.40634069
-530.7470884
-47.39295844
-640.6965929
-52.06231387
-775.2641042
-55.82321513
-940.6632389
-57.74958921
-1144.927036
-56.42375243
-1398.520242
-49.71091258
-1715.182701
-34.43499857
-2113.071327
-2616.380778
-1.507842327e-06
-0.0435551839
0.0001218478729
-0.06255263938
0.0004217107066
-0.08185792488
0.001091378383
-0.1051653452
0.002380986802
-0.135015004
0.002771490208
-0.1707610228
0.0008491471364
-0.2066480622
-0.002123345431
-0.2461213788
-0.005470041678
-0.2929680566
-0.009457606528
-0.3488297701
-0.01420730153
-0.4152776189
-0.01987655158
-0.4944197907
-0.02663810414
-0.5886171176
-0.03471288492
-0.7007534363
-0.04435922372
-0.8342219185
-0.05589731712
-0.993060238
-0.06971559636
-1.182057489
-0.0862959477
-1.406879713
-0.1062387064
-1.674227132
-0.13030329
-1.991992331
-0.1594624436
-2.369447523
-0.1949777938
-2.817436164
-0.2384971523
-3.348585428
-0.2921698597
-3.977540806
-0.3587645311
-4.721257567
-0.4417534542
-5.59941327
-0.5452984546
-6.635064638
-0.6740735767
-7.855699459
-0.8329452897
-9.294742214
-1.026670638
-10.99335599
-1.259825769
-13.00224222
-1.537060251
-15.38326149
-1.863591558
-18.21099619
-2.245765383
-21.57459222
-2.691547794
-25.58022623
-3.210907295
-30.35442848
-3.816109893
-36.04837619
-4.521969203
-42.84323201
-5.346075898
-50.95663642
-6.309005403
-60.65055386
-7.434474023
-72.24080164
-8.749403688
-86.10874239
-10.28381535
-102.7158041
-12.07045699
-122.6216878
-14.14400148
-146.5073998
-16.53958755
-175.2045775
-19.29035159
-209.7330591
-22.42344164
-251.3493497
-25.95378207
-301.609576
-29.87451613
-362.4518658
-34.14260669
-436.3049401
-38.65739487
-526.2323002
-43.22896846
-636.1250193
-47.53188311
-770.9611896
-51.03775683
-937.1573652
-52.91769656
-1143.047096
-51.9014987
-1399.53644
-46.07505791
-1721.009142
-32.58893986
-2126.557445
-2641.726389
4.551138932e-05
-0.04360069524
0.000271868585
-0.06277899649
0.0007583299171
-0.08234438612
0.001710445809
-0.106117461
0.003220445768
-0.1365250038
0.00318248333
-0.1707230601
0.001346136429
-0.204811715
-0.0009835838001
-0.2437916581
-0.003783988045
-0.2901676518
-0.007128251305
-0.3454855062
-0.01111184764
-0.4112940219
-0.01587070902
-0.4896609285
-0.02155338514
-0.5829344406
-0.02835218031
-0.6939546401
-0.03649481662
-0.8260792811
-0.04626683815
-0.9832882153
-0.05802100259
-1.170303323
-0.0722031233
-1.392697591
-0.08938198198
-1.657048272
-0.1102946405
-1.971079672
-0.1359074239
-2.343834739
-0.1674964506
-2.785847135
-0.2067459445
-3.309335933
-0.2558551526
-3.928431596
-0.317627383
-4.659485335
-0.3954893115
-5.521551339
-0.4933709793
-6.537182968
-0.6154269224
-7.733643514
-0.7657032816
-9.144465853
-0.9479549455
-10.81110432
-1.165761545
-12.78443562
-1.422921741
-15.1261013
-1.723972065
-17.90994586
-2.074672884
-21.2238914
-2.482384306
-25.17251481
-2.956339206
-29.88047358
-3.507858317
-35.49685708
-4.150548824
-42.2005415
-4.900504299
-50.20668094
-5.776498157
-59.77456
-6.800141639
-71.21715815
-7.995959625
-84.91292441
-9.391320323
-101.3204434
-11.01612013
-120.996888
-12.90208968
-144.6214302
-15.0815043
-173.0251628
-17.58499507
-207.2295683
-20.43800328
-248.4963415
-23.65521577
-298.3923635
-27.23203733
-358.8750442
-31.13171907
-432.4052584
-35.26618336
-522.0978359
-39.46773403
-631.9234686
-43.44760619
-766.9813174
-46.7356437
-933.8693277
-48.59287019
-1141.189869
-47.88538762
-1400.243923
-42.90283763
-1725.991692
-31.09717904
-2138.363103
-2664.112796
0.0001009890769
-0.04370168429
0.0004507723347
-0.0631287797
0.001150264639
-0.08304387838
0.002434296716
-0.107401493
0.003941665795
-0.1380323728
0.003452968197
-0.1702343624
0.001816218528
-0.2031749652
-0.0001156035862
-0.2418598358
-0.002398897652
-0.2878843575
-0.005134842839
-0.3427495607
-0.008404211211
-0.4080246532
-0.01232439985
-0.4857407394
-0.01702429833
-0.5782345417
-0.02267235597
-0.6883065819
-0.02947167197
-0.8192799646
-0.03768112897
-0.9750787577
-0.04762903663
-1.160355415
-0.05974086814
-1.380585759
-0.07457413619
-1.642215003
-0.09286782577
-1.952785981
-0.1156081964
-2.321094367
-0.1441117981
-2.757343533
-0.1801205195
-3.27332721
-0.225889634
-3.88266248
-0.2842289874
-4.601145979
-0.3584329155
-5.447347409
-0.4520554916
-6.44356039
-0.5685841046
-7.617114899
-0.7111824302
-9.001867526
-0.8826803949
-10.63960636
-1.085855842
-12.58126017
-1.323895086
-14.88806205
-1.600867825
-17.63297312
-1.922107557
-20.90265167
-2.294477188
-24.80014517
-2.726557141
-29.44839362
-3.22880516
-34.99460906
-3.813722705
-41.61562395
-4.496036433
-49.52436721
-5.292883816
-58.97771262
-6.22397122
-70.28607075
-7.311662816
-83.82523281
-8.580939458
-100.0511667
-10.05914077
-119.5186867
-11.77536612
-142.9052049
-13.7593501
-171.0411788
-16.0395307
-204.9493877
-18.63990919
-245.895963
-21.57511809
-295.4571546
-24.8428343
-355.607328
-28.41232978
-428.8357629
-32.20739095
-518.3027748
-36.08109774
-628.0497618
-39.77886076
-763.2835544
-42.88460075
-930.7635877
-44.74271245
-1139.331758
-44.34543795
-1400.641197
-40.17084822
-1730.166282
-29.94935175
-2148.5846
-2683.730563
0.0001489104351
-0.04385059468
0.0006265455069
-0.06360641471
0.001537965073
-0.08395529788
0.003144978939
-0.1090085068
0.004453213764
-0.1393406075
0.003720494674
-0.1695016431
0.002421514357
-0.2018759846
0.0008623917224
-0.2403007129
-0.0009908045089
-0.286031161
-0.003214957712
-0.3405254071
-0.005876808318
-0.4053628021
-0.009076782877
-0.4825407644
-0.01292727557
-0.5743840484
-0.01757832409
-0.6836555328
-0.02321692614
-0.8136413619
-0.03008730084
-0.9682083824
-0.03850816047
-1.151934554
-0.04890169659
-1.370192222
-0.06183265653
-1.629284043
-0.07806208011
-1.936556557
-0.0986177412
-2.300538705
-0.124877125
-2.731084148
-0.1586507393
-3.239553594
-0.2022349114
-3.839078306
-0.2583807468
-4.545000141
-0.3301252355
-5.375602918
-0.4204972736
-6.35318835
-0.5322242778
-7.505387894
-0.6676198936
-8.866471909
-0.8287496444
-10.47847661
-1.017815576
-12.39219424
-1.237608131
-14.66826949
-1.491892842
-17.37868841
-1.785681316
-20.60886319
-2.125406862
-24.46041963
-2.519053159
-29.05474732
-2.976280727
-34.53738149
-3.508573915
-41.08333076
-4.129412433
-48.90352869
-4.854450042
-58.25267501
-5.701675912
-69.43884488
-6.691513071
-82.83539565
-7.846804118
-98.8958757
-9.192606118
-118.1728847
-10.75568442
-141.3421266
-12.56353514
-169.2333281
-14.64269851
-202.8702244
-17.01600031
-243.5226612
-19.69819634
-292.7749586
-22.68927123
-352.6162531
-25.96429713
-425.560737
-29.45829259
-514.8087793
-33.04385176
-624.4642026
-36.49831298
-759.8290932
-39.45593655
-927.8059641
-41.33855833
-1137.449136
-41.25542462
-1400.724331
-37.85912156
-1733.562585
-29.13771841
-2157.306003
-2700.748936
0.0001957035376
-0.04404629819
0.0008141728074
-0.06422488394
0.001949540458
-0.08509066549
0.00376309938
-0.1108220656
0.004490920583
-0.1400684286
0.00379149428
-0.1688022167
0.002771153674
-0.2008556438
0.001564586295
-0.2390941453
0.0001253521048
-0.2845919265
-0.001613172261
-0.3387868825
-0.003709251319
-0.4032667228
-0.006252116669
-0.4799978987
-0.009345200396
-0.5712909643
-0.01312837871
-0.6798723541
-0.01778090692
-0.8089888333
-0.02354052921
-0.9624487597
-0.03072465267
-1.14475043
-0.03976254386
-1.361154331
-0.05124065933
-1.617805927
-0.06596134407
-1.921835872
-0.08501463747
-2.281485411
-0.1098532329
-2.706245551
-0.1423498049
-3.207057021
-0.1847933102
-3.7966348
-0.2397709619
-4.490022488
-0.3099203239
-5.305453555
-0.3976324607
-6.265476212
-0.5048669289
-7.398153425
-0.6332092861
-8.738129551
-0.7841670109
-10.32751888
-0.9595823515
-12.2167789
-1.16201927
-14.46583257
-1.395046674
-17.14566101
-1.663414874
-20.34049499
-1.973166395
-24.1506681
-2.331728663
-28.69618505
-2.748021648
-34.1210885
-3.232595521
-40.59875689
-3.797795279
-48.33832893
-4.457935869
-57.59253441
-5.229463877
-68.66731687
-6.131065991
-81.93379353
-7.183681496
-97.84326019
-8.41034447
-116.9462217
-9.835762045
-139.916709
-11.48548165
-167.5836085
-13.38443098
-200.971275
-15.55451108
-241.3525811
-18.01078712
-290.3186826
-20.75560217
-349.8714381
-23.76965461
-422.5466846
-26.99865957
-511.5797744
-30.33359084
-621.1292714
-33.5817145
-756.5809695
-36.42430477
-924.9633739
-38.35529496
-1135.518146
-38.5926747
-1400.486951
-35.95096157
-1736.204298
-28.65707356
-2164.599891
-2715.317241
0.0002438609292
-0.04429015909
0.001016543247
-0.06499756629
0.002408508127
-0.08648263039
0.004274882465
-0.11268844
0.004642831615
-0.1404363778
0.004069984322
-0.1682293694
0.003303060756
-0.2000887203
0.002391302641
-0.2381823873
0.001291107571
-0.2834917316
-5.355652405e-05
-0.3374422185
-0.001694691063
-0.4016255884
-0.003713477239
-0.4779791127
-0.006205741287
-0.5687987005
-0.009303063725
-0.6767750319
-0.01317996818
-0.805111929
-0.01807423178
-0.9575544962
-0.02431371274
-1.138510949
-0.03235281181
-1.353115232
-0.04282183623
-1.607336902
-0.05658622365
-1.908071484
-0.07481297345
-2.26325866
-0.09902751
-2.682031014
-0.1311284242
-3.174956105
-0.1733109603
-3.754452261
-0.2278693278
-4.435464119
-0.2969198719
-5.23640301
-0.3821749323
-6.180221152
-0.4849084167
-7.29541994
-0.6061582521
-8.616879714
-0.7470842782
-10.18659285
-0.9093446375
-12.05451854
-1.095391026
-14.27978618
-1.308655453
-16.93239658
-1.553656114
-20.09549433
-1.836067571
-23.86825665
-2.162794202
-28.36945842
-2.542069898
-33.74181281
-2.98359047
-40.15723632
-3.498673728
-47.82324567
-4.100433218
-56.99077492
-4.803937347
-67.96381274
-5.626331757
-81.11139912
-6.586870678
-96.88272127
-7.706808588
-115.8262838
-9.009059389
-138.6144582
-10.51749637
-166.0751715
-12.25570585
-199.2330655
-14.24491342
-239.3633736
-16.5006801
-288.0629159
-19.02777837
-347.3443398
-21.81240386
-419.7620591
-24.81050105
-508.5816772
-27.93045923
-618.0093132
-31.00769287
-753.5037359
-33.76748556
-922.2035812
-35.77110506
-1133.514526
-36.33782831
-1399.920228
-34.43277512
-1738.109351
-28.50469936
-2170.527967
-2727.566216
0.0002951057432
-0.04458526481
0.001221510705
-0.06592397125
0.002844343923
-0.0881054636
0.004583381704
-0.1144274778
0.004742649138
-0.1405956452
0.004275418451
-0.1677621387
0.00370560447
-0.1995189063
0.003021130813
-0.2374979136
0.00218837849
-0.2826589792
0.001158586216
-0.3364124262
-0.0001139477859
-0.4003530543
-0.001703025849
-0.4763900346
-0.003702101769
-0.5667996245
-0.006241406293
-0.6742357274
-0.009502117431
-0.8018512178
-0.01373774082
-0.9533188729
-0.0193046833
-1.132944007
-0.02670047225
-1.345719443
-0.03661429771
-1.597423076
-0.04998421593
-1.894701565
-0.06805219012
-2.245190685
-0.09238934551
-2.657693857
-0.1248509985
-3.14249445
-0.1674258618
-3.711877397
-0.2219934713
-4.380896509
-0.2900844205
-5.168312061
-0.3727768949
-6.097528677
-0.4708089203
-7.197387914
-0.5848692736
-8.502819361
-0.7159496731
-10.05551245
-0.8656467637
-11.90482144
-1.036363699
-14.10906925
-1.231420896
-16.73733938
-1.455115452
-19.87179977
-1.712769969
-23.61060213
-2.010798434
-28.07142996
-2.356802735
-33.3958085
-2.759703343
-39.75433571
-3.229896085
-47.35305293
-3.779421801
-56.4412492
-4.422129299
-67.32110524
-5.173804164
-80.35972426
-6.052223706
-96.00430173
-7.077095583
-114.8014119
-8.26978851
-137.4217653
-9.652765163
-164.6921949
-11.24853325
-197.6372975
-13.07788719
-237.5340196
-15.15707468
-285.9837284
-17.49338824
-345.0080263
-20.07843132
-417.177016
-22.87799781
-505.7821107
-25.81704917
-615.0702618
-28.75756233
-750.5632227
-31.46620798
-919.4949355
-33.56728916
-1131.413445
-34.47469285
-1399.012824
-33.29394372
-1739.2901
-28.68026642
-2175.141644
-2737.609114
0.0003767668019
-0.04496203168
0.001487514359
-0.06703471895
0.003258592761
-0.08987654215
0.004574948002
-0.1157438332
0.00453404192
-0.1405547394
0.004211097569
-0.1674391947
0.003834229458
-0.1991420386
0.003368966185
-0.2370326508
0.002789894406
-0.2820799079
0.002052346858
-0.3356748792
0.001110608539
-0.3994113166
-0.0001080156855
-0.475171411
-0.001702359447
-0.5652052814
-0.003813073643
-0.6721250138
-0.006638065091
-0.799026227
-0.01045669886
-0.9495002397
-0.01566280597
-1.1277379
-0.02280539976
-1.338576849
-0.03264022834
-1.587588247
-0.04617969717
-1.881162096
-0.06472330566
-2.226647075
-0.08983413656
-2.632583025
-0.1232282381
-3.109100347
-0.1665726863
-3.668532947
-0.2212534913
-4.326215703
-0.28822758
-5.101337972
-0.368055729
-6.017700528
-0.4611204669
-7.104323176
-0.5679403892
-8.395999438
-0.6894699589
-9.933982881
-0.8273154065
-11.766976
-0.9838569635
-13.95252769
-1.162307761
-16.55888858
-1.366747693
-19.66735984
-1.602163227
-23.37518659
-1.874512159
-27.79908103
-2.190820827
-33.07949984
-2.559312684
-39.38584385
-2.989562849
-46.92280277
-3.492664777
-55.93814727
-4.081396955
-66.73237306
-4.770356982
-79.67076423
-5.576044839
-95.19861387
-6.516836403
-113.8606203
-7.612798035
-136.3258037
-8.885232397
-163.4197605
-10.35582518
-196.1667047
-12.04517832
-235.8446665
-13.97042587
-284.0584808
-16.14148946
-342.8369627
-18.55533262
-414.7631729
-21.1872956
-503.1501477
-23.97817083
-612.2793866
-26.81516066
-747.7262329
-29.50394588
-916.8061503
-31.72807901
-1129.189312
-32.99007969
-1397.750823
-32.52669809
-1739.753482
-29.18584538
-2178.482497
-2745.542726
0.0004858949592
-0.04544792665
0.001778920066
-0.06832774409
0.003577500074
-0.09167512219
0.004444989695
-0.1166113228
0.004417242192
-0.140526992
0.004228358315
-0.1672503109
0.004012108331
-0.1989257887
0.00372487567
-0.2367454182
0.003344852586
-0.281699885
0.002827710605
-0.3351577374
0.002123770679
-0.3987073769
0.001155188784
-0.4742028294
-0.0001856973603
-0.5638643955
-0.002053498978
-0.6702572125
-0.004669076165
-0.79641065
-0.008343844677
-0.9458254715
-0.01351878394
-1.122562961
-0.02080627264
-1.331289361
-0.03103558746
-1.577358932
-0.04528273788
-1.866914945
-0.06486160422
-2.207068208
-0.09124566414
-2.606198963
-0.1259070584
-3.074438952
-0.1701063694
-3.624333636
-0.2247227357
-4.271599337
-0.2902235241
-5.035837184
-0.3668093788
-5.941114674
-0.4546803209
-7.016452234
-0.5543219766
-8.296357782
-0.6667313356
-9.821573522
-0.7935538219
-11.64015351
-0.9371489326
-13.80893258
-1.100617864
-16.39541965
-1.287826301
-19.4801514
-1.5034437
-23.15956919
-1.753009912
-27.54951481
-2.043033322
-32.78947643
-2.381118572
-39.0477586
-2.776118545
-46.52780279
-3.238300852
-55.47596497
-3.779513425
-66.19116049
-4.413333226
-79.03694443
-5.155167462
-94.45677963
-6.022273753
-112.993514
-7.033641979
-135.3144354
-8.209660163
-162.2437423
-9.571441461
-194.8049234
-11.13963541
-234.2764725
-12.93246573
-282.2656505
-14.96261273
-340.8068157
-17.2323938
-412.4933918
-19.72644995
-500.6560916
-22.40081741
-609.6050191
-25.16672101
-744.9603293
-27.86681882
-914.1060525
-30.24051512
-1126.815616
-31.87365542
-1396.117683
-32.12602491
-1739.501113
-30.02580477
-2180.582717
-2751.448272
0.0006445616472
-0.04609248839
0.002075326109
-0.06975850868
0.003789574161
-0.09338937039
0.004471011685
-0.1172927606
0.004450237268
-0.1405062178
0.004355466908
-0.1671555408
0.004243729743
-0.1988140519
0.004068972341
-0.2365706612
0.00380964429
-0.2814405573
0.003420180448
-0.334768274
0.002845370048
-0.398132567
0.002000215234
-0.473357675
0.0007636173668
-0.5626277981
-0.00103846145
-0.6684551341
-0.003657903196
-0.7937912086
-0.007452534396
-0.9420308407
-0.01292422522
-1.11709127
-0.02075562821
-1.323457958
-0.03183913342
-1.566275426
-0.04727656025
-1.851477517
-0.06832677579
-2.18601799
-0.09628189183
-2.578243845
-0.1322864225
-3.03843442
-0.1771635823
-3.579456476
-0.2313399209
-4.217422999
-0.2949241734
-4.972252932
-0.3679185711
-5.868120276
-0.4504805257
-6.933890279
-0.5431510498
-8.203687258
-0.6470062326
-9.717718338
-0.7637339126
-11.52342583
-0.8956630243
-13.67700347
-1.045777007
-16.24530567
-1.217734483
-19.30819392
-1.415911466
-22.96139221
-1.645471367
-27.31995491
-1.912463977
-32.52248382
-2.223952853
-38.73626972
-2.588164819
-46.16359083
-3.0146567
-55.04947308
-3.514482942
-65.69133425
-4.100357117
-78.45107025
-4.78677418
-93.77036257
-5.590073521
-112.1902147
-6.528391099
-134.3761179
-7.62143661
-161.1506968
-8.889995853
-193.5363641
-10.35500681
-232.8114616
-12.03599607
-280.5846613
-13.94855116
-338.8942606
-16.10037455
-410.3415684
-18.48524526
-498.2712208
-21.07393475
-607.0163296
-23.8006998
-742.2335642
-26.54337338
-911.3633789
-29.09426301
-1124.264726
-31.11781643
-1394.09413
-32.08954152
-1738.529387
-31.2068461
-2181.465412
-2755.392184
0.0008695014868
-0.0469619899
0.002374906217
-0.07126391345
0.003928385391
-0.0949428496
0.004351771582
-0.1177161468
0.004348543585
-0.1405029898
0.004311649799
-0.1671186471
0.004258846141
-0.1987612483
0.004146227785
-0.236458043
0.003949671098
-0.2812440008
0.003619918367
-0.3344385215
0.003092780757
-0.3976054295
0.002270268531
-0.472535163
0.001009568767
-0.5613670985
-0.0008946893693
-0.6665508763
-0.003738399017
-0.790947499
-0.007935744221
-0.9378334957
-0.01405140935
-1.110975605
-0.02282534017
-1.314684027
-0.0351795863
-1.553921179
-0.05218472228
-1.83447238
-0.07496780359
-2.163234908
-0.104562483
-2.548649165
-0.1417443664
-3.001252536
-0.1869281984
-3.534272644
-0.2401915962
-4.164159601
-0.3014304409
-4.911014088
-0.3705867933
-5.798963924
-0.4478711467
-6.856605926
-0.5339246785
-8.117633726
-0.6299092168
-9.6217338
-0.737543706
-11.41579134
-0.8591146593
-13.55543251
-0.9974853379
-16.10693499
-1.156119591
-19.14955967
-1.339128398
-22.7783834
-1.551343066
-27.10774024
-1.798415603
-32.27541128
-2.086944873
-38.44774045
-2.424625919
-45.82590978
-2.820415115
-54.65368389
-3.284706874
-65.22704249
-3.829500747
-77.90627638
-4.468552696
-93.13131062
-5.217479435
-111.441288
-6.093777301
-133.49982