/*--------------------------------*- C++ -*----------------------------------*\
  =========                 |
  \\      /  F ield         | OpenFOAM: The Open Source CFD Toolbox
   \\    /   O peration     | Website:  https://openfoam.org
    \\  /    A nd           | Version:  12
     \\/     M anipulation  |
\*---------------------------------------------------------------------------*/
FoamFile
{
    format      ascii;
    class       volScalarField;
    location    "0.051";
    object      alphat;
}
// * * * * * * * * * * * * * * * * * * * * * * * * * * * * * * * * * * * * * //

dimensions      [1 -1 -1 0 0 0 0];

internalField   nonuniform List<scalar> 
16000
(
4.8898858e-07
1.0761062e-05
1.9813063e-05
2.5955838e-05
1.9842984e-05
2.7238515e-05
1.928911e-05
2.6379116e-05
2.0656067e-05
2.8368734e-05
2.3979183e-05
2.8097396e-05
2.5678914e-05
2.6351742e-05
2.5492691e-05
2.5363231e-05
2.5122059e-05
2.5072677e-05
2.5110295e-05
2.5256111e-05
2.5502714e-05
2.5848956e-05
2.6292629e-05
2.6834087e-05
2.747578e-05
2.8224573e-05
2.9089495e-05
3.0084892e-05
3.1228215e-05
3.2538292e-05
3.4035881e-05
3.5748536e-05
3.7711784e-05
3.9969411e-05
4.2575276e-05
4.5593665e-05
4.9101183e-05
5.3189238e-05
5.7970974e-05
6.3586486e-05
7.0200173e-05
7.8005797e-05
8.724758e-05
9.8224612e-05
0.00011129303
0.00012688058
0.00014551839
0.00016785528
0.00019468406
0.00022697527
0.00026592291
0.00031300061
0.00037002448
0.00043924292
0.00052344939
0.00062614721
0.00075178066
0.00090605981
0.0010964233
0.0011842685
0.0011852044
0.0011859884
0.0011864963
0.0011866421
0.0011863718
0.0011856972
0.0011847454
0.0011837446
0.0011829381
0.0011824974
0.0011824605
0.0011827315
0.0011831632
0.0011835264
0.0011833625
0.0011823257
0.0011800499
0.0011759337
0.0011713672
0.0011708229
4.4832e-07
1.0206273e-05
2.1318758e-05
2.3194468e-05
1.7872794e-05
2.4426462e-05
1.7103525e-05
2.3102091e-05
1.8224027e-05
2.5042427e-05
2.1677407e-05
2.5306083e-05
2.3452142e-05
2.3852744e-05
2.318673e-05
2.3004186e-05
2.2806907e-05
2.2752725e-05
2.2791036e-05
2.2925382e-05
2.3153909e-05
2.3475196e-05
2.3887562e-05
2.4391568e-05
2.4989105e-05
2.5686623e-05
2.6491986e-05
2.7418152e-05
2.8481652e-05
2.9700839e-05
3.1095038e-05
3.2689442e-05
3.4516937e-05
3.6618079e-05
3.904327e-05
4.1852987e-05
4.5119771e-05
4.8929581e-05
5.3387939e-05
5.862768e-05
6.4807035e-05
7.2108822e-05
8.0763618e-05
9.1057402e-05
0.00010333325
0.00011799916
0.00013556374
0.00015665079
0.00018202482
0.00021262321
0.00024960068
0.00029438744
0.00034875079
0.00041488696
0.00049553292
0.00059412934
0.00071504952
0.0008639126
0.0010479953
0.0011839261
0.0011848384
0.0011855715
0.0011860342
0.0011861504
0.0011858819
0.0011852485
0.0011843685
0.0011834512
0.0011827224
0.0011823414
0.0011823496
0.0011826509
0.0011830504
0.0011833276
0.0011830676
0.0011818965
0.0011795956
0.0011756858
0.0011714253
0.0011708193
4.0106985e-07
9.7735534e-06
2.013556e-05
2.1225434e-05
1.5997818e-05
2.1494328e-05
1.5217194e-05
2.00651e-05
1.6374001e-05
2.1959515e-05
1.9748381e-05
2.2519638e-05
2.1226374e-05
2.1348543e-05
2.0840414e-05
2.0635775e-05
2.0472824e-05
2.0424185e-05
2.0465277e-05
2.0592989e-05
2.0807e-05
2.1106385e-05
2.1489656e-05
2.195774e-05
2.2512111e-05
2.3159002e-05
2.390548e-05
2.4763316e-05
2.5747954e-05
2.6877293e-05
2.8169704e-05
2.9648533e-05
3.1344511e-05
3.3295453e-05
3.5548753e-05
3.816145e-05
4.1202587e-05
4.4753958e-05
4.891481e-05
5.381087e-05
5.959554e-05
6.6443479e-05
7.4573861e-05
8.426078e-05
9.5837527e-05
0.0001096969
0.00012632961
0.00014633985
0.00017047032
0.00019963389
0.0002349558
0.00027783433
0.00033000096
0.00039361477
0.00047137432
0.00056667851
0.00068385074
0.00082845072
0.0010076735
0.001183769
0.0011846365
0.0011852961
0.0011856869
0.0011857445
0.001185448
0.0011848305
0.0011840053
0.0011831609
0.0011825034
0.0011821843
0.0011822495
0.0011825843
0.0011829392
0.0011831209
0.001182746
0.0011814972
0.0011791793
0.0011754721
0.0011714652
0.0011708941
3.5735986e-07
9.4444352e-06
1.9093121e-05
1.9799307e-05
1.4376137e-05
1.8970031e-05
1.355051e-05
1.7528518e-05
1.4727723e-05
1.9349819e-05
1.8012859e-05
2.005981e-05
1.9178906e-05
1.9099865e-05
1.8709038e-05
1.8504273e-05
1.8371524e-05
1.833385e-05
1.8380749e-05
1.8505806e-05
1.8709376e-05
1.8991087e-05
1.9349713e-05
1.9786664e-05
2.0303154e-05
2.0905349e-05
2.1599801e-05
2.2397347e-05
2.3312406e-05
2.4362515e-05
2.5565435e-05
2.6942957e-05
2.8524086e-05
3.0344308e-05
3.2448508e-05
3.4890803e-05
3.7737261e-05
4.1066491e-05
4.4972823e-05
4.9575421e-05
5.5024123e-05
6.1487573e-05
6.9175973e-05
7.8353031e-05
8.9345463e-05
0.00010253489
0.00011839851
0.00013752613
0.0001606448
0.00018865112
0.00022265011
0.00026402011
0.00031447079
0.00037614085
0.00045171042
0.00054456115
0.00065899393
0.00080053571
0.00097633962
0.0011838153
0.0011846211
0.0011851927
0.0011854996
0.0011854891
0.001185154
0.0011845392
0.0011837529
0.0011829619
0.0011823549
0.0011820782
0.0011821736
0.0011825082
0.0011827979
0.0011828842
0.0011824098
0.0011811141
0.0011788313
0.0011753591
0.0011715636
0.0011710656
3.211857e-07
9.2003657e-06
1.8191839e-05
1.9761273e-05
1.4419491e-05
1.6770805e-05
1.2090467e-05
1.5353864e-05
1.3314767e-05
1.7102246e-05
1.6472928e-05
1.7848597e-05
1.7275506e-05
1.7061352e-05
1.6757472e-05
1.6567495e-05
1.6459803e-05
1.6433747e-05
1.6485254e-05
1.6607151e-05
1.6800053e-05
1.7064316e-05
1.7399068e-05
1.7806267e-05
1.8287067e-05
1.8847626e-05
1.9494139e-05
2.0236711e-05
2.1088745e-05
2.2067388e-05
2.3190007e-05
2.4477122e-05
2.5956329e-05
2.7661128e-05
2.9634278e-05
3.1927393e-05
3.4603927e-05
3.7739975e-05
4.1426273e-05
4.5775789e-05
5.093549e-05
5.7069744e-05
6.4382002e-05
7.3126413e-05
8.3625292e-05
9.6252253e-05
0.00011147416
0.00012987016
0.00015215577
0.0001792172
0.00021214564
0.00025230777
0.00030140105
0.00036155497
0.00043544434
0.00052644987
0.00063887102
0.00077822266
0.00095163666
0.0011682862
0.0011847777
0.0011852467
0.0011854565
0.001185367
0.0011849811
0.0011843526
0.001183587
0.001182833
0.001182262
0.0011820135
0.0011821184
0.0011824273
0.0011826482
0.0011826416
0.0011820838
0.0011807667
0.0011785454
0.0011753159
0.0011717334
0.0011713343
2.9435591e-07
9.0501494e-06
1.7482406e-05
1.945315e-05
1.4112609e-05
1.4850724e-05
1.1489054e-05
1.356133e-05
1.2462861e-05
1.5221227e-05
1.5130772e-05
1.5913686e-05
1.5545111e-05
1.5251624e-05
1.5002337e-05
1.4829004e-05
1.473735e-05
1.4718366e-05
1.4770596e-05
1.4887067e-05
1.506835e-05
1.5315422e-05
1.5627673e-05
1.6007328e-05
1.6455774e-05
1.6979008e-05
1.7582967e-05
1.8277186e-05
1.9074092e-05
1.9990405e-05
2.1043306e-05
2.2252299e-05
2.364389e-05
2.5249955e-05
2.711154e-05
2.927822e-05
3.1811281e-05
3.478488e-05
3.8287578e-05
4.2427061e-05
4.7347773e-05
5.3211576e-05
6.0217963e-05
6.8612606e-05
7.8715683e-05
9.0896378e-05
0.00010561479
0.00012344384
0.00014509201
0.00017144197
0.0002035783
0.00024286524
0.00029099894
0.00035011202
0.00042288836
0.00051272434
0.00062393933
0.00076205873
0.00093420804
0.0011495675
0.0011850952
0.0011854488
0.0011855506
0.0011853739
0.0011849282
0.0011842729
0.0011835115
0.0011827793
0.0011822307
0.0011819939
0.0011820841
0.0011823384
0.0011824835
0.0011823904
0.0011817737
0.0011804666
0.0011783232
0.001175311
0.0011719967
0.0011717047
2.6902825e-07
8.9643137e-06
1.6925147e-05
1.8375128e-05
1.3992612e-05
1.3119273e-05
1.1493812e-05
1.2505539e-05
1.1882464e-05
1.3576279e-05
1.3929723e-05
1.4208886e-05
1.3945534e-05
1.3617823e-05
1.3399229e-05
1.3242511e-05
1.316266e-05
1.3149518e-05
1.3202191e-05
1.331428e-05
1.3485911e-05
1.3718576e-05
1.4011954e-05
1.428384e-05
1.4694445e-05
1.5176733e-05
1.5735996e-05
1.6380993e-05
1.7122975e-05
1.7977874e-05
1.8962651e-05
2.0095832e-05
2.1402923e-05
2.2914252e-05
2.4669284e-05
2.6715735e-05
2.9112856e-05
3.193291e-05
3.5263145e-05
3.9502543e-05
4.4231772e-05
4.9880641e-05
5.6647517e-05
6.4771014e-05
7.4570489e-05
8.6414178e-05
0.00010075888
0.00011817531
0.00013936888
0.00016522511
0.00019682842
0.00023554898
0.00028309141
0.0003416027
0.0004137886
0.00050307554
0.00061382157
0.00075158717
0.00092350991
0.0011387545
0.0011855588
0.0011857849
0.0011857688
0.0011854976
0.001184985
0.0011842919
0.0011835208
0.0011827974
0.0011822588
0.0011820167
0.0011820692
0.0011822433
0.0011823068
0.0011821382
0.0011814914
0.001180228
0.0011781812
0.0011753243
0.0011723558
0.0011721212
2.4164937e-07
8.9157031e-06
1.6449596e-05
1.6706392e-05
1.2762877e-05
1.1434817e-05
9.9031434e-06
1.1145742e-05
1.0424998e-05
1.2208588e-05
1.2722405e-05
1.2645014e-05
1.2422233e-05
1.2104007e-05
1.1910757e-05
1.1775482e-05
1.1710125e-05
1.170603e-05
1.1691424e-05
1.1785227e-05
1.1938343e-05
1.2151222e-05
1.2422448e-05
1.2751838e-05
1.3144432e-05
1.360409e-05
1.4136178e-05
1.4749402e-05
1.5454426e-05
1.626674e-05
1.7203559e-05
1.8282909e-05
1.952985e-05
2.0973756e-05
2.2653208e-05
2.4614791e-05
2.6916604e-05
2.962983e-05
3.2841453e-05
3.6657592e-05
4.1207883e-05
4.6656706e-05
5.3203424e-05
6.159595e-05
7.1184817e-05
8.2801723e-05
9.6903998e-05
0.00011406407
0.00013498827
0.00016057168
0.0001919052
0.00023037334
0.00027769928
0.00033605587
0.00040818397
0.00049755458
0.00060858207
0.00074688699
0.00091964679
0.0011360371
0.0011861516
0.001186239
0.0011860973
0.001185725
0.0011851399
0.0011844015
0.0011836096
0.0011828832
0.0011823416
0.0011820744
0.0011820632
0.0011821325
0.0011821187
0.0011818902
0.0011812445
0.0011800554
0.0011781361
0.0011754267
0.0011728103
0.0011726776
2.2144031e-07
8.8699941e-06
1.5955018e-05
1.4629217e-05
1.0499931e-05
1.0167295e-05
8.1688431e-06
9.5069886e-06
9.7152613e-06
1.0982967e-05
1.1502137e-05
1.1193152e-05
1.0988981e-05
1.0705241e-05
1.0537805e-05
1.0353847e-05
1.0277822e-05
1.0268338e-05
1.0318393e-05
1.0424855e-05
1.0582854e-05
1.0796034e-05
1.1062033e-05
1.1381782e-05
1.1760145e-05
1.2201816e-05
1.2712275e-05
1.3300282e-05
1.3976106e-05
1.4754779e-05
1.5653883e-05
1.6691199e-05
1.7891666e-05
1.928402e-05
2.090634e-05
2.280459e-05
2.5036251e-05
2.7672032e-05
3.0798518e-05
3.4521312e-05
3.897097e-05
4.4310287e-05
5.0742768e-05
5.8505799e-05
6.7904602e-05
7.9320686e-05
9.4038625e-05
0.00011109791
0.00013193738
0.0001574681
0.00018879435
0.00022732334
0.00027480672
0.00033345474
0.0004060569
0.00049614362
0.00060820263
0.00074793934
0.00092260496
0.001141425
0.0011868521
0.0011867937
0.0011865215
0.0011860431
0.001185381
0.0011845917
0.0011837701
0.0011830283
0.001182468
0.0011821532
0.0011820527
0.0011820104
0.0011819255
0.0011816584
0.0011810452
0.0011799591
0.001178183
0.0011756195
0.0011733417
0.0011732999
2.0406935e-07
8.8252413e-06
1.4390917e-05
1.2760872e-05
8.4983595e-06
9.0307009e-06
7.265571e-06
8.5829154e-06
8.9972891e-06
9.830879e-06
1.0296228e-05
9.8714526e-06
9.6729018e-06
9.3383632e-06
9.1604551e-06
9.0519462e-06
9.0105588e-06
9.0270087e-06
9.0942582e-06
9.2129766e-06
9.377601e-06
9.5903751e-06
9.8529826e-06
1.0165658e-05
1.0533569e-05
1.0961877e-05
1.1456234e-05
1.2025593e-05
1.267999e-05
1.3434027e-05
1.4305721e-05
1.5312952e-05
1.6480794e-05
1.7837656e-05
1.9421484e-05
2.1278078e-05
2.3464807e-05
2.6052517e-05
2.9128454e-05
3.2799102e-05
3.7195667e-05
4.2481236e-05
4.886395e-05
5.6582645e-05
6.5947058e-05
7.7343627e-05
9.1251949e-05
0.00010824094
0.00013021711
0.00015591805
0.0001875037
0.00022641194
0.0002744333
0.00033382715
0.00040744587
0.00049889517
0.00061275317
0.00075483562
0.00093250417
0.0011550654
0.0011876358
0.0011874299
0.0011870262
0.0011864391
0.0011856962
0.001184851
0.0011839907
0.0011832193
0.0011826211
0.0011822354
0.0011820237
0.001181883
0.0011817403
0.0011814613
0.0011809106
0.001179944
0.0011783108
0.0011758946
0.0011739319
0.0011739531
1.8815057e-07
8.779196e-06
1.1432739e-05
1.0608433e-05
6.981834e-06
8.0421851e-06
6.6253608e-06
7.7151315e-06
8.4215674e-06
8.7863571e-06
9.1150156e-06
8.5780046e-06
8.3280497e-06
8.0984e-06
7.9695313e-06
7.9014663e-06
7.8889393e-06
7.928444e-06
8.0123628e-06
8.1402425e-06
8.3106936e-06
8.5255751e-06
8.7869871e-06
9.095798e-06
9.457271e-06
9.8770529e-06
1.0361106e-05
1.0918643e-05
1.1559682e-05
1.2298481e-05
1.3086391e-05
1.4064412e-05
1.5201228e-05
1.6524894e-05
1.8073212e-05
1.9891861e-05
2.2038172e-05
2.4583186e-05
2.7614945e-05
3.1241124e-05
3.5594735e-05
4.1161105e-05
4.7559627e-05
5.5313087e-05
6.4735931e-05
7.6220977e-05
9.0264194e-05
0.00010745173
0.00012852883
0.00015443413
0.00018803852
0.00022765002
0.00027659686
0.00033719946
0.00041238786
0.00050586029
0.0006223029
0.00076766541
0.00094945937
0.0011771138
0.0011884774
0.0011881269
0.0011875952
0.0011868996
0.0011860727
0.0011851657
0.0011842563
0.0011834382
0.0011827805
0.0011823028
0.0011819651
0.0011817634
0.0011815854
0.001181323
0.0011808573
0.0011800159
0.0011785089
0.001176224
0.0011745598
0.0011746167
1.7429259e-07
8.7360335e-06
9.0267596e-06
9.014084e-06
6.1382641e-06
7.1315518e-06
6.0880961e-06
6.9597847e-06
7.8386426e-06
7.8136189e-06
7.8356126e-06
7.3801088e-06
7.1771603e-06
7.010834e-06
6.9235691e-06
6.889267e-06
6.9031947e-06
6.9607945e-06
7.0588768e-06
7.1972898e-06
7.3746797e-06
7.5933165e-06
7.8562187e-06
8.1647439e-06
8.5242644e-06
8.9026592e-06
9.3745698e-06
9.9193733e-06
1.0546967e-05
1.1271163e-05
1.2108621e-05
1.3080996e-05
1.4212797e-05
1.5532267e-05
1.7077708e-05
1.889545e-05
2.1043752e-05
2.359488e-05
2.6638991e-05
3.0286485e-05
3.4674096e-05
3.997324e-05
4.6394885e-05
5.4193563e-05
6.3690642e-05
7.5942297e-05
9.0252928e-05
0.00010779525
0.0001293331
0.00015584005
0.00018852211
0.0002310448
0.00028131199
0.00034359503
0.00042091655
0.00051708596
0.0006369159
0.00078651134
0.00097357168
0.0011897106
0.0011893514
0.0011888632
0.0011882103
0.0011874094
0.0011864958
0.0011855197
0.0011845489
0.0011836652
0.0011829253
0.0011823432
0.0011819176
0.0011816727
0.0011814898
0.0011812688
0.0011808974
0.0011801724
0.0011787511
0.0011765614
0.0011751923
0.0011752601
1.6194868e-07
8.685477e-06
7.1858931e-06
7.9194041e-06
5.4741986e-06
6.3165284e-06
5.62959e-06
6.2933218e-06
7.1451788e-06
6.7093104e-06
6.6820599e-06
6.3332545e-06
6.1736344e-06
6.0584212e-06
6.0067985e-06
6.0014312e-06
6.0378907e-06
6.1137367e-06
6.2259506e-06
6.375287e-06
6.561265e-06
6.7862492e-06
7.0241695e-06
7.3296883e-06
7.6859122e-06
8.0978462e-06
8.5737773e-06
9.1226193e-06
9.7545473e-06
1.0483652e-05
1.1326824e-05
1.2305553e-05
1.344586e-05
1.4776516e-05
1.6336615e-05
1.8173564e-05
2.0347169e-05
2.2931506e-05
2.601967e-05
2.9725975e-05
3.419112e-05
3.9591086e-05
4.6148387e-05
5.4125151e-05
6.3854288e-05
7.5752656e-05
9.034208e-05
0.0001082599
0.00013144643
0.00015878106
0.00019251281
0.0002342117
0.00028857367
0.00035301371
0.00043303609
0.00053258131
0.00065660849
0.00081139531
0.0010048586
0.0011907236
0.0011902332
0.0011896166
0.0011888519
0.001187951
0.0011869494
0.0011858964
0.0011848508
0.0011838817
0.0011830394
0.0011823472
0.0011818956
0.0011816396
0.0011814822
0.0011813155
0.0011810292
0.0011803951
0.0011790094
0.0011768815
0.0011758303
0.0011759129
1.5100095e-07
8.6235992e-06
5.7685449e-06
6.9267552e-06
4.885458e-06
5.5932861e-06
5.2409767e-06
5.6147999e-06
6.270322e-06
5.7507678e-06
5.6701218e-06
5.4175733e-06
5.2989309e-06
5.2264422e-06
5.2065454e-06
5.2274338e-06
5.2852729e-06
5.3786708e-06
5.5055852e-06
5.6461732e-06
5.8361488e-06
6.0651139e-06
6.3358518e-06
6.6519515e-06
7.0185024e-06
7.4409522e-06
7.9275324e-06
8.4879002e-06
9.1325218e-06
9.8757263e-06
1.0734611e-05
1.1731009e-05
1.28335e-05
1.4176384e-05
1.5752062e-05
1.760898e-05
1.980872e-05
2.2427226e-05
2.5560571e-05
2.9327562e-05
3.3874014e-05
3.9680428e-05
4.6434625e-05
5.466367e-05
6.471328e-05
7.7014141e-05
9.2114923e-05
0.0001106836
0.00013354699
0.00016322682
0.00019827886
0.00024163325
0.000295331
0.00036541167
0.00044869628
0.00055228546
0.00068130756
0.00084222679
0.0010431951
0.0011917169
0.0011911006
0.0011903659
0.001189499
0.0011885052
0.0011874158
0.0011862788
0.0011851451
0.0011840743
0.0011831227
0.0011823794
0.0011819231
0.0011816916
0.001181578
0.0011814607
0.0011812283
0.0011806435
0.0011792746
0.0011772199
0.0011764361
0.0011765625
1.4131253e-07
8.5086432e-06
4.6870593e-06
6.0447712e-06
4.3606195e-06
4.9504779e-06
4.903644e-06
4.8761253e-06
5.3867495e-06
4.89576e-06
4.7930852e-06
4.6198651e-06
4.5404208e-06
4.5049923e-06
4.5141156e-06
4.5594781e-06
4.637991e-06
4.7304223e-06
4.8666803e-06
5.0376118e-06
5.2444025e-06
5.488992e-06
5.77494e-06
6.1060714e-06
6.4881298e-06
6.9268755e-06
7.4306435e-06
7.9856749e-06
8.643995e-06
9.402067e-06
1.0277096e-05
1.1291015e-05
1.2470683e-05
1.3849887e-05
1.5469045e-05
1.7378329e-05
1.9642269e-05
2.2339874e-05
2.5571302e-05
2.9461679e-05
3.4163916e-05
3.9871394e-05
4.6819325e-05
5.5299131e-05
6.5672244e-05
7.9044527e-05
9.4781439e-05
0.0001141478
0.00013801278
0.00016746011
0.00020575603
0.0002510775
0.00030722349
0.00037685734
0.00046776014
0.000576027
0.00071079786
0.00087873599
0.0010882331
0.0011926685
0.001191934
0.0011910909
0.0011901309
0.0011890517
0.0011878765
0.0011866502
0.001185418
0.0011842385
0.0011831946
0.0011824589
0.0011820258
0.0011818413
0.0011817673
0.0011816761
0.0011814516
0.0011808652
0.0011795322
0.0011775944
0.0011769901
0.0011771515
1.3279307e-07
8.1915601e-06
3.9378944e-06
5.2626218e-06
3.894707e-06
4.3821519e-06
4.367186e-06
4.2083878e-06
4.5340727e-06
4.1395445e-06
4.0415332e-06
3.9316672e-06
3.8892345e-06
3.8867215e-06
3.9226432e-06
3.9766071e-06
4.0683509e-06
4.1934149e-06
4.351131e-06
4.5419881e-06
4.7678668e-06
5.0312867e-06
5.3362864e-06
5.6870184e-06
6.075949e-06
6.5320634e-06
7.0539613e-06
7.6513244e-06
8.3363202e-06
9.1234629e-06
1.0030452e-05
1.1080168e-05
1.2300641e-05
1.3727043e-05
1.5402664e-05
1.7379659e-05
1.9726169e-05
2.2525129e-05
2.5881085e-05
2.9926882e-05
3.4821962e-05
4.0769899e-05
4.802163e-05
5.6882318e-05
6.7734383e-05
8.1050522e-05
9.8281972e-05
0.0001185884
0.00014362039
0.00017452647
0.0002127082
0.0002624119
0.0003213463
0.00039442673
0.00048512899
0.00060347887
0.00074466517
0.00092040216
0.0011393112
0.0011935605
0.0011927153
0.0011917731
0.0011907278
0.0011895711
0.0011883142
0.0011869972
0.0011856668
0.0011843824
0.0011833267
0.0011826091
0.0011822125
0.0011820707
0.0011820103
0.0011819105
0.0011816511
0.0011810448
0.0011797728
0.0011780229
0.0011775125
0.0011776443
1.2552169e-07
7.7708873e-06
3.4713486e-06
4.5697536e-06
3.481471e-06
3.7165707e-06
3.8943152e-06
3.5966673e-06
3.7620538e-06
3.4824498e-06
3.4057415e-06
3.3460778e-06
3.3375471e-06
3.3647096e-06
3.4085626e-06
3.4943754e-06
3.6122464e-06
3.7610526e-06
3.9411169e-06
4.1537305e-06
4.401378e-06
4.6868876e-06
5.005155e-06
5.3764056e-06
5.7998796e-06
6.2823787e-06
6.8320802e-06
7.4590236e-06
8.1756493e-06
8.9974124e-06
9.9426154e-06
1.1035164e-05
1.2304427e-05
1.3787413e-05
1.5463719e-05
1.7504638e-05
1.9929211e-05
2.2824867e-05
2.6458995e-05
3.0689433e-05
3.581341e-05
4.2044526e-05
4.9650609e-05
5.895348e-05
7.0355295e-05
8.4357124e-05
0.0001015784
0.00012278567
0.00015025915
0.00018279944
0.00022300302
0.00027272452
0.00033744104
0.00041430819
0.00050964524
0.00063411619
0.00078224311
0.00096638703
0.0011952811
0.0011943753
0.0011934283
0.0011923959
0.0011912725
0.0011900469
0.001188717
0.0011873143
0.0011859034
0.0011845523
0.0011835287
0.0011828343
0.0011824635
0.0011823294
0.0011822492
0.00118211
0.0011817946
0.0011811679
0.0011799856
0.0011785027
0.0011780791
0.0011780843
1.1979726e-07
6.7957956e-06
3.0743246e-06
3.9411988e-06
3.1255991e-06
3.1020631e-06
3.4231889e-06
3.0425888e-06
3.0988118e-06
2.9210832e-06
2.8735753e-06
2.8548432e-06
2.8687288e-06
2.9150557e-06
2.9972735e-06
3.1110361e-06
3.2544202e-06
3.4274131e-06
3.63116e-06
3.8674301e-06
4.1331452e-06
4.4412273e-06
4.791932e-06
5.190115e-06
5.641574e-06
6.1533404e-06
6.7339684e-06
7.3938979e-06
8.1459792e-06
8.9866128e-06
9.9682069e-06
1.1100963e-05
1.2415504e-05
1.3950242e-05
1.5753283e-05
1.7884859e-05
2.0419583e-05
2.3451037e-05
2.7095621e-05
3.1497563e-05
3.6836508e-05
4.3646412e-05
5.1650264e-05
6.1448658e-05
7.3464137e-05
8.8224887e-05
0.00010638486
0.00012875485
0.00015777409
0.00019209073
0.00023448187
0.00028688588
0.00035513562
0.00043603598
0.00053628904
0.00066061029
0.00082258269
0.001015493
0.0011960837
0.0011950966
0.0011940584
0.0011929452
0.0011917507
0.0011904661
0.0011890805
0.0011876073
0.0011861279
0.0011847923
0.0011837959
0.0011831166
0.0011827358
0.0011825615
0.0011824318
0.0011822373
0.0011818702
0.0011812358
0.0011801803
0.0011789885
0.0011787135
0.0011785146
1.152251e-07
4.7515739e-06
2.7169694e-06
3.3581023e-06
2.6736759e-06
2.5876388e-06
2.9262455e-06
2.5490414e-06
2.546663e-06
2.4483722e-06
2.4338038e-06
2.4426658e-06
2.4874943e-06
2.5679255e-06
2.6796168e-06
2.8201016e-06
2.9887766e-06
3.1863639e-06
3.411372e-06
3.6709567e-06
3.9663959e-06
4.3011076e-06
4.6792411e-06
5.1058371e-06
5.5869737e-06
6.1299793e-06
6.7437556e-06
7.4280092e-06
8.2140935e-06
9.1108904e-06
1.0139079e-05
1.1324368e-05
1.269919e-05
1.4304311e-05
1.6190898e-05
1.8422803e-05
2.1079523e-05
2.426014e-05
2.8088186e-05
3.2717312e-05
3.8338442e-05
4.5187752e-05
5.3956572e-05
6.4291823e-05
7.6970544e-05
9.254883e-05
0.00011171501
0.00013532293
0.00016443177
0.00020215234
0.00024683815
0.00030204427
0.00037029619
0.00045899593
0.00056428691
0.00069467814
0.00086445438
0.0010661667
0.001196774
0.0011957109
0.0011945949
0.0011934112
0.0011921532
0.0011908173
0.0011893957
0.0011878858
0.001186353
0.0011850802
0.0011841015
0.0011834132
0.0011829818
0.0011827308
0.0011825334
0.0011822878
0.0011818981
0.0011812626
0.0011803227
0.0011794336
0.0011793444
0.0011790015
1.1037726e-07
3.9470389e-06
2.3418702e-06
2.821056e-06
2.3060737e-06
2.1583449e-06
2.4111647e-06
2.115573e-06
2.0977612e-06
2.0602504e-06
2.0744971e-06
2.1178502e-06
2.1985521e-06
2.3096286e-06
2.4485246e-06
2.6143541e-06
2.8074974e-06
3.0270228e-06
3.2786151e-06
3.5636387e-06
3.885121e-06
4.2467258e-06
4.6528335e-06
5.1086774e-06
5.6205464e-06
6.1960388e-06
6.8368067e-06
7.5660454e-06
8.3925952e-06
9.3337814e-06
1.0411413e-05
1.1652736e-05
1.3092045e-05
1.4772487e-05
1.6748416e-05
1.9087952e-05
2.1875772e-05
2.5216983e-05
2.9242515e-05
3.4114523e-05
4.0034724e-05
4.7594938e-05
5.6494032e-05
6.7393072e-05
8.0766287e-05
9.7197486e-05
0.00011740876
0.00014229426
0.00017456346
0.00021267787
0.0002596904
0.00031772024
0.00038938822
0.00048243503
0.00059270464
0.00072905221
0.00090637608
0.0011165742
0.0011973444
0.0011962146
0.0011950322
0.0011937894
0.001192477
0.0011910943
0.0011896436
0.0011881306
0.001186606
0.00118538
0.0011844074
0.001183685
0.0011831811
0.0011828362
0.0011825651
0.0011822831
0.0011818947
0.0011812787
0.0011804293
0.001179774
0.001179874
0.0011795573
1.0710856e-07
3.1793507e-06
2.019132e-06
2.2793097e-06
2.0042542e-06
1.7908684e-06
1.9319793e-06
1.7477118e-06
1.7451777e-06
1.7564278e-06
1.8006529e-06
1.8818101e-06
1.9933096e-06
2.1312259e-06
2.2945831e-06
2.4836938e-06
2.6985144e-06
2.9427825e-06
3.2183768e-06
3.5280669e-06
3.8751634e-06
4.2635395e-06
4.6977364e-06
5.1831332e-06
5.7261857e-06
6.3304051e-06
7.0118025e-06
7.7793289e-06
8.6474556e-06
9.6343541e-06
1.0763102e-05
1.2062549e-05
1.3569033e-05
1.53282e-05
1.7397486e-05
1.9849164e-05
2.2773648e-05
2.628205e-05
3.0513268e-05
3.5638527e-05
4.214569e-05
4.9808112e-05
5.91744e-05
7.0648116e-05
8.4725145e-05
0.00010201765
0.00012328033
0.00014944636
0.0001833053
0.00022330292
0.00027259279
0.00033336438
0.00040832545
0.00050547356
0.00062045511
0.00076239012
0.00094666214
0.0011646384
0.0011977995
0.0011966096
0.001195371
0.001194079
0.0011927232
0.0011913005
0.0011898179
0.0011883013
0.001186841
0.0011856504
0.0011846788
0.0011839165
0.0011833381
0.0011829044
0.0011825681
0.0011822664
0.0011818951
0.0011813154
0.0011805428
0.0011800371
0.0011802436
0.0011801595
1.057219e-07
2.5059761e-06
1.7400415e-06
1.7591691e-06
1.7261717e-06
1.476501e-06
1.54056e-06
1.4544405e-06
1.4825206e-06
1.5288046e-06
1.6115698e-06
1.7231211e-06
1.8600113e-06
2.0207073e-06
2.2055323e-06
2.415691e-06
2.6521812e-06
2.9185734e-06
3.2170317e-06
3.550586e-06
3.9227166e-06
4.3374367e-06
4.79941e-06
5.3141336e-06
5.888191e-06
6.5295969e-06
7.2482431e-06
8.0564368e-06
8.9592765e-06
9.9922197e-06
1.1172544e-05
1.2530792e-05
1.410546e-05
1.594489e-05
1.8109606e-05
2.0759495e-05
2.3845396e-05
2.755026e-05
3.202149e-05
3.7441006e-05
4.4032999e-05
5.207333e-05
6.1903002e-05
7.3942041e-05
8.870807e-05
0.00010683937
0.00012912152
0.00015788961
0.00019184753
0.00023362689
0.00028505133
0.00034836929
0.00043038992
0.00052716279
0.00064637208
0.00079326112
0.00098352591
0.0011993963
0.0011981495
0.001196905
0.0011956178
0.001194284
0.0011928934
0.0011914412
0.0011899328
0.0011884048
0.0011870172
0.0011858601
0.0011848952
0.0011841058
0.001183473
0.0011829775
0.0011825959
0.0011822805
0.0011819261
0.0011813958
0.0011807206
0.0011803477
0.0011806129
0.0011806328
1.0727823e-07
1.929428e-06
1.507341e-06
1.3605959e-06
1.4425192e-06
1.2128843e-06
1.253984e-06
1.2394789e-06
1.3001572e-06
1.3807928e-06
1.4920377e-06
1.6270077e-06
1.7844219e-06
1.9644284e-06
2.1682701e-06
2.3977191e-06
2.6545699e-06
2.9418971e-06
3.2622758e-06
3.6188673e-06
4.0152525e-06
4.4555361e-06
4.9444819e-06
5.4877049e-06
6.0919386e-06
6.765394e-06
7.5182414e-06
8.3632108e-06
9.3163392e-06
1.0397916e-05
1.1633593e-05
1.3055864e-05
1.4705669e-05
1.6634484e-05
1.890673e-05
2.1602755e-05
2.4822501e-05
2.869027e-05
3.3359808e-05
3.9021343e-05
4.5909688e-05
5.4313491e-05
6.4585455e-05
7.7162092e-05
9.2578922e-05
0.00011241795
0.00013581885
0.00016455441
0.00019985691
0.00024324222
0.000296572
0.00036553413
0.00044673622
0.00054656294
0.00066931158
0.00082823365
0.0010152268
0.0011997018
0.0011984095
0.0011971158
0.0011957858
0.0011944146
0.0011929924
0.0011915141
0.001189985
0.0011884507
0.0011871192
0.0011859964
0.0011850525
0.0011842635
0.0011836119
0.0011830878
0.0011826817
0.0011823537
0.0011820053
0.0011815209
0.0011809521
0.001180697
0.0011809435
0.0011806811
1.1293528e-07
1.4560796e-06
1.3183307e-06
1.0695872e-06
1.2873353e-06
9.9408603e-07
1.0594273e-06
1.0971211e-06
1.184619e-06
1.2928331e-06
1.425046e-06
1.5782056e-06
1.752719e-06
1.9497376e-06
2.1709948e-06
2.4185237e-06
2.6946377e-06
3.001737e-06
3.342962e-06
3.7214416e-06
4.1408298e-06
4.605314e-06
5.1197582e-06
5.6899046e-06
6.3226496e-06
7.0264182e-06
7.811667e-06
8.6915705e-06
9.6827757e-06
1.0806433e-05
1.2089307e-05
1.3565375e-05
1.5277474e-05
1.7279472e-05
1.963877e-05
2.2439411e-05
2.5785764e-05
2.9807068e-05
3.4662956e-05
4.0550248e-05
4.803701e-05
5.6841108e-05
6.7594981e-05
8.0750758e-05
9.6862383e-05
0.0001166096
0.00014082659
0.00017053648
0.00020698984
0.00025407911
0.00030939585
0.00037726514
0.00046054381
0.00056273814
0.00069486232
0.00084989259
0.0010400966
0.0011999343
0.001198599
0.0011972618
0.0011958932
0.001194488
0.0011930369
0.0011915346
0.0011899874
0.001188448
0.0011871572
0.0011860668
0.0011851547
0.001184391
0.0011837539
0.0011832331
0.001182822
0.0011824863
0.0011821406
0.0011816948
0.0011811902
0.0011809662
0.0011811644
0.0011810201
1.2333307e-07
1.1483994e-06
1.1555767e-06
9.2901681e-07
9.4126509e-07
8.6921933e-07
9.3150514e-07
1.0112749e-06
1.1195168e-06
1.2472542e-06
1.3953299e-06
1.5635425e-06
1.7531273e-06
1.9656296e-06
2.2029306e-06
2.467131e-06
2.760579e-06
3.0858915e-06
3.4460006e-06
3.8442079e-06
4.284264e-06
4.7704751e-06
5.3078537e-06
5.9023325e-06
6.5610601e-06
7.2901999e-06
8.10435e-06
9.0154629e-06
1.0049767e-05
1.1215181e-05
1.2545792e-05
1.4077182e-05
1.5854163e-05
1.793298e-05
2.0383925e-05
2.3294466e-05
2.677307e-05
3.0953838e-05
3.6002139e-05
4.212154e-05
4.9562265e-05
5.8631556e-05
6.9706109e-05
8.3245365e-05
9.9814324e-05
0.00012010385
0.00014624987
0.00017694112
0.0002145374
0.00026059667
0.00031702285
0.00038614733
0.00047082131
0.00057999323
0.00070792203
0.0008645441
0.0010563218
0.0012001204
0.0011987452
0.0011973685
0.0011959647
0.0011945288
0.0011930522
0.0011915301
0.0011899695
0.0011884273
0.0011871609
0.0011860939
0.0011852104
0.0011844789
0.0011838744
0.0011833807
0.0011829866
0.0011826606
0.0011823322
0.0011819397
0.0011815583
0.0011814349
0.001181588
0.0011812488
1.4478543e-07
1.1888099e-06
9.9434864e-07
7.0831733e-07
7.68578e-07
7.7668543e-07
8.6073721e-07
9.6329945e-07
1.0879566e-06
1.230487e-06
1.3920583e-06
1.5736037e-06
1.7766421e-06
2.0028305e-06
2.2540765e-06
2.532506e-06
2.8404982e-06
3.1807159e-06
3.5561496e-06
3.9701702e-06
4.4266029e-06
4.9298313e-06
5.484947e-06
6.0979627e-06
6.7761171e-06
7.5282893e-06
8.3655502e-06
9.3018659e-06
1.0354989e-05
1.1547519e-05
1.2908169e-05
1.447336e-05
1.6288999e-05
1.8412707e-05
2.0916433e-05
2.3889621e-05
2.7443053e-05
3.1713468e-05
3.6869194e-05
4.3117005e-05
5.0710606e-05
6.0390585e-05
7.1766501e-05
8.5660347e-05
0.00010264553
0.00012342131
0.00014884223
0.0001799516
0.00021802266
0.00026460674
0.00032160106
0.0003949316
0.00048080464
0.00058576725
0.00071404725
0.00087081777
0.0010624311
0.0012002906
0.0011988794
0.0011974676
0.0011960321
0.0011945691
0.0011930712
0.0011915343
0.0011899657
0.0011884244
0.0011871659
0.0011861073
0.0011852375
0.0011845289
0.0011839579
0.0011835046
0.0011831494
0.0011828588
0.0011825791
0.0011822719
0.0011819955
0.0011819076
0.0011820031
0.0011817278
1.3799297e-07
7.9141535e-07
8.1479018e-07
6.0369037e-07
6.6141602e-07
7.2226404e-07
8.2481074e-07
9.4414611e-07
1.0818858e-06
1.2370417e-06
1.4108745e-06
1.6046003e-06
1.8197652e-06
2.0580904e-06
2.3215215e-06
2.6122397e-06
2.9326895e-06
3.285568e-06
3.6740006e-06
4.1014147e-06
4.5717155e-06
5.0893663e-06
5.6595388e-06
6.2883278e-06
6.9830605e-06
7.7527188e-06
8.6084997e-06
9.5645399e-06
1.0647524e-05
1.1866878e-05
1.3257825e-05
1.4857622e-05
1.6713152e-05
1.8883191e-05
2.1441025e-05
2.4477665e-05
2.8105695e-05
3.2463949e-05
3.7723188e-05
4.4092991e-05
5.1830095e-05
6.1248414e-05
7.2731158e-05
8.6747672e-05
0.00010387011
0.00012479687
0.00015037966
0.00018325061
0.000221764
0.00026881814
0.00032629698
0.00039649024
0.00048218438
0.00058676994
0.00071437764
0.00087005876
0.0010600175
0.0012004678
0.0011990272
0.0011975876
0.0011961265
0.0011946414
0.0011931265
0.001191579
0.0011900066
0.0011884662
0.0011872024
0.0011861396
0.0011852692
0.0011845694
0.0011840215
0.0011836056
0.0011832972
0.0011830593
0.0011828457
0.0011826304