/*--------------------------------*- C++ -*----------------------------------*\
  =========                 |
  \\      /  F ield         | OpenFOAM: The Open Source CFD Toolbox
   \\    /   O peration     | Website:  https://openfoam.org
    \\  /    A nd           | Version:  12
     \\/     M anipulation  |
\*---------------------------------------------------------------------------*/
FoamFile
{
    format      ascii;
    class       volScalarField;
    location    "0.051";
    object      k;
}
// * * * * * * * * * * * * * * * * * * * * * * * * * * * * * * * * * * * * * //

dimensions      [0 2 -2 0 0 0 0];

internalField   nonuniform List<scalar> 
16000
(
0.048442757
0.021435765
0.022326774
0.016480871
0.013982815
0.012659444
0.011872907
0.011403102
0.011084748
0.010870757
0.0107128
0.010595409
0.010503826
0.010431414
0.010373274
0.010326398
0.01028813
0.010256723
0.010231237
0.010210357
0.01019351
0.010179712
0.01016874
0.010160104
0.010153412
0.010148426
0.010144925
0.010142742
0.010141737
0.010141782
0.010142756
0.010144564
0.010147133
0.010150403
0.010154328
0.010158862
0.010163963
0.010169587
0.010175688
0.010182221
0.01018913
0.01019635
0.010203818
0.010211466
0.01021922
0.010227002
0.010234747
0.010242395
0.010249896
0.010257205
0.010264282
0.010271094
0.010277604
0.010283776
0.010289565
0.010294916
0.010299751
0.010303947
0.010307289
0.010309407
0.010309705
0.01030732
0.010301169
0.010290076
0.010273203
0.010250812
0.010225002
0.010199568
0.010178593
0.010164725
0.010158081
0.010156735
0.010163051
0.010171337
0.010174026
0.010166034
0.010141119
0.010082453
0.010037175
0.010012429
0.045860823
0.020314283
0.020899617
0.015941314
0.013641751
0.012459173
0.01171301
0.011288884
0.010986247
0.010789377
0.010641662
0.010532977
0.010447787
0.010380822
0.010327109
0.010284063
0.010249167
0.010220651
0.010197785
0.010179148
0.010164396
0.010152524
0.010143303
0.010136323
0.010131178
0.010127642
0.010125505
0.010124602
0.0101248
0.010125978
0.010128019
0.010130827
0.010134326
0.010138454
0.010143165
0.010148413
0.010154156
0.010160351
0.010166953
0.01017392
0.0101812
0.010188733
0.010196457
0.010204311
0.010212227
0.010220132
0.010227959
0.010235655
0.010243169
0.010250458
0.010257484
0.010264212
0.010270609
0.01027664
0.010282262
0.010287419
0.010292029
0.010295957
0.010298975
0.010300698
0.010300521
0.0102976
0.010290944
0.010279579
0.010262925
0.010241362
0.010216834
0.010192815
0.010173101
0.010160182
0.010154371
0.010154097
0.010159584
0.010166459
0.010167581
0.01015776
0.010131451
0.010077968
0.010034776
0.01000975
0.042127947
0.019517596
0.019586362
0.01538242
0.013292733
0.012235446
0.011547299
0.011164878
0.010885498
0.010706702
0.010570109
0.010470577
0.010392261
0.01033105
0.010282084
0.010243097
0.010211791
0.010186345
0.010166283
0.010150047
0.010137516
0.010127699
0.01012034
0.01011511
0.010111599
0.010109593
0.010108892
0.010109337
0.010110798
0.010113161
0.010116315
0.010120162
0.010124624
0.01012964
0.010135159
0.010141135
0.010147528
0.010154293
0.010161388
0.010168769
0.01017639
0.010184193
0.010192121
0.010200117
0.01020812
0.010216061
0.01022388
0.010231524
0.010238949
0.010246113
0.010252979
0.010259515
0.010265689
0.010271466
0.010276803
0.010281643
0.010285894
0.010289408
0.010291938
0.010293081
0.010292228
0.010288554
0.010281145
0.010269212
0.010252449
0.010231444
0.010208062
0.010185432
0.010167021
0.010155159
0.010150292
0.010151205
0.010155993
0.010161407
0.010160841
0.010149727
0.01012256
0.010073055
0.010031545
0.010007231
0.038538202
0.018980051
0.01844584
0.014881719
0.012976592
0.012032934
0.011395568
0.011051679
0.010793045
0.010630653
0.010504695
0.010413631
0.010341874
0.010286112
0.010241694
0.010206586
0.010178749
0.010156238
0.010138895
0.010125003
0.010114651
0.010106843
0.010101309
0.010097794
0.010095888
0.010095385
0.010096096
0.010097863
0.01010056
0.010104079
0.010108311
0.010113158
0.010118541
0.010124394
0.010130665
0.010137308
0.01014428
0.010151539
0.010159041
0.010166746
0.01017461
0.01018258
0.010190602
0.010198626
0.010206598
0.010214455
0.010222143
0.010229615
0.010236829
0.010243748
0.010250339
0.01025657
0.010262411
0.010267828
0.010272778
0.010277199
0.01028099
0.010283986
0.010285922
0.010286385
0.010284771
0.010280304
0.010272153
0.010259686
0.010242821
0.01022232
0.010199964
0.010178541
0.010161212
0.010150215
0.010145993
0.010147328
0.010151364
0.010155325
0.010153305
0.010141266
0.010114112
0.010068734
0.010029121
0.010004967
0.0356188
0.01868179
0.017480272
0.014417612
0.01268213
0.011841378
0.011253233
0.010944923
0.010706735
0.010559723
0.010444199
0.010361221
0.010295887
0.010245422
0.010205468
0.010174148
0.010149742
0.010130107
0.010115459
0.010103907
0.010095735
0.010089931
0.010086234
0.010084424
0.010084125
0.010085126
0.010087247
0.010090333
0.010094258
0.010098918
0.010104205
0.010110023
0.010116288
0.010122932
0.0101299
0.010137145
0.010144623
0.010152293
0.010160113
0.010168043
0.010176042
0.010184066
0.010192064
0.010199992
0.010207804
0.010215447
0.010222873
0.010230039
0.010236912
0.010243458
0.010249647
0.010255451
0.010260841
0.010265783
0.010270232
0.010274123
0.010277342
0.010279709
0.010280938
0.010280605
0.010278128
0.01027279
0.010263866
0.010250855
0.010233839
0.01021372
0.010192232
0.01017187
0.010155505
0.01014527
0.010141508
0.010142818
0.010146118
0.010148705
0.010145502
0.010132915
0.010106142
0.010064774
0.010027125
0.010003198
0.033451497
0.01862097
0.016776302
0.013992189
0.012411095
0.011663111
0.011121632
0.010845983
0.010627466
0.010494638
0.010389236
0.010313891
0.010254772
0.010209413
0.010173802
0.010146152
0.010125121
0.010108301
0.010096318
0.010087098
0.010081088
0.010077289
0.010075472
0.010075329
0.010076635
0.010079137
0.010082661
0.010087052
0.010092185
0.010097954
0.010104257
0.010110994
0.010118079
0.010125441
0.010133023
0.010140776
0.010148656
0.010156623
0.010164637
0.010172662
0.010180661
0.010188597
0.010196427
0.010204111
0.010211615
0.010218897
0.010225914
0.010232633
0.010239024
0.010245063
0.01025072
0.010255973
0.010260791
0.010265143
0.010268983
0.010272235
0.010274779
0.010276415
0.010276839
0.010275618
0.010272195
0.010265929
0.010256215
0.010242679
0.010225512
0.010205691
0.010184927
0.010165492
0.010149978
0.010140355
0.010136803
0.010137704
0.010140104
0.010141465
0.010137463
0.010124766
0.010098644
0.010060857
0.010025786
0.010002229
0.031144016
0.018721485
0.016272116
0.013602145
0.012161231
0.011497491
0.011000543
0.010754715
0.010555146
0.010435329
0.010339712
0.01027161
0.010218516
0.010178115
0.010146766
0.010122704
0.010105026
0.010091006
0.010081672
0.010074834
0.01007096
0.010069192
0.010069444
0.010070816
0.010073732
0.010077735
0.01008265
0.010088327
0.010094635
0.01010147
0.010108729
0.010116311
0.010124129
0.010132109
0.010140192
0.010148328
0.010156473
0.010164592
0.010172648
0.010180609
0.010188446
0.010196128
0.010203622
0.010210898
0.010217931
0.010224689
0.010231142
0.010237263
0.010243029
0.010248421
0.010253416
0.010257992
0.010262122
0.010265772
0.010268892
0.010271402
0.010273169
0.01027398
0.010273512
0.010271327
0.010266894
0.010259651
0.010249126
0.010235076
0.010217762
0.010198183
0.010178021
0.010159397
0.010144626
0.010135445
0.010131831
0.010131976
0.010133391
0.010133752
0.010129385
0.010116997
0.010091836
0.010056646
0.010025151
0.010002303
0.028575058
0.018911258
0.015861197
0.013244946
0.0119311
0.01134431
0.010889443
0.010670965
0.010489421
0.01038168
0.010295557
0.010234412
0.010187208
0.010151677
0.010124559
0.010104048
0.010089715
0.010078536
0.010071784
0.010067526
0.010065669
0.010066027
0.010067858
0.010071265
0.010075788
0.010081279
0.010087562
0.010094484
0.010101912
0.010109739
0.010117862
0.01012618
0.010134607
0.010143064
0.010151494
0.010159847
0.010168083
0.01017617
0.010184079
0.010191785
0.010199266
0.010206503
0.010213473
0.010220158
0.010226541
0.010232606
0.010238333
0.010243702
0.010248699
0.01025331
0.010257515
0.010261296
0.010264625
0.010267466
0.010269766
0.010271437
0.010272335
0.010272235
0.010270805
0.010267605
0.010262127
0.010253885
0.010242536
0.010227976
0.010210526
0.010191158
0.01017151
0.010153585
0.010139424
0.010130455
0.010126448
0.010125483
0.010126005
0.010125663
0.01012137
0.010109661
0.010085872
0.010053256
0.01002528
0.01000362
0.026764066
0.019100883
0.015373645
0.012917435
0.01171913
0.011202778
0.010787666
0.010593917
0.010430374
0.010333937
0.010257007
0.010202602
0.010161175
0.010130453
0.010107558
0.010090593
0.010079522
0.010071344
0.01006684
0.010065315
0.010064314
0.01006816
0.010072
0.010077087
0.01008321
0.010090156
0.010097753
0.010105846
0.0101143
0.010123002
0.010131853
0.010140752
0.010149613
0.010158359
0.010166933
0.010175292
0.010183399
0.010191231
0.010198768
0.010205994
0.0102129
0.010219478
0.01022572
0.010231617
0.010237167
0.010242366
0.010247205
0.010251673
0.010255763
0.010259466
0.010262766
0.010265643
0.01026807
0.010270008
0.010271398
0.010272142
0.010272093
0.010271011
0.010268565
0.010264322
0.010257798
0.010248569
0.010236405
0.010221338
0.010203756
0.010184583
0.010165373
0.010148016
0.010134276
0.010125232
0.010120492
0.010118323
0.010118076
0.010117397
0.010113584
0.010102887
0.010080799
0.010050707
0.010025936
0.010005235
0.025127638
0.019274145
0.014704784
0.012616889
0.011525279
0.011073595
0.010696008
0.010524847
0.010378575
0.010292548
0.010224495
0.010176648
0.01014089
0.010114928
0.010096252
0.010082882
0.01007465
0.010070008
0.010066335
0.01006919
0.010072131
0.01007618
0.010081926
0.010088743
0.010096414
0.010104741
0.010113552
0.010122692
0.010132022
0.010141428
0.010150809
0.010160071
0.010169132
0.010177919
0.010186381
0.010194481
0.010202195
0.010209508
0.010216413
0.01022291
0.010229001
0.010234693
0.010239993
0.010244906
0.010249441
0.010253606
0.010257407
0.010260838
0.010263898
0.010266581
0.010268875
0.010270757
0.010272199
0.010273156
0.010273562
0.010273312
0.010272246
0.010270129
0.010266633
0.010261343
0.010253807
0.010243645
0.010230708
0.010215148
0.010197426
0.010178419
0.010159557
0.01014259
0.010129019
0.010119574
0.010113784
0.010110633
0.010109846
0.01010924
0.010106253
0.010096823
0.010076608
0.010048906
0.010026881
0.010006694
0.02359834
0.019418381
0.014167192
0.012341068
0.011350028
0.010956361
0.010615035
0.010464309
0.010334197
0.010257919
0.010198449
0.010157039
0.01012687
0.010105647
0.01009118
0.010081589
0.010074442
0.010075199
0.010076484
0.010079193
0.010084138
0.010090633
0.010098207
0.010106667
0.010115785
0.01012536
0.010135221
0.010145212
0.010155195
0.010165055
0.010174695
0.010184031
0.010192987
0.010201502
0.010209536
0.010217065
0.010224077
0.010230575
0.010236567
0.010242068
0.010247097
0.010251677
0.010255828
0.010259569
0.010262923
0.010265907
0.010268537
0.010270816
0.010272745
0.010274321
0.01027553
0.010276349
0.010276742
0.01027666
0.010276029
0.010274735
0.010272613
0.010269428
0.010264868
0.010258549
0.010250058
0.010239051
0.010225422
0.010209397
0.01019151
0.010172603
0.010153955
0.010137149
0.010123443
0.010113292
0.010106209
0.010102665
0.010101694
0.010101567
0.010099636
0.010091555
0.010073127
0.010047493
0.0100278
0.010007774
0.022241715
0.019549982
0.013700304
0.012090467
0.011193392
0.010851203
0.010544594
0.010411997
0.010297601
0.010230533
0.010179373
0.010144331
0.010119703
0.010103231
0.01009294
0.01008755
0.010086198
0.010086939
0.010090611
0.010096375
0.010103574
0.010111961
0.010121279
0.010131243
0.010141629
0.010152234
0.01016289
0.010173443
0.010183761
0.010193733
0.010203272
0.010212308
0.010220782
0.010228649
0.010235887
0.010242491
0.010248467
0.010253836
0.010258626
0.010262869
0.010266601
0.010269858
0.010272676
0.010275085
0.010277119
0.010278803
0.010280161
0.010281202
0.010281929
0.010282336
0.01028241
0.010282122
0.010281431
0.010280277
0.010278579
0.010276218
0.010273023
0.010268764
0.01026315
0.01025584
0.010246467
0.010234723
0.010220505
0.010204059
0.010185966
0.010167047
0.010148429
0.010131501
0.010117324
0.010106287
0.010098485
0.010094808
0.010094097
0.01009476
0.010093916
0.010087034
0.010069966
0.010045848
0.010028533
0.010008674
0.021013697
0.019639555
0.013272857
0.011865068
0.011054976
0.01075846
0.01048478
0.010368617
0.01026912
0.010210911
0.010167842
0.010139158
0.010120066
0.01010839
0.010102335
0.010100565
0.010102147
0.010106606
0.010113046
0.010121098
0.010130419
0.010140654
0.010151513
0.010162735
0.010174096
0.010185395
0.010196471
0.01020718
0.0102174
0.010227038
0.010236023
0.010244307
0.010251855
0.010258651
0.010264694
0.010270001
0.010274603
0.010278539
0.010281858
0.010284607
0.010286838
0.0102886
0.010289939
0.010290897
0.010291512
0.010291818
0.01029184
0.010291593
0.01029108
0.010290291
0.010289208
0.010287799
0.010286011
0.01028378
0.010281014
0.010277588
0.010273332
0.010268022
0.010261392
0.010253143
0.010242967
0.01023059
0.010215892
0.010199079
0.010180731
0.010161655
0.010142837
0.010125468
0.010110517
0.010098495
0.010090928
0.010087548
0.010087503
0.010089066
0.010089073
0.01008303
0.01006673
0.010043651
0.010029037
0.010010004
0.019908367
0.019647717
0.012884968
0.01166274
0.010933993
0.010677777
0.010435714
0.010334421
0.010249228
0.010199704
0.01016459
0.010142299
0.010128777
0.010121948
0.010120181
0.010122268
0.010127315
0.010134615
0.010143674
0.010154013
0.010165239
0.010177025
0.01018909
0.010201177
0.01021307
0.010224578
0.010235554
0.010245877
0.010255449
0.010264204
0.0102721
0.010279121
0.010285266
0.01029055
0.010295
0.010298658
0.010301579
0.01030382
0.010305445
0.010306518
0.010307099
0.010307248
0.010307018
0.010306456
0.010305603
0.010304496
0.010303162
0.010301615
0.010299857
0.010297876
0.010295645
0.010293126
0.010290259
0.01028697
0.01028316
0.010278702
0.010273425
0.010267117
0.010259533
0.010250415
0.010239509
0.010226584
0.010211496
0.010194365
0.010175715
0.010156326
0.010137055
0.010118959
0.010103132
0.01009101
0.010083959
0.010081312
0.010082144
0.010084417
0.010084766
0.010079012
0.010063268
0.010041462
0.010028878
0.010011441
0.018912432
0.019442809
0.012534877
0.011482524
0.010830239
0.010609525
0.010397709
0.010310116
0.010238651
0.010197812
0.010170576
0.010154753
0.010146855
0.010144922
0.010147448
0.010153294
0.010161618
0.010171778
0.010183221
0.010195502
0.010208246
0.010221125
0.010233867
0.010246232
0.010258024
0.010269081
0.010279286
0.010288552
0.010296827
0.010304083
0.010310319
0.010315556
0.010319832
0.010323196
0.010325704
0.010327421
0.01032842
0.010328775
0.010328559
0.010327844
0.010326698
0.010325183
0.010323353
0.010321259
0.010318942
0.010316435
0.010313764
0.010310943
0.01030797
0.010304829
0.010301486
0.010297894
0.010293988
0.010289684
0.010284879
0.010279442
0.010273209
0.010265978
0.010257524
0.010247617
0.01023605
0.010222634
0.010207213
0.010189805
0.010170809
0.010150957
0.010131016
0.010112033
0.010095492
0.010084174
0.010077961
0.010076267
0.010077845
0.01008033
0.01008037
0.010074322
0.010059436
0.010039404
0.010028008
0.010012315
0.018010937
0.018612806
0.012219856
0.011323728
0.010743977
0.010554087
0.010371319
0.010296654
0.010238458
0.010206411
0.010187034
0.010177743
0.010175488
0.010178425
0.010185156
0.010194607
0.010205963
0.01021859
0.010231967
0.01024565
0.010259273
0.01027253
0.010285176
0.010297008
0.010307874
0.010317661
0.010326303
0.010333768
0.010340058
0.010345196
0.010349227
0.010352214
0.01035423
0.010355352
0.010355663
0.010355245
0.01035418
0.010352552
0.010350436
0.010347907
0.010345032
0.01034187
0.010338475
0.010334893
0.010331161
0.01032731
0.010323362
0.010319324
0.010315193
0.010310947
0.010306548
0.010301941
0.010297055
0.010291798
0.010286062
0.010279718
0.010272608
0.010264543
0.010255312
0.010244705
0.010232539
0.010218665
0.010202938
0.010185279
0.010165912
0.0101455
0.01012483
0.010104962
0.010088832
0.01007834
0.010073054
0.010072151
0.010073984
0.010076004
0.010075179
0.010068802
0.010055096
0.010037321
0.010026755
0.010012436
0.017195794
0.017262843
0.011941894
0.011186102
0.0106743
0.010512406
0.010357602
0.010295457
0.010250099
0.010226974
0.010215414
0.010212642
0.010215939
0.010223573
0.010234226
0.010246878
0.010260738
0.010275188
0.010289725
0.010303931
0.010317481
0.010330114
0.010341643
0.010351933
0.010360902
0.010368514
0.010374769
0.010379703
0.010383375
0.010385863
0.010387254
0.010387646
0.010387139
0.010385831
0.010383818
0.010381189
0.010378032
0.010374426
0.010370446
0.010366159
0.010361626
0.010356901
0.010352029
0.010347051
0.010341997
0.010336893
0.010331753
0.010326582
0.010321371
0.010316096
0.010310712
0.01030516
0.010299363
0.010293225
0.010286634
0.010279463
0.01027156
0.010262749
0.010252833
0.01024161
0.010228906
0.010214597
0.010198569
0.010180694
0.010160995
0.010140014
0.010118799
0.010098486
0.010083343
0.010073615
0.010068961
0.010068295
0.010069701
0.010070696
0.010068803
0.010062308
0.010050256
0.010035339
0.010025688
0.010012553
0.016462951
0.016401293
0.01170718
0.011070058
0.010622113
0.010485877
0.010358058
0.010308207
0.01027527
0.010261135
0.01025727
0.010260848
0.010269402
0.010281289
0.010295256
0.01031033
0.010325749
0.010340937
0.010355444
0.010368922
0.010381124
0.010391882
0.010401103
0.010408751
0.010414838
0.010419412
0.010422552
0.010424355
0.010424936
0.010424413
0.010422905
0.01042053
0.010417402
0.010413627
0.010409302
0.010404514
0.010399344
0.010393863
0.010388136
0.010382219
0.010376161
0.010370007
0.010363792
0.010357547
0.010351294
0.010345053
0.01033883
0.010332627
0.010326428
0.010320207
0.010313918
0.010307497
0.010300863
0.010293918
0.01028655
0.01027863
0.010270014
0.010260536
0.010250014
0.01023825
0.010225071
0.010210353
0.010194023
0.010175981
0.010156114
0.010134693
0.010113031
0.010093412
0.010079038
0.010069738
0.01006509
0.010063904
0.010064282
0.010064037
0.01006128
0.010055037
0.010045013
0.010033383
0.010025159
0.010012828
0.015804637
0.015402231
0.011506782
0.010976127
0.010588368
0.010476201
0.010374328
0.010336811
0.010315888
0.010310676
0.010314193
0.010323644
0.010336752
0.010351955
0.010368075
0.010384214
0.010399695
0.010414037
0.010426912
0.0104381
0.010447482
0.010455026
0.010460758
0.010464756
0.010467127
0.010468001
0.01046752
0.010465832
0.010463082
0.010459412
0.010454955
0.010449832
0.010444155
0.010438023
0.010431525
0.010424738
0.010417726
0.010410549
0.010403254
0.010395886
0.01038848
0.010381067
0.010373671
0.010366311
0.010359003
0.010351756
0.010344572
0.010337445
0.010330359
0.010323282
0.010316168
0.010308953
0.010301555
0.010293875
0.010285801
0.010277203
0.010267943
0.010257865
0.010246797
0.010234555
0.010220961
0.01020588
0.010189253
0.010171057
0.010151216
0.010129747
0.010107721
0.010089449
0.010075591
0.010066213
0.010060868
0.0100585
0.010057518
0.010056185
0.010053047
0.01004738
0.010039338
0.010030999
0.010024913
0.010013658
0.015215195
0.014723288
0.011343065
0.010904993
0.010574094
0.010485576
0.010408599
0.010383624
0.010374185
0.010377446
0.010387519
0.010401706
0.010417918
0.010434719
0.010451076
0.010466258
0.010479763
0.010491293
0.010500708
0.010507967
0.010513119
0.010516272
0.010517577
0.010517206
0.010515345
0.010512177
0.010507882
0.010502627
0.010496569
0.010489848
0.010482591
0.010474908
0.010466895
0.010458635
0.0104502
0.010441649
0.010433029
0.010424382
0.01041574
0.01040713
0.010398574
0.010390089
0.010381688
0.010373378
0.010365166
0.010357052
0.010349033
0.010341096
0.010333223
0.010325381
0.010317523
0.010309586
0.01030149
0.010293138
0.010284419
0.010275205
0.01026536
0.010254735
0.010243172
0.010230498
0.010216542
0.010201158
0.010184264
0.010165876
0.010146068
0.010124963
0.010103388
0.01008609
0.010072474
0.010062593
0.01005609
0.01005221
0.010049845
0.010047727
0.01004463
0.010039749
0.010033372
0.010027752
0.010023971
0.010015173
0.014689026
0.013972964
0.011212733
0.010859309
0.010581099
0.010517344
0.010463924
0.010451365
0.010452262
0.010462612
0.01047738
0.010494083
0.010510913
0.010526693
0.010540669
0.010552391
0.010561634
0.010568347
0.010572614
0.010574584
0.010574458
0.010572464
0.010568836
0.010563809
0.0105576
0.010550413
0.010542428
0.010533809
0.010524695
0.010515209
0.010505455
0.010495522
0.010485483
0.010475398
0.010465317
0.010455278
0.010445314
0.010435445
0.010425688
0.010416055
0.010406553
0.010397187
0.010387956
0.010378861
0.010369897
0.010361056
0.010352329
0.010343698
0.01033514
0.010326623
0.010318098
0.010309508
0.010300774
0.010291804
0.010282489
0.010272709
0.010262327
0.010251202
0.010239181
0.010226108
0.010211827
0.01019619
0.01017909
0.010160511
0.01014059
0.010119748
0.010099363
0.010082765
0.010069229
0.01005871
0.010050993
0.010045671
0.010042119
0.01003946
0.010036582
0.010032519
0.010027457
0.010023692
0.010021677
0.010016881
0.014225797
0.01339157
0.011120418
0.010843783
0.010613222
0.010575561
0.010543415
0.010541889
0.010550594
0.010565114
0.010581289
0.010597064
0.010611098
0.010622647
0.010631362
0.010637158
0.010640121
0.010640453
0.010638427
0.010634337
0.010628482
0.010621147
0.010612599
0.010603077
0.010592791
0.010581926
0.010570639
0.010559061
0.010547305
0.010535461
0.010523605
0.010511797
0.010500085
0.010488505
0.010477086
0.010465847
0.010454801
0.010443954
0.010433308
0.010422862
0.010412609
0.010402542
0.010392653
0.010382929
0.010373359
0.010363927
0.010354617
0.010345406
0.010336268
0.010327166
0.010318055
0.010308878
0.010299563
0.010290023
0.010280157
0.010269848
0.010258967
0.010247376
0.01023493
0.010221482
0.010206887
0.010191011
0.010173742
0.010155032
0.010134984
0.010114179
0.010095057
0.010079047
0.010065627
0.010054667
0.010046056
0.010039655
0.010035179
0.010032026
0.010029223
0.0100258
0.010021904
0.010019685
0.010019106
0.010017044
0.013830904
0.012930267
0.011068597
0.010863517
0.010695876
0.010663279
0.010648159
0.01065403
0.010666057
0.010680141
0.010693211
0.010703877
0.010711448
0.010715713
0.01071676
0.010714844
0.010710307
0.01070352
0.01069486
0.010684678
0.010673289
0.010660972
0.010647965
0.010634473
0.010620663
0.010606678
0.010592632
0.010578617
0.010564707
0.010550961
0.010537422
0.010524125
0.010511092
0.01049834
0.010485876
0.010473703
0.010461818
0.010450216
0.010438885
0.010427813
0.010416984
0.010406381
0.010395985
0.010385779
0.01037574
0.010365847
0.010356076
0.0103464
0.010336786
0.010327196
0.010317584
0.010307893
0.010298058
0.010287997
0.010277618
0.010266813
0.010255461
0.010243429
0.010230577
0.010216765
0.010201858
0.010185724
0.01016825
0.010149375
0.010129199
0.010108433
0.010090248
0.010074777
0.010061644
0.010050624
0.010041617
0.010034591
0.010029435
0.010025727
0.010022673
0.010019518
0.010016519
0.010015514
0.01001575
0.010012584
0.013513487
0.012558818
0.011061356
0.010918422
0.010798047
0.010779812
0.010774498
0.010781633
0.010790826
0.010798944
0.010804153
0.010805875
0.010804078
0.01079903
0.010791143
0.010780878
0.010768691
0.010754998
0.010740168
0.010724516
0.010708308
0.010691761
0.010675052
0.010658322
0.010641683
0.010625224
0.010609014
0.010593104
0.010577532
0.010562326
0.010547502
0.01053307
0.010519035
0.010505394
0.010492141
0.010479264
0.010466749
0.01045458
0.010442737
0.010431198
0.010419941
0.010408941
0.010398173
0.01038761
0.010377226
0.010366992
0.010356878
0.010346849
0.010336869
0.010326895
0.010316877
0.01030676
0.010296478
0.010285957
0.010275112
0.010263845
0.010252044
0.010239585
0.010226336
0.010212161
0.010196931
0.010180518
0.010162807
0.010143731
0.010123399
0.010102628
0.01008509
0.010070079
0.010057335
0.010046548
0.010037554
0.010030291
0.010024691
0.010020453
0.010016991
0.01001378
0.010011043
0.010010156
0.010010837
0.01000988
0.013290225
0.012289308
0.011101565
0.011015155
0.01093056
0.010916692
0.010912352
0.010913422
0.010913446
0.010910665
0.010904432
0.010894876
0.010882424
0.0108676
0.010850927
0.010832881
0.010813875
0.010794251
0.010774285
0.0107542
0.010734168
0.010714325
0.010694772
0.010675586
0.010656821
0.010638519
0.010620704
0.010603395
0.0105866
0.01057032
0.010554551
0.010539286
0.010524514
0.010510219
0.010496383
0.010482986
0.010470007
0.01045742
0.0104452
0.01043332
0.010421751
0.010410464
0.010399429
0.010388614
0.010377989
0.010367518
0.010357167
0.010346895
0.010336659
0.010326411
0.010316096
0.010305655
0.010295021
0.010284123
0.01027288
0.010261202
0.010248988
0.010236122
0.010222483
0.010207945
0.010192386
0.010175685
0.010157734
0.010138463
0.010117992
0.010097199
0.010080006
0.010065265
0.010052803
0.010042271
0.010033445
0.010026193
0.010020409
0.010015852
0.010012109
0.010008913
0.010006712
0.010006437
0.010007381
0.010005763
0.013161856
0.01212052
0.011194849
0.011142648
0.011078104
0.011060501
0.011047401
0.011035744
0.011021938
0.011005492
0.010986537
0.010965538
0.010943028
0.010919499
0.010895369
0.010870977
0.010846587
0.010822401
0.010798572
0.01077521
0.010752392
0.010730172
0.010708586
0.010687654
0.010667385
0.010647779
0.010628832
0.010610534
0.01059287
0.010575825
0.01055938
0.010543514
0.010528206
0.010513432
0.010499167
0.010485385
0.010472058
0.010459158
0.010446655
0.010434518
0.010422716
0.010411217
0.010399987
0.010388994
0.010378201
0.010367572
0.010357067
0.010346642
0.010336248
0.010325831
0.010315331
0.010304683
0.010293815
0.010282651
0.010271112
0.010259109
0.01024655
0.010233328
0.010219334
0.010204456
0.010188584
0.010171614
0.010153448
0.010134023
0.010113452
0.010092658
0.010075517
0.01006078
0.010048335
0.01003786
0.010029133
0.010021975
0.010016223
0.01001164
0.010007933
0.010004957
0.010003054
0.010002807
0.010003737
0.010003346
0.013094837
0.012048256
0.011352053
0.011284456
0.011224251
0.011192532
0.011163816
0.011135897
0.011107078
0.011077369
0.011047038
0.011016451
0.010985937
0.010955761
0.010926124
0.010897167
0.010868987
0.010841645
0.010815176
0.010789596
0.010764906
0.010741097
0.010718153
0.010696054
0.010674776
0.010654292
0.010634575
0.010615598
0.010597332
0.010579749
0.010562821
0.01054652
0.010530817
0.010515683
0.010501089
0.010487006
0.010473404
0.010460251
0.010447516
0.010435167
0.010423171
0.010411494
0.010400103
0.010388962
0.010378035
0.010367285
0.010356669
0.010346143
0.010335655
0.010325148
0.010314557
0.010303809
0.010292826
0.010281526
0.010269823
0.010257625
0.010244842
0.010231377
0.01021713
0.010202
0.010185891
0.010168712
0.010150382
0.01013085
0.010110235
0.010089416
0.010072109
0.010057169
0.010044505
0.010033857
0.010025042
0.010017886
0.010012199
0.010007726
0.010004201
0.010001513
0.0099999122
0.0099997979
0.010000862
0.010001389
0.013102067
0.012007056
0.0115062
0.01141684
0.011345274
0.011295234
0.011249512
0.011206638
0.011165317
0.011125367
0.011086738
0.011049456
0.011013542
0.010979001
0.010945822
0.010913976
0.010883426
0.010854128
0.010826034
0.010799092
0.010773254
0.010748469
0.010724689
0.010701865
0.010679954
0.010658913
0.010638701
0.010619278
0.010600609
0.010582658
0.010565391
0.010548775
0.010532778
0.010517369
0.010502517
0.010488191
0.010474359
0.010460989
0.01044805
0.010435509
0.010423332
0.010411486
0.010399936
0.010388647
0.010377585
0.010366711
0.010355985
0.010345364
0.010334797
0.010324227
0.010313589
0.010302808
0.0102918
0.010280475
0.010268738
0.010256494
0.01024365
0.010230114
0.010215792
0.010200593
0.010184422
0.010167189
0.010148814
0.010129257
0.010108644
0.010087768
0.010070139
0.010054913
0.01004194
0.010031
0.010021924
0.010014559
0.010008751
0.01000432
0.010001074
0.0099988812
0.009997758
0.0099978104
0.0099988511
0.0099999757
0.013192618
0.012031916
0.011622032
0.011513177
0.011426366
0.011360494
0.011301948
0.011248808
0.011199447
0.011153218
0.011109681
0.011068545
0.011029586
0.010992622
0.010957499
0.010924081
0.010892249
0.010861895
0.010832923
0.010805247
0.010778786
0.010753467
0.010729224
0.010705996
0.010683726
0.010662362
0.010641856
0.010622163
0.010603241
0.010585053
0.010567559
0.010550726
0.010534521
0.010518909
0.01050386
0.010489341
0.01047532
0.010461767
0.010448647
0.010435929
0.010423579
0.010411562
0.010399845
0.010388393
0.010377171
0.010366143
0.010355271
0.010344516
0.010333829
0.01032316
0.010312447
0.010301616
0.010290584
0.01027926
0.010267544
0.010255337
0.010242545
0.010229078
0.010214849
0.010199769
0.010183744
0.010166676
0.010148474
0.01012909
0.010108629
0.010087787
0.010069652
0.010054096
0.010040807
0.010029593
0.010020264
0.010012668
0.010006685
0.010002205
0.0099990878
0.0099971613
0.0099962926
0.0099963701
0.0099973667
0.0099990639
0.013316405
0.01208792
0.011683143
0.011561797
0.011464928
0.011390771
0.011326175
0.011268558
0.011215883
0.011167169
0.011121749
0.011079168
0.011039088
0.011001241
0.010965413
0.010931424
0.010899121
0.010868374
0.010839066
0.010811097
0.010784377
0.010758824
0.010734366
0.010710936
0.010688474
0.010666926
0.01064624
0.01062637
0.010607272
0.010588908
0.010571238
0.010554228
0.010537842
0.01052205
0.010506817
0.010492113
0.010477906
0.010464163
0.010450853
0.010437942
0.010425396
0.01041318
0.010401261
0.010389603
0.010378172
0.010366931
0.010355846
0.010344877
0.010333982
0.010323114
0.010312214
0.010301218
0.010290047
0.010278611
0.010266816
0.01025456
0.010241749
0.010228291
0.010214099
0.01019909
0.010183174
0.010166255
0.010148243
0.010129085
0.010108861
0.010088186
0.01006982
0.010054068
0.01004057
0.010029161
0.01001965
0.010011883
0.01000576
0.010001214
0.0099981489
0.0099964033
0.00999587
0.0099958971
0.0099963295
0.0099984499
67.192069
365.78493
122.02481
14.333155
0.39356718
0.022004671
0.020622554
0.020265191
0.019991194
0.018910329
0.017524199
0.016323813
0.015407145
0.014806721
0.014379784
0.013975717
0.013578325
0.013226591
0.012934335
0.012691319
0.012484726
0.012306308
0.012150881
0.012014557
0.011894158
0.011787064
0.011691178
0.011604834
0.011526723
0.011455806
0.011391222
0.011332223
0.011278152
0.011228449
0.011182664
0.011140429
0.011101423
0.011065358
0.011031978
0.011001066
0.010972422
0.010945821
0.010921053
0.01089796
0.010876411
0.010856267
0.010837389
0.010819663
0.010803016
0.010787413
0.01077285
0.010759352
0.010746965
0.010735741
0.010725738
0.010717006
0.010709583
0.010703481
0.010698661
0.010695015
0.010692121
0.010689228
0.010685538
0.010680273
0.010672575
0.010657751