/*--------------------------------*- C++ -*----------------------------------*\
  =========                 |
  \\      /  F ield         | OpenFOAM: The Open Source CFD Toolbox
   \\    /   O peration     | Website:  https://openfoam.org
    \\  /    A nd           | Version:  12
     \\/     M anipulation  |
\*---------------------------------------------------------------------------*/
FoamFile
{
    format      ascii;
    class       volScalarField;
    location    "0.051";
    object      nut;
}
// * * * * * * * * * * * * * * * * * * * * * * * * * * * * * * * * * * * * * //

dimensions      [0 2 -1 0 0 0 0];

internalField   nonuniform List<scalar> 
16000
(
4.6133477e-07
9.8459716e-06
1.8524443e-05
2.3822205e-05
1.8282015e-05
2.5021887e-05
1.7733085e-05
2.4213888e-05
1.8955581e-05
2.6006831e-05
2.1968471e-05
2.5718321e-05
2.3485761e-05
2.4079405e-05
2.3273447e-05
2.313327e-05
2.289091e-05
2.2822765e-05
2.2833079e-05
2.2940826e-05
2.3138967e-05
2.3426152e-05
2.3800033e-05
2.4260598e-05
2.4809709e-05
2.545319e-05
2.6198776e-05
2.7058932e-05
2.8048833e-05
2.9184796e-05
3.0484765e-05
3.1972657e-05
3.367937e-05
3.5642988e-05
3.7910344e-05
4.0537271e-05
4.3590222e-05
4.7148397e-05
5.13098e-05
5.6195726e-05
6.1948273e-05
6.8734686e-05
7.6765771e-05
8.6299529e-05
9.7642807e-05
0.00011116384
0.00012731977
0.00014666868
0.00016989215
0.00019782399
0.0002314895
0.0002721534
0.00032137362
0.00038107816
0.00045366138
0.00054212485
0.0006502747
0.00078299942
0.00094666464
0.0010212836
0.0010212056
0.001021027
0.0010206399
0.0010199722
0.0010189812
0.0010176823
0.0010161901
0.0010147054
0.0010134429
0.0010125581
0.0010120973
0.001012001
0.0010121615
0.0010124167
0.0010123873
0.0010117675
0.0010101631
0.0010066026
0.0010036034
0.001001499
4.2482993e-07
9.3620519e-06
1.9784486e-05
2.1344112e-05
1.6514017e-05
2.2493153e-05
1.5765685e-05
2.1255839e-05
1.6765973e-05
2.3010339e-05
1.9906315e-05
2.3214857e-05
2.1495914e-05
2.1841726e-05
2.1211232e-05
2.10227e-05
2.0820432e-05
2.0748273e-05
2.0759742e-05
2.0857755e-05
2.1040327e-05
2.1305861e-05
2.1652493e-05
2.2080403e-05
2.2590957e-05
2.3189618e-05
2.3883086e-05
2.4682596e-05
2.5602527e-05
2.6658801e-05
2.7868115e-05
2.9252313e-05
3.0839982e-05
3.2666381e-05
3.4775332e-05
3.7219351e-05
4.0061367e-05
4.3375842e-05
4.7254142e-05
5.1811268e-05
5.7184023e-05
6.353016e-05
7.1048673e-05
7.9986264e-05
9.0638578e-05
0.00010335683
0.00011857874
0.00013684089
0.00015880049
0.00018526287
0.00021721958
0.0002558981
0.00030281449
0.00035985195
0.00042935634
0.00051427534
0.00061835408
0.00074640276
0.00090464826
0.0010207186
0.0010206303
0.0010204182
0.0010200027
0.0010193201
0.0010183411
0.0010170875
0.0010156658
0.00101426
0.0010130696
0.0010122412
0.0010118247
0.0010117574
0.0010118959
0.0010120815
0.001011974
0.0010112464
0.0010095623
0.0010062716
0.0010033818
0.0010012982
3.7987139e-07
8.9854515e-06
1.8735585e-05
1.9589199e-05
1.4819249e-05
1.983899e-05
1.4060005e-05
1.8503012e-05
1.5097179e-05
2.022096e-05
1.817232e-05
2.0700054e-05
1.9492967e-05
1.9584454e-05
1.9098024e-05
1.8889488e-05
1.8718859e-05
1.865226e-05
1.8666925e-05
1.8759714e-05
1.8930041e-05
1.9176758e-05
1.9498187e-05
1.989485e-05
2.0367739e-05
2.0922139e-05
2.1564046e-05
2.2303652e-05
2.3154383e-05
2.4131787e-05
2.5251736e-05
2.6534456e-05
2.8006649e-05
2.9701169e-05
3.1659208e-05
3.3930285e-05
3.6574281e-05
3.9662041e-05
4.327945e-05
4.7535323e-05
5.2562307e-05
5.8511084e-05
6.557075e-05
7.3977723e-05
8.4019241e-05
9.6033378e-05
0.00011044241
0.00012776598
0.0001486425
0.00017385622
0.00020437326
0.00024139367
0.00028640264
0.00034125137
0.00040825254
0.00049031777
0.0005911489
0.00071550439
0.00086954005
0.0010202084
0.0010201013
0.0010198455
0.0010193874
0.0010186731
0.0010176878
0.0010164647
0.0010151052
0.0010137753
0.0010126583
0.0010118943
0.0010115377
0.0010115094
0.001011618
0.0010117298
0.0010115297
0.0010107255
0.00100899
0.0010059118
0.001003108
0.0010010989
3.3918837e-07
8.7008171e-06
1.7809008e-05
1.8307969e-05
1.3346989e-05
1.7545438e-05
1.2545913e-05
1.6195665e-05
1.3604863e-05
1.7850165e-05
1.6603699e-05
1.8469234e-05
1.7639884e-05
1.7547125e-05
1.7168175e-05
1.6959792e-05
1.681717e-05
1.6761112e-05
1.6781718e-05
1.6872833e-05
1.7034495e-05
1.726606e-05
1.7566104e-05
1.7935591e-05
1.8375292e-05
1.8890445e-05
1.9486597e-05
2.0173115e-05
2.0962527e-05
2.1870082e-05
2.2911124e-05
2.4104513e-05
2.5475432e-05
2.7054689e-05
2.8881269e-05
3.1002127e-05
3.3474546e-05
3.6366582e-05
3.975982e-05
4.3757325e-05
4.8488658e-05
5.4099271e-05
6.0770433e-05
6.8729513e-05
7.8258064e-05
8.9684452e-05
0.00010341921
0.00011996951
0.00013996019
0.00016416139
0.00019352173
0.00022922399
0.00027273444
0.00032588652
0.0003909768
0.0004709017
0.00056934317
0.0006910305
0.00084208195
0.0010197468
0.0010196185
0.0010193181
0.0010188176
0.0010180735
0.0010170823
0.0010158861
0.001014582
0.0010133178
0.0010122617
0.0010115501
0.0010112333
0.0010112176
0.0010112821
0.0010113212
0.0010110404
0.0010101837
0.0010084414
0.0010055825
0.0010028784
0.0010009205
3.0643175e-07
8.4907061e-06
1.7005475e-05
1.8306928e-05
1.3413213e-05
1.5538091e-05
1.1213514e-05
1.4208972e-05
1.231843e-05
1.5799326e-05
1.5204461e-05
1.6453773e-05
1.5907295e-05
1.5690634e-05
1.5391716e-05
1.5197284e-05
1.5078102e-05
1.5033259e-05
1.505874e-05
1.5147705e-05
1.5300433e-05
1.5516954e-05
1.5796177e-05
1.6139574e-05
1.6547876e-05
1.7026323e-05
1.7580156e-05
1.8218096e-05
1.8951775e-05
1.9796101e-05
2.0766089e-05
2.1879471e-05
2.3160189e-05
2.4637294e-05
2.6347893e-05
2.8336734e-05
3.0658793e-05
3.3379922e-05
3.6578542e-05
4.0352263e-05
4.4828131e-05
5.0147849e-05
5.6486767e-05
6.4063873e-05
7.3156859e-05
8.4087092e-05
9.725606e-05
0.00011316161
0.00013241847
0.00015578768
0.00018420578
0.00021884524
0.00026116158
0.00031297995
0.0003765919
0.00045489243
0.00055156149
0.00067131667
0.0008202558
0.0010062194
0.0010191795
0.0010188319
0.0010182872
0.0010175124
0.0010165122
0.001015336
0.0010140783
0.0010128714
0.0010118694
0.0010112025
0.0010109117
0.0010108894
0.0010109101
0.0010108801
0.0010105319
0.0010096404
0.0010079138
0.0010052717
0.0010026754
0.0010007759
2.8164712e-07
8.3635863e-06
1.637056e-05
1.804748e-05
1.3148211e-05
1.3777422e-05
1.0669575e-05
1.2564984e-05
1.1542139e-05
1.4075637e-05
1.3978073e-05
1.4681792e-05
1.4323781e-05
1.4034497e-05
1.3786156e-05
1.3607508e-05
1.3503591e-05
1.3465837e-05
1.3492631e-05
1.3577323e-05
1.3720161e-05
1.3921753e-05
1.4181254e-05
1.4500392e-05
1.4880118e-05
1.5325538e-05
1.5841669e-05
1.6436728e-05
1.7121476e-05
1.791045e-05
1.8818501e-05
1.9862464e-05
2.1065308e-05
2.2454639e-05
2.4066041e-05
2.5942447e-05
2.8136907e-05
3.071355e-05
3.3748859e-05
3.7335771e-05
4.1599067e-05
4.6678223e-05
5.2745065e-05
6.0011096e-05
6.8752053e-05
7.9285349e-05
9.2006462e-05
0.00010740766
0.0001260974
0.00014883341
0.00017654623
0.00021040587
0.00025186631
0.00030275485
0.00036537016
0.00044261982
0.00053819973
0.00065683492
0.00080461518
0.00098938306
0.0010187789
0.0010183821
0.0010177922
0.0010169876
0.001015978
0.0010148171
0.0010135976
0.0010124406
0.0010114858
0.0010108537
0.0010105717
0.0010105212
0.0010104932
0.0010104008
0.0010100051
0.0010091029
0.0010074092
0.0010049639
0.0010025164
0.0010006808
2.5684079e-07
8.2927903e-06
1.5869748e-05
1.7064736e-05
1.3050553e-05
1.218224e-05
1.0683391e-05
1.1595206e-05
1.1012473e-05
1.2561671e-05
1.2874341e-05
1.3113646e-05
1.2852944e-05
1.2532639e-05
1.231303e-05
1.2150202e-05
1.205769e-05
1.2025885e-05
1.2053693e-05
1.2134995e-05
1.2269645e-05
1.2458728e-05
1.2701674e-05
1.2923824e-05
1.3270008e-05
1.3679128e-05
1.4155619e-05
1.4707004e-05
1.5342987e-05
1.6077397e-05
1.6924893e-05
1.7901436e-05
1.9029101e-05
2.033411e-05
2.1850632e-05
2.3619938e-05
2.5693256e-05
2.8133013e-05
3.1014502e-05
3.4686383e-05
3.8777882e-05
4.3664057e-05
4.9515653e-05
5.6537885e-05
6.5005612e-05
7.5235264e-05
8.7619245e-05
0.00010264767
0.00012092604
0.00014321421
0.00017044214
0.00020378449
0.00024470192
0.0002950334
0.00035709545
0.00043382029
0.00052893548
0.00064719419
0.00079469372
0.00097925772
0.001018413
0.0010179647
0.0010173285
0.0010164943
0.0010154753
0.0010143262
0.0010131383
0.0010120249
0.001011111
0.0010105024
0.0010102124
0.0010101147
0.0010100343
0.0010098896
0.0010094695
0.0010085816
0.0010069414
0.0010046425
0.0010024051
0.0010005987
2.3097467e-07
8.2539275e-06
1.5439222e-05
1.5524749e-05
1.1912742e-05
1.0623801e-05
9.2098483e-06
1.0337527e-05
9.6650205e-06
1.1298245e-05
1.1759009e-05
1.1669408e-05
1.1446458e-05
1.1135452e-05
1.0939699e-05
1.0797144e-05
1.0718503e-05
1.069556e-05
1.0662583e-05
1.0727909e-05
1.0846404e-05
1.1018194e-05
1.1241714e-05
1.151652e-05
1.1846883e-05
1.2235979e-05
1.2688323e-05
1.3211391e-05
1.3814363e-05
1.4510669e-05
1.5315188e-05
1.6243429e-05
1.7317057e-05
1.8561429e-05
2.0009897e-05
2.1702698e-05
2.3689996e-05
2.6033205e-05
2.8807315e-05
3.2103744e-05
3.6034094e-05
4.0739869e-05
4.6392551e-05
5.364072e-05
6.1914707e-05
7.1934843e-05
8.4093719e-05
9.8882607e-05
0.00011690741
0.0001389358
0.00016590278
0.00019899475
0.00023968759
0.00028984158
0.00035180226
0.00042853862
0.00052382458
0.00064246238
0.00079058033
0.00097600754
0.0010180782
0.0010175755
0.0010168924
0.0010160284
0.0010150003
0.0010138612
0.0010127001
0.0010116242
0.0010107433
0.0010101443
0.0010098267
0.0010096621
0.0010095349
0.0010093518
0.0010089318
0.0010080811
0.0010065203
0.0010043717
0.0010023451
0.0010006154
2.121864e-07
8.2148315e-06
1.4985065e-05
1.3597647e-05
9.8047615e-06
9.4487602e-06
7.5983313e-06
8.8189957e-06
9.0052979e-06
1.0161301e-05
1.062641e-05
1.0323479e-05
1.0118141e-05
9.8395843e-06
9.6681915e-06
9.4817372e-06
9.394117e-06
9.3670414e-06
9.3938138e-06
9.471294e-06
9.5947871e-06
9.7673398e-06
9.9865397e-06
1.0252973e-05
1.057076e-05
1.0943836e-05
1.1376823e-05
1.1877246e-05
1.2453928e-05
1.3119877e-05
1.3890286e-05
1.4780434e-05
1.5811849e-05
1.7009295e-05
1.8405636e-05
2.0040507e-05
2.1963459e-05
2.4235409e-05
2.6930899e-05
3.0140783e-05
3.3977335e-05
3.8580511e-05
4.412521e-05
5.081522e-05
5.8912615e-05
6.874487e-05
8.1420505e-05
9.610242e-05
0.00011403089
0.00013598681
0.00016291608
0.00019602388
0.00023680967
0.00028716476
0.00034947506
0.00042675876
0.00052285044
0.00064262208
0.00079226153
0.00097963526
0.001017769
0.001017211
0.0010164814
0.0010155877
0.0010145505
0.0010134202
0.0010122815
0.0010112357
0.001010377
0.0010097707
0.0010094059
0.0010091701
0.0010090025
0.0010087993
0.0010084036
0.0010076109
0.0010061502
0.0010041539
0.001002324
0.0010006571
1.9549728e-07
8.1741351e-06
1.3521451e-05
1.1860051e-05
7.9362959e-06
8.3895703e-06
6.7556814e-06
7.9576571e-06
8.3341658e-06
9.0880462e-06
9.5026984e-06
9.0937507e-06
8.8941853e-06
8.5699144e-06
8.3898698e-06
8.2734853e-06
8.2183421e-06
8.2156432e-06
8.2586944e-06
8.3478443e-06
8.4777894e-06
8.6503216e-06
8.8667165e-06
9.1269408e-06
9.4353902e-06
9.7964266e-06
1.0214828e-05
1.0698284e-05
1.1255403e-05
1.1898792e-05
1.2644004e-05
1.3506386e-05
1.4507549e-05
1.5671926e-05
1.7032206e-05
1.8627812e-05
2.0508112e-05
2.273404e-05
2.5380599e-05
2.8539274e-05
3.2322744e-05
3.6871031e-05
4.2362834e-05
4.9002968e-05
5.7057121e-05
6.6856683e-05
7.8812795e-05
9.3412852e-05
0.00011229682
0.00013436981
0.00016148801
0.00019488207
0.00023608379
0.00028702538
0.00035014511
0.00042852366
0.00052607042
0.00064774864
0.00079983622
0.00099026302
0.0010174794
0.0010168679
0.0010160942
0.0010151713
0.0010141242
0.0010130009
0.0010118793
0.0010108532
0.0010100023
0.0010093707
0.0010089417
0.0010086476
0.0010084516
0.0010082501
0.001007901
0.0010071804
0.0010058322
0.0010039841
0.0010023267
0.0010006963
1.8026154e-07
8.1289586e-06
1.0740789e-05
9.8578001e-06
6.5173129e-06
7.4669313e-06
6.1550741e-06
7.146039e-06
7.7910092e-06
8.1109347e-06
8.3986612e-06
7.8876379e-06
7.6418477e-06
7.4151264e-06
7.2810083e-06
7.2024775e-06
7.1744157e-06
7.1933386e-06
7.2520578e-06
7.3499246e-06
7.4854541e-06
7.6600971e-06
7.8755136e-06
8.132257e-06
8.4348085e-06
8.7879646e-06
9.1967775e-06
9.6691563e-06
1.021368e-05
1.0842627e-05
1.1512869e-05
1.2348181e-05
1.3320414e-05
1.4453645e-05
1.5780372e-05
1.7339836e-05
1.9181281e-05
2.1365703e-05
2.3968669e-05
2.7082552e-05
3.0821433e-05
3.5603863e-05
4.1098728e-05
4.7756457e-05
5.5846478e-05
6.5705306e-05
7.7757752e-05
9.2505587e-05
0.00011058672
0.0001328044
0.00016162154
0.00019557682
0.00023752314
0.00028944359
0.00035384122
0.00043387367
0.00053353994
0.00065791415
0.00081339763
0.0010080184
0.0010172037
0.0010165429
0.0010157293
0.0010147787
0.0010137201
0.0010125998
0.0010114874
0.0010104678
0.0010096073
0.0010089339
0.0010084285
0.0010081098
0.0010079045
0.0010077272
0.0010074407
0.0010067983
0.0010055587
0.0010038406
0.0010023319
0.0010007297
1.6690368e-07
8.0827217e-06
8.475187e-06
8.3682101e-06
5.7237321e-06
6.6132397e-06
5.6475395e-06
6.4357134e-06
7.2377925e-06
7.1977704e-06
7.2027419e-06
6.7685588e-06
6.5671209e-06
6.3995805e-06
6.3044375e-06
6.2575011e-06
6.2541733e-06
6.2900506e-06
6.3620076e-06
6.4696821e-06
6.6116425e-06
6.7897213e-06
7.0064106e-06
7.2627143e-06
7.5632069e-06
7.8792562e-06
8.2767933e-06
8.7372363e-06
9.2690407e-06
9.8840613e-06
1.0596594e-05
1.1425242e-05
1.239102e-05
1.3518118e-05
1.4839397e-05
1.6394579e-05
1.8233611e-05
2.0418429e-05
2.3026292e-05
2.615177e-05
2.9911968e-05
3.4453682e-05
3.9957534e-05
4.6641382e-05
5.4780282e-05
6.5280589e-05
7.7542032e-05
9.2570368e-05
0.00011101886
0.00013372001
0.00016170478
0.0001981119
0.00024113744
0.00029443622
0.00036058855
0.00044284476
0.00054530885
0.00067318359
0.00083302558
0.0010175287
0.0010169368
0.0010162321
0.0010153844
0.0010144083
0.0010133359
0.0010122122
0.0010110986
0.0010100693
0.0010091802
0.0010084551
0.0010079065
0.0010075789
0.0010073887
0.0010072533
0.0010070338
0.0010064657
0.0010053101
0.0010036873
0.0010023175
0.0010007492
1.5492835e-07
8.025969e-06
6.7392925e-06
7.3410981e-06
5.0961529e-06
5.8466151e-06
5.210969e-06
5.8059379e-06
6.5799466e-06
6.1627232e-06
6.1228932e-06
5.7884928e-06
5.6279208e-06
5.5081623e-06
5.446366e-06
5.4264389e-06
5.4440979e-06
5.4968923e-06
5.581882e-06
5.6995391e-06
5.8492384e-06
6.0329037e-06
6.2272457e-06
6.4806258e-06
6.7778115e-06
7.1230223e-06
7.523348e-06
7.9863964e-06
8.5208513e-06
9.1387823e-06
9.8546534e-06
1.0686874e-05
1.1657725e-05
1.2791803e-05
1.4122578e-05
1.5690616e-05
1.7547095e-05
1.975539e-05
2.2395144e-05
2.5564134e-05
2.9382685e-05
3.4001292e-05
3.9610242e-05
4.6433633e-05
5.4756087e-05
6.4933968e-05
7.7413333e-05
9.2738877e-05
0.00011257077
0.00013594703
0.00016479114
0.00020044381
0.0002469193
0.00030199962
0.00037038667
0.00045544016
0.00056138584
0.00069356962
0.00085872809
0.0010173021
0.0010166745
0.0010159319
0.0010150557
0.0010140572
0.0010129682
0.0010118331
0.0010107056
0.001009649
0.0010087139
0.0010079307
0.0010073931
0.0010070823
0.0010069298
0.0010068428
0.001006679
0.0010061682
0.0010050655
0.0010035058
0.0010022901
0.0010007934
1.4423573e-07
7.9548113e-06
5.4010274e-06
6.4077778e-06
4.537556e-06
5.1641009e-06
4.8370981e-06
5.1638764e-06
5.7541248e-06
5.2624183e-06
5.1743898e-06
4.929788e-06
4.8077609e-06
4.7278768e-06
4.6956434e-06
4.7000763e-06
4.7374702e-06
4.8063488e-06
4.9046817e-06
5.0146639e-06
5.1679134e-06
5.354978e-06
5.5781438e-06
5.8404047e-06
6.1460664e-06
6.499737e-06
6.9084428e-06
7.3804271e-06
7.9246107e-06
8.5532409e-06
9.2809249e-06
1.0126324e-05
1.1062155e-05
1.2204008e-05
1.3544969e-05
1.5126414e-05
1.7000944e-05
1.923342e-05
2.1905899e-05
2.5119844e-05
2.8999784e-05
3.3956594e-05
3.9722631e-05
4.6748538e-05
5.5329561e-05
6.58335e-05
7.8728895e-05
9.4586096e-05
0.00011411101
0.00013945736
0.00016938992
0.00020641042
0.00025225987
0.00031209307
0.00038318902
0.00047160373
0.00058170381
0.00071898976
0.00089039306
0.0010170763
0.0010164138
0.0010156382
0.0010147385
0.0010137203
0.0010126121
0.0010114571
0.001010302
0.0010092026
0.0010082154
0.0010074226
0.0010069125
0.001006645
0.001006541
0.0010064929
0.0010063558
0.0010058746
0.0010048172
0.001003322
0.0010022257
0.0010008471
1.3469582e-07
7.8306135e-06
4.3782659e-06
5.5765919e-06
4.0376475e-06
4.5555516e-06
4.5086695e-06
4.4665934e-06
4.9213104e-06
4.4586341e-06
4.3514942e-06
4.1807266e-06
4.095381e-06
4.0499372e-06
4.0445578e-06
4.0714909e-06
4.1277419e-06
4.1960436e-06
4.3028154e-06
4.4397241e-06
4.607649e-06
4.8081437e-06
5.0441875e-06
5.3189888e-06
5.6374238e-06
6.0043727e-06
6.4269386e-06
6.8931369e-06
7.4477961e-06
8.0876818e-06
8.8274631e-06
9.6858431e-06
1.0685723e-05
1.1855912e-05
1.3230865e-05
1.4853355e-05
1.6778403e-05
1.9073377e-05
2.1823682e-05
2.5136023e-05
2.9140809e-05
3.4002979e-05
3.9923168e-05
4.7149973e-05
5.5991737e-05
6.7391535e-05
8.0808675e-05
9.7321871e-05
0.00011767252
0.00014278496
0.00017544434
0.00021409605
0.00026197864
0.00032136139
0.000398876
0.00049118638
0.00060607625
0.00074921123
0.00092772165
0.0010168487
0.0010161525
0.0010153474
0.0010144273
0.0010133915
0.001012262
0.0010110789
0.0010098844
0.0010087336
0.0010077036
0.0010069522
0.0010064889
0.0010062785
0.0010062132
0.0010061785
0.0010060294
0.0010055481
0.0010045508
0.0010031462
0.001002122
0.0010008657
1.2622623e-07
7.5169475e-06
3.667059e-06
4.8381436e-06
3.5920336e-06
4.0157122e-06
3.9962499e-06
3.8354377e-06
4.1192166e-06
3.7474214e-06
3.6456873e-06
3.533714e-06
3.4827679e-06
3.4676994e-06
3.4868768e-06
3.5219468e-06
3.5902482e-06
3.6876076e-06
3.8132555e-06
3.9674682e-06
4.1517593e-06
4.3682088e-06
4.6202216e-06
4.9112991e-06
5.2348763e-06
5.6158786e-06
6.0529901e-06
6.5544476e-06
7.1306072e-06
7.7938208e-06
8.5591511e-06
9.4460704e-06
1.0478434e-05
1.168617e-05
1.3106118e-05
1.4782668e-05
1.6773818e-05
1.9150172e-05
2.2000743e-05
2.5438655e-05
2.9599712e-05
3.4657329e-05
4.0825302e-05
4.8363675e-05
5.7598356e-05
6.8932218e-05
8.3600708e-05
0.0001008904
0.00012220671
0.0001485284
0.00018104969
0.00022338646
0.00027358936
0.00033584277
0.00041310469
0.00051390873
0.00063415024
0.00078379166
0.00097015408
0.0010166175
0.001015888
0.0010150556
0.0010141164
0.0010130648
0.0010119124
0.0010106959
0.0010094586
0.0010082569
0.0010072488
0.0010065422
0.0010061309
0.0010059669
0.0010059127
0.0010058577
0.0010056637
0.0010051727
0.0010042513
0.0010029791
0.0010020094
0.0010008286
1.1890157e-07
7.1059753e-06
3.2198224e-06
4.1829093e-06
3.1949193e-06
3.3878417e-06
3.5421913e-06
3.2571066e-06
3.3941494e-06
3.1292587e-06
3.048e-06
2.9824208e-06
2.9627107e-06
2.9747416e-06
3.0014917e-06
3.0650529e-06
3.1564626e-06
3.2745637e-06
3.4195004e-06
3.5922838e-06
3.7949742e-06
4.0299374e-06
4.2927447e-06
4.6007174e-06
4.9531376e-06
5.355782e-06
5.8155986e-06
6.341119e-06
6.9429143e-06
7.6341152e-06
8.43027e-06
9.351684e-06
1.0423302e-05
1.167656e-05
1.3094302e-05
1.4821744e-05
1.6875218e-05
1.9329039e-05
2.2410037e-05
2.5998311e-05
3.0346221e-05
3.5635512e-05
4.2094111e-05
4.9995984e-05
5.9683525e-05
7.1583387e-05
8.6223049e-05
0.0001042553
0.00012761889
0.00015529809
0.00018950096
0.00023180622
0.00028687223
0.0003522832
0.00043341196
0.00053932624
0.00066536243
0.00082202403
0.0010168097
0.001016379
0.0010156169
0.0010147586
0.0010138007
0.0010127351
0.0010115623
0.0010103119
0.0010090418
0.0010078141
0.0010068627
0.0010061978
0.0010058227
0.0010056697
0.0010055933
0.0010054892
0.0010052348
0.001004736
0.001003916
0.001002834
0.0010019406
0.0010007733
1.129878e-07
6.188442e-06
2.8372365e-06
3.5877374e-06
2.8502536e-06
2.8089204e-06
3.0903933e-06
2.7335536e-06
2.7719227e-06
2.6010784e-06
2.5471809e-06
2.5191401e-06
2.5200959e-06
2.5496082e-06
2.6104267e-06
2.6985203e-06
2.8120497e-06
2.9508828e-06
3.1159181e-06
3.3086107e-06
3.5262973e-06
3.7799914e-06
4.0698771e-06
4.4000744e-06
4.7755055e-06
5.2021409e-06
5.6872427e-06
6.2396705e-06
6.8703262e-06
7.5762546e-06
8.4017414e-06
9.3554979e-06
1.0463487e-05
1.1758279e-05
1.3280668e-05
1.5081747e-05
1.7224831e-05
1.9789355e-05
2.2874157e-05
2.660175e-05
3.1124781e-05
3.6895655e-05
4.3681702e-05
5.1992286e-05
6.2186844e-05
7.4714725e-05
9.013233e-05
0.00010912955
0.00013377762
0.0001629345
0.00019895896
0.00024349985
0.00030151274
0.00037028936
0.0004555224
0.00056121786
0.00069891395
0.0008629018
0.001016849
0.0010161278
0.0010153354
0.0010144527
0.0010134759
0.0010123991
0.0010112151
0.001009938
0.0010086408
0.0010074507
0.0010065441
0.0010059068
0.0010055306
0.0010053438
0.001005217
0.0010050497
0.0010047415
0.0010042481
0.0010035471
0.0010026929
0.0010019222
0.0010007355
1.0808375e-07
4.3032295e-06
2.491289e-06
3.0357484e-06
2.4188524e-06
2.3237511e-06
2.6174324e-06
2.2678554e-06
2.2543473e-06
2.1562778e-06
2.1326497e-06
2.129842e-06
2.1585535e-06
2.218151e-06
2.3046305e-06
2.4157037e-06
2.5507487e-06
2.7103182e-06
2.8931154e-06
3.1052052e-06
3.3476609e-06
3.6233827e-06
3.9358951e-06
4.2894792e-06
4.689295e-06
5.1415598e-06
5.6538205e-06
6.2259303e-06
6.8842872e-06
7.6364721e-06
8.4999861e-06
9.4965879e-06
1.0653724e-05
1.2005905e-05
1.3596451e-05
1.5479451e-05
1.7722271e-05
2.0408912e-05
2.3644145e-05
2.7558343e-05
3.2313567e-05
3.8110369e-05
4.5533783e-05
5.4288184e-05
6.5031845e-05
7.823748e-05
9.4490288e-05
0.00011451624
0.00013921592
0.00017122851
0.00020916528
0.00025604306
0.00031400829
0.00038934419
0.00047878515
0.00058955244
0.00073377184
0.00090512072
0.0010166012
0.0010158583
0.0010150401
0.0010141353
0.00101314
0.0010120527
0.0010108683
0.0010095867
0.0010082673
0.0010071511
0.0010062736
0.0010056372
0.0010052204
0.0010049663
0.0010047724
0.0010045456
0.0010042087
0.0010037325
0.0010031357
0.0010025127
0.0010019157
0.0010007673
1.0284013e-07
3.5491747e-06
2.1301412e-06
2.5285065e-06
2.0658424e-06
1.9184557e-06
2.1323975e-06
1.8598087e-06
1.8336082e-06
1.7906322e-06
1.7931487e-06
1.8210527e-06
1.8811538e-06
1.9672086e-06
2.0768871e-06
2.209352e-06
2.3648856e-06
2.5427005e-06
2.7475925e-06
2.9807285e-06
3.2446846e-06
3.5425776e-06
3.8781314e-06
4.2557897e-06
4.6808868e-06
5.1598605e-06
5.6942122e-06
6.3034064e-06
6.99498e-06
7.7835736e-06
8.6876118e-06
9.7301143e-06
1.094006e-05
1.2353918e-05
1.4017645e-05
1.5988864e-05
1.833925e-05
2.1157808e-05
2.4555477e-05
2.8669714e-05
3.367159e-05
4.0060922e-05
4.7586677e-05
5.680791e-05
6.8127361e-05
8.2040951e-05
9.9162166e-05
0.00012025073
0.00014760227
0.00017992247
0.00021979915
0.00026903274
0.00032984949
0.00040881494
0.00050241545
0.00061816131
0.00076869186
0.00094714163
0.0010163337
0.0010155702
0.0010147294
0.0010138059
0.0010127939
0.0010116939
0.0010105094
0.0010092466
0.001007951
0.0010068879
0.0010060239
0.0010053619
0.0010048831
0.0010045454
0.0010042795
0.0010040094
0.0010036695
0.0010032226
0.0010027021
0.0010022416
0.0010018363
0.0010008945
9.8987545e-08
2.8341981e-06
1.818091e-06
2.0213633e-06
1.7735881e-06
1.5716396e-06
1.6850138e-06
1.5141605e-06
1.5024012e-06
1.5029263e-06
1.5320362e-06
1.5927478e-06
1.6792048e-06
1.7879559e-06
1.9181232e-06
2.0699567e-06
2.2434411e-06
2.4417272e-06
2.6664259e-06
2.9198999e-06
3.2049692e-06
3.524929e-06
3.883638e-06
4.2856603e-06
4.7364652e-06
5.2391031e-06
5.8069903e-06
6.4477329e-06
7.1735453e-06
7.9997579e-06
8.9458341e-06
1.0036112e-05
1.1301252e-05
1.2779786e-05
1.452022e-05
1.6583621e-05
1.9046429e-05
2.2002654e-05
2.5569874e-05
2.9893119e-05
3.5383649e-05
4.1853595e-05
4.9766181e-05
5.9463804e-05
7.1367327e-05
8.599643e-05
0.0001039919
0.00012614618
0.0001548207
0.00018871036
0.00023048622
0.00028200756
0.00034557348
0.0004279629
0.00052550053
0.00064591746
0.00080225861
0.00098721953
0.0010160503
0.0010152654
0.0010144046
0.0010134654
0.00101244
0.0010113275
0.0010101349
0.0010088853
0.0010076551
0.0010066304
0.0010057712
0.0010050756
0.001004531
0.0010041131
0.001003783
0.0010034864
0.0010031598
0.0010027533
0.0010022886
0.0010019092
0.0010016263
0.0010010887
9.672091e-08
2.2095876e-06
1.5466655e-06
1.539287e-06
1.5041632e-06
1.2752756e-06
1.3210248e-06
1.2382117e-06
1.2537511e-06
1.2850595e-06
1.3473196e-06
1.433819e-06
1.5415714e-06
1.6692732e-06
1.8172082e-06
1.9864136e-06
2.1777731e-06
2.3942954e-06
2.6378421e-06
2.9109961e-06
3.2167201e-06
3.5584261e-06
3.9400734e-06
4.3663222e-06
4.8427449e-06
5.3761146e-06
5.9747799e-06
6.6491175e-06
7.4035901e-06
8.2677934e-06
9.2563968e-06
1.0395128e-05
1.1716432e-05
1.3261066e-05
1.5080096e-05
1.7307619e-05
1.9903796e-05
2.3022474e-05
2.6788333e-05
3.1355351e-05
3.6913389e-05
4.369619e-05
5.1992804e-05
6.21594e-05
7.4635041e-05
8.9961275e-05
0.00010880476
0.00013313992
0.00016188141
0.00019725602
0.0002408119
0.00029445769
0.00036396036
0.00044599159
0.0005470612
0.0006716193
0.00083297082
0.0010165293
0.0010157573
0.00101495
0.0010140703
0.0010131161
0.0010120797
0.0010109582
0.001009757
0.0010085082
0.0010073479
0.001006356
0.0010055035
0.0010047831
0.0010041883
0.0010037104
0.0010033312
0.0010030132
0.0010026985
0.0010023343
0.0010019343
0.0010016276
0.0010014226
0.0010011613
9.6830033e-08
1.677392e-06
1.3175965e-06
1.1704352e-06
1.2330635e-06
1.0272532e-06
1.0538157e-06
1.0341109e-06
1.0778912e-06
1.1385576e-06
1.2247755e-06
1.330777e-06
1.4555124e-06
1.5991442e-06
1.7627502e-06
1.9478515e-06
2.1559978e-06
2.3897886e-06
2.6514276e-06
2.9436072e-06
3.2693739e-06
3.6322154e-06
4.0361734e-06
4.4860047e-06
4.9874031e-06
5.5473012e-06
6.1742725e-06
6.8790369e-06
7.6750891e-06
8.5794965e-06
9.6138387e-06
1.0805456e-05
1.2188814e-05
1.3807271e-05
1.5715133e-05
1.7980177e-05
2.0686774e-05
2.3939929e-05
2.7869612e-05
3.2636732e-05
3.8440027e-05
4.5523932e-05
5.4187281e-05
6.4800035e-05
7.7816231e-05
9.4571224e-05
0.00011434769
0.00013864365
0.00016850474
0.00020521739
0.0002503615
0.00030875055
0.00037753211
0.00046211161
0.00056613616
0.00070083244
0.00085936395
0.0010162533
0.0010154629
0.0010146329
0.0010137346
0.0010127647
0.0010117155
0.0010105834
0.0010093739
0.0010081263
0.0010070181
0.0010060567
0.0010052205
0.0010044962
0.0010038779
0.0010033642
0.0010029489
0.001002606
0.001002287
0.0010019485
0.0010016103
0.0010013788
0.0010012076
0.0010008503
1.0011732e-07
1.2429992e-06
1.1277978e-06
9.0070558e-07
1.0752428e-06
8.2277759e-07
8.7032539e-07
8.9557187e-07
9.6203775e-07
1.045741e-06
1.1493187e-06
1.2703249e-06
1.4091507e-06
1.5668037e-06
1.7447705e-06
1.9447887e-06
2.1688317e-06
2.4189542e-06
2.6978194e-06
3.008096e-06
3.3528916e-06
3.735763e-06
4.1608351e-06
4.6329687e-06
5.1579913e-06
5.7430091e-06
6.3968288e-06
7.1305318e-06
7.9581105e-06
8.8973372e-06
9.9707033e-06
1.120677e-05
1.2641568e-05
1.4320435e-05
1.6300144e-05
1.8651541e-05
2.1462679e-05
2.4842676e-05
2.892641e-05
3.3880288e-05
4.0181795e-05
4.7598262e-05
5.6662277e-05
6.7756884e-05
8.1351555e-05
9.8022559e-05
0.00011847728
0.0001435835
0.00017440213
0.00021422316
0.00026102745
0.00031847296
0.00038898386
0.00047553568
0.00058745429
0.00071882214
0.00088003026
0.001015989
0.0010151782
0.0010143263
0.001013409
0.0010124223
0.001011359
0.0010102148
0.0010089956
0.0010077471
0.0010066748
0.0010057393
0.0010049254
0.0010042145
0.0010035963
0.0010030677
0.001002627
0.0010022578
0.001001924
0.0010015904
0.0010012681
0.0010010392
0.001000901
0.001000724
1.0668692e-07
9.5824309e-07
9.6223001e-07
7.622209e-07
7.6590622e-07
7.0171454e-07
7.4746849e-07
8.0781528e-07
8.9148612e-07
9.9128504e-07
1.1079364e-06
1.2413556e-06
1.3926164e-06
1.5630489e-06
1.7542616e-06
1.9680485e-06
2.2064136e-06
2.4715882e-06
2.7660704e-06
3.0926703e-06
3.4545758e-06
3.8554418e-06
4.2995155e-06
4.7918141e-06
5.3383717e-06
5.9444512e-06
6.6222317e-06
7.3818004e-06
8.2450099e-06
9.2187925e-06
1.0331644e-05
1.1613454e-05
1.3101886e-05
1.484425e-05
1.6899722e-05
1.9341999e-05
2.2262546e-05
2.5774538e-05
3.001764e-05
3.5163898e-05
4.1424921e-05
4.9060678e-05
5.8390067e-05
6.9802213e-05
8.377581e-05
0.00010089638
0.00012296571
0.00014888977
0.00018066122
0.00021960157
0.00026732599
0.00032581244
0.00039748022
0.00048990169
0.00059824766
0.00073093082
0.00089343609
0.0010157518
0.0010149199
0.0010140463
0.0010131097
0.0010121063
0.0010110288
0.0010098733
0.0010086459
0.0010073957
0.0010063423
0.0010054218
0.0010046242
0.0010039288
0.0010033209
0.0010027925
0.0010023398
0.0010019527
0.0010016081
0.0010012862
0.001001009
0.0010008321
0.0010007134
0.0010004257
1.2121143e-07
9.6409069e-07
8.0267208e-07
5.6487045e-07
6.0854976e-07
6.116639e-07
6.7555822e-07
7.5465736e-07
8.5180972e-07
9.6376808e-07
1.0915377e-06
1.2359509e-06
1.3983107e-06
1.5800395e-06
1.782769e-06
2.0083156e-06
2.2587093e-06
2.53622e-06
2.8433934e-06
3.1830965e-06
3.5585781e-06
3.9735563e-06
4.4323426e-06
4.9400193e-06
5.5026927e-06
6.1278394e-06
6.8247662e-06
7.6052004e-06
8.4840379e-06
9.4802367e-06
1.0617889e-05
1.1927567e-05
1.3447833e-05
1.5227128e-05
1.7325989e-05
1.9819745e-05
2.2801772e-05
2.6387426e-05
3.0718821e-05
3.5970654e-05
4.2357408e-05
5.0501403e-05
6.0080434e-05
7.1786443e-05
8.6105116e-05
0.00010362897
0.00012508232
0.0001513497
0.00018351082
0.00022288143
0.0002710708
0.00033308842
0.00040575116
0.00049459749
0.00060321597
0.00073599756
0.00089833327
0.0010155584
0.0010147065
0.0010138129
0.0010128581
0.001011839
0.0010107492
0.0010095848
0.0010083518
0.0010071014
0.0010060504
0.0010051296
0.001004333
0.0010036418
0.0010030419
0.0010025216
0.0010020725
0.0010016845
0.0010013431
0.0010010374
0.0010007806
0.0010006033
0.0010004814
0.0010002785
1.11141e-07
6.2131973e-07
6.3612706e-07
4.677799e-07
5.105954e-07
5.5658194e-07
6.3553698e-07
7.2825859e-07
8.3608692e-07
9.5835962e-07
1.0961618e-06
1.2505538e-06
1.4228627e-06
1.6145635e-06
1.8273192e-06
2.0629906e-06
2.3236603e-06
2.6116258e-06
2.9295411e-06
3.2803188e-06
3.6672725e-06
4.0941852e-06
4.5654332e-06
5.0861655e-06
5.6625599e-06
6.3021755e-06
7.0144206e-06
7.8111588e-06
8.714594e-06
9.7329188e-06
1.0895543e-05
1.2233727e-05
1.3786834e-05
1.5604257e-05
1.7747634e-05
2.0293587e-05
2.333698e-05
2.6994897e-05
3.1411462e-05
3.676369e-05
4.3268567e-05
5.1191566e-05
6.085693e-05
7.266196e-05
8.7091191e-05
0.0001047363
0.00012631909
0.00015405964
0.00018658473
0.00022634135
0.00027492744
0.00033428545
0.0004067798
0.00049528805
0.00060331629
0.00073515173
0.000896059
0.0010154198
0.0010145528
0.0010136445
0.0010126758
0.0010116445
0.0010105451
0.0010093746
0.001008139
0.0010068872
0.0010058267
0.0010048941
0.0010040846
0.0010033839
0.0010027812
0.0010022653