/*--------------------------------*- C++ -*----------------------------------*\
  =========                 |
  \\      /  F ield         | OpenFOAM: The Open Source CFD Toolbox
   \\    /   O peration     | Website:  https://openfoam.org
    \\  /    A nd           | Version:  12
     \\/     M anipulation  |
\*---------------------------------------------------------------------------*/
FoamFile
{
    format      ascii;
    class       volScalarField;
    location    "0.051";
    object      rho;
}
// * * * * * * * * * * * * * * * * * * * * * * * * * * * * * * * * * * * * * //

dimensions      [1 -3 0 0 0 0 0];

internalField   nonuniform List<scalar> 
16000
(
1.0605781
1.0929681
1.0809948
1.0891204
1.085328
1.0887244
1.0877541
1.089552
1.0897025
1.0908971
1.0915433
1.0925479
1.0934181
1.0944062
1.0953939
1.0964335
1.0975053
1.0986169
1.0997666
1.1009552
1.1021827
1.1034492
1.1047544
1.106098
1.1074792
1.1088973
1.110351
1.1118389
1.1133595
1.1149106
1.1164902
1.1180955
1.1197239
1.1213723
1.1230373
1.1247155
1.126403
1.128096
1.1297904
1.1314821
1.133167
1.1348409
1.1364998
1.1381396
1.1397565
1.141347
1.1429075
1.1444352
1.1459271
1.1473811
1.148795
1.1501675
1.1514973
1.1527839
1.154027
1.1552269
1.1563842
1.1575
1.1585755
1.1596123
1.160612
1.161576
1.1625057
1.1634016
1.164263
1.1650878
1.1658715
1.1666068
1.1672828
1.1678846
1.168392
1.1687786
1.1690123
1.1690629
1.1689164
1.1685754
1.1681666
1.1681713
1.1671285
1.1690804
1.0573431
1.0902391
1.0776398
1.0863329
1.082314
1.0859775
1.0849077
1.0868758
1.0870192
1.0883158
1.0890129
1.0900923
1.0910358
1.0920977
1.0931653
1.0942851
1.0954412
1.0966393
1.0978784
1.099159
1.1004809
1.1018439
1.1032476
1.1046912
1.1061738
1.107694
1.1092505
1.1108413
1.1124642
1.114117
1.1157967
1.1175003
1.1192246
1.1209658
1.1227202
1.1244837
1.126252
1.1280208
1.1297857
1.1315422
1.1332859
1.1350125
1.1367177
1.1383976
1.1400484
1.1416667
1.1432493
1.1447935
1.1462969
1.1477578
1.1491745
1.1505462
1.1518723
1.1531528
1.1543878
1.1555782
1.1567251
1.1578299
1.1588941
1.1599196
1.1609081
1.161861
1.1627798
1.163665
1.164516
1.1653308
1.166105
1.1668316
1.1674999
1.1680949
1.1685963
1.168977
1.1692047
1.1692498
1.1690962
1.1687567
1.1684054
1.1683159
1.167452
1.1693084
1.0544088
1.0877511
1.074731
1.0837704
1.079609
1.0834725
1.0823752
1.0844614
1.0846461
1.086025
1.0867953
1.0879507
1.0889792
1.0901233
1.0912805
1.0924909
1.0937416
1.0950367
1.0963755
1.097758
1.0991838
1.1006525
1.1021632
1.1037147
1.1053059
1.1069348
1.1085997
1.110298
1.1120273
1.1137843
1.1155659
1.1173684
1.1191877
1.1210198
1.1228602
1.1247042
1.1265472
1.1283842
1.1302107
1.1320217
1.1338127
1.1355792
1.137317
1.1390223
1.1406915
1.1423215
1.1439096
1.1454535
1.1469514
1.1484022
1.1498048
1.1511592
1.1524652
1.1537236
1.1549352
1.1561014
1.1572237
1.158304
1.1593442
1.1603463
1.1613122
1.1622435
1.1631417
1.1640072
1.1648395
1.1656366
1.1663942
1.1671051
1.1677588
1.1683401
1.1688285
1.1691967
1.1694126
1.1694479
1.1692876
1.1689601
1.168653
1.1685228
1.1678099
1.1696121
1.0517851
1.0854984
1.072096
1.0814552
1.0771587
1.081254
1.0801365
1.0823597
1.0825948
1.0840697
1.0849272
1.0861705
1.0872985
1.0885379
1.0897982
1.091112
1.0924696
1.0938736
1.0953232
1.0968184
1.0983583
1.0999422
1.101569
1.1032371
1.1049447
1.1066897
1.1084694
1.110281
1.1121212
1.1139862
1.115872
1.1177742
1.1196882
1.1216091
1.1235317
1.125451
1.1273615
1.1292582
1.1311358
1.1329894
1.1348143
1.1366061
1.1383606
1.1400744
1.1417443
1.1433677
1.1449424
1.1464669
1.14794
1.1493614
1.1507309
1.152049
1.1533166
1.154535
1.1557057
1.1568308
1.1579122
1.1589522
1.1599532
1.1609175
1.161847
1.1627437
1.163609
1.1644435
1.1652467
1.1660168
1.1667494
1.1674375
1.1680703
1.1686326
1.1691035
1.1694558
1.1696577
1.1696823
1.1695177
1.1692069
1.1689423
1.1687946
1.1681763
1.1699894
1.0495169
1.083613
1.0698142
1.0794665
1.0750172
1.0793915
1.0782674
1.0806336
1.0809391
1.0825176
1.0834809
1.0848217
1.0860622
1.0874075
1.0887809
1.0902079
1.0916814
1.0932033
1.0947729
1.0963895
1.0980525
1.0997605
1.1015119
1.1033047
1.1051366
1.1070045
1.1089053
1.1108351
1.1127899
1.114765
1.1167556
1.1187565
1.1207621
1.1227668
1.1247649
1.1267505
1.1287178
1.1306614
1.1325758
1.134456
1.1362974
1.1380957
1.1398474
1.1415493
1.143199
1.1447945
1.1463345
1.1478183
1.1492457
1.1506172
1.1519335
1.1531961
1.1544067
1.1555672
1.15668
1.1577477
1.1587728
1.1597581
1.1607063
1.1616198
1.1625009
1.1633517
1.1641736
1.1649673
1.1657326
1.1664676
1.1671679
1.1678264
1.1684324
1.1689703
1.169419
1.1697511
1.1699361
1.1699487
1.1697811
1.1694909
1.1692699
1.169115
1.1685839
1.1704248
1.0476502
1.0821154
1.0679685
1.0779308
1.07339
1.077958
1.076825
1.0793578
1.0797474
1.0814359
1.0825165
1.0839576
1.0853172
1.0867745
1.0882679
1.0898162
1.0914149
1.0930647
1.0947648
1.0965142
1.0983114
1.1001546
1.1020415
1.1039692
1.1059344
1.1079333
1.1099617
1.1120147
1.1140872
1.1161737
1.118268
1.1203642
1.1224558
1.1245363
1.1265994
1.1286387
1.130648
1.1326217
1.1345543
1.1364409
1.1382773
1.1400598
1.1417853
1.1434517
1.1450572
1.146601
1.1480827
1.1495028
1.1508621
1.1521621
1.1534046
1.1545919
1.1557266
1.1568116
1.1578498
1.1588444
1.1597985
1.1607152
1.1615975
1.1624481
1.1632696
1.1640639
1.1648326
1.1655766
1.1662957
1.1669879
1.167649
1.1682719
1.1688455
1.1693542
1.1697766
1.1700853
1.1702511
1.1702511
1.1700823
1.1698163
1.1696352
1.1694727
1.1690352
1.1709052
1.0461795
1.0810082
1.0665476
1.0768504
1.0722149
1.0769811
1.0758924
1.0785621
1.0790529
1.0808237
1.0820285
1.0835741
1.085063
1.0866451
1.0882724
1.0899578
1.0916978
1.093492
1.095339
1.0972371
1.099184
1.101177
1.1032126
1.105287
1.1073958
1.109534
1.1116961
1.1138761
1.1160675
1.1182637
1.1204575
1.1226418
1.1248093
1.1269528
1.1290655
1.1311404
1.1331715
1.1351531
1.1370799
1.1389478
1.140753
1.1424927
1.1441651
1.1457688
1.1473034
1.1487694
1.1501676
1.1514996
1.1527676
1.1539741
1.1551221
1.1562148
1.1572556
1.1582481
1.1591961
1.1601031
1.1609727
1.1618084
1.1626133
1.1633905
1.1641424
1.1648711
1.1655784
1.166265
1.1669307
1.1675736
1.1681895
1.1687713
1.1693077
1.1697829
1.1701752
1.1704578
1.1706027
1.1705897
1.1704221
1.1701847
1.1700389
1.1698636
1.169528
1.1714153
1.0450475
1.0802378
1.0654881
1.0761756
1.0714405
1.0764295
1.0753755
1.0782367
1.0787428
1.0806289
1.0819919
1.0836684
1.085313
1.0870456
1.0888309
1.0906769
1.0925806
1.0945408
1.0965553
1.0986215
1.1007359
1.1028947
1.1050933
1.1073265
1.1095885
1.1118727
1.1141724
1.1164799
1.1187876
1.1210875
1.1233712
1.1256307
1.127858
1.1300452
1.1321853
1.1342713
1.1362974
1.1382582
1.1401495
1.1419678
1.1437107
1.1453766
1.1469649
1.1484759
1.1499107
1.151271
1.1525594
1.1537786
1.1549322
1.1560238
1.1570575
1.1580373
1.1589675
1.1598524
1.1606961
1.1615028
1.1622763
1.1630203
1.1637382
1.1644329
1.1651071
1.1657629
1.1664017
1.1670245
1.1676309
1.1682191
1.1687847
1.1693206
1.1698156
1.1702536
1.1706129
1.1708671
1.1709903
1.1709645
1.1708006
1.1705954
1.1704856
1.1702856
1.1700567
1.1719527
1.0442491
1.0797912
1.0647754
1.0759259
1.0710082
1.0761434
1.0751924
1.078063
1.0789052
1.0809324
1.0824833
1.0843151
1.0861402
1.0880493
1.0900175
1.0920488
1.0941403
1.0962896
1.0984934
1.1007476
1.1030477
1.1053882
1.1077629
1.1101649
1.1125867
1.1150201
1.1174565
1.1198868
1.1223019
1.1246923
1.127049
1.1293628
1.1316253
1.1338287
1.1359657
1.1380301
1.1400166
1.1419212
1.1437406
1.1454731
1.1471178
1.1486748
1.1501455
1.1515317
1.1528364
1.1540629
1.1552152
1.1562977
1.157315
1.1582719
1.1591734
1.1600242
1.1608294
1.1615937
1.1623217
1.1630176
1.1636857
1.1643297
1.164953
1.1655585
1.1661488
1.1667259
1.1672911
1.1678452
1.1683878
1.1689169
1.1694282
1.1699144
1.1703645
1.1707624
1.1710863
1.1713107
1.1714117
1.1713738
1.1712167
1.1710477
1.1709653
1.170736
1.170616
1.1725274
1.0438128
1.0796973
1.0644406
1.0760222
1.0709591
1.0764787
1.0755411
1.0786449
1.0796355
1.0818101
1.0835789
1.0855941
1.0876267
1.089741
1.0919196
1.0941633
1.0964683
1.0988308
1.1012459
1.1037082
1.1062109
1.1087468
1.1113076
1.1138844
1.1164675
1.1190468
1.1216118
1.1241518
1.1266562
1.1291145
1.1315167
1.1338536
1.1361165
1.138298
1.1403918
1.1423928
1.1442972
1.1461027
1.147808
1.1494135
1.1509203
1.152331
1.1536488
1.1548778
1.1560225
1.1570882
1.1580802
1.1590042
1.159866
1.1606712
1.1614255
1.1621345
1.1628033
1.1634372
1.1640407
1.1646185
1.1651746
1.1657128
1.1662364
1.1667482
1.1672505
1.1677451
1.1682334
1.1687157
1.1691913
1.1696583
1.1701123
1.1705462
1.1709488
1.1713042
1.1715911
1.1717852
1.1718642
1.1718157
1.1716689
1.1715358
1.1714655
1.1712116
1.1712048
1.173135
1.0438139
1.0800338
1.0645454
1.0762928
1.071391
1.0770831
1.0764702
1.0797149
1.0809943
1.0833431
1.0853643
1.0875969
1.0898675
1.0922186
1.0946374
1.0971221
1.0996675
1.1022678
1.1049162
1.1076047
1.1103244
1.1130653
1.1158168
1.1185673
1.1213048
1.1240171
1.1266917
1.1293165
1.1318796
1.13437
1.1367775
1.1390931
1.1413091
1.1434194
1.1454192
1.1473058
1.1490776
1.1507349
1.1522792
1.1537134
1.1550413
1.1562679
1.1573986
1.1584395
1.159397
1.1602779
1.1610888
1.1618365
1.1625274
1.163168
1.1637644
1.1643223
1.1648473
1.1653444
1.1658184
1.1662738
1.1667144
1.1671439
1.1675653
1.1679813
1.1683938
1.1688044
1.1692141
1.169623
1.1700302
1.1704335
1.1708285
1.1712083
1.1715619
1.1718736
1.1721227
1.1722867
1.1723447
1.1722878
1.1721545
1.1720538
1.1719831
1.1717079
1.1718265
1.1737595
1.044334
1.0808725
1.0651907
1.0772456
1.0724942
1.0784521
1.0780704
1.0814953
1.0830798
1.0856303
1.0879372
1.0904246
1.0929669
1.0955895
1.0982815
1.1010383
1.1038523
1.1067151
1.1096168
1.1125465
1.1154921
1.1184403
1.1213776
1.1242896
1.1271618
1.1299798
1.1327297
1.1353982
1.137973
1.1404433
1.1427998
1.1450349
1.1471431
1.1491206
1.150966
1.1526793
1.1542626
1.1557192
1.1570539
1.1582727
1.1593821
1.1603895
1.1613025
1.1621291
1.1628772
1.1635545
1.1641688
1.1647275
1.1652375
1.1657056
1.1661378
1.1665401
1.1669179
1.167276
1.167619
1.167951
1.1682758
1.1685965
1.1689159
1.1692364
1.1695595
1.1698866
1.170218
1.1705537
1.1708924
1.1712318
1.1715676
1.1718928
1.1721969
1.1724646
1.1726764
1.1728115
1.1728506
1.1727882
1.172671
1.1725981
1.1725134
1.1722204
1.1724744
1.1743803
1.045365
1.0822178
1.0663686
1.0788476
1.0742485
1.0804429
1.0803998
1.0840148
1.0859716
1.0887659
1.0913992
1.0941873
1.0970425
1.099977
1.1029796
1.1060419
1.109153
1.1123004
1.1154706
1.1186486
1.1218183
1.1249631
1.128066
1.1311099
1.1340781
1.1369545
1.1397244
1.1423745
1.1448935
1.1472723
1.149504
1.1515842
1.1535112
1.1552851
1.1569087
1.1583861
1.1597234
1.1609277
1.1620073
1.1629708
1.1638277
1.1645872
1.1652588
1.1658517
1.1663748
1.1668368
1.1672457
1.167609
1.1679339
1.1682269
1.1684941
1.1687409
1.1689723
1.169193
1.1694071
1.1696183
1.1698298
1.1700445
1.1702647
1.1704923
1.1707286
1.1709744
1.1712297
1.171494
1.1717658
1.1720426
1.1723201
1.1725916
1.172847
1.1730717
1.173248
1.1733567
1.1733798
1.1733156
1.1732171
1.1731655
1.1730536
1.172749
1.173142
1.1749821
1.0469592
1.0841208
1.0681402
1.0810619
1.0767392
1.0831816
1.083562
1.0873933
1.0897826
1.0928756
1.0958829
1.0990255
1.102242
1.1055336
1.108886
1.1122858
1.1157173
1.1191631
1.1226048
1.1260226
1.1293965
1.132706
1.1359309
1.1390518
1.1420505
1.144911
1.1476192
1.150164
1.1525372
1.1547336
1.1567511
1.1585905
1.1602551
1.1617507
1.1630846
1.1642659
1.1653047
1.1662118
1.1669984
1.1676758
1.1682551
1.1687474
1.169163
1.1695118
1.1698032
1.1700458
1.1702476
1.1704161
1.1705578
1.1706789
1.1707849
1.1708808
1.170971
1.1710596
1.1711502
1.1712459
1.1713494
1.1714632
1.1715891
1.1717286
1.1718825
1.1720511
1.172234
1.1724302
1.1726382
1.1728551
1.1730768
1.1732968
1.1735056
1.17369
1.1738338
1.1739196
1.1739307
1.1738693
1.1737905
1.1737507
1.1736055
1.1732995
1.1738199
1.1755693
1.0491778
1.0866404
1.0706152
1.0840248
1.080058
1.0867632
1.0876719
1.091761
1.0946539
1.0981193
1.1015608
1.1051203
1.1087514
1.1124448
1.1161813
1.119941
1.1237023
1.1274421
1.1311362
1.1347601
1.1382889
1.1416991
1.1449682
1.1480761
1.1510058
1.1537436
1.1562794
1.1586074
1.1607253
1.1626347
1.1643402
1.1658493
1.1671716
1.1683186
1.169303
1.1701379
1.1708372
1.1714143
1.1718828
1.1722555
1.1725446
1.1727617
1.1729173
1.1730215
1.1730831
1.1731104
1.1731109
1.1730913
1.1730574
1.1730148
1.1729682
1.1729218
1.1728794
1.1728443
1.1728195
1.1728076
1.1728108
1.1728308
1.1728692
1.1729268
1.1730042
1.173101
1.1732165
1.1733494
1.1734977
1.1736587
1.1738285
1.1740008
1.1741667
1.1743146
1.1744304
1.1744978
1.1745018
1.174448
1.1743877
1.1743484
1.174171
1.1738782
1.1744928
1.1761361
1.0520788
1.0898088
1.0739191
1.0878057
1.0843312
1.0913239
1.0928929
1.0973138
1.1007926
1.1047191
1.1086615
1.1126994
1.1167923
1.1209212
1.1250599
1.1291812
1.1332561
1.1372544
1.141146
1.1449011
1.1484919
1.1518933
1.155084
1.158047
1.1607706
1.1632478
1.1654768
1.1674601
1.1692046
1.1707202
1.1720197
1.1731177
1.17403
1.1747733
1.1753643
1.1758196
1.1761551
1.1763861
1.1765269
1.1765908
1.1765901
1.176536
1.1764384
1.1763067
1.1761489
1.1759724
1.1757835
1.1755881
1.1753912
1.1751972
1.17501
1.1748331
1.1746693
1.1745214
1.1743916
1.1742818
1.1741938
1.1741287
1.1740876
1.1740709
1.1740787
1.1741102
1.1741643
1.1742394
1.1743335
1.1744439
1.1745667
1.1746962
1.1748245
1.1749414
1.1750344
1.1750886
1.175091
1.1750492
1.1750051
1.1749608
1.1747593
1.1745011
1.175146
1.1766706
1.0557315
1.0936335
1.0781794
1.0925522
1.0897598
1.0971054
1.0994837
1.1043304
1.1084755
1.1129498
1.1174528
1.1220179
1.1266034
1.1311794
1.1357101
1.1401584
1.1444864
1.1486567
1.1526338
1.156386
1.1598865
1.1631145
1.1660557
1.1687025
1.1710538
1.1731142
1.1748935
1.1764053
1.1776666
1.1786962
1.1795143
1.1801418
1.1805991
1.1809063
1.1810827
1.1811462
1.1811135
1.1810001
1.1808197
1.1805851
1.1803075
1.179997
1.1796624
1.1793117
1.1789517
1.1785885
1.1782274
1.1778728
1.1775288
1.1771988
1.1768858
1.1765922
1.1763203
1.1760719
1.1758487
1.1756519
1.1754828
1.1753421
1.1752304
1.1751476
1.1750934
1.1750667
1.1750661
1.1750899
1.1751359
1.1752017
1.1752836
1.1753766
1.1754735
1.1755656
1.1756418
1.1756884
1.1756944
1.1756686
1.1756402
1.1755892
1.175364
1.1751516
1.1757923
1.1771733
1.0603214
1.0982606
1.0836239
1.09859
1.0966749
1.1044359
1.1077654
1.1131325
1.1180113
1.1231111
1.1282237
1.133346
1.1384267
1.1434211
1.14828
1.1529554
1.1574015
1.1615776
1.1654495
1.1689914
1.1721864
1.1750265
1.1775121
1.1796512
1.1814579
1.1829513
1.1841539
1.1850903
1.1857863
1.186268
1.1865608
1.1866889
1.1866754
1.1865414
1.1863064
1.185988
1.1856019
1.1851623
1.1846817
1.1841709
1.1836396
1.1830962
1.1825479
1.182001
1.181461
1.1809323
1.1804191
1.1799246
1.1794517
1.1790028
1.17858
1.1781848
1.1778188
1.1774832
1.1771788
1.1769065
1.176667
1.1764605
1.1762873
1.176147
1.1760387
1.1759612
1.1759129
1.1758921
1.1758967
1.1759245
1.1759723
1.1760355
1.1761081
1.1761823
1.1762478
1.1762917
1.1763061
1.1762992
1.1762848
1.1762249
1.1759915
1.1758044
1.1764457
1.1776468
1.0661291
1.1042721
1.0906527
1.1062576
1.1054216
1.1136367
1.118064
1.124069
1.1297508
1.1355463
1.1412958
1.1469614
1.1524747
1.1577731
1.1627963
1.167491
1.1718134
1.1757312
1.1792246
1.182286
1.1849187
1.1871361
1.1889587
1.1904133
1.1915301
1.1923415
1.1928805
1.1931799
1.193271
1.1931832
1.1929439
1.1925779
1.1921077
1.1915533
1.1909325
1.1902609
1.189552
1.1888177
1.1880683
1.1873124
1.1865576
1.1858104
1.1850761
1.1843593
1.183664
1.1829932
1.1823496
1.1817356
1.1811527
1.1806026
1.1800864
1.179605
1.1791591
1.1787493
1.178376
1.1780395
1.1777401
1.1774776
1.1772519
1.1770624
1.1769078
1.1767869
1.1766981
1.1766395
1.1766095
1.1766062
1.1766267
1.1766672
1.1767226
1.1767856
1.176846
1.1768917
1.1769174
1.1769312
1.1769319
1.1768543
1.1766174
1.1764636
1.177081
1.1780953
1.0733468
1.112183
1.0994619
1.1157731
1.116362
1.1251201
1.1308119
1.1376045
1.1441455
1.1506556
1.156986
1.1630654
1.1688097
1.1741485
1.1790249
1.1833985
1.1872466
1.190563
1.1933566
1.1956489
1.1974704
1.1988584
1.1998539
1.2004998
1.2008384
1.2009107
1.2007555
1.2004083
1.1999014
1.1992639
1.1985213
1.1976965
1.1968089
1.1958756
1.1949114
1.1939287
1.1929382
1.1919489
1.1909686
1.1900035
1.189059
1.1881395
1.1872486
1.1863893
1.185564
1.1847746
1.1840225
1.183309
1.1826348
1.1820006
1.1814069
1.1808539
1.1803416
1.1798702
1.1794396
1.1790497
1.1787003
1.1783911
1.1781215
1.1778906
1.1776973
1.1775401
1.1774175
1.177328
1.1772701
1.1772422
1.1772421
1.1772666
1.1773113
1.177369
1.1774289
1.1774796
1.177518
1.1775499
1.1775588
1.1774693
1.1772353
1.1771239
1.1777016
1.1784993
1.0820988
1.1218669
1.1106444
1.1276833
1.1301338
1.13957
1.1466491
1.1543282
1.161676
1.1687557
1.1754162
1.1815694
1.1871387
1.1920735
1.1963484
1.1999615
1.2029309
1.2052906
1.2070861
1.20837
1.209198
1.2096267
1.2097107
1.2095016
1.2090467
1.2083888
1.207566
1.2066118
1.2055552
1.2044214
1.2032319
1.2020049
1.2007561
1.1994984
1.1982427
1.1969982
1.1957722
1.1945711
1.1933998
1.1922625
1.1911624
1.190102
1.1890834
1.188108
1.1871771
1.1862913
1.1854511
1.1846569
1.1839087
1.1832064
1.1825497
1.1819385
1.1813724
1.1808509
1.1803736
1.17994
1.1795497
1.1792021
1.1788963
1.1786315
1.1784062
1.1782193
1.1780694
1.1779553
1.1778758
1.1778295
1.1778148
1.1778292
1.1778686
1.1779254
1.1779881
1.1780463
1.1780979
1.1781447
1.178158
1.1780589
1.1778369
1.1777805
1.1783187
1.1788698
1.0931203
1.1342238
1.1250953
1.1429213
1.1476764
1.1578713
1.1662691
1.1747135
1.1825511
1.1897584
1.196212
1.2018517
1.2066499
1.210613
1.2137747
1.2161891
1.2179236
1.2190525
1.2196525
1.2197983
1.2195603
1.2190032
1.2181848
1.2171561
1.2159616
1.2146394
1.2132219
1.2117368
1.210207
1.2086518
1.2070872
1.2055264
1.2039801
1.2024574
1.2009651
1.1995092
1.1980941
1.1967234
1.1953998
1.1941254
1.1929016
1.1917295
1.1906097
1.1895425
1.1885279
1.1875659
1.186656
1.1857979
1.1849909
1.1842345
1.1835279
1.1828704
1.1822612
1.1816996
1.1811849
1.1807163
1.1802931
1.1799144
1.1795794
1.179287
1.179036
1.1788254
1.1786541
1.1785211
1.1784256
1.1783665
1.1783425
1.1783516
1.1783897
1.1784487
1.1785174
1.178586
1.1786527
1.1787135
1.1787316
1.1786331
1.1784332
1.1784248
1.1789289
1.1792498
1.1079625
1.1503438
1.1440776
1.1625468
1.1699487
1.1807897
1.1900298
1.1986767
1.2062862
1.2128369
1.2182934
1.2226798
1.2260551
1.228505
1.2301298
1.2310361
1.231329
1.2311082
1.2304644
1.2294782
1.2282199
1.22675
1.2251195
1.2233712
1.2215408
1.2196577
1.2177461
1.2158255
1.2139121
1.2120186
1.2101554
1.2083306
1.2065507
1.2048207
1.2031442
1.2015242
1.1999627
1.1984609
1.1970198
1.1956396
1.1943206
1.1930624
1.1918645
1.1907264
1.1896473
1.1886262
1.1876623
1.1867545
1.1859018
1.1851032
1.1843575
1.1836637
1.1830207
1.1824275
1.1818833
1.1813869
1.1809375
1.180534
1.1801757
1.1798613
1.1795899
1.1793608
1.1791732
1.1790264
1.1789198
1.1788527
1.178824
1.1788319
1.1788722
1.1789368
1.1790151
1.1790988
1.1791849
1.1792637
1.1792942
1.1792121
1.1790459
1.1790656
1.1795121
1.1796782
1.128091
1.1715174
1.1690149
1.1875785
1.1973362
1.2082922
1.21736
1.2251322
1.2314445
1.2363633
1.2399838
1.2424425
1.2438909
1.244483
1.244365
1.24367
1.242515
1.2410004
1.239211
1.2372172
1.2350768
1.232837
1.2305358
1.2282038
1.2258655
1.2235401
1.2212429
1.2189859
1.2167783
1.2146271
1.2125376
1.2105137
1.2085581
1.2066726
1.2048583
1.2031156
1.2014447
1.199845
1.198316
1.1968569
1.1954664
1.1941436
1.1928871
1.1916955
1.1905675
1.1895017
1.1884966
1.187551
1.1866632
1.1858321
1.1850562
1.1843343
1.183665
1.1830472
1.1824797
1.1819614
1.1814913
1.1810684
1.1806915
1.1803598
1.1800726
1.1798294
1.1796297
1.1794734
1.1793599
1.1792889
1.1792596
1.1792701
1.1793164
1.1793908
1.1794838
1.1795885
1.1797002
1.1798034
1.1798551
1.1798065
1.1796858
1.1797351
1.1800993
1.1801684
1.1560917
1.1985373
1.2010122
1.2189096
1.2290408
1.2387917
1.2462945
1.2519436
1.2558657
1.2582976
1.2594731
1.2596219
1.2589504
1.257638
1.2558358
1.2536682
1.2512359
1.2486197
1.2458834
1.2430772
1.2402404
1.2374034
1.2345897
1.2318171
1.2290993
1.2264464
1.2238658
1.2213629
1.2189413
1.2166033
1.2143503
1.2121828
1.2101006
1.2081032
1.2061896
1.2043586
1.2026087
1.2009383
1.1993456
1.197829
1.1963866
1.1950164
1.1937167
1.1924857
1.1913214
1.1902222
1.1891862
1.1882119
1.1872976
1.1864416
1.1856425
1.1848988
1.184209
1.1835719
1.1829862
1.1824507
1.1819642
1.1815258
1.1811343
1.180789
1.1804896
1.1802357
1.1800275
1.1798648
1.1797478
1.1796764
1.1796499
1.1796668
1.1797229
1.1798115
1.1799247
1.1800562
1.1801994
1.1803342
1.1804169
1.1804092
1.1803597
1.1804489
1.1807428
1.1807438
1.1945524
1.2332035
1.2388784
1.2540327
1.2630509
1.2698733
1.274192
1.2765509
1.2773072
1.2768232
1.2753954
1.2732691
1.2706391
1.2676577
1.2644425
1.2610832
1.2576478
1.2541873
1.2507399
1.2473339
1.2439898
1.2407227
1.2375432
1.2344585
1.2314735
1.228591
1.2258123
1.2231379
1.2205673
1.2180993
1.2157324
1.2134646
1.211294
1.2092182
1.2072348
1.2053413
1.2035354
1.2018145
1.2001761
1.198618
1.1971376
1.1957327
1.194401
1.1931404
1.1919488
1.1908241
1.1897644
1.1887679
1.1878327
1.186957
1.1861393
1.185378
1.1846716
1.1840186
1.1834179
1.182868
1.1823679
1.1819165
1.181513
1.1811567
1.1808474
1.1805852
1.1803706
1.1802038
1.1800856
1.180016
1.1799949
1.1800207
1.18009
1.1801967
1.1803343
1.1804967
1.1806746
1.1808461
1.180974
1.1810322
1.181063
1.1811882
1.1814309
1.1813983
1.241676
1.2738947
1.280944
1.2906324
1.2954653
1.2977581
1.2978955
1.2965211
1.2940643
1.2908673
1.2871802
1.2831871
1.2790209
1.2747773
1.2705244
1.2663102
1.2621685
1.2581224
1.2541874
1.2503735
1.2466869
1.2431306
1.2397058
1.2364121
1.233248
1.2302114
1.2272995
1.2245092
1.2218373
1.2192804
1.216835
1.2144977
1.212265
1.2101336
1.2081001
1.2061613
1.2043141
1.2025555
1.2008825
1.1992924
1.1977824
1.19635
1.1949927
1.193708
1.1924937
1.1913476
1.1902677
1.1892519
1.1882984
1.1874053
1.186571
1.1857937
1.1850721
1.1844045
1.1837898
1.1832267
1.1827139
1.1822505
1.1818359
1.1814695
1.1811515
1.1808821
1.1806621
1.1804923
1.1803736
1.1803067
1.1802917
1.1803276
1.1804116
1.1805388
1.1807034
1.1808984
1.1811132
1.1813282
1.1815143
1.181652
1.1817655
1.181922
1.1821158
1.1820857
1.2952612
1.3156956
1.3201689
1.3224921
1.3216826
1.319038
1.3151655
1.3105505
1.3055109
1.300262
1.2949464
1.289658
1.2844577
1.2793843
1.2744619
1.2697043
1.2651188
1.2607078
1.2564711
1.2524061
1.2485091
1.2447756
1.2412005
1.2377786
1.2345044
1.2313726
1.228378
1.2255154
1.2227798
1.2201665
1.2176708
1.2152884
1.213015
1.2108466
1.2087793
1.2068096
1.2049338
1.2031486
1.2014509
1.1998376
1.1983059
1.1968529
1.1954761
1.1941729
1.192941
1.191778
1.190682
1.1896507
1.1886823
1.1877749
1.1869267
1.1861362
1.1854017
1.1847218
1.1840952
1.1835206
1.182997
1.1825234
1.1820993
1.1817244
1.181399
1.1811237
1.1808993
1.180727
1.180608
1.1805434
1.1805337
1.1805787
1.1806768
1.1808243
1.1810155
1.1812424
1.1814937
1.1817531
1.1820002
1.1822183
1.1824078
1.1825854
1.1827359
1.1827333
1.347667
1.3508947
1.3496467
1.345201
1.3393986
1.3328618
1.3260494
1.3192006
1.3124602
1.3059063
1.2995813
1.2935051
1.2876844
1.2821183
1.2768012
1.271725
1.2668803
1.262257
1.2578452
1.2536348
1.2496163
1.2457807
1.2421192
1.2386237
1.2352865
1.2321005
1.2290588
1.2261551
1.2233834
1.2207382
1.2182142
1.2158064
1.2135101
1.2113209
1.2092348
1.2072476
1.2053557
1.2035556
1.201844
1.2002176
1.1986735
1.1972087
1.1958207
1.1945068
1.1932646
1.1920917
1.190986
1.1899455
1.188968
1.1880518
1.1871949
1.1863959
1.1856531
1.1849651
1.1843305
1.1837481
1.1832168
1.1827358
1.1823046
1.181923
1.1815915
1.1813107
1.1810818
1.1809061
1.1807851
1.1807203
1.1807126
1.1807629
1.1808703
1.1810324
1.1812433
1.1814945
1.1817757
1.1820753
1.1823785
1.1826647
1.1829101
1.1830975
1.1832181
1.1832507
1.3814114
1.3738717
1.3663511
1.3581362
1.3496024
1.3411634
1.3329824
1.3251328
1.3176425
1.3105145
1.3037402
1.2973049
1.2911915
1.285382
1.2798588
1.2746051
1.2696049
1.2648435
1.2603071
1.2559831
1.2518598
1.2479266
1.2441734
1.2405913
1.2371717
1.2339069
1.2307897
1.2278132
1.2249714
1.2222582
1.2196684
1.2171967
1.2148385
1.2125891
1.2104444
1.2084004
1.2064533
1.2045996
1.2028358
1.2011588
1.1995655
1.1980531
1.1966189
1.1952602
1.1939747
1.19276
1.1916139
1.1905342
1.1895191
1.1885665
1.1876747
1.1868421
1.1860669
1.1853478
1.1846835
1.1840725
1.1835139
1.1830068
1.1825507
1.1821456
1.181792
1.1814905
1.1812427
1.1810501
1.1809143
1.1808372
1.1808203
1.1808649
1.1809713
1.1811373
1.181357
1.1816214
1.181921
1.1822474
1.1825886
1.1829189
1.1831969
1.1833866
1.1834912
1.1835512
1.1606958
1.1660235
1.1811549
1.1933488
1.198924
1.2001643
1.2002133
1.1998672
1.1999127
1.1996015
1.1992714
1.1987765
1.1981972
1.1975582
1.1968755
1.1961539
1.1953981
1.1946134
1.1938046
1.1929757
1.1921305
1.1912725
1.1904047
1.1895299
1.1886506
1.1877692
1.1868876
1.186008
1.185132
1.1842614
1.1833976
1.1825423
1.1816968
1.1808624
1.1800406
1.1792325
1.1784395
1.1776626
1.1769031
1.1761622
1.1754409
1.1747403
1.1740615
1.1734056
1.1727734
1.1721659
1.1715839
1.1710281
1.1704993
1.1699979
1.1695244
1.169079
1.1686617
1.1682724
1.1679107
1.1675759
1.1672672
1.1669837
1.1667242
1.1664875
1.1662728
1.1660795
1.1659084
1.1657617
1.1656434
1.1655596
1.1655199
1.165536
1.1656241
1.1657947
1.1660665
1.1664327
1.1668773
1.1673665
1.1676953
1.1681861
1.1678091
1.1682056
1.1666627
1.1665777
1.1564005
1.1680216
1.1849781
1.1936235
1.1959521
1.1958408
1.195306
1.195073
1.1947756
1.1944924
1.1941303
1.1937403
1.1933077
1.1928427
1.1923397
1.1918046
1.1912387
1.1906447
1.1900251
1.189382
1.188718
1.1880351
1.1873357
1.186622
1.1858962
1.1851604
1.1844167
1.1836672
1.1829139
1.1821589
1.1814039
1.1806508
1.1799016
1.1791579
1.1784214
1.177694
1.176977
1.1762723
1.1755812
1.1749053
1.1742459
1.1736046
1.1729826
1.1723812
1.1718015
1.1712447
1.1707118
1.1702036
1.169721
1.1692647
1.168835
1.1684324
1.168057
1.1677087
1.1673871
1.1670918
1.1668218
1.1665765
1.1663546
1.1661553
1.1659775
1.1658213
1.1656874
1.1655783
1.1654979
1.1654528
1.1654522
1.1655074
1.1656334
1.1658397
1.1661414
1.1665291
1.1669814
1.1674581
1.1677785
1.168202
1.1678712
1.1681352
1.166638
1.1665728
1.1571219
1.1712303
1.1836784
1.1902225
1.1912517
1.1908046
1.1903382
1.1901078
1.1898478
1.1895897
1.1892788
1.1889651
1.1886176
1.1882542
1.187863
1.1874507
1.1870152
1.1865581
1.1860797
1.1855809
1.1850627
1.1845263
1.1839729
1.1834036
1.1828201
1.1822236
1.1816158
1.1809982
1.1803726
1.1797406
1.1791041
1.1784647
1.1778243
1.1771848
1.1765478
1.1759153
1.175289
1.1746707
1.1740622
1.1734652
1.1728812
1.172312
1.1717591
1.171224
1.170708
1.1702124
1.1697385
1.1692872
1.1688597
1.1684566
1.1680786
1.1677262
1.1673994
1.1670984
1.166823
1.1665726
1.1663466
1.1661441
1.1659644
1.1658064
1.1656696
1.1655539
1.1654603
1.1653913
1.1653512
1.1653463
1.1653858
1.1654806
1.1656443
1.1658851
1.1662152
1.1666222
1.16708
1.1675442
1.1678511
1.1682201
1.1679167
1.1680742
1.1666077
1.1665741
1.1554053
1.1705083
1.1816367
1.1865127
1.1864349
1.1860597
1.1856445
1.185465
1.1851769
1.1849427
1.184651
1.1843832
1.1840861
1.1837899
1.1834737
1.183148
1.1828069
1.1824524
1.1820834
1.1816997
1.1813012
1.1808881
1.1804604
1.1800186
1.1795632
1.1790949
1.1786146
1.1781232
1.1776219
1.1771119
1.1765946
1.1760715
1.1755441
1.175014
1.174483
1.1739527
1.173425
1.1729017
1.1723845
1.1718752
1.1713757
1.1708876
1.1704127
1.1699526
1.1695087
1.1690827
1.1686757
1.1682891
1.1679239
1.1675811
1.1672613
1.1669652
1.166693
1.1664448
1.1662207
1.1660201
1.1658425
1.1656872
1.1655534
1.1654405
1.1653479
1.1652756
1.165225
1.1651986
1.1652007
1.1652378
1.1653186
1.1654535
1.1656549
1.1659298
1.1662873
1.1667119
1.1671734
1.167625
1.1679163
1.168243
1.1679464
1.1680206
1.1665713
1.1665819
1.1504535
1.1674423
1.1776529
1.1812948
1.1808173
1.1807246
1.1803895
1.1803379
1.1801168
1.1799901
1.1797813
1.1796145
1.1794089
1.1792131
1.1789963
1.1787742
1.1785381
1.1782912
1.1780318
1.1777599
1.1774751
1.1771773
1.1768664
1.1765426
1.176206
1.1758569
1.1754959
1.1751235
1.1747405
1.1743478
1.1739464
1.1735373
1.173122
1.1727017
1.1722779
1.1718523
1.1714264
1.1710019
1.1705806
1.1701643
1.1697548
1.1693537
1.1689629
1.168584
1.1682187
1.1678685
1.1675348
1.167219
1.1669222
1.1666455
1.1663897
1.1661554
1.165943
1.1657527
1.1655846
1.1654382
1.1653132
1.165209
1.1651249
1.1650604
1.165015
1.1649891
1.1649839
1.1650022
1.1650484
1.1651287
1.1652517
1.165427
1.165666
1.165974
1.1663575
1.1667981
1.1672614
1.1677002
1.1679751
1.1682702
1.1679616
1.1679712
1.1665322
1.166596
1.1448292
1.1642508
1.1730589
1.1760295
1.1753955
1.1755526
1.1752605
1.17534
1.1751798
1.175159
1.1750276
1.1749576
1.1748373
1.174735
1.1746091
1.1744815
1.1743396
1.1741889
1.1740272
1.1738546
1.173671
1.1734761
1.1732698
1.173052
1.1728227
1.172582
1.1723301
1.1720674
1.1717942
1.1715111
1.171219
1.1709185
1.1706108
1.1702969
1.169978
1.1696556
1.169331
1.1690059
1.1686818
1.1683604
1.1680434
1.1677324
1.1674293
1.1671357
1.1668532
1.1665833
1.1663276
1.1660874
1.1658639
1.1656581
1.165471
1.1653031
1.1651551
1.165027
1.164919
1.1648309
1.1647622
1.1647125
1.1646814
1.1646683
1.1646729
1.1646957
1.1647381
1.164803
1.1648947
1.1650194
1.1651853
1.1654013
1.1656774
1.1660177
1.1664257
1.1668806
1.1673441
1.1677698
1.1680267
1.1682979
1.1679624
1.1679245
1.1664926
1.1666166
1.1399186
1.1612519
1.1684824
1.1711177
1.1703736
1.1707293
1.1704444
1.1706314
1.1705085
1.1705731
1.1705026
1.1705176
1.1704703
1.1704436
1.1703895
1.170339
1.1702758
1.1702068
1.1701289
1.1700424
1.1699469
1.1698421
1.1697277
1.1696035
1.1694693
1.1693252
1.169171
1.1690071
1.1688335
1.1686507
1.1684592
1.1682596
1.1680526
1.1678392
1.1676203
1.1673971
1.1671709
1.166943
1.1667148
1.1664879
1.1662637
1.166044
1.1658302
1.165624
1.1654269
1.1652404
1.165066
1.1649049
1.1647583
1.1646272
1.1645126
1.1644151
1.1643351
1.164273
1.1642287
1.1642022
1.1641932
1.1642012
1.1642258
1.1642667
1.1643237
1.1643973
1.1644892
1.1646022
1.1647408
1.1649108
1.16512
1.1653767
1.1656895
1.166061
1.1664921
1.1669592
1.1674215
1.1678339
1.1680693
1.1683231
1.1679509
1.1678801
1.1664535
1.1666436
1.135362
1.1584235
1.1641481
1.1666502
1.1657952
1.1663152
1.166008