/*--------------------------------*- C++ -*----------------------------------*\
  =========                 |
  \\      /  F ield         | OpenFOAM: The Open Source CFD Toolbox
   \\    /   O peration     | Website:  https://openfoam.org
    \\  /    A nd           | Version:  12
     \\/     M anipulation  |
\*---------------------------------------------------------------------------*/
FoamFile
{
    format      ascii;
    class       volScalarField;
    location    "150";
    object      omega;
}
// * * * * * * * * * * * * * * * * * * * * * * * * * * * * * * * * * * * * * //

dimensions      [0 0 -1 0 0 0 0];

internalField   nonuniform List<scalar> 
16200
(
679352.0825
267300.3067
150473.0694
103724.8411
80480.02987
65788.146
52586.5043
33710.71214
9150.910538
867.6229369
292.6174246
180.0217777
116.7098831
78.50636162
56.28445801
41.35494538
30.4064582
22.56553707
17.10035954
13.11212239
10.16897343
7.984491205
6.350229882
5.116345483
4.175425879
3.450665631
2.886970707
2.444633781
2.095296759
1.819337061
1.60319362
1.436311253
1.308745075
1.211324561
1.137392046
1.082817413
1.044618953
1.01967741
1.004521684
0.9958881466
0.9912493312
0.9889311749
0.9879612694
0.987447667
0.9865692892
0.985544561
0.9850700766
0.9848587962
0.9847686872
0.9847410582
0.9847563793
0.9848148976
0.9849288508
0.9851207248
0.9854244828
0.9858906568
0.9865938191
0.9876525154
0.989262377
0.991813055
709922.5285
280207.5568
157930.3394
109189.1071
84865.39445
68687.95143
52988.31355
28278.49523
5010.042044
598.9905535
293.9083462
183.6603408
118.9597765
79.69642702
56.88496247
41.71092161
30.56828329
22.59115277
17.07234515
13.06168802
10.11031712
7.925466579
6.294720142
5.066239574
4.131607203
3.413423725
2.856205019
2.419939754
2.075949793
1.80439036
1.591748613
1.427806211
1.302903944
1.207799654
1.135626772
1.082158733
1.044515487
1.019778189
1.00465627
0.9959950395
0.9913140437
0.988951646
0.9879356114
0.987459748
0.9866541997
0.9856204136
0.9851409813
0.9849309703
0.9848453753
0.9848237689
0.9848455452
0.9849101742
0.9850291908
0.9852243737
0.9855289549
0.9859928339
0.986690688
0.9877428602
0.989352747
0.9919407544
739392.5414
292960.268
165398.9562
114723.4716
89148.14495
71213.55511
51879.7256
21513.33029
2648.592173
518.8962448
298.4205712
186.8445779
120.8909742
80.73351927
57.34338503
41.95377511
30.64354612
22.55122404
16.99445499
12.9738519
10.02353268
7.845045339
6.222754695
5.003349883
4.077791399
3.368339498
2.819292624
2.39047467
2.052977917
1.786757681
1.578325027
1.417801015
1.295882333
1.203340608
1.133151001
1.080998479
1.044088686
1.019689694
1.004690475
0.9960547443
0.9913614924
0.9889714229
0.9879147454
0.9874652462
0.9867224366
0.9856883233
0.9852068077
0.9849988476
0.9849177679
0.984901966
0.9849300336
0.9850007487
0.9851250432
0.9853240071
0.9856302357
0.9860930052
0.9867869595
0.9878340146
0.9894443449
0.9920668803
767148.9659
305176.6527
172791.6415
120301.5896
93060.10361
73262.36764
48582.07036
14489.92965
1495.655901
498.1452004
302.1009295
189.2966851
122.3559959
81.50605085
57.62077831
42.05708876
30.61513142
22.43601301
16.86042382
12.84432235
9.905523089
7.740878884
6.132504367
4.926236095
4.012834196
3.314497034
2.77550199
2.355664494
2.025950522
1.766145392
1.562754532
1.406225806
1.287670187
1.197959107
1.129974096
1.079334847
1.04332751
1.019396616
1.004609117
0.9960540499
0.9913811589
0.9889828476
0.9878965141
0.9874638611
0.9867685815
0.9857455005
0.985266171
0.9850618444
0.9849857349
0.984975788
0.9850100983
0.985086945
0.9852167439
0.9854199786
0.9857286319
0.9861913935
0.9868828333
0.9879261785
0.9895376048
0.9921921076
793063.4241
316918.68
180141.4842
125953.4343
96778.74503
74203.06993
41776.11923
8397.761694
1042.724222
496.0622811
304.7355002
191.0380834
123.3584926
81.98708901
57.71773036
42.01946213
30.481748
22.24630951
16.67140772
12.67428668
9.757374508
7.613917626
6.024807856
4.835664189
3.937449281
3.25256409
2.725451162
2.316068163
1.995360624
1.742984261
1.54541693
1.393414465
1.278551767
1.191882061
1.126263273
1.077281475
1.042303355
1.018941188
1.00443572
0.9960055943
0.9913792212
0.9889886609
0.987882401
0.9874588
0.9867974445
0.9857942476
0.9853203335
0.9851207538
0.9850498734
0.9850457383
0.985086203
0.9851691897
0.9853046704
0.9855125985
0.9858243922
0.9862881927
0.9869784347
0.9880194674
0.9896327118
0.9923166695
816936.7917
328326.1598
187397.6609
131436.2918
100060.4965
72850.49599
32881.85782
4772.136644
891.0367233
497.5257945
306.1907382
192.0083112
123.8625806
82.15416928
57.62305843
41.8328909
30.23866257
21.98012481
16.42772897
12.46433114
9.579603942
7.464552401
5.89999111
4.73197113
3.852019013
3.182963816
2.669578011
2.272105396
1.961584497
1.717597661
1.526587054
1.379599644
1.268718235
1.185256217
1.122120955
1.074902311
1.04105191
1.018340897
1.004177589
0.9959114859
0.9913552902
0.9889873668
0.9878719298
0.987451509
0.9868095768
0.9858347303
0.9853694094
0.9851757435
0.9851104065
0.9851120852
0.9851586505
0.9852477969
0.9853891367
0.9856021583
0.9859177647
0.9863835912
0.9870739062
0.988114
0.9897298539
0.9924408426
838710.4879
339564.2866
194658.9113
136517.1943
102665.0347
68646.99502
24052.40933
2919.297674
843.9824428
498.0334631
306.4474069
192.2052452
123.8684684
82.00558576
57.33749553
41.49779361
29.88670766
21.63877931
16.13128553
12.21566507
9.372925725
7.293300862
5.758590385
4.615797317
3.757274806
3.106467361
2.608637147
2.22446472
1.925211574
1.690467262
1.506650641
1.365089281
1.258413148
1.178267349
1.117680237
1.072285491
1.039626872
1.017625842
1.003850277
0.995779042
0.9913121903
0.9889792712
0.9878647037
0.987443499
0.9868137991
0.9858680472
0.9854139753
0.9852272108
0.9851676852
0.9851751767
0.9852277931
0.9853231189
0.9854704814
0.9856889678
0.9860090175
0.9864778017
0.9871694005
0.9882098907
0.9898291748
0.9925648283
858248.8054
350691.3446
202025.7726
141155.6466
104582.0128
60592.86556
16037.46656
2075.410823
827.0726086
496.6775165
305.5650937
191.6527874
123.3864658
81.54253096
56.85963171
41.01167361
29.4238822
21.22190744
15.78221445
11.92840864
9.137525936
7.100588387
5.601332207
4.488096526
3.654263929
3.0238964
2.543393683
2.173811675
1.886780471
1.662005489
1.485994054
1.350171522
1.247852277
1.171074623
1.113053324
1.06950488
1.038073157
1.016821119
1.003466631
0.995614179
0.9912520902
0.9889643541
0.9878599411
0.9874350624
0.9868135746
0.9858950289
0.9854544589
0.9852754606
0.9852219936
0.9852353089
0.9852939435
0.985395477
0.9855490226
0.985773326
0.9860984141
0.9865710365
0.9872650744
0.9883072494
0.9899307917
0.9926887985
874996.9753
361859.6674
209574.0403
145570.1201
103419.6688
48655.42006
10013.11551
1690.033932
819.4340375
493.7063188
303.5461336
190.3358269
122.4006561
80.75103287
56.17714176
40.36521682
28.84500012
20.72848655
15.38112193
11.60370792
8.874735486
6.887863111
5.429766457
4.350449549
3.544217339
2.936796887
2.475200125
2.121270385
1.847174048
1.632858825
1.46493259
1.335126137
1.23723719
1.163824075
1.108343417
1.066629591
1.036433871
1.015951578
1.003039868
0.9954233304
0.9911776733
0.9889430267
0.9878568685
0.9874260824
0.986809165
0.985916616
0.9854913407
0.9853208171
0.985273619
0.9852927731
0.985357406
0.9854651841
0.9856250712
0.9858555276
0.9861862179
0.9866635117
0.9873610865
0.9884061813
0.9900347941
0.9928128883
888443.0053
373448.2829
217022.6608
149365.448
98412.22758
37154.17031
6353.915055
1503.679487
812.2188143
488.889919
300.3011558
188.2030703
120.8826518
79.61726592
55.27993245
39.55373365
28.15017969
20.16186456
14.93152619
11.24470016
8.587353568
6.657691476
5.245733471
4.204543314
3.429236492
2.846769245
2.405365832
2.067876042
1.807170817
1.603583764
1.44390602
1.320199327
1.226737709
1.156635944
1.103635349
1.06371715
1.034745576
1.015038745
1.002581687
0.9952123385
0.9910915043
0.9889158154
0.9878542429
0.9874164116
0.9868007567
0.9859336724
0.9855250663
0.9853635818
0.985322828
0.9853478408
0.9854184661
0.9855325365
0.9856989247
0.9859358581
0.9862726872
0.9867554415
0.9874575948
0.9885067866
0.9901412484
0.9929372041
898876.2202
385681.0475
223784.2885
153284.356
88865.70887
26607.5191
4317.944534
1404.879283
802.6848087
482.4615797
295.9970528
185.3595098
118.9005912
78.18396989
54.19011126
38.59455637
27.35326058
19.53234876
14.4396167
10.85526297
8.278460638
6.412374748
5.052455303
4.053216678
3.31136232
2.75546694
2.335206758
2.014637245
1.767506225
1.574684184
1.423240908
1.305598166
1.216491261
1.149605858
1.09899699
1.060814543
1.033038932
1.014101172
1.002102455
0.9949865475
0.9909960684
0.9888834386
0.9878504966
0.9874059118
0.9867884972
0.985947012
0.9855560634
0.9854040445
0.9853698756
0.9854007703
0.9854773956
0.9855978169
0.9857708684
0.9860145931
0.9863580735
0.9868470371
0.9875547548
0.9886091571
0.9902501999
0.9930618251
906747.3323
398623.9048
230451.436
153708.9748
72964.0871
17679.88374
3260.170175
1351.775111
790.0331881
474.8249835
290.8827029
181.9445094
116.5367823
76.49908727
52.93246034
37.50801079
26.470948
18.85205633
13.91241347
10.43946583
7.950057767
6.155444412
4.853089917
3.899110057
3.192646318
2.664476392
2.265942368
1.962459085
1.728820888
1.546587005
1.403204487
1.291484556
1.206601052
1.142804484
1.094479104
1.057957932
1.031338311
1.013154066
1.001610915
0.9947506018
0.990893627
0.9888467567
0.9878458402
0.9873944655
0.9867725091
0.9859573655
0.985584727
0.9854424778
0.9854150028
0.9854518056
0.9855344512
0.9856612934
0.9858411744
0.9860919974
0.9864426205
0.9869385043
0.98765272
0.9887133755
0.9903616746
0.9931868067
912079.0618
411746.2842
236831.6714
148306.1451
58459.64053
11990.00159
2722.936277
1314.420741
774.2628338
465.7864665
284.8464932
177.8854313
113.7447986
74.53354793
51.48315516
36.28410521
25.50379142
18.12651318
13.35563984
10.00155698
7.607334459
5.890855895
4.650813844
3.744807028
3.075063451
2.575239478
2.198621089
1.91209068
1.691628756
1.519626094
1.383999304
1.277975801
1.197138733
1.136280306
1.090117408
1.055173881
1.029662413
1.012209539
1.001114267
0.9945084477
0.9907861797
0.9888065827
0.9878405037
0.9873819829
0.9867529044
0.9859653791
0.9856114192
0.9854791377
0.9854584374
0.9855011775
0.985589876
0.9857232203
0.9859101016
0.9861683243
0.9865265626
0.9870300423
0.9877516376
0.9888195173
0.9904756815
0.9933121829
914544.6239
424133.7826
244202.3507
136681.9051
45277.13775
8515.451087
2430.163627
1281.228588
755.2090844
455.165564
277.8182642
173.1380245
110.4937493
72.26781374
49.82024906
34.90947276
24.4463751
17.35380111
12.76997057
9.546637182
7.256833451
5.623693137
4.448921006
3.59265552
2.960367888
2.488983987
2.134073718
1.864095335
1.65630286
1.494037098
1.365763792
1.265147857
1.188148159
1.130062777
1.085934748
1.05248064
1.028024908
1.011276888
1.000618251
0.9942633443
0.990675446
0.9887636588
0.9878347132
0.9873684038
0.9867297925
0.9859716134
0.9856364674
0.9855142627
0.9855003945
0.9855491042
0.9856438998
0.985783838
0.9859778955
0.9862438148
0.9866101236
0.9871218422
0.9878516464
0.9889276511
0.9905922142
0.9934379693
914237.7375
435234.1867
249921.7396
117582.1371
32750.18946
6360.080439
2248.93891
1246.152612
733.9060585
442.2847375
269.8666402
167.7596079
106.8268198
69.73441102
47.96015669
33.40223551
23.3141114
16.54235987
12.15583884
9.077976415
6.90400618
5.359052466
4.250781655
3.444714293
2.849968248
2.406672794
2.0729071
1.818851525
1.623080089
1.469963675
1.348617904
1.253041096
1.179650265
1.124166004
1.081943605
1.049889664
1.026435263
1.010362986
1.000127321
0.9940179213
0.9905628731
0.9887186466
0.9878286269
0.9873536953
0.9867032847
0.9859765475
0.9856601651
0.9855480744
0.9855410764
0.9855957916
0.9856967392
0.9858433738
0.9860447884
0.9863186977
0.9866935167
0.9872140859
0.9879528775
0.9890378406
0.9907112528
0.9935641629
912104.4129
443850.158
245801.7913
100260.667
23831.82813
5084.51284
2125.842234
1207.9164
710.8760554
428.0380574
260.8931646
161.861208
102.8144292
66.97812486
45.92767041
31.78944891
22.12940099
15.70708579
11.52461221
8.603305322
6.553069502
5.100541466
4.059212316
3.302733653
2.744921735
2.328987134
2.015518024
1.776572409
1.592077985
1.447467495
1.332549139
1.241667075
1.171648055
1.11859229
1.078148447
1.04740705
1.024899543
1.009472693
0.9996448285
0.9937742524
0.9904496558
0.9886721281
0.9878210949
0.987337849
0.986673495
0.9859805868
0.9856827741
0.9855807773
0.9855806732
0.9856414338
0.9857485986
0.9859020418
0.9861109996
0.9863931892
0.9867769437
0.9873069453
0.9880554555
0.9891501443
0.9908327638
0.9936907437
909381.1373
446454.3879
231484.8386
84525.84224
17686.22744
4345.941302
2037.483383
1169.844913
686.8654484
412.9173216
251.1750462
155.4993438
98.49375798
64.02632608
43.74153699
30.09507463
20.91107028
14.852641
10.88706477
8.132816689
6.209937637
4.850730944
3.876057223
3.168105391
2.646022139
2.256354588
1.962118527
1.737336114
1.563318756
1.426551295
1.317552158
1.231015563
1.164131391
1.113335401
1.074547891
1.045034879
1.023421176
1.008609258
0.9991732155
0.993533938
0.9903367636
0.9886246734
0.9878120113
0.9873208786
0.9866405377
0.9859840717
0.9857045267
0.9856125603
0.985619363
0.9856862133
0.9857996702
0.9859600431
0.9861767351
0.9864674926
0.9868605941
0.9874005815
0.9881594955
0.9892646131
0.9909566998
0.9938176757
907311.2234
441021.5794
208410.9038
67233.07524
13289.10338
3878.405479
1959.029381
1129.779216
661.2798466
396.6457327
240.5851565
148.6252123
93.84918056
60.8775121
41.40801523
28.33996748
19.67800399
13.99617053
10.25400917
7.674331939
5.87982957
4.612152989
3.702739228
3.041829023
2.55382195
2.188981775
1.912758488
1.701113439
1.536751966
1.407184558
1.303593699
1.221060454
1.157080814
1.108383105
1.071136376
1.042772268
1.022001577
1.007774657
0.9987141838
0.9932981819
0.9902249669
0.9885767789
0.9878013184
0.9873028171
0.9866073038
0.9859872859
0.9857256288
0.9856435973
0.9856573125
0.9857303016
0.9858501343
0.9860175667
0.9862421883
0.9865417986
0.9869446454
0.9874951437
0.9882650993
0.9893812792
0.9910829992
0.9939449085
906956.5959
427419.8555
181444.1412
52199.19955
10274.97054
3560.4905
1880.389994
1085.731175
634.1902953
379.3193137
229.2855619
141.2654287
88.92301567
57.56161083
38.95269346
26.54875541
18.43835554
13.14643707
9.637482416
7.234526859
5.566140229
4.387075922
3.540639036
2.924518948
2.46860155
2.126893068
1.867360879
1.667798326
1.512280639
1.389275877
1.290622075
1.211765448
1.150471081
1.10371948
1.067905678
1.040616335
1.020640722
1.006969914
0.9982688599
0.9930678679
0.9901148683
0.9885288695
0.9877889954
0.9872835855
0.9865752842
0.9859904656
0.9857462629
0.9856740481
0.9856946773
0.9857738592
0.9859001598
0.9860747891
0.9863075395
0.9866162847
0.987029262
0.9875907689
0.9883723535
0.9895001548
0.9912115863
0.9940723784
908260.8125
406720.1751
160474.2636
40590.12237
8271.059271
3335.175536
1801.695725
1040.14439
606.0339243
361.1720424
217.4391873
133.5640453
83.77451079
54.12519341
36.42306887
24.75808557
17.21815274
12.31299588
9.04709849
6.818595382
5.271583206
4.177187906
3.390517664
2.816377283
2.390347645
2.069958576
1.825752798
1.637229723
1.489768524
1.372731058
1.27857366
1.20308775
1.14427339
1.099326337
1.064845861
1.038562821
1.019337537
1.006195324
0.9978379145
0.9928436199
0.9900069302
0.9884813027
0.9877750558
0.9872630863
0.9865447292
0.9859938067
0.9857665907
0.9857040595
0.9857316024
0.9858170362
0.9859499046
0.986131875
0.986372957
0.9866911159
0.9871145956
0.9876875811
0.9884813363
0.9896212411
0.9913423722
0.9942000093
909098.8316
382223.0273
144741.4109
31677.60357
6968.1794
3164.31837
1725.070665
993.4823917
577.0406051
342.3363988
205.2832401
125.5448719
78.46258211
50.61777328
33.87603033
23.00749052
16.04052208
11.51100984
8.48988318
6.429911715
4.998064838
3.983461314
3.252572973
2.717321463
2.318830658
2.017940955
1.787704486
1.609216955
1.469068709
1.357446568
1.267379572
1.194981991
1.138457726
1.095184725
1.061946268
1.036606738
1.018090299
1.00545069
0.9974216895
0.9926258638
0.9899015027
0.9884343759
0.9877595398
0.987241252
0.9865158233
0.9859974717
0.9857867554
0.9857337662
0.9857682226
0.9858599727
0.9859995155
0.9861889774
0.9864385961
0.986766444
0.9872007846
0.9877856909
0.9885921156
0.9897445287
0.9914752545
0.9943277131
908818.1929
357924.1891
125134.4581
24408.23815
6075.439431
3011.570118
1648.300209
945.6327634
547.2652693
323.0919085
192.8601207
117.2987439
73.06838005
47.10071745
31.37337837
21.32790592
14.92354089
10.75452062
7.970612802
6.070299611
4.7464691
3.806052746
3.126593215
2.627058407
2.253694011
1.97052718
1.752951136
1.583552515
1.450027417
1.343315379
1.256969135
1.187402133
1.132993963
1.091275622
1.059195998
1.034742702
1.01689686
1.004735461
0.9970202766
0.9924148693
0.9897988455
0.9883883342
0.9877425072
0.9872180406
0.9864886999
0.986001596
0.9858068846
0.9857632919
0.9858046629
0.9859027987
0.9860491288
0.9862462377
0.9865046
0.9868424075
0.9872879536
0.9878851951
0.9887047405
0.9898699934
0.9916101178
0.99445539
905965.4004
333289.7241
106676.8755
18831.70797
5466.853834
2863.698593
1567.681926
897.1868728
517.3326631
303.8341465
180.1311316
108.955663
67.69192382
43.62096127
28.97290632
19.74823129
13.87978149
10.05215326
7.492036287
5.740568769
4.516838477
3.644624874
3.012125578
2.545123075
2.194507797
1.927361088
1.721212931
1.560025689
1.432491895
1.33023201
1.247272913
1.180303215
1.127852871
1.087580577
1.056584339
1.032965233
1.01575485
1.004048857
0.9966335905
0.9922107883
0.9896991463
0.9883433784
0.9877240313
0.9871934301
0.9864634524
0.986006292
0.9858270916
0.9857927494
0.9858410389
0.9859456346
0.9860988704
0.9863037859
0.9865710995
0.9869191322
0.9873762134
0.9879861757
0.9888192433
0.9899975956
0.9917468331
0.9945829299
899079.5401
319380.8675
89072.15137
14748.46091
5059.806259
2726.743966
1488.697471
849.7846963
487.9602764
284.2334131
167.2681606
100.6651154
62.43661992
40.23180761
26.71751876
18.28379687
12.91671828
9.407764071
7.055054846
5.440685952
4.308643031
3.498516802
2.908551644
2.470929795
2.140793658
1.888069268
1.692209307
1.53843068
1.416315433
1.31809569
1.238224645
1.173642452
1.12300675
1.08408211
1.054101057
1.031268969
1.014661822
1.003389964
0.996261426
0.9920136859
0.9896025374
0.988299674
0.987704196
0.9871674115
0.986440144
0.9860116539
0.9858474773
0.9858222423
0.9858774571
0.9859885911
0.9861488558
0.9863617408
0.9866382132
0.98699673
0.9874656601
0.9880886997
0.9889356418
0.9901272794
0.9918852579
0.9947102131
887484.6834
313228.9552
71898.06611
12036.1873
4790.656987
2597.574146
1415.759519
803.8826146
458.3447231
264.4953002
154.4708417
92.58342404
57.39886286
37.01171154
24.63355215
16.94176131
12.03782805
8.822263309
6.659369398
5.169918481
4.120925967
3.36681697
2.815090169
2.4038388
2.092060378
1.852283321
1.665671212
1.518573666
1.401361422
1.306812945
1.229762882
1.167380224
1.118430019
1.080764094
1.05173666
1.02964885
1.013615388
1.002757824
0.9959035079
0.9918235677
0.9895091097
0.9882573612
0.9876830937
0.9871399816
0.9864188149
0.9860177603
0.9858681317
0.9858518644
0.9859140148
0.9860317697
0.98619919
0.9864202096
0.9867060467
0.9870752992
0.987556375
0.9881928171
0.9890539362
0.9902589714
0.9920252358
0.9948371108
871030.3697
302725.7555
56186.18801
10421.78227
4592.374163
2474.691755
1344.590279
758.0502742
428.5725835
244.7779714
141.9333158
84.84633501
52.65382698
34.01680271
22.73226991
15.72404665
11.24311453
8.294530294
6.303586034
4.926772125
3.952339226
3.248415209
2.730873813
2.343185075
2.047817931
1.819646053
1.641343074
1.500273117
1.387503027
1.296297225
1.221830692
1.161479822
1.114099026
1.077611631
1.049482336
1.028100113
1.012613227
1.002151451
0.9955595097
0.9916403918
0.9894189201
0.9882165619
0.9876608245
0.9871111341
0.9863994879
0.9860246771
0.9858891347
0.985881701
0.9859508007
0.9860752624
0.9862499678
0.9864792879
0.9867746928
0.9871549237
0.9876484235
0.9882985618
0.9891741094
0.9903925806
0.9921665964
0.9949634858
849867.2001
280866.6939
42645.7806
9498.918855
4413.344486
2352.967308
1273.835584
712.2963392
398.7537463
225.3073053
129.8746771
77.57581833
48.26029354
31.28111195
21.01599585
14.6288784
10.53019364
7.822082108
5.985450463
4.709301601
3.801339028
3.142115513
2.655016454
2.288318771
2.007600397
1.789823753
1.618989431
1.483363451
1.374625206
1.286470188
1.2143765
1.155907987
1.109992369
1.074611262
1.047330112
1.026618403
1.011653173
1.001569887
0.9952290859
0.991464087
0.9893319999
0.9881773888
0.987637497
0.9870808504
0.9863821727
0.9860324594
0.9859105568
0.9859118286
0.9859878947
0.9861191516
0.9863012736
0.9865390599
0.9868442316
0.9872356731
0.9877418549
0.9884059497
0.9892961252
0.9905279976
0.9923091555
0.9950891935
824347.9346
248429.7784
32052.15565
8971.109054
4223.323705
2233.043623
1203.837101
666.8962097
369.186104
206.430639
118.5229609
70.87155867
44.25799832
28.81828151
19.48091234
13.6515884
9.894939795
7.401409521
5.702117377
4.515290241
3.666292002
3.046711942
2.586652341
2.238621745
1.970972619
1.7625093
1.598395622
1.467694947
1.362624414
1.277261443
1.20735395
1.150634818
1.106090837
1.071750935
1.04527284
1.025199786
1.010733232
1.001012222
0.9949118884
0.9912945629
0.9892483609
0.9881399538
0.9876132309
0.9870490897
0.9863668691
0.9860411531
0.9859324604
0.9859423156
0.9860253681
0.9861635107
0.9863531813
0.9865995978
0.9869147295
0.9873176016
0.9878367021
0.9885149786
0.989419928
0.9906650948
0.9924527151
0.9952140825
794831.8249
210594.158
25119.47011
8534.125104
4035.462057
2116.088234
1135.085475
622.1635913
340.2405608
188.5120974
108.052247
64.79161975
40.66170213
26.6246032
18.11797111
12.78486869
9.331734367
7.028240984
5.450378848
4.342398001
3.545541285
2.961030447
2.524952977
2.193514647
1.937531589
1.737422165
1.5793669
1.453132593
1.351407624
1.268607849
1.200721445
1.145633476
1.102377218
1.069019879
1.043304133
1.02384072
1.009851581
1.000477603
0.9946075727
0.9911317149
0.9891679969
0.9881043756
0.98758816
0.9870157772
0.9863535689
0.9860507955
0.9859548994
0.985973222
0.9860632836
0.9862084033
0.9864057541
0.9866609615
0.9869862391
0.987400748
0.98793298
0.9886256268
0.9895454418
0.9908037259
0.9925970633
0.9953379944
760876.8626
172381.5494
20699.70511
8135.755589
3843.312254
2003.682263
1068.371201
578.5811718
312.4201509
171.8965855
98.58241555
59.36215877
37.46943592
24.68782052
16.91592492
12.02037767
8.834484384
6.698164547
5.2270706
4.188423853
3.437533604
2.88399603
2.469168144
2.152479764
1.906919201
1.714315107
1.561732414
1.439558328
1.340893742
1.260454455
1.194442817
1.140880639
1.098836586
1.066408797
1.041418492
1.022538147
1.009006624
0.9999652655
0.9943158207
0.9909754362
0.9890908877
0.9880707892
0.98756244
0.9869807917
0.9863422582
0.9860614165
0.9859779202
0.9860045998
0.9861016951
0.9862538834
0.9864590441
0.9867231986
0.9870587988
0.9874851346
0.9880306853
0.9887378527
0.9896725692
0.9909437244
0.9927419743
0.995460765
722132.2746
138295.9825
17895.77217
7749.58301
3660.705274
1896.344562
1004.103641
536.5193419
286.1725031
156.781562
90.14173235
54.56563324
34.65809795
22.98729074
15.86022872
11.3481711
8.396363836
6.406488506
5.028984133
4.05121115
3.340761806
2.814584039
2.418592587
2.115035839
1.878805174
1.69296108
1.545336113
1.426864653
1.331009129
1.252751443
1.18848528
1.13635517
1.095455447
1.063909317
1.03961097
1.021289293
1.008196891
0.9994744884
0.99403632
0.9908256101
0.9890169935
0.9880393519
0.9875362553
0.9869439481
0.9863329172
0.9860730392
0.9860015613
0.986036493
0.9861406477
0.9862999952
0.9865130921
0.9867863435
0.9871324318
0.987570767
0.9881297959
0.9888515941
0.9898011914
0.9910849032
0.9928872087
0.995582228
679651.946
108268.7185
16168.26385
7403.230356
3488.541592
1794.407961
942.5683972
496.4345076
261.9420511
143.2740379
82.71030155
50.36517117
32.19863995
21.50069256
14.93601882
10.75835716
8.010748309
6.148767417
4.853142482
3.928760418
3.253862908
2.751872638
2.37259913
2.080756733
1.852898743
1.673160603
1.530041277
1.414957648
1.321689632
1.245455537
1.182820426
1.132038788
1.092222182
1.061514279
1.037877357
1.020091796
1.007421115
0.9990046386
0.9937687881
0.9906821222
0.9889462557
0.9880102547
0.9875098345
0.9869049792
0.9863255218
0.9860856794
0.9860258536
0.9860689373
0.9861801774
0.9863467721
0.9865679269
0.9868504166
0.9872071455
0.9876576321
0.9882302687
0.9889667658
0.9899311658
0.9912270523
0.9930325134
0.995702214
632897.1537
83206.06943
15214.54858
7074.140128
3328.373418
1698.600362
883.9987257
458.6967249
240.0069785
131.3763155
76.22683433
46.70892971
30.05729798
20.20470076
14.12832875
10.24124863
7.67130884
5.920838193
4.696790582
3.819223774
3.175613479
2.695038291
2.330634226
2.04926731
1.828945392
1.654739845
1.515729137
1.403756097
1.312880004
1.238529653
1.177424027
1.127915978
1.089127002
1.059217719
1.03621418
1.018943706
1.006678238
0.9985551792
0.9935129808
0.9905448663
0.9888785922
0.9879837314
0.9874834702
0.9868635123
0.9863200434
0.9860993457
0.9860508193
0.986101958
0.9862203083
0.9863942346
0.986623562
0.9869154209
0.987282927
0.987745694
0.9883320352
0.9890832549
0.9900623207
0.9913699377
0.9931776165
0.9958205445
581538.2357
63846.40897
14542.59853
6800.601731
3178.876503
1609.647643
828.8396913
423.7231824
220.4575763
121.0017326
70.60496101
43.53852576
28.19772656
19.07638557
13.42278492
9.787714688
7.372176774
5.718891349
4.557431094
3.720939568
3.104924149
2.643352686
2.292210098
2.020237954
1.806722001
1.637546898
1.50229615
1.393189404
1.304532386
1.231941781
1.172275241
1.12397343
1.086161553
1.057014588
1.034618513
1.017843367
1.005967346
0.9981256329
0.9932686732
0.9904137364
0.9888138815
0.9879600661
0.9874575475
0.9868256828
0.9863164486
0.9861140401
0.9860764729
0.9861355725
0.9862610558
0.9864423924
0.9866799987
0.9869813451
0.9873597472
0.9878348985
0.9884350064
0.9892009267
0.9901944634
0.9915133092
0.9933222368
0.9959370405
524159.3194
50609.28666
14235.24458
6532.984083
3040.758067
1527.042416
777.1327336
391.7547166
203.214852
111.9959517
65.73886102
40.79059667
26.58199576
18.09276792
12.80525542
9.388919663
7.107748539
5.539325859
4.432722036
3.632376254
3.04078964
2.596145759
2.256876977
1.993367744
1.786025031
1.621443615
1.489648517
1.383193858
1.296603774
1.225663314
1.167355534
1.120199359
1.083318497
1.054900501
1.033087825
1.016789339
1.005287626
0.9977155652
0.993035655
0.9902886281
0.9887519461
0.9879385905
0.9874321482
0.9867915367
0.9863146995
0.9861297581
0.9861028215
0.9861697894
0.9863024249
0.9864912437
0.9867372246
0.9870481623
0.9874375589
0.9879251706
0.9885390704
0.9893196221
0.9903273765
0.9916568951
0.9934660822
0.9960515209
459836.5211
42018.68596
14093.87487
6264.116791
2914.141226
1450.877443
728.9733893
362.9149705
188.1311506
104.1980558
61.52758663
38.40723474
25.17612705
17.23353391
12.26336138
9.037183564
6.873186025
5.379046797
4.320659667
3.552238974
2.982358941
2.552850912
2.224254956
1.968404821
1.766684548
1.606315141
1.477708608
1.373717049
1.289059049
1.219671088
1.162650044
1.116584403
1.080592082
1.052872083
1.031620201
1.015780521
1.004638438
0.9973246223
0.99281375
0.9901694534
0.9886926058
0.9879167662
0.9874073421
0.9867609552
0.9863147535
0.9861464879
0.9861298634
0.9862046075
0.9863444094
0.9865407734
0.9867952123
0.987115828
0.9875162949
0.9880164131
0.9886440909
0.989439156
0.9904608175
0.9918004031
0.9936088494
0.9961638031
387094.0718
36618.75043
14018.92901
6024.31772
2799.798685
1381.373359
684.5554707
337.2163526
175.0138264
97.45419357
57.88058203
36.33681971
23.94999575
16.48073175
11.78619915
8.725757369
6.664252094
5.235351064
4.219503492
3.479398602
2.928892372
2.512978374
2.194019599
1.945130769
1.748554016
1.592062658
1.466409907
1.364714375
1.281868585
1.213945792
1.158146545
1.113120947
1.077977719
1.050926717
1.030214179
1.014816065
1.004019271
0.9969525119
0.9926028093
0.9900561429
0.9886358306
0.9878946701
0.9873831876
0.9867338206
0.9863165634
0.9861642107
0.9861575883
0.986240015
0.9863869907
0.9865909523
0.9868539177
0.9871842788
0.9875958665
0.9881085041
0.9887499049
0.9895593153
0.9905945171
0.9919435196
0.9937502221
0.9962737022
303116.9723
33296.97052
13948.89554
5810.275927
2696.593491
1317.872704
643.6185056
314.3720778
163.5761429
91.58852461
54.70305093
34.52719302
22.87400916
15.81706504
11.36341614
8.448312125
6.477015678
5.105765971
4.127681382
3.412831589
2.87972369
2.47609458
2.165890201
1.923351549
1.731504685
1.578600202
1.455695192
1.356147978
1.275007649
1.20847164
1.153835269
1.109803073
1.075471975
1.049062551
1.028868779
1.013895405
1.003429771
0.9965990225
0.9924027246
0.989948647
0.9885815977
0.9878723736
0.987359725
0.9867100167
0.986320076
0.9861828976
0.9861859729
0.9862759847
0.9864301322
0.9866417299
0.9869132723
0.9872534231
0.9876761527
0.9882012859
0.98885631
0.9896798448
0.990728164
0.9920858941
0.9938898592
0.9963810216
201014.5722
31488.60385
13850.23414
5623.754195
2605.366529
1260.529271
606.2102156
294.169988
153.5809654
86.47100684
51.92325253
32.93823361
21.92514764
15.22898135
10.98685651
8.199837967
6.308356574
4.988329119
4.043938263
3.351721021
2.834320519
2.441853038
2.139637799
1.902913836
1.715434524
1.56586042
1.445520076
1.347988906
1.268457698
1.203237109
1.149709313
1.106626733
1.07307263
1.047278492
1.027583465
1.01301821
1.002869695
0.9962639957
0.9922134114
0.9898469276
0.9885298889
0.9878499386
0.9873369659
0.9866894257
0.9863252327
0.9862025124
0.9862149851
0.9863124792
0.9864737853
0.9866930421
0.986973192
0.9873231512
0.9877570122
0.9882945785
0.98896308
0.9898004659
0.9908614262
0.9922271623
0.9940274174
0.9964855722
62701.22357
30894.58968
13607.57473
5462.683438
2525.24851
1208.638743
571.2154718
276.0394965
144.7802109
81.96261368
49.46811894
31.53028708
21.08107514
14.70355283
10.64883379
7.975667451
6.155387547
4.881221417
3.967093582
3.295327981
2.792201749
2.409933147
2.115035303
1.883684817
1.700254716
1.553785428
1.435846943
1.340213053
1.262203637
1.198233089
1.14576342
1.103588974
1.070778182
1.045573897
1.026357952
1.012184281
1.002338871
0.9959473054
0.9920348023
0.9897509586
0.9884806946
0.9878274159
0.9873148802
0.9866719282
0.9863319693
0.9862230108
0.9862445828
0.986349449
0.9865178874
0.9867448084
0.9870335737
0.9873933322