/*--------------------------------*- C++ -*----------------------------------*\
  =========                 |
  \\      /  F ield         | OpenFOAM: The Open Source CFD Toolbox
   \\    /   O peration     | Website:  https://openfoam.org
    \\  /    A nd           | Version:  12
     \\/     M anipulation  |
\*---------------------------------------------------------------------------*/
FoamFile
{
    format      ascii;
    class       volScalarField;
    location    "150";
    object      p;
}
// * * * * * * * * * * * * * * * * * * * * * * * * * * * * * * * * * * * * * //

dimensions      [1 -1 -2 0 0 0 0];

internalField   nonuniform List<scalar> 
16200
(
83633.16628
83640.04664
83649.05324
83660.75683
83676.09205
83696.25591
83723.0124
83758.34625
83802.83811
83856.29038
83920.01978
83995.911
84085.77847
84192.80406
84319.33651
84469.63882
84647.19087
84857.25191
85104.82047
85396.25072
85738.06844
86137.66287
86602.54257
87140.21076
87757.21641
88458.19614
89244.24687
90111.08154
91047.21555
92032.88149
93040.54211
94037.7841
94991.91649
95874.63884
96665.68513
97353.58271
97935.72895
98415.69664
98802.39134
99106.90413
99342.16671
99520.50968
99653.74057
99751.85086
99823.38561
99875.04121
99912.12763
99938.58133
99957.40379
99970.73802
99980.17577
99986.84103
99991.54329
99994.874
99997.16588
99998.87547
99999.77349
100001.0716
100000.2604
100002.7231
82943.52724
82951.85599
82961.483
82974.43796
82991.61983
83014.39245
83044.93003
83084.80332
83134.6531
83194.18493
83264.98905
83349.31013
83448.98695
83567.68688
83707.85764
83874.27363
84070.70747
84302.94697
84576.46131
84898.21223
85275.34979
85715.87079
86227.75544
86818.70299
87494.99152
88260.25549
89113.58017
90047.48071
91046.01554
92084.29715
93130.28726
94149.01868
95108.0339
95982.23332
96755.91213
97422.97101
97984.53024
98447.20749
98820.58447
99116.10606
99345.68361
99520.98383
99652.77058
99750.47605
99822.09463
99874.0511
99911.47038
99938.22711
99957.27864
99970.77684
99980.32282
99987.04548
99991.77442
99995.09452
99997.38619
99999.05038
99999.95078
100001.1753
100000.3354
100002.7366
82368.83828
82378.03782
82388.83427
82403.3756
82422.72187
82448.52818
82483.36125
82528.06761
82583.22471
82648.85089
82726.81768
82819.78705
82929.5808
83060.42195
83214.90031
83398.36317
83614.97036
83871.12319
84172.8715
84527.82155
84943.73575
85429.09994
85992.17625
86640.578
87379.95717
88212.43046
89134.33625
90133.96037
91189.9355
92271.77725
93343.18799
94367.80526
95315.08146
96164.54104
96906.28337
97539.74225
98070.18932
98506.75171
98859.84107
99140.72077
99360.33815
99529.30659
99657.27154
99752.83998
99823.32575
99874.74763
99911.93184
99938.61163
99957.64028
99971.13529
99980.67373
99987.37978
99992.08605
99995.36981
99997.6368
99999.24637
100000.1355
100001.2923
100000.4265
100002.7913
81897.57728
81907.49778
81919.89996
81936.36406
81958.31539
81987.77793
82027.41895
82077.57306
82138.76672
82211.48141
82297.74327
82400.76396
82522.35217
82667.35904
82838.55284
83041.8843
83281.92273
83565.6604
83899.68823
84292.15692
84751.34091
85286.13551
85905.02777
86615.41891
87421.96273
88324.54548
89315.64981
90378.05905
91484.01094
92597.25069
93678.18888
94690.80208
95608.45927
96416.77586
97112.48996
97700.63872
98190.45156
98593.12889
98919.66055
99180.8199
99386.46851
99545.9678
99667.7404
99759.40166
99827.47529
99877.44679
99913.75808
99939.91386
99958.61636
99971.90107
99981.29136
99987.88736
99992.50679
99995.71399
99997.9266
99999.47015
100000.3298
100001.42
100000.5177
100002.8389
81535.38334
81546.32166
81560.63595
81579.36571
81604.43336
81638.33848
81683.46678
81739.77645
81807.79572
81888.67763
81984.4476
82098.95222
82233.95033
82394.94727
82584.89447
82810.33018
83076.24362
83390.21046
83759.41276
84192.62762
84698.76368
85287.23485
85966.69953
86743.95877
87621.81325
88596.6135
89655.48215
90774.42704
91918.76683
93047.14442
94118.50402
95099.53689
95969.60826
96721.67405
97359.404
97893.08328
98335.28245
98698.65557
98994.33922
99232.31017
99421.20292
99569.00421
99682.85093
99769.27787
99833.95632
99881.75839
99916.68629
99941.95898
99960.08762
99972.99206
99982.12
99988.52939
99993.01131
99996.11058
99998.2455
99999.71301
100000.5316
100001.556
100000.6151
100002.8995
81278.60261
81290.79009
81307.32636
81328.68464
81357.41251
81396.52126
81447.86237
81510.87828
81586.30971
81676.04774
81782.05396
81908.89282
82058.26991
82236.38148
82446.43507
82695.64151
82989.58573
83336.61378
83744.73256
84223.52872
84782.58789
85431.50016
86178.4255
87028.60115
87981.72725
89029.13722
90151.15427
91316.17143
92482.88256
93606.45963
94646.94465
95576.38432
96381.96285
97064.68741
97634.90178
98107.39471
98497.20802
98817.7493
99079.82182
99292.33859
99462.58403
99597.11262
99701.75346
99781.92899
99842.43092
99887.47539
99920.59019
99944.67028
99962.00765
99974.38048
99983.14282
99989.2959
99993.59357
99996.5553
99998.59177
99999.97355
100000.7405
100001.6998
100000.7161
100002.967
81104.81344
81118.49983
81137.58385
81162.06794
81195.20206
81240.21817
81298.49294
81368.75097
81452.46738
81552.29203
81670.0065
81810.98998
81976.95475
82174.90085
82408.45059
82685.62041
83012.74521
83399.00975
83853.28294
84385.7471
85006.25424
85723.91718
86545.42175
87473.2966
88502.95125
89619.45468
90795.20784
91990.70189
93159.25255
94255.11511
95242.47558
96101.21533
96827.58529
97430.66641
97926.68174
98333.86805
98668.74558
98944.7599
99171.92766
99357.87862
99508.46612
99628.8048
99723.43416
99796.67692
99852.4507
99894.30491
99925.27935
99947.92508
99964.29729
99976.01546
99984.32726
99990.16609
99994.24076
99997.04016
99998.961
100000.2486
100000.9562
100001.8513
100000.8205
100003.0432
81002.94164
81018.70211
81040.63446
81068.85763
81107.46453
81159.39225
81225.49808
81304.29801
81398.37437
81510.78011
81643.2349
81802.15715
81989.3927
82212.80493
82476.44477
82788.97698
83157.26063
83590.97855
84099.45091
84693.03571
85381.58169
86173.55878
87073.65319
88080.51694
89183.71297
90360.72713
91575.35141
92780.65984
93926.80558
94970.48554
95883.11719
96654.32975
97289.86848
97806.20292
98224.22257
98564.39085
98843.71695
99075.03417
99267.19732
99426.39907
99557.02962
99662.79809
99747.00521
99812.91852
99863.61185
99901.98073
99930.58004
99951.61134
99966.88481
99977.85159
99985.64478
99991.12235
99994.94224
99997.55871
99999.3498
100000.5361
100001.178
100002.0089
100000.928
100003.1275
81009.00995
81027.43346
81052.7787
81085.59485
81131.00791
81191.05332
81266.17902
81355.08524
81460.96162
81587.92921
81737.42565
81916.90293
82128.33823
82380.40968
82677.6883
83029.5599
83443.4665
83929.42873
84496.9273
85156.04498
85916.11768
86784.58779
87763.83207
88847.48485
90017.05782
91240.74305
92473.88816
93663.97965
94761.22758
95728.47254
96547.04304
97217.29771
97754.02503
98179.81226
98518.75663
98792.31112
99017.08435
99204.76406
99362.76964
99495.773
99606.71644
99697.97081
99771.67331
99830.10281
99875.53765
99910.2493
99936.32375
99955.61851
99969.6984
99979.84286
99987.06626
99992.14656
99995.68704
99998.10437
99999.75459
100000.8337
100001.4048
100002.1715
100001.0386
100003.22
81165.76131
81187.2855
81216.59442
81254.89634
81308.16064
81376.69627
81460.89163
81560.52192
81678.32953
81819.57639
81985.4114
82184.21238
82418.06445
82696.5723
83025.30725
83414.8716
83873.76321
84412.71997
85041.92796
85771.05827
86607.42879
87555.08601
88612.28396
89766.88978
90991.06468
92242.19048
93468.3848
94615.12506
95636.64349
96505.31369
97214.13274
97774.11534
98207.84703
98542.38668
98803.52729
99012.58643
99185.04742
99331.06234
99456.44855
99564.33969
99656.28592
99733.41091
99796.77998
99847.76318
99887.9032
99918.88828
99942.36067
99959.84709
99972.67297
99981.94733
99988.5651
99993.22222
99996.46518
99998.67121
100000.1722
100001.1396
100001.6359
100002.3416
100001.1526
100003.3205
81418.78565
81443.83005
81477.64517
81522.4944
81584.52475
81662.18311
81756.42368
81868.71219
82001.18151
82160.01113
82346.00344
82568.56638
82829.94384
83140.40388
83505.77814
83936.66998
84442.78029
85036.65469
85730.0377
86532.98063
87450.70968
88481.11765
89613.70107
90828.42029
92089.06284
93342.80488
94532.59536
95606.65418
96527.41774
97279.16314
97867.10452
98311.83708
98641.95402
98887.20792
99073.68814
99221.64916
99344.91706
99451.86297
99546.63284
99630.86028
99704.78967
99768.40398
99821.79718
99865.51707
99900.43668
99927.70821
99948.56098
99964.20969
99975.7506
99984.12732
99990.11724
99994.33435
99997.26755
99999.25383
100000.5996
100001.452
100001.8714
100002.524
100001.2695
100003.4286
81719.17985
81748.39429
81787.50648
81840.34246
81912.60047
82001.72958
82108.77288
82235.67254
82385.10023
82564.89002
82775.60435
83027.87918
83324.4087
83676.23171
84089.61431
84575.59583
85143.9507
85806.23364
86571.39136
87449.7274
88447.03126
89557.68128
90759.28339
92017.7024
93289.28017
94515.68092
95637.8482
96611.15677
97409.90024
98031.34132
98492.18438
98820.80294
99049.749
99209.77651
99326.09973
99417.21977
99494.96493
99565.80985
99632.23999
99694.46927
99751.5433
99802.41842
99846.32092
99883.06436
99912.92006
99936.55406
99954.81668
99968.63246
99978.88178
99986.35028
99991.70177
99995.4698
99998.08611
99999.84743
100001.0342
100001.7694
100002.1118
100002.7155
100001.3895
100003.5441
82085.5405
82119.93349
82165.62598
82227.80952
82310.42645
82410.70197
82531.74852
82676.42515
82846.12701
83050.56939
83290.21889
83576.94348
83914.00967
84313.35811
84782.29544
85332.7489
85974.04484
86715.91834
87565.79796
88528.182
89601.04308
90778.59462
92033.41239
93313.5168
94564.98772
95730.83806
96755.04732
97603.21155
98263.89422
98747.13234
99079.37034
99294.54704
99427.15826
99507.508
99559.04817
99598.07341
99634.24262
99672.12361
99712.61205
99754.61094
99796.08517
99835.08013
99870.05638
99900.17916
99925.18487
99945.30329
99961.04066
99973.05484
99982.02529
99988.58881
99993.30088
99996.61729
99998.91387
100000.4478
100001.4737
100002.0906
100002.3563
100002.9065
100001.5128
100003.6677
82559.79194
82600.46392
82654.14204
82727.21312
82823.73186
82939.38993
83076.50971
83241.27811
83433.8543
83665.67445
83937.06555
84261.04659
84641.39627
85090.71474
85617.06441
86232.41217
86946.23149
87767.90088
88704.11106
89753.09088
90904.36842
92134.0422
93414.35041
94687.25509
95885.85309
96957.82919
97856.94809
98561.00849
99073.52949
99416.01768
99622.23739
99729.41523
99772.21195
99779.35448
99771.93516
99763.79991
99762.40243
99770.47138
99787.42358
99810.97593
99838.13417
99866.14521
99892.80102
99916.69972
99937.10634
99953.8626
99967.16504
99977.4287
99985.14784
99990.82047
99994.89978
99997.76729
99999.74485
100001.0514
100001.9161
100002.4145
100002.6036
100003.0868
100001.6387
100003.8003
83166.90239
83215.12613
83278.67984
83364.67567
83475.45444
83606.6123
83760.41399
83945.73221
84161.67944
84421.53718
84725.27126
85087.02351
85511.23987
86011.32622
86596.48687
87279.12081
88068.33803
88971.21134
89988.72933
91114.39807
92331.79774
93602.39862
94876.56409
96107.1432
97220.55929
98168.18236
98919.96438
99467.35808
99827.59
100031.4925
100117.5122
100124.0747
100084.5937
100025.4338
99964.98998
99914.5871
99879.53763
99860.85081
99856.59879
99863.44324
99877.54998
99895.47347
99914.4273
99932.51749
99948.59672
99962.16391
99973.13883
99981.71702
99988.22333
99993.02734
99996.48649
99998.91196
100000.5741
100001.655
100002.3596
100002.7401
100002.8529
100003.2576
100001.7645
100003.9412
83848.03802
83905.46002
83979.96852
84078.06818
84201.91381
84351.56994
84526.27169
84737.23414
84982.40334
85277.24059
85621.41198
86030.00105
86507.95786
87068.6736
87720.83818
88475.50821
89341.52146
90324.13907
91419.27577
92610.47816
93868.81042
95151.64791
96392.1196
97542.80948
98538.9342
99336.78725
99925.30114
100310.0711
100519.2866
100590.5313
100564.452
100478.9524
100365.1858
100246.6816
100139.0116
100051.0322
99986.04521
99943.49065
99920.24003
99912.02943
99914.29759
99923.00421
99934.86655
99947.5666
99959.59851
99970.16018
99978.92537
99985.89234
99991.23189
99995.19549
99998.05144
100000.0449
100001.3973
100002.2562
100002.8027
100003.0666
100003.104
100003.4302
100001.8915
100004.0897
84598.0095
84666.90199
84753.74394
84869.26152
85011.89762
85183.29756
85382.84886
85624.3288
85903.97763
86239.61175
86630.84052
87093.52478
87633.04061
88262.37251
88989.46419
89823.34261
90768.78121
91825.58573
92985.93167
94225.15856
95499.82281
96755.14586
97932.00246
98964.94228
99813.27773
100443.0248
100859.5595
101081.8295
101145.712
101092.9162
100964.2254
100795.7288
100615.6833
100444.5687
100295.1639
100173.9935
100082.5183
100018.7724
99978.57091
99956.84759
99948.41816
99948.73577
99954.09491
99961.81441
99970.07833
99977.82142
99984.49981
99989.93523
99994.15898
99997.31439
99999.5872
100001.1609
100002.2111
100002.8528
100003.2442
100003.3935
100003.3566
100003.6116
100002.0237
100004.2456
85465.34011
85548.56819
85649.90446
85785.75052
85947.97256
86142.89966
86368.39532
86642.08093
86958.10322
87336.43501
87776.71086
88295.39745
88898.29171
89597.95517
90401.9074
91316.69739
92341.43286
93467.50443
94675.16348
95935.23542
97193.51693
98386.97536
99460.96317
100343.7406
101020.5229
101471.833
101714.7264
101779.6117
101707.0509
101540.4978
101319.3059
101076.8833
100838.268
100620.8702
100434.8125
100284.4741
100169.662
100087.1686
100031.891
99998.07425
99980.00502
99972.70845
99972.1214
99975.25332
99980.02137
99985.1311
99989.84682
99993.83281
99996.99444
99999.37633
100001.0881
100002.256
100003.0128
100003.443
100003.6832
100003.72
100003.6099
100003.8024
100002.1619
100004.4086
86440.89512
86542.13214
86658.97112
86815.94447
86999.71703
87221.3611
87475.55598
87784.85454
88141.39352
88567.01156
89061.38201
89641.09054
90311.8668
91084.80607
91965.23483
92955.3768
94049.20339
95230.00594
96465.53977
97712.53542
98916.10467
100010.2289
100939.8335
101653.2143
102144.5513
102414.1225
102487.5363
102403.8482
102205.7712
101936.529
101632.9778
101325.3443
101035.3661
100777.4986
100559.4081
100383.5386
100248.2324
100149.1983
100080.5426
100035.9245
100009.1853
99994.99114
99988.97831
99987.89408
99989.42677
99992.08305
99994.95852
99997.5774
99999.73162
100001.3759
100002.5499
100003.327
100003.8003
100004.0254
100004.1186
100004.0456
100003.8648
100003.9966
100002.3067
100004.5785
87527.33128
87649.3366
87779.78548
87957.11936
88164.89259
88418.6766
88707.14503
89057.77354
89460.87002
89939.63829
90493.65783
91138.92113
91880.45096
92726.81454
93679.89506
94736.24301
95882.16791
97091.90585
98325.35858
99522.95103
100631.5998
101589.4241
102345.3014
102875.3451
103175.6597
103266.0085
103178.4949
102957.4924
102645.8488
102285.0873
101908.93
101544.2148
101209.4656
100916.3805
100670.402
100472.2531
100318.9933
100205.3937
100124.8854
100070.633
100036.1057
100015.6707
100004.7135
99999.76026
99998.30385
99998.67879
99999.83272
100001.1654
100002.3666
100003.3095
100003.9696
100004.3717
100004.5717
100004.5991
100004.5501
100004.37
100004.1226
100004.1913
100002.4588
100004.755
88734.33691
88881.03598
89032.53167
89240.11441
89473.90597
89762.41632
90088.18208
90483.04704
90935.67638
91470.05682
92085.54874
92796.71455
93607.12648
94521.70802
95537.54715
96644.04578
97818.92754
99026.87347
100217.1791
101329.03
102306.2698
103097.3287
103662.7201
103998.6262
104109.2709
104027.8378
103790.9168
103445.185
103032.1464
102590.6434
102150.9744
101736.5917
101362.9995
101039.3805
100769.1936
100551.6476
100382.6878
100256.2794
100165.2805
100102.4412
100060.9224
100034.8444
100019.3847
100010.884
100006.669
100004.9255
100004.4714
100004.5961
100004.8977
100005.175
100005.3451
100005.3883
100005.3261
100005.1631
100004.9769
100004.6929
100004.3831
100004.3865
100002.6188
100004.9374
90091.69503
90267.75627
90440.39729
90676.41424
90937.56428
91262.29062
91626.96753
92067.3826
92570.73429
93160.98596
93837.08637
94611.225
95484.63908
96457.45183
97520.59025
98655.19296
99829.77633
100999.5701
102107.141
103096.266
103910.7778
104512.5764
104877.4703
105017.2841
104945.2588
104703.121
104329.9938
103872.5271
103369.9047
102857.7295
102362.8366
101905.4363
101498.2655
101148.2488
100857.095
100622.6909
100440.0194
100302.3567
100202.0778
100131.5875
100083.7934
100052.6137
100033.0548
100021.3028
100014.5432
100010.834
100008.8797
100007.8713
100007.3246
100006.9714
100006.6753
100006.3758
100006.0625
100005.7171
100005.3988
100005.0141
100004.6459
100004.5817
100002.7876
100005.125
91587.40001
91795.72796
91990.8421
92259.49865
92549.75477
92912.35823
93317.76369
93804.73186
94359.29291
95004.40205
95738.43991
96570.22678
97497.51739
98514.37592
99604.31058
100739.5804
101879.9744
102973.6866
103962.1237
104794.4004
105421.417
105820.189
105982.2315
105930.7647
105687.0824
105297.5268
104802.0049
104245.5249
103664.3922
103090.7287
102548.0347
102053.5049
101617.3855
101244.5967
100935.315
100686.2784
100491.6424
100344.0962
100235.6093
100158.3014
100104.8737
100069.0806
100045.7889
100031.0567
100021.9505
100016.418
100013.0645
100010.994
100009.6484
100008.6984
100007.9595
100007.3336
100006.7805
100006.2605
100005.8154
100005.3335
100004.9109
100004.7767
100002.966
100005.3168
93225.41377
93463.98364
93677.17855
93979.50558
94300.96803
94702.35757
95149.67169
95683.64687
96289.53349
96987.89841
97775.84438
98657.63933
99626.1355
100668.1333
101759.037
102862.6928
103932.1437
104912.4545
105748.678
106397.5438
106821.0692
107011.7394
106975.3128
106742.4809
106340.6895
105817.9602
105213.6853
104570.1917
103920.6669
103293.7411
102709.807
102183.3109
101722.2857
101329.8854
101004.9513
100743.2265
100538.1566
100381.9325
100266.185
100182.7997
100124.3117
100084.3443
100057.6518
100040.1869
100028.916
100021.6923
100017.0342
100013.9685
100011.8706
100010.3567
100009.1977
100008.2614
100007.4798
100006.7931
100006.2263
100005.6507
100005.1777
100004.9709
100003.1548
100005.5118
94981.80439
95251.47773
95484.80531
95821.7494
96178.56643
96622.28685
97114.77695
97697.16128
98354.2866
99102.86123
99937.60698
100857.1402
101848.4231
102890.5427
103951.1863
104987.5381
105949.0833
106782.1041
107438.9736
107885.7837
108099.9055
108085.0825
107859.7495
107458.62
106913.492
106271.8543
105571.7672
104852.2771
104143.4313
103470.511
102851.0794
102297.1122
101814.6924
101405.4248
101066.9906
100794.2721
100580.1068
100416.263
100294.0906
100205.2842
100142.2473
100098.4997
100068.7065
100048.734
100035.4653
100026.6724
100020.7977
100016.7996
100013.9939
100011.9472
100010.3904
100009.1594
100008.1603
100007.3147
100006.6311
100005.9654
100005.4461
100005.1639
100003.3548
100005.7092
96859.32427
97168.02772
97431.21297
97804.32967
98198.10724
98684.81813
99222.42359
99850.23295
100552.7981
101342.1477
102209.6878
103147.6051
104136.4834
105148.0569
106143.6847
107076.5778
107896.369
108554.343
109012.6113
109248.5239
109254.8508
109042.9804
108641.651
108086.9747
107413.4907
106666.6481
105882.6794
105097.1024
104336.9538
103624.3962
102974.4572
102396.9134
101896.1375
101472.3793
101122.3125
100840.0748
100617.9829
100447.4478
100319.5867
100225.9407
100158.8107
100111.6362
100079.0128
100056.7375
100041.6237
100031.3739
100024.3644
100019.4924
100016.0208
100013.4713
100011.5381
100010.0279
100008.8219
100007.825
100007.0293
100006.2775
100005.7155
100005.3552
100003.5669
100005.9077
98889.18568
99242.37022
99538.09693
99946.17882
100372.8115
100896.4818
101472.7274
102137.0711
102873.1597
103687.541
104567.6413
105498.8508
106455.4405
107402.9413
108298.6087
109094.8945
109745.0659
110208.2051
110457.5889
110482.7435
110288.122
109891.6826
109329.1403
108636.1817
107848.7806
107009.4804
106152.3829
105309.4929
104505.0534
103758.3764
103082.2436
102484.4834
101967.9741
101531.7795
101171.6983
100881.2231
100652.2245
100475.8115
100342.9101
100244.9393
100174.1216
100123.8368
100088.6272
100064.2348
100047.4153
100035.8121
100027.7433
100022.0524
100017.9544
100014.9307
100012.6418
100010.867
100009.4645
100008.3236
100007.4205
100006.5866
100005.9854
100005.5446
100003.7917
100006.1067
101076.2842
101469.1487
101787.7681
102228.2372
102684.6744
103238.8149
103845.4701
104535.095
105289.644
106109.4633
106977.8751
107873.9423
108766.5203
109616.7934
110380.6704
111013.0453
111473.5646
111730.6894
111769.3597
111590.3232
111205.7955
110639.5742
109931.3039
109115.0197
108227.1598
107306.9578
106386.2687
105493.7422
104651.0967
103875.0652
103176.4541
102561.3711
102031.3887
101584.5319
101215.8378
100918.2388
100683.2232
100501.645
100364.2742
100262.434
100188.2897
100135.1779
100097.602
100071.261
100052.8633
100040.0015
100030.9435
100024.4849
100019.798
100016.3273
100013.7025
100011.6771
100010.0881
100008.8103
100007.8042
100006.8924
100006.2551
100005.732
100004.0297
100006.3047
103401.3833
103830.0485
104168.9202
104635.5117
105115.5615
105690.1174
106314.3978
107013.7254
107768.245
108571.2341
109401.5868
110233.0773
111030.8322
111753.978
112359.8844
112808.6128
113067.8651
113116.0128
112949.3126
112577.3282
112016.3454
111296.0365
110457.4127
109531.9042
108555.8479
107565.0213
106589.1101
105653.6158
104778.019
103976.7353
103258.8411
102628.9249
102087.4172
101631.4307
101255.3376
100951.5829
100711.3268
100525.208
100383.8704
100278.5641
100201.4146
100145.7296
100105.9856
100077.8488
100057.989
100043.9561
100033.9738
100026.7953
100021.5547
100017.6631
100014.7211
100012.4586
100010.6925
100009.2845
100008.1797
100007.1946
100006.5238
100005.9175
100004.2816
100006.4984
105836.4713
106295.6193
106650.3712
107135.4883
107632.6105
108218.2723
108846.9983
109538.1605
110271.4446
111033.7686
111799.4656
112538.0993
113213.3701
113784.8971
114213.8292
114467.2619
114521.5838
114364.7363
114003.1237
113451.676
112729.4483
111870.7918
110916.4661
109894.644
108841.3745
107788.9514
106765.0977
105792.4002
104888.3728
104065.3614
103330.9288
102688.3202
102136.9654
101673.1726
101290.7321
100981.6632
100736.8439
100546.7319
100401.8704
100293.4549
100213.5865
100155.5556
100113.8223
100084.0282
100062.8125
100047.6888
100036.8423
100028.9888
100023.228
100018.9398
100015.6985
100013.2117
100011.2774
100009.746
100008.5464
100007.4931
100006.7908
100006.1006
100004.5476
100006.6834
108371.1566
108852.8042
109214.4318
109702.0302
110203.437
110788.1546
111407.8434
112073.0986
112762.3637
113458.8155
114134.2571
114755.0408
115285.2771
115687.4774
115928.1755
115982.341
115834.81
115482.2001
114939.0825
114222.5247
113355.3007
112373.4344
111316.8979
110210.3399
109089.5401
107983.3989
106917.8886
105912.951
104984.3729
104142.6579
103394.0425
102740.5823
102180.8258
101710.3697
101322.4926
101008.8407
100760.0492
100566.4236
100418.4278
100307.2194
100224.8869
100164.714
100121.1525
100089.827
100067.3525
100051.2118
100039.5571
100031.0707
100024.8209
100020.1594
100016.6356
100013.9364
100011.8428
100010.1941
100008.904
100007.7875
100007.0551
100006.281
100004.8258
100006.8607
110941.9403
111434.7408
111811.226
112313.3943
112806.4142
113369.0566
113959.3682
114578.3947
115202.8311
115810.3771
116372.9513
116856.0028
117225.1591
117447.5631
117496.109
117353.6232
117012.5363
116476.8553
115767.0444
114900.6455
113904.0213
112812.9569
111666.3254
110485.2971
109305.4163
108152.3897
107050.6376
106017.7257
105067.9256
104210.1028
103449.3283
102786.6002
102219.6885
101743.557
101351.0325
101033.4333
100781.1852
100584.4665
100433.6798
100319.9584
100235.3891
100173.257
100128.013
100095.2705
100071.6261
100054.5366
100042.1257
100033.0457
100026.3365
100021.3235
100017.5331
100014.633
100012.3883
100010.6286
100009.252
100008.0779
100007.3158
100006.4591
100005.1139
100007.0344
113579.6321
114070.2954
114432.5763
114910.7078
115388.6972
115917.6084
116461.8035
117015.7977
117556.2714
118056.5081
118488.6292
118820.024
119018.9795
119058.0601
118916.8988
118585.5118
118062.772
117358.6596
116497.5239
115496.7314
114384.971
113197.43
111971.4359
110724.9966
109493.3746
108299.3693
107166.0414
106108.8249
105140.6634
104268.9658
103497.7746
102827.1447
102254.1543
101773.2021
101376.715
101055.7214
100800.4669
100601.0235
100447.7486
100331.7626
100245.1592
100181.2322
100134.4372
100100.3819
100075.649
100057.6739
100044.5552
100034.9185
100027.7777
100022.4337
100018.3916
100015.3015
100012.9138
100011.049
100009.5899
100008.364
100007.5719
100006.6357
100005.4106
100007.2053
116217.4939
116688.176
117034.9804
117483.012
117926.1104
118404.3149
118884.8587
119356.066
119794.3165
120172.8226
120462.8103
120634.6743
120660.6269
120518.7656
120195.2143
119686.1874
118995.7739
118138.5864
117141.2897
116020.6479
114806.7541
113534.1031
112238.189
110934.2511
109657.2243
108427.335
107266.4419
106188.0751
105204.0102
104320.3584
103540.2504
102862.8958
102284.7554
101799.7215
101399.8641
101075.9562
100818.0874
100616.2418
100460.745
100342.7141
100254.2575
100188.683
100140.4561
100105.1828
100079.4362
100060.6339
100046.8525
100036.6937
100029.1472
100023.4915
100019.2118
100015.942
100013.4192
100011.4549
100009.9175
100008.6457
100007.8224
100006.8112
100005.7147
100007.3728
118809.2344
119251.252
119574.7065
119981.7123
120379.0882
120793.0745
121196.1255
121571.0166
121895.1524
122142.1405
122283.9738
122294.356
122149.965
121834.1858
121338.9834
120665.7208
119822.5413
118827.5628
117708.573
116481.376
115176.9888
113829.3267
112471.8003
111117.1634
109800.2096
108538.8377
107353.8315
106257.0345
105259.1849
104365.2367
103577.5068
102894.4447
102311.9572
101823.4804
101420.7661
101094.3603
100834.2185
100630.253
100472.7684
100352.8873
100262.7386
100195.6491
100146.098
100109.6933
100083.0017
100063.4262
100049.0243
100038.3756
100030.4477
100024.4982
100019.9944
100016.5548
100013.9043
100011.8461
100010.2346
100008.9228
100008.0663
100006.9859
100006.0254
100007.5365
121335.603
121734.0928
122023.559
122376.7828
122716.402
123054.8558
123369.6159
123639.0919
123842.4493
123953.5422
123946.6424
123798.7986
123491.1731
123011.9272
122358.0122
121534.9872
120554.0631
119435.995
118208.7445
116886.9132
115502.3981
114088.6781
112676.7667
111277.2518
109925.1288
108636.0794
107429.9392
106317.0619
105307.2562
104404.444
103610.2094
102922.3175
102336.1752
101844.8066
101439.6782
101111.1346
100849.0159
100643.1761
100483.9093
100362.3501
100270.6529
100202.1672
100151.3893
100113.9321
100086.3588
100066.0602
100051.0768
100039.9682
100031.6816
100025.4554
100020.74
100017.1401
100014.3693
100012.2223
100010.541
100009.1949
100008.3026
100007.1611
100006.3407
100007.6961
123744.0676
124092.1206
124343.1779
124635.8236
124910.3078
125166.2074
125386.452
125546.3422
125627.0156
125602.9516
125451.5891
125152.849
124692.2342
124062.0472
123263.3733
122305.2377
121201.0336
119973.5794
118650.1538
117244.3579
115788.8807
114316.9389
112856.7867
111417.5656
110034.39
108720.9609
107496.2646
106369.3407
105349.1604
104438.7221
103638.947
102946.9822
102357.7805
101863.9939
101456.8317
101126.4601
100862.62
100655.1195
100494.2501
100371.1643
100278.0463
100208.2711
100156.3546
100117.9169
100089.52
100068.5446
100053.016
100041.4755
100032.8514
100026.3643
100021.4494
100017.6982
100014.8141
100012.5833
100010.8368
100009.4616
100008.5305
100007.3384
100006.6568
100007.8502
126020.8268
126307.7439
126512.624
126737.6672
126941.4196
127111.1816
127234.8476
127285.5227
127246.083
127092.1334
126804.0042
126364.5718
125763.0096
124995.3943
124066.1994
122987.2027
121773.3024
120448.8659
119040.0019
117559.893
116041.5227
114518.09
113014.9224
111540.7707
110130.0848
108795.1385
107554.12
106414.9136
105385.7266
104468.7319
103664.2472
102968.8598
102377.1088
101881.3085
101472.437
101140.5019
100875.1595
100666.1823
100503.8665
100379.3874
100284.9616
100213.9923
100161.0169
100121.6643
100092.4973
100070.8879
100054.8477
100042.9012
100033.9593
100027.2264
100022.1233
100018.2295
100015.2388
100012.9288
100011.1219
100009.7223
100008.7487
100007.5182
100006.9704
100007.9986
128121.5046
128345.8243
128504.7607
128662.0905
128795.3082
128880.6756
128910.1798
128855.932
128702.6119
128427.2338
128012.2388
127443.9327
126714.4044
125823.0824
124777.2745
123590.8531
122279.7127
120869.3896
119384.7847
117838.9012
116264.6855
114695.5992
113154.1671
111649.1642
110214.0318
108860.0578
107604.6602
106454.7049
105417.6956
104495.0687
103686.5884
102988.3341
102394.4671
101896.9956
101486.6887
101153.4135
100886.7544
100676.4577
100512.8301
100387.0735
100291.4396
100219.3613
100165.3986
100125.1908
100095.3025
100073.0983
100056.5777
100044.2492
100035.008
100028.0433
100022.7628
100018.7346
100015.6436
100013.2588
100011.3965
100009.9763
100008.9565
100007.7007
100007.2795
100008.145
130030.1715
130192.1739
130308.5456
130401.7059
130467.3908
130473.1582
130413.9479
130261.8311
130003.2374
129616.4543
129086.2388
128401.6806
127557.5423
126555.9335
125406.7297
124125.2725
122728.1778
121242.0744
119690.6501
118086.0567
116462.1825
114852.7745
113277.6423
111744.6915
110287.8251
108917.0065
107648.9225
106489.5507
105445.7422
104518.2779
103706.4103
103005.7599
102410.1408
101911.2835
101499.7683
101165.3384
100897.5174
100686.0334
100521.2086
100394.2745
100297.5195
100224.4074
100169.5215
100128.5125
100097.9474
100075.1844
100058.2117
100045.5234
100036
100028.8167
100023.3689
100019.2141
100016.0288
100013.5734
100011.6609
100010.2226
100009.1535
100007.8864
100007.584
100008.2933
131740.8724
131845.8438
131922.9837
131957.2096
131959.7138
131892.3446
131751.9046
131510.9784
131157.1403
130670.0364
130036.9158
129248.8864
128303.1398
127204.0958
125963.8249
124598.5989
123125.7862
121573.2062
119962.7595
118305.3438
116637.399
114992.6324
113387.5344
111829.0223
110352.8888
108967.1465
107687.8479
106520.215
105470.4871
104538.8634
103724.1223
103021.4686
102424.3969
101924.3865
101511.847
101176.4124
100907.5552
100694.9927
100529.0663
100401.0398
100303.2389
100229.159
100173.407
100131.6451
100100.4434
100077.1543
100059.7555
100046.7279
100036.9381
100029.5486
100023.9428
100019.6688
100016.3947
100013.8727
100011.9151
100010.4602
100009.3397
100008.0768
100007.8808
100008.4349
133263.5171
133314.6666
133353.0933
133334.2068
133279.2538
133146.4322
132933.3693