/*--------------------------------*- C++ -*----------------------------------*\
  =========                 |
  \\      /  F ield         | OpenFOAM: The Open Source CFD Toolbox
   \\    /   O peration     | Website:  https://openfoam.org
    \\  /    A nd           | Version:  12
     \\/     M anipulation  |
\*---------------------------------------------------------------------------*/
FoamFile
{
    format      ascii;
    class       surfaceScalarField;
    location    "150";
    object      phi;
}
// * * * * * * * * * * * * * * * * * * * * * * * * * * * * * * * * * * * * * //

dimensions      [1 0 -1 0 0 0 0];

internalField   nonuniform List<scalar> 
32120
(
-0.0006548792597
-0.04754577526
0.04820065452
-0.00148547258
-0.0675166737
0.06834743163
-0.002511378928
-0.08775455173
0.08878057133
-0.003754737537
-0.1114560284
0.1126995022
-0.005171347989
-0.1404366122
0.1418533665
-0.00660125459
-0.1768215651
0.1782516773
-0.008018452605
-0.2231976127
0.2246151334
-0.01103386937
-0.2797228979
0.282738838
-0.01812092331
-0.3396897225
0.3467775849
-0.0279400838
-0.4053865288
0.415206816
-0.03971749996
-0.482644736
0.494423586
-0.05370486081
-0.5745374067
0.5885265003
-0.07033313237
-0.6836558556
0.7002861639
-0.09011577586
-0.8135652547
0.8333502632
-0.1136548543
-0.9681519337
0.9916937367
-0.14167528
-1.152088612
1.180112151
-0.175034195
-1.370824617
1.404187049
-0.2147601642
-1.630863908
1.670593814
-0.2620819029
-1.93989065
1.987216719
-0.3184894911
-2.307040889
2.363453216
-0.3857634457
-2.743054581
2.810333551
-0.4660495276
-3.260494975
3.340786418
-0.5619435635
-3.87417585
3.970075186
-0.6765843006
-4.601496021
4.716142308
-0.8137836324
-5.462748086
5.599952226
-0.9781565402
-6.481649745
6.646027561
-1.175279544
-7.685956716
7.88308302
-1.411826098
-9.108229535
9.344778974
-1.69566387
-10.78693034
11.0707702
-2.035898234
-12.76793444
13.10817381
-2.442890281
-15.10650904
15.51350675
-2.928305833
-17.86973389
18.35515806
-3.505302804
-21.13920221
21.71620909
-4.188967937
-25.01398537
25.69765887
-4.996924178
-29.61367631
30.42164009
-5.950169046
-35.08203275
36.03528442
-7.073756422
-41.59082384
42.71441683
-8.397576989
-49.34506298
50.66889071
-9.956719626
-58.58849952
60.14764643
-11.79198485
-69.61137222
71.44664484
-13.9499119
-82.75856479
84.91649461
-16.48296218
-98.44095065
100.9740073
-19.44907253
-117.1477021
120.113813
-22.91098881
-139.4626146
142.9245344
-26.93449201
-166.0825124
170.1060136
-31.5854895
-197.8406751
202.4916761
-36.92483051
-235.7341261
241.0734662
-43.00019522
-280.9576064
287.0329746
-49.83317661
-334.9441625
341.7771434
-57.39973206
-399.415283
406.9818409
-65.60062426
-476.4419373
484.6428287
-74.21761528
-568.520138
577.1371305
-82.8488479
-678.6641831
687.2954145
-90.81444621
-810.5231808
818.4887799
-97.01933303
-968.5268481
974.731734
-99.75432968
-1158.069786
1160.804783
-96.41040972
-1385.744656
1382.400735
-83.06514997
-1659.650033
1646.304773
-53.89308835
-1989.7428
1960.570738
-2388.420066
2334.847353
-0.0005796843327
-0.04696601606
-0.001323730045
-0.06677246287
-0.002236517031
-0.08684163277
-0.00333056826
-0.1103618294
-0.004555522256
-0.139211459
-0.005752398226
-0.1756243864
-0.0069974886
-0.2219520355
-0.01068709654
-0.2760325248
-0.01762504759
-0.3327506704
-0.0263835505
-0.3966265921
-0.03682186687
-0.472204671
-0.04924898496
-0.5621082284
-0.06404161649
-0.6688608323
-0.08166867467
-0.7959354369
-0.1026754002
-0.9471420497
-0.1277196449
-1.127040781
-0.157578104
-1.340962138
-0.1931868436
-1.595250697
-0.2356717623
-1.897400858
-0.2863941069
-2.256313241
-0.3469836137
-2.682459544
-0.41941178
-3.188060926
-0.5060869037
-3.78749508
-0.6099397594
-4.497637288
-0.7345487706
-5.338134261
-0.8842667866
-6.331926911
-1.06436752
-7.505852802
-1.281142956
-8.891450196
-1.54196718
-10.52609883
-1.855288742
-12.45460359
-2.230581304
-14.73120295
-2.678357925
-17.4219356
-3.210369123
-20.60717592
-3.839998459
-24.38432872
-4.582942976
-28.87072438
-5.457910317
-34.20703122
-6.487412879
-40.56131796
-7.698337214
-48.1340985
-9.122468808
-57.16436538
-10.79678452
-67.93701902
-12.76364678
-80.79169827
-15.07080306
-96.13376914
-17.7710923
-114.4474163
-20.92171911
-136.3119812
-24.58270441
-162.4215239
-28.81419258
-193.6091796
-33.67178445
-230.8765254
-39.19914276
-275.4302449
-45.4163153
-328.7269816
-52.30197982
-392.5296199
-59.76664415
-468.9772665
-67.61289121
-560.6738964
-75.47677666
-670.800292
-82.74215767
-803.2578061
-88.41620256
-962.8527941
-90.94892769
-1155.537063
-87.97376505
-1388.719819
-75.93261139
-1671.69119
-49.54009034
-2016.135329
-2436.942952
-0.0004611538561
-0.04650475717
-0.001035263495
-0.06619813861
-0.001723761782
-0.08615295892
-0.002510803121
-0.1095745878
-0.003310962585
-0.1384110243
-0.003982867003
-0.1749520577
-0.004823206113
-0.2211110154
-0.00858649361
-0.2722681916
-0.01495050006
-0.3263852098
-0.02277486987
-0.3888003772
-0.03209694763
-0.4628803778
-0.04319800662
-0.5510045802
-0.05641398487
-0.6556418632
-0.0721652036
-0.7801807891
-0.09093884829
-0.9283645152
-0.113328402
-1.104646861
-0.1400341272
-1.314251593
-0.1719028623
-1.563376697
-0.2099568198
-1.859341307
-0.2554425161
-2.210821619
-0.309864102
-2.628032038
-0.3750548994
-3.122864051
-0.4532712406
-3.709273327
-0.5472793953
-4.403623711
-0.6604703051
-5.224939538
-0.7969843142
-6.195409246
-0.9618333371
-7.341002264
-1.160966682
-8.692315152
-1.40127381
-10.28578946
-1.690509895
-12.16536204
-2.037218219
-14.38448907
-2.450736573
-17.00840768
-2.941439107
-20.11646768
-3.521163564
-23.80459338
-4.203887375
-28.18799728
-5.006381847
-33.40452524
-5.948935721
-39.6187624
-7.055852271
-47.02717016
-8.355942348
-55.86427442
-9.882766751
-66.41018427
-11.67484906
-78.99961602
-13.77563818
-94.03297286
-16.23327422
-111.9897819
-19.09988884
-133.4453618
-22.43023035
-159.0911839
-26.27918618
-189.7602199
-30.69758419
-226.4581277
-35.72546955
-270.4023565
-41.38154943
-323.070902
-47.64709443
-386.2640731
-54.44167126
-462.1826903
-61.58711545
-553.5284515
-68.75441184
-663.6329964
-75.38606984
-796.6261478
-80.58325048
-957.6556142
-82.94225284
-1153.17806
-80.31921001
-1391.342862
-69.49044721
-1682.519952
-45.66638548
-2039.959391
-2480.812072
-0.0003580678698
-0.04614657396
-0.0007914671314
-0.06576451143
-0.00129659125
-0.08564764473
-0.001818293306
-0.1090526651
-0.002216483889
-0.1380125247
-0.002385574293
-0.1747824851
-0.003297908095
-0.2201979132
-0.007166500417
-0.2683984515
-0.0129173075
-0.320632859
-0.01985071674
-0.3818650532
-0.02810649081
-0.4546223299
-0.03794645619
-0.5411619688
-0.04966442264
-0.6439208458
-0.06363660647
-0.7662051148
-0.08029894842
-0.9116982248
-0.1001867807
-1.084754609
-0.123935488
-1.290498025
-0.1523163537
-1.534990537
-0.1862653413
-1.825386738
-0.2269344535
-2.170146619
-0.2757250214
-2.579235702
-0.3343529627
-3.064230228
-0.4049434678
-3.638677843
-0.4901195599
-4.318442689
-0.5931175451
-5.121938515
-0.7178995838
-6.070624472
-0.8692462999
-7.189654267
-1.052772079
-8.508788782
-1.274858527
-10.06370109
-1.542531683
-11.89768414
-1.863371807
-14.06364367
-2.245564451
-16.62620798
-2.698195236
-19.66383144
-3.231726894
-23.27105428
-3.858641429
-27.56107893
-4.59404566
-32.6691133
-5.456289845
-38.75651553
-6.467407034
-46.01604477
-7.653542297
-54.67813719
-9.045176436
-65.01854269
-10.67733146
-77.36745999
-12.58953692
-92.12076232
-14.82562866
-109.7536907
-17.43310863
-130.8378787
-20.46190748
-156.0623855
-23.96213282
-186.259992
-27.98028363
-222.4399766
-32.55316018
-265.8294778
-37.69832736
-317.9257346
-43.39954675
-380.5628526
-49.58482872
-455.9974086
-56.09382705
-547.0194527
-62.62975709
-657.0970668
-68.68917299
-790.5667318
-73.45973112
-952.8850564
-75.67223386
-1150.965558
-73.38749288
-1393.627603
-63.68905997
-1692.218385
-42.24272039
-2061.405731
-2520.386487
-0.0002610199845
-0.04588540976
-0.0005487774919
-0.06547651718
-0.0008592211372
-0.08533699469
-0.001107280094
-0.1088043586
-0.001105057064
-0.1380143917
-0.000767698185
-0.1751192827
-0.001944291368
-0.2190204407
-0.005684555781
-0.2646569231
-0.01077462675
-0.3155411464
-0.01686987928
-0.3757678062
-0.02413559764
-0.4473542691
-0.0328024766
-0.53249238
-0.04313249601
-0.6335877195
-0.05546442865
-0.7538696532
-0.07019072787
-0.8969679708
-0.08779643606
-1.06714452
-0.1088610543
-1.269428655
-0.1340897177
-1.509756765
-0.1643423509
-1.795128821
-0.2006815059
-2.133801962
-0.2444151269
-2.535496849
-0.2971548255
-3.011485223
-0.3609220614
-3.574906346
-0.4382367688
-4.241123722
-0.5322252761
-5.02794766
-0.64671033
-5.9561374
-0.7862571947
-7.050106174
-0.9561262221
-8.338918932
-1.162144551
-9.857680066
-1.41055607
-11.64926756
-1.707957461
-13.76623574
-2.061423649
-16.27273447
-2.478869263
-19.2463795
-2.969557233
-22.78035944
-3.544691763
-26.98593965
-4.217953916
-31.99584469
-5.006009665
-37.96845627
-5.92888936
-45.0931585
-7.010351343
-53.59667256
-8.278097993
-63.75079015
-9.763965111
-75.88159123
-11.50390989
-90.38081365
-13.53783635
-107.719764
-15.90902277
-128.46669
-18.66300844
-153.3083997
-21.84556155
-183.0774371
-25.49926676
-218.7862707
-29.65802616
-261.6707169
-34.33845198
-313.2453082
-39.52671491
-375.3745889
-45.15871758
-450.3654059
-51.09063891
-541.0875312
-57.05551265
-651.1321932
-62.59970031
-785.0225441
-66.9905708
-948.4941861
-69.0827092
-1148.873419
-67.12520922
-1395.585103
-58.48406119
-1700.859534
-39.24356399
-2080.646228
-2555.991292
-0.0001771033129
-0.04570815644
-0.0003226419527
-0.06533074365
-0.0004330307383
-0.08522639573
-0.0004021802521
-0.108834951
-2.812402894e-05
-0.1383880703
0.0006120241793
-0.1757588363
-0.0008322950242
-0.2175752126
-0.004273824434
-0.2612141306
-0.008746390842
-0.3110669793
-0.01409121644
-0.3704210629
-0.02046861133
-0.4409746372
-0.0280858717
-0.5248725402
-0.03717307864
-0.6244975662
-0.04803604121
-0.7430033591
-0.06102736767
-0.8839729333
-0.07658480657
-1.051582995
-0.09523483014
-1.25077424
-0.11761968
-1.487367228
-0.1445314058
-1.768212327
-0.1769570998
-2.101371337
-0.2161260259
-2.496323383
-0.2635828918
-2.964023737
-0.3212894064
-3.517196335
-0.3917070888
-4.170702435
-0.4778843491
-4.941768511
-0.583513239
-5.850506823
-0.7129232871
-6.920694481
-0.8709710489
-8.180869089
-1.062865748
-9.665782503
-1.294024165
-11.41810427
-1.570070035
-13.49018463
-1.897049476
-15.94574947
-2.28185337
-18.86157067
-2.732728101
-22.32947978
-3.259800055
-26.45886389
-3.875526444
-31.38011374
-4.595100729
-37.24887906
-5.436773187
-44.25148123
-6.422159405
-52.611284
-7.576450017
-62.59649515
-8.928587974
-74.5294517
-10.51127971
-88.79811909
-12.36084721
-105.870196
-14.51672343
-126.3108123
-17.02045848
-150.8046643
-19.91389
-180.1840043
-23.23607702
-215.4640829
-27.018347
-257.8884459
-31.27654864
-308.987106
-35.99919307
-370.651944
-41.12959494
-445.2350039
-46.53930433
-535.6778218
-51.98893612
-645.6825614
-57.07090411
-779.9405762
-61.12608037
-944.43901
-63.1230932
-1146.876406
-61.48440376
-1397.223792
-53.83587165
-1708.508066
-36.64676138
-2097.835338
-2587.920287
-0.0001040371352
-0.04560398215
-0.0001151763866
-0.06531940244
-2.714250146e-05
-0.08531424339
0.000298095404
-0.1091599543
0.001061426437
-0.1391510526
0.001664143379
-0.1763610095
1.221748634e-05
-0.2159224805
-0.0031552318
-0.2580455967
-0.007070938253
-0.3071499277
-0.01174975039
-0.3657406566
-0.01733328661
-0.4353892504
-0.02400698771
-0.5181967108
-0.03197113448
-0.6165309967
-0.04149505025
-0.7334767122
-0.05289282363
-0.8725721306
-0.06655555721
-1.037916932
-0.08296431234
-1.234361926
-0.1027172949
-1.467610436
-0.1265541227
-1.744371672
-0.1554225523
-2.072498902
-0.1905144589
-2.461227904
-0.233334963
-2.921199483
-0.285809627
-3.464719008
-0.3503603065
-4.106148832
-0.4299635776
-4.862163694
-0.5281630357
-5.752306157
-0.6490084288
-6.799846884
-0.7968896488
-8.032984927
-0.9763364346
-9.486331322
-1.191919691
-11.20251552
-1.448341083
-13.23375692
-1.750739272
-15.64334506
-2.105147857
-18.50715663
-2.518974711
-21.91564792
-3.001443548
-25.97639103
-3.563954259
-30.81759884
-4.220400796
-36.59242958
-4.987439402
-43.48443848
-5.884755587
-51.71396552
-6.935265276
-61.5459818
-8.165288146
-73.29942724
-9.604576377
-87.35882859
-11.28619741
-104.1885744
-13.24609542
-124.3509131
-15.52220422
-148.5285549
-18.15281484
-177.5533928
-21.17382553
-212.4430714
-24.61429822
-254.4479725
-28.48949632
-305.1119072
-32.79023269
-366.3512073
-37.46680277
-440.5584335
-42.40508935
-530.7395353
-47.39131639
-640.6963343
-52.06049042
-775.2714023
-55.82137155
-940.6781288
-57.74782076
-1144.949957
-56.42206465
-1398.549549
-49.70933177
-1715.220799
-34.43331116
-2113.111359
-2616.438373
-3.868353962e-05
-0.04556516883
6.795405383e-05
-0.06542585579
0.0003440124972
-0.08559012728
0.0009612997763
-0.1097770168
0.002105968656
-0.1402953841
0.002428206107
-0.1766827297
0.0006090962981
-0.2141026296
-0.002213832328
-0.2552216995
-0.005598859368
-0.3037637188
-0.009648270629
-0.3616898561
-0.0144833276
-0.4305525888
-0.02026612803
-0.5124120736
-0.02717189609
-0.6096231511
-0.03543893635
-0.7252073461
-0.04535175061
-0.8626567618
-0.05726669607
-1.0259992
-0.07163436603
-1.219991323
-0.0890196334
-1.450222047
-0.1101336108
-1.723254641
-0.1359057378
-2.04672356
-0.1675158218
-2.429615104
-0.2064460985
-2.882266235
-0.254591079
-3.416572076
-0.3143333073
-4.046404219
-0.3885754404
-4.787919999
-0.4806859541
-5.660194447
-0.5943756852
-6.686154917
-0.733498479
-7.893858492
-0.9018609932
-9.317964697
-1.103205462
-11.00116622
-1.341407459
-12.9955503
-1.620848515
-15.36389944
-1.946875448
-18.18112575
-2.326218485
-21.53630132
-2.767341965
-25.53526463
-3.280721561
-30.30421625
-3.879091018
-35.99405798
-4.577668918
-42.78585747
-5.394395033
-50.89723767
-6.350125807
-60.59024823
-7.468802033
-72.18074975
-8.777499975
-86.05012896
-10.30633772
-102.659736
-12.08810183
-122.5691483
-14.15746219
-146.4591941
-16.54952243
-175.161332
-19.29736553
-209.6952276
-22.42807808
-251.3172594
-25.95652134
-301.5834634
-29.87578063
-362.4319478
-34.14276443
-436.2914494
-38.65676489
-526.2255349
-43.2278174
-636.1252816
-47.53042797
-770.9687919
-51.03616878
-937.1723879
-52.91609311
-1143.070033
-51.89989604
-1399.565746
-46.07351177
-1721.047183
-32.58726079
-2126.59761
-2641.783778
3.095660809e-05
-0.04559602128
0.000257386884
-0.06565211071
0.0007454312457
-0.08607800694
0.001681011351
-0.1107123845
0.003115017027
-0.1417290729
0.003175723569
-0.1767429613
0.001398244467
-0.2123244893
-0.0009755366694
-0.2528470693
-0.003810198847
-0.3009280273
-0.007214985002
-0.358283863
-0.01129660083
-0.426469581
-0.01620556924
-0.5075015133
-0.0221084523
-0.6037184708
-0.02923290222
-0.7180808851
-0.03784769625
-0.8540397659
-0.04827961276
-1.015564879
-0.06094653152
-1.207321897
-0.07638104939
-1.434784854
-0.09526148583
-1.704371662
-0.118488759
-2.023493587
-0.147237416
-2.400864323
-0.1830065327
-2.846494721
-0.2276876363
-3.37188955
-0.2836236704
-3.99046627
-0.3536240533
-4.717917758
-0.4408388149
-5.572977957
-0.5485637137
-6.578427687
-0.6800496609
-7.762368952
-0.8383669101
-9.159642744
-1.026493341
-10.81303469
-1.247611248
-12.77442705
-1.5055097
-15.10599597
-1.805006235
-17.881625
-2.152286513
-21.18901743
-2.555167097
-25.13238115
-3.023302325
-29.83607823
-3.568378685
-35.44897966
-4.204310968
-42.14992246
-4.9474569
-50.15409022
-5.816806585
-59.72089617
-6.834150477
-71.16340474
-8.024143446
-84.86013462
-9.414241524
-101.2696374
-11.03438326
-120.949006
-12.91630652
-144.5772703
-15.09226557
-172.9853725
-17.59285235
-207.1946401
-20.44345982
-248.4666516
-23.65872267
-298.3681999
-27.2339964
-358.8566739
-31.13248469
-432.3929608
-35.26606629
-522.0919534
-39.46699794
-631.9243498
-43.44646927
-766.9893207
-46.7342814
-933.8845757
-48.59141559
-1141.212899
-47.88386573
-1400.273295
-42.90132589
-1726.029723
-31.09551137
-2138.403424
-2664.16999
6.525124573e-05
-0.04566118244
0.000404924642
-0.06599161845
0.001111184203
-0.08678410943
0.002371363356
-0.1119723595
0.003840119198
-0.1431975268
0.003587196618
-0.1764895984
0.002029099459
-0.2107657972
7.393072683e-05
-0.2508911501
-0.002259555694
-0.2985936383
-0.005084369292
-0.3554579954
-0.008493765514
-0.4230589732
-0.01262649905
-0.5033673994
-0.01763892182
-0.5987044983
-0.02374598416
-0.7119720961
-0.03119898696
-0.8465848894
-0.04031263832
-1.006449188
-0.05149719996
-1.196135244
-0.0652911774
-1.42098864
-0.08234540508
-1.687315395
-0.1035201398
-2.002316654
-0.1299732226
-2.374409673
-0.163236261
-2.813229842
-0.2052446498
-3.329880237
-0.2583026095
-3.937407164
-0.3250662243
-4.651152311
-0.4083962387
-5.489645934
-0.5110944384
-6.475726853
-0.6357621043
-7.637697791
-0.7847677576
-9.010633365
-0.9604350624
-10.63736329
-1.165409026
-12.5694494
-1.403044413
-14.86835705
-1.677761851
-17.60690463
-1.995303598
-20.87147318
-2.362920237
-24.76476251
-2.789524627
-29.40947189
-3.285849586
-34.95265341
-3.864623272
-41.57114672
-4.54076829
-49.47794416
-5.331587169
-58.93007548
-6.256928664
-70.23806243
-7.339266177
-83.77779609
-8.603659646
-100.0052435
-10.07749273
-119.4751726
-11.78987992
-142.8648827
-13.77054644
-171.0047058
-16.04790352
-204.9172824
-18.64591607
-245.8686387
-21.57917482
-295.4349407
-24.84531586
-355.5905328
-28.41357082
-428.8247056
-32.20768815
-518.2978362
-36.0807063
-628.0513315
-39.77799494
-763.2920322
-42.88343574
-930.7791348
-44.74139106
-1139.354944
-44.34399203
-1400.670694
-40.16937049
-1730.204345
-29.94769904
-2148.625096
-2683.78757
8.146858135e-05
-0.04574255111
0.0005307410111
-0.06644071828
0.001430737195
-0.08768393624
0.002961151013
-0.1135025494
0.004149007516
-0.1443850556
0.003440714297
-0.1757808426
0.002053405919
-0.2093778827
0.0003864809946
-0.2492234751
-0.001608854062
-0.2965974105
-0.004024765566
-0.3530410473
-0.006936909972
-0.4201456442
-0.01046160664
-0.4998413634
-0.01472484564
-0.5944397717
-0.01989985271
-0.7067954498
-0.02620964873
-0.8402733452
-0.03404277015
-0.99861419
-0.04381552488
-1.186360625
-0.05605828428
-1.408743913
-0.07147814005
-1.671893852
-0.09098102623
-1.982811933
-0.115703393
-2.349686134
-0.1471386663
-2.781793083
-0.1872419906
-3.289776139
-0.2382818719
-3.886366542
-0.3026844744
-4.586748202
-0.3829270726
-5.409400825
-0.4812617523
-6.377389606
-0.5996389083
-7.519317495
-0.7398111495
-8.870457218
-0.9035927097
-10.47357762
-1.093248014
-12.37979
-1.31183378
-14.64976753
-1.563473188
-17.35526221
-1.853535705
-20.58140822
-2.188764536
-24.42953179
-2.577393963
-29.02084068
-3.029284217
-34.50076205
-3.556082354
-41.04434681
-4.171411304
-48.86261436
-4.891049808
-58.21043544
-5.733100308
-69.39601126
-6.71807788
-82.7928177
-7.868896306
-98.85442478
-9.210657284
-118.1334114
-10.77014708
-141.3053925
-12.57486177
-169.1999909
-14.65132527
-202.8408184
-17.02233733
-243.4976265
-19.7026213
-292.7546562
-22.69212893
-352.6010252
-25.96589878
-425.5509355
-29.458917
-514.8048181
-33.0437418
-624.4665065
-36.49767524
-759.8380989
-39.45494242
-927.8218675
-41.33735537
-1137.472531
-41.25404974
-1400.754
-37.85767694
-1733.600718
-29.13608492
-2157.346688
-2700.805765
0.0001277850696
-0.04587023628
0.0007188295857
-0.06703157503
0.001825392014
-0.08879031248
0.003548789361
-0.1152257005
0.004374293429
-0.1452102064
0.003548335814
-0.1749544007
0.002341332542
-0.2081702594
0.0008917848225
-0.2477731708
-0.0008367632041
-0.2948679685
-0.002925755398
-0.3509510206
-0.0054447586
-0.4176254651
-0.008499203241
-0.4967855991
-0.01220733548
-0.5907301899
-0.01673343498
-0.7022677708
-0.02230213829
-0.8347029902
-0.02921125357
-0.991703328
-0.03785013496
-1.177720073
-0.04871387691
-1.397878431
-0.06271466814
-1.65789168
-0.08085906513
-1.964666011
-0.1043876994
-2.326156641
-0.1347172565
-2.751462293
-0.173673148
-3.250819316
-0.223451912
-3.836587054
-0.2861960139
-4.524003083
-0.3639006682
-5.331694377
-0.4582560143
-6.283031746
-0.5706198547
-7.406950815
-0.7022546178
-8.738819569
-0.8546199038
-10.3212092
-1.029738947
-12.20466823
-1.230473757
-14.44903014
-1.460717162
-17.12501677
-1.725511595
-20.31661216
-2.031134937
-24.12390722
-2.385195953
-28.66677847
-2.796754908
-34.08920247
-3.276476021
-40.56462439
-3.836807925
-48.30228195
-4.492160174
-57.55508203
-5.259070018
-68.62910099
-6.156302199
-81.89558493
-7.204860169
-97.8058666
-8.427822272
-116.9104492
-9.849920588
-139.883294
-11.49670972
-167.5532017
-13.39310945
-200.9444182
-15.56100355
-241.3297323
-18.01543282
-290.3002266
-20.75871449
-349.8577435
-23.77151951
-422.5381302
-26.99953591
-511.5768019
-30.3337067
-621.1323355
-33.58126627
-756.5905394
-36.42345742
-924.9796763
-38.35419685
-1135.541792
-38.59136774
-1400.516829
-35.94955165
-1736.242534
-28.65546405
-2164.640776
-2715.373899
0.0001857033723
-0.04605584227
0.0009411935431
-0.0677869398
0.002286196545
-0.09013517958
0.004038572333
-0.1169778912
0.004321902727
-0.1454932774
0.003611562347
-0.1742437178
0.002656596544
-0.207214867
0.001505204689
-0.2466212671
0.0001143728759
-0.2934765374
-0.001590036335
-0.3492459212
-0.003677937644
-0.4155367832
-0.006252467579
-0.4942101942
-0.009438787047
-0.5875429147
-0.01341441199
-0.6982910981
-0.01841756227
-0.8296987561
-0.02469813234
-0.985421586
-0.03267186085
-1.169745264
-0.04290503126
-1.387644068
-0.05612263199
-1.644673233
-0.07331383342
-1.94747375
-0.09608822965
-2.303381766
-0.1259514787
-2.721598278
-0.1644604423
-3.2123092
-0.2135818702
-3.787464324
-0.2751418704
-4.462441666
-0.3505981164
-5.256236037
-0.4411127164
-6.192515036
-0.5475609182
-7.300500193
-0.6708557903
-8.615521799
-0.8122469388
-10.17981504
-0.9736249168
-12.04328737
-1.157726083
-14.26492637
-1.368252549
-16.9144883
-1.609947884
-20.07491531
-1.888657437
-23.84519656
-2.211411792
-28.34402307
-2.586540238
-33.71407354
-3.023816786
-40.12734674
-3.534633837
-47.79146454
-4.132176895
-56.957538
-4.831587646
-67.92968992
-5.650078468
-81.07709365
-6.606961578
-96.84898334
-7.723534659
-115.793876
-9.022739158
-138.5840892
-10.52846088
-166.04748
-12.26428491
-199.2085938
-14.25142666
-239.3425904
-16.50542962
-288.0462232
-19.03104655
-347.3321266
-21.81445109
-419.7547255
-24.8115654
-508.5796877
-27.93075273
-618.013148
-31.00740015
-753.5138922
-33.76676346
-922.2203129
-35.77009983
-1133.538455
-36.33658508
-1399.950344
-34.43140129
-1738.147718
-28.50311889
-2170.569058
-2727.62271
0.0002482455396
-0.04630397621
0.001180274985
-0.06871878852
0.002774527207
-0.09172924045
0.004399336493
-0.1186024462
0.00439755864
-0.1454911531
0.003801968056
-0.1736476802
0.003082540717
-0.2064948912
0.002198986989
-0.2457370623
0.001107935279
-0.292384731
-0.0002602946605
-0.3478768321
-0.001972728369
-0.4138233942
-0.004132862544
-0.4920490155
-0.006871399787
-0.584803275
-0.01037209217
-0.6947892469
-0.01487642748
-0.8251932873
-0.02070128667
-0.979595564
-0.02829295848
-1.162152607
-0.0382751029
-1.377660862
-0.05132714805
-1.63162051
-0.06848258919
-1.930317376
-0.09098927918
-2.280874614
-0.1208359912
-2.691750844
-0.1594676629
-3.173676721
-0.2083486011
-3.738582445
-0.2689425773
-4.401846817
-0.3422073596
-5.182970082
-0.4288408776
-6.105879668
-0.5293734406
-7.199965577
-0.644506383
-8.500386799
-0.7753963375
-10.04892284
-0.9238757472
-11.89480607
-1.092593732
-14.09620662
-1.285082029
-16.72199868
-1.505803402
-19.854193
-1.760199137
-23.59080017
-2.054767607
-28.04945395
-2.397173335
-33.37166764
-2.79638927
-39.72813002
-3.262864859
-47.32498882
-3.808696183
-56.41170597
-4.447792002
-67.29059394
-5.195995481
-80.32888986
-6.071136483
-95.97384229
-7.09296434
-114.7720482
-8.282876771
-137.3941767
-9.663352801
-164.667004
-11.256904
-197.6150423
-13.08432031
-237.5151741
-15.16183751
-285.9687057
-17.4967336
-344.9972306
-20.08059475
-417.1708642
-22.87919669
-505.7810859
-25.81747916
-615.0748654
-28.75739553
-750.5739759
-31.4655921
-919.5121162
-33.56636642
-1131.437681
-34.47351036
-1399.0432
-33.29260973
-1739.328618
-28.67871991
-2175.182948
-2737.66545
0.0002993562377
-0.04660328645
0.001396303758
-0.06981568644
0.003133842889
-0.09346672197
0.004484745234
-0.119953271
0.004411538415
-0.1454178435
0.003939629137
-0.1731756415
0.003368894372
-0.2059239991
0.002658761396
-0.245026742
0.001775508178
-0.2915012575
0.0006527880667
-0.3467538527
-0.0007840694947
-0.4123862377
-0.002639322157
-0.4901934128
-0.005050804973
-0.5823914045
-0.008213613103
-0.6916259807
-0.0123908118
-0.821015628
-0.01793192733
-0.9740538819
-0.02531742583
-1.154766654
-0.03517093847
-1.367806698
-0.04834634292
-1.618444731
-0.06595452579
-1.912708456
-0.08908753001
-2.257741077
-0.1192786406
-2.661559226
-0.1583817654
-3.134572255
-0.2072255065
-3.689736891
-0.2668479922
-4.342222893
-0.3378064066
-5.112010137
-0.4204198898
-6.023264698
-0.515016051
-7.105367734
-0.622205928
-8.393194929
-0.7431350832
-9.927991602
-0.8796202972
-11.75831895
-1.034239425
-13.9415858
-1.210362368
-16.54587449
-1.412185513
-19.65236902
-1.644774192
-23.35821094
-1.914140069
-27.78008755
-2.227348908
-33.05845873
-2.592658563
-39.36281973
-3.019682817
-46.89796453
-3.519558072
-55.91183014
-4.105112533
-66.70503941
-4.790993933
-79.64300824
-5.593750027
-95.1710862
-6.531796533
-113.8340018
-7.625229416
-136.3007437
-8.895370296
-163.3968632
-10.36391255
-196.1464998
-12.05145806
-235.8276286
-13.97513357
-284.04503
-16.14485047
-342.8275137
-18.55755897
-414.7581555
-21.18858487
-503.1500601
-23.97870255
-612.2847476
-26.81509431
-747.7375843
-29.50341964
-916.8237907
-31.72722993
-1129.213871
-32.98895394
-1397.781476
-32.52540608
-1739.792166
-29.18433871
-2178.524016
-2745.59891
0.0003990935836
-0.04700229045
0.00166186043
-0.07107828341
0.003388228639
-0.09519291044
0.004173598964
-0.1207384114
0.003975902066
-0.145219849
0.003595023865
-0.172794394
0.003141188772
-0.2054697227
0.002562181613
-0.2444472222
0.001827060019
-0.2907655545
0.0008720618336
-0.3457982067
-0.0003763971943
-0.4111370785
-0.002022877285
-0.4885461881
-0.004205001356
-0.5802085323
-0.007115259408
-0.6887149593
-0.01105056574
-0.817079638
-0.01645714504
-0.9686465933
-0.02387195591
-1.147351329
-0.03397987692
-1.357698106
-0.04762706357
-1.604797126
-0.06589139792
-1.89444327
-0.09008265783
-2.23354892
-0.1212025223
-2.630438532
-0.1608287473
-3.094945684
-0.2096340992
-3.640930891
-0.2681277514
-4.283728441
-0.336556404
-5.043580706
-0.4149848426
-5.944835011
-0.5036648532
-7.016686347
-0.6032105937
-8.293647809
-0.714802636
-9.816398036
-0.8402589236
-11.63286145
-0.9820887012
-13.79975492
-1.143504076
-16.38445834
-1.3284491
-19.46742355
-1.541642925
-23.14501687
-1.78865773
-27.53307248
-2.076025291
-32.7710913
-2.411372168
-39.02747244
-2.803579316
-46.50575749
-3.262948248
-55.45246081
-3.801368698
-66.16661899
-4.432461671
-79.01191516
-5.171677928
-94.43187001
-6.036312933
-112.9693669
-7.04538614
-135.2916705
-8.219306184
-162.2229432
-9.579196683
-194.7866091
-11.14571054
-234.2611148
-12.93706782
-282.2536725
-14.96594208
-340.7986395
-17.23464076
-412.4894567
-19.72779353
-500.6569075
-22.40142179
-609.6111193
-25.16673341
-744.9722728
-27.86636791
-914.1241562
-30.23973208
-1126.840507
-31.87258495
-1396.148623
-32.12477668
-1739.539975
-30.0243427
-2180.62445
-2751.504307
0.0005877085297
-0.04758998935
0.002001477404
-0.07249199039
0.003617842418
-0.09680921559
0.004025556574
-0.1211460522
0.003834116396
-0.1450283142
0.003543077702
-0.1725032364
0.003186217353
-0.2051127174
0.002705116553
-0.2439659472
0.00206421348
-0.2901244454
0.00119807818
-0.3449318263
3.001357362e-05
-0.4099687313
-0.0015549006
-0.4869609401
-0.003712850268
-0.5780502234
-0.006661731151
-0.6857656562
-0.01071636856
-0.8130246089
-0.01629579334
-0.9630666788
-0.02398974961
-1.139657018
-0.03464795934
-1.347039326
-0.04915486615
-1.590289795
-0.06849121235
-1.875106141
-0.09381919878
-2.208219553
-0.1261854356
-2.598070888
-0.1662508363
-3.054878856
-0.2148585998
-3.592321683
-0.2719580826
-4.226627847
-0.3375858976
-4.977951836
-0.4117019882
-5.870717926
-0.4945723255
-6.933814907
-0.5868716952
-8.20134715
-0.68983329
-9.713435072
-0.8052772961
-11.51741628
-0.9356405618
-13.66939064
-1.083981428
-16.23611678
-1.254008651
-19.29739597
-1.450127333
-22.94889801
-1.67751843
-27.3056812
-1.942244296
-32.50636561
-2.251381908
-38.71833451
-2.613178684
-46.14396089
-3.037218661
-55.02842052
-3.534591916
-65.66924583
-4.118051026
-78.42845599
-4.802130773
-93.74779037
-5.603206331
-112.1682915
-6.539442753
-134.355434
-7.63057128
-161.1318148
-8.897390128
-193.5197901
-10.36084322
-232.7976617
-12.04045635
-280.5740592
-13.95181316
-338.8872828
-16.10260891
-410.3386608
-18.48661397
-498.2729026
-21.07458768
-607.0231455
-23.80077257
-742.246088
-26.54298556
-911.3819431
-29.09353945
-1124.289953
-31.11680112
-1394.125362
-32.08833947
-1738.568437
-31.2054345
-2181.507355
-2755.448071
0.0008230203396
-0.04841291582
0.002303140202
-0.0739719587
0.003728196874
-0.09823410777
0.004041691947
-0.1214593425
0.003862471687
-0.144848839
0.003610180307
-0.1722506381
0.003291017676
-0.2047931974
0.002845666611
-0.2435201904
0.00223456045
-0.2895128901
0.001385880509
-0.3440826581
0.0002080409523
-0.4087903809
-0.001429838598
-0.4853225304
-0.003711183676
-0.5757683708
-0.006893951851
-0.6825823719
-0.01132391652
-0.8085942108
-0.01743570249
-0.9569543872
-0.02584421257
-1.13124812
-0.03733243656
-1.335550431
-0.05298011754
-1.574641457
-0.07365133708
-1.854433873
-0.1002939307
-2.181575799
-0.1337604139
-2.564603189
-0.1741935134
-3.014445333
-0.2222839193
-3.544231
-0.2776534717
-4.171257784
-0.3402348149
-4.915370007
-0.4099976431
-5.800954285
-0.4872729341
-6.856538735
-0.5728224262
-8.11579679
-0.6679316777
-9.618324842
-0.7744158413
-11.41093141
-0.8946355979
-13.54917026
-1.031502252
-16.09924974
-1.188509644
-19.14038847
-1.369783723
-22.76762395
-1.580163457
-27.09530146
-1.825306262
-32.26122311
-2.111818707
-38.4318219
-2.447411143
-45.80836871
-2.841062173
-54.63476931
-3.30319697
-65.20711119
-3.845849896
-77.88580308
-4.482813436
-93.11082699
-5.229738037
-111.4213671
-6.104148348
-133.4810238
-7.125331013
-160.1106324