/*--------------------------------*- C++ -*----------------------------------*\
  =========                 |
  \\      /  F ield         | OpenFOAM: The Open Source CFD Toolbox
   \\    /   O peration     | Website:  https://openfoam.org
    \\  /    A nd           | Version:  12
     \\/     M anipulation  |
\*---------------------------------------------------------------------------*/
FoamFile
{
    format      ascii;
    class       volScalarField;
    location    "150";
    object      rho;
}
// * * * * * * * * * * * * * * * * * * * * * * * * * * * * * * * * * * * * * //

dimensions      [1 -3 0 0 0 0 0];

internalField   nonuniform List<scalar> 
16200
(
1.036596147
1.036920736
1.037946832
1.039525401
1.041195887
1.042935117
1.047417048
1.058628598
1.067957622
1.070282395
1.070812726
1.071016411
1.071055189
1.071384271
1.072014592
1.072882491
1.073960989
1.075255052
1.076798477
1.078652462
1.080862645
1.083449169
1.086457633
1.089942148
1.093933996
1.098443392
1.10346035
1.108932576
1.114763594
1.120810987
1.126893935
1.132817753
1.138399261
1.14349314
1.148004525
1.151888405
1.1551485
1.157817402
1.159954918
1.161628547
1.162914948
1.16388497
1.164605791
1.165133694
1.165516288
1.165791171
1.165987324
1.166126463
1.166224929
1.166294182
1.166342731
1.166376724
1.166400276
1.166416687
1.166426954
1.166434333
1.166435338
1.16644198
1.166427719
1.166445938
1.031955374
1.03242465
1.033582693
1.035230815
1.037068183
1.039421902
1.045589628
1.058007047
1.064900887
1.06633168
1.066934127
1.067219411
1.067339268
1.067746167
1.068467842
1.069450939
1.070668418
1.072126542
1.073856152
1.075921271
1.078375956
1.081244485
1.084568295
1.088402914
1.092773867
1.097683066
1.103102234
1.10895824
1.115126129
1.121434517
1.127682884
1.133669424
1.139221807
1.14421821
1.148592919
1.152332591
1.155458805
1.158019714
1.1600757
1.161695057
1.162946964
1.163898066
1.164609346
1.165133686
1.165515742
1.165791215
1.165988317
1.16612826
1.166227202
1.166296785
1.166345486
1.16637946
1.166402795
1.166418823
1.166428885
1.166436005
1.166436786
1.16644297
1.166428202
1.166445768
1.028139607
1.028781227
1.030080252
1.03183973
1.033883371
1.037132886
1.04550331
1.057612107
1.062224026
1.063192091
1.063818473
1.06419719
1.06439603
1.064883502
1.065700473
1.066798701
1.068154383
1.069778326
1.071700125
1.073986151
1.076698801
1.079864851
1.083521698
1.087721319
1.092483671
1.097796389
1.103610298
1.109824014
1.116281011
1.122781749
1.129108966
1.135063012
1.140490271
1.145301104
1.149463684
1.152994593
1.155935764
1.158346394
1.160288547
1.161827581
1.163025894
1.163943567
1.16463498
1.165148355
1.16552466
1.165797282
1.165993021
1.166132414
1.166230992
1.166300279
1.166348736
1.16638238
1.166405463
1.166421152
1.16643098
1.166437681
1.166438343
1.166444096
1.166429051
1.166446311
1.025004889
1.025841816
1.027272192
1.029175522
1.031545024
1.035916814
1.046756
1.056979592
1.059872151
1.060688124
1.061379902
1.061841815
1.062129929
1.0627131
1.063643644
1.06487771
1.066396335
1.068213249
1.070358091
1.072896342
1.075897263
1.079390131
1.083406734
1.087994658
1.093165053
1.098887371
1.105085151
1.111622823
1.118308967
1.124917529
1.131222586
1.137036603
1.142235955
1.146769118
1.150641692
1.153899541
1.15660333
1.158820776
1.160614357
1.162044928
1.163167425
1.164034352
1.164692884
1.165185673
1.16554927
1.16581422
1.166005232
1.166141643
1.166238261
1.166306177
1.166353589
1.166386408
1.166408821
1.166423912
1.166433329
1.166439567
1.166439952
1.166445279
1.166429868
1.166446709
1.022588823
1.023634456
1.02521997
1.027347689
1.030239117
1.036154994
1.048822696
1.05636321
1.058103207
1.058896554
1.059658131
1.060214056
1.060604452
1.061299301
1.062360419
1.063747513
1.065443899
1.06747028
1.069856924
1.07266699
1.075975717
1.079815969
1.084214278
1.089210153
1.094800556
1.100928912
1.10748362
1.114289605
1.121120722
1.127731247
1.133898542
1.139460492
1.144333301
1.148508495
1.152028899
1.154966561
1.157397225
1.159393605
1.161016468
1.16232056
1.163352784
1.164157416
1.164774118
1.165239501
1.165585376
1.165838989
1.166022702
1.166154367
1.166247803
1.166313521
1.166359351
1.166390987
1.166412509
1.166426873
1.166435765
1.166441495
1.166441578
1.166446491
1.166430723
1.166447235
1.02093195
1.022192959
1.02394847
1.026360206
1.029993895
1.038030678
1.050970764
1.055920317
1.05699738
1.057826676
1.05865301
1.059310934
1.059809559
1.060621753
1.061820718
1.063369872
1.065256449
1.067507114
1.070154664
1.073263686
1.076910881
1.08113433
1.085948147
1.091377394
1.097397038
1.103916075
1.110781158
1.117776062
1.124645153
1.131134916
1.137041042
1.142240312
1.146696517
1.150445884
1.153565551
1.156148966
1.158282094
1.160039007
1.161476452
1.162641827
1.163573503
1.164307286
1.164875245
1.165307768
1.165631766
1.165870954
1.166045128
1.166170448
1.166259591
1.166322348
1.166366074
1.16639618
1.16641657
1.16643006
1.166438321
1.166443496
1.166443224
1.166447727
1.166431579
1.166447801
1.019871998
1.021358536
1.023359986
1.026117556
1.030729091
1.041309451
1.052661172
1.055718677
1.056463254
1.057347432
1.058246713
1.059001875
1.059622375
1.060565289
1.061920118
1.063653916
1.065757392
1.068267649
1.071217218
1.074670777
1.078710146
1.083362836
1.088627141
1.094506068
1.100946197
1.107816073
1.11491674
1.121993233
1.128771393
1.135005791
1.140526822
1.145261625
1.14922574
1.152498158
1.155184783
1.157394342
1.159217725
1.160726762
1.161972055
1.162992693
1.16381827
1.164476151
1.16499096
1.165386924
1.165686087
1.165908551
1.166071473
1.166189199
1.166273164
1.166332342
1.166373543
1.166401838
1.16642091
1.166433411
1.166440958
1.166445542
1.166444886
1.166448982
1.166432444
1.166448437
1.019191922
1.020986836
1.023299415
1.026527686
1.032494005
1.045263974
1.053970004
1.055670633
1.056338698
1.05730212
1.058298783
1.059185356
1.059961013
1.061081815
1.062642795
1.064619594
1.066999506
1.069820109
1.073129585
1.076975289
1.08143916
1.086549534
1.092279182
1.098600362
1.105423944
1.112573742
1.119804727
1.126829865
1.133372153
1.139213331
1.144233367
1.148417438
1.151832458
1.154594766
1.156831717
1.15866064
1.160172258
1.161433002
1.162485632
1.163360338
1.164077935
1.164657611
1.165116867
1.165474011
1.165746376
1.165950505
1.166100916
1.166210098
1.166288192
1.1663433
1.166381634
1.166407887
1.166425486
1.1664369
1.166443666
1.166447627
1.166446565
1.166450257
1.16643332
1.166449133
1.0191363
1.021232167
1.023881523
1.027745596
1.035738627
1.049364869
1.055161661
1.056176077
1.056828
1.057888054
1.059002474
1.060046801
1.061017926
1.062357939
1.064168334
1.066430585
1.06912398
1.072297094
1.075994322
1.080251032
1.085150141
1.090716982
1.096900264
1.103631933
1.110774167
1.118101462
1.125328922
1.132150234
1.138305019
1.143621568
1.148040987
1.151608661
1.154438162
1.156675155
1.158460255
1.159912912
1.161119238
1.162137757
1.163002223
1.16373369
1.164344431
1.164845897
1.165248914
1.165566232
1.165810732
1.16599554
1.166132609
1.16623259
1.166304314
1.166354986
1.166390199
1.166414233
1.166430239
1.166440491
1.166446425
1.16644974
1.166448257
1.166451556
1.166434209
1.166449892
1.020858561
1.02307293
1.026074788
1.030718589
1.041238397
1.053740858
1.057155581
1.057720166
1.058512612
1.059664497
1.060881626
1.062047895
1.063153434
1.064641028
1.066636381
1.069147093
1.072146019
1.075673673
1.079783177
1.084483086
1.089835419
1.095849929
1.102454556
1.109540621
1.116910324
1.124283263
1.131348921
1.137803259
1.143423119
1.148099814
1.151841556
1.154750657
1.156978884
1.158691767
1.160035099
1.161124748
1.162038714
1.162825861
1.16351031
1.164104073
1.164611312
1.1650363
1.165383726
1.165661215
1.165877517
1.166042544
1.16616581
1.166256184
1.166321211
1.166367197
1.166399106
1.166420795
1.166435122
1.166444157
1.166449222
1.166451871
1.166449955
1.166452879
1.16643511
1.166450713
1.023225086
1.025699886
1.029260258
1.035137554
1.048233626
1.058297996
1.060030362
1.060745287
1.061538677
1.062706494
1.063964495
1.06519387
1.066386165
1.06797292
1.07011787
1.072836631
1.076098499
1.079930918
1.084429607
1.089593475
1.095438892
1.101914574
1.108896207
1.116244769
1.123718002
1.130978702
1.137707328
1.143631504
1.148584741
1.152530495
1.155543867
1.157775901
1.159405923
1.160609665
1.16153089
1.162277333
1.162916406
1.163486302
1.164001358
1.164464904
1.164873566
1.165225074
1.165518556
1.165756985
1.165945339
1.166090555
1.166199865
1.166280442
1.166338594
1.166379746
1.166408237
1.166427498
1.16644009
1.166447871
1.166452043
1.166454014
1.16645166
1.16645421
1.166436025
1.166451593
1.025431055
1.028199218
1.032395931
1.040046368
1.054572545
1.061624182
1.062478872
1.063252756
1.064244701
1.065622424
1.067130814
1.068652419
1.070193443
1.072180153
1.074735802
1.077659612
1.081134051
1.085242813
1.090063676
1.095611211
1.101912034
1.108847132
1.116160266
1.123644253
1.131055539
1.138025752
1.144238981
1.149482219
1.153662035
1.156814986
1.159076306
1.160634603
1.161685299
1.16240551
1.162931136
1.163358515
1.163742991
1.164111716
1.164469482
1.164811495
1.165127511
1.165409383
1.165651271
1.165851977
1.166013073
1.166138781
1.166234227
1.166304995
1.166356216
1.166392471
1.166417489
1.166434278
1.166445103
1.166451611
1.166454876
1.166456162
1.166453375
1.166455529
1.166436947
1.166452532
1.028048592
1.031179352
1.036164599
1.046252063
1.060332769
1.064871984
1.065300243
1.066189528
1.067311019
1.06884309
1.070530123
1.072268022
1.07407181
1.076359586
1.079270136
1.082795789
1.086933655
1.091733328
1.096908159
1.102721285
1.109291076
1.116559542
1.124132604
1.131609546
1.138756781
1.145247275
1.150780527
1.15521747
1.158548305
1.160877212
1.162387924
1.163294028
1.163796308
1.164065956
1.164226756
1.164361616
1.164513183
1.164697717
1.164910982
1.165140745
1.165370599
1.165587189
1.165780284
1.16594499
1.166079834
1.166186588
1.166268449
1.166329535
1.166373872
1.166405237
1.166426774
1.166441081
1.166450128
1.166455356
1.166457712
1.166458312
1.166455096
1.166456819
1.166437877
1.16645353
1.031275414
1.034927131
1.040966614
1.053631149
1.065523143
1.06818233
1.068806844
1.06984769
1.07112235
1.072829349
1.074725699
1.076714813
1.078818114
1.081444573
1.084738206
1.08867536
1.0932496
1.098490258
1.104436892
1.110973307
1.117689017
1.124998509
1.132639172
1.139964171
1.146644725
1.152467466
1.157182435
1.160721716
1.163161579
1.164664027
1.165446742
1.165736126
1.165729153
1.165585613
1.165414451
1.165284193
1.16522483
1.165242247
1.165323886
1.165450826
1.16560121
1.165757117
1.165904477
1.166035146
1.166144956
1.166233484
1.166302182
1.166353817
1.166391393
1.166417931
1.166436019
1.166447859
1.166455138
1.166459091
1.166460542
1.166460458
1.166456812
1.166458073
1.166438815
1.166454592
1.035698926
1.040032982
1.04761718
1.062232018
1.071508221
1.072890623
1.073501928
1.074654656
1.076045829
1.077896989
1.079985367
1.082200841
1.084570104
1.087490043
1.091126564
1.095476081
1.100508733
1.106234601
1.11260428
1.119526269
1.126951786
1.134149035
1.141509411
1.148493011
1.154540406
1.159529324
1.163318868
1.165906429
1.167445719
1.168143837
1.168237424
1.16795497
1.167482641
1.166965163
1.166495257
1.16612695
1.165878107
1.165744996
1.165707543
1.165740903
1.165818459
1.16591833
1.166023115
1.166121839
1.166207962
1.166279107
1.166335157
1.16637765
1.166408648
1.166430465
1.166445166
1.166454576
1.166460109
1.166462803
1.166463358
1.166462598
1.166458523
1.166459308
1.166439768
1.166455718
1.04064065
1.045922008
1.055548014
1.070746472
1.077200918
1.078192
1.078959195
1.080303521
1.081908014
1.083973986
1.086253182
1.088685317
1.091308402
1.09451124
1.098477618
1.103207116
1.108659735
1.114836531
1.12163393
1.128865736
1.136347425
1.143818425
1.150603901
1.157001921
1.162276857
1.166300588
1.169092484
1.170711065
1.171368375
1.171303295
1.170757706
1.169953684
1.169061756
1.168209535
1.167473196
1.166892763
1.166474815
1.166206897
1.166062258
1.166010877
1.166022022
1.166070411
1.166135774
1.166204684
1.166268527
1.1663232
1.166367179
1.166400892
1.166425535
1.166442768
1.166454168
1.166461201
1.166465023
1.16646648
1.166466156
1.166464729
1.166460238
1.166460561
1.166440748
1.166456905
1.045662789
1.052166563
1.063972549
1.078069081
1.08245652
1.083542341
1.084493809
1.086035235
1.087859367
1.090195422
1.092827027
1.095662058
1.09876016
1.102494599
1.106948753
1.112005477
1.117775819
1.12428032
1.131400348
1.138839866
1.146293116
1.153485261
1.159796199
1.1653469
1.169702759
1.172676769
1.174436308
1.175101318
1.174917782
1.174143672
1.173015222
1.171741879
1.170475719
1.169326486
1.168354252
1.167585932
1.167017835
1.166629727
1.166389007
1.166261178
1.16621199
1.166213259
1.166242265
1.16628347
1.166326453
1.166365593
1.166398114
1.16642344
1.166441979
1.166454789
1.166462989
1.166467711
1.166469865
1.166470114
1.166468931
1.166466849
1.166461964
1.16646187
1.166441762
1.166458152
1.051618153
1.059508858
1.07325857
1.085791859
1.088616753
1.089698499
1.090843215
1.092587593
1.094642777
1.097245443
1.100181846
1.103361041
1.106848912
1.111001336
1.115943027
1.121633987
1.127920904
1.134591719
1.141806418
1.149282505
1.156514736
1.163151743
1.16892888
1.173387988
1.176690092
1.178582213
1.179313266
1.179065622
1.178098193
1.17667681
1.175024224
1.173333239
1.171736267
1.170325384
1.169145509
1.168211568
1.167510686
1.167015786
1.166689198
1.166492596
1.166388745
1.166347006
1.166342579
1.166358118
1.16638164
1.166406187
1.166427875
1.166445225
1.166457928
1.166466489
1.166471603
1.166474089
1.166474624
1.166473699
1.166471679
1.166468958
1.166463693
1.16646321
1.166442814
1.166459456
1.058652618
1.067992585
1.083069902
1.093936266
1.095419386
1.096630321
1.097979988
1.09994406
1.102252432
1.105136087
1.10840554
1.111951086
1.115848146
1.120430955
1.125809838
1.131895756
1.138576309
1.145695347
1.152778805
1.160007454
1.166805412
1.172730535
1.177732712
1.180986228
1.183155257
1.183974346
1.183712267
1.182610423
1.180925564
1.178921685
1.176803103
1.174743768
1.172856438
1.171216365
1.169854556
1.168775165
1.167957212
1.167367664
1.166964502
1.16670615
1.166552864
1.166471945
1.166436837
1.166428653
1.166434061
1.166444938
1.166456416
1.166466205
1.166473349
1.166477842
1.166479992
1.166480322
1.166479291
1.166477229
1.166474398
1.166471052
1.166465407
1.166464553
1.16644391
1.166460815
1.066810332
1.077550988
1.093030444
1.101423096
1.102930973
1.104336204
1.105913758
1.108124553
1.110714738
1.113912528
1.117535667
1.121466164
1.125778321
1.130777305
1.136549693
1.142974748
1.149880834
1.157050297
1.164156313
1.170842557
1.176954283
1.181985208
1.185826781
1.18805106
1.189060741
1.188838775
1.187641588
1.185755013
1.183423363
1.180901347
1.178372227
1.175990337
1.173849602
1.172009678
1.170489037
1.16928228
1.168361346
1.167688064
1.167216715
1.166902988
1.166705048
1.166588475
1.166525247
1.166495168
1.166483747
1.166481843
1.166483718
1.166486359
1.16648822
1.166488833
1.166488143
1.166486401
1.166483862
1.1664807
1.166477086
1.166473131
1.166467134
1.166465894
1.166445056
1.166462229
1.076211732
1.088129393
1.102945344
1.110064712
1.111269973
1.112914728
1.114737656
1.117213175
1.12010472
1.123627524
1.127617554
1.131932393
1.136639145
1.142011374
1.148102196
1.154744696
1.161719594
1.168762037
1.175579944
1.181571318
1.186776014
1.190758597
1.19339721
1.194523907
1.194393652
1.193183188
1.191123611
1.188527084
1.185619409
1.182640745
1.179752551
1.177089785
1.174728875
1.172715294
1.171056376
1.169738327
1.168726955
1.167979685
1.16744767
1.167084316
1.16684606
1.166697063
1.166608078
1.166557809
1.166530768
1.166516931
1.166509789
1.166505683
1.166502535
1.166499453
1.166496048
1.166492321
1.166488331
1.166484111
1.166479742
1.166475193
1.166468884
1.166467234
1.166446257
1.166463692
1.086807625
1.099784091
1.113754952
1.119382414
1.120551039
1.122446552
1.124524375
1.127271416
1.130469907
1.134321129
1.138660578
1.143333033
1.148384461
1.154049762
1.160345117
1.16705396
1.173907239
1.180596868
1.186749668
1.191988885
1.196118472
1.198940985
1.200347322
1.200377144
1.199161252
1.197031273
1.194189823
1.190958954
1.187543199
1.184164994
1.180964501
1.178058225
1.175506675
1.173342616
1.171563576
1.170148442
1.169057737
1.168245135
1.167659167
1.167251345
1.166976693
1.166798209
1.166685636
1.166616752
1.166575221
1.166550249
1.166534649
1.166524184
1.166516294
1.166509699
1.166503705
1.166498077
1.166492696
1.166487459
1.166482363
1.166477238
1.166470645
1.166468571
1.166447521
1.166465198
1.09851857
1.112354758
1.125552096
1.12955569
1.130794956
1.132933446
1.135270673
1.138290051
1.141788191
1.145948255
1.150610473
1.155591268
1.160909708
1.166759903
1.173114634
1.179708446
1.186229897
1.192336224
1.197636543
1.201931023
1.204863812
1.206463107
1.206654182
1.205614506
1.203388383
1.200417989
1.19687683
1.193084716
1.189224163
1.185498319
1.182027381
1.178910692
1.176194521
1.173900349
1.172017132
1.170517404
1.16935716
1.168486889
1.167852934
1.167405256
1.167097733
1.166892421
1.16675824
1.166672193
1.166617221
1.166581863
1.166558334
1.166541878
1.166529502
1.166519572
1.166511112
1.166503669
1.166496955
1.166490742
1.166484949
1.166479267
1.166472418
1.166469905
1.166448855
1.166466739
1.111311198
1.125690393
1.136981927
1.14057465
1.141961844
1.144323324
1.146915983
1.150196033
1.153979567
1.158421508
1.163363727
1.168588132
1.174075543
1.179973977
1.18621468
1.192490069
1.198459237
1.20376782
1.208051877
1.211269744
1.21292788
1.213289293
1.212313292
1.210260835
1.207111899
1.203384264
1.199223306
1.194938219
1.190690435
1.186663366
1.182958983
1.179660942
1.176802915
1.174396426
1.172422978
1.170849604
1.169628429
1.168707249
1.168030599
1.167547175
1.167209943
1.166980206
1.166826216
1.166724336
1.166656893
1.166611846
1.166580884
1.166558788
1.166542172
1.166529079
1.166518272
1.166509097
1.166501108
1.166493961
1.166487499
1.16648128
1.166474201
1.166471232
1.166450267
1.166468308
1.124880458
1.139314728
1.149209474
1.15231785
1.153931167
1.156520101
1.159375584
1.162916287
1.166969756
1.171661707
1.17681931
1.182195092
1.187722065
1.193501607
1.199430192
1.205172511
1.210377259
1.214705161
1.21785251
1.219899036
1.220267175
1.21941759
1.217350368
1.214356231
1.21037662
1.20597307
1.201267269
1.196551669
1.19196814
1.187680843
1.183775428
1.180321381
1.177341316
1.174838005
1.172786484
1.171149033
1.169874475
1.168908341
1.168193677
1.167678163
1.16731405
1.167062052
1.166889885
1.166773387
1.166694364
1.166640276
1.166602346
1.166574941
1.166554318
1.166538226
1.166525187
1.166514362
1.166505155
1.166497114
1.166490012
1.166483274
1.166475997
1.166472552
1.166451765
1.166469898
1.139076999
1.153104509
1.162114716
1.164891573
1.166760049
1.169559884
1.172665004
1.176438253
1.180715059
1.185584156
1.190863144
1.196259104
1.201661759
1.207127759
1.212533239
1.21753424
1.221790052
1.224998162
1.226926633
1.227714607
1.226876421
1.224873667
1.221803843
1.217947209
1.213229092
1.208226795
1.203044801
1.197954796
1.19308099
1.188569349
1.184491116
1.180903067
1.177818158
1.175231478
1.173112464
1.171419286
1.170097956
1.169092103
1.16834356
1.167799203
1.167410737
1.167138422
1.166949556
1.166819547
1.166729765
1.166667234
1.16662277
1.166590366
1.166565958
1.166547022
1.166531863
1.166519465
1.166509095
1.166500202
1.166492487
1.166485252
1.166477803
1.166473861
1.166453355
1.1664715
1.154109449
1.16790433
1.175778411
1.178378654
1.180474254
1.183448079
1.186759348
1.190705337
1.195124857
1.200066398
1.205328089
1.210583964
1.215674034
1.220621052
1.225299272
1.22937705
1.232541845
1.234540924
1.235214824
1.234767761
1.232776501
1.229700757
1.225722254
1.221084237
1.215714645
1.210185872
1.204589372
1.19917455
1.194050246
1.189345448
1.185118825
1.18141581
1.178240932
1.175582541
1.173405223
1.171663593
1.170301272
1.169260297
1.168481523
1.167911204
1.167500639
1.167209752
1.167005523
1.166863012
1.166763221
1.166692801
1.166642204
1.166605092
1.166577107
1.166555478
1.166538305
1.166524409
1.16651293
1.166503223
1.166494922
1.166487214
1.16647962
1.16647516
1.166455045
1.166473106
1.170082492
1.183888029
1.190150752
1.192665449
1.194965817
1.198080754
1.201544037
1.20558761
1.210044961
1.214915699
1.219998524
1.224934217
1.229519384
1.233752806
1.237526437
1.240540942
1.242523101
1.243273863
1.242703656
1.241078046
1.238006854
1.233951719
1.229158234
1.223818768
1.217877348
1.211887663
1.205931143
1.200234935
1.194894695
1.190023716
1.185669802
1.181868241
1.178616245
1.175896235
1.173668587
1.171884837
1.170486576
1.169414512
1.168608726
1.168014996
1.167584343
1.167276451
1.167058064
1.166903965
1.166794854
1.166717054
1.166660699
1.166619151
1.166587786
1.166563605
1.166544517
1.166529197
1.16651666
1.166506178
1.166497317
1.166489159
1.166481446
1.16647645
1.16645684
1.166474709
1.187147098
1.200764498
1.20538859
1.207783994
1.210190883
1.213334976
1.216832906
1.220865218
1.225238589
1.229893261
1.234624444
1.239060824
1.242961949
1.246315963
1.249049691
1.250910943
1.251669306
1.251178376
1.24941682
1.246697551
1.242620057
1.237683061
1.232165066
1.226199842
1.219758146
1.213365857
1.207097082
1.201157038
1.195630771
1.190616886
1.186153858
1.182267915
1.1789499
1.176177001
1.173905942
1.172085582
1.170655793
1.169556178
1.168726214
1.168111336
1.167662386
1.167338892
1.167107435
1.166942582
1.166824779
1.166740069
1.166678303
1.166632573
1.166598012
1.166571412
1.166550507
1.16653383
1.166520286
1.166509067
1.16649967
1.166491088
1.166483278
1.166477734
1.166458743
1.166476292
1.204620663
1.217472355
1.221296142
1.223694499
1.226065336
1.229053204
1.23239911
1.236257439
1.240424806
1.244730914
1.248954581
1.25273125
1.255801177
1.258149377
1.259753792
1.260421101
1.259959742
1.25827116
1.255401888
1.251688377
1.246677167
1.240950603
1.234793826
1.228272368
1.221394368
1.214649967
1.208110641
1.201959355
1.196272821
1.191136072
1.186579579
1.182621457
1.179247
1.176428762
1.174120289
1.172268113
1.170810645
1.169686579
1.168834934
1.16820091
1.167735259
1.167397421
1.167153877
1.166979026
1.166853106
1.166761918
1.166695062
1.166645387
1.166607804
1.16657891
1.166556279
1.166538313
1.166523809
1.166511889
1.16650198
1.166493002
1.166485115
1.166479015
1.166460753
1.166477845
1.222201743
1.234151892
1.237073647
1.239435473
1.241950882
1.24498566
1.248168632
1.25161147
1.255354734
1.259180571
1.262764732
1.265747141
1.267874427
1.269138808
1.269572775
1.269049393
1.267408712
1.26459398
1.260717011
1.256086051
1.250237543
1.243809522
1.237092099
1.230076361
1.222818859
1.215766345
1.208992411
1.20265801
1.196833354
1.191590975
1.186954478
1.182934684
1.179512042
1.176654988
1.174314297
1.172434465
1.170952675
1.169806871
1.168935742
1.168284343
1.16780341
1.167452358
1.167197611
1.167013448
1.166879938
1.166782669
1.166711022
1.166657622
1.166617178
1.16658611
1.16656184
1.166542647
1.16652723
1.166514644
1.166504246
1.166494901
1.166486952
1.166480284
1.166462867
1.166479373
1.239780675
1.25060219
1.25300491
1.255262699
1.257695636
1.260509299
1.263519361
1.266765352
1.269863012
1.273009243
1.275852733
1.277955315
1.279070831
1.27921885
1.278484754
1.276809946
1.274057288
1.270205046
1.265420797
1.259930445
1.253359625
1.246311157
1.239102619
1.231647749
1.224059753
1.216737852
1.209760155
1.203266942
1.197323194
1.191990013
1.187285089
1.183212673
1.179748969
1.176858734
1.17449032
1.172586445
1.171083255
1.169918088
1.169029404
1.168362198
1.167867248
1.16750399
1.167238841
1.16704599
1.166905369
1.166802387
1.166726223
1.166669304
1.166626153
1.166593022
1.166567194
1.166546835
1.166530549
1.166517331
1.166506466
1.166496785
1.166488782
1.166481535
1.16646508
1.166480879
1.257331678
1.266913148
1.268607126
1.27081266
1.273112849
1.275660753
1.278309829
1.281049773
1.283761485
1.286078025
1.28806236
1.289244517
1.289325468
1.288364939
1.28650039
1.283741101
1.279961593
1.275168366
1.269572175
1.263308945
1.256098192
1.248501777
1.240862659
1.233017821
1.225141702
1.217583886
1.210429173
1.2037981
1.197751651
1.192340447
1.187577077
1.183459847
1.179961229
1.177042682
1.174650438
1.172725654
1.171203607
1.170021152
1.169116612
1.168434983
1.16792714
1.167552583
1.167277753
1.16707678
1.16692949
1.166821131
1.166740707
1.16668046
1.166634744
1.166599655
1.166572348
1.166550879
1.166533767
1.16651995
1.166508638
1.166498655
1.166490601
1.166482781
1.166467384
1.166482361
1.27450945
1.282657478
1.283975615
1.285969126
1.288034936
1.290227907
1.2924395
1.294605952
1.29667787
1.298253404
1.299305653
1.299553189
1.29861926
1.296591732
1.293662188
1.289899924
1.285188086
1.279550709
1.273231852
1.266276423
1.258502774
1.250422866
1.242405116
1.23421403
1.226086299
1.218321477
1.211012793
1.204261948
1.198126902
1.192648682
1.187835459
1.183680138
1.180151902
1.177209239
1.174796521
1.172853536
1.171314839
1.170116902
1.169197993
1.168503163
1.167983428
1.167598381
1.167314521
1.167105941
1.166952384
1.166838958
1.16675451
1.166691114
1.166642966
1.16660602
1.166577307
1.166554783
1.166536885
1.1665225
1.166510762
1.166500511
1.166492404
1.166484028
1.166469772
1.166483819
1.291073679
1.297731207
1.298729415
1.300468469
1.302243686
1.304018861
1.305726098
1.307266084
1.308565972
1.309437892
1.309551841
1.308865215
1.306967334
1.303940922
1.300026863
1.295352582
1.289804121
1.283417098
1.276459024
1.268885752
1.260615183
1.252109644
1.243759265
1.235259978
1.226911878
1.21896525
1.211522432
1.204667451
1.198455987
1.192920256
1.188064595
1.183876983
1.180323692
1.177360527
1.174930228
1.172971379
1.171417941
1.170206094
1.169274116
1.168567162
1.168036422
1.16764161
1.167349306
1.167133587
1.16697413
1.166855923
1.16676767
1.166701291
1.166650836
1.166612125
1.166582076
1.166558549
1.166539905
1.166524981
1.166512837
1.166502352
1.166494182
1.166485281
1.166472236
1.166485248
1.306816677
1.311997574
1.312731537
1.314137178
1.315560598
1.316872433
1.31803393
1.318915195
1.319446329
1.319591975
1.318783753
1.317203174
1.314409643
1.310469119
1.305660447
1.300166925
1.293877168
1.286829713
1.279309377
1.27118298
1.262473119
1.253593545
1.244951977
1.236175814
1.227634471
1.219527986
1.211968041
1.205022485
1.198745103
1.193160081
1.188268368
1.184053456
1.180479026
1.177498458
1.175053054
1.173080347
1.17151381
1.170289413
1.169345499
1.168627366
1.168086406
1.167682478
1.167382257
1.167159822
1.166994802
1.166872076
1.16678022
1.166711013
1.166658368
1.166617981
1.16658666
1.166562179
1.166542826
1.166527391
1.166514862
1.166504179
1.166495931
1.166486547
1.166474761
1.166486649
1.321458467
1.325243754
1.325745022
1.326793365
1.327836343
1.328664313
1.329268639
1.329493306
1.329287766
1.328711103
1.327039325
1.324606269
1.321001718
1.316244118
1.310634172
1.304413193
1.297470553
1.289844594
1.281832087
1.273209655
1.264110154
1.25490261
1.24600479
1.236978806
1.228268091
1.220020592
1.212358313
1.205333935
1.198999726
1.193372507
1.188450241
1.184212302
1.18062008
1.177624749
1.175166352
1.173181492
1.171603262
1.170367484
1.169412616
1.16868413
1.168133644
1.167721176
1.167413513
1.167184746
1.167014469
1.166887465
1.166792195
1.166720303
1.166665577
1.166623595
1.166591066
1.166565677
1.16654565
1.16652973
1.166516835
1.166505989
1.166497643
1.166487835
1.166477331
1.166488021
1.334967569
1.337457778
1.337701954
1.33835167
1.338990588
1.339335404
1.339392454
1.338989823
1.338097183
1.336795902
1.334354348
1.331135273
1.326807457
1.321334074
1.315014546
1.308156697
1.300641657
1.292512439
1.284065603
1.275000888
1.265554493
1.256059046
1.246932678
1.23768466
1.228824398
1.220452654
1.212700893
1.205607914
1.199224718
1.193561442
1.188613298
1.184356
1.180748825
1.177740962
1.175271346
1.173275775
1.171687039
1.170440876
1.1694759
1.168737779
1.168178379
1.167757883
1.167443204
1.167208452
1.167033198
1.166902138
1.166803625
1.166729181
1.166672476
1.166628976
1.166595297
1.166569044
1.166548379
1.166531996
1.166518758
1.16650778
1.16649931
1.166489149
1.166479929
1.166489367
1.347007854
1.348458445
1.348487641
1.348759093
1.349012685
1.348893115
1.348430596
1.347439887
1.345919708
1.343961094
1.340804596
1.336874391
1.33189798
1.325805114
1.318868711
1.311456597
1.303443152
1.294872648
1.286041687
1.276586776
1.266831149
1.25708072
1.247747299
1.23830695
1.229314258
1.220832695
1.213002544
1.205849864
1.199424453
1.193730345
1.188760384
1.184486812
1.180867067
1.177848534
1.175369176
1.173364088
1.171765838
1.170510128
1.169535761
1.168788626
1.168220841
1.167792771
1.167471454
1.167231031
1.167051054
1.16691614
1.166814543
1.16673767
1.16667908
1.166634135
1.16659936
1.166572285
1.166551012
1.166534189
1.166520631
1.166509549
1.166500925
1.1664905
1.166482545
1.166490707
1.357706883
1.35828605
1.358114006
1.358052728
1.357953398
1.357410899
1.356451724
1.35491164
1.352827857
1.350275213
1.346461459
1.341896902
1.33634576
1.329724234
1.322256184
1.314366356
1.305919649
1.296963631
1.287796275
1.277993234
1.267961024
1.257986682
1.248470429
1.238856093
1.229746943
1.221168252
1.213269363
1.206064725
1.199602899
1.193882498
1.188894088
1.184606828
1.180976482
1.1779488
1.175460897
1.173447263
1.171840307
1.170575741
1.169592586
1.168836962
1.168261253
1.167826004
1.167498386
1.167252571
1.1670681
1.166929515
1.166824981
1.166745792
1.166685405
1.166639081
1.166603261
1.166575402
1.166553552
1.166536309
1.166522453
1.166511291
1.166502482
1.166491884
1.166485167
1.166492056
1.367091069
1.367006123
1.366628462
1.366260231
1.365832208
1.364915163
1.363523974
1.361484441
1.358902236
1.355777194
1.351406081
1.346270037
1.340223701
1.333153575
1.325236747
1.316933374
1.308112672
1.298826466
1.289376045
1.279243509
1.268964282
1.258799313
1.24913683
1.239341302
1.230130386
1.221466194
1.213506911
1.206257028
1.199763768
1.194020867
1.189016822
1.184717999
1.181078634
1.178043011
1.175547503
1.173526083
1.171911058
1.170638192
1.16964674
1.168883066
1.168299825
1.167857741
1.167524116
1.167273159
1.167084399
1.16694231
1.166834969
1.166753569
1.166691465
1.166643824
1.166607007
1.1665784
1.166556
1.166538355
1.166524227
1.166513001
1.166503981
1.166493311
1.166487764
1.166493371
1.37544369
1.374775142
1.374097664
1.373422047
1.372699653
1.371455225
1.369693907