/*--------------------------------*- C++ -*----------------------------------*\
  =========                 |
  \\      /  F ield         | OpenFOAM: The Open Source CFD Toolbox
   \\    /   O peration     | Website:  https://openfoam.org
    \\  /    A nd           | Version:  12
     \\/     M anipulation  |
\*---------------------------------------------------------------------------*/
FoamFile
{
    format      ascii;
    class       volScalarField;
    location    "150";
    object      T;
}
// * * * * * * * * * * * * * * * * * * * * * * * * * * * * * * * * * * * * * //

dimensions      [0 0 0 1 0 0 0];

internalField   nonuniform List<scalar> 
16200
(
297.9048316
297.8731092
297.7150598
297.3793111
296.7396765
295.4741455
292.8112303
287.6757573
284.1480011
283.6425671
283.7054035
283.7559833
283.8304369
283.9224631
284.0416101
284.1827296
284.3512165
284.5494333
284.7827259
285.0562151
285.3763132
285.7493667
286.1814712
286.679082
287.2476652
287.8901835
288.6063351
289.3908406
290.2320861
291.1114546
292.0040969
292.8815588
293.7158113
294.4830197
295.1666827
295.7578881
296.2555444
296.6636774
296.9909201
297.2474472
297.4448838
297.5940329
297.7051447
297.7867581
297.8461374
297.8889257
297.9195909
297.9414313
297.9569469
297.9679247
297.975687
297.9811761
297.9850784
297.9879055
297.9899738
297.9916494
297.9928844
297.9941676
297.9948358
297.9972215
297.4001967
297.3436016
297.1460371
296.7423873
295.9691175
294.4029621
291.1252542
285.6733483
283.2074361
283.0172463
283.087652
283.1471388
283.2296121
283.3308142
283.4615215
283.6168365
283.8022796
284.0207499
284.2779579
284.5795624
284.9324528
285.3435606
285.8192101
286.3658426
286.9885676
287.6892656
288.4656506
289.3094705
290.2052359
291.1301132
292.055722
292.9518635
293.7911072
294.5525336
295.2235519
295.7995839
296.2825309
296.6786776
296.9971144
297.248128
297.4425027
297.5904483
297.7014078
297.783475
297.8435175
297.8870009
297.9182644
297.9405892
297.956463
297.9676978
297.9756302
297.9812249
297.9851807
297.9880267
297.9900997
297.9917498
297.9929881
297.9942384
297.9948976
297.9973667
296.950074
296.8625154
296.6182003
296.1373058
295.2067133
293.2535996
289.1329808
284.0309725
282.5124194
282.4837746
282.5647727
282.632573
282.7251352
282.8381179
282.982975
283.155296
283.3607286
283.6027715
283.8875191
284.2212034
284.6111739
285.0648845
285.5888052
286.1891649
286.8704129
287.6328778
288.4716201
289.3745377
290.3213927
291.2846428
292.2325458
293.1340108
293.963493
294.7041865
295.3484616
295.8964899
296.3535623
296.7280945
297.029757
297.2687029
297.4548548
297.5975679
297.7053492
297.785623
297.8447018
297.8877083
297.9187502
297.9409843
297.9568178
297.9680322
297.9759476
297.981518
297.9854462
297.9882524
297.9902923
297.9918947
297.9931119
297.9943261
297.9949359
297.9973721
296.5735864
296.4509731
296.1507
295.5752417
294.4518909
292.0505527
286.9785353
282.8566773
282.0231695
282.0582097
282.1465259
282.2243051
282.3278443
282.4537823
282.6141322
282.8051606
283.0326192
283.3006656
283.6157802
283.9847322
284.4152491
284.9152061
285.4910847
286.1486351
286.8911934
287.7168371
288.6170357
289.5748454
290.5646531
291.5543103
292.5096864
293.4003899
294.2044584
294.9103835
295.5161311
296.0265472
296.4501374
296.7969658
297.0770761
297.3001478
297.4751458
297.6103669
297.7132963
297.7905439
297.8477795
297.8896949
297.9200925
297.9419464
297.9575477
297.968613
297.9764236
297.9819133
297.985775
297.9885199
297.9905097
297.9920569
297.9932437
297.9944218
297.9949915
297.9974238
296.2657781
296.1086036
295.7442387
295.043815
293.6444101
290.6376214
284.9215009
282.0400228
281.6726786
281.7337512
281.8311903
281.9203533
282.0365351
282.1774478
282.355437
282.567599
282.819766
283.1167823
283.4655284
283.8733258
284.3482756
284.8986283
285.5307282
286.249446
287.0562735
287.9459963
288.905312
289.9114907
290.9332634
291.9345648
292.8804862
293.743296
294.5063045
295.164259
295.7209379
296.1855534
296.5693221
296.883462
297.1380422
297.3420255
297.5032916
297.6289725
297.7254635
297.7984782
297.8529781
297.8931518
297.9224419
297.9435899
297.958733
297.9694944
297.9770952
297.9824342
297.9861827
297.9888366
297.9907563
297.9922386
297.9933841
297.9945245
297.9950497
297.9974672
296.0232309
295.8340348
295.4021518
294.5572753
292.7990952
288.9283063
283.3015485
281.5352349
281.4371047
281.5101012
281.6177325
281.7195582
281.8496781
282.0071718
282.2045478
282.4398992
282.7192075
283.0481113
283.4340101
283.8848485
284.4090709
285.0150352
285.708438
286.4924651
287.3657002
288.3184056
289.3313714
290.3755103
291.4143268
292.409352
293.3270972
294.1446547
294.8520493
295.450798
295.9502237
296.3632445
296.7030593
296.981443
297.2080981
297.3910386
297.5369582
297.6517666
297.7407462
297.8086815
297.8597994
297.8977478
297.9255789
297.9457693
297.9602778
297.9706132
297.9779212
297.9830539
297.9866525
297.9891923
297.9910263
297.9924357
297.9935323
297.994634
297.9951145
297.9975205
295.8358427
295.61057
295.1011199
294.0848109
291.8909908
286.9693044
282.2111139
281.2367864
281.2932043
281.3749971
281.4942625
281.6104937
281.7565701
281.9331777
282.1528951
282.4149734
282.7256295
283.0913385
283.5200348
284.0201327
284.6001191
285.2679203
286.0277923
286.8802135
287.8197321
288.8310017
289.8881045
290.9555885
291.9929683
292.9616116
293.8319642
294.5879153
295.2271392
295.757864
296.1942576
296.5520475
296.8455907
297.0866266
297.2841235
297.4449671
297.5745994
297.6776979
297.7584434
297.8206966
297.8679496
297.9032973
297.9293869
297.9484122
297.9621375
297.9719419
297.9788848
297.983762
297.9871779
297.9895826
297.9913172
297.9926467
297.9936878
297.9947495
297.9951836
297.9975774
295.7048673
295.4330192
294.8271737
293.5747349
290.7775573
285.0066312
281.5054265
281.1264723
281.232813
281.3248837
281.4578154
281.5913189
281.7567456
281.9565964
282.2034127
282.4976202
282.8455926
283.2544425
283.7323882
284.287937
284.9292228
285.6633278
286.4924495
287.4133463
288.4152634
289.4762262
290.5632868
291.6353423
292.6499461
293.5710974
294.3756566
295.0557681
295.6170115
296.0736963
296.4437984
296.7448285
296.9914809
297.1949219
297.363082
297.5015932
297.6146235
297.7056454
297.7777793
297.8339954
297.8770742
297.9095653
297.9337118
297.9514183
297.964247
297.9734389
297.9799593
297.9845418
297.9877486
297.9900014
297.9916254
297.9928692
297.9938498
297.9948703
297.9952565
297.9976398
295.6559216
295.3322292
294.6129924
293.0434648
289.3641872
283.3875456
281.2621404
281.1012749
281.2761452
281.3813425
281.5297684
281.6829375
281.8704135
282.0966186
282.3739814
282.7041349
283.0936142
283.5500054
284.0815908
284.6966024
285.4023063
286.2043696
287.1023563
288.0883392
289.1447698
290.2419427
291.3402642
292.3947481
293.3637316
294.2168256
294.9393651
295.5324353
296.0090588
296.3885304
296.6914098
296.9359619
297.136485
297.3031348
297.4425859
297.5591522
297.6557452
297.734689
297.7981065
297.8481308
297.8868689
297.9163481
297.9384188
297.9546999
297.9665498
297.9750681
297.9811221
297.9853792
297.9883562
297.9904436
297.9919482
297.9931016
297.9940176
297.9949952
297.995333
297.9977068
295.7164392
295.3411339
294.4775669
292.5064395
287.7140077
282.3955178
281.1982942
281.3208808
281.4481003
281.5677013
281.7320604
281.9054475
282.1153781
282.3682504
282.6764553
283.0429878
283.4748325
283.9802314
284.567724
285.2451157
286.0178856
286.8886974
287.8529625
288.8971292
289.9959827
291.1113765
292.1983151
293.2109459
294.1116185
294.8781906
295.5057576
296.0041632
296.3927863
296.6945239
296.9312625
297.1210924
297.2773212
297.4087775
297.5207492
297.6162237
297.696908
297.7640556
297.8188693
297.8627103
297.8970615
297.9234598
297.943383
297.9581739
297.9689916
297.9767945
297.9823511
297.9862605
297.9889923
297.9909041
297.9922827
297.993342
297.9941903
297.9951215
297.9954131
297.9977783
295.864133
295.4239362
294.3528562
291.8326034
286.0210493
281.9429947
281.5031577
281.5767811
281.7265442
281.8631119
282.0455309
282.2417164
282.4770664
282.7598314
283.1020929
283.5077523
283.9843378
284.5410212
285.1866981
285.9289345
286.7710544
287.710975
288.7370319
289.8282681
290.9523575
292.0636608
293.1137835
294.0598228
294.8714117
295.5364376
296.0600511
296.4598845
296.7601615
296.9859076
297.1591826
297.2971421
297.4116698
297.5100712
297.5961985
297.6717502
297.7373066
297.7931415
297.8396236
297.8774138
297.9074254
297.9307432
297.948497
297.9617684
297.9715248
297.9785873
297.9836266
297.9871734
297.9896494
297.9913785
297.9926265
297.9935891
297.9943672
297.9952554
297.995496
297.9978541
296.0725381
295.5468529
294.1837959
290.8464418
284.5450375
281.7987397
281.8015867
281.9138994
282.0743136
282.2312213
282.4357097
282.6597685
282.926784
283.2468033
283.6314843
284.0854209
284.616001
285.2320666
285.9410117
286.7495916
287.6594426
288.6644569
289.744123
290.8665983
291.9931966
293.0744603
294.0614143
294.9176598
295.6228732
296.1756632
296.5905336
296.891366
297.1055334
297.2588014
297.3724444
297.4621216
297.5380191
297.6058314
297.6679917
297.7249827
297.776352
297.8214922
297.8600257
297.8919873
297.9177769
297.9380682
297.9536705
297.9654217
297.9741083
297.9804195
297.9849312
297.9881069
297.9903209
297.9918629
297.9929772
297.9938416
297.9945485
297.9953956
297.9955814
297.9979337
296.3425067
295.7010921
293.9721076
289.5521767
283.613886
282.0289356
282.1955072
282.3188493
282.4965554
282.6769178
282.9068514
283.1628054
283.4662615
283.8290785
284.2628562
284.7731803
285.3667497
286.050853
286.8306734
287.7088521
288.6819227
289.7405494
290.8585641
291.9917871
293.0940931
294.1173761
295.016083
295.7627717
296.3488986
296.7834386
297.0887424
297.2931089
297.4254067
297.510961
297.5695397
297.6149421
297.6555228
297.6953644
297.735547
297.7754337
297.8136428
297.8487848
297.8798232
297.9062385
297.9279735
297.9453315
297.9588305
297.9690834
297.9767078
297.9822682
297.9862501
297.9890519
297.9910009
297.9923537
297.993333
297.9940984
297.9947336
297.9955437
297.9956692
297.9980175
296.7034781
295.8839631
293.6510442
288.1543293
283.3517044
282.5285061
282.6949364
282.8288621
283.0260064
283.23233
283.4901804
283.7805265
284.1229959
284.5310183
285.0161277
285.5844587
286.2422444
286.9956145
287.8481276
288.7964822
289.8294188
290.9268681
292.0595934
293.178238
294.2282523
295.1660788
295.9546321
296.5768076
297.0362105
297.3509733
297.5492924
297.6620238
297.7180868
297.7414571
297.7499155
297.7552119
297.7638476
297.7783569
297.7985648
297.8228241
297.8489293
297.8748056
297.8988404
297.9200284
297.9379085
297.952454
297.9639195
297.9727128
297.9792953
297.9841148
297.9875711
297.9900003
297.9916846
297.9928481
297.9936921
297.9943586
297.9949222
297.995694
297.9957626
297.9981058
297.1819051
296.1018815
293.1448649
286.9102179
283.2543501
283.0887921
283.3091889
283.4581177
283.6763323
283.9102956
284.1978352
284.5242526
284.9075211
285.3623541
285.90011
286.5270559
287.2488258
288.0697446
288.989439
289.9993563
291.0816889
292.2033237
293.3233833
294.39792
295.3685495
296.1963338
296.8573398
297.345522
297.6755481
297.8729032
297.9694733
297.9969911
297.9832849
297.9503539
297.9137261
297.8830513
297.8630383
297.8547783
297.8569585
297.8670349
297.8820812
297.8994283
297.9169645
297.9332622
297.9475062
297.9593773
297.9688941
297.9762787
297.9818487
297.9859442
297.9888841
297.9909456
297.992368
297.9933435
297.9940531
297.9946212
297.9951138
297.9958395
297.9958594
297.9981986
297.7513532
296.2991752
292.4334906
286.117015
283.8285377
283.7744534
284.0123273
284.1819508
284.4247994
284.6904257
285.012363
285.3799035
285.8094765
286.3164757
286.9113865
287.5997295
288.3859444
289.2716761
290.251482
291.3097583
292.4197637
293.5426768
294.6245799
295.6238452
296.4894191
297.187285
297.7087907
298.0590079
298.2614364
298.346821
298.348727
298.2983898
298.2217359
298.1384175
298.0616162
297.9989339
297.9534016
297.9247974
297.9107948
297.9080648
297.9130578
297.9225938
297.9341324
297.9458811
297.9567161
297.9660605
297.973723
297.9797575
297.9843513
297.9877445
297.9901811
297.9918827
297.9930474
297.9938378
297.9944147
297.9948855
297.9953082
297.9959859
297.9959565
297.998295
298.3675465
296.4123028
291.6272894
285.9906823
284.480936
284.5464149
284.7958038
284.9917742
285.2635254
285.5657475
285.9277121
286.3424089
286.8247284
287.3900943
288.0475374
288.8007358
289.6509094
290.5952689
291.623741
292.713484
293.8267318
294.9185897
295.9368035
296.8308654
297.5681357
298.1222503
298.4982356
298.7114935
298.791666
298.7726763
298.6880989
298.5676547
298.4348634
298.3068698
298.1945434
298.1035587
298.0354142
297.988715
297.960245
297.9459957
297.9418836
297.9442936
297.9503191
297.9578543
297.9655079
297.9724772
297.9783842
297.9831325
297.9867905
297.9895068
297.9914559
297.9928071
297.9937203
297.9943293
297.994776
297.9951508
297.995505
297.9961352
297.9960557
297.9983946
298.9748111
296.4401415
290.8954143
285.97705
285.2824946
285.4217701
285.6844065
285.9102249
286.2131141
286.5542117
286.9586671
287.4227701
287.9599289
288.5851947
289.3061824
290.1241982
291.0354654
292.0303276
293.0905027
294.1878724
295.277052
296.306705
297.2311972
297.9951319
298.5862308
298.9893489
299.2194728
299.3008065
299.2666186
299.1521508
298.9897331
298.8068966
298.6245062
298.4571952
298.3136415
298.1977517
298.1096512
298.0469124
298.0055471
297.9809647
297.9686285
297.964555
297.9655274
297.9691722
297.9738671
297.978612
297.9828642
297.9863923
297.9891575
297.9912245
297.9927036
297.9937156
297.9943843
297.9948165
297.995136
297.9954165
297.9957034
297.9962848
297.9961594
297.9984972
299.5056282
296.4132686
290.4056696
286.3077886
286.2203447
286.4043604
286.6844802
286.9431165
287.2796448
287.6621528
288.1117243
288.6273455
289.2207567
289.9057869
290.6877253
291.5643267
292.5267977
293.5583911
294.6307283
295.7068881
296.740419
297.6784985
298.478206
299.0961528
299.5308823
299.7816496
299.8702651
299.8276321
299.6885578
299.4880822
299.2564421
299.0185989
298.7927081
298.5909955
298.4201186
298.282394
298.1767342
298.0998124
298.0469771
298.013143
297.9933916
297.9834302
297.9797802
297.9798408
297.9817908
297.9844584
297.9871552
297.9895299
297.9914463
297.9928929
297.9939207
297.9946057
297.9950376
297.9952983
297.9954939
297.9956822
297.9959034
297.9964407
297.9962672
297.9986024
299.9566349
296.3557047
290.2982224
287.3482257
287.2801684
287.491346
287.7943286
288.0898726
288.4637437
288.891178
289.389166
289.9585731
290.6090678
291.3521477
292.1895579
293.1142259
294.1114098
295.1573065
296.2164532
297.24115
298.187082
299.0052247
299.6568901
300.1196427
300.3948174
300.4965812
300.4514947
300.2947247
300.0609843
299.783985
299.4913728
299.2053908
298.9415663
298.7098874
298.5151867
298.3583711
298.2372938
298.1478516
298.0848277
298.0427197
298.0162897
298.000987
297.9931141
297.9898772
297.989285
297.9900163
297.9912547
297.9925415
297.9936534
297.9945088
297.9951047
297.9954754
297.995679
297.9957736
297.9958492
297.9959473
297.9961055
297.9965973
297.9963798
297.9987094
300.30379
296.3091141
290.7078403
288.2929224
288.4663141
288.6981439
289.0266123
289.3617685
289.7751551
290.2489867
290.7961639
291.4184996
292.1231104
292.9181396
293.8008907
294.75855
295.7694571
296.8025143
297.8161038
298.7598473
299.5894419
300.2646845
300.755516
301.0571762
301.1751625
301.1350174
300.9663121
300.7061932
300.3881027
300.0436806
299.697762
299.36989
299.0731297
298.815435
298.6000149
298.4265399
298.2919449
298.1914616
298.119394
298.0698906
298.0374481
298.0173027
298.005574
297.9993059
297.9963616
297.9952905
297.9951634
297.9954263
297.9957769
297.9960704
297.9962539
297.9963233
297.9963073
297.9962419
297.9962012
297.9962115
297.99631
297.9967545
297.9964972
297.9988163
300.654408
296.3159029
291.1008703
289.4979177
289.7807398
290.0324515
290.3886352
290.7639465
291.2169426
291.7361246
292.3304773
293.0016891
293.7537497
294.5904569
295.5037664
296.4744332
297.473921
298.4645268
299.4000692
300.2346445
300.9244207
301.4407241
301.7648857
301.9050121
301.8725963
301.7003714
301.419358
301.0669005
300.6744067
300.2710271
299.8787672
299.5145976
299.189333
298.9091073
298.6757008
298.4877075
298.3412712
298.2310563
298.1509632
298.0948499
298.0569949
298.0324585
298.0172096
298.0081559
298.0030366
298.0002888
297.9988846
297.9981849
297.9978163
297.9975767
297.9973671
297.9971484
297.9969217
297.9967024
297.9965496
297.9964746
297.9965162
297.996912
297.9966193
297.9989239
301.0343778
296.4824858
291.6867858
290.8556047
291.2117273
291.4890313
291.8737319
292.2890027
292.780924
293.3431312
293.9809335
294.6947323
295.4846827
296.3493101
297.2745399
298.2345607
299.1946316
300.112433
300.9415135
301.641668
302.1740979
302.5224732
302.6797067
302.6635764
302.4906101
302.1977422
301.8161046
301.3820021
300.9243837
300.4697402
300.0373619
299.6418374
299.2919607
298.9922559
298.7432552
298.5426201
298.3858157
298.2670243
298.1798083
298.1177853
298.0750555
298.0465364
298.0280729
298.0164589
298.0093284
298.0050216
298.0024236
298.0008195
297.9997724
297.9990273
297.9984439
297.9979501
297.9975218
297.9971547
297.996894
297.9967362
297.9967239
297.9970693
297.9967462
297.9990327
301.4896789
296.8429127
293.0209222
292.3472256
292.7486694
293.0568815
293.4705915
293.9251027
294.4547613
295.0567416
295.7326888
296.4805678
297.2958942
298.1711834
299.0861247
300.0089768
300.9005491
301.7169762
302.415144
302.9616105
303.3262296
303.5045208
303.4998371
303.3364504
303.0346251
302.6331721
302.1623443
301.6566211
301.1423234
300.6432865
300.1762785
299.753726
299.3826317
299.066106
298.803596
298.5919582
298.4260766
298.2997252
298.2061843
298.1388741
298.0917509
298.0596167
298.0382156
298.0242474
298.0152567
298.0095002
298.0057865
298.0033334
298.0016462
298.0004226
297.9994839
297.9987282
297.9981071
297.9975984
297.9972338
297.996996
297.9969327
297.9972261
297.996878
297.9991418
302.0750736
297.5610254
294.2648846
293.9586335
294.3834185
294.7270416
295.1703235
295.6627254
296.2279374
296.86476
297.5709488
298.3410186
299.165282
300.0300491
300.909335
301.7670081
302.5619606
303.2520075
303.8000193
304.1805702
304.3744232
304.386324
304.2285999
303.9293372
303.511151
303.0130585
302.4638157
301.8956295
301.3321989
300.7948236
300.2979807
299.8521623
299.4627955
299.1317553
298.8575482
298.6363361
298.4625064
298.3294879
298.2303265
298.1582818
298.1071949
298.0717761
298.0476883
298.0315538
298.0208418
298.0137368
298.0089803
298.0057301
298.0034395
298.0017632
298.0004874
297.9994823
297.9986772
297.9980333
297.9975688
297.9972537
297.9971424
297.9973818
297.9970151
297.9992507
302.801111
298.5762014
295.759371
295.6804475
296.1177425
296.4995378
296.9714465
297.4977328
298.0928106
298.7555156
299.4795089
300.2551881
301.0675605
301.8972216
302.7138186
303.4789959
304.1525136
304.696591
305.0817346
305.2914036
305.3176238
305.1712103
304.8717891
304.4491461
303.9271088
303.3437421
302.7259636
302.103519
301.4976075
300.9271783
300.4046605
299.9388305
299.5337375
299.1901791
298.9058469
298.6763036
298.4955123
298.3566104
298.2524498
298.1761608
298.1214936
298.0830869
298.0565393
298.0384095
298.0261036
298.0177436
298.0120122
298.0080137
298.0051545
298.0030502
298.0014547
298.0002125
297.9992321
297.9984588
297.9978986
297.9975089
297.9973524
297.9975362
297.9971576
297.9993589
303.651381
299.6279228
297.4102477
297.5141465
297.9593501
298.3745471
298.8700011
299.4218643
300.0364221
300.7113109
301.4360988
302.1968359
302.9735635
303.7422196
304.4699065
305.1184533
305.650991
306.0360284
306.252536
306.2931816
306.1589091
305.8651452
305.4366213
304.9033278
304.2893961
303.6312555
302.95381
302.2843475
301.641758
301.0428531
300.4982508
300.0152146
299.5965916
299.2422398
298.9491446
298.712351
298.5254594
298.3813613
298.2727494
298.1926505
298.1347449
298.0936166
298.0648141
298.0448446
298.0310613
298.0215327
298.0148896
298.0101883
298.0067934
298.0042845
298.0023862
298.0009189
297.9997714
297.9988748
297.9982226
297.9977615
297.9975624
297.9976888
297.9973057
297.9994658
304.6272007
300.7171246
299.2147787
299.4466369
299.8962508
300.3371106
300.8482516
301.4147427
302.0355814
302.7061289
303.4120936
304.1355001
304.8523021
305.5352814
306.1510777
306.6639883
307.0423872
307.2620622
307.3105676
307.1890235
306.9042114
306.4756528
305.9309745
305.2993569
304.6045962
303.8811541
303.1518798
302.4417176
301.7674753
301.1440408
300.5804428
300.0826134
299.6523518
299.2886958
298.9880171
298.744913
298.5526729
298.4039816
298.2914012
298.2078774
298.1470384
298.1034273
298.0725549
298.0508872
298.0357334
298.0251158
298.0176194
298.0122582
298.0083587
298.0054676
298.0032825
298.0016014
298.000295
297.9992809
297.9985405
297.998011
297.9977718
297.9978395
297.9974591
297.9995706
305.7664243
302.0366534
301.1403311
301.4568202
301.9059798
302.363678
302.8807062
303.4488531
304.0609526
304.7092891
305.3759799
306.0397926
306.6739866
307.2499372
307.7358251
308.1002594
308.3179376
308.3721214
308.2584583
307.9848227
307.5611759
307.0109084
306.3627489
305.6443323
304.8787657
304.0984166
303.3241698
302.5787817
301.8772182
301.2326459
300.6527049
300.1421564
299.7018853
299.3302111
299.0229711
298.7743735
298.5774417
298.424686
298.308563
298.221956
298.1584554
298.112576
298.0798009
298.0565638
298.0401372
298.0285038
298.0202087
298.0142277
298.0098527
298.0066008
298.0041441
298.0022603
298.0008028
297.9996767
297.9988518
297.9982572
297.9979799
297.9979881
297.9976179
297.9996718
307.0097218
303.6608138
303.1531009
303.5181484
303.9623659
304.4274218
304.9394408
305.4947534
306.0816542
306.68942
307.2969899
307.8807266
308.4128622
308.8651711
309.2089711
309.4183817
309.4747446
309.3683855
309.1020462
308.6880994
308.1382673
307.4792077
306.7395298
305.9447987
305.1173591
304.2874504
303.4741802
302.6982861
301.9731218
301.3103212
300.7163134
300.194828
299.7459502
299.3673682
299.0544525
298.8010723
298.6000224
298.4436665
298.3243766
298.2349892
298.1690699
298.1211148
298.0865881
298.0618987
298.0442889
298.0317075
298.0226642
298.0161007
298.0112779
298.0076852
298.0049717
298.0028956
298.0012945
298.000062
297.9991561
297.9984998
297.9981862
297.9981341
297.9977817
297.9997668
308.3499087
305.4063134
305.2222673
305.6034728
306.0370466
306.4988094
306.9948691
307.5230899
308.0681211
308.6172209
309.1475327
309.6338923
310.0489281
310.3664439
310.5619286
310.6154975
310.5148574
310.256586
309.8491214
309.3071375
308.644205
307.8886157
307.068369
306.2066719
305.3252106
304.4521255
303.6049595
302.8026137
302.0570363
301.3785002
300.7723771
300.2414857
299.7852091
299.4006786
299.0828546
298.82531
298.620643
298.4610944
298.3389691
298.2470702
298.1789488
298.1290912
298.0929497
298.0669145
298.0482036
298.0347366
298.0249921
298.0178814
298.0126367
298.0087224
298.0057658
298.0035074
298.00177
298.0004364
297.999453
297.9987385
297.9983898
297.998277
297.997949
297.999855
309.7705995
307.2545605
307.2467102
307.6917874
308.1064551
308.550642
309.0174922
309.504205
309.9922593
310.4665818
310.9043564
311.2803001
311.5683267
311.7454416
311.791834
311.6934962
311.4438168
311.0445914
310.5084373
309.8508827
309.0874781
308.2466205
307.3556007
306.4351787
305.506529
304.5957871
303.7191321
302.8938122
302.1305525
301.4384174
300.821854
300.282873
299.8202391
299.4305891
299.1085223
298.8473515
298.6395053
298.4771218
298.3524537
298.2582823
298.1881525
298.136548
298.0989155
298.0716319
298.0518952
298.0376003
298.0271985
298.0195734
298.0139313
298.0097134
298.0065269
298.0040959
298.0022291
298.0007996
297.9997421
297.998973
297.99859
297.9984165
297.9981174
297.9999412
311.2537006
309.172736
309.3804912
309.7491698
310.1398787
310.5542056
310.9788426
311.410326
311.8283685
312.2155389
312.5495282
312.8067402
312.9630623
312.9992572
312.9003293
312.6576038
312.2692709
311.7412534
311.0890272
310.3282545
309.4758978
308.5599156
307.6067728
306.6348536
305.6649353
304.721296
303.8189411
302.9736321
302.1950331
301.491134
300.8655707
300.3196347
299.8515425
299.4574907
299.1317588
298.8674305
298.6567882
298.4918841
298.364932
298.2687001
298.1967354
298.1435244
298.1045133
298.0760699
298.0553768
298.0403074
298.0292891
298.0211804
298.015164
298.0106595
298.0072556
298.004661
298.0026717
298.0011512
298.0000228
297.9992029
297.9987858
297.9985528
297.9982872
298.0000293
312.7648734
311.1248303
311.3997185
311.7533601
312.110417
312.4844365
312.8557891
313.220388
313.5571218
313.848428
314.0718683
314.2065779
314.2311177
314.1300456
313.8929317
313.5156654
313.0003341
312.3559895
311.5999371
310.7475393
309.8165804
308.8344882
307.826798
306.8096631
305.8035777
304.8311329
303.9063297
303.0435922
302.2516641
301.5375771
300.9042526
300.3523385
299.879564
299.4817309
299.1528347
298.8857564
298.6726522
298.5055036
298.3764956
298.278392
298.2047473
298.1500562
298.1097682
298.0802462
298.0586604
298.0428661
298.0312692
298.0227058
298.0163368
298.0115618
298.0079523
298.005203
298.0030977
298.0014909
298.000295
297.9994279
297.9989766
297.9986861
297.9984599
298.0001115
314.2772884
313.0623165
313.3619085
313.6807608
313.9955546
314.3191296
314.6280253
314.9170627
315.1649463
315.3552008
315.4656326
315.4782647
315.3747731
315.143258
314.7773511
314.2767058
313.6464677
312.8979911
312.0496399
311.1161276
310.1158009
309.0755559
308.0199433
306.9629926
305.9251378
304.9274113
303.9829536
303.1049896
302.301462
301.5785447
300.9385273
300.3814787
299.9046922
299.503615
299.1719887
298.9025148
298.6872408
298.5180896
298.3872272
298.2874194
298.2122336
298.1561763
298.1147039
298.0841773
298.0617575
298.0452841
298.0331441
298.0241531
298.0174518
298.0124214
298.0086177
298.0057219
298.003507
298.0018184
298.0005582
297.9996476
297.9991613
297.998816
297.9986338
298.0001876
315.7894353
314.941852
315.2249209
315.5056637
315.7722598
316.0383055
316.2786488
316.4871053
316.6430196
316.7307696
316.7295804
316.6241493
316.3993409
316.046407
315.5624249
314.950095
314.2168949
313.375856
312.4458103
311.4405722
310.3790428
309.2876532
308.1898741
307.0977346
306.0319186
305.0119496
304.0502438
303.1589517
302.3453151
301.6147386
300.9689495
300.407494
299.9272742
299.5234165
299.1894356
298.9178733
298.7006834
298.5297414
298.397202
298.2958387
298.2192359
298.161915
298.1193421
298.0878788
298.0646789
298.0475689
298.0349188
298.0255255
298.0185109
298.0132395
298.0092523
298.0062181
298.0038996
298.0021335
298.0008122
297.9998615
297.9993392
297.9989426
297.9988082
298.0002571
317.2741271
316.726814
316.9729563
317.210224
317.4242646
317.6283908
317.7971126
317.9234011
317.9876371
317.9749966
317.866802
317.6500234
317.3126068
316.8485242
316.2576887
315.5452765
314.7204645
313.7975317
312.7953015
311.7266691
310.6111175
309.4746934
308.3396679
307.2163911
306.1259071
305.0863187
304.1094418
303.2064602
302.384001
301.6467761
300.9960093
300.4307741
299.9476192
299.5413802
299.205368
298.9319826
298.7130971
298.5405491
298.4064886
298.3037015
298.2257923
298.1673002
298.1237031
298.0913649
298.0674347
298.0497276
298.0365981
298.0268259
298.0195162
298.0140173
298.0098566
298.0066917
298.0042753
298.0024358
298.0010566
298.0000692
297.9995097
297.9990648
297.9989804
298.0003196
318.7118768
318.3897615
318.5893723
318.7801976
318.9399863
319.0808216
319.1779901
319.2237044
319.1995629
319.0916142
318.8833317
318.5637239
318.1234922
317.5590089
316.8724946
316.0711197
315.1652209
314.1700193
313.10403
311.9794396
310.8161512
309.6399655
308.4719
307.3211344
306.2088171
305.1518803
304.1616299
303.2483768
302.4182065
301.6752053
301.020145
300.4516693
299.9660063
299.5577278
299.2199613
298.9449805
298.7245891
298.5505953
298.41515
298.3110553
298.2319384
298.1723582
298.1278058
298.0946495
298.0700347
298.0517668
298.0381864
298.0280576
298.0204694
298.0147557
298.0104314
298.007143
298.0046342
298.0027251
298.0012914
298.0002701
297.9996723
297.9991873
297.9991487
298.0003755
320.0831005
319.9107975
320.0628688
320.2064876
320.3130825
320.3923241
320.4208125
320.3901439
320.2832959
320.0872045
319.7871279
319.3741903
318.84136
318.1871677
317.4157253
316.5357641
315.5583603
314.4994708
313.3772437
312.2032433
310.9976905
309.7863187
308.5889572
307.4138468
306.2821386
305.2098244
304.2077604
303.2854647
302.4485443
301.7005189
301.041753
300.4704979
299.9826908
299.5726632
299.2333773
298.9569944
298.7352593
298.5599574
298.4232457
298.3179452
298.2377081
298.1771141
298.1316687
298.0977458
298.0724885
298.0536934
298.0396885
298.0292234
298.0213725
298.0154562
298.0109772
298.0075722
298.0049763
298.0030012
298.0015164
298.0004635
297.9998256
297.999305
297.9993113
298.0004262
321.3709937
321.2764127
321.3872966
321.4859824
321.5428413
321.5645417
321.5292945
321.4282517
321.2458691
320.9698544
320.5871229
320.0907103
319.4755115
318.7418964
317.8956085
316.9465537
315.9062707
314.7914052
313.6197347
312.4018492
311.1588212
309.916367
308.6931723
307.4961282
306.3471804
305.2612078
304.2486861
303.3184129
302.4755714
301.723168
301.0611979
300.4875544
299.9979096
299.5863762
299.2457672
298.9681441
298.7452015
298.5687086
298.430832
298.3244144
298.2431338
298.1815921
298.1353098
298.100667
298.0748054
298.0555139
298.041109
298.0303267
298.0222278
298.0161199
298.0114948
298.0079796
298.0053015
298.0032641
298.0017315
298.0006488
297.9999698
297.999423
297.9994679
298.0004646
322.5636104
322.488574
322.5648261
322.6219699
322.6333819
322.6027211
322.5098965
322.3456432
322.0957105
321.7484717
321.2925755
320.7224559
320.0347516
319.2314089
318.3195806
317.310015
316.2146143
315.0507577
313.83561
312.5784724
311.3022613
310.0324648
308.7863834
307.5693381
306.4051051
305.3069785
304.2851772
303.347848
302.4997978
301.7435677
301.0788172
300.5031125
300.011884
299.5990446
299.2572731
298.9785423
298.7545045
298.5769182
298.4379626
298.3305038
298.2482468
298.1858158
298.1387466
298.103426
298.0769949
298.0572351
298.0424525
298.0313705
298.0230373
298.0167484
298.0119851
298.0083658
298.00561
298.0035137
298.0019368
298.0008254
298.0001038
297.9995371
297.999613
298.0004931
323.6169134
323.5567327
323.6016083
323.6212554
323.5921344