/*--------------------------------*- C++ -*----------------------------------*\
  =========                 |
  \\      /  F ield         | OpenFOAM: The Open Source CFD Toolbox
   \\    /   O peration     | Website:  https://openfoam.org
    \\  /    A nd           | Version:  12
     \\/     M anipulation  |
\*---------------------------------------------------------------------------*/
FoamFile
{
    format      ascii;
    class       volScalarField;
    location    "0.03";
    object      k;
}
// * * * * * * * * * * * * * * * * * * * * * * * * * * * * * * * * * * * * * //

dimensions      [0 2 -2 0 0 0 0];

internalField   nonuniform List<scalar> 
16000
(
0.051401824
0.02235542
0.023049544
0.017058414
0.014445377
0.013071157
0.012256453
0.011771788
0.011443283
0.011223654
0.011059691
0.010938607
0.010843427
0.010768441
0.010708074
0.010659191
0.010619458
0.010587147
0.010560485
0.010538719
0.010521183
0.010507123
0.010495893
0.010487158
0.010480569
0.010475863
0.010472827
0.0104713
0.010471139
0.010472211
0.010474386
0.010477548
0.010481593
0.010486419
0.010491921
0.010497979
0.010504465
0.010511235
0.010518141
0.010525026
0.010531727
0.010538078
0.010543925
0.010549125
0.010553557
0.010557132
0.010559823
0.010561687
0.010562934
0.010563994
0.010565535
0.010568379
0.01057327
0.010580493
0.010589384
0.010598183
0.010604636
0.010607279
0.010606471
0.010606001
0.010606511
0.01060513
0.010596758
0.010574651
0.010536457
0.010488062
0.010443022
0.010415326
0.010410201
0.010425122
0.010453305
0.010487547
0.010519324
0.010540817
0.010550157
0.010547643
0.010541134
0.010422004
0.010213125
0.010152012
0.048048271
0.021147926
0.021578913
0.016491503
0.014090083
0.012862876
0.012087118
0.011649956
0.011335928
0.011133372
0.010979879
0.010867453
0.010778729
0.01070912
0.010653197
0.01060813
0.010571631
0.010542167
0.010518031
0.010498406
0.010482828
0.010470512
0.010460888
0.010453601
0.010448347
0.010444859
0.010442935
0.010442414
0.010443165
0.010445061
0.010447976
0.010451796
0.010456418
0.010461745
0.010467677
0.010474103
0.010480903
0.010487948
0.010495099
0.010502218
0.010509161
0.010515783
0.010521957
0.010527583
0.010532587
0.010536946
0.010540704
0.01054399
0.010547059
0.01055034
0.010554446
0.01056011
0.010568007
0.01057836
0.010590378
0.010601986
0.010610474
0.010614063
0.010613237
0.01061013
0.010606224
0.01059955
0.010584554
0.010555661
0.010512809
0.010463905
0.010422835
0.010401915
0.010402994
0.010423878
0.01045597
0.010492277
0.010523685
0.010542547
0.010548186
0.010546633
0.010528619
0.010406077
0.010191413
0.010130575
0.044635788
0.020280691
0.02021538
0.015905604
0.013723917
0.012625723
0.011910579
0.011515642
0.011225722
0.01104137
0.01089924
0.010795998
0.010714266
0.010650397
0.010599235
0.010558248
0.010525221
0.010498745
0.010477387
0.010460098
0.010446626
0.010436199
0.010428328
0.010422625
0.010418827
0.010416678
0.010415982
0.010416585
0.01041836
0.010421188
0.01042495
0.010429533
0.010434837
0.010440766
0.010447227
0.010454117
0.010461326
0.010468737
0.010476225
0.01048367
0.01049095
0.010497946
0.010504563
0.010510739
0.010516455
0.010521746
0.01052672
0.010531562
0.010536551
0.010542087
0.010548708
0.010557056
0.010567719
0.010580815
0.010595379
0.010609039
0.010618715
0.0106223
0.010620041
0.010614015
0.010605615
0.010592953
0.010570851
0.010535158
0.010488105
0.010439622
0.010403716
0.010390652
0.010398794
0.010425113
0.010461264
0.01049925
0.010529463
0.010544469
0.010547741
0.010544627
0.010512365
0.010375157
0.010176354
0.010115329
0.040854817
0.019673732
0.019029644
0.015378493
0.013390951
0.012410542
0.011747933
0.011392384
0.011123718
0.01095591
0.010824696
0.010729971
0.010654942
0.010596575
0.010550007
0.010512922
0.010483228
0.010459549
0.010440929
0.01042596
0.010414531
0.010405976
0.010399842
0.01039572
0.010393374
0.010392564
0.010393103
0.010394839
0.010397649
0.010401423
0.010406046
0.010411408
0.010417412
0.010423965
0.01043098
0.010438362
0.010446014
0.010453832
0.01046171
0.010469544
0.01047724
0.010484708
0.010491885
0.010498747
0.010505325
0.010511701
0.010518029
0.010524529
0.010531481
0.010539233
0.010548222
0.010558968
0.010571932
0.010587111
0.010603407
0.010618228
0.010628171
0.010630866
0.010626509
0.010617217
0.010604211
0.010585499
0.010556708
0.010515306
0.010465469
0.010418701
0.010388602
0.010382185
0.010396853
0.010428445
0.010467934
0.010506516
0.01053438
0.010545308
0.010547099
0.010539629
0.010478691
0.010332051
0.010165986
0.010104114
0.037355459
0.019311449
0.018027735
0.014888956
0.013079726
0.012206133
0.011594588
0.011275466
0.011027873
0.010875616
0.01075512
0.010668561
0.0106001
0.010547136
0.010505135
0.010471893
0.010445533
0.010424543
0.010408619
0.010396009
0.010386623
0.010379972
0.010375594
0.010373082
0.010372218
0.010372781
0.010374589
0.010377494
0.010381374
0.010386125
0.010391639
0.010397809
0.010404539
0.010411742
0.010419334
0.010427233
0.010435352
0.010443605
0.010451903
0.010460166
0.010468324
0.01047632
0.010484124
0.010491749
0.010499265
0.010506792
0.010514511
0.010522658
0.0105315
0.010541319
0.010552425
0.010565169
0.010579838
0.010596314
0.010613445
0.010628556
0.010638033
0.010639236
0.010632293
0.010619425
0.01060181
0.010577423
0.010542565
0.010496352
0.010444809
0.01040087
0.010377549
0.010376416
0.010397378
0.010433969
0.010476004
0.010513904
0.010538253
0.010545642
0.010546206
0.010529432
0.01044191
0.010288075
0.010155531
0.010094705
0.035018615
0.019199199
0.017273401
0.014439417
0.012792432
0.012015254
0.011452143
0.011166519
0.010939253
0.01080136
0.010691283
0.010612464
0.010550354
0.010502609
0.010465078
0.01043558
0.010412601
0.010394246
0.010380937
0.010370694
0.01036336
0.010358639
0.01035603
0.010355151
0.0103558
0.010357764
0.010360868
0.010364967
0.01036994
0.010375686
0.010382103
0.010389087
0.010396546
0.010404396
0.010412562
0.01042097
0.010429549
0.010438228
0.010446942
0.010455632
0.010464257
0.010472791
0.010481238
0.010489644
0.010498111
0.010506786
0.010515862
0.010525567
0.010536135
0.010547759
0.010560595
0.010574798
0.010590474
0.01060742
0.010624524
0.010639194
0.01064773
0.010647186
0.010637458
0.010620851
0.010598723
0.010569184
0.010529077
0.010478935
0.010426696
0.010386601
0.010370828
0.010373789
0.010400519
0.010441579
0.01048498
0.010520618
0.010540369
0.010545522
0.010544076
0.010512399
0.010406559
0.010251516
0.010142036
0.010085791
0.032804205
0.019262214
0.016735578
0.014026839
0.012527157
0.011837393
0.011320516
0.011065555
0.0108579
0.010733238
0.01063324
0.010561791
0.010505823
0.010463121
0.010429963
0.010404099
0.010384577
0.010368924
0.010358206
0.010350346
0.010345114
0.010342351
0.010341538
0.010342333
0.01034453
0.010347928
0.010352355
0.010357667
0.010363745
0.01037049
0.010377804
0.010385587
0.010393752
0.01040222
0.010410924
0.010419801
0.010428796
0.010437858
0.010446942
0.010456017
0.010465067
0.0104741
0.01048315
0.01049229
0.010501646
0.010511379
0.010521681
0.010532753
0.01054476
0.010557791
0.01057185
0.010586902
0.010602889
0.010619544
0.01063587
0.01064951
0.010656835
0.010654559
0.010642123
0.010621826
0.010595427
0.010561268
0.010516674
0.010463434
0.010411321
0.010375934
0.010366118
0.010373029
0.010406199
0.010450954
0.01049419
0.010525899
0.010540944
0.010544784
0.010539615
0.010490927
0.010375819
0.010224147
0.010126789
0.010075136
0.030067621
0.019427066
0.016305608
0.01364886
0.01228251
0.011672511
0.011199593
0.010972603
0.010783641
0.010671233
0.010581
0.010516649
0.010466679
0.010428893
0.010400061
0.010377744
0.010361702
0.010348903
0.010340818
0.010335369
0.010332392
0.010331551
0.01033257
0.01033508
0.010338858
0.010343711
0.010349472
0.010355999
0.01036317
0.010370889
0.01037906
0.010387591
0.010396401
0.010405415
0.010414578
0.010423841
0.010433164
0.010442518
0.010451882
0.010461251
0.010470637
0.010480077
0.010489631
0.010499395
0.010509503
0.01052012
0.010531423
0.010543563
0.010556628
0.010570596
0.010585332
0.010600636
0.010616297
0.010631992
0.010646897
0.010659044
0.010665073
0.010661359
0.010646558
0.010622786
0.010592435
0.010554167
0.010505767
0.010450145
0.010398794
0.01036895
0.010362711
0.010374542
0.010414158
0.010461497
0.010502742
0.010529165
0.010540169
0.01054157
0.010530722
0.010470676
0.010351032
0.010205251
0.010112127
0.010062579
0.027983381
0.019612025
0.015836966
0.013302331
0.012056952
0.011519987
0.011088514
0.010886887
0.010716478
0.010615586
0.010534813
0.010477359
0.010433282
0.010400332
0.010375819
0.010357033
0.010344403
0.010334642
0.010329247
0.010326191
0.010326018
0.01032678
0.010329626
0.010333877
0.010339252
0.01034556
0.010352638
0.010360345
0.01036856
0.010377183
0.010386127
0.010395307
0.010404647
0.010414084
0.010423576
0.010433087
0.0104426
0.010452105
0.01046161
0.010471134
0.010480717
0.01049042
0.010500326
0.010510542
0.010521205
0.010532468
0.010544478
0.01055733
0.01057103
0.01058545
0.010600324
0.010615309
0.01063006
0.010644228
0.010657199
0.010667518
0.010672319
0.010667737
0.010651025
0.010624139
0.010590197
0.01054832
0.010496743
0.01043934
0.010389303
0.010364705
0.010361031
0.010378733
0.010423844
0.010472311
0.010509703
0.010529776
0.010537102
0.010534247
0.010515894
0.010451997
0.01033091
0.010192749
0.010100098
0.01004879
0.02627449
0.01978009
0.01516433
0.012984602
0.011850265
0.011380014
0.010987899
0.010809608
0.010657004
0.010566783
0.010495144
0.010444421
0.010406152
0.010377981
0.010357777
0.010342618
0.01033322
0.010326731
0.010324037
0.010323127
0.010324922
0.010328398
0.010333231
0.010339224
0.010346177
0.010353899
0.010362231
0.010371032
0.010380181
0.010389582
0.010399151
0.010408814
0.010418508
0.010428182
0.010437808
0.010447374
0.01045688
0.010466345
0.010475801
0.010485295
0.01049489
0.010504668
0.010514727
0.010525178
0.010536152
0.010547783
0.010560175
0.010573364
0.010587267
0.010601651
0.010616136
0.010630268
0.010643619
0.010655844
0.010666553
0.01067484
0.010678492
0.010673723
0.010655573
0.010626148
0.010589066
0.010544075
0.010489915
0.010431232
0.010382704
0.010362579
0.010360777
0.010385139
0.010434459
0.010482259
0.010514195
0.010527807
0.010530668
0.010523261
0.010497643
0.010433641
0.010312968
0.01018408
0.010092335
0.010034305
0.024634347
0.019915986
0.014592672
0.012692836
0.011663018
0.011253152
0.01089862
0.010741367
0.010605496
0.010525276
0.010462472
0.010418368
0.010385853
0.010362456
0.010346494
0.010335189
0.010328559
0.010325859
0.010323157
0.010327893
0.01033174
0.010337191
0.010343904
0.010351597
0.010360055
0.01036909
0.010378545
0.010388282
0.010398181
0.010408152
0.010418119
0.010428023
0.010437818
0.01044747
0.010456972
0.010466336
0.010475588
0.010484772
0.010493948
0.010503186
0.010512572
0.010522203
0.010532184
0.010542624
0.01055364
0.010565337
0.01057777
0.010590906
0.010604576
0.010618451
0.010632067
0.010644903
0.010656503
0.010666562
0.010674898
0.010681075
0.010683465
0.010678692
0.010659928
0.010628821
0.010589259
0.010541675
0.010485473
0.010425871
0.010378631
0.010361908
0.010361928
0.010393091
0.010445037
0.010490154
0.01051521
0.010523464
0.010521762
0.010510677
0.010481186
0.01041427
0.010295317
0.01017649
0.0100891
0.010027867
0.023182024
0.020037325
0.014100629
0.012427299
0.011495357
0.011139285
0.010820545
0.010681933
0.010562332
0.010491591
0.010437346
0.010399792
0.010373002
0.010354443
0.010342512
0.010335484
0.010330063
0.010332825
0.010335775
0.010339816
0.010346075
0.0103536
0.01036213
0.010371407
0.010381218
0.010391377
0.01040173
0.010412147
0.010422515
0.010432751
0.010442796
0.010452611
0.010462171
0.010471471
0.010480529
0.010489382
0.010498087
0.010506715
0.010515351
0.010524088
0.010533026
0.010542271
0.010551929
0.010562101
0.01057288
0.01058433
0.010596456
0.010609152
0.010622173
0.01063512
0.01064748
0.010658709
0.010668361
0.010676204
0.010682238
0.010686369
0.010687479
0.01068228
0.010663411
0.010631814
0.010590786
0.010541204
0.010483401
0.010423092
0.010376743
0.010362225
0.01036466
0.01040183
0.010454449
0.01049507
0.010512927
0.010516377
0.010511115
0.010497559
0.010464766
0.010393649
0.010277023
0.010167973
0.010088663
0.010028698
0.021870898
0.020129961
0.013653066
0.012188331
0.011346918
0.011038246
0.010753773
0.010632128
0.010527885
0.010466275
0.010420368
0.010389355
0.010368281
0.010354713
0.010346198
0.010344306
0.010345134
0.010347682
0.010353016
0.010360245
0.010368678
0.010378124
0.010388294
0.010398933
0.010409831
0.010420804
0.01043171
0.010442427
0.010452862
0.01046295
0.010472653
0.01048196
0.010490879
0.010499437
0.010507683
0.010515686
0.010523532
0.010531318
0.01053915
0.010547138
0.010555391
0.010564017
0.010573114
0.010582766
0.010593035
0.010603939
0.010615423
0.010627322
0.010639337
0.010651028
0.010661859
0.010671288
0.01067891
0.010684594
0.010688492
0.010690662
0.010690219
0.010683736
0.010664982
0.010634396
0.010593292
0.01054246
0.010483387
0.010422497
0.01037679
0.01036328
0.010368799
0.010410566
0.010461379
0.010495795
0.010507845
0.0105066
0.010498697
0.010482908
0.010446469
0.010371639
0.010257888
0.010158213
0.010088691
0.010036546
0.020690111
0.020140218
0.013246247
0.011973835
0.011216931
0.010950148
0.010698419
0.01059211
0.010502634
0.010449984
0.010412279
0.01038785
0.010372504
0.010364159
0.010361181
0.010361685
0.010365514
0.010371942
0.010380061
0.010389515
0.010399979
0.010411093
0.010422587
0.010434216
0.010445779
0.010457104
0.010468065
0.010478567
0.010488542
0.010497958
0.01050681
0.010515124
0.010522947
0.010530345
0.010537401
0.010544216
0.010550902
0.010557577
0.010564365
0.010571381
0.010578738
0.010586536
0.010594858
0.010603763
0.010613273
0.010623358
0.010633909
0.010644716
0.010655447
0.010665646
0.010674771
0.010682289
0.010687858
0.010691489
0.010693391
0.010693315
0.010690611
0.010681645
0.010663595
0.010635458
0.010595861
0.010544779
0.010484795
0.010423586
0.010378365
0.010365255
0.010374441
0.010418367
0.010464788
0.010492159
0.010499179
0.010494186
0.010484248
0.010466022
0.010425258
0.010346403
0.010237768
0.010148342
0.010087631
0.010045106
0.019628252
0.019974951
0.012879254
0.011782592
0.011105113
0.01087519
0.010654791
0.010562628
0.01048731
0.010443628
0.010414049
0.010396293
0.010386746
0.010383364
0.010384599
0.010389394
0.010396717
0.010405933
0.01041656
0.010428117
0.010440221
0.010452559
0.010464866
0.010476914
0.010488527
0.010499561
0.010509923
0.010519558
0.010528442
0.010536585
0.01054403
0.010550845
0.010557119
0.010562958
0.010568478
0.010573807
0.010579079
0.010584426
0.010589975
0.010595845
0.010602138
0.010608939
0.010616309
0.010624274
0.010632815
0.010641855
0.010651241
0.01066073
0.010669977
0.010678524
0.010685818
0.010691342
0.010694875
0.010696564
0.010696263
0.010693466
0.010686868
0.010675518
0.010658588
0.010633603
0.0105969
0.010546917
0.010486842
0.010426124
0.010381756
0.010368844
0.010381969
0.010423822
0.010463762
0.010484791
0.010486995
0.010479255
0.010467559
0.010446408
0.010400176
0.010316079
0.010217081
0.010139038
0.010085732
0.010045995
0.018668798
0.019212501
0.012548919
0.011613926
0.01101169
0.010813777
0.010623431
0.010544622
0.010482992
0.01044839
0.010426922
0.010415908
0.010412193
0.010413876
0.01041951
0.01042797
0.010438458
0.01045032
0.010463016
0.010476105
0.010489229
0.010502087
0.010514445
0.010526115
0.010536963
0.010546899
0.010555882
0.010563913
0.010571028
0.01057729
0.01058279
0.010587642
0.010591974
0.010595927
0.010599643
0.010603269
0.01060695
0.01061082
0.010615005
0.010619612
0.010624726
0.010630411
0.010636696
0.010643573
0.010650983
0.010658808
0.010666859
0.010674873
0.010682498
0.010689266
0.01069461
0.010698072
0.010699647
0.010699257
0.010696437
0.010689804
0.01067943
0.010666165
0.010649801
0.010627523
0.010594503
0.010547413
0.010489183
0.010430687
0.010388357
0.010375418
0.010390292
0.010425256
0.010457693
0.010473066
0.010471517
0.010461719
0.010448123
0.010423313
0.01037126
0.010284161
0.010197331
0.010129653
0.010083125
0.010045869
0.017801537
0.017831088
0.012256499
0.011467476
0.010935808
0.010766833
0.010605399
0.01053953
0.010491146
0.010465759
0.010452365
0.010448088
0.01045012
0.010456671
0.010466387
0.010478223
0.010491365
0.010505189
0.01051919
0.010532949
0.010546144
0.010558526
0.01056992
0.010580207
0.010589326
0.010597262
0.010604047
0.010609748
0.010614462
0.010618309
0.010621424
0.01062396
0.010626075
0.01062793
0.010629685
0.010631493
0.010633498
0.010635829
0.010638596
0.010641887
0.010645764
0.010650261
0.010655376
0.010661064
0.010667231
0.010673724
0.010680328
0.010686763
0.010692662
0.010697526
0.010700791
0.010702186
0.010701807
0.010699252
0.010692902
0.010682762
0.010669708
0.010654614
0.010637617
0.010616786
0.010587553
0.01054555
0.010492357
0.01043825
0.01039878
0.01038459
0.010395155
0.010421872
0.01044719
0.010457423
0.010452915
0.010441273
0.010425304
0.010396024
0.010338313
0.010254586
0.010178966
0.010119255
0.01007846
0.010044714
0.017022188
0.016909858
0.012009024
0.01134364
0.010878256
0.01073577
0.010602213
0.010549052
0.010513487
0.010497386
0.010491947
0.010494244
0.010501734
0.010512721
0.010525921
0.010540335
0.01055519
0.0105699
0.010584016
0.01059719
0.010609183
0.010619837
0.010629075
0.010636878
0.01064328
0.010648354
0.010652208
0.010654975
0.010656808
0.010657868
0.010658326
0.010658354
0.010658127
0.010657813
0.010657574
0.010657558
0.010657897
0.010658703
0.010660064
0.010662043
0.010664673
0.010667956
0.010671858
0.010676301
0.010681158
0.010686249
0.010691335
0.010696118
0.010700195
0.010702997
0.010704103
0.010703728
0.01070137
0.010695401
0.010685966
0.010673553
0.010658525
0.01064147
0.010622978
0.010602369
0.010576573
0.010541517
0.010496578
0.01044847
0.010410349
0.010392609
0.010394787
0.01041402
0.010432655
0.010438381
0.010431279
0.010417708
0.010398789
0.010364229
0.01030197
0.010227282
0.010159998
0.010105934
0.010069829
0.010041099
0.016322978
0.015869257
0.011797699
0.011242917
0.01084003
0.0107223
0.010615523
0.010575111
0.010551947
0.010545068
0.010547271
0.010555666
0.010567909
0.010582393
0.010597913
0.010613546
0.010628609
0.010642613
0.010655234
0.010666252
0.010675563
0.010683143
0.010689038
0.010693342
0.010696188
0.01069773
0.010698141
0.010697602
0.0106963
0.010694421
0.010692147
0.010689657
0.010687121
0.010684702
0.01068255
0.010680798
0.010679556
0.010678915
0.010678934
0.010679648
0.010681059
0.010683138
0.010685819
0.010688995
0.010692511
0.010696163
0.01069969
0.010702759
0.0107049
0.010705562
0.010705101
0.010702729
0.010696955
0.010688322
0.010676935
0.010662751
0.01064595
0.01062713
0.01060705
0.010585955
0.010562686
0.010534525
0.010499044
0.010457816
0.010418922
0.010395829
0.010392122
0.010402673
0.010414786
0.010416389
0.010406797
0.010391061
0.010368367
0.010328002
0.010266507
0.010199387
0.010137884
0.010088419
0.010056911
0.01003357
0.015697384
0.015145659
0.011624553
0.011165866
0.010822177
0.010728626
0.010647528
0.010620077
0.010608778
0.01061067
0.010619683
0.010633031
0.010648568
0.010664817
0.010680723
0.010695536
0.010708751
0.010720066
0.010729346
0.010736558
0.010741763
0.010745083
0.010746686
0.010746765
0.010745529
0.010743187
0.010739948
0.010736015
0.010731581
0.010726833
0.010721947
0.010717086
0.010712407
0.010708054
0.010704155
0.01070082
0.010698138
0.010696168
0.010694944
0.010694468
0.010694712
0.010695619
0.010697097
0.010699009
0.01070118
0.010703384
0.010705314
0.010706584
0.010706715
0.010706171
0.010703388
0.010697788
0.010690029
0.010679615
0.010666378
0.010650431
0.010632132
0.010611999
0.010590654
0.010568704
0.010546283
0.010522305
0.010494349
0.010460575
0.010423981
0.01039672
0.010386447
0.010388763
0.010394083
0.010391706
0.010379803
0.010361491
0.010333949
0.010289097
0.010230849
0.010168355
0.010111353
0.010067406
0.010041724
0.010024825
0.015139271
0.01436368
0.011486321
0.011115187
0.010826674
0.010758132
0.010701319
0.010686705
0.010686106
0.010695369
0.01070931
0.010725367
0.010741683
0.010757048
0.010770692
0.010782154
0.010791209
0.010797806
0.01080204
0.010804068
0.010804107
0.010802399
0.010799196
0.010794752
0.010789308
0.010783092
0.010776314
0.010769167
0.010761831
0.010754469
0.010747236
0.01074027
0.010733703
0.010727653
0.010722222
0.010717496
0.010713536
0.010710376
0.01070802
0.010706441
0.010705584
0.010705365
0.010705666
0.010706331
0.010707162
0.010707924
0.010708165
0.010707837
0.010706722
0.010703524
0.01069856
0.01069148
0.010681818
0.010669457
0.010654452
0.010637022
0.01061752
0.01059639
0.010574122
0.010551234
0.010528171
0.010504953
0.0104806
0.010453359
0.01042324
0.010396061
0.010379138
0.010372541
0.010370269
0.010364059
0.010350106
0.010328428
0.010295635
0.010249679
0.010193188
0.010134125
0.010082385
0.010045671
0.010026769
0.01001658
0.014647787
0.013748047
0.011387493
0.011095572
0.01085758
0.010814933
0.010780058
0.010776875
0.010784408
0.010798083
0.010813618
0.010828892
0.010842527
0.010853756
0.010862219
0.01086783
0.010870679
0.010870974
0.010868999
0.010865061
0.010859471
0.010852533
0.010844528
0.010835713
0.010826321
0.010816559
0.01080661
0.010796635
0.010786781
0.01077718
0.010767951
0.010759206
0.010751046
0.010743561
0.010736829
0.010730909
0.010725838
0.010721624
0.010718248
0.010715657
0.01071377
0.010712474
0.010711634
0.010711074
0.010710554
0.010709892
0.010708913
0.010707025
0.010703723
0.010699034
0.010692383
0.010683464
0.010672086
0.010658166
0.010641768
0.010623115
0.010602564
0.010580565
0.010557579
0.010534004
0.010510147
0.010486266
0.01046254
0.010438812
0.010414453
0.010389595
0.010368549
0.010353637
0.010343007
0.010332044
0.010315727
0.010290648
0.010255158
0.010208318
0.010153492
0.010099049
0.01005444
0.010025976
0.010013757
0.010009602
0.014228182
0.013263229
0.01133076
0.011112157
0.010937387
0.010902122
0.01088484
0.010889398
0.010900503
0.010913913
0.010926462
0.010936709
0.01094394
0.010947932
0.010948771
0.010946717
0.01094212
0.01093536
0.010926825
0.010916879
0.010905852
0.010894035
0.010881682
0.010869013
0.010856215
0.010843449
0.010830853
0.010818547
0.010806636
0.010795215
0.010784369
0.01077418
0.01076472
0.010756055
0.010748238
0.010741307
0.010735277
0.010730136
0.010725843
0.010722326
0.010719481
0.010717175
0.01071525
0.010713545
0.010711872
0.010709941
0.010707374
0.010703898
0.010699253
0.010692974
0.010684767
0.010674365
0.010661592
0.010646394
0.010628854
0.010609194
0.010587756
0.010564966
0.010541281
0.01051712
0.0104928
0.010468508
0.010444377
0.010420576
0.010397243
0.010374155
0.010351007
0.010330299
0.010312454
0.010295306
0.01027527
0.010247931
0.01021078
0.010164469
0.010113601
0.010066279
0.010030372
0.010009908
0.010003137
0.010003888
0.013889546
0.012870784
0.011320266
0.011165415
0.01103974
0.011018938
0.011011947
0.011018008
0.011026427
0.011033949
0.011038676
0.011039998
0.011037872
0.011032562
0.011024487
0.011014116
0.011001913
0.010988305
0.010973671
0.010958339
0.010942585
0.010926638
0.010910687
0.010894887
0.010879365
0.010864226
0.01084956
0.010835441
0.010821934
0.0108091
0.010796994
0.010785669
0.010775173
0.010765551
0.010756837
0.010749051
0.010742192
0.010736233
0.010731115
0.010726751
0.010723022
0.010719787
0.01071688
0.010714102
0.01071123
0.010708022
0.010704209
0.010699467
0.010693445
0.010685833
0.010676332
0.010664709
0.010650816
0.010634618
0.010616201
0.010595769
0.010573629
0.01055016
0.010525782
0.010500911
0.010475899
0.010450959
0.010426117
0.010401262
0.010376337
0.010351489
0.010326681
0.010301273
0.01027634
0.010252066
0.010227042
0.010197984
0.010162011
0.010119984
0.010076577
0.010038644
0.010011965
0.0099983272
0.0099951804
0.0099991186
0.013648612
0.012584522
0.011358966
0.011261555
0.011172816
0.011156853
0.011151119
0.011151225
0.011150508
0.011147122
0.011140382
0.011130399
0.0111176
0.01110251
0.011085662
0.01106754
0.011048565
0.011029086
0.01100939
0.010989708
0.010970221
0.010951074
0.010932377
0.010914218
0.010896663
0.010879766
0.010863569
0.01084811
0.010833419
0.010819528
0.010806467
0.010794265
0.010782954
0.010772559
0.0107631
0.010754586
0.010747004
0.010740316
0.010734455
0.010729321
0.010724783
0.010720685
0.010716852
0.01071309
0.010709184
0.010704891
0.010699939
0.010694034
0.01068687
0.010678151
0.010667611
0.010655042
0.010640315
0.010623396
0.010604358
0.010583376
0.010560708
0.010536679
0.010511651
0.010485996
0.010460054
0.010434069
0.010408097
0.010381961
0.010355284
0.010327652
0.010298603
0.010267179
0.010233459
0.010200651
0.010170752
0.010142365
0.010112021
0.010078827
0.010045989
0.010018572
0.010000471
0.0099923298
0.0099907868
0.0099963925
0.013508906
0.012402766
0.011448962
0.011389518
0.011321646
0.011302162
0.011287769
0.011275129
0.011260526
0.011243408
0.011223887
0.011202421
0.011179544
0.011155752
0.011131469
0.011107039
0.011082734
0.011058761
0.011035279
0.011012403
0.010990218
0.010968785
0.010948145
0.010928325
0.010909344
0.010891213
0.01087394
0.01085753
0.010841989
0.010827325
0.010813549
0.010800674
0.010788716
0.010777689
0.010767603
0.010758457
0.010750234
0.01074289
0.010736353
0.010730518
0.010725249
0.010720382
0.010715731
0.010711098
0.010706269
0.010701015
0.010695085
0.01068821
0.010680112
0.01067052
0.010659196
0.01064595
0.010630659
0.010613281
0.010593865
0.010572544
0.010549528
0.010525078
0.010499494
0.010473088
0.010446152
0.010418896
0.010391351
0.010363265
0.01033405
0.010302807
0.010268341
0.010229152
0.010185344
0.01014387
0.010110994
0.010086457
0.010065445
0.010044478
0.010024213
0.010007723
0.009997126
0.0099908687
0.00998927
0.0099948496
0.013431472
0.012323331
0.011604569
0.011532384
0.011469389
0.011435809
0.011405754
0.011376757
0.011347045
0.011316589
0.011285642
0.011254562
0.011223679
0.01119326
0.011163506
0.011134563
0.01110653
0.011079472
0.011053427
0.011028415
0.011004441
0.0109815
0.01095958
0.010938667
0.010918742
0.010899786
0.010881783
0.010864717
0.010848575
0.010833349
0.010819037
0.010805638
0.010793159
0.010781604
0.010770977
0.010761272
0.01075247
0.010744527
0.010737373
0.010730903
0.010724978
0.01071943
0.010714067
0.010708685
0.010703073
0.010697012
0.010690273
0.010682616
0.010673791
0.010663555
0.010651689
0.010638014
0.010622406
0.010604807
0.010585237
0.010563785
0.010540607
0.010515904
0.010489905
0.01046284
0.010434908
0.010406212
0.010376671
0.010345903
0.010313123
0.010277079
0.010236083
0.010188382
0.010134763
0.010085919
0.010052135
0.010033743
0.010024288
0.010017624
0.010011486
0.010006103
0.010000606
0.0099932515
0.0099892559
0.0099930276
0.013430339
0.012277294
0.011761467
0.011665928
0.011591892
0.011539892
0.011492724
0.011448669
0.01140638
0.011365636
0.011326371
0.0112886
0.011252341
0.011217594
0.011184348
0.011152575
0.011122238
0.011093293
0.011065696
0.011039397
0.011014348
0.010990501
0.010967811
0.010946235
0.01092573
0.010906259
0.01088779
0.010870291
0.010853739
0.010838116
0.010823408
0.010809608
0.010796714
0.010784724
0.010773638
0.01076345
0.010754138
0.010745663
0.010737961
0.010730931
0.01072444
0.01071832
0.010712373
0.010706388
0.010700153
0.010693457
0.010686094
0.010677851
0.010668509
0.010657848
0.010645663
0.010631781
0.010616072
0.010598462
0.010578938
0.010557549
0.0105344
0.010509637
0.010483413
0.010455861
0.010427036
0.010396856
0.010365025
0.010330953
0.010293684
0.010251832
0.010203593
0.010147344
0.010084767
0.010029834
0.0099964093
0.0099855082
0.0099889885
0.0099976265
0.01000596
0.010010753
0.010009623
0.010000649
0.0099904177
0.0099885563
0.013516176
0.012299182
0.011878135
0.011763417
0.011673994
0.011606091
0.011546005
0.011491626
0.011441266
0.011394236
0.011350074
0.011308476
0.011269209
0.011232086
0.011196949
0.011163661
0.011132102
0.011102165
0.011073755
0.011046784
0.011021174
0.010996854
0.010973758
0.010951828
0.010931008
0.010911252
0.010892515
0.01087476
0.010857955
0.010842076
0.010827104
0.010813024
0.010799829
0.010787516
0.010776079
0.010765512
0.010755795
0.010746895
0.010738752
0.010731277
0.010724343
0.010717785
0.010711405
0.010704987
0.010698312
0.010691173
0.01068338
0.010674747
0.010665083
0.010654188
0.010641865
0.010627941
0.010612281
0.010594796
0.010575447
0.010554254
0.010531284
0.010506635
0.010480395
0.010452589
0.010423105
0.010391623
0.010357566
0.010320083
0.010278088
0.010230265
0.010175085
0.01011144
0.010042205
0.0099842659
0.0099540678
0.0099497947
0.0099624349
0.0099835175
0.010002705
0.010012928
0.010015087
0.010003985
0.0099926294
0.0099900164
0.013641007
0.012357122
0.011938271
0.011812853
0.011713005
0.011636823
0.011570646
0.011511784
0.011458114
0.011408617
0.011362598
0.011319588
0.011279237
0.011241272
0.011205475
0.011171663
0.011139682
0.011109401
0.011080704
0.011053491
0.011027672
0.011003166
0.010979902
0.010957814
0.010936845
0.010916942
0.010898058
0.010880152
0.010863191
0.010847145
0.010831994
0.01081772
0.010804313
0.010791767
0.010780076
0.010769231
0.010759217
0.010750003
0.010741535
0.01073373
0.010726469
0.010719591
0.010712902
0.01070618
0.010699203
0.010691761
0.010683672
0.010674769
0.010664882
0.010653823
0.010641399
0.010627437
0.010611796
0.010594382
0.010575145
0.010554089
0.010531265
0.010506747
0.010480582
0.010452715
0.010422897
0.0103906
0.010354986
0.010314981
0.010269442
0.010217337
0.010157817
0.010090725
0.010019956
0.0099641638
0.0099422739
0.0099386942
0.0099466638
0.0099741151
0.0099997854
0.010012302
0.010014557
0.010003853
0.0099936096
0.0099878339
67.417556
366.67188
128.9941
16.941585
0.47615106
0.020683698
0.019621121
0.019379192
0.019204549
0.018143949
0.016892281
0.015715029
0.01485619
0.014285745
0.013865511
0.013540714
0.013252111
0.012969689
0.012709752
0.012487849
0.01230156
0.012142591
0.012004803
0.011884362
0.011778491
0.011684929
0.011601821
0.011527659
0.011461262
0.011401687
0.011348135
0.0112999
0.011256387
0.011217109
0.011181701
0.011149873
0.011121383
0.01109603
0.011073642
0.011054076
0.011037208
0.011022888
0.011010944
0.011001189
0.010993407
0.010987343
0.010982727
0.010979291
0.010976791
0.010975011
0.01097378
0.010973017
0.010972527
0.01097248
0.010972908
0.010973977
0.010973611
0.010971286
0.010971031
0.010973339
0.010976705
0.01097881
0.010969275
0.010948632
0.010915177
0.010873782
0.010834254