/*--------------------------------*- C++ -*----------------------------------*\
  =========                 |
  \\      /  F ield         | OpenFOAM: The Open Source CFD Toolbox
   \\    /   O peration     | Website:  https://openfoam.org
    \\  /    A nd           | Version:  12
     \\/     M anipulation  |
\*---------------------------------------------------------------------------*/
FoamFile
{
    format      ascii;
    class       volScalarField;
    location    "0.03";
    object      Ma;
}
// * * * * * * * * * * * * * * * * * * * * * * * * * * * * * * * * * * * * * //

dimensions      [];

internalField   nonuniform List<scalar> 
16000
(
0.62087056
0.73564568
0.69248954
0.71581316
0.70148664
0.70799521
0.70262855
0.70396562
0.70145794
0.70097078
0.69940043
0.69827096
0.69687783
0.69551341
0.69406696
0.69257378
0.69102247
0.68941497
0.68775004
0.68602732
0.68424648
0.68240742
0.6805103
0.67855553
0.67654387
0.67447636
0.67235446
0.67017996
0.66795508
0.66568245
0.66336511
0.66100653
0.65861059
0.65618157
0.65372414
0.65124334
0.64874453
0.64623338
0.64371583
0.64119798
0.63868615
0.63618675
0.63370624
0.63125116
0.62882803
0.6264434
0.6241038
0.62181578
0.61958594
0.61742128
0.61532908
0.61331717
0.61139389
0.60956865
0.60785201
0.60625583
0.60479345
0.60347942
0.60232909
0.60135719
0.6005756
0.59999069
0.59959973
0.5993851
0.59930471
0.5992854
0.59924084
0.59905242
0.598603
0.59778485
0.59646926
0.59451439
0.59186018
0.5886906
0.58513598
0.58286081
0.57991182
0.58090757
0.57783206
0.58383379
0.62507326
0.74078678
0.69560228
0.72040318
0.70518987
0.71220975
0.70633844
0.70785327
0.70512173
0.70458924
0.70291911
0.70168153
0.70019626
0.69872029
0.69716678
0.69555906
0.69389069
0.69216198
0.69037233
0.68852141
0.68660916
0.68463576
0.6826017
0.68050779
0.67835521
0.67614555
0.6738808
0.67156337
0.66919614
0.66678245
0.66432609
0.66183129
0.65930273
0.6567455
0.65416509
0.65156731
0.64895829
0.6463444
0.64373221
0.64112841
0.63853976
0.63597305
0.63343501
0.6309323
0.62847151
0.62605908
0.62370136
0.62140467
0.61917531
0.6170198
0.61494492
0.61295791
0.6110666
0.60927966
0.6076068
0.60605892
0.60464811
0.60338743
0.60229029
0.60136901
0.60063266
0.6000845
0.59971857
0.59951481
0.59942959
0.599384
0.59930869
0.5990688
0.598558
0.59767653
0.59630156
0.59429676
0.5916186
0.58840656
0.58502577
0.58229472
0.58028895
0.58019599
0.57876994
0.58306532
0.62904293
0.7455378
0.69910204
0.72441944
0.7087179
0.71585767
0.70981876
0.71123219
0.70844506
0.70775922
0.70602095
0.7046494
0.70306136
0.7014612
0.69978568
0.69804946
0.69624883
0.69438372
0.69245384
0.69045917
0.68839999
0.68627688
0.68409079
0.68184307
0.67953548
0.67717021
0.67474996
0.6722779
0.6697577
0.66719355
0.66459013
0.6619526
0.65928658
0.65659811
0.6538936
0.65117977
0.64846359
0.6457522
0.64305284
0.64037277
0.63771919
0.6350992
0.63251971
0.62998742
0.62750879
0.62509005
0.62273721
0.62045611
0.61825259
0.61613252
0.61410203
0.61216761
0.61033631
0.60861594
0.60701518
0.60554377
0.60421246
0.60303262
0.60201552
0.60117084
0.60050448
0.600016
0.59969529
0.59951837
0.5994406
0.59938802
0.59927494
0.59897574
0.59839867
0.59744075
0.59598071
0.5938968
0.59117448
0.58796988
0.58467122
0.58190892
0.58025886
0.57975576
0.57932608
0.5825167
0.6327041
0.74990909
0.70208484
0.72800838
0.71182902
0.71910168
0.71287937
0.71418069
0.71132201
0.71046917
0.708646
0.70712573
0.70541715
0.70367697
0.70186218
0.69998085
0.69803135
0.69601352
0.69392745
0.6917735
0.68955238
0.68726516
0.68491335
0.68249889
0.68002425
0.67749239
0.67490682
0.67227165
0.6695915
0.66687159
0.66411766
0.66133596
0.6585332
0.65571648
0.65289324
0.65007114
0.647258
0.64446171
0.6416901
0.63895088
0.63625156
0.63359933
0.63100105
0.6284632
0.62599186
0.62359274
0.6212712
0.61903237
0.61688124
0.61482282
0.61286229
0.61100517
0.6092575
0.60762597
0.60611808
0.60474223
0.60350766
0.60242397
0.60150029
0.60074376
0.60015735
0.59973741
0.59947034
0.59932817
0.59926638
0.59923566
0.59907107
0.59873085
0.59810472
0.59708644
0.59555379
0.59340276
0.59064951
0.58747313
0.58424464
0.58156965
0.58007132
0.5794704
0.579653
0.58195441
0.63605652
0.75384557
0.70484618
0.73095
0.71438786
0.72183176
0.71547599
0.71660029
0.71369182
0.71263444
0.7107164
0.70902866
0.70718109
0.70528464
0.70331316
0.7012702
0.69915531
0.6969685
0.69471017
0.6923811
0.68998248
0.68751597
0.68498377
0.68238861
0.67973385
0.67702345
0.674262
0.67145475
0.66860757
0.66572692
0.66281984
0.65989387
0.65695694
0.65401735
0.65108361
0.64816437
0.64526825
0.64240379
0.63957927
0.63680266
0.63408149
0.63142282
0.62883314
0.62631837
0.62388391
0.6215346
0.61927486
0.61710876
0.61504019
0.61307299
0.61121119
0.60945914
0.60782165
0.60630419
0.60491293
0.60365484
0.60253756
0.60156885
0.60075569
0.60010271
0.59961002
0.5992709
0.59906869
0.59897279
0.59893301
0.59887634
0.59871748
0.59834934
0.59767969
0.5966061
0.5950063
0.59279567
0.59002083
0.58688086
0.58374139
0.5812016
0.57979821
0.57922644
0.57981413
0.58138616
0.63904172
0.75724277
0.70720308
0.73347874
0.71660568
0.72396376
0.71747793
0.71840678
0.71546526
0.71417738
0.71215146
0.71028388
0.70828076
0.70621431
0.70407041
0.70185002
0.69955326
0.69718049
0.69473257
0.69221088
0.68961734
0.68695448
0.68422548
0.6814342
0.67858521
0.67568382
0.67273604
0.66974858
0.66672885
0.66368483
0.66062507
0.65755856
0.65449461
0.65144273
0.64841253
0.64541351
0.64245496
0.63954585
0.63669462
0.63390918
0.63119672
0.62856374
0.62601597
0.62355838
0.62119522
0.61893014
0.61676621
0.61470614
0.61275241
0.61090747
0.60917396
0.60755487
0.6060537
0.60467455
0.60342223
0.60230224
0.60132059
0.60048322
0.599795
0.5992581
0.59886998
0.59862101
0.59849146
0.59844832
0.59844166
0.59839964
0.59822478
0.59783004
0.59712356
0.59600068
0.59434292
0.59208625
0.58930403
0.58621027
0.583175
0.58078553
0.57946665
0.57898693
0.57987019
0.5807863
0.64160824
0.76008119
0.70913395
0.73553673
0.71839259
0.72546682
0.71893772
0.71954119
0.71659834
0.71506277
0.71291513
0.71085621
0.70867841
0.70642416
0.70408731
0.70166803
0.69916704
0.69658545
0.69392495
0.6911879
0.68837733
0.68549704
0.68255161
0.67954643
0.67648768
0.67338239
0.67023835
0.66706411
0.66386886
0.66066239
0.65745491
0.65425697
0.65107926
0.64793247
0.6448271
0.64177331
0.63878074
0.63585838
0.63301442
0.63025621
0.62759012
0.62502157
0.62255501
0.62019395
0.61794111
0.61579845
0.61376739
0.61184896
0.61004398
0.60835332
0.60677807
0.60531977
0.60398054
0.60276311
0.60167093
0.60070805
0.59987892
0.59918775
0.59863737
0.59822763
0.59795349
0.59780273
0.59775296
0.5977686
0.59779713
0.59776652
0.59759004
0.59717809
0.59644073
0.59527262
0.59356464
0.59127565
0.58850077
0.58546366
0.58254538
0.58032025
0.57907775
0.57874161
0.57975793
0.58014409
0.64378687
0.76238188
0.71066332
0.73714268
0.71979084
0.72646647
0.71999991
0.72042074
0.71712508
0.715302
0.71300069
0.71072601
0.70834142
0.70586936
0.70330836
0.70065903
0.69792292
0.6951022
0.69219974
0.68921929
0.68616538
0.68304352
0.6798601
0.67662246
0.67333885
0.67001843
0.66667114
0.66330767
0.65993927
0.65657766
0.65323482
0.64992281
0.64665356
0.64343869
0.64028926
0.63721563
0.63422727
0.63133263
0.62853902
0.62585258
0.62327822
0.62081965
0.61847945
0.61625919
0.61415952
0.61218038
0.61032121
0.6085811
0.60695907
0.60545429
0.60406629
0.60279514
0.6016416
0.60060712
0.59969383
0.59890446
0.59824203
0.59770913
0.59730671
0.59703245
0.59687906
0.59683205
0.59686675
0.59694549
0.59701449
0.59700262
0.59682669
0.5964009
0.59563548
0.59442605
0.59267631
0.59036994
0.58761813
0.58464958
0.58185873
0.57979363
0.57863042
0.57846174
0.5795115
0.5794468
0.64563424
0.76416153
0.71175884
0.73830107
0.72058181
0.72669831
0.72024712
0.71993248
0.71693487
0.71484968
0.71234751
0.70982183
0.70718947
0.7044612
0.7016378
0.69872099
0.69571339
0.69261859
0.68944109
0.68618642
0.68286117
0.67947303
0.67603073
0.67254411
0.66902394
0.66548195
0.66193058
0.65838294
0.65485249
0.65135293
0.64789788
0.64450068
0.64117414
0.63793028
0.63478013
0.63173356
0.6287991
0.62598385
0.62329343
0.62073197
0.61830214
0.61600528
0.6138415
0.61180989
0.60990866
0.60813544
0.60648745
0.60496178
0.60355561
0.60226643
0.60109229
0.60003192
0.59908484
0.59825138
0.59753255
0.59692989
0.59644509
0.59607932
0.59583184
0.59569843
0.59566978
0.59572937
0.59585058
0.59599397
0.59610495
0.59611392
0.59594162
0.59550502
0.59471359
0.59346598
0.59168351
0.58937503
0.58666228
0.58377531
0.58111794
0.57919527
0.57811487
0.57811093
0.57913008
0.57866948
0.64716222
0.76541175
0.71235981
0.73888749
0.72068043
0.72630617
0.71987181
0.71922063
0.71602307
0.71359098
0.71083899
0.7080243
0.70510063
0.7020738
0.69894601
0.69572067
0.69240208
0.68899582
0.6855086
0.68194846
0.67832464
0.67464771
0.67092941
0.66718265
0.66342128
0.65965999
0.65591405
0.65219908
0.64853074
0.64492447
0.64139517
0.63795691
0.63462265
0.631404
0.62831102
0.62535205
0.62253365
0.61986054
0.61733566
0.61496021
0.61273388
0.61065494
0.60872053
0.60692686
0.6052695
0.6037436
0.6023442
0.60106643
0.59990577
0.59885825
0.59792063
0.59709054
0.59636654
0.59574805
0.59523519
0.5948285
0.59452851
0.59433503
0.59424596
0.5942555
0.59435259
0.59451872
0.59472553
0.59493231
0.59508442
0.59511441
0.59494638
0.59449907
0.59368178
0.59239934
0.5905939
0.58829808
0.58563968
0.58284718
0.58032385
0.57852277
0.57751954
0.57766416
0.57859376
0.57790968
0.64832216
0.76605172
0.7123959
0.73806233
0.7200199
0.72513173
0.7187746
0.71752994
0.71420722
0.71140537
0.70834649
0.70519708
0.70193308
0.69855981
0.69508098
0.69150227
0.6878304
0.68407372
0.68024199
0.67634661
0.67240037
0.66841756
0.66441367
0.66040533
0.65640992
0.6524454
0.64852992
0.64468149
0.64091757
0.63725475
0.63370838
0.63029225
0.6270183
0.62389646
0.62093444
0.61813776
0.61550967
0.61305135
0.610762
0.60863907
0.60667854
0.60487517
0.60322282
0.60171473
0.60034379
0.59910286
0.59798498
0.59698363
0.59609291
0.59530771
0.59462387
0.59403826
0.59354878
0.59315428
0.59285425
0.59264843
0.5925363
0.59251648
0.59258571
0.59273708
0.59295794
0.59322775
0.59351642
0.59378257
0.59397249
0.59402141
0.59385616
0.59339613
0.59255167
0.59123796
0.58941979
0.58714974
0.58455856
0.58187108
0.5794773
0.57777538
0.57684584
0.57711159
0.57790816
0.57710615
0.64900869
0.7658964
0.71174074
0.73631943
0.71871204
0.7230475
0.71675444
0.71491918
0.71136314
0.70814968
0.70472116
0.70118304
0.69752348
0.69374988
0.68986828
0.68588751
0.68181781
0.67767144
0.67346244
0.66920669
0.66492162
0.66062616
0.65634027
0.65208479
0.64788089
0.64374975
0.63971202
0.63578747
0.63199439
0.62834931
0.62486654
0.62155795
0.61843273
0.61549733
0.61275544
0.61020813
0.60785405
0.60568965
0.60370954
0.60190682
0.60027342
0.59880046
0.59747858
0.59629826
0.59525008
0.594325
0.59351454
0.59281101
0.59220761
0.59169857
0.59127924
0.5909461
0.59069679
0.59052988
0.59044452
0.59043985
0.59051446
0.59066595
0.59089012
0.59117915
0.59151893
0.59188688
0.59225137
0.59257111
0.59279441
0.59285909
0.59269312
0.59221605
0.59134249
0.59000234
0.58818216
0.58594897
0.58343442
0.58085967
0.57859675
0.5769691
0.57612074
0.57646063
0.57708043
0.57626641
0.64914786
0.76485566
0.71025268
0.73401461
0.71659128
0.71995546
0.71369053
0.71120527
0.70733895
0.70366364
0.69979447
0.69580259
0.69168314
0.68744735
0.68310521
0.67867019
0.67415766
0.66958538
0.66497311
0.66034253
0.65571677
0.65112015
0.64657759
0.64211424
0.63775475
0.63352282
0.62944055
0.62552787
0.62180209
0.61827751
0.61496513
0.61187252
0.60900386
0.60636002
0.60393887
0.60173557
0.59974301
0.59795221
0.59635278
0.59493335
0.59368196
0.59258644
0.59163474
0.59081516
0.59011662
0.58952886
0.58904255
0.58864944
0.58834243
0.58811562
0.58796431
0.58788505
0.58787552
0.58793431
0.58806043
0.58825267
0.58850903
0.58882631
0.58919939
0.58961934
0.59007052
0.59052879
0.5909617
0.59132895
0.59158151
0.59165838
0.59148672
0.5909875
0.59008435
0.58872506
0.58691461
0.5847281
0.58229793
0.57984497
0.57771001
0.57612942
0.57540905
0.57574898
0.57615629
0.57540089
0.64871615
0.76283672
0.70785135
0.73058875
0.71346525
0.71574463
0.70943475
0.70624811
0.70196251
0.69775467
0.69336052
0.68883549
0.68418071
0.67941314
0.674549
0.66960845
0.66461396
0.65959054
0.65456516
0.64956643
0.64462395
0.63976781
0.63502772
0.63043241
0.62600877
0.62178111
0.61777053
0.61399439
0.61046589
0.60719397
0.60418325
0.60143423
0.59894366
0.59670494
0.59470868
0.59294324
0.5913953
0.59005042
0.58889351
0.58790931
0.58708272
0.58639913
0.58584467
0.58540642
0.58507253
0.58483232
0.58467639
0.58459661
0.58458619
0.58463959
0.58475258
0.58492209
0.58514615
0.58542354
0.58575332
0.5861342
0.58656393
0.58703884
0.58755281
0.58809528
0.58864888
0.58918862
0.58968252
0.59009237
0.59037099
0.59045605
0.5902733
0.58974882
0.58881998
0.58745284
0.58566563
0.58353643
0.58119991
0.57887372
0.57685184
0.57534849
0.57472928
0.57503778
0.57524898
0.57456586
0.64765993
0.75967363
0.70447907
0.72601314
0.70918813
0.71024798
0.70378844
0.69983132
0.69500101
0.69016692
0.68514858
0.67999832
0.67472547
0.66935512
0.66391242
0.65842649
0.65292892
0.64745364
0.64203607
0.63671255
0.63151927
0.62649141
0.62166203
0.61706109
0.61271452
0.60864355
0.6048641
0.60138667
0.59821626
0.59535266
0.59279097
0.59052213
0.58853368
0.58681048
0.58533546
0.58409029
0.58305603
0.58221364
0.58154444
0.58103047
0.58065473
0.58040142
0.58025605
0.58020553
0.58023821
0.58034389
0.58051382
0.58074066
0.58101842
0.58134244
0.58170926
0.58211653
0.58256281
0.58304722
0.58356896
0.58412682
0.58471862
0.58534047
0.58598528
0.58664081
0.58728815
0.58790198
0.58845155
0.58890093
0.58920272
0.58929149
0.5890945
0.5885477
0.58760411
0.58624513
0.58449733
0.58243955
0.58020938
0.57802121
0.57612357
0.57472719
0.5741285
0.57440839
0.57452376
0.57393755
0.64591972
0.75512845
0.70016281
0.72008275
0.70355036
0.70324144
0.69648371
0.69166032
0.68613759
0.68056077
0.67480788
0.6689358
0.66296556
0.65693297
0.65087477
0.64483152
0.63884596
0.63296243
0.62722551
0.62167881
0.61636347
0.61131682
0.60657106
0.60215229
0.59807984
0.59436592
0.59101571
0.58802778
0.5853947
0.58310398
0.58113895
0.57947982
0.57810461
0.57699004
0.57611234
0.57544785
0.57497358
0.57466762
0.57450939
0.57447989
0.57456178
0.57473944
0.574999
0.57532826
0.5757167
0.57615536
0.57663676
0.57715485
0.5777049
0.5782834
0.57888798
0.57951717
0.5801702
0.58084658
0.58154575
0.58226656
0.58300685
0.58376246
0.58452561
0.5852833
0.58601635
0.58669944
0.5873025
0.58779011
0.58811218
0.58820206
0.58799436
0.58743763
0.58649792
0.58516773
0.58347919
0.58151255
0.5794075
0.57736863
0.57560705
0.5743049
0.57374928
0.57394435
0.57400855
0.5735199
0.64343802
0.74882502
0.6948449
0.7125434
0.69624843
0.6943835
0.68713559
0.68132409
0.67495021
0.66850452
0.66190879
0.65522895
0.64850194
0.64177783
0.63510842
0.62854856
0.62215387
0.61597923
0.61007655
0.60449296
0.5992689
0.59443677
0.59002
0.58603272
0.58247987
0.57935786
0.57665556
0.5743555
0.57243526
0.57086876
0.56962759
0.56868211
0.56800242
0.56755919
0.56732422
0.56727093
0.56737462
0.56761266
0.56796461
0.56841218
0.56893921
0.56953157
0.57017707
0.57086533
0.57158764
0.57233684
0.5731072
0.57389426
0.57469482
0.57550673
0.57632881
0.5771606
0.57800205
0.57885318
0.57971365
0.58058231
0.58145668
0.58233204
0.58320023
0.58404861
0.58485885
0.58560615
0.58626073
0.58678525
0.58712621
0.58722109
0.58701632
0.58647105
0.58555959
0.58428265
0.58267746
0.58082672
0.57886946
0.57699487
0.57538551
0.57419794
0.57364529
0.57373648
0.57372756
0.57339321
0.64008806
0.74008861
0.6878839
0.70294488
0.68682545
0.6831988
0.6752388
0.66830678
0.66092559
0.65348859
0.64595737
0.6384124
0.63091287
0.62352852
0.61632978
0.60938691
0.60276655
0.59652911
0.59072601
0.58539787
0.5805732
0.57626808
0.57248641
0.56922108
0.5664553
0.56416454
0.5623183
0.56088202
0.55981875
0.55909061
0.55866002
0.5584906
0.55854786
0.5587997
0.55921668
0.55977213
0.5604422
0.56120578
0.56204438
0.56294199
0.56388487
0.56486139
0.56586183
0.56687819
0.56790404
0.56893433
0.56996529
0.57099426
0.57201962
0.57304066
0.57405739
0.57507037
0.57608031
0.57708776
0.57809269
0.57909397
0.58008875
0.5810717
0.58203435
0.58296424
0.58384348
0.58464833
0.58534969
0.58590772
0.58626924
0.58638113
0.58620024
0.58569134
0.58483459
0.58363797
0.58214371
0.58043665
0.57865155
0.57695567
0.57549854
0.57441641
0.57387772
0.57383402
0.57369785
0.57361224
0.63558556
0.72880423
0.67885115
0.69072108
0.6746997
0.66912684
0.66019512
0.65199305
0.64345372
0.63491984
0.62640074
0.61800022
0.60980631
0.60191134
0.59440233
0.58735808
0.58084497
0.57491448
0.56960141
0.5649236
0.56088266
0.55746563
0.55464729
0.55239281
0.55066041
0.54940392
0.54857505
0.54812522
0.54800708
0.54817553
0.54858856
0.54920757
0.54999772
0.55092785
0.55197047
0.55310155
0.55430029
0.55554887
0.55683219
0.55813757
0.55945451
0.56077445
0.56209056
0.56339749
0.56469124
0.56596897
0.56722889
0.56847013
0.56969263
0.57089703
0.57208449
0.57325646
0.57441437
0.57555927
0.57669148
0.57781004
0.57891207
0.57999206
0.5810411
0.58204598
0.58298854
0.58384609
0.58458957
0.58517887
0.58556731
0.5857122
0.58557551
0.58512556
0.58434906
0.58326003
0.58190444
0.58036649
0.5787714
0.57726008
0.5759496
0.57495549
0.57441004
0.57422577
0.57396164
0.57407652
0.62955403
0.71618619
0.66718152
0.67529894
0.65916392
0.65145481
0.64124468
0.63160354
0.62178887
0.6121248
0.60268005
0.59358727
0.58496051
0.57690495
0.56950763
0.56283468
0.55692872
0.55180893
0.54747231
0.54389663
0.54104384
0.53886417
0.53729986
0.5362888
0.53576749
0.53567341
0.53594678
0.5365318
0.53737736
0.53843738
0.5396709
0.54104191
0.54251914
0.54407563
0.54568842
0.5473381
0.54900842
0.55068598
0.55235979
0.55402105
0.55566283
0.55727982
0.5588681
0.56042499
0.56194883
0.56343889
0.56489522
0.56631859
0.56771038
0.56907243
0.5704069
0.57171597
0.57300165
0.57426541
0.57550783
0.57672815
0.57792365
0.5790889
0.58021484
0.58128788
0.58228969
0.58319719
0.58398108
0.58460563
0.58503274
0.58522535
0.58514923
0.58477888
0.58410615
0.58314858
0.58195402
0.58060192
0.5792015
0.577865
0.57668211
0.57575348
0.57518045
0.57485186
0.57446421
0.57465195
0.62166937
0.69957468
0.65206156
0.65579923
0.63918791
0.62913316
0.61736265
0.60617936
0.59511748
0.58449482
0.57443586
0.56508923
0.55657012
0.54896515
0.54232687
0.53667476
0.53199764
0.5282584
0.52539958
0.52334938
0.52202732
0.52134915
0.52123085
0.52159164
0.52235598
0.52345487
0.52482639
0.52641587
0.52817562
0.53006455
0.53204758
0.53409506
0.53618214
0.53828822
0.54039635
0.54249277
0.54456647
0.5466088
0.5486131
0.55057444
0.55248936
0.55435562
0.55617204
0.55793834
0.55965497
0.56132306
0.56294428
0.56452082
0.56605527
0.56755048
0.5690094
0.57043483
0.5718292
0.57319429
0.57453085
0.57583814
0.57711338
0.57835117
0.57954273
0.58067487
0.58172941
0.58268335
0.58350972
0.58417779
0.58465394
0.58490549
0.58490561
0.58463538
0.58408743
0.58327861
0.58225739
0.58109489
0.57987784
0.57869123
0.57760563
0.57671125
0.57608241
0.57560094
0.57508138
0.57522814
0.61130734
0.67804191
0.632118
0.63080791
0.61330324
0.60078144
0.58737918
0.57481441
0.56286988
0.55184008
0.54186443
0.53306245
0.52549887
0.519192
0.51411643
0.51021141
0.50738965
0.50554663
0.50456893
0.50434128
0.50475175
0.50569551
0.507077
0.50881104
0.51082304
0.51304865
0.51543305
0.51793003
0.52050103
0.52311417
0.52574332
0.52836727
0.530969
0.53353504
0.53605491
0.53852061
0.54092627
0.54326778
0.54554249
0.547749
0.54988691
0.5519567
0.55395952
0.55589713
0.55777175
0.55958606
0.56134308
0.56304614
0.5646988
0.56630469
0.56786735
0.56939003
0.57087551
0.5723258
0.57374176
0.57512265
0.57646555
0.5777648
0.57901155
0.58019325
0.58129346
0.58229161
0.58316276
0.58387853
0.58440985
0.58473049
0.58482006
0.58466547
0.58425963
0.58360911
0.58276157
0.58177867
0.58072098
0.57965015
0.57862679
0.57773182
0.5770149
0.57636561
0.57570253
0.57574209
0.59731776
0.64948668
0.60543551
0.59858102
0.57990227
0.5650234
0.55039767
0.53713885
0.52520947
0.51482441
0.50605503
0.49891817
0.49336389
0.48929361
0.48657337
0.48504894
0.48455833
0.48494193
0.48604936
0.48774393
0.48990463
0.49242666
0.49522082
0.49821232
0.50133913
0.50455041
0.50780488
0.51106932
0.51431727
0.51752792
0.52068509
0.52377641
0.52679271
0.52972736
0.53257587
0.53533549
0.53800486
0.54058381
0.54307312
0.54547431
0.54778956
0.55002151
0.55217323
0.55424808
0.5562497
0.55818199
0.560049
0.56185497
0.56360414
0.56530069
0.56694858
0.56855138
0.57011206
0.5716328
0.57311455
0.57455661
0.57595605
0.57730724
0.57860151
0.57982689
0.58096811
0.58200686
0.58292176
0.58368868
0.58428244
0.58467984
0.5848644
0.58483179
0.58457755
0.58409095
0.58340839
0.58258451
0.58165641
0.58066671
0.57967292
0.5787473
0.57791846
0.57709244
0.57627593
0.57616522
0.57774054
0.61157041
0.56981986
0.55731131
0.53793744
0.52114232
0.50642756
0.4938817
0.48347029
0.47523603
0.46908174
0.46484884
0.46232766
0.46128596
0.46148778
0.46270847
0.46474371
0.46741414
0.47056646
0.47407251
0.4778269
0.48174421
0.48575604
0.48980819
0.49385816
0.49787302
0.50182753
0.50570268
0.50948444
0.51316276
0.51673074
0.52018405
0.52352034
0.52673887
0.52984019
0.53282582
0.53569811
0.53846005
0.54111508
0.54366707
0.54612012
0.54847859
0.55074696
0.55292983
0.5550319
0.55705796
0.55901284
0.56090138
0.56272831
0.56449818
0.56621518
0.56788305
0.5695049
0.57108296
0.57261822
0.57410998
0.57555543
0.57694922
0.57828326
0.5795466
0.58072547
0.58180367
0.58276282
0.58358286
0.58424309
0.5847241
0.58501105
0.58509911
0.5849889
0.58466939
0.58414223
0.58345362
0.58262706
0.58169171
0.58070508
0.57973273
0.57878644
0.57779033
0.57680987
0.57647238
0.54997044
0.56179024
0.52387433
0.50563614
0.48517998
0.46985139
0.45700268
0.44722907
0.44026627
0.43587286
0.43370464
0.43340071
0.43460602
0.43699672
0.44029054
0.4442504
0.44868248
0.45343173
0.45837618
0.46342126
0.46849456
0.47354132
0.47852069
0.48340266
0.48816569
0.49279472
0.49727973
0.50161458
0.50579605
0.50982323
0.5136969
0.51741918
0.52099317
0.52442272
0.52771225
0.53086658
0.53389083
0.53679033
0.53957054
0.54223699
0.54479525
0.54725086
0.54960933
0.55187615
0.55405677
0.55615659
0.55818099
0.56013518
0.5620242
0.56385278
0.56562522
0.56734536
0.56901635
0.5706404
0.5722185
0.57374999
0.5752322
0.57666024
0.57802684
0.57932238
0.58053499
0.58165086
0.58265467
0.58352999
0.58426032
0.58483067
0.58522672
0.5854367
0.58546147
0.58529149
0.58491411
0.58434094
0.58359457
0.5827001
0.58171465
0.58069712
0.5796398
0.57847834
0.57731465
0.57673061
0.50990828
0.49754277
0.46060012
0.44286402
0.42558862
0.41350785
0.40529114
0.40072614
0.3991623
0.40001749
0.40272672
0.40680651
0.4118577
0.41756453
0.42368371
0.43003196
0.43647358
0.44290974
0.44926958
0.4555033
0.4615767
0.46746719
0.47316067
0.47864929
0.48392974
0.48900197
0.49386834
0.49853286
0.5030007
0.50727788
0.51137093
0.51528672
0.51903234
0.52261494
0.52604172
0.52931982
0.53245633
0.5354582
0.5383323
0.5410853
0.54372376
0.54625402
0.54868231
0.5510147
0.55325711
0.55541538
0.55749519
0.55950198
0.56144092
0.56331681
0.565134
0.56689631
0.56860684
0.57026781
0.57188016
0.57344332
0.57495492
0.57641063
0.57780419
0.5791275
0.58037075
0.58152274
0.58257141
0.58350403
0.58430751
0.58496869
0.58547363
0.58580803
0.58596138
0.58592362
0.58567781
0.58521082
0.58453375
0.58367951
0.58270682
0.58166119
0.58050436
0.57917746
0.57781085
0.57696213
0.4487038
0.41638418
0.38688382
0.37217054
0.36143476
0.35669709
0.35616605
0.35892874
0.36399976
0.37062452
0.37822169
0.38636992
0.39477118
0.4032202
0.41157868
0.41975587
0.42769422
0.43535919
0.44273203
0.44980476
0.45657664
0.46305177
0.46923736
0.47514259
0.48077782
0.486154
0.49128235
0.49617407
0.5008402
0.50529152
0.50953849
0.5135912
0.5174594
0.52115246
0.52467941
0.5280489
0.5312693
0.53434863
0.53729462
0.54011471
0.54281603
0.54540547
0.54788966
0.55027501
0.55256777
0.55477398
0.55689948
0.55894982
0.56093019
0.56284538
0.5646997
0.56649691
0.56824006
0.56993128
0.57157156
0.57316046
0.57469601
0.57617467
0.57759136
0.57893965
0.58021186
0.58139936
0.58249296
0.58348291
0.58435856
0.58510798
0.58571741
0.58617046
0.58644871
0.58653206
0.58639744
0.58602536
0.58541874
0.58461521
0.58367645
0.58262497
0.58138308
0.57987716
0.5782841
0.57718635
0.35366842
0.3204014
0.30290898
0.29848425
0.29988389
0.30613595
0.31527236
0.32603562
0.33755776
0.34929141
0.36090346
0.37219963
0.3830734
0.39347251
0.40337789
0.41279028
0.42172203
0.43019189
0.43822183
0.44583509
0.45305503
0.45990438
0.46640492
0.47257726
0.47844076
0.48401354
0.48931251
0.49435347
0.49915116
0.50371934
0.50807092
0.51221798
0.5161719
0.51994339
0.52354257
0.52697902
0.53026185
0.5333997
0.5364008
0.539273
0.54202377
0.54466027
0.54718934
0.54961759
0.55195139
0.55419688
0.55635995
0.55844616
0.56046068
0.56240825
0.56429312
0.56611898
0.56788882
0.56960476
0.57126782
0.57287782
0.57443329
0.57593152
0.57736867
0.5787399
0.58003949
0.58126101
0.58239755
0.58344162
0.58438443
0.58521502
0.58591946
0.5864794
0.58687072
0.58706474
0.58703087
0.58674543
0.58621206
0.58547221
0.58458475
0.58354557
0.582233
0.58053364
0.5786796
0.57739414
0.21540632
0.21415355
0.21952536
0.23286655
0.25008815
0.26838035
0.28654624
0.30394033
0.32033567
0.33566937
0.34996699
0.36328905
0.37570929
0.38730292
0.39814164
0.40829143
0.41781198
0.42675682
0.43517372
0.4431053
0.45058954
0.45766042
0.46434836
0.47068069
0.47668204
0.48237469
0.48777886
0.49291299
0.49779394
0.50243717
0.50685698
0.51106659
0.51507827
0.5189035
0.52255301
0.52603688
0.52936462
0.53254521
0.53558716
0.53849851
0.54128693
0.5439597
0.54652377
0.54898583
0.55135232
0.55362941
0.55582302
0.55793868
0.55998156
0.56195638
0.56386735
0.56571811
0.56751164
0.56925007
0.57093449
0.57256494
0.57414034
0.57565866
0.57711704
0.57851189
0.57983903
0.5810936
0.58227031
0.58336309
0.58436392
0.58526122
0.58603979
0.58668235
0.58716675
0.58745878
0.58751779
0.58731669
0.58685728
0.58617957
0.58533994
0.58432231
0.58295827
0.58110811
0.57902926
0.57750545
0.091461123
0.12121663
0.1584495
0.19192324
0.22189533
0.24827839
0.27169004
0.29259458
0.31140647
0.32845065
0.34398905
0.3582315
0.37134832
0.38347896
0.39473877
0.4052241
0.41501612
0.42418382
0.43278629
0.44087451
0.44849277
0.4556798
0.46246966
0.46889252
0.47497519
0.48074169
0.4862136
0.49141044
0.49634994
0.50104828
0.50552031
0.5097797
0.51383913
0.51771036
0.5214044
0.52493154
0.52830148
0.53152336
0.5346058
0.53755699
0.54038467
0.5430962
0.54569862
0.54819866
0.5506028
0.55291724
0.55514791
0.55730038
0.55937978
0.5613908
0.56333761
0.56522378
0.56705219
0.56882485
0.57054277
0.57220588
0.5738131
0.57536254
0.57685165
0.57827737
0.57963609
0.58092366
0.58213564
0.5832672
0.58431053
0.58525152
0.58607427
0.58677276
0.58733043
0.58765477
0.58774899
0.58766121
0.58729195
0.58666065
0.58583232
0.58483522
0.5834345
0.58147876
0.57924959
0.57757232
0.011117187
0.29812013
0.47461554
0.52415365
0.53463717
0.53562252
0.53539525
0.53651334
0.53794936
0.53943349
0.54087543
0.54232473
0.54373112
0.54512343
0.54650969
0.54790514
0.5493083
0.55072114
0.55214245
0.5535714
0.55500646
0.55644556
0.55788645
0.5593267
0.56076376
0.56219501
0.56361782
0.56502951
0.56642743
0.56780893
0.56917138
0.57051213
0.57182855
0.57311799
0.57437777
0.57560517
0.57679743
0.57795172
0.57906513
0.58013466
0.58115724
0.58212965
0.58304855
0.58391044
0.58471163
0.5854482
0.58611604
0.58671079
0.58722784
0.58766234
0.58800913
0.58826273
0.58841731
0.58846673
0.58840449
0.58822377
0.58791776
0.58748024
0.58690664
0.58619553
0.58535172
0.5843918
0.58334049
0.58224162
0.58115264
0.58024815
0.57953766
0.57945722
0.57966444
0.58113003
0.58242924
0.5852262
0.58566492
0.58836207
0.58606617
0.58699767
0.58097094
0.58213149
0.57407332
0.58106202
0.067020598
0.38926766
0.52619294
0.55144793
0.55281009
0.55142844
0.55065665
0.55078578
0.5509447
0.55125867
0.55163225
0.55218249
0.55284379
0.55360805
0.55443217
0.55531922
0.55625643
0.55724251
0.55827052
0.55933552
0.56043249
0.56155661
0.56270345
0.56386875
0.56504839
0.56623843
0.56743502
0.56863443
0.56983299
0.57102713
0.57221333
0.57338811
0.57454806
0.57568977
0.57680985
0.5779049
0.57897154
0.58000634
0.58100583
0.58196652
0.58288484
0.58375714
0.58457967
0.58534855
0.58605977
0.58670914
0.58729232
0.58780475
0.5882417
0.58859821
0.58886907
0.58904877
0.5891315
0.58911124
0.58898169
0.58873647
0.58836945
0.58787549
0.58725152
0.58649827
0.58562347
0.58464734
0.58359327
0.5825215
0.58149233
0.58065516
0.58005192
0.58008714
0.58040117
0.58198833
0.58331152
0.58607621
0.58632652
0.58890978
0.58616461
0.58724247
0.58082127
0.58223462
0.57398217
0.5813203
0.1595304
0.47308903
0.54510902
0.55831764
0.55747073
0.55690871
0.55676508
0.5573947
0.55779135
0.55837804
0.55888118
0.55948658
0.56008387
0.5607353
0.56141025
0.56212608
0.56287008
0.56364746
0.56445492
0.56529126
0.56615453
0.5670426
0.56795328
0.56888421
0.56983283
0.57079646
0.57177223
0.57275718
0.57374821
0.57474213
0.57573564
0.57672537
0.57770789
0.57867969
0.57963721
0.58057682
0.58149486
0.58238758
0.58325119
0.58408184
0.5848756
0.58562847
0.58633633
0.58699498
0.58760009
0.58814721
0.58863174
0.58904894
0.58939389
0.5896615
0.58984643
0.58994314
0.58994583
0.58984855
0.58964528
0.58933005
0.58889749
0.58834355
0.58766675
0.58687025
0.58596429
0.58496853
0.58391685
0.58286976
0.58189461
0.58113212
0.58063508
0.58076457
0.58117816
0.58285973
0.58417078
0.5868833
0.58700887
0.5894137
0.58624269
0.58745689
0.58068101
0.58233493
0.57390319
0.58156868
0.24909348
0.52032331
0.55813055
0.56660348
0.56410062
0.56468832
0.56455921
0.56532303
0.56554772
0.56609973
0.56646214
0.56697377
0.56743909
0.56796041
0.56848333
0.569036
0.56960378
0.57019486
0.57080733
0.57144164
0.57209733
0.57277385
0.57347037
0.57418584
0.57491895
0.5756681
0.57643144
0.57720688
0.57799209
0.5787845
0.57958137
0.58037975
0.58117651
0.58196839
0.58275195
0.58352365
0.5842798
0.5850166
0.58573014
0.58641639
0.58707124
0.58769046
0.58826971
0.58880456
0.58929044
0.5897227
0.59009656
0.5904071
0.59064926
0.59081783
0.59090739
0.59091237
0.59082704
0.59064559
0.59036231