/*--------------------------------*- C++ -*----------------------------------*\
  =========                 |
  \\      /  F ield         | OpenFOAM: The Open Source CFD Toolbox
   \\    /   O peration     | Website:  https://openfoam.org
    \\  /    A nd           | Version:  12
     \\/     M anipulation  |
\*---------------------------------------------------------------------------*/
FoamFile
{
    format      ascii;
    class       volScalarField;
    location    "0.03";
    object      nut;
}
// * * * * * * * * * * * * * * * * * * * * * * * * * * * * * * * * * * * * * //

dimensions      [0 2 -1 0 0 0 0];

internalField   nonuniform List<scalar> 
16000
(
4.9501924e-07
1.0120875e-05
1.8951866e-05
2.426381e-05
1.8894964e-05
2.5093519e-05
1.8483005e-05
2.4351229e-05
2.0136726e-05
2.6337343e-05
2.3283266e-05
2.6129084e-05
2.4387443e-05
2.4650843e-05
2.3965271e-05
2.3759177e-05
2.3530722e-05
2.345278e-05
2.3462822e-05
2.3569861e-05
2.3769291e-05
2.4058861e-05
2.4435928e-05
2.490042e-05
2.545418e-05
2.6102966e-05
2.6854669e-05
2.7721776e-05
2.8719103e-05
2.9862292e-05
3.1168852e-05
3.266231e-05
3.4372887e-05
3.6337627e-05
3.8601724e-05
4.1218655e-05
4.4251568e-05
4.7775527e-05
5.1883308e-05
5.6688652e-05
6.2323131e-05
6.8941295e-05
7.6737525e-05
8.594712e-05
9.6847097e-05
0.00010977017
0.00012512541
0.00014340767
0.0001652287
0.00019134428
0.00022268823
0.00026041953
0.00030598825
0.00036119826
0.00042824277
0.00050978071
0.000609027
0.00072989799
0.00087716315
0.0010376987
0.0010376755
0.0010375
0.0010369743
0.0010356864
0.0010335124
0.00103076
0.0010281881
0.0010265828
0.0010262574
0.00102704
0.0010285263
0.0010302939
0.0010318809
0.0010328872
0.0010332577
0.0010330146
0.0010325052
0.0010254574
0.0010133173
0.0010092021
4.4930864e-07
9.6019886e-06
2.0329553e-05
2.171619e-05
1.7046706e-05
2.2605464e-05
1.6422219e-05
2.1539499e-05
1.7693643e-05
2.3394369e-05
2.0959569e-05
2.3597975e-05
2.2237531e-05
2.2336755e-05
2.1783836e-05
2.1549504e-05
2.135113e-05
2.1270436e-05
2.1278431e-05
2.1373281e-05
2.1553907e-05
2.181813e-05
2.2163821e-05
2.2590998e-05
2.3101016e-05
2.3699185e-05
2.4392262e-05
2.5191493e-05
2.6110957e-05
2.7165872e-05
2.8372354e-05
2.9751783e-05
3.1332034e-05
3.3147358e-05
3.5240034e-05
3.766044e-05
4.0468477e-05
4.373476e-05
4.7546049e-05
5.2011075e-05
5.7257682e-05
6.3433001e-05
7.0723079e-05
7.9357451e-05
8.9609572e-05
0.00010180436
0.00011634825
0.00013374087
0.00015459964
0.00017969292
0.0002099844
0.00024669237
0.00029135447
0.00034590366
0.00041274306
0.00049484724
0.00059589664
0.00072045721
0.0008741665
0.0010378646
0.0010375443
0.0010371255
0.0010362244
0.0010345633
0.0010321326
0.001029351
0.0010269992
0.0010257672
0.0010257964
0.0010269231
0.001028618
0.0010304899
0.001032052
0.0010329126
0.0010330969
0.0010329232
0.0010317148
0.0010244732
0.0010120591
0.001007965
4.0567644e-07
9.2062096e-06
1.9232799e-05
1.9937255e-05
1.5288682e-05
1.9975678e-05
1.4625571e-05
1.8775512e-05
1.5910481e-05
2.0590437e-05
1.9099189e-05
2.1057719e-05
2.0118278e-05
2.0023612e-05
1.958682e-05
1.934592e-05
1.9174572e-05
1.9100512e-05
1.9110826e-05
1.9199746e-05
1.9367127e-05
1.9611399e-05
1.9930735e-05
2.0325454e-05
2.0796548e-05
2.1349151e-05
2.1989253e-05
2.2727051e-05
2.357578e-05
2.4550405e-05
2.5666253e-05
2.6943146e-05
2.8407218e-05
3.0090542e-05
3.2033096e-05
3.4282762e-05
3.6897093e-05
3.994391e-05
4.3505576e-05
4.7686459e-05
5.2612762e-05
5.8427552e-05
6.5311292e-05
7.3489639e-05
8.3236076e-05
9.4874562e-05
0.00010881302
0.00012555784
0.00014573984
0.00017014909
0.00019978446
0.00023592197
0.00028018377
0.00033462775
0.00040184183
0.00048506685
0.00058835262
0.00071674328
0.00087645615
0.001038005
0.0010374418
0.0010366968
0.0010354016
0.0010333611
0.0010306928
0.0010279319
0.001025865
0.0010250717
0.0010255169
0.0010269354
0.0010288457
0.0010308031
0.0010322964
0.0010329403
0.0010330392
0.0010327753
0.001030599
0.0010226661
0.0010111608
0.0010070878
3.6196227e-07
8.8983041e-06
1.8267051e-05
1.8236904e-05
1.3735455e-05
1.7690407e-05
1.30286e-05
1.6462929e-05
1.4307719e-05
1.8205461e-05
1.7396913e-05
1.8805282e-05
1.8161863e-05
1.7937522e-05
1.7585888e-05
1.73547e-05
1.7207883e-05
1.7144764e-05
1.7160365e-05
1.7247133e-05
1.7405198e-05
1.7633677e-05
1.7931e-05
1.8297896e-05
1.8735109e-05
1.924773e-05
1.9841245e-05
2.0525009e-05
2.1311449e-05
2.2215354e-05
2.3251577e-05
2.4438645e-05
2.5801297e-05
2.7369767e-05
2.9182121e-05
3.1284113e-05
3.3731323e-05
3.6589582e-05
3.9937913e-05
4.3876493e-05
4.8530732e-05
5.4041241e-05
6.0584465e-05
6.838275e-05
7.7711614e-05
8.8895776e-05
0.00010234657
0.00011857882
0.00013823796
0.00016213926
0.00019131863
0.00022711028
0.00027122336
0.00032584948
0.00039377616
0.00047853558
0.00058459043
0.00071755155
0.0008843823
0.0010381115
0.0010373038
0.0010362243
0.0010345625
0.0010321993
0.0010293689
0.001026698
0.0010249396
0.0010245387
0.0010253581
0.001027054
0.0010291409
0.0010311286
0.0010324935
0.0010329248
0.0010329583
0.0010324096
0.0010284711
0.0010201956
0.0010105323
0.0010064074
3.2315206e-07
8.6657135e-06
1.7430011e-05
1.8148924e-05
1.3505993e-05
1.5668507e-05
1.1625431e-05
1.4460523e-05
1.2931618e-05
1.6126329e-05
1.5877481e-05
1.6764882e-05
1.6340042e-05
1.6033978e-05
1.5747434e-05
1.5536846e-05
1.5412284e-05
1.5361295e-05
1.538226e-05
1.5467444e-05
1.5616964e-05
1.5830781e-05
1.6107609e-05
1.6448712e-05
1.6854773e-05
1.7330911e-05
1.7882303e-05
1.8517656e-05
1.9248585e-05
2.0089688e-05
2.1055577e-05
2.2163746e-05
2.3437825e-05
2.490652e-05
2.6606328e-05
2.858123e-05
3.0885145e-05
3.3582545e-05
3.6750303e-05
4.0484627e-05
4.4910709e-05
5.016829e-05
5.6431663e-05
6.3920404e-05
7.2913985e-05
8.3740402e-05
9.6816436e-05
0.000112668
0.00013195854
0.00015553285
0.00018446845
0.00022016439
0.00026442632
0.00031959363
0.00038867494
0.00047552245
0.00058504988
0.00072348883
0.00089861762
0.0010381542
0.0010371134
0.0010357152
0.0010337187
0.0010310856
0.0010281545
0.0010256328
0.001024215
0.0010241489
0.0010253277
0.0010272833
0.0010295046
0.0010314578
0.0010326306
0.0010328965
0.0010328722
0.0010316969
0.0010264114
0.001017683
0.0010098904
0.0010058282
2.9623593e-07
8.5183409e-06
1.6758118e-05
1.7857399e-05
1.3322567e-05
1.3903963e-05
1.0755506e-05
1.2791115e-05
1.1770166e-05
1.4348443e-05
1.4533184e-05
1.496188e-05
1.4678345e-05
1.4332296e-05
1.4088474e-05
1.3899102e-05
1.3790502e-05
1.3748076e-05
1.3771417e-05
1.3853307e-05
1.3993668e-05
1.4193218e-05
1.4450862e-05
1.4768271e-05
1.5146279e-05
1.5589941e-05
1.6104233e-05
1.6697368e-05
1.7380157e-05
1.8166965e-05
1.9072353e-05
2.0113005e-05
2.1311722e-05
2.2695976e-05
2.4301048e-05
2.616953e-05
2.8354021e-05
3.0918112e-05
3.3937788e-05
3.7505941e-05
4.1747696e-05
4.6803415e-05
5.2847515e-05
6.0097368e-05
6.8838051e-05
7.9403484e-05
9.2218198e-05
0.00010782198
0.00012689896
0.00015032774
0.0001792318
0.0002150814
0.0002597866
0.00031584476
0.00038650109
0.00047595059
0.00058958797
0.00073430201
0.00091872753
0.0010381547
0.0010368822
0.0010351934
0.0010329035
0.0010300527
0.0010270799
0.0010247641
0.0010237838
0.0010239608
0.0010254321
0.0010276189
0.0010299121
0.0010317467
0.0010326666
0.0010328655
0.0010326996
0.0010305246
0.0010244494
0.0010155793
0.0010090708
0.0010052859
2.7162207e-07
8.4311685e-06
1.6229331e-05
1.6982324e-05
1.3203905e-05
1.2321909e-05
1.0947484e-05
1.1714063e-05
1.1472072e-05
1.2840201e-05
1.3327765e-05
1.3364962e-05
1.3149338e-05
1.2794292e-05
1.2575256e-05
1.2405063e-05
1.2308584e-05
1.2273049e-05
1.2298049e-05
1.2377128e-05
1.2509799e-05
1.2697305e-05
1.2938741e-05
1.315923e-05
1.3504273e-05
1.3912343e-05
1.4387853e-05
1.4938332e-05
1.5573572e-05
1.630735e-05
1.715415e-05
1.8129879e-05
1.925658e-05
2.0560552e-05
2.2075964e-05
2.3844159e-05
2.5916506e-05
2.8355718e-05
3.1237672e-05
3.4912651e-05
3.9011621e-05
4.3913727e-05
4.9795967e-05
5.6874499e-05
6.5440977e-05
7.5838155e-05
8.8500948e-05
0.00010398616
0.0001230016
0.00014646508
0.00017555171
0.00021181113
0.00025726793
0.0003145897
0.00038727564
0.00047988996
0.00059834263
0.00075020682
0.00094496962
0.0010381344
0.0010366334
0.0010346846
0.001032145
0.0010291232
0.0010261577
0.0010240878
0.0010234785
0.0010238771
0.0010256673
0.0010280469
0.0010303295
0.0010319521
0.0010326347
0.0010327983
0.0010323558
0.0010291419
0.001022703
0.0010139817
0.0010081511
0.0010046447
2.438684e-07
8.3798165e-06
1.5779495e-05
1.5562307e-05
1.2377598e-05
1.0764655e-05
9.6915365e-06
1.054708e-05
1.0241705e-05
1.1528935e-05
1.2135838e-05
1.1902138e-05
1.1703662e-05
1.1370353e-05
1.1172149e-05
1.1023516e-05
1.0941014e-05
1.0914698e-05
1.0878578e-05
1.0941801e-05
1.1058753e-05
1.1229282e-05
1.1451978e-05
1.1726153e-05
1.2056177e-05
1.2445168e-05
1.2897648e-05
1.3421114e-05
1.4024865e-05
1.4722374e-05
1.5528473e-05
1.6458717e-05
1.7534879e-05
1.8782601e-05
2.0235539e-05
2.1934414e-05
2.3930103e-05
2.6285101e-05
2.9076083e-05
3.2397159e-05
3.6364178e-05
4.1125221e-05
4.686172e-05
5.4241467e-05
6.2713558e-05
7.303698e-05
8.56603e-05
0.00010116073
0.00012027342
0.00014396171
0.00017345881
0.00021040253
0.00025694312
0.00031593165
0.0003911373
0.00048751394
0.00061150863
0.00077137689
0.00097737621
0.0010381145
0.0010363946
0.0010342158
0.0010314665
0.0010283152
0.0010253904
0.0010236296
0.0010232403
0.0010239144
0.0010260225
0.0010285386
0.0010307121
0.0010320489
0.001032544
0.0010325249
0.0010316899
0.0010279902
0.0010212585
0.001012853
0.0010072605
0.0010039084
2.2249006e-07
8.3357966e-06
1.5327425e-05
1.371492e-05
1.0197097e-05
9.5703561e-06
7.9359e-06
8.9922798e-06
9.3768805e-06
1.038685e-05
1.0934728e-05
1.0537995e-05
1.0342941e-05
1.0049536e-05
9.87421e-06
9.6817732e-06
9.5903883e-06
9.5603198e-06
9.5851813e-06
9.6610081e-06
9.7845381e-06
9.9555758e-06
1.0174611e-05
1.0441289e-05
1.0759684e-05
1.1133755e-05
1.1568151e-05
1.2070446e-05
1.2649606e-05
1.3318769e-05
1.4093204e-05
1.4988352e-05
1.6025999e-05
1.7231399e-05
1.8638027e-05
2.0286418e-05
2.222741e-05
2.4523795e-05
2.7252863e-05
3.0509627e-05
3.4412596e-05
3.9111068e-05
4.4793786e-05
5.1685581e-05
6.0079739e-05
7.0350165e-05
8.3692934e-05
9.9347381e-05
0.00011872382
0.00014283814
0.00017298949
0.00021091374
0.00025889995
0.00031999922
0.00039826976
0.00049907263
0.00062939885
0.00079815712
0.0010162264
0.0010381149
0.0010361916
0.0010338125
0.0010308902
0.0010276432
0.0010247921
0.0010233347
0.0010231048
0.0010240873
0.0010264702
0.0010290486
0.001031012
0.0010319911
0.0010322942
0.0010319743
0.0010306421
0.0010269444
0.0010200609
0.0010120792
0.0010065203
0.0010030994
2.0490782e-07
8.2893978e-06
1.41767e-05
1.2022928e-05
8.2372661e-06
8.4841474e-06
6.9647126e-06
8.1216659e-06
8.6647527e-06
9.2899072e-06
9.7529083e-06
9.286423e-06
9.0894962e-06
8.753924e-06
8.5694736e-06
8.4488029e-06
8.3909087e-06
8.3859762e-06
8.4286711e-06
8.5159454e-06
8.6456709e-06
8.818718e-06
9.0358359e-06
9.2972309e-06
9.6073237e-06
9.9705267e-06
1.0391678e-05
1.0878549e-05
1.1439922e-05
1.2088605e-05
1.2840361e-05
1.3710819e-05
1.4722008e-05
1.5899066e-05
1.7275605e-05
1.8892372e-05
2.0800609e-05
2.3063944e-05
2.5761237e-05
2.8989641e-05
3.2870135e-05
3.7554942e-05
4.3240647e-05
5.0158579e-05
5.8613386e-05
6.8993701e-05
8.1795107e-05
9.7630536e-05
0.00011837899
0.0001431354
0.00017420575
0.00021343516
0.00026326678
0.00032697118
0.00040891793
0.00051489058
0.0006524129
0.00083098496
0.0010398358
0.0010381478
0.0010360455
0.0010334958
0.0010304346
0.0010271195
0.0010243588
0.0010231748
0.0010230562
0.0010243639
0.0010269687
0.0010295157
0.0010311792
0.0010318042
0.0010318262
0.0010312271
0.0010295068
0.0010258915
0.0010189802
0.0010115196
0.0010060217
0.0010022542
1.8853063e-07
8.238386e-06
1.1223481e-05
1.0161034e-05
6.7308508e-06
7.5652201e-06
6.3412382e-06
7.300619e-06
8.0759264e-06
8.2905704e-06
8.6024247e-06
8.0565157e-06
7.8088308e-06
7.5747492e-06
7.4370675e-06
7.3555238e-06
7.3262486e-06
7.3432119e-06
7.4002547e-06
7.4994827e-06
7.6355711e-06
7.8112821e-06
8.02829e-06
8.2871473e-06
8.5923791e-06
8.9488712e-06
9.3617696e-06
9.8391045e-06
1.0389669e-05
1.1026007e-05
1.1705126e-05
1.2551584e-05
1.3537643e-05
1.4688298e-05
1.6037287e-05
1.7625602e-05
1.950495e-05
2.1739844e-05
2.4410837e-05
2.7617518e-05
3.1484406e-05
3.64501e-05
4.2197632e-05
4.9213365e-05
5.7813956e-05
6.840475e-05
8.1511233e-05
9.7783217e-05
0.00011807644
0.00014351418
0.00017717112
0.00021806092
0.00027017909
0.00033703571
0.00042333329
0.00053529212
0.00068095415
0.00087033654
0.0010399835
0.0010382117
0.0010359705
0.0010332815
0.0010301114
0.0010267483
0.0010240721
0.0010231061
0.0010230708
0.0010247128
0.0010274675
0.0010298733
0.0010311411
0.0010314851
0.0010312335
0.0010304406
0.0010286296
0.0010247458
0.001017917
0.0010110212
0.0010057805
0.0010018617
1.7420965e-07
8.1866028e-06
8.8307072e-06
8.5105112e-06
5.8583592e-06
6.7089013e-06
5.8164855e-06
6.5786609e-06
7.4772651e-06
7.3546104e-06
7.3685105e-06
6.914322e-06
6.7100944e-06
6.5376051e-06
6.439792e-06
6.3909019e-06
6.3855639e-06
6.4221891e-06
6.4945323e-06
6.6027127e-06
6.7459933e-06
6.9259433e-06
7.1450448e-06
7.4043637e-06
7.7085367e-06
8.0289023e-06
8.4318103e-06
8.8987096e-06
9.4383128e-06
1.0062803e-05
1.0786927e-05
1.1629857e-05
1.2613374e-05
1.3762821e-05
1.5112637e-05
1.6704762e-05
1.8592249e-05
2.0841443e-05
2.3535826e-05
2.6778879e-05
3.0700521e-05
3.5465965e-05
4.1282381e-05
4.8406205e-05
5.7168341e-05
6.8582597e-05
8.2123389e-05
9.898829e-05
0.00012008325
0.00014661065
0.00018014351
0.00022486709
0.00027974714
0.00035034207
0.00044169987
0.00056048636
0.00071526377
0.00091651663
0.0010400856
0.0010382884
0.0010359697
0.0010331758
0.0010299208
0.0010265208
0.0010239056
0.0010230979
0.0010231612
0.0010250969
0.0010279044
0.0010300695
0.0010309386
0.0010310044
0.0010305555
0.0010296425
0.0010276565
0.0010235173
0.0010168219
0.0010104727
0.0010056962
0.0010018878
1.6141871e-07
8.1281132e-06
6.9921875e-06
7.4741316e-06
5.2105223e-06
5.9374688e-06
5.3655627e-06
5.9353306e-06
6.775498e-06
6.2965692e-06
6.2601813e-06
5.9139341e-06
5.7505364e-06
5.6274415e-06
5.5635751e-06
5.542929e-06
5.5604185e-06
5.6132372e-06
5.6990669e-06
5.8181941e-06
5.9698643e-06
6.1560928e-06
6.3534582e-06
6.6106944e-06
6.9125148e-06
7.2632845e-06
7.6702618e-06
8.141268e-06
8.6853e-06
9.314836e-06
1.0044895e-05
1.0894616e-05
1.188726e-05
1.3048822e-05
1.4414714e-05
1.6028222e-05
1.794431e-05
2.0231723e-05
2.2977661e-05
2.6290636e-05
3.0306318e-05
3.519716e-05
4.1184999e-05
4.8539342e-05
5.7610342e-05
6.8848939e-05
8.2837813e-05
0.00010031998
0.00012333678
0.00015119701
0.00018650976
0.00023151927
0.000291985
0.00036689669
0.00046398877
0.00059036233
0.00075509481
0.00096915496
0.0010400801
0.0010383428
0.0010360257
0.0010331684
0.0010298464
0.0010264141
0.001023847
0.0010231193
0.0010233159
0.0010254805
0.0010282039
0.0010300109
0.0010305797
0.0010303696
0.0010297761
0.0010287377
0.0010265457
0.0010222158
0.0010156818
0.0010098581
0.0010056398
0.0010023038
1.5000287e-07
8.0534332e-06
5.58657e-06
6.5255448e-06
4.6399088e-06
5.251018e-06
4.978817e-06
5.2795143e-06
5.9081177e-06
5.3768318e-06
5.2891503e-06
5.0372121e-06
4.9127533e-06
4.8307392e-06
4.7975054e-06
4.8014752e-06
4.8391347e-06
4.9089501e-06
5.0087323e-06
5.1205648e-06
5.2763851e-06
5.4666666e-06
5.6937455e-06
5.9607036e-06
6.2719548e-06
6.6322762e-06
7.0489081e-06
7.5303646e-06
8.0859401e-06
8.7283748e-06
9.4729466e-06
1.0339208e-05
1.1300736e-05
1.2475322e-05
1.385812e-05
1.5493735e-05
1.7439249e-05
1.9765847e-05
2.2564492e-05
2.5949243e-05
3.006255e-05
3.5349643e-05
4.1565273e-05
4.9219118e-05
5.8682162e-05
7.0431187e-05
8.50918e-05
0.00010346102
0.00012657321
0.00015721961
0.00019459501
0.00024232976
0.00030362436
0.0003864244
0.00048976208
0.00062420667
0.00079927576
0.0010262836
0.0010399153
0.001038318
0.001036089
0.0010332228
0.0010298533
0.0010264027
0.00102387
0.0010231657
0.0010235229
0.0010258241
0.0010283142
0.0010297229
0.001030005
0.001029586
0.0010288839
0.0010277145
0.0010252894
0.0010207383
0.0010144875
0.0010092409
0.00100553
0.0010027598
1.3984174e-07
7.9399797e-06
4.5146352e-06
5.6809988e-06
4.1285642e-06
4.6369793e-06
4.6381873e-06
4.5662647e-06
5.042102e-06
4.5558129e-06
4.4475556e-06
4.2721479e-06
4.184986e-06
4.1382987e-06
4.1325404e-06
4.1597584e-06
4.2168818e-06
4.2864463e-06
4.3951784e-06
4.534653e-06
4.705771e-06
4.9101467e-06
5.1508352e-06
5.4311577e-06
5.7561326e-06
6.1308376e-06
6.5626321e-06
7.0397723e-06
7.6076738e-06
8.2636119e-06
9.023039e-06
9.9057028e-06
1.0935931e-05
1.2144479e-05
1.3568504e-05
1.5254556e-05
1.7262894e-05
1.9668249e-05
2.2566378e-05
2.6078584e-05
3.0355979e-05
3.5592873e-05
4.2031738e-05
4.9980983e-05
5.9834478e-05
7.2700369e-05
8.8145214e-05
0.00010753366
0.00013197456
0.00016292259
0.00020419509
0.00025489912
0.00032005083
0.00040414188
0.00051798559
0.00066046112
0.00084532041
0.0010405484
0.0010395621
0.001038139
0.001036072
0.0010332699
0.0010298983
0.0010264759
0.0010239819
0.0010232599
0.0010237968
0.001026053
0.0010281719
0.0010292329
0.0010292328
0.0010286667
0.001027873
0.0010265469
0.0010238229
0.0010189799
0.0010132633
0.0010086581
0.0010053764
0.0010027891
1.3083549e-07
7.6471518e-06
3.7616371e-06
4.9295173e-06
3.6733815e-06
4.0909989e-06
4.1080935e-06
3.9205566e-06
4.2145417e-06
3.8292457e-06
3.7259136e-06
3.6110728e-06
3.5590111e-06
3.5434774e-06
3.5629132e-06
3.5986656e-06
3.668309e-06
3.7676035e-06
3.8957683e-06
4.0531084e-06
4.2411888e-06
4.4621689e-06
4.719556e-06
5.0169882e-06
5.3480145e-06
5.7378944e-06
6.1855609e-06
6.699637e-06
7.2909826e-06
7.9726172e-06
8.7605095e-06
9.6753428e-06
1.0742621e-05
1.1994528e-05
1.347101e-05
1.5220781e-05
1.7307839e-05
1.9811175e-05
2.2831576e-05
2.6498721e-05
3.0971784e-05
3.6457261e-05
4.3215878e-05
5.1574435e-05
6.195401e-05
7.4893352e-05
9.1893471e-05
0.00011240256
0.00013827883
0.00017107449
0.00021280239
0.00026866956
0.00033767206
0.00042659854
0.00054149622
0.00069658913
0.00088962964
0.0010399468
0.0010390096
0.0010377335
0.0010358697
0.0010332284
0.0010299619
0.0010266657
0.0010242642
0.0010234916
0.0010241796
0.0010260616
0.0010277518
0.0010284913
0.0010282833
0.0010276085
0.0010267139
0.0010251886
0.0010221448
0.0010171336
0.0010120938
0.0010080741
0.0010051867
0.0010027635
1.2303968e-07
7.2187132e-06
3.2999661e-06
4.2630548e-06
3.2673678e-06
3.4541456e-06
3.6369288e-06
3.3288736e-06
3.4700137e-06
3.1975237e-06
3.1148511e-06
3.0476752e-06
3.0275381e-06
3.039762e-06
3.0671271e-06
3.1320018e-06
3.2252968e-06
3.3458481e-06
3.4938214e-06
3.6702768e-06
3.8773468e-06
4.1174949e-06
4.3863645e-06
4.7015313e-06
5.0624395e-06
5.4751249e-06
5.9468718e-06
6.4866503e-06
7.1056075e-06
7.8176321e-06
8.6392951e-06
9.5922742e-06
1.0703377e-05
1.2006585e-05
1.3487227e-05
1.5296896e-05
1.7457895e-05
2.0053792e-05
2.3328773e-05
2.7174077e-05
3.1870846e-05
3.763704e-05
4.4751765e-05
5.3561371e-05
6.4510932e-05
7.8172951e-05
9.5282166e-05
0.00011678568
0.00014519207
0.0001798248
0.00022384174
0.00027999737
0.00035521994
0.0004482515
0.00056789347
0.00072872758
0.00092717653
0.0010392492
0.0010382739
0.0010370773
0.0010354206
0.0010330583
0.0010300712
0.0010270188
0.0010247657
0.0010239129
0.0010244134
0.001025797
0.0010270899
0.001027537
0.0010271681
0.0010263942
0.0010253712
0.001023601
0.0010202446
0.0010154182
0.0010110043
0.0010074372
0.0010048858
0.0010026822
1.167376e-07
6.4254672e-06
2.9051613e-06
3.6571799e-06
2.9147493e-06
2.8658079e-06
3.1682234e-06
2.7933105e-06
2.8328676e-06
2.6577514e-06
2.6029094e-06
2.5742034e-06
2.5752241e-06
2.6053854e-06
2.6674827e-06
2.7574093e-06
2.8733135e-06
3.0150837e-06
3.1836613e-06
3.3805668e-06
3.6031819e-06
3.8627113e-06
4.1594518e-06
4.4977027e-06
4.8826145e-06
5.3204486e-06
5.8188423e-06
6.3871422e-06
7.036889e-06
7.7657922e-06
8.6195242e-06
9.608181e-06
1.0759755e-05
1.2109578e-05
1.3702231e-05
1.5594014e-05
1.7855437e-05
2.0575913e-05
2.3868155e-05
2.7874026e-05
3.2773245e-05
3.9070447e-05
4.6563095e-05
5.5846392e-05
6.7386025e-05
8.1781046e-05
9.9798471e-05
0.00012242374
0.00015230745
0.00018860549
0.00023460088
0.00029304033
0.00037101189
0.00046665782
0.00058870109
0.00074422753
0.00095065537
0.0010384701
0.0010374064
0.0010362232
0.0010347523
0.0010327694
0.0010302356
0.001027513
0.0010253294
0.0010242856
0.0010243064
0.0010252853
0.0010262019
0.0010263999
0.0010258909
0.0010250115
0.0010238271
0.0010217663
0.0010181568
0.0010138308
0.0010098842
0.001006641
0.0010043697
0.0010024615
1.1158555e-07
4.4209112e-06
2.5513715e-06
3.0935638e-06
2.4747416e-06
2.3722612e-06
2.6793119e-06
2.3171582e-06
2.3036249e-06
2.2032331e-06
2.1792037e-06
2.1763295e-06
2.2056623e-06
2.2664929e-06
2.3547568e-06
2.4681352e-06
2.6060183e-06
2.7689974e-06
2.9558035e-06
3.1726312e-06
3.4206385e-06
3.7028516e-06
4.0229535e-06
4.3854242e-06
4.7956737e-06
5.2602367e-06
5.7870667e-06
6.3764368e-06
7.055589e-06
7.8329333e-06
8.7271632e-06
9.7616356e-06
1.0965955e-05
1.2377553e-05
1.4043741e-05
1.6024062e-05
1.8393375e-05
2.1246011e-05
2.4701013e-05
2.8908524e-05
3.4058061e-05
4.0388361e-05
4.8558878e-05
5.831322e-05
7.042913e-05
8.5523742e-05
0.00010438223
0.00012800576
0.00015767102
0.0001967534
0.00024417237
0.00030400992
0.00037959169
0.00047950354
0.00060082591
0.00075351675
0.00095421288
0.0010376283
0.0010364721
0.0010352616
0.0010339254
0.0010323176
0.0010303008
0.0010279515
0.001025706
0.0010243822
0.0010240938
0.0010245697
0.0010251309
0.0010251057
0.0010244597
0.0010234609
0.0010220687
0.0010196874
0.0010161186
0.0010122129
0.0010085922
0.0010056143
0.0010036153
0.0010020249
1.0603858e-07
3.6405025e-06
2.1795798e-06
2.575889e-06
2.1149744e-06
1.9595615e-06
2.180291e-06
1.9000942e-06
1.8735572e-06
1.8295436e-06
1.8321382e-06
1.8605955e-06
1.9219068e-06
2.0097009e-06
2.1216208e-06
2.2568306e-06
2.415643e-06
2.597295e-06
2.8066977e-06
3.0450917e-06
3.3151633e-06
3.6201664e-06
3.9639948e-06
4.3513038e-06
4.7876923e-06
5.2799319e-06
5.8298617e-06
6.4576248e-06
7.1714087e-06
7.9867819e-06
8.9233979e-06
1.0005915e-05
1.126551e-05
1.2741619e-05
1.4484212e-05
1.655637e-05
1.9037195e-05
2.2025843e-05
2.5647148e-05
3.0057622e-05
3.5454519e-05
4.238951e-05
5.0634917e-05
6.082996e-05
7.3471165e-05
8.9182052e-05
0.00010874826
0.00013315926
0.00016517516
0.00020362622
0.00025171975
0.00031189004
0.0003871086
0.00048550375
0.00060324608
0.0007494007
0.000939351
0.0010367482
0.0010355138
0.0010342546
0.0010329605
0.0010315778
0.0010299718
0.001028038
0.0010259392
0.0010243507
0.0010236927
0.0010237112
0.0010239085
0.0010236666
0.0010228912
0.0010217507
0.0010200911
0.0010174612
0.0010140711
0.0010104233
0.001007057
0.0010043955
0.0010027371
0.0010015189
1.0195444e-07
2.9045546e-06
1.8601746e-06
2.0608893e-06
1.8153583e-06
1.6053291e-06
1.7218272e-06
1.5468299e-06
1.5349542e-06
1.5353888e-06
1.5650661e-06
1.6269562e-06
1.7151223e-06
1.8260536e-06
1.9588729e-06
2.1138535e-06
2.2910065e-06
2.4935715e-06
2.7232302e-06
2.9824394e-06
3.2741359e-06
3.6017571e-06
3.9693364e-06
4.3816531e-06
4.844445e-06
5.361036e-06
5.945361e-06
6.6055301e-06
7.3544599e-06
8.2083978e-06
9.1880167e-06
1.0319253e-05
1.1634896e-05
1.3176322e-05
1.4995849e-05
1.7159672e-05
1.9751135e-05
2.2873539e-05
2.6657019e-05
3.126356e-05
3.7138282e-05
4.4106062e-05
5.2680327e-05
6.32599e-05
7.6340728e-05
9.2541046e-05
0.00011262893
0.00013755961
0.00017002624
0.00020873045
0.0002567248
0.00031616322
0.00038963275
0.00048467569
0.00059684895
0.00073442017
0.00091163531
0.0010358443
0.0010345486
0.0010332357
0.0010319024
0.0010305565
0.0010291444
0.0010275698
0.0010258297
0.0010242387
0.0010232041
0.0010227432
0.0010225178
0.0010220652
0.0010211751
0.0010198495
0.0010178994
0.0010152075
0.0010119142
0.0010084578
0.0010053884
0.0010031388
0.0010018681
0.0010010483
9.9510529e-08
2.260477e-06
1.582154e-06
1.5701882e-06
1.5389153e-06
1.302521e-06
1.3495477e-06
1.2647937e-06
1.2806631e-06
1.3125107e-06
1.3759536e-06
1.4641252e-06
1.574e-06
1.7042587e-06
1.8552063e-06
2.0279179e-06
2.2233161e-06
2.4445003e-06
2.6934049e-06
2.9727097e-06
3.2854946e-06
3.6353119e-06
4.0262919e-06
4.4633034e-06
4.952177e-06
5.5000084e-06
6.1155534e-06
6.809708e-06
7.5874007e-06
8.4793987e-06
9.501357e-06
1.0680468e-05
1.2051101e-05
1.3656548e-05
1.5551217e-05
1.7875811e-05
2.0592702e-05
2.3865077e-05
2.7827824e-05
3.2648363e-05
3.8534224e-05
4.5742283e-05
5.4591693e-05
6.5477232e-05
7.8886477e-05
9.5420516e-05
0.00011581479
0.00014219705
0.00017342285
0.00021184659
0.00025904905
0.0003169068
0.0003913019
0.00047813919
0.00058370274
0.00071190713
0.00087602086
0.001034926
0.0010335848
0.0010322303
0.0010308507
0.0010294644
0.0010280817
0.0010266941
0.0010252672
0.0010238083
0.0010225545
0.0010216323
0.00102094
0.0010202233
0.0010192029
0.0010176894
0.0010155895
0.0010128474
0.0010096453
0.0010064463
0.0010037786
0.001001998
0.0010011106
0.0010006556
9.9516753e-08
1.7136487e-06
1.3476235e-06
1.1944154e-06
1.2605004e-06
1.0490886e-06
1.0763484e-06
1.0560982e-06
1.1006918e-06
1.1624696e-06
1.2503305e-06
1.3583891e-06
1.4855859e-06
1.6320946e-06
1.799027e-06
1.9879498e-06
2.2004619e-06
2.4392437e-06
2.7065741e-06
3.005239e-06
3.3383956e-06
3.709663e-06
4.1232408e-06
4.5840766e-06
5.0980985e-06
5.672529e-06
6.3163053e-06
7.0406065e-06
7.859512e-06
8.7908372e-06
9.8571213e-06
1.1086939e-05
1.2516342e-05
1.4190728e-05
1.6167008e-05
1.8516288e-05
2.1327162e-05
2.4709977e-05
2.8801412e-05
3.3770743e-05
3.9827042e-05
4.7227261e-05
5.6284903e-05
6.7386311e-05
8.1001811e-05
9.8511502e-05
0.00011914395
0.00014440875
0.00017530322
0.0002130111
0.00025892414
0.00031762216
0.00038559139
0.00046762333
0.00056647112
0.00069227223
0.00083731067
0.0010136258
0.0010326388
0.0010312447
0.0010298385
0.0010284268
0.0010270194
0.0010256259
0.0010242542
0.0010228914
0.0010215194
0.0010202754
0.0010191832
0.0010181233
0.001016897
0.0010152578
0.0010130644
0.0010103495
0.001007366
0.0010045647
0.0010023886
0.0010010663
0.0010004965
0.0010003286
1.0278699e-07
1.2676956e-06
1.1532825e-06
9.1931557e-07
1.099573e-06
8.4030268e-07
8.8866166e-07
9.1431502e-07
9.8201436e-07
1.0672853e-06
1.1728541e-06
1.2962208e-06
1.4377894e-06
1.5985931e-06
1.7801582e-06
1.9842696e-06
2.2129568e-06
2.4683331e-06
2.7531433e-06
3.0701377e-06
3.4225226e-06
3.8139693e-06
4.2487384e-06
4.7318528e-06
5.2693358e-06
5.8685333e-06
6.5385479e-06
7.2908302e-06
8.1398335e-06
9.103906e-06
1.0206255e-05
1.147633e-05
1.2951252e-05
1.4677684e-05
1.6713984e-05
1.9132847e-05
2.2024428e-05
2.5500135e-05
2.9697194e-05
3.4784177e-05
4.1247541e-05
4.8841174e-05
5.810088e-05
6.9401108e-05
8.3192738e-05
0.00010001678
0.00012051881
0.00014546444
0.00017575278
0.00021442757
0.00025907819
0.00031283824
0.00037738895
0.00045473366
0.00055267493
0.00066447441
0.00079897236
0.00096184031
0.0010317419
0.0010302989
0.0010288545
0.0010274053
0.0010259573
0.0010245035
0.0010230413
0.0010215783
0.0010201123
0.0010186072
0.0010171219
0.0010156664
0.0010141622
0.0010124259
0.0010102956
0.0010078165
0.0010052481
0.0010029746
0.0010013231
0.0010003944
0.0010000359
0.0010000551
1.0941987e-07
9.7446785e-07
9.8372804e-07
7.7732909e-07
7.8208872e-07
7.1638107e-07
7.6296801e-07
8.2440438e-07
9.0965594e-07
1.0113606e-06
1.1302711e-06
1.2662984e-06
1.4205399e-06
1.5943564e-06
1.7893952e-06
2.0074947e-06
2.250709e-06
2.5213263e-06
2.8219082e-06
3.1553365e-06
3.5248804e-06
3.9342875e-06
4.387912e-06
4.890896e-06
5.4494217e-06
6.0688468e-06
6.7616845e-06
7.538223e-06
8.4208771e-06
9.4165244e-06
1.0554258e-05
1.1864433e-05
1.3385205e-05
1.516436e-05
1.7261443e-05
1.9750282e-05
2.2722001e-05
2.628862e-05
3.0587312e-05
3.5785514e-05
4.208693e-05
4.97385e-05
5.9038098e-05
7.0341421e-05
8.4074989e-05
0.00010074433
0.00012202301
0.00014664636
0.00017634985
0.00021209194
0.00025498119
0.00030630513
0.00036757346
0.00044478705
0.00053243063
0.00063706249
0.00076251722
0.0009139021
0.0010309237
0.0010294297
0.0010279332
0.0010264249
0.0010249126
0.0010233861
0.001021825
0.0010202062
0.0010185039
0.0010166639
0.0010146894
0.0010127576
0.0010109798
0.0010092784
0.0010074591
0.0010054713
0.001003495
0.0010018163
0.001000649
0.0010000272
0.00099978066
0.00099989451
1.2420278e-07
9.7952556e-07
8.2029876e-07
5.7660433e-07
6.2119871e-07
6.2426865e-07
6.893371e-07
7.6991826e-07
8.6892876e-07
9.8304801e-07
1.113298e-06
1.2605274e-06
1.426066e-06
1.6113659e-06
1.8180936e-06
2.0481042e-06
2.3034706e-06
2.5865094e-06
2.8998176e-06
3.2463172e-06
3.6293174e-06
4.0526018e-06
4.5205536e-06
5.0383354e-06
5.6121442e-06
6.2495595e-06
6.9600046e-06
7.7553356e-06
8.6505829e-06
9.6648307e-06
1.0822262e-05
1.2153458e-05
1.3696836e-05
1.5500414e-05
1.7623844e-05
2.0140825e-05
2.3141938e-05
2.6737967e-05
3.106381e-05
3.6283052e-05
4.259336e-05
5.0593178e-05
5.9918415e-05
7.1207596e-05
8.4864889e-05
0.0001013651
0.00012126519
0.00014521534
0.00017397121
0.00020840555
0.00024953061
0.00030127671
0.00035992296
0.00042954538
0.00051224109
0.00061068977
0.00072837996
0.00086989477
0.0010302161
0.0010286793
0.0010271251
0.001025546
0.0010239448
0.0010223089
0.0010206056
0.0010187853
0.0010167812
0.0010145083
0.00101197
0.0010095517
0.0010076041
0.0010061151
0.0010048165
0.001003513
0.0010022419
0.0010011774
0.0010004309
0.00099990649
0.00099971593
0.00099979933
1.1392699e-07
6.2917178e-07
6.4971366e-07
4.7748631e-07
5.2110795e-07
5.6789489e-07
6.4834019e-07
7.4283872e-07
8.5275304e-07
9.7739899e-07
1.1178802e-06
1.2752753e-06
1.4509364e-06
1.6463657e-06
1.8632561e-06
2.1035009e-06
2.3692174e-06
2.6627369e-06
2.9867535e-06
3.3442158e-06
3.7384742e-06
4.1733473e-06
4.6532458e-06
5.1833508e-06
5.7698698e-06
6.4203866e-06
7.144324e-06
7.9535402e-06
8.8704808e-06
9.9027488e-06
1.1079715e-05
1.2432185e-05
1.3998733e-05
1.5827427e-05
1.7977777e-05
2.0523044e-05
2.3552916e-05
2.7176648e-05
3.1526709e-05
3.676299e-05
4.3077542e-05
5.0699764e-05
5.9901987e-05
7.1007332e-05
8.4395302e-05
0.00010051073
0.0001198729
0.00014434205
0.00017230622
0.00020565584
0.00024533205
0.00029242834
0.00034823953
0.00041433455
0.00049266088
0.00058568521
0.00069657118
0.00082940652
0.00098949577
0.0010280872
0.0010264714
0.0010248131
0.0010230999
0.001021314
0.0010194113
0.0010173227
0.0010149538
0.0010122051
0.0010091165
0.0010062823
0.0010042802
0.0010031328
0.0010024817