/*--------------------------------*- C++ -*----------------------------------*\
  =========                 |
  \\      /  F ield         | OpenFOAM: The Open Source CFD Toolbox
   \\    /   O peration     | Website:  https://openfoam.org
    \\  /    A nd           | Version:  12
     \\/     M anipulation  |
\*---------------------------------------------------------------------------*/
FoamFile
{
    format      ascii;
    class       volScalarField;
    location    "0.03";
    object      omega;
}
// * * * * * * * * * * * * * * * * * * * * * * * * * * * * * * * * * * * * * //

dimensions      [0 0 -1 0 0 0 0];

internalField   nonuniform List<scalar> 
16000
(
1099.3164
2208.8426
1071.6179
649.25658
455.37456
317.04709
239.12738
181.14103
145.36587
118.334
100.32869
86.173888
75.350251
66.449984
59.122135
52.97122
47.771798
43.339668
39.530756
36.2342
33.365351
30.852873
28.638374
26.675285
24.926067
23.361572
21.957781
20.696063
19.560438
18.536277
17.61058
16.773183
16.015945
15.331945
14.715205
14.160145
13.661488
13.214322
12.814585
12.458759
12.142852
11.862814
11.615719
11.398803
11.208939
11.043069
10.898824
10.773946
10.666356
10.574243
10.496162
10.430981
10.377628
10.334906
10.301242
10.274779
10.253791
10.237343
10.225781
10.220694
10.221414
10.221812
10.21892
10.210283
10.194805
10.175077
10.156724
10.145626
10.143851
10.150648
10.163381
10.17918
10.194319
10.205197
10.210576
10.210546
10.209279
10.163274
10.078901
10.059445
1141.8458
2202.4527
1061.4554
650.07791
456.07656
320.28315
240.48646
183.14605
146.372
119.45324
100.96595
86.779677
75.761976
66.792864
59.377118
53.167768
47.91711
43.445604
39.605707
36.284122
33.395614
30.868377
28.643043
26.672278
24.917456
23.348983
21.9421
20.677853
19.540387
18.515266
17.589155
16.751515
15.994061
15.309772
14.692711
14.137381
13.63861
13.191396
12.791495
12.435563
12.119892
11.840185
11.593393
11.376918
11.187802
11.022851
10.879697
10.756132
10.650114
10.559828
10.483791
10.420856
10.369897
10.329644
10.29841
10.274197
10.255092
10.239918
10.228817
10.223038
10.22243
10.220123
10.214539
10.203011
10.185521
10.165536
10.148825
10.140619
10.141383
10.150593
10.165066
10.181834
10.196855
10.20662
10.210259
10.210471
10.204971
10.15749
10.069978
10.050523
1182.7861
2202.9361
1051.0888
646.7223
453.09869
320.76827
239.67852
183.49586
146.08736
119.68957
100.89943
86.825951
75.702206
66.719803
59.268832
53.041308
47.775848
43.295305
39.451087
36.127743
33.239767
30.715373
28.4946
26.529849
24.78166
23.220305
21.820515
20.563056
19.432146
18.413694
17.494241
16.662957
15.911477
15.232691
14.620713
14.070107
13.575848
13.132963
12.737011
12.384667
12.072625
11.79645
11.552916
11.339502
11.153511
10.991646
10.851529
10.731004
10.628075
10.540945
10.468086
10.408334
10.360504
10.323258
10.29481
10.273042
10.255917
10.24211
10.231598
10.225399
10.222853
10.217985
10.209421
10.195041
10.175782
10.155947
10.141409
10.136512
10.140052
10.151674
10.167962
10.185505
10.200039
10.208207
10.210397
10.209991
10.200248
10.145205
10.064031
10.044138
1221.9467
2210.953
1041.7469
643.43175
449.64522
321.01876
238.52831
183.66568
145.6482
119.81207
100.77475
86.802505
75.593578
66.593997
59.114923
52.871949
47.595439
43.108793
39.263172
35.940803
33.055727
30.536391
28.322164
26.365347
24.625565
23.07302
21.681959
20.432841
19.309861
18.299339
17.387781
16.564039
15.819678
15.14748
14.541608
13.99667
13.507784
13.070073
12.678924
12.330881
12.023121
11.751136
11.511506
11.30168
11.119307
10.960995
10.824327
10.707189
10.607617
10.523838
10.454254
10.397668
10.352833
10.318372
10.292441
10.27282
10.257342
10.244541
10.234283
10.227434
10.222859
10.215451
10.204032
10.187283
10.166878
10.147776
10.135819
10.133521
10.139728
10.153746
10.171526
10.189336
10.202853
10.209173
10.210575
10.208766
10.18861
10.12752
10.060031
10.039785
1259.1528
2228.4892
1034.2928
639.57324
445.3222
320.48715
236.65809
183.33213
144.81792
119.6454
100.45271
86.596564
75.338535
66.331453
58.841324
52.594827
47.318596
42.835322
38.996734
35.682915
32.807312
30.298866
28.09631
26.152057
24.42489
22.885021
21.50629
20.26888
19.156862
18.157014
17.255946
16.442193
15.707275
15.043849
14.446138
13.908775
13.427004
12.996107
12.611388
12.269075
11.966869
11.700284
11.465736
11.260491
11.082619
10.928667
10.796155
10.682997
10.587242
10.507164
10.441077
10.387761
10.345903
10.314114
10.290535
10.272871
10.258819
10.246802
10.236666
10.22914
10.222422
10.212676
10.198679
10.179904
10.158793
10.14093
10.132197
10.131746
10.140541
10.156857
10.175772
10.193247
10.205249
10.209776
10.210562
10.205935
10.173221
10.109312
10.056072
10.036212
1294.2292
2253.866
1030.7483
636.41844
441.32733
319.28962
234.25282
182.57153
143.69353
119.22746
99.977554
86.231094
74.957195
65.949859
58.463129
52.223631
46.957401
42.485724
38.661343
35.362606
32.502169
30.0097
27.823305
25.89556
24.184718
22.660953
21.297754
20.075087
18.976789
17.990099
17.101883
16.300343
15.576991
14.924332
14.33666
13.808623
13.335564
12.912946
12.536132
12.200895
11.905382
11.645244
11.416828
11.217039
11.044419
10.895501
10.767719
10.659009
10.567401
10.491247
10.428761
10.378715
10.339739
10.310442
10.288996
10.273084
10.260282
10.248886
10.238734
10.230509
10.221723
10.209865
10.193669
10.173203
10.151786
10.135603
10.1299
10.131041
10.142573
10.160944
10.180462
10.196899
10.206943
10.209966
10.210206
10.201018
10.158197
10.094254
10.050867
10.032759
1327.1357
2284.6435
1031.1934
633.39822
437.43149
317.42497
231.61928
181.41538
142.33596
118.56084
99.35647
85.705268
74.446202
65.447458
57.977679
51.75589
46.509325
42.057609
38.254487
34.977441
32.137995
29.666727
27.501246
25.593627
23.902989
22.398951
21.05467
19.84998
18.768375
17.797513
16.924686
16.137742
15.428233
14.788475
14.212845
13.696003
13.233367
12.820557
12.45316
12.126577
11.838939
11.586274
11.365039
11.171607
11.00495
10.861693
10.739164
10.635316
10.548121
10.476054
10.417216
10.370393
10.334172
10.307167
10.287621
10.27327
10.26163
10.250833
10.2406
10.231648
10.220997
10.207235
10.189144
10.167329
10.145927
10.131879
10.12832
10.131127
10.145784
10.165834
10.185276
10.199988
10.207815
10.209916
10.209286
10.193859
10.145485
10.083167
10.044912
10.028556
1357.9645
2318.3163
1033.3415
630.12724
433.61018
314.89966
229.1094
179.99131
140.93381
117.67229
98.606377
85.028292
73.808026
64.827234
57.386127
51.19194
45.974056
41.5505
37.774742
34.525842
31.713225
29.268406
27.128923
25.243102
23.576657
22.096178
20.774426
19.591201
18.529551
17.577444
16.722789
15.953052
15.25988
14.635358
14.073954
13.570338
13.119996
12.718656
12.362188
12.046591
11.768046
11.523832
11.310773
11.124683
10.964635
10.827583
10.710759
10.612116
10.529523
10.461639
10.406436
10.362736
10.329103
10.304172
10.286285
10.273311
10.262817
10.252764
10.242524
10.232769
10.220465
10.204995
10.185273
10.162395
10.141303
10.129592
10.127349
10.132236
10.150029
10.171225
10.189792
10.202196
10.207961
10.209506
10.207255
10.18558
10.135565
10.075748
10.039237
10.023404
1386.8158
2352.7475
1033.2438
626.14243
429.07424
311.64601
225.79991
178.18716
139.2275
116.58737
97.725349
84.201107
73.037482
64.085658
56.684539
50.52694
45.346626
40.959907
37.214604
34.00021
31.220544
28.807741
26.700204
24.845167
23.207466
21.7548
20.459456
19.301349
18.263043
17.332667
16.498953
15.748994
15.074599
14.467573
13.922483
13.434013
12.997716
12.609421
12.265062
11.960625
11.692545
11.457823
11.253892
11.076651
10.923814
10.793418
10.682754
10.589586
10.511721
10.448052
10.396423
10.355702
10.324456
10.301365
10.284904
10.273138
10.263801
10.254742
10.244748
10.234068
10.220307
10.203321
10.182212
10.158526
10.137962
10.128363
10.127047
10.134618
10.155038
10.176692
10.19358
10.203359
10.20746
10.207858
10.203246
10.177763
10.127737
10.071098
10.034669
10.01774
1413.8206
2386.1914
1025.6394
621.13196
422.7875
307.9084
221.57505
175.88341
137.39803
115.31976
96.704039
83.219341
72.12746
63.215273
55.865442
49.748514
44.613593
40.272909
36.572883
33.401829
30.662881
28.288711
26.218901
24.399226
22.795082
21.374612
20.109701
18.980516
17.969131
17.063616
16.253666
15.526151
14.87307
14.285876
13.759248
13.287877
12.867378
12.493685
12.162897
11.871061
11.614528
11.39016
11.195914
11.027385
10.882422
10.75907
10.655323
10.567839
10.494824
10.435336
10.387184
10.349268
10.320189
10.298702
10.283455
10.272754
10.264567
10.25672
10.247362
10.23568
10.220657
10.202339
10.180088
10.155811
10.135808
10.127868
10.127281
10.138134
10.160445
10.181738
10.196283
10.2033
10.205855
10.204601
10.196768
10.170316
10.120872
10.0681
10.031925
10.011737
1439.0788
2417.4621
1017.2839
615.09768
414.80779
303.73147
217.0122
173.37857
135.4733
113.86495
95.530621
82.075832
71.066705
62.195715
54.906602
48.852164
43.776747
39.493902
35.848007
32.729139
30.038798
27.709986
25.684153
23.905695
22.340158
20.95641
19.726151
18.629862
17.649154
16.771823
15.988222
15.285856
14.656673
14.091676
13.585658
13.133318
12.730336
12.372724
12.056759
11.77858
11.534627
11.321541
11.13766
10.978532
10.841838
10.725581
10.628277
10.546663
10.478873
10.423477
10.378711
10.343418
10.316298
10.296201
10.281988
10.272242
10.265151
10.258545
10.250094
10.237625
10.221584
10.202133
10.17897
10.154261
10.134668
10.127893
10.12826
10.142443
10.165809
10.185868
10.197644
10.202245
10.203084
10.200177
10.189465
10.162784
10.114103
10.065556
10.031115
10.009233
1462.7069
2447.5751
1004.4254
607.67383
405.34859
299.15974
212.27987
170.60925
133.50652
112.23087
94.179201
80.740262
69.817883
61.020961
53.812032
47.834937
42.832738
38.61983
35.038938
31.981479
29.348199
27.071943
25.096474
23.365204
21.843719
20.501027
19.309831
18.250593
17.304478
16.458991
15.703027
15.028523
14.425865
13.885476
13.402248
12.970877
12.58712
12.247046
11.947145
11.683664
11.453171
11.252869
11.079797
10.930406
10.802325
10.693412
10.602622
10.526723
10.463627
10.412224
10.370947
10.338142
10.312812
10.293943
10.280621
10.271724
10.26561
10.260031
10.252436
10.23975
10.223065
10.202721
10.178841
10.153805
10.134473
10.128282
10.130036
10.147168
10.170642
10.1887
10.197433
10.200128
10.199465
10.195344
10.183135
10.154835
10.107004
10.062591
10.031522
10.009802
1485.0061
2476.5848
987.56645
599.06642
395.24328
294.16872
207.46509
167.63398
131.47572
110.39525
92.586259
79.196438
68.386755
59.685462
52.57576
46.693494
41.779379
37.64929
34.144465
31.158372
28.591193
26.375274
24.456363
22.7786
21.307193
20.008213
18.860607
17.842752
16.935233
16.125798
15.403306
14.759297
14.185612
13.67206
13.213569
12.804809
12.441672
12.120242
11.837265
11.589186
11.372476
11.184257
11.022431
10.883068
10.763834
10.662833
10.578383
10.50813
10.449737
10.402
10.363644
10.333405
10.309771
10.292026
10.279477
10.271274
10.265889
10.260958
10.254
10.241701
10.224932
10.20401
10.179563
10.15428
10.135098
10.129102
10.13255
10.151891
10.174421
10.189984
10.196052
10.196923
10.195126
10.190069
10.176332
10.146233
10.099509
10.059051
10.032111
10.013477
1506.2325
2500.8239
966.44958
589.9684
384.68878
288.81349
202.66044
164.45869
129.31075
108.2645
90.737657
77.434176
66.761213
58.181479
51.192155
45.423392
40.613296
36.580344
33.164094
30.259149
27.767816
25.620978
23.762583
22.144721
20.730249
19.484487
18.385588
17.413774
16.549019
15.779158
15.092869
14.481897
13.939018
13.454204
13.02211
12.637304
12.295908
11.993975
11.728491
11.496251
11.293806
11.118137
10.967505
10.838125
10.727535
10.633664
10.555399
10.490567
10.437067
10.392909
10.357186
10.329001
10.307165
10.290494
10.278575
10.270776
10.265672
10.26092
10.254291
10.242967
10.226787
10.205717
10.180862
10.155454
10.136409
10.130573
10.136013
10.156095
10.176644
10.189303
10.193328
10.192626
10.189924
10.183784
10.168112
10.136196
10.091566
10.05542
10.032153
10.01746
1526.6402
2515.7434
941.09294
580.19632
373.74855
283.13292
197.94146
161.00622
126.89282
105.8469
88.607015
75.436123
64.92927
56.499269
49.653996
44.019979
39.332233
35.410856
32.097244
29.280857
26.875352
24.807574
23.023647
21.47346
20.122645
18.935625
17.890622
16.968894
16.150766
15.423918
14.77683
14.201178
13.689142
13.234423
12.829973
12.470069
12.1512
11.869363
11.621689
11.405457
11.217333
11.054999
10.91537
10.79575
10.693757
10.607031
10.534566
10.474614
10.425255
10.384873
10.351649
10.325228
10.304765
10.289229
10.277732
10.269871
10.264451
10.259511
10.25296
10.242947
10.227957
10.207321
10.182405
10.157203
10.138613
10.133148
10.140653
10.159145
10.177055
10.186995
10.189139
10.187221
10.183708
10.17626
10.158178
10.123928
10.083342
10.052006
10.031797
10.018054
1546.4509
2512.3735
911.83499
569.82076
362.47008
277.12971
193.30265
157.14866
124.14664
103.09827
86.165352
73.179925
62.875293
54.628119
47.954386
42.477894
37.933516
34.135086
30.939669
28.232275
25.926214
23.948392
22.247501
20.772972
19.492213
18.370095
17.384027
16.514308
15.745896
15.064742
14.458982
13.920892
13.442901
13.018792
12.642565
12.307888
12.011735
11.750118
11.520102
11.319671
11.145222
10.994772
10.865925
10.755706
10.662014
10.582765
10.515863
10.460445
10.414707
10.377479
10.346926
10.322082
10.302656
10.287822
10.276569
10.26816
10.261902
10.256453
10.249954
10.241091
10.22764
10.20821
10.18405
10.15977
10.142263
10.137277
10.144991
10.160458
10.17531
10.182941
10.183494
10.180647
10.176275
10.167215
10.146567
10.110925
10.07548
10.048521
10.031097
10.018183
1565.8416
2470.12
880.01418
558.86578
350.91654
270.71686
188.43407
152.86052
120.96071
99.971209
83.379475
70.641213
60.583742
52.55865
46.086885
40.787872
36.409857
32.764626
29.70751
27.124333
24.931705
23.055285
21.446611
20.055572
18.84847
17.796053
16.87366
16.061833
15.34527
14.711656
14.148457
13.648498
13.204545
12.810875
12.462502
12.152801
11.879008
11.637409
11.424728
11.239657
11.078563
10.939472
10.820723
10.719304
10.633076
10.560293
10.499169
10.447979
10.405468
10.370938
10.342559
10.319365
10.300654
10.28611
10.274646
10.26553
10.258296
10.252222
10.245482
10.237218
10.225365
10.208087
10.186049
10.16364
10.14747
10.142063
10.147421
10.15978
10.171642
10.177174
10.176441
10.17277
10.167346
10.156324
10.133171
10.098879
10.068173
10.044552
10.029458
10.017844
1584.692
2430.6879
847.86484
547.28555
339.0928
263.3475
183.40701
148.03941
117.22268
96.407864
80.214785
67.796247
58.039578
50.282807
44.039225
38.961449
34.782485
31.314593
28.417056
25.975216
23.909295
22.145404
20.634077
19.333669
18.208443
17.229384
16.373128
15.620638
14.956704
14.370817
13.850331
13.388382
12.97819
12.614129
12.291406
12.005884
11.753575
11.531367
11.336389
11.165911
11.01762
10.8892
10.779732
10.6865
10.607186
10.540153
10.483815
10.43669
10.39741
10.365155
10.338569
10.316592
10.298509
10.283895
10.272014
10.262188
10.254066
10.247256
10.239938
10.231742
10.221358
10.207039
10.188522
10.168699
10.153175
10.146202
10.148123
10.157192
10.16628
10.169896
10.16802
10.163503
10.156783
10.143444
10.118254
10.08776
10.060558
10.039263
10.026019
10.016444
1602.5322
2390.9222
814.80938
534.73312
326.89995
254.7851
178.02523
142.57086
112.82563
92.347676
76.63838
64.624576
55.224315
47.786188
41.836349
37.020616
33.074913
29.810909
27.093137
24.808688
22.877538
21.236158
19.832939
18.627284
17.586168
16.68207
15.892571
15.199583
14.587713
14.047025
13.568173
13.14303
12.765436
12.430311
12.13332
11.870529
11.638396
11.433892
11.254438
11.097718
10.961624
10.844066
10.743054
10.657232
10.584205
10.522395
10.47033
10.426685
10.390251
10.35992
10.33476
10.313703
10.296017
10.281133
10.268755
10.258249
10.249375
10.241751
10.233802
10.225391
10.216101
10.204733
10.19027
10.173453
10.157805
10.148389
10.147627
10.153212
10.15947
10.161283
10.158327
10.152866
10.144491
10.128596
10.103651
10.076326
10.051519
10.032096
10.020683
10.013294
1618.661
2321.823
780.06394
520.6758
313.58818
244.88379
171.97277
136.31682
107.67062
87.732365
72.624718
61.106913
52.154902
45.115861
39.513875
35.003399
31.324547
28.287981
25.76308
23.649333
21.866823
20.353637
19.061525
17.952354
16.995449
16.165368
15.44079
14.804018
14.243167
13.747283
13.307899
12.917643
12.57071
12.26244
11.989069
11.747286
11.533878
11.3459
11.180932
11.036699
10.911309
10.803092
10.710572
10.631328
10.5639
10.506726
10.458405
10.41769
10.383475
10.355035
10.330937
10.310487
10.292981
10.277906
10.265008
10.253836
10.244213
10.23585
10.227439
10.218668
10.209764
10.200205
10.188968
10.175281
10.160428
10.14957
10.14606
10.148138
10.151379
10.151455
10.147514
10.140919
10.130417
10.112521
10.088887
10.063461
10.040497
10.023348
10.014314
10.009621
1632.008
2252.6125
742.71279
504.57527
299.46999
233.45169
164.77879
129.11098
101.68128
82.531682
68.167418
57.283215
48.892017
42.329757
37.130461
32.961995
29.577067
26.782452
24.467137
22.53142
20.90096
19.517892
18.336928
17.322665
16.447185
15.687751
15.023765
14.441706
13.92849
13.474097
13.071333
12.713388
12.3949
12.111487
11.85969
11.63678
11.440265
11.267165
11.115356
10.982624
10.867064
10.767647
10.681933
10.608565
10.546015
10.492888
10.447843
10.409719
10.377509
10.350307
10.327049
10.307016
10.289591
10.274308
10.260899
10.249078
10.238739
10.229713
10.221001
10.211836
10.202681
10.193476
10.1838
10.172894
10.160789
10.150037
10.143761
10.141882
10.141895
10.140311
10.135486
10.127405
10.11459
10.096141
10.073174
10.049132
10.028349
10.014238
10.008074
10.006091
1639.7425
2168.2532
702.54786
484.71834
284.30489
220.15887
155.96861
120.81508
94.856431
76.79169
63.34886
53.260025
45.53129
39.51345
34.759642
30.957342
27.877801
25.340592
23.238345
21.481618
20.001573
18.745435
17.671857
16.748391
15.949469
15.254831
14.648116
14.115603
13.646183
13.229604
12.859941
12.531168
12.238442
11.977711
11.745601
11.539474
11.357926
11.197919
11.05764
10.935209
10.828769
10.736526
10.656981
10.588696
10.530323
10.480623
10.43838
10.402342
10.371884
10.345715
10.323093
10.303339
10.285935
10.270504
10.256639
10.244225
10.233204
10.2235
10.214526
10.20509
10.195605
10.186138
10.17676
10.167402
10.157794
10.147989
10.13985
10.134406
10.130867
10.127238
10.121368
10.111776
10.097739
10.078832
10.056495
10.034364
10.016591
10.005984
10.002648
10.003043
1636.6403
2064.7131
659.04773
458.77031
267.90754
204.65776
145.30076
111.45254
87.34553
70.638489
58.353331
49.183948
42.1917
36.762231
32.478838
29.053589
26.280333
23.999533
22.10624
20.522002
19.184963
18.048115
17.074669
16.235652
15.508103
14.873809
14.318236
13.829487
13.397712
13.014937
12.674573
12.371496
12.101414
11.860802
11.646669
11.456449
11.287929
11.139262
11.00867
10.894552
10.795378
10.70957
10.635372
10.571524
10.516713
10.46981
10.430033
10.395897
10.36656
10.341239
10.319157
10.299618
10.2823
10.266629
10.252397
10.239479
10.227881
10.217493
10.208101
10.198472
10.188781
10.179148
10.1696
10.160212
10.151038
10.14199
10.132952
10.125011
10.118352
10.112042
10.104534
10.093919
10.079103
10.060349
10.039649
10.020537
10.00647
9.999246
9.9981731
10.000602
1616.4429
1931.8549
612.43488
426.05284
250.27772
186.74128
132.99503
101.34708
79.496936
64.396377
53.401629
45.220715
38.997111
34.169886
30.360156
27.307336
24.828539
22.791594
21.094449
19.669788
18.463507
17.434593
16.551021
15.787448
15.123562
14.543032
14.032896
13.583151
13.185049
12.831568
12.516647
12.235757
11.985056
11.761404
11.562152
11.385028
11.228021
11.089317
10.967251
10.860275
10.767026
10.686619
10.616963
10.556908
10.505257
10.460904
10.42283
10.390087
10.361686
10.336949
10.315364
10.296089
10.278694
10.262848
10.24833
10.23507
10.222934
10.211945
10.201953
10.192102
10.1821
10.172187
10.162331
10.15249
10.142638
10.132839
10.123082
10.113097
10.103351
10.09393
10.084228
10.07282
10.058453
10.041494
10.02397
10.008872
9.9987355
9.9943855
9.9948215
9.998568
1570.1836
1769.128
563.88428
387.34275
232.41492
166.69133
119.73586
91.121837
71.768107
58.390664
48.719823
41.531784
36.065457
31.821893
28.465331
25.765763
23.562658
21.742018
20.221109
18.938049
17.846741
16.911867
16.105943
15.407211
14.798149
14.264309
13.793075
13.376407
13.006524
12.677923
12.384548
12.122434
11.888133
11.678825
11.492123
11.325973
11.178556
11.048228
10.933465
10.83284
10.745003
10.668669
10.602587
10.545383
10.496001
10.453382
10.416617
10.385061
10.357527
10.333374
10.311967
10.292786
10.275375
10.259376
10.244687
10.231041
10.218444
10.206899
10.196342
10.186219
10.175811
10.165448
10.155108
10.144715
10.134107
10.123102
10.111501
10.098892
10.085312
10.072154
10.060292
10.049126
10.037153
10.023983
10.011001
10.000409
9.993985
9.9920579
9.9929787
9.9974471
1489.4351
1602.4666
514.35758
347.46971
208.28456
147.2539
106.46907
81.4673
64.618672
52.938495
44.526057
38.274135
33.508552
29.794823
26.843145
24.456334
22.497086
20.867855
19.498144
18.33625
17.342558
16.486909
15.745675
15.100115
14.535131
14.038421
13.599858
13.211061
12.865229
12.55671
12.280816
12.033865
11.812763
11.614955
11.438271
11.280832
11.140961
11.017125
10.907886
10.811878
10.727814
10.654552
10.59133
10.53644
10.488945
10.447846
10.412244
10.381308
10.354276
10.330402
10.309125
10.289959
10.272607
10.256562
10.241641
10.227712
10.214719
10.202665
10.191545
10.181101
10.170282
10.159365
10.14835
10.137117
10.125409
10.112833
10.09887
10.082867
10.064868
10.047896
10.034689
10.025152
10.017198
10.009315
10.00179
9.9959536
9.9928205
9.9918031
9.9921085
9.9968557
1375.9281
1513.2441
467.84869
299.65315
184.27737
128.99001
94.46393
72.911618
58.427677
48.337209
41.040928
35.600774
31.431154
28.159655
25.540837
23.408411
21.646579
20.172523
18.924776
17.860591
16.945822
16.154452
15.465936
14.863845
14.334855
13.86808
13.454516
13.086755
12.758794
12.466119
12.203753
11.968481
11.757465
11.568379
11.399238
11.248321
11.114093
10.995146
10.890157
10.79786
10.717026
10.646441
10.584905
10.531414
10.484943
10.444565
10.409427
10.378789
10.35212
10.32847
10.307336
10.288218
10.270719
10.254533
10.239432
10.225277
10.211997
10.199567
10.187959
10.176997
10.165805
10.154254
10.142383
10.129992
10.116743
10.102083
10.08527
10.065531
10.043204
10.022952
10.009293
10.002408
9.9994724
9.997812
9.9965002
9.9956703
9.9947822
9.9927985
9.9918152
9.9961482
1241.3281
1264.471
427.33765
256.99318
161.93438
113.7477
84.522298
65.998273
53.531926
44.789352
38.419789
33.627221
29.919978
26.984981
24.615402
22.6705
21.051805
19.688735
18.529557
17.535538
16.677237
15.931731
15.280863
14.709967
14.206996
13.761935
13.36665
13.014314
12.699298
12.41696
12.163497
11.935741
11.731086
11.547345
11.38266
11.235414
11.104158
10.987561
10.884375
10.793425
10.713639
10.644249
10.583595
10.530774
10.484793
10.444754
10.409824
10.379243
10.352327
10.328466
10.307107
10.287775
10.270071
10.253676
10.238357
10.223958
10.210392
10.197621
10.185608
10.174194
10.162672
10.150468
10.137607
10.123787
10.108597
10.091423
10.071461
10.047977
10.021675
9.9986632
9.9850755
9.9814654
9.9842498
9.9893134
9.9942365
9.997728
9.9986839
9.9964083
9.9928706
9.9939158
1120.1575
1126.807
394.44824
225.98958
145.20919
102.52903
77.15513
60.96016
50.030304
42.298835
36.608642
32.286099
28.911376
26.216786
24.024246
22.211764
20.693394
19.407131
18.307278
17.359482
16.537409
15.820483
15.192333
14.639808
14.15264
13.720349
13.33559
12.99191
12.684016
12.407508
12.158763
11.934795
11.733131
11.55171
11.388774
11.242799
11.112416
10.996367
10.893463
10.802562
10.722556
10.652372
10.590982
10.537381
10.490623
10.449823
10.414164
10.382898
10.355349
10.330907
10.309031
10.289246
10.27115
10.254413
10.238783
10.224082
10.210198
10.197077
10.184679
10.172877
10.161116
10.148341
10.134503
10.119201
10.101966
10.082227
10.059291
10.032613
10.00337
9.9789343
9.9666631
9.965691
9.972653
9.9835235
9.9934052
9.9992593
10.000961
9.9983939
9.9939627
9.9933743
1064.5293
1083.9243
370.00734
208.7463
134.241
94.907197
71.658012
56.948889
47.040113
40.021218
34.839731
30.885615
27.785295
25.299527
23.269103
21.58457
20.168585
18.965184
17.933032
17.041011
16.265258
15.587113
14.991688
14.466861
14.002591
13.590472
13.223387
12.89535
12.601333
12.337151
12.099333
11.885018
11.691838
11.517822
11.361304
11.220844
11.095159
10.983076
10.883487
10.795331
10.717574
10.649208
10.589254
10.536768
10.490853
10.450665
10.415428
10.384429
10.357026
10.33264
10.310752
10.290906
10.272713
10.255852
10.240078
10.225216
10.211155
10.197823
10.185155
10.173021
10.161032
10.147926
10.133386
10.116975
10.098204
10.076646
10.051913
10.023859
9.994071
9.9706264
9.9617044
9.9603116
9.964893
9.9787575
9.9916874
9.9989511
10.000869
9.9979412
9.9946246
9.9930332
31670.628
79385.122
37634.402
11277.562
1512.3292
590.72222
419.93445
337.77904
279.13633
226.60114
185.3102
153.58938
130.14626
112.2955
98.412818
87.361519
78.227046
70.376663
63.566585
57.67547
52.563066
48.093663
44.160326
40.679551
37.588555
34.825416
32.346938
30.114987
28.099456
26.276416
24.625023
23.126588
21.765112
20.526804
19.40106
18.378644
17.451125
16.610971
15.851282
15.165939
14.54956
13.996514
13.501814
13.061053
12.669797
12.323723
12.018923
11.751425
11.51767
11.314324
11.138181
10.986281
10.85584
10.746896
10.656487
10.581594
10.518986
10.466861
10.425725
10.395355
10.375026
10.364081
10.359224
10.351826
10.338558
10.321703
10.305698
10.295919
10.302291
10.318043
10.329876
10.319925
10.277431
10.232706
10.169568
10.212186
10.089592
10.194557
10.048056
10.154973
20421.344
59006.624
24691.684
5212.6631
939.4888
509.89574
384.36604
308.63737
253.36009
203.72293
168.25254
140.50737
120.50743
104.81358
92.531144
82.619635
74.28324
67.025509
60.726846
55.273976
50.521749
46.348103
42.661285
39.388161
36.469261
33.853845
31.502464
29.379508
27.458476
25.717752
24.138004
22.701942
21.394937
20.204377
19.120797
18.135578
17.240855
16.429617
15.695403
15.032525
14.435926
13.900179
13.420628
12.993108
12.613339
12.277186
11.980919
11.720705
11.493152
11.295051
11.123316
10.975099
10.847676
10.740586
10.651554
10.577664
10.516534
10.466029
10.425748
10.3954
10.374267
10.36179
10.354673
10.344957
10.330666
10.314036
10.29973
10.293627
10.302701
10.31882
10.325976
10.313483
10.26629
10.225336
10.169098
10.212329
10.095481
10.19702
10.051026
10.158481
29622.936
34088.507
13191.84
2541.2004
813.3477
481.09599
374.18289
292.98266
240.51648
192.55471
161.12603
134.55179
116.23451
101.15953
89.572907
80.126914
72.128781
65.139441
59.097002
53.86336
49.293149
45.274254
41.720808
38.56283
35.741789
33.212609
30.937083
28.88056
27.01847
25.330006
23.796482
22.401317
21.130606
19.972325
18.917645
17.958198
17.086448
16.295675
15.579666
14.932989
14.350771
13.827694
13.359327
12.941648
12.570471
12.241783
11.951978
11.69731
11.474508
11.280447
11.112128
10.966788
10.841799
10.735953
10.647826
10.574596
10.514144
10.46474
10.424862
10.394108
10.371758
10.357601
10.348778
10.337793
10.32285
10.306945
10.29463
10.292869
10.303582
10.31892
10.320694
10.303836
10.25617
10.218897
10.169033
10.212206
10.100131
10.198755
10.053694
10.160166
37618.446
23538.646
8189.9947
1496.1939
728.52018
457.99882
361.9196
276.77974
230.09641
182.32896
154.74142
128.74387
112.24202
97.621422
86.794031
77.765312
70.089333
63.35624
57.557516
52.527316
48.126976
44.252976
40.82415
37.773683
35.046231
32.596206
30.391416
28.397364
26.590941
24.951964
23.462372
22.106235
20.870304
19.743087
18.716339
17.781884
16.932499
16.16172
15.463557
14.832816
14.264784
13.754239
13.296974
12.889089
12.526485
12.205268
11.921948
11.672861
11.454856
11.26489
11.100046
10.957644
10.835184
10.730794
10.643609
10.571066
10.511024
10.461809
10.422091
10.390764
10.367216
10.352324
10.342436
10.330286
10.315133
10.300342
10.290247
10.292358
10.304475
10.318726
10.315449
10.291915
10.246588
10.213135
10.169558
10.212163
10.104817
10.200014
10.056257
10.160991
42074.035
20732.772
5772.9106
1173.9855
697.22514
440.99179
352.66039
264.29179
222.77055
174.52939
150.33551
124.22866
109.31957
94.797175
84.627018
75.860307
68.429248
61.892959
56.28617
51.413349
47.146335
43.387457
40.058557
37.095044
34.443484
32.060829
29.912996
27.971178
26.211714
24.61478
23.162787
21.8403
20.634583
19.534541
18.532402
17.62008
16.790621
16.037755
15.355666
14.739352
14.184221
13.685124
13.238052
12.839198
12.484532
12.170262
11.892999
11.649147
11.435663
11.249573
11.088037
10.948456
10.828396
10.725591
10.63926
10.567332
10.507697
10.458577
10.418551
10.386603
10.362195
10.346481
10.335531
10.322593
10.307677
10.294315
10.286675
10.291618
10.305015
10.318194
10.31145
10.279679
10.237308
10.208063
10.17122
10.212159
10.109594
10.200868
10.058719
10.161089
44843.698
19403.615
4386.3983
1104.2778
678.83001
422.92373
345.56824
254.66475
217.39092
168.41509
146.94495
120.45143
106.96155
92.376694
82.814392
74.218099
66.994471
60.623065
55.17717
50.435059
46.280488
42.619342
39.3757
36.486764
33.900781
31.576017
29.478446
27.582379
25.8642
24.304468
22.885925
21.59354
20.414998
19.339527
18.359751
17.467622
16.656434
15.920062
15.252836
14.649922
14.106818
13.618436
13.18095
12.790619
12.443473
12.135812
11.864334
11.625504
11.416378
11.234043
11.075737
10.938952
10.821181
10.720172
10.634661
10.563289
10.503961
10.45486
10.414495
10.381798
10.356392
10.339928
10.328221
10.314874
10.300586
10.28892
10.284074
10.291112
10.304966
10.315581
10.306492
10.26782
10.228357
10.203543
10.172546
10.212193
10.114557
10.201423
10.06112
10.160641
46953.048
17289.883
3477.3644
1056.9788
665.50087
410.83011
339.97013
247.15663
213.26271
163.6454
144.2989
117.33728
105.04193
90.319104
81.297505
72.80226
65.754085
59.520702
54.208491
49.574935
45.515047
41.936731
38.765766
35.940785
33.411355
31.136928
29.084677
27.227559
25.545535
24.018704
22.629923
21.364469
20.210368
19.157104
18.197641
17.323924
16.529474
15.808273
15.154779
14.564297
14.032394
13.55403
13.125548
12.743254
12.403226
12.101849
11.835895
11.601882
11.396959
11.218275
11.063166
10.929018
10.813492
10.714378
10.629791
10.558896
10.49977
10.450555
10.40971
10.37618
10.349827
10.332813
10.320635
10.307248
10.293911
10.28412
10.282721
10.290951
10.304331
10.310746
10.299438
10.256426
10.219956
10.199484
10.173024
10.212262
10.119866
10.201755
10.063401
10.159721
48482.879
14556.604
2905.4903
1030.8345
655.47779
401.21046
335.18931