/*--------------------------------*- C++ -*----------------------------------*\
  =========                 |
  \\      /  F ield         | OpenFOAM: The Open Source CFD Toolbox
   \\    /   O peration     | Website:  https://openfoam.org
    \\  /    A nd           | Version:  12
     \\/     M anipulation  |
\*---------------------------------------------------------------------------*/
FoamFile
{
    format      ascii;
    class       volScalarField;
    location    "0.03";
    object      p;
}
// * * * * * * * * * * * * * * * * * * * * * * * * * * * * * * * * * * * * * //

dimensions      [1 -1 -2 0 0 0 0];

internalField   nonuniform List<scalar> 
16000
(
89383.923
89506.689
89518.796
89649.157
89676.418
89798.979
89849.697
89962.373
90035.687
90143.011
90233.681
90341.378
90445.195
90557.433
90671.692
90791.139
90914.534
91042.423
91174.692
91311.417
91452.603
91598.248
91748.328
91902.797
92061.584
92224.589
92391.687
92562.72
92737.5
92915.806
93097.388
93281.959
93469.206
93658.785
93850.323
94043.426
94237.678
94432.648
94627.896
94822.977
95017.453
95210.893
95402.889
95593.055
95781.039
95966.535
96149.284
96329.071
96505.75
96679.229
96849.459
97016.443
97180.263
97341.015
97498.821
97653.813
97806.126
97955.892
98103.218
98248.18
98390.819
98531.123
98669.025
98804.322
98936.535
99065.191
99190.076
99309.804
99423.123
99529.112
99627.573
99719.189
99803.331
99873.805
99943.877
99946.849
100066.79
99945.877
100146.42
99972.394
88995.013
89134.276
89143.758
89285.831
89314.352
89447.537
89500.894
89624.011
89701.131
89818.127
89914.842
90031.161
90142.888
90263.635
90386.741
90515.277
90648.141
90785.787
90928.135
91075.232
91227.072
91383.63
91544.856
91710.672
91880.971
92055.615
92234.434
92417.223
92603.744
92793.725
92986.859
93182.806
93381.195
93581.625
93783.669
93986.88
94190.791
94394.93
94598.817
94801.98
95003.957
95204.307
95402.617
95598.509
95791.648
95981.749
96168.582
96351.977
96531.826
96708.072
96880.72
97049.827
97215.496
97377.863
97537.083
97693.316
97846.722
97997.441
98145.59
98291.261
98434.505
98575.328
98713.67
98849.312
98981.931
99111.422
99236.495
99356.988
99471.516
99578.863
99678.031
99768.91
99851.208
99923.189
99982.518
100021.88
100074.51
100035.38
100138.29
100060.77
88636.217
88790.467
88799.865
88954.447
88983.055
89129.25
89184.167
89319.015
89400.805
89527.788
89631.972
89757.446
89878.326
90008.533
90141.633
90280.397
90423.908
90572.507
90726.126
90884.779
91048.429
91217.019
91390.461
91568.637
91751.394
91938.547
92129.873
92325.113
92523.97
92726.109
92931.159
93138.715
93348.34
93559.567
93771.906
93984.853
94197.888
94410.494
94622.154
94832.37
95040.665
95246.592
95449.748
95649.773
95846.365
96039.279
96228.336
96413.419
96594.477
96771.52
96944.616
97113.886
97279.49
97441.615
97600.467
97756.25
97909.152
98059.338
98206.944
98352.069
98494.767
98635.037
98772.786
98907.807
99040.028
99169.086
99293.1
99413.016
99527.45
99635.079
99734.521
99825
99905.963
99976.062
100033.65
100082.71
100112.47
100107.77
100154.75
100141.38
88310.308
88474.485
88485.379
88654.361
88682.697
88844.443
88901.56
89050.063
89137.512
89276.012
89389.084
89525.073
89656.668
89797.774
89942.363
90092.814
90248.392
90409.324
90575.547
90747.035
90923.721
91105.512
91292.279
91483.859
91680.048
91880.604
92085.243
92293.637
92505.417
92720.172
92937.454
93156.777
93377.624
93599.455
93821.708
94043.815
94265.203
94485.309
94703.585
94919.513
95132.611
95342.444
95548.629
95750.847
95948.845
96142.438
96331.516
96516.038
96696.033
96871.592
97042.866
97210.051
97373.384
97533.123
97689.534
97842.871
97993.368
98141.221
98286.593
98429.598
98570.296
98708.679
98844.638
98978.01
99108.583
99235.587
99358.825
99477.666
99591.203
99698.291
99797.548
99887.838
99967.896
100036.24
100093.75
100142.27
100166.67
100171.99
100188.13
100216.52
88020.051
88198.363
88207.532
88394.268
88421.501
88601.049
88660.458
88824.387
88918.744
89070.127
89193.815
89341.544
89485.4
89638.704
89796.082
89959.47
90128.319
90302.77
90482.759
90668.229
90859.08
91055.177
91256.341
91462.347
91672.925
91887.757
92106.475
92328.663
92553.86
92781.559
93011.213
93242.242
93474.038
93705.975
93937.417
94167.728
94396.286
94622.491
94845.775
95065.618
95281.551
95493.171
95700.144
95902.213
96099.198
96291.002
96477.607
96659.072
96835.526
97007.162
97174.228
97337.017
97495.853
97651.075
97803.017
97951.993
98098.282
98242.121
98383.699
98523.149
98660.536
98795.847
98928.97
99059.701
99187.634
99312.214
99433.881
99550.85
99662.73
99768.401
99866.649
99956.151
100035.14
100102.31
100159.57
100205.83
100229.27
100235.17
100233.28
100295.27
87772.418
87968.23
87973.851
88181.539
88207.603
88406.819
88468.536
88649.606
88752.173
88917.447
89053.167
89213.355
89370.515
89536.935
89708.1
89885.51
90068.781
90257.975
90453.007
90653.771
90860.11
91071.819
91288.64
91510.262
91736.316
91966.381
92199.978
92436.577
92675.597
92916.414
93158.369
93400.77
93642.909
93884.072
94123.548
94360.645
94594.7
94825.094
95051.264
95272.71
95489.009
95699.819
95904.885
96104.045
96297.224
96484.44
96665.794
96841.468
97011.713
97176.841
97337.215
97493.231
97645.312
97793.881
97939.344
98082.074
98222.399
98360.591
98496.865
98631.369
98764.172
98895.255
99024.496
99151.656
99276.35
99398.157
99516.877
99631.552
99741.331
99845.127
99941.819
100029.94
100107.57
100173.83
100230.47
100273.65
100298.9
100300.83
100287.97
100377.35
87568.154
87783.912
87786.866
88018.172
88043.493
88265.588
88330.738
88530.602
88641.547
88820.193
88968.773
89141.957
89313.623
89494.52
89681.013
89874.143
90073.607
90279.369
90491.279
90709.149
90932.73
91161.717
91395.74
91634.369
91877.107
92123.397
92372.621
92624.108
92877.137
93130.949
93384.753
93637.743
93889.112
94138.06
94383.817
94625.652
94862.889
95094.922
95321.223
95541.355
95754.977
95961.849
96161.837
96354.906
96541.126
96720.657
96893.748
97060.724
97221.977
97377.951
97529.132
97676.029
97819.161
97959.035
98096.126
98230.862
98363.609
98494.673
98624.288
98752.607
98879.695
99005.522
99129.948
99252.722
99373.466
99491.749
99607.152
99718.962
99826.196
99927.816
100022.6
100109
100185.13
100250.62
100306.27
100347.05
100372.67
100370.78
100350.28
100463.33
87402.632
87641.974
87641.075
87900.481
87923.375
88171.3
88239.665
88457.958
88579.945
88773.968
88938.658
89127.372
89316.313
89514.39
89718.83
89930.28
90148.468
90373.253
90604.4
90841.611
91084.519
91332.687
91585.6
91842.675
92103.253
92366.612
92631.965
92898.475
93165.261
93431.416
93696.018
93958.148
94216.91
94471.443
94720.943
94964.678
95202.001
95432.362
95655.322
95870.554
96077.85
96277.123
96468.4
96651.82
96827.625
96996.153
97157.819
97313.11
97462.569
97606.777
97746.344
97881.887
98014.018
98143.319
98270.324
98395.503
98519.256
98641.907
98763.698
98884.781
99005.205
99124.919
99243.764
99361.47
99477.665
99591.892
99703.599
99812.113
99916.5
100015.69
100108.44
100193.11
100267.91
100332.87
100387.62
100426.92
100451.71
100446.88
100422.02
100555.22
87273.66
87540.73
87535.474
87828.553
87846.574
88122.541
88195.682
88435.195
88573.129
88785.083
88969.478
89176.619
89385.869
89604.18
89829.535
90062.246
90302.008
90548.559
90801.533
91060.489
91324.9
91594.154
91867.553
92144.318
92423.593
92704.452
92985.915
93266.957
93546.528
93823.57
94097.039
94365.927
94629.277
94886.209
95135.936
95377.779
95611.179
95835.71
96051.083
96257.146
96453.884
96641.414
96819.972
96989.907
97151.667
97305.781
97452.849
97593.525
97728.498
97858.485
97984.207
98106.379
98225.692
98342.786
98458.24
98572.552
98686.14
98799.336
98912.379
99025.405
99138.441
99251.404
99364.112
99476.273
99587.486
99697.27
99805.048
99910.085
100011.47
100108.18
100198.95
100282.02
100355.91
100420.84
100475.22
100514.27
100538.94
100529.69
100504.77
100659.3
87181.287
87480.569
87471.275
87803.231
87818.503
88125.725
88209.542
88473.415
88630.602
88862.529
89070.234
89299.004
89531.845
89773.778
90023.334
90280.525
90544.944
90816.162
91093.64
91376.741
91664.727
91956.761
92251.908
92549.145
92847.378
93145.446
93442.15
93736.272
94026.595
94311.933
94591.15
94863.19
95127.099
95382.043
95627.324
95862.4
96086.886
96300.559
96503.358
96695.378
96876.858
97048.166
97209.79
97362.314
97506.404
97642.792
97772.256
97895.606
98013.667
98127.268
98237.226
98344.33
98449.326
98552.896
98655.639
98758.069
98860.604
98963.571
99067.195
99171.59
99276.747
99382.552
99488.797
99595.173
99701.252
99806.507
99910.317
100011.91
100110.4
100204.79
100293.76
100375.54
100449.09
100514.59
100569.61
100610.04
100633.28
100619.45
100600.91
100774.47
87132.874
87470.251
87457.226
87828.408
87847.261
88189.779
88288.434
88578.745
88760.802
89015.741
89250.995
89505.313
89765.47
90034.788
90312.14
90597.259
90889.572
91188.43
91493.052
91802.54
92115.872
92431.916
92749.441
93067.131
93383.612
93697.472
94007.29
94311.666
94609.25
94898.775
95179.081
95449.15
95708.12
95955.306
96190.214
96412.542
96622.181
96819.209
97003.873
97176.579
97337.87
97488.404
97628.932
97760.283
97883.335
97999.005
98108.229
98211.946
98311.088
98406.565
98499.259
98590.005
98679.578
98768.671
98857.891
98947.742
99038.633
99130.873
99224.662
99320.085
99417.1
99515.555
99615.214
99715.765
99816.769
99917.656
100017.74
100116.21
100212.18
100304.64
100392.16
100473.14
100546.99
100613.65
100669.73
100711.63
100733.12
100716.7
100710.9
100895.66
87137.91
87520.758
87503.681
87921.422
87945.502
88326.646
88444.273
88763.044
88975.392
89256.55
89523.594
89807.784
90099.343
90400.175
90709.261
91026.025
91349.627
91679.103
92013.334
92351.059
92690.887
93031.32
93370.77
93707.595
94040.126
94366.704
94685.716
94995.636
95295.057
95582.732
95857.599
96118.806
96365.73
96597.98
96815.399
97018.054
97206.219
97380.356
97541.09
97689.177
97825.487
97950.969
98066.63
98173.515
98272.685
98365.204
98452.123
98534.468
98613.236
98689.383
98763.815
98837.38
98910.851
98984.911
99060.147
99137.044
99215.987
99297.257
99381.026
99467.346
99556.147
99647.236
99740.347
99835.172
99931.297
100028.13
100124.91
100220.79
100314.85
100405.94
100492.57
100573.34
100648.09
100716.08
100772.03
100816.2
100836.18
100819.8
100833.54
101022.35
87198.313
87635.388
87614.991
88086.157
88118.128
88541.585
88685.283
89035.029
89284.525
89596.525
89900.384
90219.729
90547.596
90884.736
91230.006
91582.424
91940.744
92303.557
92669.284
93036.203
93402.474
93766.172
94125.326
94477.958
94822.131
95155.997
95477.842
95786.136
96079.571
96357.094
96617.929
96861.588
97087.868
97296.839
97488.826
97664.376
97824.23
97969.287
98100.567
98219.182
98326.304
98423.136
98510.895
98590.79
98664.008
98731.699
98794.976
98854.901
98912.485
98968.686
99024.399
99080.448
99137.574
99196.425
99257.552
99321.406
99388.34
99458.605
99532.344
99609.586
99690.236
99774.068
99860.774
99950.042
100041.51
100134.61
100228.54
100322.42
100415.2
100505.56
100591.88
100673
100748.91
100817.88
100874.35
100922.05
100938.91
100924.99
100963.69
101147.9
87318.198
87819.688
87796.453
88328.209
88374.414
88844.199
89023.024
89407.163
89701.409
90050.406
90397.042
90757.847
91127.805
91506.637
91892.808
92284.764
92680.69
93078.6
93476.346
93871.66
94262.199
94645.588
95019.484
95381.634
95729.935
96062.504
96377.726
96674.303
96951.28
97208.062
97444.407
97660.414
97856.49
98033.315
98191.795
98333.021
98458.22
98568.716
98665.891
98751.153
98825.909
98891.543
98949.403
99000.783
99046.922
99088.994
99128.107
99165.304
99201.567
99237.808
99274.875
99313.537
99354.479
99398.292
99445.476
99496.436
99551.486
99610.846
99674.636
99742.876
99815.467
99892.168
99972.636
100056.52
100143.51
100233.09
100324.46
100416.7
100508.64
100598.66
100685.02
100766.72
100843.51
100913.37
100971.11
101017.11
101040.28
101026.9
101089.41
101260.7
87504.32
88082.919
88058.598
88659.364
88726.73
89246.933
89471.732
89895.345
90243.131
90637.35
91034.1
91443.698
91862.121
92288.058
92719.331
93153.656
93588.513
94021.218
94448.964
94868.881
95278.108
95673.87
96053.57
96414.871
96755.774
97074.676
97370.413
97642.273
97889.998
98113.748
98314.068
98491.83
98648.178
98784.464
98902.191
99002.963
99088.432
99160.262
99220.097
99269.537
99310.119
99343.306
99370.48
99392.935
99411.884
99428.453
99443.693
99458.576
99474.009
99490.826
99509.794
99531.603
99556.864
99586.1
99619.746
99658.154
99701.591
99750.24
99804.202
99863.49
99928.007
99997.549
100071.81
100150.38
100232.93
100318.98
100407.72
100498.25
100589.25
100678.79
100765
100846.87
100923.48
100991.9
101050.01
101097.9
101119.76
101115.21
101193.21
101340.95
87763.012
88433.776
88411.138
89090.215
89189.537
89765.908
90050.958
90522.395
90934.103
91383.589
91838.622
92304.411
92777.121
93254.383
93733.175
94210.323
94682.44
95146.021
95597.532
96033.521
96450.74
96846.263
97217.595
97562.759
97880.34
98169.514
98430.031
98662.176
98866.706
99044.779
99197.869
99327.687
99436.105
99525.089
99596.637
99652.736
99695.322
99726.255
99747.299
99760.111
99766.235
99767.102
99764.033
99758.243
99750.847
99742.868
99735.249
99728.854
99724.48
99722.859
99724.654
99730.46
99740.803
99756.134
99776.823
99803.164
99835.371
99873.588
99917.893
99968.272
100024.61
100086.76
100154.54
100227.55
100305.41
100387.57
100473.2
100561.33
100650.54
100738.68
100823.73
100904.54
100979.53
101045.33
101100.63
101146.15
101169.32
101173.71
101259.05
101380.1
88101.303
88882.099
88866.32
89638.374
89786.366
90428.868
90791.065
91320.974
91807.103
92321.988
92842.84
93370.906
93901.872
94432.123
94957.496
95473.664
95976.198
96460.735
96923.155
97359.751
97767.384
98143.601
98486.699
98795.749
99070.567
99311.652
99520.089
99697.448
99845.668
99966.948
100063.65
100138.2
100193.06
100230.59
100253.1
100262.75
100261.59
100251.48
100234.15
100211.19
100184.04
100153.98
100122.22
100089.8
100057.71
100026.81
99997.918
99971.757
99949
99930.252
99916.065
99906.93
99903.286
99905.511
99913.917
99928.738
99950.137
99978.224
100013.05
100054.56
100102.63
100157.15
100218
100284.86
100357.32
100434.76
100516.3
100600.77
100686.59
100771.53
100853.5
100931
101001.75
101062.48
101113.04
101154.77
101178.32
101191.42
101279.5
101379.17
88537.662
89453.706
89456.251
90341.39
90555.511
91274.239
91730.587
92329.822
92899.705
93489.246
94082.129
94676.272
95266.057
95846.152
96410.874
96954.614
97472.051
97958.421
98409.734
98822.934
99195.985
99527.886
99818.613
100069.02
100280.69
100455.79
100596.9
100706.88
100788.75
100845.53
100880.24
100895.73
100894.75
100879.83
100853.3
100817.31
100773.78
100724.45
100670.87
100614.45
100556.41
100497.86
100439.79
100383.07
100328.5
100276.8
100228.6
100184.5
100145.02
100110.66
100081.83
100058.93
100042.32
100032.3
100029.12
100032.98
100043.98
100062.19
100087.64
100120.26
100159.97
100206.65
100260.1
100320.13
100386.27
100457.81
100533.86
100613
100693.31
100772.6
100848.83
100920.18
100983.95
101037.4
101081.77
101119.21
101143.28
101164.48
101253.94
101334.14
89104.416
90192.962
90224.569
91241.165
91539.467
92341.71
92910.349
93591.986
94254.908
94927.292
95595.623
96254.385
96895.853
97512.72
98097.974
98645.394
99149.848
99607.512
100015.98
100374.24
100682.6
100942.48
101156.21
101326.82
101457.78
101552.86
101615.9
101650.72
101661.02
101650.27
101621.71
101578.31
101522.75
101457.45
101384.55
101305.96
101223.35
101138.19
101051.78
100965.24
100879.57
100795.64
100714.2
100635.94
100561.46
100491.3
100425.96
100365.88
100311.46
100263.05
100220.98
100185.54
100157
100135.6
100121.55
100114.99
100115.99
100124.6
100140.8
100164.55
100195.78
100234.32
100279.96
100332.52
100391.48
100455.91
100524.88
100596.83
100669.42
100740.52
100808.23
100870.58
100924.89
100969.67
101007.57
101041.14
101066.39
101096.96
101186.71
101247.25
89831.886
91128.527
91203.319
92367.385
92783.724
93681.42
94383.412
95163.581
95926.862
96684.247
97421.719
98130.303
98800.407
99423.797
99993.778
100505.55
100956.3
101345.16
101673.02
101942.19
102156.15
102319.14
102435.89
102511.36
102550.51
102558.16
102538.84
102496.77
102435.78
102359.33
102270.48
102171.94
102066.08
101954.97
101840.39
101723.89
101606.79
101490.23
101375.19
101262.51
101152.91
101047.03
100945.4
100848.51
100756.78
100670.59
100590.3
100516.2
100448.58
100387.68
100333.72
100286.92
100247.48
100215.57
100191.35
100174.92
100166.35
100165.65
100172.82
100187.81
100210.53
100240.81
100278.45
100323.07
100374.05
100430.41
100490.93
100553.88
100616.86
100677.72
100734.78
100786.09
100829.66
100865.67
100898.01
100929.29
100957.82
100999.05
101089.9
101137.16
90747.079
92303.685
92456.541
93786.929
94365.049
95373.966
96225.952
97114.739
97972.979
98798.869
99576.931
100296.49
100948.59
101527.18
102029.06
102453.75
102803.14
103080.98
103292.42
103443.47
103540.61
103590.41
103599.28
103573.28
103518.01
103438.53
103339.38
103224.54
103097.49
102961.25
102818.38
102671.12
102521.32
102370.58
102220.24
102071.43
101925.08
101782
101642.84
101508.16
101378.44
101254.07
101135.41
101022.73
100916.33
100816.43
100723.26
100637
100557.82
100485.88
100421.32
100364.29
100314.92
100273.34
100239.67
100213.96
100196.28
100186.64
100185.05
100191.5
100205.91
100228.08
100257.61
100294.02
100336.61
100384.28
100435.5
100488.32
100540.45
100589.97
100635.41
100675.14
100708.47
100737.42
100766.62
100798.43
100833.17
100886.68
100981.13
101023.59
91931.169
93816.297
94090.915
95608.154
96394.31
97522.977
98520.489
99503.151
100420.68
101264.7
102021.84
102684.59
103249.39
103716.62
104089.85
104375.11
104580.05
104713.26
104783.64
104799.94
104770.45
104702.8
104603.88
104479.75
104335.7
104176.31
104005.46
103826.45
103642.06
103454.6
103266.01
103077.87
102891.52
102708.02
102528.26
102352.95
102182.69
102017.93
101859.05
101706.37
101560.13
101420.53
101287.75
101161.93
101043.22
100931.73
100827.56
100730.82
100641.57
100559.91
100485.93
100419.71
100361.34
100310.93
100268.53
100234.22
100208.03
100190
100180.15
100178.46
100184.84
100199.07
100220.72
100249.15
100283.37
100322.07
100363.59
100405.95
100446.95
100485.17
100519.43
100548.71
100574.01
100598.85
100627.91
100663.2
100706.72
100773.46
100873.55
100917.52
93513.262
95804.299
96254.116
97956.822
98985.559
100219.94
101312.53
102324.67
103219.62
103991.29
104635.55
105154.48
105554.49
105845.17
106038.03
106145.39
106179.57
106152.27
106074.24
105955.08
105803.18
105625.77
105428.96
105217.91
104996.91
104769.48
104538.54
104306.46
104075.16
103846.2
103620.81
103400
103184.54
102975.04
102771.97
102575.69
102386.47
102204.5
102029.92
101862.83
101703.29
101551.36
101407.07
101270.44
101141.49
101020.26
100906.77
100801.01
100703.03
100612.84
100530.5
100456.06
100389.59
100331.15
100280.8
100238.61
100204.63
100178.92
100161.52
100152.38
100151.38
100158.21
100172.38
100193.14
100219.3
100249.3
100281.36
100313.46
100344.08
100372.03
100396.67
100417.9
100438.34
100462.19
100493.64
100534.25
100587.32
100666.26
100772
100821.07
95679.815
98426.081
99112.233
100953.19
102188.38
103469.26
104543.67
105461.25
106209.3
106793.46
107224.47
107517.73
107690.67
107761.23
107746.61
107662.59
107523.1
107340.17
107124
106883.05
106624.31
106353.47
106075.13
105792.98
105509.98
105228.44
104950.22
104676.74
104409.11
104148.17
103894.56
103648.74
103411.03
103181.65
102960.74
102748.37
102544.54
102349.25
102162.43
101984.03
101813.98
101652.19
101498.59
101353.13
101215.75
101086.38
100964.99
100851.53
100745.98
100648.34
100558.63
100476.89
100403.18
100337.53
100280.04
100230.77
100189.81
100157.24
100133.1
100117.35
100109.79
100110.06
100117.51
100131.24
100149.9
100171.77
100194.99
100217.97
100239.5
100258.82
100275.94
100291.92
100310.51
100335.57
100370.37
100416.09
100477.1
100565.07
100675.31
100733.08
98678.412
101794.21
102782.41
104688.13
105964.52
107103.16
107996.78
108669.66
109139.03
109430.91
109572.54
109590.72
109509.91
109351.53
109133.72
108871.5
108577.08
108260.23
107928.73
107588.67
107244.84
106900.91
106559.73
106223.46
105893.74
105571.76
105258.43
104954.36
104659.97
104375.54
104101.19
103836.99
103582.91
103338.85
103104.71
102880.33
102665.53
102460.14
102263.97
102076.84
101898.56
101728.97
101567.94
101415.31
101270.98
101134.84
101006.79
100886.76
100774.71
100670.6
100574.45
100486.29
100406.17
100334.17
100270.37
100214.87
100167.8
100129.25
100099.28
100077.81
100064.6
100059.16
100060.74
100068.26
100080.28
100094.98
100110.68
100126.23
100140.12
100152.23
100163.74
100177.02
100195.56
100222.37
100259.28
100307.37
100372.95
100466.06
100580.89
100648.12
102764.8
106090.8
107277.95
108928.89
110027.48
110838.03
111359.3
111644.74
111737.86
111680.71
111508.84
111251.75
110933.07
110571.37
110181.03
109773.02
109355.68
108935.25
108516.41
108102.57
107696.27
107299.29
106912.91
106537.98
106175.06
105824.46
105486.32
105160.65
104847.36
104546.3
104257.24
103979.93
103714.09
103459.43
103215.64
102982.41
102759.45
102546.45
102343.14
102149.23
101964.5
101788.7
101621.65
101463.15
101313.05
101171.21
101037.5
100911.82
100794.12
100684.38
100582.59
100488.81
100403.08
100325.51
100256.21
100195.32
100143
100099.36
100064.45
100038.17
100020.21
100010
100006.67
100009
100015.48
100024.36
100033.88
100042.77
100050.38
100057.18
100064.77
100076.35
100095.08
100122.6
100158.4
100204.3
100270.28
100365.55
100484.71
100562.68
107870.58
111161.2
112254.61
113356.13
113953.83
114231.62
114252.41
114087.85
113790.73
113402.43
112953.71
112467.22
111959.4
111442.07
110923.63
110410.03
109905.38
109412.52
108933.33
108468.98
108020.19
107587.3
107170.39
106769.38
106384.04
106014.06
105659.06
105318.63
104992.33
104679.72
104380.33
104093.71
103819.42
103557.02
103306.09
103066.2
102836.99
102618.06
102409.08
102209.73
102019.71
101838.75
101666.62
101503.11
101348.03
101201.21
101062.53
100931.88
100809.19
100694.45
100587.67
100488.91
100398.26
100315.82
100241.74
100176.23
100119.44
100071.52
100032.51
100002.28
99980.48
99966.453
99959.202
99957.368
99959.312
99963.264
99967.593
99971.217
99973.949
99976.707
99981.649
99991.878
100009.82
100035.21
100065.8
100104.88
100167.05
100265.94
100389.8
100477.71
113946.06
116402.8
117000.09
117275.63
117184.34
116863.97
116392.01
115827.61
115210.38
114567.16
113915.76
113267.91
112631.17
112010.37
111408.43
110827.03
110267
109728.59
109211.69
108715.93
108240.78
107785.63
107349.79
106932.55
106533.21
106151.05
105785.38
105435.53
105100.84
104780.68
104474.46
104181.59
103901.53
103633.76
103377.78
103133.11
102899.32
102675.99
102462.74
102259.2
102065.07
101880.05
101703.88
101536.33
101377.22
101226.35
101083.59
100948.85
100822.05
100703.19
100592.3
100489.45
100394.73
100308.3
100230.34
100161.05
100100.65
100049.28
100007
99973.636
99948.797
99931.75
99921.393
99916.273
99914.693
99914.89
99915.304
99915.013
99914.182
99914.057
99916.809
99925.315
99941.164
99962.115
99984.996
100014.23
100068.67
100170.65
100303.54
100399.19
120422.63
120854.74
120642.82
120107.67
119394.45
118590.98
117752.02
116908.58
116078.73
115272.43
114494.97
113748.81
113034.74
112352.55
111701.48
111080.42
110488.12
109923.26
109384.5
108870.56
108380.17
107912.14
107465.35
107038.73
106631.27
106242.05
105870.18
105514.83
105175.23
104850.65
104540.4
104243.84
103960.35
103689.37
103430.35
103182.79
102946.21
102720.17
102504.27
102298.12
102101.39
101913.77
101734.99
101564.81
101403.02
101249.44
101103.92
100966.35
100836.68
100714.9
100601.04
100495.17
100397.41
100307.93
100226.92
100154.63
100091.28
100037.06
99992.032
99956.066
99928.761
99909.369
99896.716
99889.208
99885.016
99882.423
99880.075
99877.09
99873.525
99871.09
99872.298
99878.802
99891.523
99907.417
99921.476
99941.768
99990.175
100091.92
100231.7
100336.09
124207.66
123597.65
122704.63
121678.06
120619.94
119573.27
118560.18
117589.74
116665.3
115787.1
114953.87
114163.6
113413.97
112702.61
112027.17
111385.42
110775.26
110194.76
109642.1
109115.64
108613.85
108135.32
107678.77
107242.99
106826.9
106429.46
106049.74
105686.85
105339.98
105008.37
104691.29
104388.09
104098.13
103820.82
103555.6
103301.96
103059.41
102827.5
102605.8
102393.93
102191.54
101998.32
101813.98
101638.29
101471.03
101312
101161.07
101018.12
100883.1
100756.01
100636.88
100525.8
100422.91
100328.4
100242.5
100165.49
100097.66
100039.25
99990.382
99950.978
99920.674
99898.715
99883.841
99874.267
99868.045
99863.671
99859.941
99854.869
99847.61
99844.665
99848.486
99851.287
99858.819
99874.454
99880.029
99896.051
99940.546
100043.71
100188.46
100298.6
103593.68
103568.25
103619.23
103669.39
103708.77
103722.91
103709.03
103681.95
103648.1
103604.68
103547.75
103477.73
103397.3
103312.03
103222.66
103129.49
103032.68
102932.79
102830.26
102725.48
102618.86
102510.74
102401.46
102291.34
102180.67
102069.7
101958.67
101847.83
101737.36
101627.48
101518.35
101410.15
101303.04
101197.17
101092.68
100989.7
100888.36
100788.79
100691.09
100595.37
100501.74
100410.29
100321.09
100234.24
100149.79
100067.8
99988.319
99911.365
99836.958
99765.105
99695.819
99629.124
99565.078
99503.784
99445.411
99390.217
99338.56
99290.899
99247.779
99209.815
99177.745
99152.054
99134.294
99125.517
99128.469
99140.197
99171.204
99197.088
99251.872
99268.933
99344.552
99337.606
99460.376
99432.951
99590.467
99529.677
99745.29
99501.283
99893.202
99424.446
102992.93
102987.83
103003.48
103019.93
103016.96
103007.08
102995.32
102977.6
102948.33
102913.14
102870.31
102822.42
102768.15
102709.26
102645.19
102577.14
102505.02
102429.38
102350.46
102268.61
102184.13
102097.31
102008.46
101917.84
101825.73
101732.38
101638.07
101543.02
101447.49
101351.69
101255.86
101160.19
101064.91
100970.19
100876.23
100783.22
100691.31
100600.67
100511.47
100423.84
100337.92
100253.84
100171.71
100091.66
100013.76
99938.1
99864.74
99793.727
99725.095
99658.87
99595.085
99533.789
99475.059
99419.023
99365.874
99315.897
99269.477
99227.092
99189.301
99156.706
99129.939
99109.762
99097.674
99093.706
99101.045
99118.222
99153.185
99184.674
99243.726
99264.298
99342.389
99334.824
99463.272
99431.119
99603.01
99525.233
99755.458
99500.575
99899.234
99431.296
102610.72
102594.18
102561.26
102526.33
102495.89
102467.58
102431.97
102397.23
102358.89
102320.58
102277.84
102234.39
102186.83
102137.82
102085.31
102030.71
101973.19
101913.29
101850.85
101786.05
101718.97
101649.75
101578.51
101505.42
101430.62
101354.29
101276.6
101197.73
101117.88
101037.24
100956
100874.37
100792.54
100710.71
100629.08
100547.83
100467.17
100387.27
100308.32
100230.48
100153.92
100078.79
100005.25
99933.434
99863.45
99795.404
99729.38
99665.447
99603.661
99544.072
99486.738
99431.73
99379.152
99329.154
99281.955
99237.868
99197.306
99160.77
99128.831
99102.067
99081.059
99066.832
99060.068
99061.395
99073.924
99095.878
99134.807
99172.004
99236.144
99260.166
99340.029
99333.021
99462.911
99430.844
99614.013
99521.519
99763.458
99501.075
99904.412
99438.898
102016.13
101991.61
101958.68
101923.01
101888.27
101856.89
101821.42
101789.18
101752.39
101718.31
101680.09
101643.59
101603.49
101563.96
101521.59
101478.62
101433.49
101386.97
101338.6
101288.52
101236.66
101183.03
101127.67
101070.6
101011.88
100951.6
100889.84
100826.73
100762.38
100696.94
100630.56
100563.39
100495.62
100427.41
100358.94
100290.4
100221.98
100153.87
100086.24
100019.3
99953.201
99888.136
99824.264
99761.74
99700.698
99641.261
99583.53
99527.594
99473.533
99421.422
99371.341
99323.386
99277.683
99234.403
99193.793
99156.193
99122.043
99091.868
99066.251
99045.786
99031.06
99022.798
99021.811
99028.882
99046.47
99073.628
99116.645
99159.262
99227.893
99256.46
99338.364
99332.504
99464.18
99431.834
99623.598
99518.852
99770.18
99502.626
99908.695
99447.32
101261.12
101244.89
101227.53
101207.24
101185.4
101167.7
101144.01
101125.09
101100.12
101079.27
101052.98
101029.74
101001.95
100975.82
100946.42
100917.15
100885.69
100853.24
100819.07
100783.44
100746.21
100707.37
100666.91
100624.85
100581.19
100535.98
100489.27
100441.13
100391.63
100340.88
100288.99
100236.07
100182.27
100127.72
100072.6
100017.05
99961.265
99905.406
99849.661
99794.212
99739.242
99684.931
99631.451
99578.961
99527.609
99477.525
99428.828
99381.622
99336.008
99292.081
99249.941
99209.702
99171.508
99135.55
99102.099
99071.522
99044.285
99020.935
99002.065
98988.283
98980.163
98978.307
98983.406
98996.3
99019.08
99051.122
99098.307
99146.16
99218.11
99252.701
99338.208
99333.41
99466.562
99432.023
99631.527
99517.713
99777.344
99505.251
99913.515
99456.591
100523.07
100517.7
100512.85
100507.23
100497.94
100493.47
100481.62
100476
100462.69
100454.94
100440.34
100430.01
100413.97
100400.58
100383.31
100366.74
100347.75
100328.08
100306.71
100284.05
100259.93
100234.36
100207.31
100178.77
100148.76
100117.28
100084.35
100050
100014.3
99977.291
99939.059
99899.692
99859.29
99817.972
99775.865
99733.111
99689.862
99646.278
99602.528
99558.785
99515.224
99472.018
99429.333
99387.328
99346.148
99305.931
99266.801
99228.878
99192.271
99157.092
99123.452
99091.479
99061.326
99033.206
99007.409
98984.322
98964.435
98948.316
98936.578
98929.826
98928.632
98933.491
98944.993
98963.873
98991.815
99028.841
99079.867
99132.836
99207.841
99248.776
99338.793
99335.583
99467.677
99431.687
99638.809
99518.416
99785.142
99508.853
99919.102
99466.648
99863.736
99865.141
99866.24
99869.544
99868.263
99873.062
99869.107
99873.027
99867.803
99869.845
99863.86
99863.648
99856.75
99853.735
99846.286
99839.891
99830.93
99821.784
99811.116
99799.443
99786.546
99772.412
99757.012
99740.315
99722.304
99702.972
99682.318
99660.355
99637.107
99612.608
99586.908
99560.067
99532.162
99503.282
99473.531
99443.026
99411.897
99380.284
99348.334
99316.203
99284.048
99252.025
99220.287
99188.98
99158.242
99128.209
99099.005
99070.753
99043.57
99017.57
98992.869
98969.599
98947.926
98928.073
98910.345
98895.148
98882.986
98874.449
98870.168
98870.758
98876.76
98888.613
98906.788
98931.851
98965.423
99007.166
99062.007
99119.529
99197.585
99244.728
99339.05
99338.722
99469.298
99433.063
99644.558
99520.65
99793.042
99513.479
99925.001
99477.465
99279.967
99286.097
99290.392
99298.403
99300.603
99310.951
99311.132
99321.266
99320.917
99329.797
99329.214