/*--------------------------------*- C++ -*----------------------------------*\
  =========                 |
  \\      /  F ield         | OpenFOAM: The Open Source CFD Toolbox
   \\    /   O peration     | Website:  https://openfoam.org
    \\  /    A nd           | Version:  12
     \\/     M anipulation  |
\*---------------------------------------------------------------------------*/
FoamFile
{
    format      ascii;
    class       volScalarField;
    location    "0.03";
    object      rho;
}
// * * * * * * * * * * * * * * * * * * * * * * * * * * * * * * * * * * * * * //

dimensions      [1 -3 0 0 0 0 0];

internalField   nonuniform List<scalar> 
16000
(
1.0486788
1.0796729
1.0680822
1.075786
1.0721799
1.0753702
1.0744789
1.076157
1.0763213
1.0774476
1.0780786
1.0790356
1.0798748
1.0808233
1.0817741
1.0827746
1.0838068
1.0848778
1.0859857
1.0871313
1.0883145
1.0895353
1.0907934
1.0920883
1.0934193
1.0947856
1.0961861
1.0976193
1.0990838
1.1005775
1.1020983
1.103644
1.1052118
1.106799
1.1084025
1.110019
1.1116451
1.1132774
1.1149124
1.1165467
1.1181767
1.1197994
1.1214118
1.1230114
1.124596
1.1261641
1.1277149
1.129248
1.1307643
1.1322653
1.1337534
1.1352321
1.1367059
1.1381803
1.1396617
1.1411568
1.1426734
1.1442193
1.1458018
1.1474276
1.1491007
1.1508218
1.1525854
1.1543775
1.156171
1.157926
1.1595954
1.1611099
1.1623922
1.163371
1.163984
1.1641755
1.1638899
1.1630756
1.1619627
1.1603805
1.160358
1.1591396
1.1619468
1.1645042
1.0449787
1.0765558
1.0643325
1.0726195
1.0687699
1.0722356
1.0712371
1.0730925
1.0732413
1.0744723
1.0751485
1.0761797
1.0770884
1.0781083
1.0791356
1.0802132
1.0813264
1.0824804
1.0836741
1.0849079
1.0861818
1.0874954
1.0888482
1.0902395
1.0916684
1.0931337
1.0946337
1.0961669
1.0977311
1.0993241
1.1009432
1.1025857
1.1042485
1.1059283
1.1076216
1.1093248
1.111034
1.1127456
1.1144557
1.1161607
1.1178571
1.1195416
1.1212113
1.1228639
1.1244974
1.1261104
1.1277025
1.1292738
1.1308255
1.1323594
1.1338785
1.1353865
1.1368882
1.1383892
1.1398959
1.1414151
1.142954
1.1445199
1.1461195
1.1477583
1.1494394
1.1511624
1.1529211
1.1547002
1.1564736
1.1582066
1.1598425
1.1613209
1.1625684
1.1635145
1.1640903
1.1642336
1.1638963
1.1630776
1.1619126
1.16074
1.1602903
1.1599155
1.1622999
1.1656084
1.0416023
1.0736943
1.0610646
1.0696909
1.065692
1.0693547
1.0683286
1.0702994
1.0704896
1.0717991
1.0725464
1.0736509
1.0746412
1.0757404
1.0768538
1.0780185
1.0792225
1.0804697
1.0817593
1.0830914
1.0844655
1.0858811
1.0873374
1.0888334
1.0903676
1.0919386
1.0935442
1.0951825
1.0968507
1.0985462
1.1002659
1.1020063
1.103764
1.105535
1.1073155
1.1091012
1.1108882
1.1126722
1.1144493
1.1162156
1.1179675
1.1197019
1.121416
1.1231077
1.1247752
1.1264179
1.1280355
1.1296289
1.1311996
1.1327502
1.1342841
1.1358057
1.13732
1.1388331
1.1403514
1.1418818
1.1434313
1.1450067
1.1466139
1.1482575
1.1499393
1.1516575
1.1534041
1.155163
1.15691
1.1586081
1.1601926
1.1616159
1.1628093
1.1637028
1.1642246
1.164311
1.1639202
1.1630726
1.1619447
1.1609744
1.1604959
1.1606099
1.1628663
1.1666483
1.0385547
1.071072
1.058058
1.0670301
1.062878
1.0667761
1.0657239
1.0678303
1.0680687
1.0694715
1.0703023
1.0714923
1.0725781
1.0737694
1.0749821
1.0762467
1.077554
1.0789066
1.0803036
1.0817449
1.0832298
1.0847575
1.0863268
1.0879362
1.0895842
1.0912684
1.0929866
1.0947359
1.0965134
1.0983154
1.1001384
1.1019782
1.1038308
1.1056916
1.1075561
1.1094198
1.111278
1.1131264
1.1149608
1.1167771
1.1185718
1.120342
1.1220851
1.1237993
1.1254835
1.1271374
1.1287616
1.1303575
1.1319275
1.1334747
1.1350032
1.136518
1.1380249
1.13953
1.1410402
1.1425625
1.1441037
1.1456702
1.1472674
1.1488989
1.1505656
1.1522643
1.1539859
1.1557136
1.1574217
1.1590684
1.1606057
1.1619747
1.1631107
1.1639468
1.1644138
1.1644502
1.1640191
1.1631598
1.1620949
1.1612403
1.1608916
1.1612678
1.1635721
1.1676304
1.035867
1.0688142
1.0554158
1.06468
1.0603783
1.0645622
1.0634965
1.0657426
1.0660498
1.0675518
1.0684842
1.0697691
1.0709638
1.0722584
1.0735811
1.0749561
1.0763765
1.0778441
1.079358
1.0809179
1.0825228
1.0841715
1.0858625
1.0875938
1.0893632
1.0911679
1.0930048
1.0948704
1.0967608
1.0986719
1.1005991
1.1025376
1.1044825
1.1064286
1.1083708
1.1103041
1.1122234
1.1141242
1.116002
1.117853
1.1196737
1.1214616
1.1232146
1.1249313
1.1266116
1.1282558
1.1298653
1.1314424
1.1329904
1.1345132
1.1360158
1.1375039
1.1389837
1.1404622
1.1419463
1.1434433
1.1449598
1.1465019
1.1480745
1.1496804
1.1513197
1.1529879
1.1546748
1.1563624
1.1580224
1.1596145
1.1610989
1.162406
1.1634766
1.1642465
1.1646516
1.1646351
1.16417
1.163319
1.1623301
1.1615818
1.161394
1.161962
1.1644016
1.1686432
1.0336063
1.0669653
1.0532044
1.0627866
1.0583897
1.0627798
1.0616983
1.0641032
1.064499
1.0661048
1.0671521
1.0685373
1.0698487
1.0712537
1.072694
1.0741879
1.0757307
1.0773232
1.0789645
1.0806537
1.0823895
1.0841701
1.0859933
1.0878564
1.0897562
1.0916892
1.0936514
1.0956383
1.097645
1.0996665
1.1016971
1.1037313
1.1057632
1.107787
1.1097971
1.1117878
1.113754
1.1156909
1.1175942
1.1194602
1.1212861
1.1230697
1.1248097
1.1265057
1.1281584
1.1297691
1.1313403
1.1328753
1.1343785
1.1358547
1.1373099
1.1387506
1.1401836
1.1416164
1.1430564
1.1445108
1.1459863
1.1474887
1.1490224
1.1505894
1.1521889
1.1538155
1.1554578
1.1570967
1.1587036
1.1602398
1.1616581
1.1628991
1.1639015
1.1646028
1.1649438
1.1648749
1.1643841
1.1635593
1.1626577
1.1620277
1.1619932
1.1627394
1.1653315
1.1696818
1.0317645
1.0655159
1.0514402
1.0613611
1.0568743
1.0614648
1.0603922
1.0629548
1.0634479
1.0651464
1.0663148
1.0678032
1.0692405
1.0707672
1.0723379
1.073965
1.0756451
1.0773779
1.079162
1.0809959
1.0828774
1.0848038
1.0867721
1.0887784
1.0908187
1.0928882
1.0949817
1.0970936
1.099218
1.1013484
1.1034784
1.1056014
1.1077107
1.1097999
1.1118628
1.1138935
1.1158869
1.1178383
1.1197437
1.1216001
1.1234054
1.1251583
1.1268585
1.128507
1.1301053
1.1316564
1.1331638
1.1346321
1.1360668
1.1374739
1.1388602
1.1402331
1.1416002
1.1429694
1.1443485
1.1457446
1.1471645
1.1486136
1.1500957
1.1516123
1.1531616
1.154737
1.1563262
1.157909
1.1594562
1.1609289
1.1622793
1.1634506
1.1643821
1.1650143
1.1652917
1.1651745
1.164668
1.1638846
1.1630844
1.162609
1.1626816
1.1636287
1.1663369
1.170752
1.0302919
1.0644298
1.0500651
1.0603638
1.0557887
1.0605805
1.0595848
1.0623064
1.0628223
1.0646263
1.0659458
1.067561
1.0691484
1.0708207
1.0725444
1.0743271
1.076166
1.0780599
1.0800068
1.0820041
1.0840487
1.0861368
1.0882641
1.0904255
1.0926157
1.0948285
1.0970572
1.099295
1.1015344
1.1037681
1.1059882
1.1081875
1.1103584
1.1124942
1.1145883
1.116635
1.1186293
1.1205672
1.1224454
1.124262
1.1260159
1.1277073
1.1293372
1.1309081
1.1324231
1.1338865
1.1353034
1.1366798
1.1380222
1.139338
1.1406348
1.1419207
1.1432041
1.1444933
1.1457962
1.1471202
1.1484716
1.1498556
1.1512756
1.1527321
1.1542223
1.1557389
1.1572682
1.1587892
1.1602719
1.1616773
1.1629569
1.1640558
1.1649154
1.1654792
1.1656975
1.1655409
1.1650319
1.1643054
1.1636261
1.1633232
1.1634881
1.1646424
1.1674234
1.1718753
1.0291766
1.0636911
1.0490583
1.0597968
1.055057
1.0600441
1.0590972
1.0618405
1.0626602
1.064607
1.0661076
1.0678743
1.0696365
1.0714802
1.0733815
1.0753444
1.0773659
1.0794438
1.0815749
1.0837556
1.0859812
1.0882466
1.0905459
1.0928726
1.0952194
1.0975786
1.0999419
1.1023009
1.1046468
1.106971
1.1092647
1.1115198
1.1137284
1.1158837
1.1179792
1.1200098
1.1219712
1.1238605
1.1256759
1.1274167
1.1290837
1.1306786
1.1322046
1.1336657
1.1350669
1.1364141
1.1377138
1.1389736
1.1402011
1.1414047
1.142593
1.1437748
1.1449589
1.1461539
1.1473678
1.148608
1.1498806
1.1511902
1.1525396
1.1539286
1.1553535
1.1568057
1.1582705
1.1597258
1.1611408
1.1624761
1.1636841
1.1647108
1.1655
1.1659991
1.1661658
1.1659817
1.1654864
1.1648336
1.1642935
1.1641615
1.1644282
1.1657761
1.1685905
1.1731069
1.0284248
1.0633015
1.0484177
1.0596357
1.0547173
1.0599177
1.059124
1.0621181
1.0630732
1.0651637
1.0668746
1.0688205
1.0707843
1.072828
1.0749342
1.0771041
1.0793337
1.0816196
1.083957
1.0863407
1.0887642
1.0912207
1.093702
1.0961999
1.0987049
1.1012074
1.1036975
1.1061649
1.1085997
1.1109921
1.1133327
1.1156129
1.1178252
1.1199628
1.1220203
1.1239936
1.1258802
1.1276786
1.1293892
1.1310133
1.132554
1.1340151
1.1354019
1.1367204
1.1379774
1.1391807
1.1403382
1.1414586
1.1425509
1.1436242
1.1446878
1.145751
1.146823
1.1479125
1.1490274
1.1501749
1.1513609
1.1525894
1.1538624
1.155179
1.1565344
1.157919
1.1593171
1.1607053
1.1620521
1.1633177
1.1644553
1.1654128
1.1661362
1.1665774
1.1667025
1.1665056
1.166043
1.1654806
1.1650906
1.1651318
1.1654961
1.1670287
1.1698484
1.1744274
1.0281137
1.0633432
1.0482269
1.0596416
1.0548506
1.0603527
1.0597478
1.0628605
1.0641116
1.0663749
1.0683308
1.0704896
1.0726859
1.0749608
1.0773016
1.0797068
1.0821711
1.0846893
1.0872545
1.0898592
1.0924948
1.0951518
1.0978198
1.1004879
1.1031444
1.1057777
1.108376
1.1109276
1.1134214
1.115847
1.1181949
1.120457
1.1226264
1.1246977
1.1266672
1.1285331
1.1302949
1.131954
1.1335132
1.1349767
1.1363498
1.1376392
1.1388521
1.1399967
1.1410816
1.1421161
1.1431094
1.1440714
1.1450117
1.1459402
1.1468666
1.1478005
1.1487511
1.149727
1.1507361
1.1517851
1.1528794
1.1540227
1.155216
1.1564576
1.1577417
1.1590578
1.1603889
1.1617108
1.162991
1.1641899
1.1652619
1.1661564
1.166822
1.1672154
1.1673118
1.1671199
1.1667109
1.1662545
1.1660116
1.1662074
1.1666911
1.1683926
1.1711963
1.1757902
1.0283291
1.0638917
1.0485766
1.0602634
1.0556448
1.0613939
1.0610392
1.0643367
1.0658786
1.0683416
1.0705755
1.0729835
1.0754452
1.0779852
1.0805929
1.0832638
1.0859905
1.088765
1.0915779
1.0944184
1.0972748
1.1001347
1.1029847
1.105811
1.1085999
1.1113374
1.1140103
1.1166058
1.1191126
1.1215203
1.1238205
1.1260063
1.1280729
1.1300176
1.1318396
1.1335399
1.1351216
1.1365892
1.1379488
1.1392074
1.1403733
1.1414554
1.1424632
1.1434068
1.1442962
1.1451418
1.1459541
1.1467433
1.1475197
1.1482935
1.1490745
1.1498724
1.150696
1.1515539
1.1524535
1.1534011
1.1544016
1.1554579
1.1565705
1.1577367
1.1589499
1.1601984
1.1614642
1.1627219
1.163939
1.1650762
1.1660896
1.1669304
1.1675495
1.1679082
1.1679919
1.1678243
1.1674899
1.1671494
1.1670448
1.1673635
1.1680151
1.1698242
1.1726295
1.177187
1.0290729
1.0649619
1.049478
1.0615967
1.057112
1.0630977
1.063065
1.0665503
1.0684533
1.0711566
1.0737082
1.07641
1.0791773
1.082022
1.084933
1.0879023
1.0909193
1.0939721
1.0970473
1.1001306
1.1032064
1.1062587
1.109271
1.1122269
1.1151102
1.1179057
1.1205992
1.1231781
1.1256317
1.1279516
1.1301316
1.1321681
1.1340599
1.1358082
1.1374161
1.138889
1.1402337
1.1414584
1.1425726
1.1435863
1.1445103
1.1453557
1.1461337
1.1468556
1.1475326
1.1481759
1.1487963
1.1494044
1.1500106
1.1506249
1.1512571
1.1519163
1.1526114
1.1533502
1.1541397
1.1549857
1.1558925
1.1568623
1.1578949
1.1589871
1.1601312
1.1613146
1.1625178
1.1637148
1.1648732
1.1659551
1.166918
1.1677156
1.1683013
1.1686408
1.1687292
1.1686049
1.1683619
1.1681443
1.1681697
1.1685744
1.1694921
1.1712533
1.1741164
1.1785442
1.0303844
1.0665929
1.0509733
1.0635275
1.0593091
1.065543
1.0659213
1.0696224
1.0719441
1.0749412
1.0778576
1.0809059
1.0840261
1.0872196
1.0904725
1.0937718
1.097102
1.1004466
1.1037874
1.1071055
1.1103812
1.1135949
1.116727
1.1197587
1.1226728
1.1254535
1.1280877
1.1305647
1.1328771
1.1350201
1.1369923
1.1387951
1.1404323
1.1419102
1.1432371
1.1444228
1.1454782
1.146415
1.1472458
1.147983
1.1486393
1.1492274
1.1497595
1.1502477
1.1507036
1.1511385
1.1515632
1.1519881
1.1524234
1.1528786
1.153363
1.1538853
1.1544537
1.1550754
1.1557569
1.1565033
1.1573184
1.1582036
1.1591582
1.1601782
1.1612558
1.162377
1.1635213
1.1646617
1.1657665
1.1667994
1.1677198
1.168484
1.1690486
1.1693843
1.1694943
1.1694284
1.1692847
1.1691924
1.1693263
1.1698322
1.1710351
1.1726269
1.1755556
1.1797486
1.0323267
1.0688458
1.0531725
1.0662111
1.0623373
1.0688319
1.0697216
1.0736788
1.0764891
1.0798515
1.0831919
1.0866477
1.0901732
1.0937597
1.0973882
1.1010395
1.1046925
1.1083247
1.1119127
1.1154325
1.1188602
1.1221729
1.1253488
1.1283686
1.1312159
1.1338776
1.1363442
1.1386102
1.1406741
1.1425376
1.1442059
1.1456868
1.1469905
1.148129
1.1491154
1.1499637
1.1506885
1.1513043
1.1518256
1.1522667
1.1526413
1.1529625
1.153243
1.1534948
1.1537293
1.1539574
1.1541895
1.1544353
1.1547042
1.1550053
1.1553471
1.1557376
1.1561842
1.1566935
1.1572713
1.1579221
1.158649
1.1594529
1.1603321
1.1612822
1.1622948
1.1633557
1.164444
1.1655319
1.1665883
1.167578
1.1684618
1.1691994
1.1697525
1.1700966
1.1702407
1.1702411
1.1701929
1.1702161
1.1704812
1.171199
1.172338
1.1738913
1.1767873
1.1806113
1.0349565
1.0717516
1.056197
1.0697113
1.0663136
1.0730936
1.0746235
1.0789093
1.0822899
1.0861042
1.0899345
1.0938583
1.0978356
1.1018483
1.1058704
1.1098756
1.1138356
1.1177211
1.1215026
1.1251513
1.1286402
1.131945
1.1350449
1.1379239
1.1405704
1.1429781
1.1451454
1.1470753
1.1487747
1.1502539
1.1515257
1.1526052
1.1535084
1.1542525
1.1548546
1.1553318
1.1557011
1.1559786
1.1561798
1.1563191
1.1564105
1.1564669
1.1565003
1.1565222
1.156543
1.1565729
1.1566214
1.1566972
1.156809
1.1569649
1.1571725
1.157439
1.157771
1.1581745
1.1586546
1.1592153
1.1598588
1.1605855
1.1613931
1.1622762
1.1632253
1.1642263
1.1652594
1.1662971
1.1673084
1.1682584
1.1691089
1.1698234
1.1703696
1.1707277
1.1709107
1.1709764
1.1710145
1.1711323
1.1714832
1.1722391
1.1733843
1.1749161
1.1776682
1.1810571
1.0383377
1.0753143
1.060175
1.0741672
1.0714325
1.078563
1.0808805
1.0855871
1.0896179
1.093969
1.098348
1.1027879
1.1072474
1.1116977
1.1161036
1.1204291
1.1246372
1.1286914
1.1325572
1.1362039
1.1396052
1.1427412
1.145598
1.1481684
1.1504516
1.1524523
1.1541804
1.1556496
1.1568767
1.1578806
1.1586817
1.1593008
1.1597586
1.1600757
1.1602715
1.1603647
1.1603729
1.1603123
1.160198
1.1600439
1.1598629
1.159667
1.1594669
1.1592729
1.1590945
1.1589404
1.1588189
1.158738
1.1587052
1.1587274
1.1588115
1.1589637
1.15919
1.1594955
1.1598848
1.1603612
1.1609265
1.1615806
1.1623205
1.16314
1.1640285
1.1649718
1.16595
1.1669373
1.1679035
1.1688138
1.1696315
1.170323
1.170861
1.1712306
1.1714473
1.171566
1.171666
1.1718453
1.1722498
1.1730235
1.1741333
1.175597
1.1781411
1.1810975
1.0426456
1.0796656
1.0653176
1.0799008
1.0780224
1.0855648
1.0888095
1.0940288
1.0987764
1.1037398
1.1087154
1.1137006
1.118645
1.123505
1.1282326
1.1327809
1.1371053
1.1411661
1.1449299
1.1483718
1.1514753
1.1542328
1.1566448
1.1587193
1.1604703
1.1619168
1.1630809
1.1639871
1.1646611
1.1651286
1.165415
1.1655446
1.1655406
1.1654245
1.1652161
1.1649337
1.1645938
1.1642115
1.1638005
1.163373
1.1629405
1.1625131
1.1621001
1.1617102
1.1613515
1.1610314
1.160757
1.1605351
1.160372
1.1602739
1.1602464
1.1602951
1.1604251
1.1606411
1.160947
1.1613455
1.1618377
1.1624231
1.1630983
1.1638564
1.1646873
1.165576
1.1665017
1.1674395
1.1683597
1.1692282
1.1700115
1.1706778
1.1712016
1.171573
1.1718094
1.1719607
1.1720958
1.1723053
1.172726
1.1734781
1.1745251
1.1758987
1.1782058
1.180691
1.0481611
1.0853792
1.0720311
1.0872523
1.0864257
1.0944145
1.0987285
1.1045744
1.1101071
1.1157514
1.1213505
1.1268678
1.132236
1.1373944
1.1422836
1.1468519
1.1510563
1.1548657
1.1582605
1.1612333
1.1637878
1.1659369
1.167701
1.1691063
1.1701826
1.1709617
1.1714764
1.1717588
1.1718399
1.1717491
1.1715133
1.1711577
1.1707047
1.1701747
1.1695859
1.1689546
1.1682951
1.1676205
1.166942
1.1662699
1.1656134
1.1649808
1.1643798
1.1638173
1.1633
1.1628339
1.162425
1.1620789
1.1618009
1.1615961
1.1614695
1.1614257
1.1614693
1.1616044
1.1618343
1.1621614
1.1625863
1.1631077
1.1637218
1.1644215
1.1651966
1.166032
1.166907
1.1677976
1.1686736
1.1695003
1.1702473
1.1708848
1.1713872
1.1717479
1.1719863
1.1721461
1.1722876
1.1724984
1.1729075
1.1736112
1.1745721
1.175849
1.1778972
1.179868
1.0550843
1.0929846
1.0805173
1.0964147
1.0969855
1.1055105
1.1110582
1.1176771
1.1240509
1.1303949
1.1365633
1.1424864
1.1480818
1.153281
1.1580281
1.1622837
1.1660255
1.1692478
1.1719592
1.1741806
1.1759422
1.1772805
1.1782356
1.1788497
1.1791643
1.1792198
1.1790542
1.1787027
1.1781971
1.1775663
1.1768359
1.1760284
1.1751638
1.1742595
1.1733307
1.1723905
1.1714505
1.1705208
1.1696103
1.1687269
1.1678777
1.1670689
1.1663065
1.1655959
1.1649423
1.1643507
1.1638258
1.1633721
1.1629942
1.1626963
1.1624826
1.1623572
1.1623239
1.1623865
1.1625479
1.1628101
1.1631735
1.1636364
1.1641949
1.1648416
1.1655653
1.1663507
1.1671786
1.1680243
1.1688576
1.1696455
1.1703565
1.1709617
1.171437
1.1717772
1.1720018
1.1721494
1.172275
1.1724663
1.172843
1.1734796
1.1743469
1.1755248
1.1773162
1.17882
1.0635178
1.1023326
1.0913273
1.1079415
1.1103297
1.119524
1.1264262
1.1339141
1.1410781
1.1479807
1.1544734
1.1604704
1.1658962
1.1707019
1.1748622
1.1783753
1.1812589
1.1835465
1.1852823
1.1865178
1.1873077
1.1877075
1.1877705
1.1875475
1.1870848
1.1864245
1.1856042
1.1846567
1.1836109
1.1824918
1.1813208
1.1801163
1.1788942
1.1776678
1.1764487
1.1752467
1.1740701
1.1729263
1.1718215
1.1707614
1.169751
1.1687949
1.1678973
1.1670624
1.1662941
1.1655963
1.1649728
1.1644273
1.1639636
1.1635851
1.1632956
1.1630986
1.1629977
1.1629961
1.1630964
1.1633002
1.1636079
1.1640179
1.1645261
1.1651257
1.1658056
1.1665497
1.1673369
1.1681427
1.1689387
1.1696921
1.1703702
1.1709437
1.1713905
1.1717055
1.1719073
1.1720301
1.1721287
1.172292
1.1726274
1.1731909
1.1739676
1.1750509
1.1766102
1.1777378
1.0741817
1.1143071
1.1053478
1.122737
1.1273764
1.1373186
1.1455104
1.1537486
1.1613938
1.1684232
1.1747154
1.1802121
1.1848855
1.1887423
1.191815
1.1941568
1.1958332
1.1969173
1.1974838
1.197606
1.1973528
1.1967875
1.1959668
1.1949407
1.1937528
1.1924406
1.1910362
1.1895666
1.1880548
1.1865199
1.184978
1.1834425
1.1819246
1.1804335
1.178977
1.1775615
1.1761926
1.1748748
1.1736123
1.1724085
1.1712669
1.1701903
1.1691819
1.1682444
1.167381
1.1665946
1.1658882
1.1652649
1.1647279
1.1642801
1.163925
1.1636658
1.1635058
1.1634479
1.1634946
1.1636473
1.1639064
1.1642704
1.1647354
1.1652944
1.1659366
1.1666465
1.1674033
1.168181
1.1689492
1.1696748
1.1703256
1.1708738
1.1712967
1.1715885
1.171767
1.1718635
1.1719359
1.1720716
1.1723631
1.1728522
1.1735422
1.1745319
1.1758857
1.1767233
1.088592
1.1299752
1.1238134
1.141838
1.1490634
1.1596441
1.1686619
1.1771005
1.184525
1.1909143
1.1962333
1.2005057
1.2037888
1.2061663
1.2077365
1.2086034
1.20887
1.2086336
1.207983
1.2069972
1.205745
1.2042855
1.2026689
1.200937
1.1991249
1.1972616
1.1953709
1.1934722
1.1915815
1.1897117
1.1878733
1.1860747
1.1843227
1.1826228
1.1809794
1.179396
1.1778757
1.1764208
1.1750335
1.1737157
1.1724693
1.1712962
1.1701981
1.1691772
1.1682357
1.1673759
1.1666002
1.1659113
1.1653119
1.1648049
1.1643933
1.1640802
1.1638689
1.1637623
1.1637627
1.1638717
1.16409
1.1644162
1.1648468
1.1653748
1.1659893
1.1666744
1.1674096
1.1681689
1.168921
1.1696306
1.170265
1.1707958
1.1712038
1.1714807
1.1716428
1.1717206
1.171775
1.1718866
1.1721309
1.1725401
1.1731358
1.1740187
1.1751786
1.1757925
1.1081899
1.1506017
1.1481206
1.166246
1.1757724
1.1864708
1.1953232
1.2029091
1.2090667
1.2138615
1.2173857
1.2197733
1.221172
1.2217326
1.2215979
1.2208982
1.2197479
1.2182452
1.2164732
1.2145006
1.2123841
1.2101699
1.2078952
1.2055902
1.2032788
1.2009802
1.1987093
1.1964781
1.1942958
1.1921697
1.1901052
1.1881066
1.186177
1.1843186
1.1825332
1.180822
1.179186
1.1776259
1.1761423
1.1747359
1.1734074
1.1721578
1.1709882
1.1698999
1.1688947
1.1679744
1.167141
1.1663969
1.1657446
1.1651869
1.1647268
1.1643675
1.1641122
1.1639638
1.1639251
1.1639979
1.1641831
1.16448
1.1648854
1.1653925
1.1659903
1.1666627
1.1673885
1.1681409
1.1688882
1.169594
1.1702235
1.1707496
1.171153
1.1714275
1.1715827
1.1716525
1.1716974
1.1717834
1.1719691
1.1722812
1.1727602
1.173508
1.1744757
1.1749321
1.1354975
1.1769616
1.1793574
1.1968348
1.2067297
1.2162509
1.2235735
1.2290835
1.2329038
1.2352661
1.2363989
1.2365268
1.2358515
1.2345486
1.2327658
1.2306248
1.2282241
1.2256428
1.2229431
1.2201745
1.2173751
1.214575
1.211797
1.2090588
1.2063738
1.203752
1.2012008
1.1987256
1.1963303
1.1940173
1.1917882
1.1896439
1.1875846
1.1856104
1.1837208
1.1819154
1.1801934
1.1785545
1.1769982
1.175524
1.1741322
1.1728228
1.1715965
1.1704542
1.1693971
1.168427
1.1675455
1.1667549
1.1660577
1.1654568
1.1649553
1.1645565
1.1642637
1.1640802
1.1640091
1.1640527
1.1642124
1.164488
1.1648767
1.1653721
1.1659631
1.1666335
1.1673611
1.1681186
1.1688732
1.1695874
1.1702261
1.1707638
1.171175
1.1714528
1.1716093
1.1716808
1.1717168
1.1717669
1.1718695
1.172052
1.1723829
1.1729649
1.1737537
1.1740894
1.1730674
1.2108224
1.2163529
1.2311541
1.2399579
1.2466157
1.2508241
1.2531155
1.2538387
1.2533481
1.2519335
1.2498351
1.2472429
1.2443064
1.2411403
1.2378324
1.2344493
1.2310408
1.2276442
1.2242872
1.2209901
1.2177675
1.2146298
1.2115842
1.2086355
1.2057864
1.2030387
1.2003927
1.197848
1.195404
1.1930591
1.190812
1.1886608
1.1866039
1.1846392
1.1827652
1.1809801
1.1792826
1.1776713
1.1761453
1.1747041
1.1733475
1.1720756
1.1708892
1.1697892
1.1687771
1.1678547
1.1670242
1.1662881
1.1656496
1.165112
1.1646789
1.1643538
1.1641405
1.1640424
1.1640625
1.1642028
1.1644638
1.1648429
1.1653341
1.1659265
1.1666036
1.1673427
1.1681155
1.1688884
1.1696239
1.1702845
1.1708397
1.1712677
1.1715594
1.1717241
1.1717953
1.1718138
1.17181
1.1717967
1.1718094
1.1719607
1.1723573
1.1729792
1.1732353
1.2191398
1.2505964
1.2574719
1.2669306
1.2716406
1.2738669
1.2739841
1.2726223
1.2702011
1.2670552
1.2634292
1.2595032
1.2554072
1.2512347
1.2470523
1.242907
1.2388316
1.2348489
1.230974
1.2272167
1.223583
1.2200759
1.2166965
1.2134446
1.2103187
1.2073167
1.204436
1.2016739
1.1990271
1.1964926
1.1940672
1.1917476
1.1895308
1.1874139
1.1853941
1.1834688
1.1816357
1.1798926
1.1782379
1.1766701
1.1751884
1.1737922
1.1724816
1.1712569
1.1701192
1.1690698
1.1681105
1.1672437
1.1664722
1.1657994
1.1652288
1.1647643
1.1644101
1.1641701
1.1640484
1.1640486
1.1641733
1.1644236
1.1647975
1.1652895
1.1658889
1.1665789
1.1673363
1.1681313
1.168929
1.169691
1.1703791
1.1709608
1.1714133
1.1717259
1.1719044
1.1719726
1.1719594
1.171876
1.171717
1.1715311
1.171484
1.1717344
1.1722064
1.1723587
1.2715492
1.2914784
1.2958302
1.2980833
1.2972717
1.2946657
1.2908583
1.2863245
1.2813749
1.2762202
1.2709997
1.2658052
1.2606963
1.2557108
1.2508722
1.2461941
1.2416834
1.2373426
1.2331713
1.2291671
1.2253263
1.2216444
1.2181165
1.2147375
1.2115022
1.2084053
1.2054417
1.2026065
1.1998949
1.1973024
1.1948245
1.1924573
1.1901967
1.1880392
1.1859814
1.1840202
1.1821527
1.1803766
1.1786897
1.1770905
1.1755778
1.1741508
1.1728094
1.1715541
1.1703856
1.1693054
1.1683155
1.1674183
1.1666169
1.1659149
1.1653162
1.164825
1.1644458
1.1641831
1.1640413
1.1640247
1.1641364
1.1643782
1.1647489
1.1652434
1.1658513
1.1665559
1.1673334
1.1681528
1.1689777
1.1697686
1.1704864
1.1710975
1.171579
1.1719195
1.172118
1.1721854
1.172134
1.1719575
1.1716448
1.1712546
1.1709912
1.1711057
1.171487
1.1715396
1.322816
1.325918
1.3246639
1.3202926
1.3145934
1.3081771
1.3014914
1.2947703
1.288155
1.281722
1.2755125
1.2695459
1.2638287
1.2583599
1.253134
1.248143
1.2433775
1.2388279
1.2344841
1.2303365
1.2263757
1.2225928
1.2189793
1.2155271
1.2122289
1.2090777
1.2060668
1.2031901
1.2004418
1.1978166
1.1953094
1.1929155
1.1906306
1.1884506
1.1863717
1.1843906
1.1825041
1.1807096
1.1790048
1.1773878
1.1758572
1.1744123
1.1730527
1.1717788
1.1705912
1.1694915
1.1684816
1.1675641
1.1667421
1.1660195
1.1654004
1.1648892
1.1644906
1.1642093
1.1640503
1.1640181
1.1641166
1.1643482
1.1647126
1.1652057
1.1658184
1.1665345
1.1673298
1.1681717
1.1690208
1.1698357
1.1705764
1.1712079
1.171706
1.1720668
1.1722964
1.1723888
1.1723253
1.1720633
1.1715875
1.1710189
1.1705931
1.1705797
1.170887
1.1708836
1.3558209
1.3484124
1.3410091
1.3329497
1.3245767
1.3162987
1.3082734
1.3005727
1.2932236
1.2862288
1.2795796
1.2732616
1.267258
1.2615511
1.2561236
1.2509589
1.2460414
1.2413565
1.2368908
1.2326319
1.2285684
1.2246897
1.2209862
1.2174489
1.2140697
1.2108408
1.2077552
1.2048064
1.2019884
1.1992955
1.1967225
1.1942645
1.191917
1.1896758
1.187537
1.1854971
1.183553
1.1817017
1.1799411
1.178269
1.176684
1.1751852
1.1737723
1.1724454
1.1712054
1.1700537
1.1689922
1.1680236
1.1671512
1.1663789
1.165711
1.1651522
1.1647074
1.1643816
1.1641801
1.1641081
1.1641699
1.1643689
1.1647058
1.1651778
1.1657767
1.1664874
1.1672853
1.1681353
1.1689954
1.1698232
1.1705773
1.1712086
1.1716804
1.172036
1.1722879
1.172379
1.1724468
1.1721986
1.1715374
1.170852
1.1703377
1.1702658
1.1705323
1.1704977
1.1747213
1.1743046
1.1860204
1.197027
1.2024244
1.2037402
1.2038229
1.2035277
1.2034555
1.2032101
1.2028564
1.2023698
1.2017642
1.2010939
1.2003738
1.1996132
1.198814
1.1979827
1.1971238
1.1962417
1.1953403
1.1944232
1.1934936
1.1925543
1.191608
1.1906568
1.1897028
1.1887477
1.1877931
1.1868405
1.1858909
1.1849456
1.1840054
1.1830713
1.1821438
1.1812238
1.1803115
1.1794076
1.1785121
1.1776254
1.1767474
1.175878
1.175017
1.1741638
1.1733179
1.1724784
1.1716441
1.1708137
1.1699856
1.1691579
1.1683287
1.1674962
1.1666586
1.1658144
1.164963
1.1641042
1.1632391
1.1623704
1.1615024
1.1606425
1.1598025
1.158998
1.1582625
1.1576377
1.1571957
1.1569757
1.1571628
1.157567
1.1585064
1.1596618
1.1616465
1.163071
1.1654333
1.1659456
1.1676452
1.1665974
1.1669545
1.1610806
1.1625835
1.1558297
1.1695015
1.1754202
1.1894324
1.19709
1.1991911
1.1990458
1.1986061
1.1983276
1.1979672
1.1976117
1.1971808
1.1967309
1.1962352
1.1957144
1.1951514
1.1945593
1.193934
1.1932808
1.1926007
1.1918966
1.1911706
1.1904247
1.1896611
1.1888819
1.1880891
1.1872845
1.1864701
1.1856476
1.1848186
1.1839848
1.1831476
1.1823083
1.1814683
1.1806288
1.1797908
1.1789553
1.1781232
1.1772953
1.1764721
1.1756542
1.1748419
1.1740354
1.1732347
1.1724396
1.1716498
1.1708645
1.170083
1.169304
1.168526
1.1677476
1.166967
1.1661827
1.1653932
1.1645975
1.1637952
1.1629869
1.1621743
1.1613607
1.1605517
1.1597555
1.1589848
1.1582595
1.157615
1.157086
1.1567494
1.1566602
1.1569577
1.1575168
1.158553
1.1598461
1.1618686
1.1632595
1.165559
1.1659626
1.1676738
1.1663936
1.166676
1.1606683
1.162443
1.1558415
1.1665335
1.1771665
1.1873134
1.193361
1.1942357
1.1937516
1.1930977
1.1927591
1.192375
1.1920367
1.1916309
1.1912458
1.1908161
1.1903841
1.1899193
1.1894417
1.1889389
1.1884176
1.1878751
1.1873134
1.1867325
1.1861335
1.1855171
1.1848845
1.1842366
1.1835746
1.1828998
1.1822133
1.1815163
1.1808101
1.180096
1.1793752
1.1786489
1.1779184
1.1771848
1.1764491
1.1757124
1.1749756
1.1742395
1.1735049
1.1727723
1.1720422
1.1713149
1.1705903
1.1698685
1.1691488
1.1684307
1.1677131
1.166995
1.1662749
1.1655517
1.1648239
1.1640904
1.1633508
1.1626049
1.161854
1.1611005
1.1603486
1.1596049
1.1588786
1.1581836
1.1575439
1.1569889
1.1565611
1.156339
1.1563766
1.1567922
1.1574691
1.158646
1.1600332
1.1620717
1.1634305
1.1656588
1.1659793
1.1676781
1.1661817
1.1663737
1.1603064
1.162305
1.1558702
1.1629744
1.175016
1.1843881
1.1888268
1.1884386
1.18801
1.1874449
1.187208
1.1867984
1.1865009
1.1861157
1.1857893
1.1854135
1.1850594
1.1846754
1.1842931
1.183891
1.1834796
1.183053
1.1826128
1.1821581
1.1816885
1.1812041
1.180705
1.1801914
1.1796636
1.1791221
1.1785675
1.1780005
1.177422
1.1768327
1.1762336
1.1756257
1.1750099
1.1743873
1.173759
1.1731257
1.1724886
1.1718486
1.1712063
1.1705626
1.1699181
1.1692731
1.168628
1.1679826
1.1673369
1.1666903
1.1660421
1.1653913
1.164737
1.1640782
1.1634137
1.162743
1.1620657
1.1613825
1.160695
1.1600065
1.1593221
1.1586495
1.1579994
1.1573871
1.1568353
1.1563769
1.1560572
1.1559486
1.1561134
1.1566506
1.1574366
1.1587675
1.1602231
1.1622729
1.1635911
1.1657457
1.1659949
1.1676616
1.1659569
1.1660513
1.1599798
1.162167
1.1559148
1.155957
1.170102
1.1790613
1.1824897
1.1816947
1.1816354
1.1811363
1.1810675
1.1807317
1.1805761
1.1802866
1.1800872
1.1798157
1.1795812
1.1793084
1.1790447
1.1787593
1.1784679
1.1781618
1.1778438
1.1775124
1.1771673
1.1768082
1.176435
1.1760477
1.1756463
1.175231
1.1748019
1.1743596
1.1739044
1.1734368
1.1729575
1.1724671
1.1719665
1.1714564
1.1709376
1.170411
1.1698775
1.169338
1.1687932
1.1682439
1.1676908
1.1671344
1.1665749
1.1660126
1.1654473
1.1648786
1.1643062
1.1637293
1.1631471
1.1625589
1.1619639
1.1613619
1.160753
1.1601381
1.1595197
1.1589018
1.1582905
1.1576946
1.1571261
1.1566016
1.1561442
1.1557874
1.1555778
1.1555862
1.1558638
1.1565202
1.1574183
1.15889
1.1604078
1.1624754
1.1637387
1.165814
1.1659781
1.1676164
1.1657198
1.1657282
1.159684
1.1620394
1.1559767
1.1492171
1.1655503
1.1733479
1.1762303
1.1752494
1.1754864
1.1750194
1.1751194
1.1748448
1.1748216
1.1746158
1.1745339
1.1743555
1.1742307
1.1740584
1.1739019
1.1737208
1.1735367
1.1733377
1.1731283
1.1729067
1.1726725
1.1724257
1.1721658
1.1718927
1.1716063
1.1713064
1.1709931
1.1706664
1.1703265
1.1699737
1.1696082
1.1692306
1.1688412
1.1684407
1.1680298
1.167609
1.1671792
1.1667412
1.1662956
1.1658431
1.1653844
1.1649199
1.16445
1.1639749
1.1634945
1.1630086
1.1625168
1.1620187
1.1615138
1.1610015
1.1604813
1.1599532
1.1594177
1.1588763
1.1583321
1.15779
1.1572569
1.1567429
1.1562611
1.1558294
1.1554713
1.1552206
1.1551242
1.1552521
1.155648
1.1564101
1.1574195
1.1590101
1.1605852
1.1626708
1.1638706
1.1658489
1.1658935
1.1675425
1.1654725
1.1654078
1.1594103
1.1619321
1.1560568
1.1432198
1.1614506
1.1677945
1.1704412
1.1693332
1.1698057
1.1693316
1.1695629
1.1693203
1.1694007
1.1692532
1.1692644
1.1691578
1.1691224
1.1690315
1.1689605
1.1688625
1.1687664
1.1686568
1.1685394
1.1684116
1.1682733
1.1681241
1.1679634
1.1677909
1.1676063
1.1674093
1.1671998
1.1669776
1.1667427
1.166495
1.1662348
1.1659622
1.1656775
1.1653811
1.1650734
1.1647549
1.1644263
1.1640881
1.1637409
1.1633852
1.1630217
1.1626505
1.1622722
1.1618867
1.161494
1.1610941
1.1606867
1.1602713
1.1598478
1.1594155
1.1589744
1.1585247
1.1580671
1.1576038
1.1571385
1.1566767
1.1562265
1.1557991
1.1554087
1.1550742
1.1548199
1.1546794
1.1546988
1.1549445
1.1554609
1.1563174
1.1574438
1.1591272
1.1607549
1.1628472
1.1639828
1.1658668
1.1657624
1.1674229
1.165216
1.1650883
1.1591547
1.1618438
1.1561573
1.1377437
1.1578621
1.1626025
1.1652067
1.1639698