/*--------------------------------*- C++ -*----------------------------------*\
  =========                 |
  \\      /  F ield         | OpenFOAM: The Open Source CFD Toolbox
   \\    /   O peration     | Website:  https://openfoam.org
    \\  /    A nd           | Version:  12
     \\/     M anipulation  |
\*---------------------------------------------------------------------------*/
FoamFile
{
    format      ascii;
    class       volVectorField;
    location    "0.03";
    object      U;
}
// * * * * * * * * * * * * * * * * * * * * * * * * * * * * * * * * * * * * * //

dimensions      [0 1 -1 0 0 0 0];

internalField   nonuniform List<vector> 
16000
(
(214.3992 -3.1588183e-17 -8.212034)
(250.66052 0 5.281055)
(237.18813 0 -7.324849)
(244.56378 5.0054584e-17 3.6990531)
(240.06931 -4.938605e-17 -5.6446364)
(242.16308 0 1.7266593)
(240.46803 0 -3.9895624)
(240.92177 8.4523122e-17 0.042567776)
(240.12652 -8.0292164e-17 -2.8152027)
(239.9913 0 -1.0723638)
(239.49608 7.2537451e-17 -2.2153261)
(239.15023 -2.0664671e-16 -1.6705372)
(238.71454 1.3078589e-16 -2.0359653)
(238.29099 -1.2439547e-16 -1.9507817)
(237.8398 1.1802173e-16 -2.0654426)
(237.37433 -3.5002037e-18 -2.0974491)
(236.89007 -3.3248285e-18 -2.1565995)
(236.38793 -9.8116669e-17 -2.2038396)
(235.8674 1.9222238e-16 -2.2508171)
(235.32837 -9.1198469e-17 -2.2936462)
(234.77071 1.7345576e-16 -2.332644)
(234.19437 -1.6441913e-16 -2.3670578)
(233.59936 0 -2.3963408)
(232.98579 1.5302564e-16 -2.4198639)
(232.35386 -4.147183e-18 -2.4369944)
(231.70387 -2.6705919e-16 -2.4470724)
(231.03626 1.2657421e-16 -2.4494362)
(230.35155 0 -2.4434181)
(229.65042 0 -2.4283613)
(228.93365 2.1977837e-16 -2.4036282)
(228.20217 -2.0477868e-16 -2.368614)
(227.45705 0 -2.322761)
(226.69947 0 -2.2655696)
(225.93075 0 -2.1966186)
(225.15234 5.1646186e-18 -2.1155768)
(224.36579 1.5675134e-16 -2.0222204)
(223.57278 -1.4349846e-16 -1.9164492)
(222.77507 -1.4053219e-16 -1.7983018)
(221.9745 1.2443892e-16 -1.6679715)
(221.17301 0 -1.5258248)
(220.37256 -1.1908475e-16 -1.3724119)
(219.57516 1.1240715e-16 -1.2084843)
(218.78286 -2.130169e-16 -1.0350059)
(217.9977 2.0098327e-16 -0.85316827)
(217.22176 -1.9627753e-16 -0.66440065)
(216.4571 3.593577e-16 -0.47034683)
(215.7058 5.625323e-18 -0.27292615)
(214.96992 2.9670763e-19 -0.074329816)
(214.25156 -1.5125303e-16 0.12297213)
(213.55295 1.4305139e-16 0.31620853)
(212.87639 -1.2635319e-16 0.50233688)
(212.22435 0 0.67802204)
(211.59949 7.5089653e-18 0.83963755)
(211.00477 0 0.98330547)
(210.44351 6.6814674e-18 1.104977)
(209.91947 2.0805115e-16 1.2005076)
(209.43684 -3.8018725e-16 1.2657812)
(209.00021 1.0932931e-17 1.2969001)
(208.61444 1.688557e-16 1.2904847)
(208.28421 -1.4946589e-16 1.2440941)
(208.01333 1.4069114e-16 1.1567231)
(207.80396 -8.8518427e-18 1.0293727)
(207.65552 0 0.86560865)
(207.56287 0 0.67206853)
(207.51328 -1.1139444e-16 0.45954089)
(207.48442 1.1195896e-16 0.24195738)
(207.45038 -9.920225e-17 0.034018757)
(207.37485 1.9350841e-16 -0.14775477)
(207.22292 -1.8880101e-16 -0.28750431)
(206.96271 8.3677171e-17 -0.37370358)
(206.5549 5.2876782e-18 -0.39689897)
(205.95572 0 -0.34912488)
(205.14804 4.7619001e-18 -0.23353379)
(204.193 -4.5295929e-18 -0.073085044)
(203.12845 0 0.052347862)
(202.47948 -3.3979352e-17 0.16534748)
(201.57785 6.290744e-17 0.13468428)
(201.90774 -3.1984282e-17 0.3365615)
(200.7973 0 -0.24416449)
(202.48399 0 0.060227466)
(215.63861 0 -11.011238)
(252.286 -3.7549889e-18 3.2549755)
(238.06634 -1.2060108e-16 -10.245072)
(246.01776 1.1124242e-16 1.6311841)
(241.14983 0 -8.4995158)
(243.48842 1.0231714e-16 -0.42017626)
(241.57234 -1.8889839e-16 -6.7299694)
(242.13106 -1.0063078e-19 -2.2228849)
(241.23326 8.5118232e-17 -5.4092236)
(241.10583 0 -3.4565729)
(240.56703 -1.5372627e-16 -4.6940312)
(240.19422 1.5036587e-16 -4.1070448)
(239.7267 1.429972e-16 -4.4670276)
(239.26974 -2.6322395e-16 -4.3800892)
(238.78479 1.2099954e-16 -4.4781164)
(238.28385 1.1122444e-17 -4.5034075)
(237.76318 1.1630392e-16 -4.5489191)
(237.22341 -1.0358024e-16 -4.5840033)
(236.66417 0 -4.616716)
(236.08538 0 -4.6443013)
(235.48699 5.7135798e-18 -4.666618)
(234.86902 -1.7925517e-16 -4.6829093)
(234.23161 3.398915e-16 -4.6925059)
(233.57498 -3.1759044e-16 -4.6946904)
(232.8995 1.4354694e-16 -4.6887344)
(232.20561 0 -4.6739009)
(231.49392 1.251807e-16 -4.6494491)
(230.76517 -1.3422995e-16 -4.6146531)
(230.02023 0 -4.5688086)
(229.26011 3.5451418e-18 -4.5112501)
(228.48599 -1.345081e-17 -4.44136)
(227.69916 0 -4.3585915)
(226.90106 0 -4.2624751)
(226.09327 -1.716462e-16 -4.1526449)
(225.27748 3.4082678e-16 -4.0288492)
(224.45551 -1.6366291e-16 -3.8909696)
(223.62924 -1.6003243e-16 -3.7390388)
(222.80067 1.4647546e-16 -3.5732546)
(221.97184 -1.1281058e-16 -3.3939954)
(221.14484 -2.8013928e-19 -3.2018353)
(220.32178 -2.6238052e-19 -2.9975542)
(219.50478 2.3414347e-16 -2.7821493)
(218.69595 -1.1047256e-16 -2.5568427)
(217.8974 0 -2.3230905)
(217.11118 2.0354132e-16 -2.0825892)
(216.33932 1.2000831e-17 -1.8372745)
(215.58383 -5.1489204e-18 -1.5893248)
(214.8467 -1.6548051e-16 -1.3411843)
(214.12993 0 -1.0955606)
(213.43556 -1.4739504e-16 -0.85541597)
(212.76576 -8.9187804e-18 -0.62397814)
(212.1228 2.6158283e-16 -0.40474162)
(211.50916 -1.3081132e-16 -0.20144136)
(210.92758 0 -0.018006892)
(210.38112 -2.0494004e-17 0.14150194)
(209.87324 -2.1236243e-16 0.27299239)
(209.40774 3.6316098e-16 0.37248123)
(208.98878 -2.163352e-16 0.4362974)
(208.62061 0 0.46137455)
(208.30719 -1.7159757e-16 0.44566218)
(208.05147 1.802049e-16 0.38860944)
(207.85465 2.6787316e-17 0.29169573)
(207.71516 0 0.15902508)
(207.62712 -1.4231467e-16 -0.0018733345)
(207.5774 7.2829967e-18 -0.18022178)
(207.54165 1.1186895e-16 -0.365482)
(207.4996 -1.9761324e-17 -0.53998568)
(207.40985 9.3096451e-17 -0.68360116)
(207.24077 -1.0516523e-16 -0.78491706)
(206.96281 5.5109439e-18 -0.83596411)
(206.53841 -5.2014487e-18 -0.82626702)
(205.92545 0 -0.74561148)
(205.11218 -4.6489458e-18 -0.5982142)
(204.14436 4.4033641e-18 -0.41193105)
(203.13369 8.356227e-18 -0.24242188)
(202.32742 9.909092e-19 -0.14734652)
(201.72262 0 -0.106827)
(201.68348 3.0447228e-17 0.0034722506)
(201.08425 -5.7894087e-17 -0.39609671)
(202.21072 2.5898105e-17 -0.32612898)
(216.75895 0 -13.889941)
(253.77036 -1.2354534e-16 1.0289397)
(239.02443 2.5175926e-16 -13.242371)
(247.27228 -2.2492947e-16 -0.60983339)
(242.13633 1.1104467e-16 -11.428546)
(244.61345 -3.288829e-18 -2.7558002)
(242.56995 1.0006661e-16 -9.5154533)
(243.15427 -9.4774265e-17 -4.6904787)
(242.20188 -5.6244284e-18 -8.0564371)
(242.05039 -5.3399742e-18 -6.0122294)
(241.47744 -1.0143141e-17 -7.2639445)
(241.06938 1.3995068e-16 -6.6802106)
(240.56723 -1.4185482e-16 -7.0131102)
(240.07268 1.3920565e-16 -6.9321293)
(239.54959 -1.1958228e-16 -7.0110459)
(239.00889 -1.5671367e-17 -7.0291305)
(238.44723 0 -7.0604726)
(237.86524 -1.4611811e-20 -7.0821223)
(237.26262 -2.2788892e-16 -7.0992838)
(236.6394 -3.6043189e-19 -7.1098756)
(235.99564 1.7466225e-16 -7.1134386)
(235.33149 1.715413e-17 -7.1091424)
(234.64725 -2.1697762e-17 -7.0962018)
(233.9433 0 -7.0738022)
(233.22018 1.0598145e-20 -7.0411262)
(232.47855 -1.6653433e-16 -6.9973608)
(231.71924 1.4878516e-16 -6.9417067)
(230.94322 8.3047882e-18 -6.8733916)
(230.15162 0 -6.791687)
(229.34572 -7.4499383e-18 -6.695921)
(228.52696 3.6426522e-21 -6.5854961)
(227.69695 -2.0048903e-16 -6.4599078)
(226.85742 2.0192084e-16 -6.3187592)
(226.01023 1.1957819e-17 -6.1617858)
(225.15737 -1.8111129e-16 -5.9888671)
(224.30092 1.4948086e-16 -5.8000494)
(223.44304 -1.821174e-16 -5.5955593)
(222.58595 1.5265417e-16 -5.3758208)
(221.73189 -1.445345e-16 -5.1414632)
(220.88312 1.3621499e-16 -4.8933364)
(220.04189 1.6102484e-17 -4.6325156)
(219.21039 0 -4.3603056)
(218.39079 2.0089342e-16 -4.0782456)
(217.58518 -2.4315362e-16 -3.7881091)
(216.79557 0 -3.4919037)
(216.02391 1.8046084e-16 -3.1918723)
(215.27209 -1.5835961e-16 -2.8904881)
(214.54195 1.7085978e-16 -2.5904553)
(213.83531 -1.8071105e-16 -2.2947076)
(213.15404 0 -2.006409)
(212.50005 1.7819452e-16 -1.7289498)
(211.87541 -1.3390397e-16 -1.4659383)
(211.28235 0 -1.2211757)
(210.72332 0 -0.998609)
(210.20108 1.2545567e-16 -0.80225525)
(209.71872 -2.0947383e-16 -0.63609456)
(209.27964 1.2293285e-16 -0.50391385)
(208.88747 1.8502211e-16 -0.40909998)
(208.54583 2.5887697e-19 -0.35434707)
(208.25786 2.3866288e-19 -0.34124961)
(208.02554 -3.2533308e-16 -0.36984461)
(207.84892 8.971605e-17 -0.43810412)
(207.72513 0 -0.54132024)
(207.64708 1.4253521e-16 -0.67142875)
(207.60143 -1.6335493e-16 -0.81800502)
(207.56549 1.1164427e-16 -0.96963815)
(207.51351 1.3220128e-17 -1.1069216)
(207.40734 -8.6036338e-17 -1.2121653)
(207.21993 1.1553181e-17 -1.2769005)
(206.92046 2.1736095e-17 -1.292424)
(206.47174 -1.0225471e-16 -1.2464879)
(205.83611 9.6208968e-17 -1.1291281)
(205.01097 -7.2584778e-17 -0.94747135)
(204.04637 1.3689884e-16 -0.73038337)
(203.05912 -5.6529168e-17 -0.53583034)
(202.23402 -6.1075719e-17 -0.42928412)
(201.73227 5.0487484e-17 -0.3541941)
(201.54279 0 -0.30869603)
(201.24463 3.2228577e-18 -0.54979974)
(202.01074 -1.2157556e-17 -0.71508722)
(217.73585 0 -16.831105)
(255.11403 0 -1.3343357)
(239.76857 0 -16.373885)
(248.37018 1.075031e-16 -2.9485234)
(242.94883 -1.247823e-16 -14.485495)
(245.58583 -2.2225815e-16 -5.2034003)
(243.39736 2.1134453e-16 -12.417769)
(244.01294 -1.2515266e-17 -7.2800927)
(242.99602 5.9606123e-18 -10.814999)
(242.81849 -1.7524015e-16 -8.6945804)
(242.20577 1.7155177e-16 -9.9455285)
(241.75755 1.0195754e-17 -9.3760971)
(241.21579 -1.5478913e-16 -9.6754442)
(240.67847 1.3749715e-16 -9.6016678)
(240.11215 -1.6650797e-20 -9.6603288)
(239.52657 -8.2405939e-18 -9.6693766)
(238.91893 0 -9.6850418)
(238.28981 -7.4429966e-18 -9.6909271)
(237.63907 -2.1181582e-16 -9.6900143)
(236.96684 2.1387658e-16 -9.680662)
(236.27332 1.2696563e-17 -9.6621838)
(235.55884 -1.2036854e-17 -9.6336674)
(234.82384 2.1685176e-16 -9.5942338)
(234.06894 -1.7273555e-16 -9.5429846)
(233.29488 1.0244713e-17 -9.4790226)
(232.50257 1.9420959e-16 -9.4014751)
(231.6931 -1.2847519e-16 -9.3094922)
(230.86772 0 -9.2022773)
(230.02789 1.4842422e-16 -9.0790936)
(229.1752 -1.2458923e-16 -8.9392933)
(228.31143 2.5107341e-16 -8.7823267)
(227.43851 -1.342651e-17 -8.6077737)
(226.55852 -2.1089242e-16 -8.4153554)
(225.67366 1.7489692e-16 -8.2049605)
(224.78621 -1.8841929e-16 -7.9766584)
(223.89856 -2.1796626e-20 -7.7307217)
(223.01311 2.1061413e-16 -7.4676361)
(222.1323 -3.1785057e-16 -7.1881133)
(221.25855 9.3554147e-17 -6.8930983)
(220.39424 3.5409831e-17 -6.5837739)
(219.5417 -5.0075667e-17 -6.261563)
(218.70314 0 -5.9281248)
(217.88068 -8.9100224e-17 -5.5853521)
(217.07634 1.3955873e-16 -5.2353632)
(216.29199 -2.1071147e-16 -4.8804953)
(215.5294 1.9797847e-16 -4.5232983)
(214.79025 -2.0999104e-16 -4.166524)
(214.07614 3.9482832e-16 -3.8131206)
(213.38863 -3.0941214e-16 -3.466227)
(212.72928 3.102644e-16 -3.129168)
(212.09974 -1.456202e-16 -2.8054482)
(211.50175 1.3708061e-16 -2.4987401)
(210.93721 -9.6343251e-17 -2.2128555)
(210.40826 3.0209361e-17 -1.9516992)
(209.91727 0 -1.7191843)
(209.46692 0 -1.5191162)
(209.06015 0 -1.3550308)
(208.70006 2.33714e-17 -1.2299851)
(208.3896 0 -1.1462638)
(208.13114 -1.6444264e-16 -1.104979)
(207.92576 1.9236822e-16 -1.1056426)
(207.77252 -1.0828738e-16 -1.1456667)
(207.66748 -1.8409799e-19 -1.2198742)
(207.60228 2.5302657e-16 -1.3203183)
(207.56365 2.9762543e-17 -1.4362936)
(207.53754 -1.3861955e-16 -1.5517944)
(207.47101 5.1993087e-17 -1.6512404)
(207.35431 -1.4595213e-16 -1.7222396)
(207.15414 -4.5614958e-17 -1.7532503)
(206.83842 -6.412324e-17 -1.7338218)
(206.3694 -6.0173356e-17 -1.6511617)
(205.71495 5.6402803e-17 -1.4972321)
(204.88187 0 -1.2814888)
(203.92636 0 -1.0348461)
(202.95785 -1.5608451e-17 -0.81932448)
(202.15237 0 -0.69004465)
(201.68667 6.9048225e-18 -0.60435115)
(201.45048 5.1968528e-17 -0.58926467)
(201.33013 -7.3259538e-17 -0.71857183)
(201.80479 1.9528554e-20 -1.0966095)
(218.5554 0 -19.967157)
(256.29865 -8.8898766e-18 -3.7782372)
(240.39289 2.6874106e-16 -19.647779)
(249.24122 -2.5111029e-16 -5.4093054)
(243.54297 2.5614476e-16 -17.661249)
(246.36791 -2.3437063e-16 -7.8031716)
(244.03828 -2.2336276e-16 -15.426998)
(244.67216 2.114492e-16 -10.026314)
(243.59429 0 -13.677111)
(243.37945 0 -11.525349)
(242.72479 1.8115875e-16 -12.740988)
(242.22946 -1.7161294e-16 -12.203874)
(241.64328 -1.0195712e-17 -12.459871)
(241.05785 2.8991283e-17 -12.392988)
(240.4432 -9.1761035e-18 -12.429176)
(239.80775 3.4794469e-17 -12.425698)
(239.14924 0 -12.422783)
(238.4682 0 -12.409236)
(237.76463 -2.3757744e-16 -12.386463)
(237.0388 2.1069938e-16 -12.353061)
(236.29106 0 -12.308161)
(235.52194 0 -12.250759)
(234.73211 -1.9167736e-16 -12.179857)
(233.92242 3.6272095e-16 -12.094466)
(233.09391 -1.7155201e-16 -11.993604)
(232.24781 -2.032608e-17 -11.876331)
(231.38555 -3.8488538e-17 -11.741758)
(230.50877 -1.4583e-16 -11.589077)
(229.61927 1.2040476e-16 -11.417575)
(228.71906 0 -11.226662)
(227.81031 -3.0829285e-17 -11.015889)
(226.89537 0 -10.784981)
(225.97667 0 -10.533841)
(225.05679 2.0813789e-16 -10.262592)
(224.13833 -2.2061018e-16 -9.9715722)
(223.22396 2.3145779e-17 -9.6613634)
(222.31632 -2.1838826e-17 -9.3327941)
(221.41804 -4.1270578e-17 -8.9869463)
(220.53166 -7.1415255e-20 -8.6251553)
(219.65961 6.8201324e-20 -8.2490054)
(218.8042 -6.4674747e-20 -7.8603261)
(217.96758 0 -7.4611768)
(217.15174 -1.2252648e-16 -7.0538383)
(216.35849 1.1505606e-16 -6.6407937)
(215.58948 0 -6.224715)
(214.8462 -5.0986732e-17 -5.808452)
(214.13001 1.9166544e-16 -5.3950124)
(213.44217 -2.2467485e-16 -4.9875559)
(212.78387 -2.113756e-16 -4.5893829)
(212.15634 1.5846065e-16 -4.2039281)
(211.56084 1.1177003e-16 -3.8347523)
(210.99875 -1.3948697e-16 -3.4855297)
(210.4716 -3.2705493e-17 -3.1600173)
(209.98113 -2.1483852e-16 -2.8620059)
(209.52931 1.1486975e-16 -2.5952306)
(209.1184 -1.0775335e-16 -2.3632513)
(208.75084 1.0073776e-16 -2.1692899)
(208.42915 2.3605959e-16 -2.0160198)
(208.15565 -1.7644621e-16 -1.9052715)
(207.93192 0 -1.8376336)
(207.75816 -3.8593725e-17 -1.8120476)
(207.6325 -7.2249962e-17 -1.8253366)
(207.55004 1.3485163e-16 -1.8718429)
(207.50164 1.2617798e-16 -1.943272)
(207.47212 -2.3562533e-16 -2.0281197)
(207.43936 8.2445905e-17 -2.1103316)
(207.37795 5.1395816e-17 -2.1761799)
(207.25526 9.6079538e-17 -2.2138363)
(207.04429 1.347079e-16 -2.2109314)
(206.71408 4.6806247e-20 -2.1563147)
(206.22655 0 -2.0368491)
(205.55558 0 -1.8465732)
(204.71712 -3.4377864e-17 -1.5972249)
(203.77241 9.6581152e-17 -1.3229667)
(202.82791 -9.044497e-17 -1.0856047)
(202.05785 -8.475315e-17 -0.93107342)
(201.61021 5.2895675e-17 -0.84441933)
(201.3681 0 -0.83721623)
(201.35902 4.631893e-17 -0.88850045)
(201.59728 -4.3463742e-20 -1.4515063)
(219.19366 0 -23.274876)
(257.29081 2.2039344e-20 -6.3106035)
(240.83514 9.1476052e-18 -23.030507)
(249.95548 2.908551e-16 -8.0056608)
(243.97676 3.2787622e-19 -20.941451)
(246.92989 -5.1003117e-16 -10.554552)
(244.44981 -3.1888166e-19 -18.533668)
(245.10103 4.5991255e-16 -12.933171)
(243.96603 -2.1157992e-16 -16.64134)
(243.70464 -1.2547114e-17 -14.504144)
(243.00602 1.1919985e-17 -15.650398)
(242.45824 -1.8095174e-16 -15.158075)
(241.82362 1.9277193e-16 -15.362881)
(241.18562 -1.8315331e-16 -15.299292)
(240.51813 3.0850561e-16 -15.310517)
(239.82815 -3.1081385e-16 -15.290086)
(239.11395 1.3852004e-16 -15.265065)
(238.37605 0 -15.227964)
(237.61466 0 -15.179075)
(236.83021 1.4755129e-17 -15.11703)
(236.02333 -2.7965661e-17 -15.040758)
(235.1948 0 -14.94911)
(234.34562 2.0082537e-16 -14.840952)
(233.47702 4.6431227e-19 -14.715183)
(232.59042 -3.5940794e-16 -14.570739)
(231.68747 1.6981988e-16 -14.406628)
(230.77005 2.0095427e-17 -14.221958)
(229.84025 0 -14.015949)
(228.90036 -1.7995873e-16 -13.787971)
(227.95287 1.357079e-16 -13.537565)
(227.00042 -2.2501372e-16 -13.264465)
(226.04577 2.1181321e-16 -12.96863)
(225.09178 -2.2921223e-16 -12.650249)
(224.14139 2.1575859e-16 -12.309776)
(223.19752 7.647551e-17 -11.94793)
(222.26307 0 -11.565701)
(221.34089 0 -11.16436)
(220.43368 4.2631624e-17 -10.745449)
(219.54401 4.0152574e-17 -10.310771)
(218.67427 -3.780207e-17 -9.8623785)
(217.82662 3.5574245e-17 -9.4025565)
(217.00301 6.7091266e-17 -8.9337969)
(216.20518 -6.3037367e-17 -8.4587829)
(215.4346 3.55341e-16 -7.9803608)
(214.69255 -2.7794147e-16 -7.5015197)
(213.98013 5.2176405e-17 -7.0253738)
(213.29827 -4.9080051e-17 -6.5551422)
(212.64779 0 -6.0941381)
(212.02945 2.157569e-16 -5.6457571)
(211.44402 -1.6157753e-16 -5.2134729)
(210.89235 0 -4.800826)
(210.37539 0 -4.4114148)
(209.89427 1.3295624e-16 -4.0488617)
(209.45032 -6.2111396e-17 -3.7167617)
(209.04509 0 -3.4185918)
(208.68038 -1.6322446e-16 -3.1575903)
(208.35814 1.0155737e-16 -2.9365987)
(208.08034 1.4258599e-16 -2.7578528)
(207.84864 -1.7723298e-16 -2.6226852)
(207.66388 1.6568974e-16 -2.5311234)
(207.52543 -1.5442638e-16 -2.4815096)
(207.43053 7.6362844e-20 -2.4700761)
(207.37331 0 -2.4906157)
(207.34393 6.2739695e-17 -2.5342226)
(207.32737 -2.9226331e-16 -2.5891807)
(207.30192 1.6335042e-16 -2.6413125)
(207.23799 0 -2.6757491)
(207.10986 -1.4201871e-16 -2.680144)
(206.89033 8.8184698e-17 -2.643863)
(206.54754 1.2347989e-16 -2.5544857)
(206.04438 7.1022076e-20 -2.3987171)
(205.36101 -7.1527574e-17 -2.1728714)
(204.5211 1.0017618e-16 -1.8919393)
(203.58931 -1.5581767e-16 -1.5929068)
(202.67277 8.7267004e-17 -1.3336157)
(201.94164 2.7126201e-17 -1.1515941)
(201.51188 5.0650518e-17 -1.0630865)
(201.28246 0 -1.0461774)
(201.3523 -4.3968725e-17 -1.0428791)
(201.38002 2.0380454e-17 -1.7256879)
(219.62672 0 -26.757958)
(258.08304 9.8966699e-18 -8.9328066)
(241.08499 -3.0837161e-16 -26.523641)
(250.49051 2.5187768e-16 -10.75079)
(244.2238 2.5863169e-16 -24.320462)
(247.25776 -5.044586e-16 -13.459509)
(244.64718 2.320069e-16 -21.725286)
(245.27572 2.348675e-16 -16.002687)
(244.09515 -2.2256746e-16 -19.695501)
(243.77864 3.9610913e-17 -17.621679)
(243.03509 0 -18.664184)
(242.42946 0 -18.225355)
(241.74161 -2.2528762e-17 -18.374432)
(241.04541 -1.7099754e-16 -18.309939)
(240.31898 1.41515e-16 -18.294917)
(239.56807 1.9191319e-17 -18.253788)
(238.79155 -3.6376754e-17 -18.203431)
(237.99008 3.103905e-16 -18.13871)
(237.16416 -2.2810481e-16 -18.059114)
(236.31458 2.4754969e-16 -17.963179)
(235.44229 -2.0456314e-16 -17.849637)
(234.54852 2.7728149e-17 -17.717191)
(233.6347 1.5755054e-16 -17.564586)
(232.70255 -1.9816279e-16 -17.39064)
(231.754 0 -17.194249)
(230.79125 0 -16.974434)
(229.81675 0 -16.730362)
(228.83313 -1.9842115e-16 -16.461379)
(227.84326 1.8693162e-16 -16.167031)
(226.85016 -3.5409234e-17 -15.8471)
(225.85696 0 -15.501626)
(224.8669 -2.8387061e-16 -15.130928)
(223.88325 2.372783e-16 -14.735614)
(222.90926 -5.610736e-17 -14.316598)
(221.9481 1.5868748e-16 -13.875103)
(221.00285 -4.9312988e-17 -13.412648)
(220.0764 -1.8705974e-16 -12.931052)
(219.17143 2.2065225e-16 -12.432402)
(218.2904 -1.6566014e-16 -11.919041)
(217.43545 7.8124116e-17 -11.39354)
(216.60849 -7.3334954e-17 -10.858667)
(215.81108 1.3780057e-16 -10.317354)
(215.04451 -6.4592411e-17 -9.7726723)
(214.30982 -2.430668e-16 -9.2277984)
(213.60775 5.1253167e-16 -8.6859873)
(212.93889 -2.134487e-16 -8.1505531)
(212.30362 -1.5042163e-16 -7.6248505)
(211.70225 9.3521168e-17 -7.1122604)
(211.13502 8.7956539e-17 -6.616185)
(210.60222 -1.6457379e-16 -6.1400422)
(210.10421 1.5373068e-16 -5.6872611)
(209.64151 0 -5.261271)
(209.21482 1.3457208e-16 -4.8654703)
(208.82506 -1.884278e-16 -4.5031718)
(208.47338 5.8717414e-17 -4.1775135)
(208.16112 5.4719295e-17 -3.8913396)
(207.88977 0 -3.647049)
(207.66078 0 -3.4463875)
(207.47517 0 -3.2901484)
(207.33306 0 -3.1777685)
(207.23306 0 -3.1069775)
(207.17161 -7.177181e-17 -3.0734334)
(207.14204 0 -3.0704386)
(207.1337 -6.569531e-20 -3.088714)
(207.1308 2.3153683e-16 -3.1163345)
(207.11158 -2.1528437e-16 -3.1393122)
(207.05002 -1.0026875e-16 -3.1435547)
(206.91952 -1.8637321e-16 -3.1169452)
(206.69336 2.5963689e-16 -3.0483669)
(206.33924 6.6584226e-20 -2.9245446)
(205.82278 7.4841564e-17 -2.7327157)
(205.13109 0 -2.4722896)
(204.29383 0 -2.1621922)
(203.3774 0 -1.8411768)
(202.49172 -1.1225398e-16 -1.5601408)
(201.80198 0 -1.3505595)
(201.38993 -9.7034212e-17 -1.2540503)
(201.18946 1.3516709e-16 -1.2115701)
(201.2884 8.3567557e-17 -1.1590605)
(201.14949 -1.9255756e-17 -1.942257)
(219.85673 0 -30.414789)
(258.67883 0 -11.66597)
(241.14249 3.2446472e-16 -30.1481)
(250.84735 1.9464405e-17 -13.651603)
(244.29024 -2.7151353e-16 -27.808884)
(247.38361 0 -16.538929)
(244.66574 1.6268754e-17 -24.999249)
(245.31939 -3.0826698e-17 -19.227537)
(243.99069 0 -22.81854)
(243.60104 1.9430848e-16 -20.85994)
(242.80636 -4.2066122e-16 -21.775886)
(242.13304 1.9917998e-16 -21.398227)
(241.38275 2.3634515e-17 -21.492708)
(240.61894 0 -21.423077)
(239.82411 2.1212022e-17 -21.380715)
(239.00291 -3.4207936e-16 -21.314578)
(238.15489 7.5426362e-17 -21.23439)
(237.28097 2.5207381e-16 -21.136427)
(236.38206 2.3936218e-16 -21.019673)
(235.45939 -2.5819349e-16 -20.882555)
(234.51442 0 -20.72364)
(233.5489 -2.8966096e-16 -20.541531)
(232.56487 2.4594761e-16 -20.334902)
(231.56466 -2.0727784e-16 -20.102555)
(230.55084 1.9536735e-16 -19.843432)
(229.52629 -1.8512985e-16 -19.556658)
(228.49409 3.492374e-16 -19.241578)
(227.45757 -1.6478707e-16 -18.897783)
(226.42018 1.5585002e-16 -18.525144)
(225.38553 -2.9380955e-16 -18.123836)
(224.35726 1.3829196e-16 -17.694361)
(223.33904 1.3059808e-16 -17.237562)
(222.33448 -2.4639514e-16 -16.754622)
(221.34706 5.7226665e-17 -16.247068)
(220.38007 -5.6832836e-19 -15.716763)
(219.4366 2.5634887e-16 -15.165871)
(218.51942 0 -14.596852)
(217.63099 1.7632802e-19 -14.012415)
(216.77344 0 -13.415486)
(215.9485 -8.0023037e-17 -12.80917)
(215.15756 -1.5038866e-16 -12.19671)
(214.40163 7.0580806e-17 -11.581445)
(213.6814 0 -10.96678)
(212.99725 -6.2196286e-17 -10.356142)
(212.34931 2.9115823e-16 -9.752964)
(211.73749 -3.2684864e-16 -9.160657)
(211.16158 -3.0626919e-16 -8.5825996)
(210.62128 2.8595732e-16 -8.0221287)
(210.11629 -1.7845001e-16 -7.4825376)
(209.64637 0 -6.9670783)
(209.21141 0 -6.4789607)
(208.8115 7.2814497e-17 -6.0213444)
(208.44693 6.7949063e-17 -5.5973106)
(208.11824 1.2663262e-16 -5.2098054)
(207.82618 -5.901776e-17 -4.8615548)
(207.5717 -1.0994776e-16 -4.5549487)
(207.35586 -2.0508132e-16 -4.2918909)
(207.1796 -9.5722525e-17 -4.0735878)
(207.04337 1.7746433e-16 -3.900251)
(206.94663 0 -3.7707097)
(206.88729 -7.6843444e-17 -3.6820899)
(206.86109 -1.428257e-16 -3.6294985)
(206.8607 1.3253709e-16 -3.605759)
(206.87482 6.1402433e-17 -3.6012245)
(206.88731 5.7135345e-17 -3.6038273)
(206.87676 0 -3.5999098)
(206.81827 1.9699112e-16 -3.5759412)
(206.68645 1.8278387e-16 -3.5199239)
(206.4545 -2.5442527e-16 -3.4200142)
(206.09014 7.8698892e-17 -3.2620962)
(205.56285 -7.3026101e-17 -3.0346883)
(204.86723 -1.0801014e-19 -2.740975)
(204.03707 2.5144506e-16 -2.4038685)
(203.13903 -2.3333427e-16 -2.0627095)
(202.28628 5.4044758e-17 -1.7600066)
(201.63589 1.5051973e-16 -1.5263701)
(201.24273 -4.6501728e-17 -1.4146792)
(201.08005 -4.2992006e-17 -1.3337134)
(201.18058 0 -1.2393671)
(200.90131 3.6450853e-17 -2.1286725)
(219.89096 3.9450989e-16 -34.25827)
(259.07994 5.362614e-19 -14.516435)
(240.98987 -3.6168116e-16 -33.913337)
(251.02184 0 -16.713464)
(244.10697 0 -31.382051)
(247.2181 -2.6983396e-16 -19.79238)
(244.38284 2.7293878e-16 -28.329127)
(244.88561 6.4729966e-17 -22.610886)
(243.61202 -2.4566108e-16 -26.038586)
(243.15009 2.3235522e-16 -24.240803)
(242.29395 -2.482985e-16 -25.009491)
(241.54031 2.0869482e-16 -24.689921)
(240.71568 -4.9504542e-17 -24.729009)
(239.87271 -4.6932508e-17 -24.645431)
(238.99806 -1.7786196e-16 -24.57089)
(238.09559 1.679935e-16 -24.472272)
(237.16552 -3.5872348e-16 -24.354518)
(236.20918 6.0296168e-16 -24.214628)
(235.22803 -2.84885e-16 -24.051194)
(234.22388 -2.7027843e-16 -23.862516)
(233.19885 2.5487934e-16 -23.647038)
(232.1554 -3.0331734e-17 -23.403306)
(231.09631 -2.2844617e-16 -23.130001)
(230.02467 2.1520315e-16 -22.82601)
(228.94386 2.5489593e-16 -22.490437)
(227.85753 -1.4374941e-16 -22.122658)
(226.76953 0 -21.722355)
(225.68388 2.5702499e-16 -21.289547)
(224.60471 -3.2282898e-16 -20.824619)
(223.53615 1.1361647e-16 -20.32834)
(222.48232 -2.871642e-16 -19.80187)
(221.4472 2.0231371e-16 -19.246766)
(220.4346 -6.3734964e-17 -18.664963)
(219.44805 2.395564e-16 -18.058753)
(218.49075 -2.2471325e-16 -17.430767)
(217.56556 -2.1177795e-16 -16.783919)
(216.67488 1.984963e-16 -16.121371)
(215.8207 -4.6563765e-17 -15.446488)
(215.00453 0 -14.762777)
(214.22747 8.2364477e-17 -14.073843)
(213.49015 -7.6903834e-17 -13.383341)
(212.79281 0 -12.694928)
(212.13536 1.353923e-16 -12.012224)
(211.5174 -6.3317543e-17 -11.338788)
(210.93829 -1.7761754e-16 -10.678088)
(210.39724 5.5391717e-16 -10.033493)
(209.89335 -2.0733912e-16 -9.4082634)
(209.42572 9.6752785e-17 -8.8055537)
(208.99351 -2.7119248e-16 -8.2284182)
(208.59596 -2.2044859e-19 -7.6798212)
(208.23254 1.5721486e-16 -7.1626426)
(207.90294 -1.4667128e-16 -6.6796721)
(207.6071 -6.8258662e-17 -6.2335846)
(207.34522 -6.3575368e-17 -5.8268872)
(207.11773 -1.1872579e-16 -5.4618367)
(206.92521 2.203321e-16 -5.1403255)
(206.76833 0 -4.8637219)
(206.6476 9.5200839e-17 -4.6326492)
(206.56296 -3.5425054e-16 -4.4467)
(206.51326 2.4632234e-16 -4.3040995)
(206.49582 7.6235326e-17 -4.2014024)
(206.50574 1.4162675e-16 -4.1331863)
(206.53511 1.3164738e-16 -4.0917895)
(206.57214 -1.214802e-16 -4.0672106)
(206.60047 -1.1256752e-16 -4.0472669)
(206.59923 -3.1341995e-16 -4.0185998)
(206.54479 -1.0848209e-19 -3.9682781)
(206.41256 -8.9537784e-17 -3.8843374)
(206.17529 0 -3.7539484)
(205.80144 -2.3039371e-16 -3.5624869)
(205.26586 7.1054908e-17 -3.30044)
(204.57071 0 -2.9749011)
(203.7522 1.2190603e-16 -2.6122518)
(202.87612 0 -2.2512922)
(202.0574 1.0435895e-16 -1.9271801)
(201.44163 -1.4464137e-16 -1.6729054)
(201.06855 1.3366874e-16 -1.5410086)
(200.94256 -8.2170328e-17 -1.4168228)
(201.03017 7.5685368e-17 -1.2946992)
(200.62852 0 -2.2791638)
(219.7204 -4.1448432e-16 -38.301183)
(259.27914 3.6646847e-16 -17.500923)
(240.59683 -3.3554909e-16 -37.844041)
(250.96919 3.3375242e-16 -19.942703)
(243.64583 3.1951174e-16 -35.021238)
(246.80358 -1.8181513e-17 -23.231458)
(243.85044 -2.8606407e-16 -31.739337)
(244.30579 -2.7153024e-16 -26.185064)
(242.95018 2.8898454e-16 -29.377323)
(242.38231 0 -27.768482)
(241.45415 2.8835538e-17 -28.374014)
(240.6074 0 -28.101596)
(239.69564 -1.2965243e-16 -28.084148)
(238.7611 2.4480085e-16 -27.975448)
(237.79438 0 -27.860991)
(236.7989 0 -27.719731)
(235.77569 0 -27.553564)
(234.72669 3.9405526e-17 -27.359798)
(233.65411 0 -27.136741)
(232.56054 -2.4647841e-16 -26.882612)
(231.44896 3.320716e-16 -26.595802)
(230.32275 1.2564594e-16 -26.274915)
(229.18562 1.7815903e-16 -25.918767)
(228.0416 -2.798156e-16 -25.526488)
(226.895 -5.2739576e-17 -25.097535)
(225.75037 -2.4953227e-16 -24.631747)
(224.61236 1.8780219e-16 -24.129372)
(223.48572 -2.2180453e-16 -23.59111)
(222.37517 8.3007192e-17 -23.018101)
(221.2853 7.8470827e-17 -22.411953)
(220.22051 0 -21.774713)
(219.18492 2.7908589e-16 -21.108851)
(218.18226 -2.6209863e-16 -20.417227)
(217.21583 0 -19.70304)
(216.28844 -2.3171823e-16 -18.969779)
(215.40236 2.1704179e-16 -18.22116)
(214.55931 -1.0225924e-16 -17.461061)
(213.76047 1.9149017e-16 -16.693463)
(213.00645 -2.6904011e-16 -15.922382)
(212.29741 1.3090257e-19 -15.151813)
(211.633 -1.5720017e-16 -14.385681)
(211.01254 -7.3587566e-17 -13.627799)
(210.43497 -1.3809321e-16 -12.881834)
(209.89902 2.5739507e-16 -12.151291)
(209.40325 -1.2013737e-16 -11.439497)
(208.94612 0 -10.749602)
(208.52609 -3.5142173e-19 -10.084587)
(208.14168 9.7726175e-17 -9.4472732)
(207.79154 0 -8.8403446)
(207.47451 8.5015942e-17 -8.2663591)
(207.18969 7.9491043e-17 -7.7277642)
(206.93646 -7.3743007e-17 -7.2268932)
(206.71448 2.7464892e-16 -6.7659435)
(206.52371 -2.5525443e-16 -6.346928)
(206.3643 -1.1870746e-16 -5.9715962)
(206.23656 -1.1026361e-16 -5.6413143)
(206.1408 1.0236745e-16 -5.3568883)
(206.07711 1.8991299e-16 -5.1183322)
(206.04501 -3.5210308e-16 -4.9246058)
(206.0429 4.0795797e-16 -4.7733545)
(206.06753 -1.511176e-16 -4.6605924)
(206.11342 1.3998397e-16 -4.5803465)
(206.17214 -1.2957812e-16 -4.5244149)
(206.23155 2.3995236e-16 -4.4824262)
(206.27537 -3.3300152e-16 -4.4422246)
(206.28342 2.0513858e-16 -4.390955)
(206.23313 -1.0092622e-19 -4.3162061)
(206.10035 8.7725776e-17 -4.2056408)
(205.85756 0 -4.0453633)
(205.47496 0 -3.8208814)
(204.93378 0 -3.5253859)
(204.24322 -1.2782595e-16 -3.1696577)
(203.44057 1.1075132e-20 -2.782385)
(202.59008 0 -2.4007161)
(201.80569 0 -2.0545831)
(201.21878 9.2741331e-17 -1.7825603)
(200.86293 -1.7081541e-16 -1.6273714)
(200.76874 0 -1.4615776)
(200.83173 0 -1.331853)
(200.36567 -1.3173319e-16 -2.3855252)
(219.31571 2.7956229e-17 -42.549989)
(259.24599 -7.9342479e-16 -20.635446)
(239.93166 3.510883e-16 -41.941467)
(250.42639 -2.1932829e-17 -23.370136)
(242.87524 3.7659111e-16 -38.762573)
(246.06749 -3.5515598e-16 -26.89416)
(243.02481 0 -35.264293)
(243.3514 -3.1985029e-16 -29.95137)
(241.94165 2.3511586e-16 -32.832733)
(241.25228 2.2329297e-16 -31.43653)
(240.23841 -2.4101769e-16 -31.872775)
(239.28427 0 -31.630054)
(238.27091 1.7160738e-19 -31.553228)
(237.23116 0 -31.405732)
(236.15917 3.880925e-16 -31.239916)
(235.05836 -7.331194e-16 -31.042322)
(233.93071 3.4610097e-16 -30.81301)
(232.77905 -4.0888342e-17 -30.549414)
(231.60658 -3.8835415e-17 -30.24968)
(230.41697 3.6893044e-17 -29.912031)
(229.21431 -6.8947851e-17 -29.534966)
(228.00312 -3.265438e-16 -29.117299)
(226.78826 3.0733923e-16 -28.658214)
(225.57488 5.7943125e-17 -28.157341)
(224.36832 -2.7450863e-16 -27.614765)
(223.17404 -6.8762729e-19 -27.031102)
(221.9975 2.9157776e-16 -26.407485)
(220.84407 -1.82993e-16 -25.745596)
(219.71888 -5.7864629e-19 -25.047636)
(218.62674 0 -24.316314)
(217.57205 0 -23.554797)
(216.55867 -7.1982007e-17 -22.766659)
(215.5899 1.3478693e-16 -21.955819)
(214.66836 0 -21.126463)
(213.79604 -1.191043e-16 -20.282963)
(212.9742 2.2290441e-16 -19.4298)
(212.20349 -1.0440927e-16 -18.571478)
(211.4839 -1.9570273e-16 -17.712457)
(210.81486 9.0960068e-17 -16.857083)