/*--------------------------------*- C++ -*----------------------------------*\
  =========                 |
  \\      /  F ield         | OpenFOAM: The Open Source CFD Toolbox
   \\    /   O peration     | Website:  https://openfoam.org
    \\  /    A nd           | Version:  12
     \\/     M anipulation  |
\*---------------------------------------------------------------------------*/
FoamFile
{
    format      ascii;
    class       volScalarField;
    location    "0.027";
    object      k;
}
// * * * * * * * * * * * * * * * * * * * * * * * * * * * * * * * * * * * * * //

dimensions      [0 2 -2 0 0 0 0];

internalField   nonuniform List<scalar> 
16000
(
0.049163648
0.020868207
0.021522174
0.016404932
0.013930047
0.012635593
0.011855817
0.011398465
0.011083474
0.010875649
0.010721664
0.010607959
0.01051957
0.010450336
0.010395186
0.010351108
0.010315932
0.010288131
0.010266082
0.01024867
0.010235753
0.010226097
0.01021941
0.010215299
0.010213388
0.010213412
0.010215149
0.010218411
0.01022304
0.010228887
0.010235815
0.01024371
0.01025249
0.010262092
0.010272476
0.010283614
0.010295485
0.010308075
0.010321368
0.010335337
0.010349928
0.01036506
0.010380627
0.010396501
0.01041253
0.010428554
0.010444429
0.010460033
0.010475279
0.01049012
0.01050456
0.010518654
0.010532506
0.01054625
0.010559999
0.01057377
0.010587367
0.010600248
0.010611319
0.010618667
0.010619335
0.010610261
0.010590549
0.010562446
0.010530696
0.010503036
0.010490853
0.010503477
0.010543975
0.010576295
0.010556947
0.010472926
0.010369191
0.010303592
0.010286451
0.010307092
0.010323123
0.010289229
0.010201185
0.010190861
0.045176962
0.020001618
0.020171994
0.015892753
0.013617402
0.012448131
0.01171498
0.011297707
0.011001149
0.010809403
0.010665321
0.010559966
0.010477782
0.010413867
0.010363156
0.010322897
0.010290954
0.010266018
0.010246676
0.010231564
0.010220768
0.01021314
0.010208364
0.010205996
0.010205757
0.010207356
0.010210586
0.010215263
0.010221233
0.010228354
0.010236485
0.010245505
0.010255322
0.010265866
0.010277085
0.010288943
0.010301414
0.010314476
0.010328107
0.010342282
0.010356951
0.010372039
0.010387449
0.010403062
0.010418738
0.010434324
0.010449682
0.010464701
0.010479303
0.010493458
0.01050719
0.01052058
0.010533754
0.010546853
0.010559965
0.01057303
0.010585703
0.010597219
0.01060624
0.010610654
0.01060752
0.01059467
0.010572595
0.010544233
0.010514266
0.010490085
0.010482298
0.010499493
0.010537853
0.010561727
0.010529903
0.010440903
0.010343587
0.010287476
0.010277361
0.010305191
0.010325927
0.010298102
0.010206321
0.010182212
0.042184354
0.019418865
0.019005393
0.015365514
0.013294202
0.012246476
0.011567191
0.011190661
0.01091565
0.010741176
0.010607855
0.010511351
0.010435873
0.010377586
0.010331616
0.010295448
0.010267001
0.010245074
0.010228606
0.010216051
0.010207498
0.01020195
0.010199258
0.010198724
0.010200261
0.010203538
0.010208355
0.010214539
0.010221937
0.01023041
0.010239817
0.010250033
0.010260956
0.010272507
0.010284622
0.010297254
0.010310366
0.010323927
0.010337911
0.010352289
0.010367018
0.010382029
0.010397234
0.010412529
0.010427786
0.010442865
0.010457634
0.01047199
0.010485871
0.010499263
0.010512214
0.010524829
0.010537256
0.010549631
0.010561998
0.010574176
0.010585617
0.010595289
0.010601647
0.010602375
0.010594805
0.010578102
0.010553994
0.010525701
0.010497678
0.010477077
0.010474069
0.010495714
0.010531383
0.010543895
0.01049728
0.010404748
0.010316597
0.010271381
0.010271809
0.010302861
0.010322155
0.010303353
0.010214465
0.010165834
0.039097632
0.019068307
0.017998683
0.014890302
0.013000474
0.012061692
0.011431626
0.01109211
0.010837342
0.010678544
0.010555557
0.010467264
0.010398199
0.010345234
0.010303777
0.010271511
0.010246451
0.010227419
0.010213683
0.01020361
0.01019724
0.010193671
0.01019304
0.010194351
0.010197586
0.010202508
0.010208892
0.010216562
0.010225367
0.010235169
0.010245829
0.010257215
0.01026922
0.010281749
0.010294727
0.01030809
0.010321787
0.010335778
0.01035003
0.010364513
0.010379193
0.01039401
0.010408891
0.010423746
0.010438469
0.010452929
0.010467007
0.010480607
0.01049368
0.010506229
0.010518322
0.010530086
0.010541676
0.01055321
0.010564653
0.010575669
0.01058548
0.010592777
0.010595941
0.010592456
0.010580495
0.010560662
0.010535373
0.010507756
0.010481967
0.010464925
0.010466366
0.010491266
0.010523129
0.010522073
0.010463115
0.0103695
0.010291734
0.010257992
0.010267956
0.010300825
0.010321003
0.010306565
0.010221577
0.010151334
0.035567782
0.018969651
0.017328839
0.014449811
0.012725951
0.011886647
0.011303958
0.010999028
0.010764143
0.010620109
0.010507274
0.010426838
0.010364047
0.010316253
0.010279202
0.010250739
0.010229032
0.010212883
0.010201803
0.010194171
0.010189967
0.010188444
0.010189807
0.010192947
0.010197936
0.010204511
0.01021247
0.010221634
0.010231849
0.010242977
0.010254879
0.010267424
0.010280492
0.010293978
0.010307789
0.010321843
0.010336074
0.010350431
0.010364873
0.010379373
0.010393901
0.010408416
0.010422861
0.010437163
0.010451237
0.010464968
0.010478248
0.01049099
0.010503159
0.010514776
0.010525926
0.010536751
0.010547402
0.01055795
0.010568248
0.010577772
0.010585496
0.010589928
0.010589323
0.010581202
0.010565112
0.01054271
0.010516654
0.010489915
0.010466373
0.010452812
0.010458498
0.010485443
0.010511519
0.010496545
0.010427143
0.010335387
0.010269365
0.010246934
0.010264375
0.010298746
0.010318694
0.010307735
0.010226464
0.010139911
0.033394057
0.01905518
0.016832462
0.014045579
0.012471746
0.011723125
0.011185741
0.010912645
0.010696829
0.010566435
0.010463457
0.010390457
0.010333754
0.010290958
0.010258197
0.010233449
0.010215049
0.010201797
0.010193267
0.010188109
0.010185979
0.010186705
0.010189941
0.010194936
0.010201664
0.010209895
0.010219425
0.010230074
0.010241681
0.010254109
0.01026722
0.010280877
0.010294958
0.01030934
0.010323915
0.01033858
0.010353255
0.010367876
0.010382399
0.010396797
0.010411049
0.010425133
0.010439011
0.010452631
0.010465926
0.010478802
0.01049116
0.010502928
0.010514084
0.010524667
0.010534777
0.010544562
0.010554146
0.010563528
0.010572409
0.010580054
0.010585153
0.010586352
0.010581338
0.010568493
0.010548711
0.010524164
0.010497644
0.010471949
0.010450692
0.010440671
0.010450489
0.010478252
0.010496268
0.010467567
0.010390119
0.01030363
0.010250248
0.010238285
0.010261653
0.010296679
0.010316018
0.010306759
0.010229492
0.010131254
0.031461288
0.019249033
0.016462077
0.013673739
0.012235769
0.011570645
0.011076503
0.010832688
0.01063503
0.010517309
0.010423932
0.010358062
0.010307318
0.010269426
0.010240902
0.010219834
0.010204734
0.010194468
0.010188291
0.01018583
0.010184853
0.010189037
0.010193867
0.010200719
0.010209193
0.010219073
0.010230159
0.010242267
0.010255231
0.01026891
0.010283165
0.010297862
0.010312867
0.010328047
0.010343275
0.010358432
0.010373423
0.010388176
0.010402644
0.010416802
0.010430639
0.010444152
0.010457325
0.010470127
0.010482508
0.010494393
0.010505699
0.010516369
0.010526395
0.010535834
0.0105448
0.010553427
0.010561796
0.0105698
0.010576952
0.010582278
0.010584361
0.01058186
0.010571899
0.010554621
0.010531525
0.010505167
0.010478483
0.010454001
0.010435133
0.010428738
0.010442299
0.010469441
0.01047733
0.010435768
0.010352728
0.010274781
0.010233475
0.010231479
0.010259263
0.010293892
0.010311844
0.010303998
0.010231777
0.010123723
0.028928514
0.019487524
0.016061915
0.013331777
0.012016834
0.01142895
0.010975058
0.010757723
0.010578659
0.01047293
0.010388919
0.010329949
0.010285067
0.010252026
0.010227715
0.010210324
0.010198501
0.010191303
0.010186946
0.010187695
0.010190517
0.010195092
0.010202095
0.010210787
0.010220996
0.0102325
0.0102451
0.010258609
0.010272857
0.010287698
0.010302994
0.010318609
0.010334403
0.01035023
0.010365949
0.010381429
0.010396564
0.01041128
0.010425527
0.010439282
0.010452548
0.010465338
0.010477659
0.010489497
0.010500822
0.010511575
0.010521693
0.010531133
0.010539909
0.010548093
0.010555801
0.010563142
0.010570126
0.01057651
0.010581592
0.01058419
0.010583323
0.010575919
0.010561137
0.01053979
0.010513709
0.01048599
0.01045954
0.01043652
0.010420269
0.01041765
0.010434279
0.010458692
0.010455044
0.010402078
0.010315994
0.010248789
0.010219357
0.010226397
0.01025658
0.010289675
0.010305639
0.010300302
0.010235204
0.01011648
0.02704689
0.019697964
0.015463609
0.013016523
0.011814325
0.011296809
0.01088219
0.010689675
0.010528455
0.010433838
0.010358917
0.010306645
0.010267525
0.010239288
0.010219175
0.010205474
0.0101969
0.010192358
0.010192245
0.010194281
0.010199094
0.01020622
0.010215135
0.010225669
0.010237577
0.010250647
0.01026468
0.010279489
0.010294897
0.010310758
0.010326935
0.010343288
0.010359675
0.01037594
0.010391931
0.010407513
0.010422577
0.010437046
0.010450875
0.010464044
0.010476566
0.01048847
0.010499783
0.010510509
0.010520631
0.010530112
0.010538906
0.010546992
0.010554403
0.010561223
0.010567559
0.010573474
0.010578879
0.010583372
0.010586068
0.010585675
0.010580419
0.010568388
0.010549309
0.010524113
0.010495577
0.010467154
0.010441445
0.010420244
0.010406884
0.010407908
0.010426724
0.010445705
0.010430534
0.01036801
0.010281145
0.010225384
0.010207042
0.010221393
0.010253328
0.010283802
0.01029752
0.010294978
0.010242783
0.010109221
0.025432848
0.019885461
0.014837312
0.012725038
0.011629397
0.011176161
0.010799383
0.010629631
0.010484826
0.010400523
0.010334421
0.010288691
0.010255244
0.010231787
0.010215866
0.010205882
0.010200701
0.010199478
0.010201462
0.010206354
0.010213525
0.010222684
0.010233574
0.010245896
0.010259429
0.01027396
0.010289292
0.010305236
0.010321617
0.010338285
0.010355107
0.010371947
0.010388659
0.010405084
0.010421069
0.010436478
0.010451207
0.010465185
0.010478368
0.010490746
0.010502337
0.010513184
0.010523329
0.010532792
0.01054157
0.010549644
0.01055699
0.010563612
0.010569558
0.010574916
0.010579767
0.010584104
0.010587712
0.01059002
0.010589964
0.010586044
0.01057643
0.010559862
0.010536332
0.010507764
0.01047761
0.01044931
0.010424981
0.010406068
0.010395806
0.010399635
0.010419583
0.010430998
0.010407633
0.010334202
0.010249542
0.01020439
0.010196439
0.010216576
0.010249465
0.010276465
0.010287015
0.010284576
0.010254145
0.010101611
0.023910277
0.020053947
0.014308916
0.012458414
0.011462642
0.011067643
0.010726396
0.010576651
0.010448077
0.010373474
0.010315926
0.010276642
0.010248807
0.01023013
0.010218423
0.01021219
0.010210379
0.010212214
0.010217061
0.01022441
0.010233894
0.010245175
0.010257956
0.010271973
0.010287
0.010302822
0.010319245
0.010336081
0.01035316
0.010370336
0.010387481
0.010404468
0.010421155
0.01043739
0.010453024
0.010467931
0.010482017
0.010495218
0.010507503
0.010518863
0.010529325
0.010538941
0.010547762
0.010555821
0.010563127
0.010569678
0.010575477
0.010580549
0.010584953
0.010588764
0.010592015
0.010594604
0.010596171
0.010595967
0.010592765
0.010584933
0.010570853
0.01054967
0.010522166
0.010491112
0.010460387
0.010433189
0.010410998
0.010394813
0.010387652
0.010393664
0.010413306
0.010418495
0.010388319
0.010302091
0.010221945
0.010185968
0.010187105
0.010211878
0.010245578
0.010268861
0.01027586
0.010274283
0.010249346
0.010093802
0.022550765
0.020207443
0.013849308
0.012216892
0.011313676
0.01097006
0.010663186
0.010531617
0.010418591
0.010353204
0.010303981
0.010271102
0.010248856
0.010234993
0.01022754
0.01022511
0.010226721
0.010231644
0.010239284
0.010249184
0.010260942
0.010274238
0.010288792
0.010304335
0.01032064
0.010337491
0.010354698
0.010372081
0.010389479
0.010406758
0.010423802
0.010440501
0.010456728
0.010472345
0.010487221
0.010501245
0.010514339
0.010526453
0.010537564
0.010547671
0.010556806
0.010565021
0.010572374
0.010578904
0.010584634
0.010589581
0.010593768
0.010597235
0.010600042
0.010602229
0.010603757
0.010604403
0.01060365
0.010600578
0.010593843
0.010581849
0.010563248
0.010537778
0.010507064
0.010474635
0.010444596
0.010419606
0.010400239
0.010386931
0.010381855
0.010391305
0.010411624
0.010411256
0.010366194
0.010275013
0.010198523
0.010169928
0.010178369
0.010207331
0.010242447
0.010262557
0.010266562
0.010263159
0.010235265
0.010085672
0.021319566
0.020286782
0.013423901
0.011998507
0.011182063
0.010884011
0.010610023
0.010494887
0.010396788
0.010340312
0.010299235
0.010272781
0.010256143
0.010247145
0.010244006
0.010245432
0.010250504
0.010258536
0.010268956
0.010281315
0.010295232
0.010310382
0.010326483
0.010343273
0.010360523
0.010378019
0.010395579
0.010413039
0.010430255
0.010447116
0.01046353
0.01047941
0.01049466
0.010509168
0.010522828
0.010535553
0.010547283
0.010557984
0.010567644
0.010576268
0.010583885
0.010590547
0.01059631
0.010601218
0.010605305
0.010608601
0.010611146
0.010612984
0.010614152
0.010614634
0.010614291
0.010612767
0.01060939
0.01060311
0.010592552
0.010576269
0.010553337
0.010524206
0.01049136
0.010458978
0.010431132
0.010409505
0.010393241
0.010382668
0.010378833
0.010399987
0.010414054
0.010406852
0.010345441
0.010254687
0.010179647
0.010155789
0.01016964
0.0102032
0.010240199
0.010258208
0.010259886
0.010252157
0.01021619
0.010077337
0.02020988
0.020275393
0.013038651
0.011802148
0.011067167
0.010809582
0.010567191
0.010467009
0.010383252
0.010335544
0.010302506
0.010282536
0.010271558
0.0102675
0.010268732
0.01027405
0.010282579
0.010293664
0.010306756
0.01032141
0.01033725
0.01035395
0.01037123
0.010388833
0.010406536
0.010424136
0.010441468
0.010458394
0.010474802
0.010490615
0.010505777
0.010520239
0.010533942
0.010546814
0.010558781
0.010569782
0.01057978
0.010588756
0.010596705
0.010603635
0.010609571
0.010614557
0.010618642
0.010621871
0.010624285
0.010625922
0.010626823
0.010627018
0.010626501
0.010625176
0.010622789
0.010618845
0.010612548
0.010602786
0.010588258
0.010567806
0.010541064
0.010509259
0.010475687
0.010445012
0.010421019
0.010404008
0.010390889
0.010381496
0.010391461
0.010414167
0.01041977
0.010400723
0.010331114
0.010241346
0.010166508
0.01014512
0.010160648
0.010199535
0.01023771
0.010254889
0.010254647
0.01024094
0.010189938
0.010068379
0.019207293
0.019954549
0.012690606
0.011627314
0.01096894
0.010747125
0.010535072
0.010448709
0.010378781
0.010339874
0.010314827
0.010301435
0.010296188
0.010297125
0.010302745
0.010311916
0.010323802
0.010337768
0.010353279
0.010369893
0.010387238
0.010404992
0.010422881
0.010440661
0.01045813
0.010475114
0.01049148
0.010507131
0.010522004
0.010536067
0.010549311
0.010561732
0.010573319
0.010584043
0.010593865
0.010602754
0.010610693
0.010617672
0.010623692
0.010628759
0.010632887
0.01063611
0.010638465
0.010639995
0.010640739
0.010640731
0.010639996
0.01063853
0.010636263
0.010633006
0.010628383
0.010621788
0.01061235
0.010598988
0.010580598
0.010556444
0.010526798
0.010493652
0.010460966
0.010433673
0.010415094
0.010403931
0.01039588
0.01039375
0.010412841
0.010428657
0.010428047
0.010395806
0.010323526
0.010235709
0.010160164
0.01013876
0.010152419
0.010196353
0.010233577
0.010250193
0.010248202
0.010226362
0.010166344
0.01005664
0.018297582
0.018942817
0.012377847
0.011473225
0.010887894
0.010697156
0.010514325
0.01044105
0.010384534
0.010354557
0.010337501
0.010330764
0.010331275
0.010337185
0.010347099
0.010359946
0.010374919
0.010391391
0.010408845
0.010426839
0.010445014
0.010463061
0.010480735
0.010497826
0.010514176
0.010529661
0.010544203
0.010557762
0.010570334
0.010581943
0.010592632
0.010602444
0.010611414
0.010619553
0.01062686
0.010633328
0.010638953
0.010643733
0.010647667
0.010650751
0.01065299
0.010654401
0.01065501
0.010654848
0.010653942
0.010652309
0.010649941
0.010646781
0.010642682
0.010637359
0.01063034
0.010620945
0.010608313
0.010591496
0.010569702
0.010542702
0.01051142
0.010478487
0.010448272
0.010425744
0.010413746
0.010408999
0.010407267
0.010415073
0.010433122
0.010443368
0.010435733
0.010394104
0.010322476
0.010237971
0.01016187
0.010135336
0.010147043
0.010194271
0.010228067
0.010242118
0.010237115
0.010211877
0.010144105
0.010040446
0.017474726
0.017538455
0.012103173
0.011339989
0.010823019
0.010660735
0.010506108
0.010445531
0.010402027
0.010381125
0.01037203
0.01037194
0.01037812
0.010388827
0.010402744
0.010418851
0.010436361
0.010454659
0.010473243
0.010491698
0.010509698
0.010526982
0.01054336
0.010558692
0.010572891
0.010585908
0.010597737
0.010608407
0.010617976
0.010626523
0.010634136
0.0106409
0.010646886
0.010652139
0.010656686
0.010660536
0.010663694
0.010666157
0.010667917
0.010668959
0.010669274
0.010668863
0.010667735
0.010665902
0.010663371
0.010660127
0.010656118
0.010651221
0.010645215
0.010637737
0.010628256
0.01061609
0.010600467
0.010580672
0.010556303
0.010527655
0.010496217
0.010465039
0.010438606
0.010421731
0.010416306
0.010418474
0.010424853
0.010437791
0.010452534
0.010456473
0.010441821
0.010395509
0.010327282
0.010246927
0.010172535
0.010138222
0.010148347
0.010193785
0.010222093
0.010231536
0.010220703
0.01018982
0.010126743
0.010029208
0.016734786
0.016683963
0.011871454
0.011228055
0.010775459
0.01063931
0.010511969
0.010463884
0.010432999
0.010421254
0.010420007
0.010426402
0.01043795
0.010452998
0.010470289
0.010488848
0.010507913
0.010526906
0.010545381
0.010562987
0.010579478
0.010594686
0.010608515
0.010620927
0.010631927
0.010641557
0.010649888
0.010657015
0.010663049
0.010668111
0.010672321
0.01067579
0.010678609
0.010680843
0.010682533
0.0106837
0.010684347
0.010684465
0.010684035
0.010683031
0.010681431
0.010679216
0.010676379
0.010672907
0.010668776
0.010663933
0.010658275
0.010651623
0.010643692
0.010634075
0.010622238
0.010607564
0.01058945
0.010567474
0.010541636
0.010512698
0.010482547
0.010454397
0.010432586
0.010422059
0.010421381
0.01042967
0.010443376
0.010457629
0.01046692
0.010465661
0.010444828
0.010399255
0.010336424
0.010260953
0.01018967
0.010149578
0.010157447
0.010194727
0.010216531
0.010220714
0.010206659
0.01017499
0.010115707
0.01002789
0.016069163
0.015656909
0.011673516
0.01113799
0.010746121
0.01063463
0.010533597
0.010498073
0.010479424
0.010476785
0.010483075
0.010495468
0.010511664
0.010530086
0.010549552
0.010569157
0.010588223
0.01060627
0.010622968
0.010638098
0.010651545
0.010663275
0.010673316
0.010681743
0.010688662
0.010694196
0.010698482
0.010701664
0.010703884
0.010705284
0.010705997
0.010706136
0.010705799
0.010705053
0.010703942
0.010702485
0.010700679
0.010698507
0.010695939
0.010692938
0.010689468
0.010685497
0.010680994
0.010675922
0.010670225
0.010663811
0.010656532
0.010648166
0.010638397
0.010626812
0.010612927
0.010596247
0.010576384
0.010553213
0.010527093
0.010499127
0.010471422
0.010447203
0.010430565
0.010424598
0.010427593
0.010439435
0.010456049
0.010469351
0.010473091
0.010468298
0.010443958
0.01040371
0.010348001
0.010278275
0.010209713
0.010166489
0.010166635
0.010197154
0.010212067
0.010210823
0.010193801
0.010160706
0.010106223
0.010029926
0.015472394
0.014979434
0.011512206
0.011070665
0.010736054
0.010649009
0.010573282
0.010550551
0.010543616
0.010549629
0.010562613
0.010579835
0.010599185
0.01061921
0.010638872
0.010657433
0.010674393
0.010689454
0.01070248
0.010713433
0.010722365
0.010729388
0.010734655
0.010738339
0.010740624
0.010741691
0.010741712
0.010740851
0.010739259
0.010737073
0.010734416
0.01073139
0.010728077
0.010724537
0.010720803
0.010716885
0.010712773
0.010708438
0.010703842
0.010698939
0.010693683
0.010688028
0.010681924
0.010675311
0.010668105
0.010660185
0.010651374
0.010641428
0.010630029
0.0106168
0.010601342
0.010583313
0.010562534
0.010539143
0.010513765
0.010487709
0.01046314
0.010443114
0.010431209
0.010428442
0.010434126
0.010447148
0.010462443
0.010472929
0.010474476
0.010465488
0.010441577
0.010406936
0.010360284
0.01029793
0.010232871
0.01018676
0.010177648
0.010200156
0.010207888
0.010200773
0.010181019
0.010146893
0.010096159
0.010030392
0.014939276
0.014208805
0.011384138
0.011028944
0.010747097
0.010685918
0.010634186
0.010624125
0.010627738
0.010640984
0.010658749
0.01067852
0.010698464
0.010717395
0.010734553
0.010749489
0.010761982
0.010771984
0.010779588
0.010784949
0.010788276
0.0107898
0.01078976
0.01078839
0.010785911
0.010782519
0.010778392
0.010773685
0.01076853
0.010763042
0.010757318
0.010751435
0.010745452
0.010739405
0.010733313
0.010727174
0.010720965
0.010714651
0.010708187
0.010701521
0.010694597
0.010687361
0.010679748
0.010671684
0.010663066
0.010653755
0.010643565
0.010632252
0.010619524
0.010605062
0.01058857
0.010569848
0.010548899
0.010526054
0.010502109
0.010478453
0.010457148
0.010440841
0.010432803
0.010432378
0.010439906
0.010453548
0.010467824
0.010476151
0.010476502
0.010466692
0.01044446
0.010412607
0.010371588
0.010318836
0.010258548
0.010209876
0.010189742
0.010202641
0.010202974
0.01019065
0.010169133
0.010134564
0.010085899
0.010027198
0.014469952
0.013622108
0.011294271
0.011017676
0.010783871
0.010749519
0.0107195
0.010720694
0.010732268
0.010749753
0.010768926
0.010787704
0.010804734
0.010819268
0.010830958
0.010839726
0.010845669
0.010848996
0.010849991
0.01084896
0.010846206
0.010842024
0.010836681
0.010830418
0.010823446
0.010815943
0.010808062
0.010799924
0.010791631
0.010783263
0.010774882
0.010766534
0.01075825
0.010750042
0.010741908
0.010733831
0.01072578
0.010717712
0.010709577
0.010701319
0.010692881
0.010684198
0.010675202
0.010665809
0.010655909
0.010645361
0.010633982
0.010621547
0.010607805
0.010592502
0.010575439
0.010556536
0.010535931
0.010514082
0.01049187
0.010470676
0.010452371
0.010439263
0.010433629
0.01043504
0.010443928
0.010457972
0.010471471
0.010478056
0.010478553
0.010470636
0.010450258
0.01042058
0.010383507
0.010338678
0.010285681
0.01023621
0.010207458
0.010204074
0.010196476
0.010181205
0.010158396
0.010123655
0.010077046
0.010024527
0.014070141
0.013153171
0.011245035
0.011041869
0.010873429
0.010842963
0.010830329
0.010839057
0.010853997
0.010870999
0.01088695
0.010900446
0.010910794
0.01091779
0.010921534
0.010922294
0.010920425
0.010916312
0.010910343
0.010902878
0.010894243
0.010884718
0.010874547
0.010863931
0.010853037
0.010842001
0.010830929
0.010819904
0.010808986
0.010798219
0.010787631
0.010777236
0.010767038
0.010757026
0.010747181
0.010737469
0.01072785
0.010718276
0.010708693
0.010699044
0.010689268
0.010679301
0.010669072
0.010658493
0.010647457
0.010635828
0.010623436
0.010610086
0.010595569
0.010579699
0.010562355
0.010543554
0.010523528
0.010502809
0.010482298
0.010463305
0.010447501
0.010436699
0.010432426
0.010435407
0.010445266
0.01045935
0.010472438
0.010478836
0.010479606
0.010475356
0.010457596
0.010429474
0.010394634
0.010354567
0.010309936
0.010263255
0.010226313
0.010204074
0.010191252
0.01017279
0.010148443
0.010113971
0.010069811
0.010022243
0.013748727
0.01277661
0.011240644
0.011101507
0.010981119
0.010965576
0.010962924
0.010972906
0.010984907
0.010995758
0.01100361
0.011007887
0.011008569
0.011005941
0.011000433
0.010992524
0.010982684
0.010971345
0.010958884
0.010945627
0.010931843
0.010917754
0.010903536
0.010889328
0.010875237
0.010861345
0.01084771
0.010834371
0.010821354
0.010808666
0.010796308
0.010784268
0.010772525
0.010761051
0.01074981
0.010738757
0.010727844
0.010717016
0.010706217
0.010695387
0.010684467
0.010673391
0.010662087
0.010650468
0.010638431
0.010625848
0.010612566
0.010598421
0.01058325
0.010566923
0.010549394
0.010530753
0.010511302
0.010491606
0.010472541
0.010455285
0.010441269
0.01043204
0.010428988
0.010432823
0.010442874
0.010456671
0.010470182
0.010478329
0.010479894
0.010478469
0.010464496
0.010437803
0.010404146
0.010365867
0.010323996
0.010280416
0.01023905
0.01020905
0.010188566
0.010165886
0.010139336
0.010105171
0.010064249
0.010020924
0.013523004
0.012503732
0.011283923
0.011203543
0.011119807
0.011108643
0.01110696
0.011110697
0.011113271
0.011112917
0.011108996
0.011101656
0.011091346
0.011078612
0.011063998
0.011047997
0.011031037
0.01101347
0.010995582
0.010977599
0.010959697
0.010942012
0.010924643
0.01090766
0.010891114
0.010875034
0.010859435
0.010844321
0.010829685
0.01081551
0.010801773
0.010788442
0.010775482
0.010762849
0.010750496
0.010738369
0.010726413
0.010714568
0.010702774
0.010690971
0.010679097
0.010667085
0.01065486
0.010642338
0.010629413
0.010615967
0.010601865
0.010586972
0.010571167
0.010554377
0.010536616
0.010518039
0.010498991
0.01048005
0.010462047
0.010446055
0.010433329
0.010425171
0.010422684
0.010426408
0.010435872
0.010449256
0.010463402
0.010474391
0.010478931
0.010479102
0.010468827
0.010444247
0.01041158
0.010374676
0.010334825
0.010293542
0.010253629
0.010217605
0.010188647
0.010161341
0.010132159
0.010098189
0.01005992
0.01001986
0.013392644
0.0123336
0.011384076
0.011336612
0.011273471
0.011258467
0.011247787
0.011238456
0.011226827
0.011212428
0.011195414
0.01117628
0.011155583
0.011133836
0.011111476
0.011088854
0.011066246
0.011043862
0.011021857
0.011000345
0.010979403
0.010959082
0.010939412
0.010920407
0.010902067
0.010884383
0.010867337
0.010850904
0.010835054
0.010819753
0.010804961
0.010790635
0.010776727
0.010763185
0.010749955
0.010736977
0.01072419
0.010711532
0.010698939
0.010686349
0.010673694
0.010660907
0.010647908
0.010634608
0.010620904
0.010606682
0.010591823
0.010576217
0.01055978
0.010542486
0.010524402
0.010505727
0.010486835
0.010468298
0.010450897
0.010435597
0.010423485
0.010415662
0.010413056
0.010416147
0.01042463
0.01043715
0.010451313
0.010464112
0.010472604
0.01047446
0.010467985
0.010447983
0.010417419
0.010381822
0.01034343
0.010303456
0.010263407
0.010225573
0.010191339
0.010159776
0.010127999
0.010093658
0.010056801
0.010018885
0.013325318
0.012260193
0.011548703
0.011484022
0.011425375
0.011395891
0.011369189
0.011343164
0.01131611
0.011288068
0.011259335
0.011230302
0.011201318
0.011172667
0.01114456
0.011117148
0.011090534
0.011064782
0.011039929
0.011015989
0.01099296
0.01097083
0.010949577
0.01092917
0.010909576
0.010890758
0.010872675
0.010855283
0.010838539
0.010822394
0.010806801
0.010791707
0.01077706
0.010762804
0.010748878
0.010735223
0.010721775
0.010708467
0.010695236
0.010682012
0.010668729
0.01065531
0.010641676
0.010627733
0.01061338
0.010598507
0.010583007
0.010566785
0.010549785
0.010532009
0.010513551
0.010494635
0.010475643
0.010457137
0.010439848
0.01042465
0.010412492
0.010404316
0.010400918
0.010402765
0.010409739
0.010420891
0.010434425
0.010447954
0.010458792
0.010464084
0.010460922
0.010447014
0.010421964
0.01038868
0.010351457
0.010312389
0.010272298
0.010232732
0.010195428
0.010160636
0.010126679
0.010091638
0.010055189
0.010018253
0.013333395
0.012218801
0.011707201
0.011621496
0.011551174
0.011502897
0.011458749
0.011417361
0.011377448
0.011338855
0.011301552
0.011265585
0.011230988
0.011197777
0.011165946
0.011135472
0.011106321
0.011078447
0.011051803
0.011026333
0.011001985
0.010978701
0.010956426
0.010935103
0.010914677
0.010895093
0.010876296
0.010858231
0.010840845
0.010824084
0.010807893
0.010792219
0.010777004
0.010762191
0.010747721
0.010733532
0.010719559
0.010705738
0.010692002
0.010678281
0.010664504
0.010650597
0.010636475
0.01062205
0.01060722
0.010591883
0.010575935
0.01055929
0.010541896
0.010523758
0.010504972
0.010485758
0.010466492
0.010447724
0.010430166
0.010414644
0.010402008
0.010393039
0.010388357
0.010388345
0.010393093
0.01040206
0.010413969
0.01042694
0.010438765
0.010446948
0.010448655
0.010441158
0.01042292
0.010394837
0.010360106
0.010321959
0.010281889
0.010240902
0.010200667
0.010162389
0.010125771
0.010089604
0.010053274
0.010017431
0.013425823
0.012246845
0.011827531
0.011721372
0.011635637
0.011571076
0.011513777
0.011461832
0.011413637
0.011368559
0.01132617
0.011286193
0.011248411
0.011212647
0.011178749
0.011146584
0.011116032
0.011086984
0.011059342
0.011033014
0.011007914
0.010983964
0.010961088
0.010939215
0.010918278
0.010898211
0.010878953
0.010860444
0.010842624
0.010825437
0.010808825
0.010792733
0.010777104
0.010761879
0.010747001
0.010732409
0.01071804
0.010703829
0.01068971
0.010675615
0.010661474
0.010647211
0.010632749
0.010618003
0.010602878
0.010587277
0.0105711
0.010554255
0.01053668
0.010518361
0.01049937
0.010479904
0.010460322
0.010441172
0.010423188
0.010407231
0.01039415
0.010384613
0.010378964
0.010377168
0.010378787
0.01038412
0.010393086
0.010404692
0.010416562
0.010426263
0.010431361
0.01042935
0.010418214
0.010397327
0.010367958
0.01033259
0.01029335
0.010251344
0.010207646
0.010163916
0.010121362
0.010079756
0.010040185
0.010011134
0.013550605
0.012303027
0.01189292
0.011771532
0.011675925
0.011602798
0.011539309
0.011482757
0.011431141
0.011383487
0.011339136
0.011297644
0.011258673
0.011221963
0.011187298
0.011154499
0.011123413
0.011093905
0.011065856
0.011039162
0.011013725
0.010989457
0.010966277
0.010944109
0.010922881
0.010902525
0.010882977
0.010864174
0.010846058
0.010828568
0.010811649
0.010795245
0.010779299
0.010763754
0.010748554
0.01073364
0.010718951
0.010704423
0.010689993
0.010675594
0.010661158
0.010646613
0.010631887
0.010616899
0.010601564
0.010585789
0.010569477
0.010552534
0.010534885
0.010516494
0.010497399
0.010477754
0.01045789
0.010438358
0.010419946
0.010403644
0.010390472
0.010381179
0.010375892
0.010374008
0.010373612
0.010373745
0.010376632
0.010387134
0.010399173
0.010409355
0.010415943
0.010416918
0.01041037
0.010395129
0.010371165
0.010339525
0.010301813
0.010259724
0.01021465
0.010166982
0.010115259
0.010060263
0.010016649
0.010001899
85.714783
446.73806
157.94388
20.298778
0.58903019
0.02283572
0.020210222
0.019766501
0.019390721
0.01832523
0.017053966
0.015940843
0.015063574
0.014479881
0.014067108
0.013680967
0.013302647
0.012968519
0.012691634
0.012461754
0.012266356
0.012097613
0.011950709
0.011821989
0.011708432
0.011607559
0.011517401
0.011436393
0.011363307
0.011297163
0.011237145
0.011182534
0.011132699
0.011087094
0.011045279
0.011006879
0.010971558
0.010939001
0.010908899
0.010880962
0.010854928
0.010830546
0.010807597
0.010785917
0.010765415
0.010746074
0.010727952
0.010711191
0.010696007
0.010682625
0.010671222
0.010661879
0.010654586
0.01064931
0.010646133
0.010645384
0.010647699
0.010653968
0.010665346
0.010673771
0.010677639
0.010689705
0.010714031
0.010749383
0.010792087
0.010834402
0.010863722