/*--------------------------------*- C++ -*----------------------------------*\
  =========                 |
  \\      /  F ield         | OpenFOAM: The Open Source CFD Toolbox
   \\    /   O peration     | Website:  https://openfoam.org
    \\  /    A nd           | Version:  12
     \\/     M anipulation  |
\*---------------------------------------------------------------------------*/
FoamFile
{
    format      ascii;
    class       volScalarField;
    location    "0.027";
    object      nut;
}
// * * * * * * * * * * * * * * * * * * * * * * * * * * * * * * * * * * * * * //

dimensions      [0 2 -1 0 0 0 0];

internalField   nonuniform List<scalar> 
16000
(
4.7534161e-07
9.6588624e-06
1.8668514e-05
2.336555e-05
1.8120884e-05
2.4469434e-05
1.7669099e-05
2.3893396e-05
1.9104535e-05
2.5864066e-05
2.2251736e-05
2.566886e-05
2.3631535e-05
2.4091827e-05
2.3334923e-05
2.3166303e-05
2.2926876e-05
2.2851134e-05
2.2856463e-05
2.29578e-05
2.314938e-05
2.3429032e-05
2.3793906e-05
2.4243479e-05
2.4778977e-05
2.540539e-05
2.6129601e-05
2.6963062e-05
2.7919569e-05
2.9013581e-05
3.0260841e-05
3.1682662e-05
3.3306653e-05
3.5166628e-05
3.7303821e-05
3.9766705e-05
4.2612019e-05
4.5906305e-05
4.9731064e-05
5.4185608e-05
5.9382633e-05
6.5450848e-05
7.2550065e-05
8.0869927e-05
9.0626186e-05
0.00010206734
0.00011549221
0.00013124937
0.0001497441
0.00017144791
0.00019691257
0.00022678896
0.00026184057
0.00030293618
0.00035116111
0.0004078742
0.00047468733
0.00055372235
0.00064781192
0.00076083973
0.00089845913
0.0010376965
0.001036602
0.0010349973
0.0010332169
0.0010316473
0.0010309334
0.0010316215
0.0010337549
0.0010354347
0.0010341641
0.0010293619
0.0010235159
0.0010196844
0.0010186037
0.0010195289
0.0010202309
0.0010181094
0.0010127506
0.0010114378
4.242629e-07
9.2424693e-06
1.9319609e-05
2.1093018e-05
1.6399458e-05
2.2034913e-05
1.5722793e-05
2.1042837e-05
1.6866856e-05
2.2925568e-05
2.0125423e-05
2.317028e-05
2.1590882e-05
2.1832685e-05
2.1232117e-05
2.1023018e-05
2.0819166e-05
2.0740147e-05
2.0746016e-05
2.0837696e-05
2.1013686e-05
2.127182e-05
2.1609688e-05
2.20268e-05
2.252399e-05
2.3105852e-05
2.377823e-05
2.4551395e-05
2.5438452e-05
2.6453575e-05
2.7611331e-05
2.8931057e-05
3.0438213e-05
3.2164016e-05
3.4146996e-05
3.6432721e-05
3.9074926e-05
4.2136e-05
4.5691599e-05
4.9835911e-05
5.4677747e-05
6.033797e-05
6.6966923e-05
7.4746139e-05
8.3883888e-05
9.4616205e-05
0.00010722844
0.00012205508
0.00013948597
0.00015997485
0.0001840531
0.00021234996
0.00024560362
0.00028468621
0.00033066919
0.00038489099
0.00044902276
0.0005252246
0.00061636325
0.00072639493
0.00086107535
0.0010292016
0.0010355526
0.0010339422
0.0010322528
0.0010308746
0.0010304096
0.0010313366
0.0010333357
0.0010345146
0.0010325742
0.0010275293
0.0010220248
0.0010187266
0.0010180464
0.0010193721
0.0010203687
0.0010185871
0.0010130898
0.0010108028
3.8508884e-07
8.9294328e-06
1.835652e-05
1.9358655e-05
1.4753695e-05
1.9487982e-05
1.4028323e-05
1.8350521e-05
1.5189426e-05
2.0153709e-05
1.8350247e-05
2.0641823e-05
1.953581e-05
1.9550355e-05
1.9084438e-05
1.8863617e-05
1.8691886e-05
1.8620996e-05
1.8631612e-05
1.8719442e-05
1.8883965e-05
1.9123684e-05
1.9436647e-05
1.9822533e-05
2.0282083e-05
2.0819779e-05
2.1440863e-05
2.2154673e-05
2.2973528e-05
2.3911429e-05
2.498229e-05
2.6204017e-05
2.7600426e-05
2.9200657e-05
3.1041024e-05
3.3164653e-05
3.5622964e-05
3.8475617e-05
4.1793891e-05
4.5667371e-05
5.0202791e-05
5.5516437e-05
6.1752033e-05
6.9085359e-05
7.7721873e-05
8.7891235e-05
9.987187e-05
0.0001139919
0.00013063499
0.00015024854
0.00017335642
0.00020057983
0.00023265098
0.0002704485
0.00031505034
0.00036780634
0.00043043529
0.00050517162
0.00059498989
0.00070401802
0.00083830812
0.0010071828
0.0010344615
0.0010328627
0.0010312759
0.0010300957
0.001029899
0.0010310567
0.001032906
0.0010334353
0.0010306991
0.0010254579
0.001020454
0.0010177588
0.0010176611
0.0010191791
0.0010200409
0.001018778
0.0010133965
0.0010097571
3.4789917e-07
8.690836e-06
1.7492182e-05
1.9299831e-05
1.4320312e-05
1.7290292e-05
1.2536522e-05
1.6080834e-05
1.3698219e-05
1.7800467e-05
1.6751961e-05
1.8417469e-05
1.7659008e-05
1.7514617e-05
1.7149646e-05
1.693432e-05
1.6789957e-05
1.6729747e-05
1.6745422e-05
1.6830422e-05
1.6984699e-05
1.7207525e-05
1.7497511e-05
1.7854737e-05
1.8279773e-05
1.87773e-05
1.9352138e-05
2.001287e-05
2.0771034e-05
2.1640496e-05
2.2634795e-05
2.377063e-05
2.5070518e-05
2.656183e-05
2.8279052e-05
3.0263242e-05
3.256388e-05
3.523868e-05
3.8355638e-05
4.2000014e-05
4.6277439e-05
5.1301352e-05
5.7210733e-05
6.4176593e-05
7.2404162e-05
8.2119992e-05
9.3599156e-05
0.00010716794
0.00012320947
0.00014217262
0.00016458275
0.00019106682
0.00022236679
0.00025938043
0.00030320998
0.00035524102
0.00041725052
0.00049155367
0.00058124232
0.00069061747
0.00082601498
0.00099725278
0.0010333673
0.0010318083
0.0010303426
0.0010293597
0.0010294142
0.0010307291
0.0010323764
0.0010321451
0.001028738
0.0010234358
0.0010190031
0.001016958
0.0010173971
0.0010189905
0.0010199368
0.0010188467
0.0010136321
0.0010089514
3.0888372e-07
8.5403461e-06
1.6847625e-05
1.9124992e-05
1.4217225e-05
1.5342841e-05
1.1302701e-05
1.4168085e-05
1.2423446e-05
1.577948e-05
1.535335e-05
1.6437293e-05
1.5938651e-05
1.568566e-05
1.5391453e-05
1.5188733e-05
1.5063285e-05
1.501076e-05
1.5027796e-05
1.5107589e-05
1.5250186e-05
1.5455686e-05
1.5722979e-05
1.6052714e-05
1.6445435e-05
1.6905825e-05
1.743844e-05
1.8051248e-05
1.8754964e-05
1.9563256e-05
2.0489474e-05
2.1549346e-05
2.276435e-05
2.4160367e-05
2.5770355e-05
2.7633616e-05
2.9797943e-05
3.2319646e-05
3.5264536e-05
3.8713711e-05
4.2772192e-05
4.7551986e-05
5.318909e-05
5.9850182e-05
6.7742014e-05
7.7090686e-05
8.8170595e-05
0.00010130957
0.00011689442
0.00013538184
0.00015730605
0.00018331012
0.00021415872
0.00025078222
0.00029432646
0.00034623617
0.0004083675
0.00048314848
0.00057383077
0.00068497092
0.00082331017
0.00099937705
0.0010322635
0.0010307518
0.0010294094
0.0010286165
0.001028902
0.0010303202
0.0010316376
0.0010306551
0.0010266725
0.0010214758
0.0010176765
0.001016285
0.001017127
0.0010187877
0.0010197084
0.001018805
0.0010138449
0.0010083251
2.8335602e-07
8.4547771e-06
1.6323145e-05
1.8337569e-05
1.4043979e-05
1.3639679e-05
1.1610758e-05
1.2805304e-05
1.2357453e-05
1.4090667e-05
1.4139824e-05
1.4701979e-05
1.4364409e-05
1.4045905e-05
1.3792064e-05
1.3602303e-05
1.3488476e-05
1.3440777e-05
1.345731e-05
1.353168e-05
1.3663516e-05
1.385378e-05
1.4101058e-05
1.440672e-05
1.4771314e-05
1.5199475e-05
1.5695575e-05
1.6267127e-05
1.6924051e-05
1.7679784e-05
1.8547679e-05
1.9542721e-05
2.0685618e-05
2.2001061e-05
2.3520815e-05
2.5282788e-05
2.7333408e-05
2.9728018e-05
3.2531423e-05
3.5821196e-05
3.9701838e-05
4.428531e-05
4.9706805e-05
5.6129188e-05
6.3762357e-05
7.2834722e-05
8.3622742e-05
9.6459377e-05
0.0001117392
0.00012993348
0.00015159316
0.00017738825
0.00020811994
0.0002447694
0.00028854983
0.00034099259
0.00040406768
0.00048036016
0.00057334326
0.00068793476
0.0008314465
0.0010153933
0.0010311403
0.0010296828
0.0010284668
0.0010278724
0.0010283844
0.0010298439
0.0010307076
0.0010289714
0.0010245451
0.0010196401
0.0010165157
0.0010157478
0.0010168989
0.0010185866
0.0010194584
0.0010186294
0.0010139428
0.0010078296
2.6107918e-07
8.4080642e-06
1.5891069e-05
1.6958111e-05
1.3395602e-05
1.1998901e-05
1.0612e-05
1.1570655e-05
1.106099e-05
1.2604905e-05
1.2974684e-05
1.312628e-05
1.286413e-05
1.2527331e-05
1.2300931e-05
1.2129507e-05
1.2028568e-05
1.198851e-05
1.2007348e-05
1.2079793e-05
1.2204177e-05
1.2383724e-05
1.261536e-05
1.2825136e-05
1.3157489e-05
1.3550864e-05
1.4009136e-05
1.4539204e-05
1.5150023e-05
1.5854471e-05
1.6665888e-05
1.7598555e-05
1.8672497e-05
1.9911275e-05
2.1345567e-05
2.3012041e-05
2.4955857e-05
2.7231385e-05
2.9903192e-05
3.3297271e-05
3.7038482e-05
4.146998e-05
4.6728391e-05
5.2973545e-05
6.04192e-05
6.9298741e-05
7.9893251e-05
9.2544013e-05
0.00010765676
0.0001257236
0.0001473195
0.0001731518
0.0002040721
0.00024113136
0.00028563597
0.00033923855
0.00040407386
0.00048294476
0.00057966331
0.00069966846
0.00085113404
0.001031562
0.0010300082
0.0010286134
0.001027531
0.0010271425
0.00102786
0.0010292798
0.0010295752
0.0010271238
0.0010223948
0.0010179554
0.0010154951
0.0010152811
0.0010166868
0.0010183397
0.0010190962
0.0010183581
0.0010140216
0.0010073567
2.3499026e-07
8.3787046e-06
1.5462938e-05
1.5138233e-05
1.1220449e-05
1.0475259e-05
8.7043172e-06
9.8515866e-06
9.7723378e-06
1.1374653e-05
1.1794079e-05
1.1652752e-05
1.1427958e-05
1.1110343e-05
1.0910815e-05
1.0763177e-05
1.067862e-05
1.0649646e-05
1.0609183e-05
1.0667381e-05
1.0777894e-05
1.0940493e-05
1.1154227e-05
1.141799e-05
1.1735985e-05
1.2110988e-05
1.2547031e-05
1.3051038e-05
1.3631516e-05
1.4301059e-05
1.5073391e-05
1.5962483e-05
1.6988126e-05
1.8173228e-05
1.9547938e-05
2.1148243e-05
2.3018702e-05
2.5213285e-05
2.7797067e-05
3.0848271e-05
3.4460918e-05
3.8753091e-05
4.3864691e-05
5.0376429e-05
5.7706378e-05
6.6477463e-05
7.6978322e-05
8.9561638e-05
0.00010464774
0.00012275621
0.00014449349
0.00017061514
0.00020203824
0.00023990451
0.00028564401
0.00034107609
0.00040856052
0.00049122247
0.00059338184
0.00072124254
0.00088426712
0.0010304163
0.001028891
0.0010275747
0.0010266402
0.0010264645
0.0010273423
0.0010285997
0.0010282567
0.0010251641
0.0010202808
0.0010164227
0.0010146218
0.0010149257
0.0010164576
0.0010180156
0.0010185966
0.0010180949
0.0010141524
0.0010069142
2.1526838e-07
8.3408734e-06
1.4947796e-05
1.3322236e-05
9.2173994e-06
9.357641e-06
7.49206e-06
8.9004517e-06
9.018735e-06
1.0169986e-05
1.0634844e-05
1.0300468e-05
1.0092419e-05
9.8102876e-06
9.6357587e-06
9.4454665e-06
9.352874e-06
9.3204106e-06
9.3415204e-06
9.4120928e-06
9.5289959e-06
9.6928207e-06
9.9031743e-06
1.0159762e-05
1.0466491e-05
1.0827008e-05
1.1245508e-05
1.1729023e-05
1.2285768e-05
1.2928004e-05
1.3669913e-05
1.4525364e-05
1.5514175e-05
1.6658845e-05
1.798929e-05
1.9541216e-05
2.1358987e-05
2.3496616e-05
2.6019422e-05
2.9005964e-05
3.2552132e-05
3.6776027e-05
4.1823201e-05
4.7858014e-05
5.5089707e-05
6.3774474e-05
7.4868464e-05
8.7503931e-05
0.00010270581
0.00012102763
0.0001431155
0.00016978458
0.00020203347
0.0002411179
0.00028862682
0.00034659895
0.00041770574
0.0005055536
0.00061517976
0.00075396693
0.00093328848
0.0010292991
0.0010278263
0.0010266113
0.0010258385
0.0010258698
0.001026848
0.0010277946
0.001026815
0.0010231846
0.0010182687
0.0010150259
0.0010138554
0.0010145711
0.0010161951
0.0010176185
0.0010180866
0.0010177967
0.0010145106
0.0010064735
1.9847235e-07
8.301035e-06
1.2722416e-05
1.1642202e-05
7.5127817e-06
8.3775264e-06
6.7696471e-06
7.9702352e-06
8.4151524e-06
9.1029602e-06
9.497381e-06
9.0738466e-06
8.8710342e-06
8.5442012e-06
8.3610677e-06
8.2410155e-06
8.1814151e-06
8.1736639e-06
8.2119905e-06
8.2941537e-06
8.4173655e-06
8.5828298e-06
8.7912951e-06
9.0427285e-06
9.3413554e-06
9.6912865e-06
1.0096918e-05
1.0565505e-05
1.1105096e-05
1.1727624e-05
1.2447759e-05
1.3279556e-05
1.424306e-05
1.5360605e-05
1.666216e-05
1.818351e-05
1.9969209e-05
2.2073783e-05
2.4563647e-05
2.7518819e-05
3.1036669e-05
3.5236797e-05
4.027062e-05
4.6306132e-05
5.3559913e-05
6.2297419e-05
7.2841124e-05
8.5560527e-05
0.00010184648
0.00012056281
0.00014322354
0.00017071549
0.00020413686
0.00024488375
0.00029474631
0.00035604961
0.00043189226
0.00052654192
0.00064610727
0.00079973247
0.0010016877
0.0010282513
0.0010268593
0.0010257714
0.0010251622
0.001025339
0.0010263654
0.0010268933
0.0010254631
0.00102123
0.0010164282
0.0010137558
0.0010131894
0.0010142296
0.0010158947
0.0010171286
0.0010174486
0.0010170905
0.0010150993
0.001006014
1.8308266e-07
8.2591449e-06
1.0135755e-05
9.4510461e-06
6.4304658e-06
7.4487512e-06
6.1918078e-06
7.1698251e-06
7.8465149e-06
8.1203385e-06
8.3912297e-06
7.8739013e-06
7.6249751e-06
7.3954603e-06
7.2580605e-06
7.1758833e-06
7.1444028e-06
7.1577465e-06
7.2112897e-06
7.3038879e-06
7.4335233e-06
7.6017437e-06
7.8101881e-06
8.0592295e-06
8.3531943e-06
8.696668e-06
9.0943625e-06
9.5538003e-06
1.0083051e-05
1.0693776e-05
1.1342239e-05
1.215083e-05
1.3090066e-05
1.4182095e-05
1.545693e-05
1.6950472e-05
1.8707537e-05
2.0783219e-05
2.3245164e-05
2.6175148e-05
2.9673097e-05
3.4128151e-05
3.9201705e-05
4.5302073e-05
5.2653227e-05
6.1531062e-05
7.2279575e-05
8.5293586e-05
0.00010107192
0.00012023766
0.00014487062
0.00017348459
0.00020845726
0.00025135531
0.00030421889
0.00036974421
0.00045159794
0.00055496264
0.00068747464
0.00086087696
0.0010288824
0.0010273085
0.001026035
0.0010250957
0.0010246524
0.0010249391
0.0010259167
0.0010261164
0.0010242902
0.0010193714
0.0010148016
0.0010126323
0.0010126065
0.0010139002
0.0010155902
0.0010166138
0.0010167638
0.0010164694
0.0010147884
0.0010055444
1.6951e-07
8.2145026e-06
8.0940621e-06
8.3511102e-06
5.7266138e-06
6.6049756e-06
5.6849928e-06
6.4655172e-06
7.2814534e-06
7.2079866e-06
7.1970008e-06
6.7602754e-06
6.5556691e-06
6.385337e-06
6.2870659e-06
6.2366537e-06
6.2294457e-06
6.2614698e-06
6.3290755e-06
6.4320184e-06
6.568921e-06
6.7415431e-06
6.9522814e-06
7.2020113e-06
7.4951615e-06
7.8029638e-06
8.190969e-06
8.6402968e-06
9.1589485e-06
9.7582207e-06
1.0451676e-05
1.1256963e-05
1.2193765e-05
1.3284491e-05
1.4559715e-05
1.6056087e-05
1.7819471e-05
1.9906354e-05
2.238668e-05
2.534522e-05
2.888601e-05
3.3138437e-05
3.8259814e-05
4.4436864e-05
5.1903343e-05
6.1478716e-05
7.2545931e-05
8.5990925e-05
0.00010234563
0.00012228969
0.00014666385
0.00017819065
0.00021513425
0.00026072825
0.00031732063
0.00038807873
0.00047741348
0.00059174219
0.00074082114
0.00094013262
0.0010279363
0.0010265092
0.0010253901
0.0010246043
0.0010242752
0.0010247147
0.0010257228
0.0010256198
0.0010229817
0.0010177809
0.0010134055
0.0010116569
0.0010120628
0.0010135854
0.0010153295
0.0010161791
0.001016206
0.0010158221
0.0010139698
0.0010050595
1.5735607e-07
8.1520372e-06
6.5115287e-06
7.3264902e-06
5.1147483e-06
5.8539275e-06
5.2475239e-06
5.8361128e-06
6.6053938e-06
6.1699746e-06
6.1191478e-06
5.7835333e-06
5.6204769e-06
5.4983845e-06
5.4339919e-06
5.4112549e-06
5.4258791e-06
5.4753283e-06
5.5567578e-06
5.6705987e-06
5.816165e-06
5.9953444e-06
6.1848795e-06
6.4328272e-06
6.7239007e-06
7.0621404e-06
7.4544132e-06
7.9080141e-06
8.4312189e-06
9.0355998e-06
9.7349622e-06
1.0546847e-05
1.149236e-05
1.2594463e-05
1.3884549e-05
1.5400386e-05
1.7189422e-05
1.931006e-05
2.1835279e-05
2.4853913e-05
2.8474351e-05
3.2831227e-05
3.8093839e-05
4.4458165e-05
5.2171912e-05
6.1543244e-05
7.2955573e-05
8.687325e-05
0.00010478772
0.00012573379
0.00015143867
0.00018308567
0.00022432213
0.00027321917
0.00033435496
0.0004114846
0.0005099694
0.00063783941
0.00080770221
0.0010287502
0.0010271359
0.0010258995
0.001024951
0.0010243069
0.001024052
0.0010250673
0.0010257682
0.0010253102
0.0010217221
0.0010165642
0.0010122599
0.0010108028
0.001011533
0.0010132961
0.001015119
0.0010158733
0.001015809
0.0010151912
0.0010127797
0.0010045724
1.4651821e-07
8.0767065e-06
5.2691532e-06
6.4101571e-06
4.5578411e-06
5.1774625e-06
4.8722833e-06
5.1907421e-06
5.7680107e-06
5.2685819e-06
5.1736685e-06
4.928027e-06
4.8041049e-06
4.7223955e-06
4.6881643e-06
4.6904402e-06
4.7254996e-06
4.7918657e-06
4.8874699e-06
4.9946186e-06
5.144698e-06
5.3282771e-06
5.5475709e-06
5.805487e-06
6.1062056e-06
6.4541741e-06
6.8562155e-06
7.3203057e-06
7.8550046e-06
8.47212e-06
9.1856768e-06
1.0013566e-05
1.09279e-05
1.2042142e-05
1.3347839e-05
1.4883893e-05
1.6699607e-05
1.8855437e-05
2.1427556e-05
2.4509543e-05
2.8215413e-05
3.2934631e-05
3.8393711e-05
4.5013266e-05
5.3056724e-05
6.2851091e-05
7.4813514e-05
8.9450345e-05
0.00010739102
0.00013062172
0.00015796262
0.00019177812
0.00023378908
0.00028903927
0.00035561426
0.00044036536
0.00054982511
0.00069403078
0.0008892288
0.0010278999
0.0010265242
0.0010255387
0.0010247595
0.0010241953
0.0010245937
0.0010257793
0.0010260105
0.0010248512
0.0010208183
0.0010157368
0.0010114363
0.0010101494
0.0010109907
0.0010130231
0.0010148982
0.0010156538
0.0010154849
0.0010145166
0.0010111893
0.0010040569
1.3684437e-07
7.9164261e-06
4.3172809e-06
5.5888652e-06
4.0604997e-06
4.574721e-06
4.5406068e-06
4.4895165e-06
4.9291403e-06
4.4647509e-06
4.3536133e-06
4.1819698e-06
4.0953439e-06
4.0486446e-06
4.0418918e-06
4.0673373e-06
4.1219677e-06
4.1886361e-06
4.2935383e-06
4.4283847e-06
4.5940235e-06
4.7919671e-06
5.0251295e-06
5.2966381e-06
5.611259e-06
5.973731e-06
6.3909786e-06
6.8509685e-06
7.3979114e-06
8.0283388e-06
8.7564291e-06
9.6002277e-06
1.0581753e-05
1.1728632e-05
1.3073716e-05
1.4657654e-05
1.6532647e-05
1.876229e-05
2.1426969e-05
2.4626697e-05
2.848301e-05
3.3149165e-05
3.8810452e-05
4.5695706e-05
5.4087938e-05
6.4877417e-05
7.7521683e-05
9.3038535e-05
0.00011212138
0.00013565036
0.0001662995
0.00020269571
0.00024814052
0.00030525844
0.00038131009
0.00047497784
0.00059725357
0.00076049893
0.00098518344
0.0010271999
0.0010261396
0.0010254724
0.0010249561
0.0010247447
0.0010257203
0.0010265063
0.0010263901
0.0010244549
0.0010203107
0.0010153341
0.0010109997
0.0010097505
0.0010104874
0.001012758
0.001014586
0.0010153496
0.0010150835
0.0010135214
0.0010098667
0.0010033809
1.2825807e-07
7.5537469e-06
3.6994607e-06
4.8589804e-06
3.6147317e-06
4.0379974e-06
4.0217938e-06
3.8539898e-06
4.1259313e-06
3.7543973e-06
3.6505675e-06
3.5379816e-06
3.4862877e-06
3.4704802e-06
3.4888459e-06
3.5231543e-06
3.590573e-06
3.6869368e-06
3.8114644e-06
3.9644173e-06
4.1472783e-06
4.3620898e-06
4.6121969e-06
4.9010319e-06
5.2221022e-06
5.5999266e-06
6.0331615e-06
6.5298573e-06
7.1001328e-06
7.7560348e-06
8.5122337e-06
9.3876754e-06
1.0405509e-05
1.1594715e-05
1.2990862e-05
1.463664e-05
1.6587819e-05
1.8912014e-05
2.1694285e-05
2.5042551e-05
2.908572e-05
3.3988337e-05
3.9952794e-05
4.7224806e-05
5.6112829e-05
6.6999119e-05
8.1073728e-05
9.7641628e-05
0.00011807549
0.00014335911
0.00017473476
0.00021588298
0.00026529991
0.00032773861
0.00040740228
0.0005152435
0.00065189473
0.00083617225
0.0010280049
0.0010266982
0.0010260023
0.0010256811
0.0010255034
0.0010258481
0.0010267589
0.0010272228
0.0010267217
0.0010242623
0.0010201813
0.0010153723
0.0010110108
0.0010095396
0.0010100982
0.0010125459
0.0010142212
0.0010148415
0.0010143759
0.0010125791
0.0010085943
0.0010024534
1.2086189e-07
7.1501201e-06
3.2535201e-06
4.2059641e-06
3.2174458e-06
3.4089944e-06
3.5628717e-06
3.2726612e-06
3.40239e-06
3.1377423e-06
3.055434e-06
2.9895112e-06
2.9694845e-06
2.9812383e-06
3.0078712e-06
3.0712104e-06
3.1623487e-06
3.2801233e-06
3.4246676e-06
3.5969792e-06
3.7990921e-06
4.0333428e-06
4.2954257e-06
4.6023172e-06
4.9533446e-06
5.3541958e-06
5.8117081e-06
6.3342749e-06
6.9322937e-06
7.6186745e-06
8.4086902e-06
9.322276e-06
1.0383886e-05
1.1624301e-05
1.3026187e-05
1.4732398e-05
1.6758341e-05
1.9176358e-05
2.2208994e-05
2.5735969e-05
3.0003926e-05
3.5189245e-05
4.1513386e-05
4.9242755e-05
5.871184e-05
7.0340221e-05
8.4651657e-05
0.0001023037
0.00012523698
0.00015253677
0.00018652219
0.00022903037
0.00028519501
0.00035357636
0.00044121525
0.00056049896
0.00071231205
0.00091788469
0.0010273859
0.0010264079
0.0010260757
0.0010261215
0.0010263821
0.0010270113
0.0010277494
0.0010278973
0.0010269849
0.0010242643
0.0010203822
0.0010157898
0.0010115138
0.0010095908
0.0010099768
0.0010124298
0.0010138269
0.001014179
0.0010133526
0.0010113879
0.0010075824
0.0010018082
1.148876e-07
6.0859241e-06
2.8702089e-06
3.6107378e-06
2.8731773e-06
2.8284999e-06
3.1074353e-06
2.7476195e-06
2.7818079e-06
2.6109052e-06
2.5565902e-06
2.5285493e-06
2.5297137e-06
2.5595498e-06
2.6206929e-06
2.7091113e-06
2.8229707e-06
2.9621382e-06
3.1275073e-06
3.3205289e-06
3.5386696e-06
3.79269e-06
4.0828376e-06
4.4131977e-06
4.7886493e-06
5.2151086e-06
5.6997708e-06
6.2514159e-06
6.8808507e-06
7.5853339e-06
8.4084225e-06
9.3589196e-06
1.0462566e-05
1.1751644e-05
1.3266582e-05
1.505802e-05
1.7188702e-05
1.973736e-05
2.280196e-05
2.6503964e-05
3.0994876e-05
3.6724024e-05
4.3462169e-05
5.1717743e-05
6.1853768e-05
7.4328473e-05
8.9716631e-05
0.00010874354
0.00013354328
0.00016310378
0.00019999557
0.00024625068
0.00030755543
0.00038231843
0.00047833382
0.00060323418
0.00077561076
0.00099981928
0.0010269827
0.0010263676
0.0010262785
0.001026647
0.0010273089
0.0010280132
0.001028457
0.0010283475
0.0010270918
0.0010244119
0.0010208211
0.0010165002
0.0010124093
0.0010100904
0.0010104442
0.001012398
0.0010134482
0.001013516
0.0010125055
0.0010104945
0.0010069323
0.0010017218
1.0975229e-07
4.3325871e-06
2.5162804e-06
3.0588276e-06
2.4392922e-06
2.3420337e-06
2.6312673e-06
2.2806444e-06
2.2650429e-06
2.1669729e-06
2.143487e-06
2.1412194e-06
2.170664e-06
2.231044e-06
2.3183405e-06
2.4302766e-06
2.5662468e-06
2.7268163e-06
2.910794e-06
3.124109e-06
3.3678838e-06
3.6450231e-06
3.9590515e-06
4.3142454e-06
4.7157558e-06
5.1697886e-06
5.6838795e-06
6.2581571e-06
6.9185258e-06
7.6727907e-06
8.5384856e-06
9.5374361e-06
1.0697197e-05
1.2052445e-05
1.3646755e-05
1.5534598e-05
1.7783915e-05
2.047955e-05
2.3727515e-05
2.7660035e-05
3.244197e-05
3.8278201e-05
4.5761157e-05
5.4605726e-05
6.5487373e-05
7.8906059e-05
9.5490166e-05
0.00011603465
0.0001415514
0.00017489253
0.00021492142
0.00026517133
0.00032861043
0.00041310377
0.0005173227
0.00065236487
0.00083738055
0.0010277995
0.0010268044
0.0010264455
0.0010265369
0.0010270943
0.0010279182
0.0010285664
0.0010287104
0.0010284609
0.0010269893
0.0010246013
0.0010213935
0.001017402
0.001013468
0.0010109516
0.001010862
0.0010124417
0.0010131379
0.0010129042
0.0010117377
0.0010096525
0.0010063657
0.0010018231
1.0444023e-07
3.5789267e-06
2.1534413e-06
2.5508209e-06
2.0836329e-06
1.9343322e-06
2.1442951e-06
1.8714407e-06
1.8446047e-06
1.8019955e-06
1.8052628e-06
1.8342276e-06
1.8954755e-06
1.9827419e-06
2.0937084e-06
2.2275647e-06
2.3846246e-06
2.5642193e-06
2.7710353e-06
3.0063103e-06
3.2726516e-06
3.5732076e-06
3.9117335e-06
4.2927057e-06
4.7214943e-06
5.2045801e-06
5.7437823e-06
6.3582034e-06
7.0556838e-06
7.8510317e-06
8.7629146e-06
9.81471e-06
1.1035908e-05
1.24637e-05
1.4145055e-05
1.6139008e-05
1.8519199e-05
2.1377371e-05
2.4828251e-05
2.9014617e-05
3.4115055e-05
4.0642868e-05
4.835851e-05
5.7845025e-05
6.9537732e-05
8.3979993e-05
0.00010185503
0.00012402618
0.00015299341
0.00018762332
0.00023090774
0.0002852225
0.00035369201
0.00044461339
0.00055610957
0.00069918179
0.00089225806
0.0010275102
0.0010267887
0.0010265893
0.0010268182
0.0010274405
0.0010281935
0.0010286904
0.0010287393
0.0010282436
0.0010267877
0.0010247184
0.001022008
0.0010184329
0.0010146946
0.001012013
0.0010113971
0.001012531
0.001012852
0.0010122773
0.0010109677
0.001008836
0.0010057712
0.0010018376
1.0052028e-07
2.857698e-06
1.8386394e-06
2.0411549e-06
1.7886333e-06
1.5848454e-06
1.6959471e-06
1.5250932e-06
1.51366e-06
1.515009e-06
1.5454541e-06
1.6075864e-06
1.6955476e-06
1.8059059e-06
1.9378202e-06
2.0915833e-06
2.2672881e-06
2.468044e-06
2.6955315e-06
2.9521681e-06
3.2408323e-06
3.5648832e-06
3.9282506e-06
4.3355784e-06
4.7924283e-06
5.3021563e-06
5.878002e-06
6.5278905e-06
7.2642925e-06
8.1028951e-06
9.0636574e-06
1.0171625e-05
1.1458452e-05
1.2964054e-05
1.4738853e-05
1.6846551e-05
1.93672e-05
2.2399781e-05
2.6068675e-05
3.0528285e-05
3.6206585e-05
4.29282e-05
5.1183873e-05
6.1351161e-05
7.3899868e-05
8.9418121e-05
0.00010864296
0.00013250332
0.00016363305
0.00020088059
0.00024738512
0.00030560303
0.00037869872
0.00047511867
0.00059217197
0.00074007431
0.00093537917
0.0010273229
0.0010268286
0.0010267415
0.0010270694
0.001027732
0.0010284323
0.0010287941
0.0010287808
0.0010282188
0.0010268686
0.0010249663
0.0010225718
0.0010195357
0.0010160695
0.0010132458
0.0010120148
0.0010126205
0.0010125119
0.0010116372
0.0010102404
0.0010081065
0.0010051702
0.0010016486
9.8224681e-08
2.2306369e-06
1.5648433e-06
1.555538e-06
1.5168286e-06
1.2863919e-06
1.3313016e-06
1.2488645e-06
1.2654231e-06
1.2981094e-06
1.3620002e-06
1.4502081e-06
1.5597858e-06
1.6894826e-06
1.8396388e-06
2.011348e-06
2.2056069e-06
2.425405e-06
2.6727042e-06
2.9501675e-06
3.2608486e-06
3.6082626e-06
3.9964874e-06
4.4303195e-06
4.915492e-06
5.4589712e-06
6.0693465e-06
6.757309e-06
7.5281109e-06
8.4112759e-06
9.4225581e-06
1.0588801e-05
1.1944e-05
1.3531065e-05
1.5404015e-05
1.7701051e-05
2.0388185e-05
2.362658e-05
2.7551198e-05
3.2330043e-05
3.8172129e-05
4.5337335e-05
5.4150307e-05
6.5015479e-05
7.8437313e-05
9.5045941e-05
0.00011562826
0.00014240104
0.000174369
0.00021412221
0.00026361828
0.0003253096
0.00040605945
0.00050272536
0.00062304711
0.00077214308
0.00096415845
0.0010271835
0.001026818
0.0010268294
0.0010272353
0.0010279238
0.0010285752
0.0010288262
0.0010288156
0.0010283599
0.0010271135
0.0010253386
0.0010231693
0.0010205787
0.0010175252
0.0010146628
0.0010129525
0.0010126406
0.0010120679
0.0010110467
0.0010095908
0.0010074599
0.0010046512
0.0010014902
9.834493e-08
1.6949508e-06
1.3334242e-06
1.1834273e-06
1.2438096e-06
1.0367883e-06
1.0637317e-06
1.0448774e-06
1.0901645e-06
1.1525807e-06
1.2406424e-06
1.3486035e-06
1.4754875e-06
1.6215273e-06
1.7878684e-06
1.9760997e-06
2.1878759e-06
2.4258307e-06
2.692282e-06
2.9900321e-06
3.3222558e-06
3.6925891e-06
4.1052459e-06
4.5651836e-06
5.0783335e-06
5.6519143e-06
6.2948561e-06
7.0183374e-06
7.8364644e-06
8.767137e-06
9.8330838e-06
1.1063234e-05
1.2494253e-05
1.4172522e-05
1.6156483e-05
1.8519537e-05
2.1353682e-05
2.4774244e-05
2.8925172e-05
3.3986287e-05
4.0181883e-05
4.7790764e-05
5.7157677e-05
6.8713532e-05
8.2992854e-05
0.00010149179
0.00012353954
0.00015085735
0.00018472494
0.00022672339
0.00027879116
0.00034650402
0.00042682314
0.00052576161
0.00064695463
0.00080174434
0.00097888332
0.0010269902
0.0010266886
0.0010268022
0.0010272606
0.0010279499
0.0010285737
0.0010288164
0.0010288162
0.0010285666
0.0010274533
0.0010257615
0.0010237216
0.001021402
0.0010188172
0.0010161112
0.0010139414
0.0010125781
0.0010117189
0.0010105264
0.0010089933
0.0010068863
0.0010042252
0.0010013545
1.0169057e-07
1.2573211e-06
1.141514e-06
9.11126e-07
1.0849849e-06
8.3102894e-07
8.8025991e-07
9.0680383e-07
9.7502173e-07
1.0606617e-06
1.1662678e-06
1.2895005e-06
1.4308354e-06
1.5913546e-06
1.772619e-06
1.9764447e-06
2.2048948e-06
2.4601459e-06
2.7449562e-06
3.0621481e-06
3.4149985e-06
3.8072614e-06
4.2432924e-06
4.7282224e-06
5.2681991e-06
5.8707157e-06
6.5450597e-06
7.302927e-06
8.1591251e-06
9.1325286e-06
1.0247145e-05
1.1533619e-05
1.3030851e-05
1.4788107e-05
1.6867508e-05
1.9347146e-05
2.2324861e-05
2.5922966e-05
3.0294098e-05
3.5628508e-05
4.2448384e-05
5.0542726e-05
6.0508841e-05
7.2802264e-05
8.7985841e-05
0.00010675511
0.00012996814
0.00015867953
0.00019417409
0.00024023519
0.00029468666
0.00036159774
0.00044347341
0.00054304367
0.00066952786
0.00081342209
0.00098174599
0.0010266903
0.0010264603
0.0010266019
0.0010270804
0.0010277559
0.0010284096
0.001028771
0.001028823
0.0010287121
0.0010277816
0.0010261539
0.0010241867
0.0010219729
0.0010195458
0.0010170112
0.0010145933
0.0010127988
0.001011518
0.0010100979
0.0010084491
0.0010063664
0.0010038953
0.001001274
1.0836191e-07
9.7292403e-07
9.7401304e-07
7.7084309e-07
7.7414996e-07
7.1014208e-07
7.5756936e-07
8.1962613e-07
9.0515593e-07
1.0069938e-06
1.1258927e-06
1.2618543e-06
1.416032e-06
1.5898309e-06
1.7849397e-06
2.0032437e-06
2.246854e-06
2.5181287e-06
2.8197158e-06
3.1546034e-06
3.5261888e-06
3.9383734e-06
4.3956928e-06
4.9035032e-06
5.4682414e-06
6.0958382e-06
6.7987875e-06
7.5880785e-06
8.4862094e-06
9.5021931e-06
1.0666124e-05
1.2010499e-05
1.3576556e-05
1.541647e-05
1.759601e-05
2.0197767e-05
2.3325168e-05
2.7107438e-05
3.1705716e-05
3.7320632e-05
4.4201553e-05
5.2657792e-05
6.307191e-05
7.5914031e-05
9.1764637e-05
0.00011133527
0.00013669944
0.00016673601
0.00020372667
0.00024918293
0.00030485758
0.00037273319
0.00045496547
0.00055902552
0.00067726969
0.00081579563
0.00097533642
0.0010262726
0.0010260718
0.0010262061
0.0010266519
0.0010273082
0.0010280046
0.0010285371
0.0010287511
0.001028745
0.0010279746
0.0010264465
0.0010245431
0.0010224118
0.0010201026
0.0010176955
0.0010153559
0.001013226
0.0010114772
0.0010098056
0.001008017
0.0010059523
0.0010036374
0.0010012087
1.2317074e-07
9.7441332e-07
8.1238053e-07
5.7136901e-07
6.1615992e-07
6.202682e-07
6.8599594e-07
7.6690698e-07
8.6604559e-07
9.8021094e-07
1.1105054e-06
1.25782e-06
1.4235302e-06
1.609137e-06
1.8163621e-06
2.0471276e-06
2.3035895e-06
2.5881677e-06
2.9035871e-06
3.2529268e-06
3.6396867e-06
4.0678803e-06
4.5421653e-06
5.068032e-06
5.6520705e-06
6.3023421e-06
7.0288796e-06
7.8443392e-06
8.7648402e-06
9.8109866e-06
1.1009113e-05
1.239285e-05
1.4004933e-05
1.5899465e-05
1.8144632e-05
2.0826044e-05
2.4050862e-05
2.7952858e-05
3.2698644e-05
3.849527e-05
4.5599498e-05
5.4715284e-05
6.5544662e-05
7.8886152e-05
9.5331717e-05
0.00011560119
0.00014056651
0.00017127352
0.00020895867
0.00025505271
0.00031117432
0.00038258902
0.00046472771
0.00056239053
0.00067716957
0.00081019921
0.00096193484
0.0010257126
0.0010255045
0.001025605
0.0010259983
0.0010266093
0.0010273087
0.00102794
0.0010283512
0.0010283952
0.0010278604
0.0010266095
0.0010248221
0.001022767
0.0010205436
0.001018211
0.0010158615
0.0010136287
0.0010115879
0.0010096843
0.001007758
0.0010056794
0.00100345
0.0010011494
1.1296032e-07
6.2837918e-07
6.4409481e-07
4.7341247e-07
5.1788402e-07
5.6543597e-07
6.4625024e-07
7.4089642e-07
8.5087971e-07
9.7560464e-07
1.1162284e-06
1.2738763e-06
1.4499484e-06
1.6460041e-06
1.8638068e-06
2.1053373e-06
2.3728219e-06
2.6687359e-06
2.9959295e-06
3.357562e-06
3.757235e-06
4.1990701e-06
4.6878415e-06
5.2291662e-06
5.8297774e-06
6.497905e-06
7.2437879e-06
8.0803505e-06
9.0308119e-06
1.010594e-05
1.1337384e-05
1.2759869e-05
1.4417471e-05
1.6365948e-05
1.8675503e-05
2.1434234e-05
2.4752336e-05
2.8767278e-05
3.3650148e-05
3.9613296e-05
4.6919451e-05
5.5892353e-05
6.6929083e-05
8.0516122e-05
9.7244532e-05
0.00011782933
0.00014312842
0.00017568533
0.00021391027
0.00026044155
0.00031677056
0.00038447624
0.00046516038
0.00056035109
0.00067137022
0.00079916694
0.00094416949
0.0010250584
0.0010248046
0.0010248344
0.0010251426
0.0010256796
0.0010263495
0.0010270221
0.0010275458
0.0010277512
0.0010274616
0.0010265531
0.001025049
0.0010231148
0.0010209555
0.001018677
0.0010163258