/*--------------------------------*- C++ -*----------------------------------*\
  =========                 |
  \\      /  F ield         | OpenFOAM: The Open Source CFD Toolbox
   \\    /   O peration     | Website:  https://openfoam.org
    \\  /    A nd           | Version:  12
     \\/     M anipulation  |
\*---------------------------------------------------------------------------*/
FoamFile
{
    format      ascii;
    class       volScalarField;
    location    "0.027";
    object      omega;
}
// * * * * * * * * * * * * * * * * * * * * * * * * * * * * * * * * * * * * * //

dimensions      [0 0 -1 0 0 0 0];

internalField   nonuniform List<scalar> 
16000
(
1101.4098
2160.5243
1051.6284
639.57547
450.41323
314.1405
237.54185
179.65056
144.42153
117.38468
99.703588
85.508243
74.856374
66.00729
58.761372
52.664597
47.515376
43.124832
39.352322
36.087173
33.245902
30.757776
28.564752
26.620559
24.887878
23.337732
21.946216
20.694909
19.568131
18.551518
17.632156
16.799958
16.046921
15.36628
14.752243
14.199406
13.702656
13.257175
12.858975
12.504671
12.190376
11.912023
11.666696
11.451687
11.263853
11.100043
10.957843
10.834944
10.729134
10.638361
10.56082
10.494916
10.439143
10.392201
10.352979
10.320582
10.294229
10.273165
10.256622
10.243752
10.233508
10.224821
10.216601
10.205289
10.192144
10.18084
10.176072
10.181522
10.199686
10.214353
10.208193
10.174192
10.130952
10.104688
10.09858
10.109662
10.118418
10.106212
10.072751
10.075618
1143.672
2164.0989
1044.1202
640.34464
451.08016
317.16293
238.88284
181.59262
145.40416
118.52218
100.35619
86.150083
75.293368
66.381916
59.044435
52.889933
47.688477
43.258165
39.454238
36.163784
33.302555
30.799511
28.595523
26.643559
24.905207
23.351052
21.956433
20.702562
19.573854
18.556164
17.636266
16.803689
16.05028
15.369158
14.754568
14.201183
13.703999
13.258122
12.859365
12.50449
12.189913
11.91132
11.665643
11.450324
11.2624
11.098543
10.956298
10.833379
10.727595
10.636881
10.559407
10.493611
10.437986
10.391218
10.352158
10.319869
10.293525
10.272279
10.255206
10.241311
10.229557
10.219106
10.209617
10.198087
10.185747
10.175908
10.172943
10.180471
10.197899
10.209355
10.197721
10.161173
10.120681
10.098368
10.09518
10.109352
10.1198
10.110183
10.074449
10.073391
1184.3098
2174.703
1035.3484
637.4754
448.30531
317.76174
238.09146
182.01145
145.12223
118.79452
100.31663
86.241465
75.266292
66.345474
58.968696
52.795379
47.577571
43.137174
39.32795
36.035036
33.173686
30.672988
28.473163
26.52687
24.794862
23.247586
21.859858
20.612587
19.49022
18.478964
17.565489
16.739026
15.991339
15.315448
14.705641
14.156642
13.66359
13.221625
12.82636
12.474547
12.16301
11.887294
11.64414
11.431042
11.245308
11.083479
10.943047
10.821751
10.717437
10.628063
10.551775
10.487057
10.43242
10.386561
10.348299
10.316647
10.290718
10.269586
10.252203
10.237467
10.224443
10.212734
10.202403
10.190803
10.179311
10.170974
10.169996
10.17957
10.195877
10.202763
10.184621
10.14644
10.109811
10.092156
10.093545
10.10898
10.119354
10.113443
10.079435
10.067603
1223.0494
2194.0705
1028.9558
634.84005
445.27703
318.0939
236.98094
182.2407
144.69224
118.9542
100.2165
86.261712
75.189081
66.254229
58.845449
52.65575
47.425297
42.977646
39.165884
35.873085
33.013869
30.517593
28.323801
26.385004
24.661034
23.122261
21.743006
20.503855
19.389186
18.385616
17.479798
16.660642
15.919835
15.250274
14.646292
14.10264
13.614591
13.177385
12.78646
12.438408
12.13054
11.858329
11.61831
11.407918
11.224822
11.065446
10.927214
10.807881
10.705329
10.617562
10.542692
10.47925
10.425766
10.38095
10.343588
10.312618
10.287073
10.265944
10.24813
10.232539
10.218417
10.205804
10.195187
10.183826
10.173283
10.166442
10.167303
10.17849
10.193113
10.194374
10.170826
10.132048
10.099806
10.086938
10.092378
10.108853
10.119258
10.115913
10.084109
10.061272
1259.7308
2221.1807
1028.5627
632.72286
442.21469
317.66388
235.19094
181.9738
143.8856
118.82543
99.92018
86.098437
74.965826
66.025285
58.601885
52.407279
47.175338
42.729663
38.923545
35.638136
32.787393
30.301157
28.118324
26.191499
24.479644
22.953135
21.58587
20.358147
19.254174
18.261014
17.365439
16.556035
15.82444
15.163408
14.567321
14.030942
13.549657
13.11886
12.733904
12.391042
12.088108
11.820597
11.584873
11.378158
11.198562
11.042439
10.907122
10.790385
10.690137
10.604464
10.531431
10.469625
10.417592
10.37406
10.33778
10.307606
10.282472
10.261298
10.243
10.226641
10.211723
10.19857
10.187956
10.176955
10.167357
10.162011
10.164717
10.176879
10.189158
10.184343
10.15625
10.118093
10.090992
10.082737
10.091537
10.108824
10.11926
10.117477
10.086812
10.056192
1294.2694
2253.7768
1031.2021
630.81765
439.29702
316.59035
233.01792
181.30478
142.83655
118.44918
99.474153
85.775973
74.617804
65.677191
58.253433
52.063702
46.839483
42.403534
38.609877
35.338052
32.501208
30.02988
27.862317
25.951273
24.255145
22.744254
21.392129
20.178838
19.088311
18.108049
17.225094
16.427685
15.707455
15.056979
14.470702
13.943386
13.470497
13.047605
12.670123
12.33382
12.036978
11.775228
11.544869
11.34272
11.16739
11.015226
10.883458
10.769878
10.672401
10.589242
10.518404
10.458537
10.408198
10.36613
10.331055
10.301731
10.276995
10.255719
10.236894
10.219861
10.204469
10.191145
10.180616
10.170073
10.161429
10.157555
10.162046
10.174603
10.183555
10.172846
10.141202
10.105163
10.083708
10.079554
10.091124
10.108791
10.119117
10.118261
10.088826
10.052547
1326.6726
2289.3537
1035.9326
628.66808
436.33359
314.85768
231.02057
180.2961
141.7612
117.83477
98.888426
85.294618
74.141226
65.207415
57.796217
51.621296
46.41397
41.995705
38.221334
34.969517
32.152269
29.70095
27.553343
25.661631
23.98507
22.4934
21.159787
19.96416
18.890068
17.925401
17.057635
16.274643
15.568095
14.930357
14.355942
13.839607
13.376879
12.963471
12.595021
12.266911
11.977388
11.722467
11.498571
11.30194
11.131644
10.984138
10.856543
10.746679
10.65242
10.572179
10.503875
10.446229
10.397802
10.35735
10.323563
10.295114
10.270754
10.249347
10.230009
10.212407
10.196821
10.183747
10.173204
10.163197
10.15554
10.153156
10.159262
10.171618
10.176362
10.160184
10.125959
10.093547
10.077326
10.077484
10.090878
10.108506
10.118617
10.118245
10.090295
10.049789
1357.0372
2325.8398
1038.7363
625.87532
432.79806
312.39244
228.33171
178.904
140.32448
117.00771
98.171535
84.659097
73.533633
64.615215
57.228372
51.078071
45.896716
41.504318
37.75541
34.530084
31.738336
29.312246
27.189713
25.318965
23.665971
22.197367
20.885894
19.711442
18.657081
17.71098
16.861237
16.095325
15.405012
14.782408
14.222102
13.718846
13.268218
12.866025
12.50819
12.190727
11.909812
11.662768
11.446412
11.256386
11.091863
10.949671
10.826849
10.721225
10.630592
10.55363
10.488159
10.432975
10.386638
10.347909
10.315455
10.28787
10.26385
10.242303
10.222528
10.204503
10.188921
10.17646
10.165839
10.156459
10.149874
10.149061
10.156575
10.167893
10.167738
10.146744
10.110936
10.083196
10.072085
10.076006
10.090514
10.107581
10.117488
10.117231
10.092373
10.047013
1385.4254
2361.6188
1034.5076
622.09113
427.5823
309.25522
224.65391
176.99674
138.61805
115.98753
97.315884
83.864136
72.786835
63.894963
56.54457
50.428197
45.282057
40.92436
37.204153
34.011744
31.251633
28.856475
26.76498
24.9243
23.299468
21.858228
20.572814
19.423234
18.392044
17.46754
16.638651
15.892454
15.220883
14.615741
14.071706
13.583524
13.146825
12.757506
12.411542
12.104925
11.834093
11.596065
11.388315
11.206583
11.048567
10.912289
10.794884
10.693991
10.607356
10.533984
10.471597
10.419068
10.374952
10.338004
10.306884
10.280128
10.256401
10.234719
10.214632
10.196417
10.181005
10.169205
10.158764
10.150136
10.144759
10.145447
10.154107
10.163222
10.158144
10.133079
10.096691
10.074013
10.067552
10.074594
10.08992
10.105754
10.114581
10.114965
10.09628
10.0442
1411.883
2395.54
1027.0103
617.26863
420.75658
305.70866
220.44266
174.85872
136.79661
114.75812
96.315848
82.907263
71.894833
63.040002
55.737753
49.659465
44.556553
40.242851
36.566261
33.415782
30.695199
28.337615
26.283001
24.477
22.885188
21.475741
20.220459
19.099606
18.095219
17.195509
16.390362
15.666615
15.016399
14.431134
13.905597
13.434527
13.013601
12.638806
12.306279
12.01207
11.75252
11.524495
11.326032
11.152542
11.001869
10.872069
10.761106
10.665398
10.583157
10.513626
10.454526
10.404788
10.362967
10.327806
10.297975
10.271987
10.248511
10.226715
10.206467
10.188389
10.173481
10.162214
10.152298
10.144627
10.140645
10.142631
10.151923
10.157821
10.149203
10.119368
10.083882
10.065925
10.063704
10.073238
10.089102
10.103408
10.110599
10.111761
10.101618
10.041223
1436.5102
2428.0899
1017.0154
611.31133
412.31127
301.74006
215.95908
172.39927
134.89933
113.34097
95.159092
81.782187
70.846705
62.030255
54.785766
48.767489
43.722051
39.464327
35.8403
32.740653
30.067543
27.754362
25.742941
23.977529
22.423843
21.050768
19.829894
18.741802
17.768041
16.896517
16.117754
15.419237
14.793039
14.230098
13.725297
13.273363
12.870025
12.511337
12.19361
11.912982
11.665883
11.448942
11.260608
11.096238
10.9535
10.830414
10.725564
10.635494
10.558355
10.492856
10.437243
10.390377
10.350867
10.317441
10.288803
10.263502
10.240253
10.218411
10.198186
10.180596
10.166747
10.155848
10.146826
10.140333
10.137733
10.140763
10.150245
10.153326
10.141968
10.106317
10.072851
10.058902
10.06028
10.071877
10.088299
10.101045
10.106438
10.107813
10.099984
10.038147
1459.5274
2459.9715
1002.865
603.58439
402.90075
297.29319
211.29546
169.69304
132.94334
111.7344
93.82032
80.45892
69.605069
60.859768
53.692688
47.749379
42.775167
38.585732
35.025136
31.985787
29.368698
27.107197
25.145433
23.426656
21.916609
20.584288
19.402302
18.351194
17.412047
16.572447
15.821345
15.150845
14.551373
14.013252
13.531454
13.100689
12.716752
12.375737
12.07417
11.808295
11.574674
11.370545
11.192948
11.038221
10.903976
10.788086
10.689659
10.60531
10.532942
10.471641
10.419916
10.375993
10.338757
10.306962
10.279383
10.254672
10.231656
10.209919
10.190006
10.173218
10.160743
10.150523
10.142715
10.137505
10.135806
10.14068
10.150524
10.151185
10.133313
10.095505
10.063615
10.052744
10.057053
10.070519
10.087806
10.099162
10.102836
10.103304
10.09425
10.0349
1481.252
2488.5537
984.7746
595.46586
393.00939
292.433
206.53793
166.76999
130.92397
109.9212
92.235126
78.921106
68.175309
59.522701
52.452234
46.601658
41.713611
37.605681
34.119914
31.150793
28.598918
26.397012
24.491189
22.825457
21.365165
20.076242
18.937737
17.928015
17.027553
16.224176
15.506777
14.867001
14.296781
13.785788
13.329025
12.921159
12.558113
12.235982
11.951547
11.701257
11.481564
11.289603
11.123357
10.978758
10.853459
10.745619
10.653655
10.575204
10.507891
10.450666
10.402359
10.361637
10.326638
10.296347
10.269672
10.245464
10.222737
10.201344
10.182192
10.166684
10.155552
10.146711
10.140232
10.136286
10.135064
10.145663
10.152444
10.149954
10.125494
10.087594
10.056358
10.047251
10.05369
10.069317
10.087683
10.097921
10.100211
10.098744
10.087278
10.031469
1501.8898
2510.3541
962.57026
586.58208
382.65447
287.20255
201.77722
163.64016
128.76205
107.80332
90.387448
77.157435
66.544509
58.010906
51.058537
45.319839
40.534424
36.522338
33.124128
30.235297
27.758558
25.625148
23.779262
22.173067
20.769482
19.533691
18.443876
17.480285
16.622759
15.859194
15.178279
14.571835
14.032741
13.550843
13.120844
12.737293
12.396344
12.094042
11.827411
11.59326
11.388122
11.208972
11.054175
10.919835
10.803465
10.703019
10.617566
10.544981
10.483179
10.430139
10.385057
10.346983
10.314372
10.285505
10.25961
10.235873
10.213583
10.19285
10.17497
10.161507
10.151752
10.14492
10.139831
10.136246
10.14203
10.152444
10.155618
10.148521
10.120424
10.082677
10.051556
10.043188
10.050189
10.068412
10.087426
10.096835
10.098276
10.094403
10.077181
10.027698
1521.7185
2520.6513
936.37831
577.06077
371.87975
281.6243
197.08601
160.22076
126.3409
105.38901
88.250411
75.150474
64.700589
56.31472
49.504766
43.899458
39.235365
35.334014
32.037737
29.236759
26.845332
24.79057
23.018867
21.480126
20.140081
18.963013
17.927159
17.013797
16.203127
15.48287
14.841492
14.270713
13.762741
13.31133
12.909391
12.551157
12.233156
11.951364
11.70294
11.485196
11.294782
11.129428
10.986026
10.861871
10.754574
10.661761
10.582606
10.515461
10.458459
10.409985
10.368068
10.332325
10.301585
10.274307
10.249192
10.225989
10.204417
10.184783
10.168582
10.157394
10.149784
10.145501
10.142757
10.14277
10.151736
10.15937
10.159925
10.147646
10.118021
10.081124
10.049621
10.040856
10.047052
10.067906
10.086456
10.095236
10.09592
10.089932
10.067016
10.022755
1540.9692
2507.7378
906.7236
566.89524
360.75035
275.71101
192.45804
156.38462
123.5838
102.6335
85.794514
72.877918
62.62813
54.423777
47.784332
42.335799
37.814522
34.035566
30.857092
28.16481
25.872575
23.907562
22.218739
20.75556
19.485538
18.37343
17.396632
16.535396
15.774691
15.100438
14.500738
13.967906
13.494388
13.073992
12.700716
12.368157
12.073336
11.812236
11.581933
11.38047
11.204195
11.051188
10.919079
10.804866
10.706479
10.621858
10.54892
10.486992
10.434306
10.389744
10.351268
10.317696
10.288524
10.262546
10.238524
10.216061
10.195586
10.177623
10.16364
10.154633
10.149827
10.148378
10.148447
10.152647
10.16122
10.166605
10.16413
10.147893
10.118276
10.082972
10.051199
10.039563
10.0456
10.067959
10.084651
10.092332
10.092033
10.085017
10.057666
10.015873
1559.7947
2452.8896
875.49253
556.14421
349.31427
269.36874
187.57994
152.10262
120.37914
99.489741
82.986959
70.316156
60.312399
52.329604
45.891769
40.620447
36.265432
32.639663
29.599475
27.031385
24.852555
22.988919
21.392286
20.012596
18.816209
17.773879
16.8609
16.057771
15.349162
14.722756
14.165962
13.671633
13.232537
12.842975
12.497987
12.190858
11.918875
11.678304
11.465846
11.280281
11.11791
10.976808
10.855385
10.750597
10.660337
10.582914
10.516587
10.459661
10.410944
10.36983
10.334276
10.303108
10.275373
10.250635
10.227766
10.206528
10.187522
10.171699
10.160356
10.153596
10.151595
10.153256
10.156892
10.163268
10.170314
10.172683
10.167454
10.149245
10.120994
10.087645
10.056744
10.041913
10.048099
10.068633
10.082681
10.088491
10.086029
10.075087
10.050536
10.011107
1578.0431
2419.2386
843.81872
544.71236
337.57612
262.0448
182.52777
147.27355
116.61537
95.901432
79.794235
67.44263
57.739507
50.025298
43.815937
38.766237
34.610691
31.16263
28.282323
25.855799
23.803824
22.052822
20.553559
19.264545
18.150096
17.181204
16.334483
15.590862
14.935094
14.356679
13.842906
13.386929
12.981963
12.622381
12.303398
12.020888
11.770854
11.55019
11.356026
11.185616
11.036649
10.906816
10.79531
10.699403
10.616786
10.545881
10.485151
10.433148
10.388518
10.350471
10.31753
10.28847
10.262438
10.239002
10.21756
10.197925
10.18073
10.167228
10.158483
10.154314
10.154535
10.158963
10.16576
10.17266
10.177305
10.177164
10.169322
10.15144
10.125598
10.094394
10.064774
10.048188
10.052457
10.069881
10.08096
10.084413
10.080597
10.069318
10.046065
10.010653
1595.3136
2375.2179
811.11051
532.26883
325.44313
253.51041
177.11022
141.78561
112.18586
91.809264
76.184547
64.238221
54.892413
47.497959
41.583396
36.796634
32.875152
29.631665
26.931645
24.662904
22.74594
21.117612
19.726563
18.532352
17.502048
16.608162
15.828274
15.144275
14.540729
14.007689
13.535799
13.116912
12.744866
12.41458
12.12172
11.862353
11.63294
11.430454
11.25232
11.096235
10.960096
10.84182
10.739438
10.651668
10.576113
10.511245
10.455638
10.408003
10.36714
10.331917
10.301375
10.27436
10.250112
10.228121
10.208341
10.190609
10.175646
10.164631
10.158278
10.156018
10.15803
10.164047
10.172064
10.178586
10.180796
10.178606
10.169491
10.153911
10.131258
10.102472
10.074036
10.056356
10.057392
10.071843
10.079642
10.080739
10.075537
10.063567
10.042296
10.011674
1610.9653
2308.3499
776.64243
518.34158
312.15263
243.62205
171.01178
135.50015
106.99145
87.156209
72.134036
60.685692
51.790127
44.796595
39.231412
34.751115
31.097483
28.082272
25.575749
23.478164
21.710149
20.210195
18.930341
17.832646
16.886555
16.066686
15.351734
14.723994
14.171571
13.683486
13.251254
12.867487
12.526372
12.223246
11.954348
11.716371
11.506107
11.320613
11.157475
11.014425
10.889586
10.781308
10.68816
10.607713
10.538557
10.479171
10.428198
10.384423
10.34676
10.314506
10.28618
10.261112
10.238651
10.218429
10.200476
10.184826
10.172178
10.163514
10.159062
10.158339
10.16161
10.16813
10.175559
10.180837
10.181856
10.178023
10.169168
10.155899
10.137184
10.111545
10.084681
10.065839
10.06296
10.07392
10.078361
10.077054
10.070569
10.05802
10.038226
10.011994
1623.8308
2239.1396
739.57109
502.34912
298.02665
232.17571
163.76199
128.25143
100.95779
81.91514
67.6396
56.827956
48.495622
41.98087
36.820006
32.682976
29.324257
26.551841
24.255564
22.336475
20.720812
19.351146
18.18251
17.179728
16.315028
15.565765
14.911375
14.338352
13.833604
13.387098
12.991619
12.640342
12.327894
12.04989
11.802873
11.584116
11.391137
11.220963
11.071477
10.940476
10.826069
10.727264
10.64162
10.567813
10.504355
10.449891
10.403129
10.362947
10.328365
10.298513
10.272337
10.249174
10.228519
10.210107
10.193989
10.180352
10.169804
10.163154
10.160219
10.160666
10.164752
10.171473
10.178427
10.182942
10.183415
10.179441
10.171175
10.158975
10.14265
10.121112
10.096305
10.076407
10.068767
10.075483
10.076893
10.073423
10.066053
10.053069
10.034021
10.010694
1631.0431
2155.5005
699.61817
482.55812
282.81663
218.84712
154.88908
119.90679
94.089187
76.137181
62.787621
52.774112
45.106139
39.137378
34.42341
30.653725
27.601294
25.087084
23.004521
21.264878
19.799919
18.557331
17.496125
16.584117
15.795917
15.111379
14.514203
13.990693
13.529741
13.121093
12.758803
12.436831
12.150325
11.89523
11.668174
11.466522
11.288876
11.132215
10.994735
10.874571
10.769881
10.678891
10.600127
10.532174
10.473722
10.423575
10.380565
10.343499
10.311792
10.284194
10.260016
10.238655
10.219729
10.20309
10.188674
10.176828
10.168076
10.162997
10.161128
10.162389
10.167027
10.173879
10.18056
10.184477
10.185064
10.181879
10.174395
10.163063
10.148376
10.130211
10.108527
10.088287
10.076937
10.076698
10.074892
10.069965
10.061895
10.048692
10.030393
10.009611
1627.3366
2052.4547
656.28606
456.65016
266.34161
203.29361
144.15814
110.49806
86.541888
69.953811
57.76461
48.671766
41.741113
36.361686
32.119272
28.727779
25.98255
23.725466
21.852453
20.285708
18.964003
17.840818
16.879757
16.052144
15.335234
14.71095
14.164839
13.685042
13.261721
12.886894
12.553963
12.257792
11.994081
11.759302
11.55047
11.365021
11.200757
11.055842
10.928511
10.817179
10.720332
10.636411
10.563693
10.50094
10.446873
10.400404
10.360796
10.326632
10.297127
10.271554
10.249207
10.229488
10.212207
10.197034
10.184103
10.173729
10.166407
10.162413
10.161237
10.163016
10.168078
10.174961
10.181514
10.185331
10.186083
10.184422
10.178172
10.167543
10.15377
10.137602
10.119515
10.100524
10.085704
10.07732
10.073205
10.066823
10.057989
10.0448
10.027443
10.008686
1606.7699
1920.5041
609.78935
423.9423
248.59851
185.31625
131.80237
100.35899
78.668645
63.69015
52.79104
44.686317
38.524496
33.747974
29.980159
26.96213
24.512305
22.499639
20.823221
19.416345
18.225556
17.210354
16.339136
15.586884
14.93353
14.362906
13.862148
13.421297
13.03162
12.686096
12.37866
12.104772
11.860584
11.642954
11.449238
11.277172
11.124759
10.990198
10.871841
10.768158
10.677804
10.599894
10.532387
10.474153
10.424024
10.380926
10.34389
10.312028
10.28443
10.260481
10.239735
10.221482
10.205444
10.191516
10.17979
10.170584
10.164179
10.160844
10.160147
10.162482
10.167533
10.174274
10.180946
10.185289
10.186295
10.186007
10.181634
10.171772
10.158446
10.142996
10.126074
10.108458
10.091777
10.080038
10.07255
10.064258
10.054385
10.041244
10.025198
10.008174
1560.2416
1759.1395
561.29449
385.21784
230.59773
165.20498
118.51943
90.11779
70.92519
57.668598
48.091775
40.979584
35.575409
31.383075
28.06891
25.40458
23.230908
21.434991
19.934995
18.66983
17.594046
16.672855
15.879209
15.191696
14.593049
14.069003
13.607068
13.199247
12.837785
12.517161
12.231336
11.976329
11.74869
11.545597
11.364669
11.20386
11.061366
10.935556
10.824926
10.728066
10.643641
10.570383
10.507062
10.452341
10.405181
10.364558
10.329597
10.299683
10.273737
10.251189
10.231503
10.214277
10.199222
10.186214
10.175423
10.166968
10.161194
10.158286
10.157851
10.160149
10.164957
10.171492
10.178361
10.183776
10.18607
10.186297
10.183936
10.175151
10.162169
10.147258
10.131163
10.114559
10.098556
10.084231
10.073037
10.062671
10.051575
10.038437
10.023461
10.007764
1479.5188
1595.0784
511.78263
345.33419
206.42475
145.75863
105.25248
80.458422
63.764768
52.203894
43.885877
37.710558
33.007513
29.344933
26.435294
24.083281
22.15308
20.548318
19.199396
18.055293
17.07704
16.234991
15.505948
14.871517
14.316864
13.829873
13.400538
13.020543
12.683118
12.382617
12.114353
11.874635
11.660365
11.468984
11.298327
11.146521
11.011904
10.892955
10.788256
10.696462
10.616306
10.546657
10.486732
10.434888
10.390197
10.351684
10.318484
10.289813
10.264981
10.243337
10.22442
10.207868
10.19353
10.181166
10.170877
10.162867
10.157383
10.154561
10.154081
10.1561
10.160475
10.166624
10.173488
10.179692
10.183879
10.185248
10.184248
10.177174
10.165099
10.150721
10.135216
10.119175
10.103156
10.088086
10.074596
10.06233
10.050031
10.036656
10.022224
10.007382
1366.3617
1505.4312
465.13578
297.41181
182.41999
127.51355
93.256271
71.897846
57.564389
47.594433
40.394875
35.032112
30.924619
27.703376
25.125607
23.027043
21.293418
19.843117
18.615738
17.569012
16.669427
15.891452
15.21496
14.623861
14.105098
13.647969
13.243596
12.884641
12.565128
12.280531
12.025898
11.798001
11.594
11.411566
11.248716
11.103734
10.975092
10.86139
10.761318
10.673623
10.597091
10.530529
10.472762
10.422794
10.379619
10.342331
10.310103
10.282229
10.258203
10.237209
10.218836
10.202725
10.188653
10.176546
10.166459
10.158558
10.153029
10.149974
10.149172
10.150679
10.15443
10.159987
10.166542
10.173057
10.17842
10.181535
10.181326
10.176788
10.167284
10.153973
10.138989
10.123316
10.107288
10.091495
10.076672
10.062966
10.049666
10.035929
10.021618
10.00714
1232.3869
1260.2105
424.4545
254.65365
160.1078
112.2929
83.318094
64.981991
52.667091
44.045723
37.771984
33.055117
29.408333
26.52222
24.19268
22.280953
20.690022
19.350397
18.211191
17.234356
16.391012
15.658715
15.019716
14.459685
13.966842
13.531366
13.145243
12.801717
12.495194
12.221039
11.975447
11.755244
11.55782
11.380985
11.222883
11.081897
10.956586
10.845625
10.747773
10.661859
10.586813
10.521837
10.465346
10.416439
10.37414
10.33757
10.305923
10.278472
10.254577
10.233693
10.215362
10.199245
10.185135
10.172963
10.16278
10.154713
10.148889
10.145378
10.144037
10.144747
10.147574
10.152246
10.158164
10.164481
10.170268
10.17452
10.17616
10.174127
10.167664
10.156881
10.143047
10.127712
10.111636
10.09522
10.079133
10.063897
10.04941
10.035148
10.020848
10.006802
1111.8904
1121.7271
391.35255
223.5698
143.38928
101.06427
75.944515
59.945135
49.168781
41.556376
35.959455
31.710054
28.393791
25.746638
23.593154
21.813218
20.322236
19.059213
17.979232
17.048567
16.241417
15.537671
14.921358
14.379663
13.902561
13.47984
13.104266
12.769465
12.470175
12.202006
11.961329
11.745147
11.550982
11.376761
11.220727
11.081352
10.957268
10.847218
10.750016
10.664523
10.589637
10.524293
10.467474
10.418189
10.375511
10.338572
10.306575
10.278794
10.254577
10.233361
10.214682
10.198198
10.183714
10.171176
10.16064
10.152207
10.145976
10.142018
10.140303
10.14004
10.141367
10.144456
10.149218
10.155018
10.16082
10.165703
10.168778
10.16909
10.165728
10.158175
10.146733
10.132511
10.116679
10.099811
10.082254
10.06465
10.047553
10.030894
10.015146
10.004048
1056.6786
1079.5071
366.78252
206.29176
132.38211
93.397598
70.43006
55.937983
46.1903
39.2911
34.200407
30.316885
27.272718
24.832517
22.839688
21.186592
19.797171
18.616399
17.60365
16.728371
15.967176
15.301832
14.717832
14.203394
13.748762
13.345749
12.987393
12.667802
12.382
12.125815
11.89578
11.689023
11.503166
11.336231
11.186545
11.052665
10.933306
10.827292
10.733518
10.65092
10.578469
10.515165
10.460037
10.412158
10.370643
10.334667
10.303464
10.276331
10.252636
10.231823
10.213432
10.197126
10.182718
10.170169
10.159565
10.151058
10.14481
10.140917
10.139213
10.138702
10.13861
10.138823
10.14148
10.14708
10.153008
10.158307
10.162301
10.164108
10.16279
10.157607
10.148364
10.135602
10.120321
10.103407
10.085299
10.065996
10.044883
10.022323
10.004864
9.9999979
35679.035
81218.04
40918.725
12711.735
1682.4135
628.48169
440.13692
353.88011
292.55393
237.89402
193.79839
160.44116
135.59861
117.10652
102.9006
91.344906
81.552168
73.19615
66.055092
59.904969
54.558408
49.87742
45.7571
42.111695
38.875201
35.982621
33.388224
31.051774
28.941261
27.031424
25.300707
23.729876
22.302122
21.002666
19.819913
18.744135
17.766571
16.879434
16.075613
15.348639
14.69287
14.102728
13.573152
13.099617
12.677706
12.30326
11.972528
11.6816
11.426933
11.205289
11.013482
10.848447
10.707225
10.587252
10.486476
10.406216
10.344102
10.298093
10.267395
10.247765
10.238953
10.241717
10.253003
10.268501
10.286765
10.304889
10.31764
10.324868
10.33001
10.328532
10.316929
10.254005
10.15
10.208832
10.250158
10.21171
10.100141
10.07347
10.09263
9.995189
19756.025
66927.162
29038.405
6234.7091
1006.2853
540.04648
401.89705
324.32544
265.75439
214.09131
175.50506
146.62719
125.25516
109.23563
96.695964
86.187493
77.208029
69.548634
62.982241
57.294344
52.325064
47.958286
44.10187
40.679202
37.627795
34.894225
32.436812
30.218022
28.209669
26.389074
24.736357
23.233704
21.865652
20.618631
19.482304
18.447689
17.506618
16.651864
15.876767
15.175287
14.542167
13.972076
13.460279
13.00251
12.594546
12.232437
11.912612
11.631278
11.385067
11.170862
10.985563
10.826201
10.689914
10.574249
10.477143
10.399811
10.340066
10.295809
10.266097
10.248025
10.241337
10.245816
10.257727
10.272877
10.289892
10.3058
10.316095
10.32297
10.327186
10.323418
10.308563
10.236299
10.149488
10.229827
10.256257
10.200488
10.090449
10.066494
10.092204
9.9967054
24965.877
45613.065
17194.577
3118.6293
868.74527
508.12385
389.86811
308.57259
251.914
202.30966
167.46428
140.33521
120.43104
105.3839
93.454894
83.365256
74.778225
67.461165
61.172895
55.714394
50.940529
46.742206
43.031154
39.734102
36.78984
34.150816
31.776714
29.631049
27.687734
25.925036
24.323792
22.86688
21.539553
20.328869
19.225219
18.219942
17.305207
16.474113
15.720247
15.037834
14.421848
13.867091
13.369052
12.923621
12.52669
12.174451
11.863446
11.589948
11.350716
11.142701
10.962862
10.808295
10.676227
10.564299
10.470263
10.395282
10.337421
10.29451
10.265469
10.248873
10.244018
10.249638
10.261831
10.276391
10.291905
10.305475
10.31428
10.320741
10.323772
10.317695
10.298099
10.218787
10.151497
10.243902
10.257519
10.194621
10.083041
10.060158
10.089811
9.998519
34060.621
27044.234
9712.5625
1754.3456
768.84416
482.08156
376.73067
292.38587
240.00404
191.24077
160.07571
134.16959
115.82858
101.67824
90.352252
80.681817
72.478433
65.480087
59.451586
54.209528
49.619748
45.579446
42.004577
38.825308
35.983827
33.432136
31.136141
29.059596
27.178036
25.470462
23.918402
22.505369
21.217268
20.041735
18.969843
17.993178
17.104237
16.296409
15.563504
14.899993
14.301059
13.761618
13.277375
12.844355
12.458557
12.116302
11.81423
11.54868
11.316528
11.114789
10.940477
10.79076
10.663006
10.554759
10.463851
10.391149
10.335101
10.293487
10.265116
10.249626
10.246487
10.252946
10.265214
10.279021
10.292895
10.304222
10.312345
10.31824
10.319791
10.311184
10.284218
10.202372
10.155244
10.25133
10.257127
10.191712
10.077441
10.055923
10.085886
10.000619
39922.529
21887.224
6617.2901
1274.9863
724.21244
463.79363
365.87015
279.03422
231.18608
182.65257
154.74513
129.28766
112.30502
98.708961
87.828234
78.476178
70.578559
63.826948
58.00174
52.931412
48.48924
44.576751
41.112921
38.03047
35.273681
32.797253
30.565271
28.547371
26.71866
25.058591
23.549212
22.174523
20.920951
19.776585
18.733064
17.782104
16.916489
16.129837
15.416125
14.770035
14.18691
13.661747
13.190445
12.769125
12.39387
12.061114
11.767571
11.509628
11.284273
11.088563
10.919568
10.774531
10.650896
10.546199
10.458332
10.387708
10.3333
10.292852
10.265087
10.250211
10.248379
10.255452
10.267621
10.280478
10.29265
10.302328
10.310239
10.315384
10.315148
10.303573
10.268505
10.18974
10.160005
10.255841
10.254994
10.190008
10.07266
10.054416
10.080561
10.002945
43449.515
19909.243
4823.8967
1162.7333
699.80563
443.42471
357.23616
268.35611
224.34775
175.65914
150.53133
125.09862
109.38263
96.127293
85.634285
76.549878
68.912469
62.366187
56.713466
51.790217
47.475148
43.673197
40.305828
37.307871
34.625476
32.214804
30.040112
28.074359
26.292781
24.675324
23.204415
21.864453
20.642312
19.526465
18.509045
17.581829
16.73788
15.970987
15.275275
14.645605
14.07745
13.565868
13.106932
12.696834
12.331727
12.008139
11.722848
11.47228
11.253519
11.063665
10.899846
10.7594
10.639686
10.538416
10.453543
10.384838
10.331921
10.292529
10.265326
10.250356
10.249327
10.256864
10.26882
10.280622
10.291284
10.300508
10.307965
10.312143
10.30982
10.295041
10.252974
10.183479
10.16578
10.258766
10.251562
10.188586
10.06849
10.054017
10.071885
10.005402
46003.234
18043.61
3758.4146
1102.1997
682.05796
428.84524
350.96039
259.7757
218.98283
170.05169
147.14845
121.53435
106.96199
93.882618
83.731766
74.867502
67.449248
61.074026
55.567645
50.770065
46.564296
42.857935
39.57443
36.650309
34.033226
31.680697
29.558359
27.637844
25.898193
24.318975
22.882766
21.574276
20.380759
19.291012
18.297599
17.392307
16.568464
15.819991
15.141136
14.526916
13.972908
13.47421
13.027056
12.627684
12.272308
11.957535
11.680189
11.436735
11.224347
11.040165
10.881405
10.74528
10.629356
10.531383
10.449372
10.382516
10.33094
10.292484
10.265784
10.25053
10.24955
10.25701
10.268639
10.279515
10.289561
10.298576
10.305484
10.308468
10.303787
10.285679
10.237529
10.18282
10.171997
10.260358
10.244544
10.185649
10.064993
10.054111
10.054956
10.008629
47865.487
15221.532
3088.4554
1065.1925
668.73079
417.39822
345.4729