/*--------------------------------*- C++ -*----------------------------------*\
  =========                 |
  \\      /  F ield         | OpenFOAM: The Open Source CFD Toolbox
   \\    /   O peration     | Website:  https://openfoam.org
    \\  /    A nd           | Version:  12
     \\/     M anipulation  |
\*---------------------------------------------------------------------------*/
FoamFile
{
    format      ascii;
    class       volScalarField;
    location    "0.027";
    object      T;
}
// * * * * * * * * * * * * * * * * * * * * * * * * * * * * * * * * * * * * * //

dimensions      [0 0 0 1 0 0 0];

internalField   nonuniform List<scalar> 
16000
(
291.59081
283.50486
286.75934
285.06264
286.14437
285.68098
286.10199
286.01322
286.21756
286.26551
286.39624
286.49182
286.60726
286.7201
286.83888
286.96101
287.08741
287.21799
287.35289
287.49218
287.63593
287.78419
287.93701
288.0944
288.25637
288.42293
288.59403
288.76965
288.9497
289.13412
289.3228
289.51561
289.71241
289.91305
290.11737
290.32518
290.5363
290.75056
290.96779
291.18783
291.41055
291.63585
291.86364
292.0939
292.32663
292.56189
292.79976
293.04039
293.28394
293.53059
293.78054
294.03397
294.29099
294.55168
294.81603
295.08381
295.35448
295.62719
295.90041
296.17176
296.43766
296.69286
296.92982
297.13784
297.3024
297.40735
297.44311
297.41323
297.25302
297.0241
296.74556
296.47431
296.28306
296.2111
296.26629
296.53132
297.19069
297.81866
298.80064
298.65665
291.40957
283.21412
286.61009
284.83077
285.98784
285.47842
285.93744
285.83798
286.05864
286.11203
286.25088
286.35592
286.47938
286.6018
286.72982
286.86179
286.99822
287.13916
287.28468
287.43486
287.58973
287.74931
287.91362
288.08264
288.25633
288.43465
288.61752
288.80484
288.9965
289.19235
289.39223
289.59597
289.80334
290.01413
290.22812
290.44506
290.66472
290.88685
291.11125
291.3377
291.56603
291.79611
292.02784
292.26117
292.49611
292.73271
292.97109
293.2114
293.45385
293.69867
293.9461
294.19639
294.44972
294.70619
294.9658
295.22831
295.49312
295.75918
296.02477
296.28722
296.54265
296.78554
297.00822
297.20011
297.34747
297.43617
297.45812
297.39726
297.23473
297.00523
296.73385
296.48286
296.32199
296.27312
296.3541
296.68086
297.30888
298.0053
298.84896
298.71566
291.24448
282.94946
286.46721
284.6453
285.84369
285.3165
285.79077
285.69949
285.92569
285.99164
286.13701
286.25343
286.38593
286.51902
286.65752
286.80046
286.94812
287.10058
287.25789
287.42009
287.5872
287.7592
287.93606
288.11773
288.30414
288.49517
288.6907
288.89058
289.09462
289.30261
289.51432
289.72949
289.94784
290.16909
290.39292
290.61904
290.84713
291.07691
291.3081
291.54045
291.77376
292.00786
292.24265
292.47806
292.71411
292.95086
293.18845
293.42709
293.667
293.90846
294.15178
294.39725
294.64511
294.8955
295.14843
295.40363
295.66042
295.91761
296.17324
296.42437
296.66679
296.89472
297.10029
297.27304
297.39972
297.46691
297.46916
297.38273
297.21442
296.98234
296.72078
296.49416
296.36533
296.34151
296.43934
296.8257
297.45986
298.17999
298.91466
298.75525
291.10119
282.71436
286.34728
284.49138
285.74132
285.18704
285.6789
285.59634
285.82778
285.90763
286.06055
286.18944
286.3322
286.47698
286.6271
286.78204
286.94197
287.10695
287.27702
287.4522
287.63246
287.81776
288.00804
288.20318
288.40306
288.6075
288.81632
289.02928
289.24613
289.46656
289.69027
289.91691
290.14612
290.37753
290.61076
290.84542
291.08116
291.31762
291.55449
291.79148
292.02836
292.26495
292.50115
292.7369
292.97223
293.20725
293.44212
293.67708
293.91242
294.14846
294.38555
294.62405
294.86422
295.10627
295.35019
295.59568
295.84202
296.08788
296.33111
296.56857
296.79583
297.00692
297.19395
297.34666
297.45227
297.49779
297.47886
297.37625
297.20149
296.96981
296.72121
296.51892
296.42015
296.41917
296.54419
296.97913
297.61873
298.34393
299.00557
298.78072
290.98372
282.51607
286.25399
284.36014
285.6444
285.09813
285.61203
285.53945
285.77035
285.86643
286.02733
286.1697
286.32371
286.48105
286.64373
286.81161
286.98478
287.16328
287.34714
287.53633
287.73079
287.93044
288.13514
288.34472
288.55898
288.77766
289.00049
289.22713
289.45724
289.69042
289.92625
290.1643
290.40412
290.64524
290.88721
291.12958
291.37192
291.61385
291.855
292.09507
292.33385
292.57114
292.80686
293.041
293.27361
293.50486
293.73495
293.96417
294.19286
294.42142
294.65022
294.87967
295.11008
295.34165
295.57438
295.80793
296.04151
296.27366
296.50212
296.72356
296.9334
297.12557
297.29224
297.42345
297.50741
297.5325
297.49085
297.37485
297.19323
296.96485
296.7315
296.55393
296.48248
296.50921
296.68166
297.13895
297.78208
298.50674
299.11223
298.79112
290.89309
282.35845
286.19038
284.26226
285.58061
285.0487
285.57218
285.51591
285.75765
285.87055
286.03992
286.19637
286.36267
286.53346
286.70986
286.89189
287.07958
287.27294
287.47195
287.67653
287.88655
288.10184
288.3222
288.54736
288.77701
289.0108
289.24833
289.48917
289.73285
289.97886
290.22668
290.47576
290.72556
290.97552
291.22513
291.47386
291.72126
291.96691
292.21044
292.45156
292.69006
292.9258
293.15874
293.38893
293.61649
293.84163
294.06464
294.28587
294.50572
294.72463
294.94305
295.16138
295.37996
295.59899
295.81843
296.0379
296.25652
296.47274
296.68415
296.88732
297.07761
297.24893
297.39356
297.50205
297.56368
297.56779
297.50582
297.37756
297.19093
296.96867
296.75263
296.60126
296.55501
296.612
296.8334
297.30133
297.9436
298.66493
299.22205
298.78744
290.82722
282.23945
286.15514
284.19548
285.54277
285.03485
285.54908
285.49428
285.78258
285.91789
286.09731
286.26924
286.44979
286.63584
286.8279
287.02601
287.23016
287.44031
287.65633
287.87807
288.10533
288.33783
288.57526
288.81723
289.06331
289.31303
289.56585
289.82122
290.07851
290.33712
290.59639
290.85567
291.11433
291.37174
291.62732
291.88052
292.13086
292.37793
292.62139
292.86099
293.09658
293.3281
293.55558
293.77915
293.99904
294.21555
294.42903
294.63993
294.8487
295.05584
295.26181
295.46705
295.67188
295.87648
296.08074
296.2842
296.4859
296.68416
296.8765
297.0594
297.22819
297.37687
297.49797
297.58258
297.6209
297.60342
297.52396
297.38434
297.19452
296.98054
296.78364
296.65825
296.63457
296.72204
296.98631
297.46246
298.09827
298.81426
299.32636
298.77121
290.78133
282.15616
286.14778
284.15803
285.54533
285.01932
285.59609
285.63085
285.8564
286.00929
286.20187
286.39162
286.5892
286.79301
287.00322
287.21984
287.44278
287.67193
287.90707
288.14795
288.39425
288.64557
288.90146
289.16138
289.42477
289.69099
289.95936
290.22915
290.49964
290.77005
291.03963
291.30763
291.57334
291.83609
292.09525
292.3503
292.60077
292.84629
293.08661
293.32157
293.55111
293.7753
293.99427
294.2083
294.4177
294.62289
294.82434
295.02254
295.21803
295.41133
295.60295
295.79329
295.98266
296.17115
296.35859
296.54441
296.72751
296.90614
297.0777
297.23864
297.38432
297.50888
297.60518
297.66493
297.67931
297.64047
297.54429
297.39419
297.20392
296.99976
296.82243
296.72071
296.7187
296.83565
297.13587
297.61576
298.24039
298.94527
299.41213
298.75345
290.7518
282.10933
286.17278
284.15622
285.60576
285.17247
285.69414
285.72357
285.97433
286.15268
286.36154
286.57143
286.78883
287.013
287.24394
287.48158
287.72574
287.9762
288.23261
288.4946
288.76168
289.0333
289.30883
289.58756
289.86874
290.15156
290.43516
290.71866
291.00117
291.28181
291.55972
291.83409
292.10415
292.36923
292.62874
292.88218
293.12919
293.36951
293.603
293.82965
294.04957
294.26296
294.47013
294.67149
294.8675
295.05869
295.24562
295.42888
295.60904
295.78666
295.96223
296.13613
296.30859
296.47962
296.64893
296.81581
296.97905
297.13675
297.28625
297.42397
297.54534
297.64469
297.7153
297.74955
297.73978
297.67979
297.56768
297.40887
297.21884
297.02525
296.86646
296.78538
296.80598
296.95219
297.2768
297.75387
298.36384
299.04719
299.46225
298.73591
290.7411
282.10575
286.23538
284.31647
285.71602
285.29186
285.81663
285.88674
286.15145
286.35621
286.58479
286.81731
287.05742
287.30475
287.55919
287.82052
288.08845
288.36257
288.64241
288.92737
289.21679
289.50989
289.80583
290.1037
290.40252
290.70129
290.99895
291.29449
291.58686
291.8751
292.15827
292.43555
292.70619
292.96957
293.22519
293.4727
293.71187
293.94263
294.16504
294.37928
294.58566
294.78459
294.97656
295.16214
295.34193
295.51658
295.68674
295.85306
296.01613
296.17652
296.33468
296.49093
296.64541
296.79799
296.94824
297.09532
297.23784
297.3738
297.50045
297.6142
297.71057
297.78413
297.8286
297.83717
297.80339
297.72278
297.59548
297.42877
297.23985
297.05629
296.91402
296.85141
296.89387
297.06704
297.39908
297.86985
298.46341
299.12007
299.48823
298.71454
290.75565
282.16015
286.33756
284.46555
285.86865
285.48986
286.00287
286.11877
286.39425
286.62785
286.88007
287.13826
287.40436
287.67802
287.959
288.24691
288.54126
288.84143
289.14672
289.45629
289.76921
290.08444
290.40089
290.71739
291.03273
291.34569
291.65506
291.95967
292.2584
292.55024
292.83426
293.1097
293.37591
293.63242
293.87893
294.1153
294.34156
294.55787
294.76455
294.96205
295.15091
295.33176
295.50527
295.67217
295.83321
295.98912
296.14063
296.2884
296.43305
296.57508
296.7149
296.85271
296.98853
297.1221
297.25281
297.37964
297.50108
297.61498
297.71852
297.80811
297.87936
297.92712
297.94559
297.92883
297.87166
297.7713
297.62968
297.45585
297.26791
297.09297
296.96445
296.91723
296.97735
297.16636
297.49765
297.95875
298.5363
299.16596
299.47522
298.67954
290.80202
282.27657
286.49473
284.66653
286.06216
285.74899
286.25721
286.4189
286.7117
286.97665
287.25691
287.54445
287.84025
288.14381
288.45468
288.77223
289.09569
289.42416
289.75662
290.09191
290.42877
290.76586
291.10178
291.4351
291.76438
292.08822
292.40529
292.71433
293.01423
293.30403
293.58294
293.85035
294.10586
294.34927
294.58057
294.79995
295.00776
295.20448
295.39074
295.56726
295.73483
295.89429
296.0465
296.19232
296.33258
296.4681
296.59961
296.72777
296.85316
296.97622
297.09723
297.21628
297.33324
297.44767
297.5588
297.66543
297.7659
297.85794
297.93865
298.00446
298.05108
298.07365
298.06691
298.0258
297.94638
297.82749
297.67268
297.4923
297.30488
297.1366
297.01822
296.98165
297.0518
297.24623
297.57237
298.01936
298.58008
299.17617
299.41149
298.62388
290.88212
282.4585
286.70914
284.94638
286.31118
286.08047
286.58556
286.79722
287.11343
287.41327
287.72652
288.04781
288.37758
288.71499
289.05932
289.40958
289.76461
290.12313
290.48371
290.84479
291.20474
291.56188
291.9145
292.26093
292.59956
292.92887
293.2475
293.55426
293.84817
294.12849
294.3947
294.64655
294.88401
295.10729
295.31678
295.51307
295.69688
295.86908
296.03058
296.18239
296.3255
296.46094
296.58969
296.71272
296.83089
296.94503
297.05586
297.16397
297.26987
297.37387
297.47614
297.5766
297.67495
297.77058
297.86254
297.94947
298.02955
298.10042
298.15911
298.20206
298.22515
298.2238
298.19332
298.1295
298.02962
297.89392
297.72731
297.541
297.3535
297.18955
297.07716
297.04529
297.11884
297.31162
297.62674
298.05519
298.59499
299.1411
299.31062
298.5508
290.9976
282.7156
286.98538
285.29786
286.64029
286.4924
286.99962
287.26463
287.61182
287.95115
288.30297
288.66311
289.03153
289.40696
289.7882
290.17377
290.56202
290.95117
291.3393
291.72442
292.10451
292.47755
292.84158
293.19477
293.53546
293.86217
294.17372
294.46918
294.74792
295.00962
295.25427
295.48209
295.6936
295.8895
296.07067
296.23814
296.39301
296.53647
296.66972
296.79397
296.9104
297.02013
297.12421
297.22361
297.31921
297.41177
297.50194
297.59022
297.67698
297.76241
297.84649
297.929
298.00944
298.08703
298.16066
298.22882
298.28954
298.34038
298.37833
298.3999
298.4011
298.3777
298.32558
298.24138
298.12347
297.97325
297.79663
297.60525
297.41705
297.255
297.14492
297.11502
297.18503
297.36892
297.66651
298.07301
298.58855
299.07258
299.16887
298.4642
291.15355
283.06254
287.32623
285.73571
287.05005
286.9966
287.51313
287.83579
288.22259
288.60743
289.00409
289.40867
289.82048
290.23767
290.6584
291.08056
291.50192
291.92009
292.33267
292.7372
293.13131
293.51276
293.8795
294.22973
294.56197
294.87511
295.16838
295.44142
295.69422
295.9271
296.14072
296.33595
296.51389
296.6758
296.82303
296.95699
297.07914
297.1909
297.29367
297.38879
297.47748
297.56092
297.64013
297.71604
297.78944
297.861
297.93123
298.00052
298.06906
298.13688
298.2038
298.2694
298.33303
298.39375
298.45026
298.50095
298.54373
298.57608
298.59502
298.59711
298.57858
298.53556
298.46451
298.36286
298.22991
298.06801
297.88364
297.68836
297.49913
297.33726
297.22687
297.19289
297.25541
297.42431
297.6991
298.07831
298.55806
298.98596
299.01674
298.37742
291.35382
283.51903
287.7264
286.27063
287.55722
287.60833
288.1445
288.53074
288.96686
289.40426
289.85219
290.30642
290.76543
291.22661
291.68736
292.14482
292.59608
293.03816
293.46813
293.88323
294.28092
294.65897
295.01558
295.34936
295.65945
295.94541
296.20731
296.44561
296.66116
296.8551
297.02883
297.18389
297.32197
297.44479
297.55408
297.65156
297.73887
297.81758
297.88915
297.95494
298.01615
298.07387
298.12905
298.18249
298.23486
298.28668
298.33831
298.38997
298.44167
298.49328
298.54444
298.59455
298.6428
298.6881
298.72904
298.76387
298.79045
298.80621
298.80819
298.7931
298.75741
298.69765
298.61086
298.49519
298.35071
298.1804
297.99095
297.79342
297.60333
297.44018
297.32648
297.28535
297.33468
297.4847
297.73231
298.07825
298.51144
298.8851
298.86548
298.2984
291.60382
284.11614
288.20676
286.92219
288.18286
288.35123
288.91974
289.37644
289.87145
290.3683
290.87286
291.38032
291.88805
292.39254
292.89023
293.37743
293.85053
294.30603
294.74078
295.15201
295.53746
295.89548
296.22503
296.52569
296.79762
297.04153
297.25856
297.45021
297.61827
297.76471
297.8916
298.00107
298.09522
298.17609
298.24564
298.3057
298.35796
298.40399
298.4452
298.48282
298.51797
298.55158
298.58445
298.61722
298.65039
298.68429
298.71913
298.75493
298.79155
298.82865
298.86571
298.90201
298.93656
298.96816
298.9953
299.01613
299.02848
299.02978
299.01716
298.98749
298.93753
298.86428
298.76531
298.63941
298.48725
298.31212
298.12058
297.92276
297.73255
297.56748
297.44847
297.39724
297.42986
297.55628
297.77308
298.08333
298.46797
298.77872
298.71656
298.22711
291.91735
284.88121
288.79749
287.72144
288.95786
289.25591
289.87079
290.40458
290.9668
291.52863
292.09299
292.65416
293.20809
293.75009
294.27558
294.78015
295.25975
295.71091
296.13082
296.51746
296.86967
297.18705
297.46999
297.71952
297.93724
298.12515
298.28557
298.42102
298.53411
298.62744
298.70358
298.76498
298.81393
298.8526
298.88293
298.90672
298.92555
298.94086
298.95387
298.96566
298.97714
298.98906
299.00202
299.01646
299.0327
299.0509
299.07106
299.09304
299.11652
299.14102
299.16586
299.19017
299.21287
299.23265
299.24791
299.25676
299.25702
299.24619
299.22151
299.18006
299.11898
299.03568
298.92832
298.79619
298.64036
298.46415
298.27362
298.07775
297.88867
297.72193
297.59673
297.5333
297.54662
297.64437
297.82859
298.09876
298.42948
298.674
298.57857
298.16536
292.32134
285.75295
289.52386
288.70365
289.91878
290.35615
291.0331
291.65058
292.28642
292.91605
293.53904
294.14838
294.73839
295.30328
295.83787
296.33768
296.79922
297.22004
297.59882
297.93532
298.23028
298.48524
298.70245
298.88463
299.03483
299.15628
299.25226
299.32602
299.38066
299.41911
299.44411
299.45814
299.46347
299.46212
299.45589
299.44634
299.43485
299.42261
299.41063
299.39972
299.39058
299.38374
299.37958
299.37836
299.3802
299.38508
299.39283
299.40315
299.41556
299.42944
299.44399
299.45823
299.47099
299.48088
299.48626
299.48524
299.47565
299.45509
299.42099
299.37071
299.30174
299.21199
299.10008
298.96573
298.81018
298.63656
298.45014
298.25857
298.07219
297.90449
297.77254
297.69516
297.68652
297.75319
297.9001
298.12569
298.39717
298.57548
298.46004
298.11924
292.85528
286.79587
290.44037
289.90382
291.10909
291.69365
292.44939
293.1562
293.86729
294.56028
295.23103
295.87124
296.47426
297.03423
297.54675
298.00885
298.41915
298.77767
299.08573
299.34568
299.5607
299.7345
299.87114
299.97478
300.04958
300.09957
300.12851
300.13994
300.13704
300.12271
300.09953
300.06976
300.03539
299.99817
299.95957
299.92088
299.88317
299.84734
299.81412
299.78409
299.75769
299.73524
299.71692
299.70279
299.6928
299.68677
299.68438
299.68518
299.68856
299.69379
299.69997
299.70604
299.71076
299.71269
299.7102
299.70139
299.68419
299.65635
299.6155
299.55935
299.48577
299.39311
299.28039
299.14763
298.99606
298.82837
298.6489
298.46385
298.28184
298.11442
297.97582
297.88221
297.84861
297.88153
297.98688
298.16312
298.37027
298.48571
298.36261
298.08932
293.57137
288.10333
291.58608
291.37482
292.58966
293.32662
294.17217
294.96584
295.74082
296.4766
297.16634
297.80198
298.37796
298.89073
299.33891
299.72305
300.04543
300.3096
300.5201
300.68204
300.80083
300.88188
300.93049
300.95163
300.94991
300.92951
300.89418
300.84723
300.79157
300.72972
300.66386
300.59587
300.52732
300.45957
300.39373
300.33073
300.27134
300.21616
300.16564
300.12013
300.07985
300.0449
300.01528
299.9909
299.97155
299.95691
299.94652
299.93982
299.93611
299.93456
299.93419
299.93389
299.93239
299.92823
299.91978
299.90523
299.88262
299.84988
299.80493
299.7458
299.67077
299.57857
299.46854
299.3408
299.19642
299.0375
298.86732
298.69059
298.51416
298.34759
298.20243
298.09147
298.02979
298.02636
298.08624
298.20795
298.34841
298.40706
298.28202
298.06925
294.51763
289.7543
293.04804
293.19576
294.43893
295.32187
296.2487
297.10511
297.90796
298.64071
299.29741
299.87356
300.36811
300.78255
301.12067
301.38788
301.5907
301.7362
301.83165
301.88414
301.90039
301.88658
301.84829
301.79048
301.7175
301.63312
301.54058
301.44263
301.34163
301.23954
301.13802
301.03844
300.94193
300.84944
300.76171
300.67934
300.60279
300.53238
300.46834
300.41079
300.35975
300.31517
300.2769
300.24469
300.21821
300.19702
300.18057
300.16821
300.15916
300.15252
300.14728
300.14228
300.13624
300.12771
300.11512
300.09675
300.07083
300.03549
299.98897
299.92962
299.85607
299.76738
299.66308
299.54328
299.4087
299.26072
299.10146
298.93411
298.76357
298.59706
298.444
298.31531
298.22412
298.18166
298.19271
298.25603
298.32928
298.34012
298.21505
298.05301
295.66245
291.86722
294.93051
295.44921
296.7228
297.72301
298.68627
299.54562
300.30827
300.96585
301.5187
301.96986
302.32561
302.59418
302.78504
302.90811
302.97319
302.98961
302.96591
302.90978
302.82794
302.72624
302.60967
302.48246
302.34816
302.20973
302.06964
301.92992
301.79224
301.65796
301.52818
301.4038
301.28552
301.1739
301.06936
300.97219
300.8826
300.80069
300.72649
300.65993
300.60089
300.54918
300.50451
300.46655
300.43486
300.40891
300.38808
300.37164
300.35877
300.34854
300.33989
300.33168
300.32261
300.3113
300.29624
300.27587
300.24858
300.2128
300.16702
300.10993
300.04046
299.95788
299.86181
299.75221
299.62933
299.49372
299.3463
299.18868
299.0238
298.85653
298.6942
298.54641
298.42427
298.33896
298.2973
298.29771
298.3132
298.28421
298.16724
298.04096
297.22864
294.55494
297.32838
298.18834
299.43708
300.49957
301.4105
302.17572
302.80492
303.30228
303.67854
303.94626
304.11943
304.21208
304.23764
304.20842
304.13536
304.02794
303.89426
303.74112
303.57417
303.39807
303.21664
303.03298
302.84959
302.6685
302.49133
302.31937
302.15364
301.99494
301.84389
301.70096
301.5665
301.44073
301.32381
301.21581
301.11671
301.02644
300.94488
300.87183
300.80706
300.75025
300.70105
300.65903
300.62368
300.59442
300.57057
300.55136
300.53595
300.52337
300.51259
300.50244
300.49169
300.479
300.46299
300.44225
300.41539
300.38106
300.33806
300.28534
300.22206
300.14763
300.06162
299.96375
299.85375
299.73127
299.59598
299.44792
299.28811
299.11932
298.94676
298.77827
298.62397
298.4951
298.40028
298.3397
298.29569
298.23412
298.13611
298.03979
299.22736
297.88724
300.23811
301.38853
302.60809
303.50544
304.24398
304.80283
305.20497
305.46911
305.61671
305.66804
305.6418
305.55443
305.41997
305.25013
305.05455
304.84103
304.61586
304.38403
304.14951
303.91541
303.68419
303.45777
303.23762
303.0249
302.82046
302.62496
302.43889
302.26259
302.09627
301.94009
301.7941
301.6583
301.53263
301.41698
301.31119
301.21505
301.12833
301.05074
300.98196
300.92161
300.86928
300.82447
300.78664
300.75516
300.72932
300.70835
300.69138
300.67747
300.66557
300.65456
300.64326
300.63043
300.61479
300.59511
300.57018
300.5389
300.50031
300.45357
300.39801
300.33309
300.25828
300.17297
300.0763
299.96707
299.8438
299.70501
299.54993
299.3793
299.19632
299.00724
298.82137
298.64997
298.50338
298.3859
298.29105
298.20428
298.11703
298.04011
301.69564
301.84949
303.90801
304.92229
305.85373
306.49991
306.941
307.19878
307.31009
307.3048
307.20988
307.04759
306.83606
306.58971
306.31985
306.03525
305.74266
305.44723
305.15289
304.86262
304.57863
304.3026
304.03575
303.77898
303.53293
303.29804
303.07459
302.86275
302.66259
302.47412
302.29728
302.13196
301.97803
301.83532
301.70361
301.58267
301.47224
301.37202
301.2817
301.20093
301.12933
301.06649
301.01194
300.96517
300.92561
300.8926
300.86544
300.84335
300.82548
300.81091
300.79863
300.78757
300.7766
300.76458
300.75036
300.73284
300.71099
300.68391
300.65082
300.61106
300.5641
300.50938
300.44622
300.37364
300.29018
300.19383
300.08209
299.95231
299.80221
299.63071
299.43901
299.23169
299.01735
298.80794
298.61609
298.45069
298.31368
298.20139
298.11013
298.03879
304.77363
306.28415
307.66785
308.41301
308.93128
309.17898
309.24007
309.15674
308.97009
308.71061
308.40191
308.06154
307.70249
307.33424
306.96372
306.5959
306.23438
305.8817
305.53966
305.2095
304.89203
304.58779
304.29709
304.02008
303.75678
303.50714
303.27103
303.04829
302.83871
302.64207
302.45812
302.28661
302.12725
301.97976
301.84384
301.71917
301.60541
301.50223
301.40926
301.3261
301.25235
301.18757
301.13128
301.08295
301.04198
301.00775
300.97954
300.9566
300.93811
300.9232
300.91091
300.90023
300.89011
300.87949
300.86733
300.85264
300.83453
300.81221
300.78506
300.75256
300.71427
300.66967
300.61796
300.55777
300.48703
300.40294
300.30215
300.18117
300.03672
299.86632
299.66931
299.44853
299.21186
298.97221
298.74461
298.54143
298.36894
298.22843
298.11956
298.03934
308.72985
310.62955
311.23415
311.46744
311.45692
311.26372
310.95209
310.56479
310.13244
309.67597
309.20965
308.74309
308.28276
307.8329
307.3963
306.97471
306.56918
306.18029
305.80828
305.45318
305.11484
304.79305
304.4875
304.19785
303.92376
303.66484
303.42071
303.191
302.97535
302.77337
302.58471
302.40902
302.24594
302.09511
301.95618
301.82877
301.71253
301.60707
301.51199
301.42689
301.35134
301.2849
301.22707
301.17732
301.13506
301.09968
301.07047
301.04672
301.02764
301.01242
301.00018
300.99
300.9809
300.9719
300.96202
300.95035
300.93606
300.9184
300.89681
300.87085
300.84021
300.80448
300.76289
300.71396
300.65519
300.58302
300.49315
300.38117
300.24311
300.07576
299.87726
299.6489
299.3978
299.13766
298.88539
298.65458
298.45147
298.27804
298.13883
298.04099
313.68989
314.17029
313.97778
313.65721
313.18112
312.63025
312.04271
311.4445
310.85034
310.26918
309.70607
309.16378
308.64368
308.14627
307.67152
307.21906
306.78837
306.37881
305.9897
305.62033
305.27001
304.93809
304.6239
304.32683
304.04632
303.78179
303.53274
303.29867
303.07912
302.87363
302.68179
302.50318
302.33741
302.18409
302.04283
301.91324
301.79492
301.68749
301.59053
301.50363
301.42637
301.35829
301.2989
301.24768
301.20407
301.16744
301.13714
301.11247
301.09267
301.07698
301.06459
301.05468
301.04639
301.03877
301.03088
301.02182
301.0107
300.99661
300.97891
300.95718
300.93119
300.90079
300.86561
300.82465
300.77579
300.71532
300.63773
300.53648
300.40587
300.24233
300.04445
299.81324
299.5549
299.28316
299.0159
298.76659
298.53906
298.33378
298.16089
298.04306
315.73047
315.94812
315.47304
314.7584
314.0274
313.2901
312.57009
311.8754
311.21013
310.57564
309.97193
309.39828
308.85362
308.33672
307.84628
307.38105
306.93982
306.52144
306.12485
305.74905
305.39312
305.05623
304.73758
304.43647
304.15221
303.8842
303.63186
303.39466
303.17208
302.96367
302.76899
302.58759
302.41908
302.26306
302.11913
301.98691
301.86598
301.75596
301.65644
301.56702
301.48727
301.41675
301.35499
301.30148
301.25566
301.21693
301.18467
301.15817
301.13668
301.11944
301.1057
301.09467
301.08583
301.07818
301.07083
301.06303
301.05379
301.04099
301.02383
301.00212
300.97572
300.94483
300.90966
300.87022
300.82596
300.77449
300.70954
300.62102
300.49904
300.33888
300.1415
299.91026
299.65101
299.37606
299.10301
298.84401
298.5996
298.37113
298.17574
298.04376
306.19066
303.81671
300.18309
297.08213
295.69949
295.38061
295.31757
295.32043
295.2248
295.16829
295.06903
294.9953
294.90175
294.82635
294.74826
294.66545
294.58144
294.49687
294.41177
294.32623
294.24038
294.15441
294.06852
293.9829
293.8978
293.81344
293.73007
293.64795
293.56732
293.48847
293.41165
293.33714
293.26522
293.19619
293.13033
293.06795
293.00937
292.95492
292.90496
292.85983
292.81993
292.78565
292.75739
292.73559
292.72069
292.71315
292.71344
292.72206
292.73955
292.76648
292.80346
292.85115
292.91031
292.98175
293.06637
293.16517
293.27929
293.41
293.55872
293.72703
293.91664
294.12941
294.36741
294.63315
294.92991
295.26152
295.63305
296.04173
296.48762
296.92044
297.33696
297.57502
297.69127
297.52057
297.33903
296.5459
296.373
295.87183
296.57099
296.9835
304.26364
301.3697
297.07706
294.94886
294.32688
294.32519
294.42329
294.45379
294.46173
294.44817
294.43569
294.40991
294.37918
294.33879
294.29347
294.24509
294.19343
294.13844
294.08048
294.01996
293.95725
293.89273
293.82674
293.75963
293.69176
293.62348
293.55511
293.48701
293.41951
293.35296
293.2877
293.22406
293.16239
293.10304
293.04636
292.99271
292.94245
292.89597
292.85365
292.8159
292.78313
292.75577
292.73427
292.71909
292.71067
292.70953
292.71615
292.73105
292.75478
292.78792
292.83109
292.88494
292.95023
293.02773
293.11833
293.22301
293.34287
293.47916
293.63327
293.80674
294.00126
294.21865
294.46098
294.73084
295.03155
295.36684
295.74091
296.14968
296.58939
297.00781
297.39955
297.59898
297.68899
297.46047
297.25577
296.47451
296.32468
295.85574
296.58836
297.06889
302.34327
299.25621
296.02841
294.35428
293.96706
294.01241
294.07769
294.07497
294.06185
294.04318
294.02411
294.00075
293.97431
293.94477
293.91254
293.87713
293.83889
293.79801
293.75468
293.70912
293.66155
293.6122
293.56131
293.50914
293.45595
293.40204
293.3477
293.29322
293.23892
293.18513
293.13217
293.08039
293.03012
292.98174
292.9356
292.89208
292.85157
292.81448
292.78121
292.7522
292.72789
292.70872
292.69518
292.68773
292.68688
292.69314
292.70702
292.72907
292.75984
292.79991
292.84992
292.91053
292.98245
293.06647
293.16346
293.27436
293.40027
293.54242
293.70218
293.88104
294.08066
294.30286
294.54973
294.8239
295.12872
295.46768
295.84396
296.25191
296.68405
297.08659
297.45499
297.61371
297.67919
297.39744
297.1477
296.40544
296.29258
295.84167
296.61469
297.17394
301.22073
297.78421
295.10348
293.73076
293.61313
293.65727
293.69446
293.67461
293.66722
293.64953
293.63541
293.61559
293.59473
293.57097
293.54555
293.51824
293.48923
293.4584
293.42586
293.39172
293.35607
293.31905
293.2808
293.24148
293.20128
293.1604
293.11907
293.07751
293.03599
292.99479
292.9542
292.91452
292.87609
292.83924
292.80433
292.77173
292.74183
292.71503
292.69175
292.67243
292.65754
292.64752
292.64288
292.64412
292.65175
292.66629
292.68829
292.71829
292.75686
292.8046
292.86212
292.9301
293.00924
293.10032
293.20418
293.32177
293.45416
293.60257
293.76832
293.95291
294.15795
294.38526
294.63696
294.91572
295.22484
295.56747
295.94561
296.3518
296.77485
297.15988
297.50402
297.6205
297.66106
297.33294
297.04195
296.34331
296.26356
295.83314
296.65621
297.28599
300.48189
296.69241
294.19434
293.20032
293.2566
293.25828
293.2942
293.26884
293.26941
293.25279
293.24372
293.228
293.21301
293.19577
293.17777
293.15847
293.13805
293.1164
293.09359
293.06966
293.04466
293.01866
292.99176
292.96405
292.93567
292.90676
292.87749
292.84806
292.81867
292.78957
292.76099
292.73322
292.70655
292.6813
292.65779
292.63638
292.61744
292.60137
292.58858
292.57951
292.57462
292.57439
292.57931
292.5899
292.60667
292.63016
292.66092
292.69951
292.74648
292.80245
292.86803
292.94389
293.03073
293.12931
293.24047
293.36513
293.50437
293.65938
293.83145
294.02205
294.23278
294.46545
294.72222
295.00579
295.31932
295.6655
296.04498
296.44833
296.86077
297.22682
297.54042
297.62025
297.63804
297.26467
296.94995
296.28892
296.23739
295.82924
296.71186
297.39237
300.03846
295.6553
293.46494
292.70072
292.84065
292.80756
292.86043
292.83411
292.84879
292.83744
292.83823
292.83013
292.82405
292.81549
292.80642
292.79624
292.78511
292.77299
292.75992
292.74595
292.73113
292.71553
292.69923
292.68232
292.66491
292.64712
292.62909
292.61101
292.59303
292.57538
292.55827
292.54195
292.52669
292.51277
292.50049
292.4902
292.48224
292.47699
292.47487
292.47629
292.48172
292.49163
292.50652
292.5269
292.55329
292.58621
292.62623
292.67388
292.72974
292.79442
292.86853
292.95271
293.04768
293.15417
293.27302
293.40514
293.55157
293.71349
293.89218
294.08907
294.30574
294.54402
294.80609
295.09463
295.41263
295.76215
296.14231
296.54165
296.94196
297.28773
297.56528
297.61636
297.61203
297.18894
296.86765
296.24006
296.21744
295.82966
296.77474
297.49318
299.54302
294.66493
292.87185
292.23372
292.42787
292.36698
292.44039
292.41296
292.44134
292.43452
292.44469
292.44372
292.44593
292.44539
292.4446
292.44282
292.44018
292.43674
292.43253
292.42762
292.42204
292.41588
292.40921
292.40211
292.39468
292.38705
292.37933
292.37168
292.36426
292.35726
292.35088
292.34535
292.3409
292.3378
292.33634
292.33682
292.3396
292.34502
292.35348
292.36541
292.38124
292.40145
292.42651
292.45693
292.49321
292.53589
292.58549
292.64257
292.70769
292.78145
292.86445
292.95734
293.06079
293.17555
293.30243
293.44232
293.59626
293.76538
293.95095
294.15437
294.37721
294.6213
294.88886
295.18249
295.50491
295.85741
296.23747
296.63153
297.01818
297.34264
297.58035
297.60356
297.5811
297.10721
296.78931
296.19135
296.20088
295.83495
296.83744
297.59322
299.13185
293.79129
292.39842
291.81048