/*--------------------------------*- C++ -*----------------------------------*\
  =========                 |
  \\      /  F ield         | OpenFOAM: The Open Source CFD Toolbox
   \\    /   O peration     | Website:  https://openfoam.org
    \\  /    A nd           | Version:  12
     \\/     M anipulation  |
\*---------------------------------------------------------------------------*/
FoamFile
{
    format      ascii;
    class       volScalarField;
    location    "0.137";
    object      alphat;
}
// * * * * * * * * * * * * * * * * * * * * * * * * * * * * * * * * * * * * * //

dimensions      [1 -1 -1 0 0 0 0];

internalField   nonuniform List<scalar> 
16000
(
4.9491754e-07
1.0779069e-05
2.0465255e-05
2.5827836e-05
1.9765184e-05
2.7207325e-05
1.920148e-05
2.6344107e-05
2.0534765e-05
2.8336539e-05
2.3845178e-05
2.8049157e-05
2.5582129e-05
2.6289479e-05
2.5419107e-05
2.529694e-05
2.5054168e-05
2.5005443e-05
2.5042151e-05
2.5186795e-05
2.5431309e-05
2.5775434e-05
2.6216749e-05
2.6755614e-05
2.7394756e-05
2.8140979e-05
2.9003415e-05
2.9996481e-05
3.1137736e-05
3.2446131e-05
3.3942497e-05
3.5654426e-05
3.7617504e-05
3.9875599e-05
4.2482721e-05
4.5503379e-05
4.9014514e-05
5.3107969e-05
5.7897472e-05
6.3524032e-05
7.0153389e-05
7.798097e-05
8.7253225e-05
9.8272351e-05
0.0001113985
0.0001270641
0.00014580568
0.00016827783
0.00019527863
0.0002277822
0.00026698314
0.00031435016
0.0003716836
0.00044119562
0.00052560563
0.00062827068
0.00075334916
0.00090601568
0.0010927482
0.0011800749
0.0011807857
0.001181394
0.0011818764
0.0011821981
0.0011823549
0.0011823382
0.0011821442
0.0011817656
0.0011811762
0.0011803252
0.0011791756
0.001177731
0.0011760091
0.0011746872
0.0011736532
0.0011728675
0.0011723251
0.0011722401
0.0011725165
0.0011735324
4.4408883e-07
1.0211214e-05
2.1280553e-05
2.3120047e-05
1.7803129e-05
2.4367752e-05
1.7029418e-05
2.3048861e-05
1.8133788e-05
2.5005994e-05
2.1574376e-05
2.5265823e-05
2.3376572e-05
2.3803108e-05
2.3129785e-05
2.2952401e-05
2.2754404e-05
2.2700715e-05
2.2738475e-05
2.2872179e-05
2.30992e-05
2.341892e-05
2.382961e-05
2.4331702e-05
2.4927424e-05
2.5623153e-05
2.6426854e-05
2.735155e-05
2.8413862e-05
2.9632272e-05
3.102619e-05
3.2620868e-05
3.4449269e-05
3.6552046e-05
3.8979759e-05
4.1793099e-05
4.5064927e-05
4.8881611e-05
5.3349184e-05
5.8601228e-05
6.4797107e-05
7.2121008e-05
8.0805245e-05
9.1138177e-05
0.00010346601
0.00011820018
0.00013585298
0.00015705159
0.00018256247
0.00021332191
0.00025047852
0.00029544842
0.00034996997
0.00041618333
0.00049672195
0.00059484027
0.00071457461
0.00086094289
0.0010402123
0.0011795666
0.0011802778
0.0011808468
0.0011812987
0.0011815929
0.0011817262
0.0011816908
0.0011814826
0.0011810955
0.0011805082
0.0011796738
0.0011785518
0.0011771548
0.0011755044
0.0011742289
0.0011732329
0.0011724653
0.0011719322
0.0011717187
0.0011720868
0.0011731602
3.9254041e-07
9.7693184e-06
2.0095227e-05
2.1181812e-05
1.5931626e-05
2.1436496e-05
1.5152308e-05
2.0018075e-05
1.6294507e-05
2.1929174e-05
1.9660729e-05
2.2488454e-05
2.1166513e-05
2.1308749e-05
2.0795263e-05
2.0593943e-05
2.0430263e-05
2.0381607e-05
2.0421874e-05
2.0548882e-05
2.07614e-05
2.105918e-05
2.1440835e-05
2.1907039e-05
2.2459617e-05
2.3104709e-05
2.3849454e-05
2.4705669e-05
2.5688851e-05
2.6816999e-05
2.8108556e-05
2.9586904e-05
3.1282822e-05
3.3234177e-05
3.5488459e-05
3.8102829e-05
4.1146518e-05
4.4701571e-05
4.8867526e-05
5.3770513e-05
5.9564606e-05
6.6425261e-05
7.4572583e-05
8.4281879e-05
9.5888051e-05
0.00010978534
0.00012646538
0.00014653208
0.00017072515
0.00019994962
0.0002353154
0.00027819427
0.00033027201
0.00039362794
0.00047082283
0.00056502333
0.00068016069
0.00082112614
0.00099401795
0.0011792432
0.001179944
0.0011804565
0.0011808582
0.0011811062
0.0011811982
0.0011811275
0.0011808902
0.0011804798
0.0011798774
0.0011790412
0.0011779279
0.001176557
0.0011749836
0.0011737661
0.0011728164
0.0011720784
0.001171541
0.0011712704
0.0011716571
0.0011722841
3.5393741e-07
9.4357306e-06
1.9056803e-05
1.964151e-05
1.4307768e-05
1.8916076e-05
1.3493009e-05
1.7485668e-05
1.4657282e-05
1.932114e-05
1.793805e-05
2.003183e-05
1.9129734e-05
1.9065143e-05
1.8670861e-05
1.846807e-05
1.8334618e-05
1.8296606e-05
1.8342458e-05
1.8466732e-05
1.8668781e-05
1.8948793e-05
1.9305761e-05
1.9740739e-05
2.0255288e-05
2.0855474e-05
2.1547888e-05
2.2343398e-05
2.3256443e-05
2.4304631e-05
2.5505768e-05
2.6881652e-05
2.8461302e-05
3.0280196e-05
3.2383239e-05
3.4824565e-05
3.7670282e-05
4.0999062e-05
4.4905293e-05
4.9508192e-05
5.4957785e-05
6.1422923e-05
6.9113923e-05
7.8294517e-05
8.9291461e-05
0.00010248575
0.00011835275
0.00013747824
0.00016058138
0.00018854425
0.00022244735
0.00026362993
0.0003137391
0.00037481062
0.00044935405
0.00054047443
0.00065202904
0.00078882315
0.00095684949
0.0011635774
0.0011798171
0.0011802576
0.0011805929
0.0011807797
0.001180816
0.0011806967
0.0011804181
0.001179973
0.0011793436
0.0011784928
0.0011773746
0.0011760122
0.0011745041
0.0011733409
0.0011724358
0.001171727
0.0011711818
0.001170875
0.0011712144
0.0011715659
3.1939914e-07
9.1870298e-06
1.8149146e-05
1.962104e-05
1.4244492e-05
1.67196e-05
1.2037933e-05
1.5313949e-05
1.3251566e-05
1.7072269e-05
1.6408554e-05
1.7821646e-05
1.7233319e-05
1.7028936e-05
1.6722849e-05
1.6533901e-05
1.6425443e-05
1.6398838e-05
1.6449083e-05
1.6570071e-05
1.6761364e-05
1.702376e-05
1.7356688e-05
1.7761703e-05
1.8240249e-05
1.879841e-05
1.9442386e-05
2.0182293e-05
2.1031531e-05
2.2007275e-05
2.3126909e-05
2.4410923e-05
2.5886877e-05
2.7588198e-05
2.9557573e-05
3.1846513e-05
3.4518348e-05
3.7649025e-05
4.1329081e-05
4.5671175e-05
5.0821943e-05
5.6945298e-05
6.4243934e-05
7.2970753e-05
8.3446354e-05
9.6041457e-05
0.000111218
0.00012954701
0.00015173058
0.00017863305
0.00021131078
0.00025107707
0.00029954761
0.00035872326
0.00043107289
0.00051965211
0.00062825859
0.00076162745
0.00092566774
0.001127738
0.001179877
0.0011802315
0.0011804846
0.0011805956
0.0011805626
0.001180382
0.0011800504
0.0011795595
0.0011788907
0.0011780117
0.0011768768
0.0011755078
0.0011740664
0.0011729563
0.0011720949
0.0011714157
0.0011708646
0.0011705266
0.0011707879
0.001170892
2.9407612e-07
9.0343507e-06
1.7422058e-05
1.9360447e-05
1.4002451e-05
1.4802363e-05
1.1364422e-05
1.3522688e-05
1.2266382e-05
1.5180414e-05
1.5073734e-05
1.5886234e-05
1.5506913e-05
1.5219912e-05
1.496932e-05
1.4796453e-05
1.4703952e-05
1.4684268e-05
1.4735015e-05
1.485039e-05
1.5029918e-05
1.5274904e-05
1.5585033e-05
1.5962274e-05
1.6408036e-05
1.69284e-05
1.7529244e-05
1.8220099e-05
1.9013358e-05
1.9925736e-05
2.0974392e-05
2.2178762e-05
2.3565262e-05
2.5165622e-05
2.7020726e-05
2.9179921e-05
3.1704207e-05
3.4667384e-05
3.8157542e-05
4.2281714e-05
4.7183473e-05
5.3023547e-05
5.9999761e-05
6.8355256e-05
7.8406667e-05
9.0517916e-05
0.00010514099
0.00012283635
0.00014429341
0.00017036522
0.00020209083
0.00024076614
0.00028798531
0.00034572588
0.00041643062
0.00050312303
0.00060956134
0.00074043394
0.00090159594
0.0011003362
0.0011801117
0.0011803673
0.0011805244
0.001180547
0.0011804332
0.0011801803
0.0011797853
0.0011792383
0.0011785187
0.0011775984
0.0011764375
0.0011750498
0.001173677
0.0011726183
0.0011717989
0.00117115
0.0011705993
0.0011702236
0.0011703691
0.0011702568
2.6352722e-07
8.9484059e-06
1.6857824e-05
1.8309874e-05
1.3877774e-05
1.3073888e-05
1.1412956e-05
1.2451555e-05
1.1831323e-05
1.35503e-05
1.3879198e-05
1.4180847e-05
1.3910412e-05
1.3586734e-05
1.3367281e-05
1.321056e-05
1.3129652e-05
1.3115605e-05
1.3166531e-05
1.327724e-05
1.3446927e-05
1.3677307e-05
1.3968049e-05
1.4237294e-05
1.4644636e-05
1.512359e-05
1.5679194e-05
1.6320184e-05
1.7057751e-05
1.7907785e-05
1.8887185e-05
2.0014366e-05
2.1314694e-05
2.2818282e-05
2.4564342e-05
2.6600248e-05
2.8984818e-05
3.1789747e-05
3.510155e-05
3.931717e-05
4.4017757e-05
4.9630413e-05
5.6350908e-05
6.4414039e-05
7.4133757e-05
8.5870586e-05
0.00010006993
0.0001172856
0.00013819796
0.00016365489
0.00019468419
0.00023257214
0.00027890021
0.00033563287
0.00040519952
0.00049060682
0.00059559125
0.00072481441
0.00088410209
0.0010807075
0.0011805036
0.0011806488
0.0011806981
0.0011806219
0.0011804178
0.0011800837
0.0011796162
0.0011790035
0.0011782223
0.0011772479
0.0011760532
0.0011746377
0.0011733435
0.0011723344
0.0011715539
0.0011709356
0.0011703915
0.0011699696
0.0011699737
0.0011695977
2.3843904e-07
8.8998193e-06
1.6378235e-05
1.6651838e-05
1.2712969e-05
1.1391283e-05
9.8669669e-06
1.1115581e-05
1.0391723e-05
1.2180191e-05
1.2679362e-05
1.2617307e-05
1.2389775e-05
1.207372e-05
1.1879661e-05
1.1743964e-05
1.1677292e-05
1.1672063e-05
1.165525e-05
1.1747206e-05
1.1898183e-05
1.2108792e-05
1.2376971e-05
1.2703224e-05
1.3092468e-05
1.3548377e-05
1.4076322e-05
1.4684962e-05
1.5384878e-05
1.6191485e-05
1.7121901e-05
1.8193998e-05
1.9432648e-05
2.0866947e-05
2.2535142e-05
2.448337e-05
2.676915e-05
2.9462902e-05
3.2650604e-05
3.6437009e-05
4.0949896e-05
4.6351085e-05
5.2836402e-05
6.1145261e-05
7.0627064e-05
8.2100475e-05
9.6008084e-05
0.00011290085
0.00013345394
0.00015851653
0.0001891116
0.00022652397
0.00027233211
0.00032849835
0.00039745226
0.00048220023
0.00058647627
0.00071493733
0.00087340543
0.0010691334
0.0011810319
0.0011810573
0.0011809895
0.0011808063
0.0011805048
0.0011800826
0.0011795348
0.0011788479
0.0011779963
0.0011769565
0.0011757215
0.0011742935
0.0011730712
0.0011721101
0.0011713651
0.0011707767
0.0011702443
0.0011697664
0.0011696166
0.001169001
2.2039857e-07
8.8516532e-06
1.5884925e-05
1.4573486e-05
1.044851e-05
1.0124979e-05
8.1334588e-06
9.4795744e-06
9.6715995e-06
1.0958859e-05
1.1464014e-05
1.1165802e-05
1.0958419e-05
1.067572e-05
1.0507444e-05
1.0322544e-05
1.0244892e-05
1.0233933e-05
1.0281956e-05
1.0386064e-05
1.0542125e-05
1.0752152e-05
1.1015222e-05
1.1331647e-05
1.1706319e-05
1.2143911e-05
1.2649832e-05
1.3232779e-05
1.3902924e-05
1.467519e-05
1.5567029e-05
1.6596034e-05
1.778691e-05
1.9168061e-05
2.0777152e-05
2.2659601e-05
2.4872167e-05
2.7484604e-05
3.0582222e-05
3.4268897e-05
3.8672823e-05
4.3953542e-05
5.0310049e-05
5.7973364e-05
6.7239731e-05
7.8477945e-05
9.2945276e-05
0.00010967131
0.00013005008
0.00015493827
0.00018536089
0.00022260959
0.00026826959
0.00032431235
0.00039318141
0.00047789992
0.00058221954
0.00071081545
0.00086953152
0.0010656539
0.0011816732
0.0011815714
0.0011813801
0.0011810843
0.0011806805
0.001180165
0.0011795305
0.0011787619
0.0011778334
0.0011767207
0.001175438
0.0011740206
0.0011728655
0.0011719508
0.0011712381
0.0011706779
0.0011701607
0.0011696203
0.0011693272
0.0011687173
2.0189841e-07
8.8068567e-06
1.4278237e-05
1.2691206e-05
8.4500426e-06
9.0009879e-06
7.2344214e-06
8.5567458e-06
8.9591416e-06
9.8072173e-06
1.0262855e-05
9.8449861e-06
9.6442987e-06
9.3097325e-06
9.1306653e-06
9.0210087e-06
8.9779616e-06
8.9925101e-06
9.0584721e-06
9.1725698e-06
9.3359093e-06
9.5458553e-06
9.805279e-06
1.0114438e-05
1.0478459e-05
1.0902439e-05
1.1391957e-05
1.1955891e-05
1.260416e-05
1.3351237e-05
1.4214977e-05
1.5213039e-05
1.6370226e-05
1.7714558e-05
1.9283494e-05
2.1122188e-05
2.3287146e-05
2.5848062e-05
2.8890639e-05
3.2519265e-05
3.686228e-05
4.2078826e-05
4.837156e-05
5.5971654e-05
6.5178029e-05
7.6361877e-05
8.9981239e-05
0.00010657448
0.00012798456
0.0001529206
0.00018343624
0.0002208381
0.00026672876
0.0003231006
0.00039242567
0.00047776197
0.00058290031
0.00071255941
0.00087263232
0.0010704716
0.0011824015
0.0011821677
0.0011818494
0.0011814378
0.0011809284
0.0011803158
0.0011795895
0.0011787331
0.0011777241
0.0011765373
0.0011751976
0.0011738222
0.00117273
0.0011718603
0.0011711784
0.0011706449
0.0011701447
0.0011695463
0.0011691192
0.001168534
1.8636854e-07
8.7602546e-06
1.1345062e-05
1.0534561e-05
6.9426461e-06
8.0173902e-06
6.5977958e-06
7.6927796e-06
8.3878471e-06
8.7647221e-06
9.0859477e-06
8.552855e-06
8.3010023e-06
8.0707211e-06
7.9404747e-06
7.8709785e-06
7.8573848e-06
7.8939851e-06
7.975577e-06
8.1014492e-06
8.2689066e-06
8.4808091e-06
8.7389562e-06
9.0441377e-06
9.4015807e-06
9.8168655e-06
1.0295869e-05
1.0847716e-05
1.1482296e-05
1.2213719e-05
1.299327e-05
1.3961527e-05
1.5086925e-05
1.6397081e-05
1.7929241e-05
1.9728335e-05
2.1850697e-05
2.4366029e-05
2.7360567e-05
3.0939533e-05
3.5232583e-05
4.0717324e-05
4.7012101e-05
5.4628249e-05
6.3867556e-05
7.5105043e-05
8.8811567e-05
0.00010553794
0.00012597933
0.00015100327
0.00018333661
0.00022121352
0.0002677206
0.00032488357
0.00039521831
0.00048183697
0.00058859255
0.00072027501
0.00088285683
0.0010837892
0.0011831895
0.0011828213
0.0011823751
0.0011818469
0.0011812304
0.0011805177
0.0011796959
0.0011787479
0.0011776568
0.0011764023
0.0011749991
0.0011737004
0.0011726672
0.0011718413
0.0011711913
0.0011706835
0.0011701976
0.0011695501
0.0011690038
0.0011685067
1.7264531e-07
8.71661e-06
8.9555914e-06
8.9653436e-06
6.1098757e-06
7.1064493e-06
6.0635652e-06
6.9406855e-06
7.808084e-06
7.7934119e-06
7.8091653e-06
7.3558327e-06
7.151291e-06
6.9839876e-06
6.8952551e-06
6.8592617e-06
6.8711783e-06
6.9269048e-06
7.0227146e-06
7.1585576e-06
7.3332707e-06
7.5488923e-06
7.8084777e-06
8.1133138e-06
8.468727e-06
8.8424603e-06
9.3092088e-06
9.8481824e-06
1.0469137e-05
1.118572e-05
1.201437e-05
1.2976473e-05
1.4096175e-05
1.5401226e-05
1.6929294e-05
1.8725854e-05
2.0848025e-05
2.3366532e-05
2.6369451e-05
2.9964354e-05
3.4284092e-05
3.9494739e-05
4.579987e-05
5.344371e-05
6.2733189e-05
7.4693767e-05
8.8619228e-05
0.00010563396
0.00012644528
0.00015194697
0.0001832322
0.00022373777
0.00027125536
0.00032968269
0.00040159552
0.00049018098
0.00059937903
0.00073408144
0.0009003751
0.0011058418
0.0011840092
0.0011835066
0.0011829343
0.0011822903
0.0011815661
0.0011807513
0.0011798322
0.0011787924
0.0011776188
0.0011763078
0.001174871
0.0011736554
0.0011726778
0.0011718944
0.0011712795
0.0011707969
0.0011703174
0.0011696395
0.0011690162
0.001168617
1.6043745e-07
8.6655471e-06
7.1284333e-06
7.8760463e-06
5.4498623e-06
6.2948484e-06
5.6071517e-06
6.276204e-06
7.1173021e-06
6.6895032e-06
6.6577817e-06
6.3099819e-06
6.148987e-06
6.0326057e-06
5.979469e-06
5.9724164e-06
6.0069994e-06
6.0807281e-06
6.1906645e-06
6.3375282e-06
6.520755e-06
6.7427219e-06
6.9772064e-06
7.2790165e-06
7.6311153e-06
8.0384203e-06
8.5091345e-06
9.0520557e-06
9.677204e-06
1.0398486e-05
1.1232549e-05
1.2200572e-05
1.3328171e-05
1.4643565e-05
1.6185134e-05
1.799932e-05
2.0144641e-05
2.2693427e-05
2.573641e-05
2.9384685e-05
3.3774543e-05
3.9075888e-05
4.5502811e-05
5.3305773e-05
6.280135e-05
7.4383543e-05
8.8542176e-05
0.00010586984
0.00012821618
0.00015442055
0.00018658653
0.0002261096
0.00027733306
0.00033750894
0.00041158231
0.00050283796
0.00061532975
0.00075408387
0.00092534355
0.0011368561
0.0011848332
0.0011841982
0.0011835034
0.0011827458
0.0011819146
0.0011809972
0.0011799814
0.0011788537
0.0011776009
0.0011762368
0.0011748276
0.0011736866
0.0011727605
0.0011720177
0.0011714413
0.0011709838
0.0011704988
0.0011698161
0.0011691984
0.0011688896
1.4962188e-07
8.6041575e-06
5.7232329e-06
6.8893845e-06
4.8641521e-06
5.5744236e-06
5.2206571e-06
5.5996532e-06
6.2454943e-06
5.7319008e-06
5.6480773e-06
5.3956936e-06
5.2757515e-06
5.2019683e-06
5.1805249e-06
5.1996947e-06
5.2556317e-06
5.3469711e-06
5.4716218e-06
5.609629e-06
5.796867e-06
6.022828e-06
6.2902561e-06
6.6026823e-06
6.9651327e-06
7.3829629e-06
7.8643067e-06
8.4186957e-06
9.0564255e-06
9.7916215e-06
1.064111e-05
1.162638e-05
1.2715815e-05
1.4042705e-05
1.5598829e-05
1.7431565e-05
1.9601065e-05
2.2181335e-05
2.5265816e-05
2.8969726e-05
3.3433963e-05
3.9128427e-05
4.5738064e-05
5.3773946e-05
6.3563596e-05
7.5512328e-05
9.0133336e-05
0.00010804522
0.00013000609
0.00015839805
0.00019171825
0.00023267575
0.00028304969
0.00034835267
0.00042518099
0.00051982574
0.00063648529
0.00078035359
0.00095787906
0.0011770219
0.0011856352
0.0011848717
0.0011840593
0.0011831913
0.0011822553
0.0011812376
0.0011801278
0.0011789189
0.0011775981
0.0011761773
0.0011748618
0.0011737906
0.0011729126
0.0011722074
0.0011716704
0.0011712376
0.0011707363
0.0011700676
0.0011695496
0.0011693035
1.4004999e-07
8.4832784e-06
4.652342e-06
6.0128809e-06
4.3421901e-06
4.9345747e-06
4.8849877e-06
4.8626201e-06
5.3648913e-06
4.8780767e-06
4.7731932e-06
4.5995943e-06
4.5188791e-06
4.4820871e-06
4.4896522e-06
4.5333027e-06
4.6099374e-06
4.7002187e-06
4.8342173e-06
5.0027009e-06
5.2068236e-06
5.4484808e-06
5.7311869e-06
6.0587004e-06
6.4366977e-06
6.8708396e-06
7.3693523e-06
7.9183399e-06
8.569671e-06
9.3195699e-06
1.0184948e-05
1.1187361e-05
1.2353168e-05
1.37155e-05
1.5313898e-05
1.7197352e-05
1.942881e-05
2.2085141e-05
2.5263584e-05
2.9085285e-05
3.3697704e-05
3.9286721e-05
4.6077215e-05
5.4346302e-05
6.4435575e-05
7.7409968e-05
9.2619208e-05
0.00011126427
0.00013414007
0.00016222762
0.00019858421
0.00024130378
0.00029385949
0.00035853557
0.00044235289
0.00054111461
0.00066283053
0.00081289694
0.00099801797
0.0011872606
0.001186391
0.0011855051
0.0011845804
0.0011836064
0.0011825695
0.0011814568
0.001180259
0.001178974
0.0011776048
0.0011761686
0.0011749629
0.0011739615
0.0011731295
0.0011724585
0.0011719572
0.001171547
0.0011710276
0.0011703848
0.0011700072
0.0011697632
1.3163758e-07
8.1564153e-06
3.9147212e-06
5.2360709e-06
3.8788067e-06
4.3689435e-06
4.3501732e-06
4.1961024e-06
4.5152969e-06
4.1233517e-06
4.023743e-06
3.9131453e-06
3.8694332e-06
3.8655172e-06
3.8998845e-06
3.9520704e-06
4.0419309e-06
4.1649819e-06
4.3205332e-06
4.5090393e-06
4.7323438e-06
4.9929154e-06
5.294743e-06
5.6419074e-06
6.0267602e-06
6.4782675e-06
6.9948731e-06
7.5861071e-06
8.2639484e-06
9.042667e-06
9.9396444e-06
1.0977349e-05
1.2183271e-05
1.3591861e-05
1.5245451e-05
1.7194907e-05
1.9506639e-05
2.2261241e-05
2.5560071e-05
2.9531622e-05
3.4329397e-05
4.0148798e-05
4.7229523e-05
5.5861263e-05
6.6405042e-05
7.930396e-05
9.5947977e-05
0.00011547459
0.00013944018
0.000168885
0.00020506224
0.00025191563
0.00030704189
0.00037489413
0.00045842205
0.00056659839
0.00069426026
0.00085161566
0.0010456668
0.0011880603
0.0011870794
0.0011860793
0.0011850484
0.0011839737
0.0011828417
0.0011816417
0.0011803656
0.00117901
0.0011775984
0.0011762328
0.0011751214
0.00117419
0.0011734046
0.0011727667
0.0011722935
0.0011718984
0.0011713687
0.0011707633
0.0011705415
0.0011704002
1.2446758e-07
7.7408851e-06
3.4517418e-06
4.5478782e-06
3.4679583e-06
3.7059235e-06
3.8787909e-06
3.5854511e-06
3.7462465e-06
3.4679108e-06
3.3899104e-06
3.3292939e-06
3.3194757e-06
3.3452387e-06
3.3874661e-06
3.4716096e-06
3.5877115e-06
3.7346239e-06
3.9126384e-06
4.1230057e-06
4.3681688e-06
4.6509006e-06
4.965994e-06
5.3336913e-06
5.7531115e-06
6.2309533e-06
6.7752658e-06
7.3959281e-06
8.1051774e-06
8.9182096e-06
9.8529854e-06
1.0932969e-05
1.2186944e-05
1.3651144e-05
1.5304609e-05
1.7316489e-05
1.9704302e-05
2.255297e-05
2.6124721e-05
3.027568e-05
3.5295417e-05
4.1388821e-05
4.8811751e-05
5.7869653e-05
6.8942146e-05
8.2499274e-05
9.9117779e-05
0.00011950553
0.00014582335
0.00017682721
0.00021493264
0.00026178846
0.00032245215
0.00039393775
0.00048193938
0.00059606057
0.00073053632
0.00089625711
0.00110056
0.0011887716
0.0011876852
0.0011865793
0.0011854489
0.0011842804
0.0011830608
0.0011817813
0.0011804379
0.0011790285
0.0011775801
0.0011763522
0.0011753273
0.0011744642
0.0011737288
0.0011731273
0.0011726756
0.0011722839
0.0011717565
0.0011712088
0.0011711335
0.0011710314
1.1883197e-07
6.7148514e-06
3.0579399e-06
3.9236637e-06
3.1142489e-06
3.0935434e-06
3.4092006e-06
3.0324455e-06
3.0855473e-06
2.9081492e-06
2.859493e-06
2.8397095e-06
2.852291e-06
2.897214e-06
2.9779688e-06
3.0901993e-06
3.2319489e-06
3.4031708e-06
3.6049737e-06
3.8390818e-06
4.1023303e-06
4.4076601e-06
4.7552362e-06
5.1498416e-06
5.5971858e-06
6.104193e-06
6.679284e-06
7.3327308e-06
8.0771692e-06
8.9087761e-06
9.8795431e-06
1.0999228e-05
1.2297839e-05
1.3812974e-05
1.5591649e-05
1.769264e-05
2.01886e-05
2.317047e-05
2.6751075e-05
3.1069793e-05
3.6299674e-05
4.2960997e-05
5.0772349e-05
6.0313908e-05
7.1985189e-05
8.6282858e-05
0.00010381777
0.00012534185
0.00015317238
0.00018591923
0.00022617871
0.0002756888
0.00033986648
0.00041540535
0.00050840616
0.00062293491
0.0007712422
0.00094635395
0.0011621799
0.001189384
0.0011881983
0.0011869956
0.0011857731
0.0011845188
0.0011832206
0.0011818696
0.0011804655
0.0011790276
0.0011776418
0.0011765136
0.0011755698
0.0011747711
0.0011740895
0.0011735318
0.0011731006
0.0011727003
0.0011721779
0.0011716985
0.0011717345
0.0011717907
1.1430697e-07
4.7137936e-06
2.7022901e-06
3.3450919e-06
2.664e-06
2.5806495e-06
2.9140418e-06
2.5399402e-06
2.5354599e-06
2.4369276e-06
2.4213149e-06
2.4290813e-06
2.4726806e-06
2.551851e-06
2.6622286e-06
2.8013179e-06
2.9684767e-06
3.1643883e-06
3.3874935e-06
3.6449502e-06
3.9379732e-06
4.2699253e-06
4.644892e-06
5.0678394e-06
5.5447561e-06
6.0828605e-06
6.6909167e-06
7.3684646e-06
8.1466412e-06
9.034041e-06
1.0050973e-05
1.1222663e-05
1.2580901e-05
1.4165606e-05
1.6026816e-05
1.8226875e-05
2.084326e-05
2.3972343e-05
2.7734004e-05
3.2276965e-05
3.7785483e-05
4.4486707e-05
5.3053197e-05
6.312633e-05
7.5455533e-05
9.056619e-05
0.00010910499
0.00013186936
0.00015984222
0.00019597678
0.00023858256
0.00029098697
0.00035546937
0.0004389194
0.00053736997
0.00065861483
0.00081573777
0.0010011617
0.0011911809
0.0011898914
0.0011886141
0.0011873246
0.0011860185
0.0011846866
0.001183319
0.0011819075
0.0011804529
0.0011789923
0.0011777525
0.0011767119
0.0011758394
0.001175099
0.0011744728
0.0011739652
0.0011735589
0.0011731467
0.0011726288
0.0011722375
0.0011723752
0.0011724934
1.0953549e-07
3.916595e-06
2.3302401e-06
2.8119987e-06
2.2973105e-06
2.152418e-06
2.4010984e-06
2.1075314e-06
2.0882857e-06
2.0502387e-06
2.0635049e-06
2.1058177e-06
2.1854406e-06
2.2954014e-06
2.433111e-06
2.5976473e-06
2.7893511e-06
3.0072286e-06
3.256963e-06
3.539863e-06
3.8589068e-06
4.2177028e-06
4.620568e-06
5.0726604e-06
5.5801782e-06
6.1506082e-06
6.7854616e-06
7.5077712e-06
8.3261468e-06
9.2576239e-06
1.0323634e-05
1.155093e-05
1.2973155e-05
1.4632598e-05
1.6582472e-05
1.8889382e-05
2.1635994e-05
2.4924724e-05
2.8882913e-05
3.3667909e-05
3.9474985e-05
4.6882294e-05
5.5585585e-05
6.6226435e-05
7.9258026e-05
9.5235951e-05
0.0001148445
0.00013892721
0.00017008506
0.00020676049
0.00025185496
0.00030733025
0.00037560083
0.00046396638
0.00056821997
0.00069663048
0.0008631135
0.0010595914
0.0011916502
0.0011902912
0.0011889335
0.0011875681
0.0011861886
0.0011847878
0.0011833583
0.0011818955
0.001180416
0.0011790329
0.0011778951
0.0011769383
0.0011761293
0.0011754406
0.0011748668
0.0011744102
0.0011740327
0.0011736203
0.0011731186
0.0011728195
0.0011730481
0.0011731919
1.0632914e-07
3.155234e-06
2.0094674e-06
2.2725885e-06
1.9966982e-06
1.7860264e-06
1.9240634e-06
1.7407845e-06
1.7372162e-06
1.747814e-06
1.7911134e-06
1.8713602e-06
1.9819147e-06
2.1188258e-06
2.281079e-06
2.468951e-06
2.6823474e-06
2.9249906e-06
3.1987152e-06
3.5062473e-06
3.85085e-06
4.2363417e-06
4.6672005e-06
5.1487302e-06
5.6872962e-06
6.2862952e-06
6.9616119e-06
7.7220175e-06
8.5817602e-06
9.5587229e-06
1.0675608e-05
1.1960776e-05
1.3449923e-05
1.518785e-05
1.7230888e-05
1.9649846e-05
2.253321e-05
2.5989551e-05
3.0154409e-05
3.519457e-05
4.1588428e-05
4.9107694e-05
5.8287908e-05
6.9518991e-05
8.3278831e-05
0.00010015588
0.00012087366
0.00014632454
0.00017920823
0.00021796514
0.00026563022
0.00032427757
0.00039646722
0.00048986563
0.00060013674
0.00073599613
0.00091215536
0.0011201735
0.001192011
0.0011905884
0.0011891625
0.0011877328
0.0011862913
0.0011848316
0.0011833491
0.0011818476
0.0011803638
0.0011791161
0.0011780645
0.0011771821
0.0011764331
0.0011757934
0.001175266
0.0011748565
0.0011745058
0.0011741057
0.0011736406
0.0011734284
0.0011737285
0.0011738598
1.0499872e-07
2.488454e-06
1.732215e-06
1.7546194e-06
1.7196474e-06
1.4725333e-06
1.5345176e-06
1.4486118e-06
1.4758877e-06
1.5214681e-06
1.6034439e-06
1.7141991e-06
1.8502364e-06
2.0099888e-06
2.1937436e-06
2.4026731e-06
2.6377331e-06
2.9024757e-06
3.1990221e-06
3.5303611e-06
3.8999265e-06
4.3116779e-06
4.7702169e-06
5.2809669e-06
5.8504229e-06
6.4864909e-06
7.1989273e-06
7.9998683e-06
8.8942309e-06
9.9171458e-06
1.1085548e-05
1.2429508e-05
1.3986916e-05
1.5805317e-05
1.7944206e-05
2.0561367e-05
2.3607151e-05
2.7261691e-05
3.1669442e-05
3.7008516e-05
4.3498185e-05
5.1407977e-05
6.1070745e-05
7.2896058e-05
8.7388172e-05
0.00010516836
0.00012700073
0.00015516993
0.00018838853
0.00022922847
0.00027946454
0.00034128671
0.00042135051
0.00051577872
0.00063209974
0.00077547417
0.00096132754
0.0011810464
0.001192275
0.0011907956
0.0011893125
0.0011878288
0.0011863369
0.0011848293
0.0011833022
0.0011817784
0.0011803876
0.0011792306
0.0011782548
0.0011774337
0.0011767409
0.0011761566
0.0011756673
0.0011753009
0.0011749741
0.0011745918
0.0011741766
0.0011740442
0.0011743794
0.0011744796
1.0660127e-07
1.9172679e-06
1.5011227e-06
1.3576337e-06
1.437349e-06
1.2096486e-06
1.2494164e-06
1.2346597e-06
1.2946734e-06
1.3746516e-06
1.4852124e-06
1.6194575e-06
1.7760607e-06
1.9551385e-06
2.157904e-06
2.386101e-06
2.6414903e-06
2.9271222e-06
3.2455334e-06
3.5998459e-06
3.9935956e-06
4.4308358e-06
4.9162701e-06
5.4554436e-06
6.0550049e-06
6.7230625e-06
7.4696589e-06
8.3073633e-06
9.2520073e-06
1.0323617e-05
1.1547508e-05
1.2955737e-05
1.458869e-05
1.6497126e-05
1.8744562e-05
2.1410192e-05
2.4592504e-05
2.8413968e-05
3.3026041e-05
3.8616101e-05
4.5415448e-05
5.3708445e-05
6.384265e-05
7.6248431e-05
9.1454163e-05
0.00011102218
0.00013410428
0.00016245507
0.00019729958
0.0002401497
0.00029286935
0.00036111776
0.00044160908
0.00054074776
0.00066293102
0.00082151507
0.0010088054
0.0011940127
0.0011924595
0.0011909305
0.0011894002
0.0011878704
0.0011863364
0.0011847945
0.0011832462
0.0011817286
0.0011804584
0.0011793789
0.0011784669
0.001177693
0.0011770407
0.0011765195
0.0011760636
0.0011757286
0.001175419
0.00117506
0.0011747091
0.0011746521
0.0011750004
0.0011750749
1.1229523e-07
1.4483778e-06
1.3136063e-06
1.0678036e-06
1.2828339e-06
9.9130327e-07
1.0559391e-06
1.0931784e-06
1.1801076e-06
1.2877394e-06
1.4193266e-06
1.5717846e-06
1.7454861e-06
1.9415577e-06
2.161708e-06
2.4079451e-06
2.6825553e-06
2.9879073e-06
3.327111e-06
3.7032567e-06
4.1199557e-06
4.581347e-06
5.0922389e-06
5.6583085e-06
6.2863746e-06
6.9847682e-06
7.7638302e-06
8.6365897e-06
9.6195097e-06
1.0733507e-05
1.2005048e-05
1.3467734e-05
1.5163931e-05
1.7146917e-05
1.9483371e-05
2.225645e-05
2.5569465e-05
2.9550404e-05
3.435746e-05
4.0185844e-05
4.7598784e-05
5.6318028e-05
6.6972045e-05
8.0012153e-05
9.5992756e-05
0.00011559637
0.00013966392
0.0001692318
0.00020557417
0.00025260874
0.00030801774
0.00037620763
0.00046017812
0.00056364782
0.0006979745
0.00085656308
0.0010523446
0.0011941632
0.0011925789
0.0011910127
0.0011894464
0.0011878788
0.0011863063
0.0011847303
0.0011831727
0.0011817468
0.0011805596
0.0011795525
0.0011786998
0.0011779735
0.001177361
0.0011768492
0.0011764477
0.001176131
0.0011758382
0.0011755113
0.0011752317
0.0011752402
0.0011755814
0.0011756233
1.2272855e-07
1.1468091e-06
1.1522198e-06
9.270549e-07
9.3892844e-07
8.6706198e-07
9.2873135e-07
1.0080643e-06
1.1158021e-06
1.2430005e-06
1.3904614e-06
1.5579602e-06
1.7467078e-06
1.9582289e-06
2.1943834e-06
2.457249e-06
2.7491488e-06
3.072672e-06
3.4307193e-06
3.8265577e-06
4.2638986e-06
4.7470041e-06
5.2808364e-06
5.8712697e-06
6.5253838e-06
7.2492682e-06
8.0574098e-06
8.9616401e-06
9.9879775e-06
1.1144218e-05
1.246417e-05
1.3983113e-05
1.5745486e-05
1.7807101e-05
2.0237745e-05
2.3124326e-05
2.6574719e-05
3.0722459e-05
3.5732463e-05
4.1808116e-05
4.9199985e-05
5.8216562e-05
6.9237302e-05
8.2726825e-05
9.9259077e-05
0.00011953972
0.00014572351
0.00017654745
0.00021442333
0.00026099507
0.00031829319
0.0003888328
0.00047572972
0.00058839083
0.00072150109
0.00088581206
0.0010888379
0.0011942652
0.0011926534
0.0011910586
0.0011894674
0.0011878758
0.0011862798
0.001184684
0.0011831286
0.0011818066
0.0011806843
0.0011797362
0.001178933
0.001178247
0.0011776781
0.0011771929
0.0011768126
0.0011765073
0.0011762332
0.0011759442
0.001175735
0.0011757903
0.0011760998
0.0011761036
1.4423255e-07
1.1854024e-06
9.9205262e-07
7.0738737e-07
7.669925e-07
7.749147e-07
8.584878e-07
9.6064424e-07
1.0848338e-06
1.2268306e-06
1.3877721e-06
1.5685763e-06
1.7707442e-06
1.9959149e-06
2.245977e-06
2.5230353e-06
2.8294457e-06
3.1678454e-06
3.5411965e-06
3.9528387e-06
4.4065622e-06
4.9067123e-06
5.4583368e-06
6.0673991e-06
6.7410799e-06
7.4881895e-06
8.3197151e-06
9.2495197e-06
1.0295229e-05
1.1479284e-05
1.2830212e-05
1.4384211e-05
1.6186938e-05
1.8295746e-05
2.078232e-05
2.3735891e-05
2.7267146e-05
3.1512968e-05
3.6642255e-05
4.2863062e-05
5.043152e-05
6.0089985e-05
7.1459765e-05
8.5371794e-05
0.00010241693
0.00012332127
0.00014898005
0.00018049757
0.00021923722
0.00026688176
0.0003255177
0.00040140028
0.00049103221
0.00060154489
0.00073793451
0.00090643884
0.0011148495
0.0011943611
0.0011927193
0.0011910947
0.0011894789
0.0011878679
0.0011862596
0.001184664
0.0011831461
0.0011818964
0.0011808286
0.0011799263
0.0011791618
0.0011785146
0.0011779933
0.0011775243
0.0011771748
0.0011768604
0.0011766099
0.0011763575
0.0011762027
0.0011762748
0.0011765329
0.0011765187
1.37517e-07
7.9053734e-07
8.1355379e-07
6.0307584e-07
6.6023789e-07
7.2079423e-07
8.2295185e-07
9.4188939e-07
1.0791587e-06
1.2337603e-06
1.4069367e-06
1.5998904e-06
1.8141524e-06
2.0514277e-06
2.3136447e-06
2.6029651e-06
2.9218124e-06
3.2728604e-06
3.6592101e-06
4.0842613e-06
4.5518896e-06
5.0665262e-06
5.6333073e-06
6.2582883e-06
6.9487512e-06
7.713625e-06
8.5640434e-06
9.5140666e-06
1.0590224e-05
1.1801928e-05
1.3184234e-05
1.4774267e-05
1.6618787e-05
1.8776479e-05
2.1320617e-05
2.434236e-05
2.7954705e-05
3.2297352e-05
3.7542656e-05
4.3902921e-05
5.1639352e-05
6.1072959e-05
7.2597969e-05
8.6700542e-05
0.00010397822
0.00012516739
0.0001511761
0.00018473178
0.00022429246
0.0002729377
0.0003328001
0.00040652178
0.0004973866
0.00060948423
0.00074792032
0.00091908554
0.0011309812
0.001194503
0.0011928316
0.001191175
0.0011895277
0.0011878877
0.0011862576
0.001184662
0.0011832179
0.0011820125
0.0011809873
0.0011801203
0.0011793861
0.0011787632
0.0011782698
0.0011778322
0.0011774981