/*--------------------------------*- C++ -*----------------------------------*\
  =========                 |
  \\      /  F ield         | OpenFOAM: The Open Source CFD Toolbox
   \\    /   O peration     | Website:  https://openfoam.org
    \\  /    A nd           | Version:  12
     \\/     M anipulation  |
\*---------------------------------------------------------------------------*/
FoamFile
{
    format      ascii;
    class       volScalarField;
    location    "0.137";
    object      k;
}
// * * * * * * * * * * * * * * * * * * * * * * * * * * * * * * * * * * * * * //

dimensions      [0 2 -2 0 0 0 0];

internalField   nonuniform List<scalar> 
16000
(
0.049589684
0.021653614
0.022458633
0.016520767
0.01401728
0.012691477
0.011903733
0.011432757
0.011113299
0.0108983
0.01073977
0.010621744
0.010529697
0.010456879
0.010398283
0.010350749
0.010311927
0.010280202
0.010254365
0.010233169
0.010215619
0.010201403
0.010189994
0.010180841
0.010173737
0.010168294
0.010164344
0.010161716
0.010160268
0.010159869
0.010160395
0.010161745
0.010163835
0.010166597
0.010169972
0.010173903
0.010178333
0.010183207
0.010188468
0.010194061
0.010199924
0.010205986
0.010212179
0.010218435
0.010224679
0.010230835
0.010236843
0.010242654
0.01024822
0.010253497
0.010258434
0.010262979
0.010267076
0.010270672
0.01027372
0.010276177
0.010278
0.01027914
0.01027953
0.010279081
0.010277667
0.010275139
0.010271356
0.010266166
0.010259416
0.010250968
0.010240715
0.010228532
0.010214146
0.010197081
0.010176928
0.010153337
0.01012612
0.010105523
0.010090039
0.010078517
0.010070471
0.010071055
0.01007532
0.0101088
0.045727244
0.020481124
0.021022064
0.015971708
0.013671983
0.012487765
0.01174074
0.011315314
0.011012114
0.010814364
0.010666148
0.010556891
0.010471251
0.010403914
0.010349831
0.010306181
0.010270682
0.010241803
0.010218518
0.010199696
0.010184242
0.010171916
0.010162289
0.010154761
0.010149201
0.010145203
0.010142606
0.010141246
0.010140989
0.010141711
0.010143293
0.010145631
0.010148642
0.010152255
0.010156411
0.010161053
0.010166128
0.010171577
0.010177347
0.010183383
0.010189627
0.01019601
0.010202466
0.01020893
0.01021533
0.010221592
0.010227657
0.010233474
0.010239003
0.010244201
0.010249027
0.010253432
0.010257366
0.010260779
0.010263626
0.010265868
0.010267465
0.010268371
0.010268523
0.010267839
0.010266202
0.010263471
0.01025951
0.010254177
0.010247327
0.010238828
0.010228569
0.010216433
0.010202188
0.010185391
0.010165641
0.010142812
0.0101167
0.010096931
0.010082173
0.010071227
0.010063845
0.010061755
0.01007011
0.010102232
0.04163644
0.019651559
0.019694767
0.015409215
0.013319046
0.01226075
0.011572093
0.011188675
0.010908815
0.010729279
0.010592237
0.010492191
0.010413443
0.010351871
0.010302591
0.01026306
0.010231124
0.010205296
0.010184712
0.010168407
0.010155199
0.010144881
0.010137149
0.010131343
0.010127411
0.010124936
0.010123765
0.01012374
0.010124732
0.010126626
0.010129305
0.010132666
0.010136626
0.010141112
0.010146063
0.010151423
0.010157137
0.01016315
0.010169405
0.010175851
0.010182431
0.01018908
0.010195733
0.010202327
0.010208797
0.010215071
0.01022109
0.010226808
0.010232186
0.010237189
0.01024178
0.01024592
0.010249561
0.010252661
0.010255177
0.010257073
0.010258315
0.010258858
0.010258646
0.010257599
0.010255611
0.010252547
0.010248277
0.010242668
0.010235587
0.010226913
0.010216536
0.010204333
0.010190095
0.01017342
0.010153893
0.010131586
0.010106707
0.010087988
0.010074124
0.010063973
0.010056844
0.010053884
0.010064344
0.010086981
0.038598663
0.019091381
0.01854733
0.014905176
0.012999633
0.012055454
0.011417742
0.011073059
0.010814033
0.010651017
0.010524651
0.010433124
0.010360954
0.010304834
0.010260139
0.010224545
0.01019605
0.010173181
0.0101552
0.010141342
0.010130338
0.010121977
0.010116107
0.010111993
0.010109655
0.010108678
0.010108906
0.010110191
0.010112406
0.010115439
0.01011918
0.010123525
0.010128387
0.010133693
0.010139381
0.010145391
0.01015167
0.010158162
0.010164813
0.010171571
0.010178382
0.010185185
0.010191919
0.010198524
0.01020494
0.010211101
0.010216948
0.010222439
0.010227541
0.010232224
0.010236458
0.010240211
0.010243442
0.010246113
0.010248187
0.01024963
0.010250413
0.010250497
0.010249827
0.010248331
0.010245907
0.010242433
0.010237782
0.010231829
0.010224451
0.010215538
0.010204984
0.010192656
0.010178358
0.010161731
0.010142337
0.010120399
0.01009666
0.010079013
0.010066097
0.01005677
0.010049845
0.010046686
0.010057411
0.010074698
0.03579088
0.018775721
0.017558713
0.014438149
0.012702371
0.01186143
0.011273045
0.010964102
0.010725586
0.010578046
0.010462148
0.010378749
0.01031302
0.010262197
0.010221989
0.010190244
0.010165145
0.010145219
0.010129806
0.010118367
0.010109573
0.010103167
0.010099154
0.01009675
0.010095995
0.010096515
0.010098142
0.010100734
0.010104161
0.010108319
0.010113097
0.010118393
0.010124118
0.010130194
0.010136557
0.010143148
0.010149912
0.010156794
0.010163741
0.010170703
0.010177629
0.010184465
0.010191152
0.010197636
0.010203861
0.01020977
0.010215308
0.010220435
0.010225124
0.010229353
0.010233098
0.010236334
0.01023903
0.01024115
0.010242663
0.010243541
0.010243755
0.010243274
0.010242048
0.010240007
0.010237058
0.010233086
0.010227973
0.010221599
0.01021385
0.010204627
0.010193828
0.01018131
0.01016687
0.010150202
0.010130856
0.01010914
0.01008667
0.010070141
0.010058215
0.010049723
0.010043072
0.010040011
0.010050264
0.010061967
0.03365746
0.01870486
0.016819413
0.014010139
0.012428832
0.011680966
0.011139327
0.010863157
0.010644369
0.010511087
0.010405341
0.01032961
0.010270114
0.010224396
0.010188542
0.010160534
0.010138759
0.010121747
0.010108863
0.010099808
0.010093223
0.010088795
0.010086612
0.010085982
0.010086756
0.010088769
0.010091789
0.010095672
0.010100293
0.010105543
0.010111317
0.01011751
0.010124032
0.010130802
0.010137753
0.010144824
0.010151961
0.010159112
0.010166226
0.010173253
0.010180151
0.010186869
0.010193356
0.010199562
0.010205442
0.010210944
0.01021602
0.010220635
0.010224768
0.010228404
0.010231527
0.010234118
0.010236154
0.010237606
0.010238447
0.010238652
0.010238197
0.010237056
0.010235182
0.010232512
0.010228958
0.010224414
0.010218769
0.01021191
0.010203733
0.010194143
0.010183043
0.010170275
0.010155619
0.010138822
0.010119476
0.010097836
0.010076796
0.010061424
0.010050512
0.010042867
0.010036636
0.010033724
0.010042731
0.010050027
0.030724128
0.01880265
0.016296295
0.013617742
0.012176805
0.011513382
0.011016347
0.010770065
0.010570274
0.010450068
0.01035413
0.010285668
0.010232216
0.010191454
0.01015986
0.010135521
0.010117029
0.010102933
0.010092577
0.010085891
0.010081518
0.010079207
0.010078755
0.010080152
0.010082249
0.010085751
0.010090153
0.010095308
0.010101088
0.010107385
0.010114093
0.010121108
0.010128336
0.010135694
0.010143115
0.010150536
0.010157905
0.010165171
0.01017229
0.010179217
0.010185913
0.010192339
0.01019845
0.010204206
0.010209568
0.010214496
0.010218949
0.010222898
0.010226327
0.010229229
0.010231596
0.010233416
0.010234674
0.010235346
0.01023541
0.010234842
0.010233625
0.010231735
0.010229132
0.010225756
0.010221525
0.010216342
0.010210105
0.010202709
0.010194056
0.010184054
0.010172601
0.010159525
0.010144581
0.010127562
0.010108193
0.01008652
0.010067163
0.010052979
0.010043076
0.010036274
0.010030609
0.01002786
0.010035146
0.010037662
0.028495951
0.018990235
0.015872448
0.013258511
0.011944821
0.01135843
0.010903532
0.010684674
0.010502957
0.010394865
0.010308437
0.010246954
0.010199407
0.010163517
0.010136138
0.010115444
0.010100227
0.010089078
0.010081281
0.010076934
0.010074738
0.010075047
0.010075929
0.010078758
0.010082846
0.010087818
0.010093575
0.010099961
0.010106843
0.010114111
0.01012166
0.010129384
0.010137189
0.010144991
0.010152721
0.010160321
0.010167738
0.01017493
0.010181857
0.010188484
0.010194778
0.01020071
0.01020625
0.010211363
0.010216023
0.0102202
0.010223863
0.010226989
0.010229568
0.0102316
0.010233084
0.010234017
0.010234387
0.010234178
0.010233369
0.010231942
0.010229882
0.010227167
0.010223763
0.010219617
0.01021465
0.010208774
0.010201897
0.010193924
0.01018476
0.01017431
0.010162459
0.010149021
0.010133728
0.0101164
0.010097007
0.010075573
0.01005785
0.010044883
0.010035967
0.010029989
0.010025015
0.010022415
0.010027719
0.010026352
0.026871165
0.019173783
0.015381372
0.012929251
0.011731248
0.011215304
0.010800216
0.010606236
0.010442466
0.010345709
0.01026849
0.010213765
0.01017201
0.010140935
0.010117749
0.010100698
0.01008875
0.010080597
0.010075429
0.010073225
0.010072646
0.010075254
0.010078731
0.010083332
0.010088928
0.010095349
0.010102407
0.010109948
0.010117836
0.010125956
0.010134204
0.010142477
0.01015068
0.010158731
0.010166563
0.010174121
0.010181362
0.010188247
0.010194749
0.010200842
0.010206506
0.010211724
0.010216478
0.010220747
0.010224514
0.010227762
0.01023047
0.010232622
0.010234214
0.01023525
0.010235737
0.010235677
0.010235064
0.010233887
0.010232128
0.010229771
0.0102268
0.010223199
0.010218939
0.010213971
0.010208223
0.010201614
0.010194061
0.01018548
0.010175779
0.010164854
0.010152564
0.010138713
0.010123033
0.010105333
0.010085875
0.010065074
0.010048954
0.01003722
0.01002926
0.010024065
0.010019878
0.010017455
0.01002082
0.010017705
0.025070398
0.019345377
0.014711675
0.012627214
0.011536023
0.011084438
0.010707241
0.010535819
0.01038937
0.010303053
0.010234722
0.010186568
0.010150495
0.010124191
0.010105187
0.010091799
0.010083068
0.01007799
0.0100756
0.010073387
0.010078556
0.010082233
0.010087463
0.010093774
0.010100927
0.010108716
0.010116973
0.010125541
0.010134282
0.010143077
0.010151823
0.010160421
0.010168782
0.010176827
0.010184496
0.010191742
0.010198531
0.010204838
0.010210647
0.010215948
0.010220735
0.010225004
0.010228753
0.010231973
0.010234661
0.01023681
0.010238409
0.01023945
0.010239933
0.010239866
0.01023926
0.010238122
0.010236451
0.010234239
0.01023147
0.010228127
0.010224198
0.010219667
0.010214511
0.010208685
0.010202125
0.010194756
0.010186507
0.010177299
0.010167041
0.010155612
0.010142847
0.010128539
0.010112455
0.010094379
0.010074751
0.010055119
0.010040552
0.010030058
0.010023028
0.010018567
0.010015224
0.010013088
0.010014609
0.010009995
0.023574122
0.019486609
0.014173404
0.012350308
0.011359663
0.010966199
0.010625115
0.010474108
0.010343849
0.010267294
0.010207555
0.01016585
0.010135376
0.010113828
0.010099009
0.010089339
0.01008357
0.010081798
0.010082473
0.010085691
0.010089577
0.010095595
0.010102685
0.010110632
0.010119218
0.010128241
0.010137528
0.010146925
0.010156288
0.010165504
0.010174469
0.010183096
0.010191302
0.01019902
0.010206202
0.010212813
0.010218834
0.010224258
0.010229084
0.010233319
0.010236973
0.01024006
0.01024259
0.010244571
0.010246009
0.010246907
0.010247267
0.010247083
0.010246359
0.010245105
0.010243335
0.010241058
0.010238277
0.010234984
0.010231167
0.010226807
0.01022189
0.010216404
0.010210328
0.010203625
0.010196237
0.010188097
0.010179141
0.010169294
0.010158459
0.010146499
0.010133229
0.010118432
0.010101935
0.010083564
0.010063654
0.010045781
0.010032712
0.010023447
0.01001734
0.010013569
0.01001105
0.01000932
0.010009241
0.010003666
0.02221568
0.019615069
0.013707173
0.01209874
0.011202085
0.010860227
0.010553635
0.010420827
0.010306238
0.010238911
0.010187492
0.010152166
0.010127244
0.010110462
0.010099845
0.010094004
0.010091956
0.010092791
0.010096064
0.010101212
0.010108097
0.010116006
0.010124824
0.010134266
0.010144104
0.010154137
0.010164195
0.010174123
0.010183785
0.01019307
0.010201887
0.010210159
0.010217824
0.010224829
0.010231146
0.01023676
0.01024167
0.010245888
0.010249434
0.010252333
0.010254612
0.010256301
0.010257423
0.010258
0.010258047
0.010257577
0.010256595
0.010255105
0.010253107
0.010250614
0.010247637
0.010244189
0.01024027
0.010235877
0.010230995
0.010225606
0.010219694
0.010213245
0.010206243
0.010198658
0.010190441
0.01018153
0.010171867
0.010161374
0.010149941
0.010137421
0.010123624
0.010108335
0.010091416
0.010072896
0.010053048
0.010037117
0.010025482
0.010017416
0.010012239
0.010009129
0.010007322
0.010006121
0.01000506
0.0099991253
0.020989632
0.019700409
0.013278387
0.011872491
0.011062852
0.010766539
0.010492937
0.010376554
0.010276886
0.010218431
0.010175113
0.010146156
0.01012678
0.010114801
0.010108429
0.010106354
0.010107639
0.010111611
0.010117654
0.010125313
0.010134149
0.010143904
0.010154253
0.010164936
0.010175729
0.010186429
0.010196874
0.010206918
0.010216437
0.010225336
0.010233539
0.010240994
0.010247664
0.010253523
0.010258565
0.010262801
0.010266253
0.010268954
0.010270944
0.010272264
0.01027296
0.010273072
0.010272638
0.010271688
0.010270245
0.010268328
0.010265945
0.010263102
0.010259802
0.010256049
0.010251855
0.010247229
0.010242174
0.010236684
0.010230745
0.010224336
0.010217438
0.010210037
0.010202119
0.010193661
0.010184625
0.010174956
0.01016459
0.010153444
0.010141396
0.01012829
0.010113957
0.010098207
0.010080878
0.010062254
0.01004339
0.010029184
0.010018899
0.010011967
0.010007727
0.010005269
0.010003993
0.010003398
0.01000207
0.0099961383
0.019886982
0.019705084
0.012889861
0.011669557
0.010941201
0.010685168
0.010443133
0.010341637
0.010256266
0.010206507
0.010171155
0.010148604
0.010134808
0.010127689
0.010125613
0.010127361
0.010132047
0.010138993
0.010147645
0.010157546
0.010168316
0.010179607
0.010191145
0.010202669
0.010213963
0.010224836
0.010235137
0.010244743
0.010253557
0.010261508
0.010268553
0.01027467
0.010279855
0.010284116
0.010287478
0.010289975
0.010291654
0.010292568
0.010292774
0.010292329
0.010291288
0.010289704
0.010287619
0.010285072
0.01028209
0.010278693
0.010274892
0.010270692
0.010266093
0.010261096
0.010255704
0.010249925
0.010243758
0.010237198
0.010230228
0.010222827
0.010214971
0.010206644
0.010197834
0.010188526
0.010178691
0.010168279
0.010157219
0.010145416
0.010132739
0.010119036
0.010104164
0.010088005
0.010070377
0.01005154
0.010034638
0.010022026
0.010012985
0.010007087
0.010003756
0.010001969
0.010001041
0.010000988
0.010000293
0.0099947645
0.018893187
0.019479081
0.012539172
0.011488894
0.010836928
0.010616345
0.010404534
0.010316743
0.010245105
0.010204045
0.010176583
0.010160512
0.010152353
0.01015014
0.010152368
0.010157894
0.010165871
0.01017565
0.010186687
0.010198527
0.010210793
0.010223157
0.010235343
0.01024711
0.010258261
0.010268633
0.010278106
0.010286593
0.010294038
0.010300413
0.010305715
0.010309962
0.010313187
0.010315435
0.010316759
0.010317218
0.010316879
0.01031581
0.01031408
0.010311755
0.010308897
0.010305562
0.010301797
0.010297641
0.010293123
0.010288261
0.010283067
0.010277543
0.010271684
0.010265487
0.010258946
0.010252062
0.010244833
0.010237248
0.010229292
0.010220941
0.010212169
0.010202956
0.010193291
0.010183164
0.010172556
0.01016142
0.010149676
0.010137212
0.010123903
0.010109614
0.010094216
0.01007766
0.010059973
0.010041451
0.010026761
0.010015659
0.010007755
0.010002764
0.010000255
0.0099991557
0.009998522
0.0099987856
0.0099992196
0.0099943192
0.017993748
0.018611654
0.012223754
0.011329789
0.010750292
0.010560483
0.010377694
0.010302843
0.010244479
0.010212227
0.010192636
0.010183113
0.010180609
0.010183277
0.010189717
0.010198849
0.010209856
0.010222102
0.01023506
0.010248282
0.010261402
0.01027411
0.010286159
0.010297344
0.010307511
0.010316548
0.010324386
0.010330994
0.010336372
0.010340541
0.010343546
0.010345447
0.010346314
0.010346222
0.010345248
0.01034347
0.010340967
0.010337816
0.01033409
0.010329857
0.010325178
0.010320109
0.010314696
0.010308975
0.010302973
0.010296706
0.010290182
0.010283398
0.010276348
0.01026902
0.010261401
0.010253482
0.010245255
0.010236708
0.010227823
0.010218576
0.01020894
0.010198892
0.010188418
0.010177511
0.010166158
0.010154317
0.010141899
0.010128782
0.010114848
0.010099998
0.010084125
0.010067166
0.010049467
0.010032539
0.010019727
0.010010064
0.01000321
0.0099990076
0.00999717
0.0099967063
0.0099964842
0.0099970887
0.0099985239
0.0099957256
0.017180834
0.01725358
0.011945842
0.011192
0.010680377
0.010518525
0.01036368
0.010301363
0.010255847
0.010232533
0.010220774
0.010217784
0.010220845
0.010228218
0.010238585
0.010250916
0.010264419
0.01027847
0.010292562
0.010306275
0.010319279
0.010331312
0.010342185
0.010351761
0.010359959
0.010366741
0.010372108
0.010376095
0.010378762
0.010380186
0.010380452
0.010379658
0.0103779
0.010375274
0.010371873
0.010367783
0.010363086
0.010357859
0.01035217
0.010346085
0.010339658
0.010332938
0.010325966
0.010318772
0.010311379
0.0103038
0.010296038
0.010288086
0.010279933
0.01027156
0.010262948
0.010254078
0.010244934
0.010235499
0.010225753
0.010215672
0.01020523
0.010194402
0.010183172
0.01017153
0.010159464
0.010146935
0.010133857
0.010120108
0.01010557
0.010090176
0.010073894
0.010056683
0.010038942
0.010024612
0.010013504
0.010005187
0.0099993263
0.009995835
0.009994513
0.0099945312
0.0099948133
0.0099959305
0.0099981437
0.009996445
0.016450318
0.016397246
0.011711366
0.011075934
0.010628097
0.010491875
0.010364001
0.010313995
0.010280913
0.010266607
0.01026256
0.010265934
0.010274261
0.01028589
0.010299564
0.010314303
0.010329341
0.010344095
0.010358114
0.010371045
0.010382639
0.010392726
0.010401214
0.010408066
0.010413294
0.010416947
0.010419105
0.010419865
0.010419343
0.010417656
0.010414923
0.01041126
0.01040678
0.010401586
0.010395771
0.010389421
0.010382612
0.010375412
0.01036788
0.01036007
0.010352028
0.010343793
0.010335395
0.010326859
0.0103182
0.010309426
0.010300536
0.010291522
0.010282367
0.010273047
0.010263536
0.010253806
0.010243832
0.010233591
0.010223058
0.01021221
0.010201022
0.010189473
0.010177541
0.010165214
0.010152471
0.010139277
0.010125558
0.010111207
0.010096109
0.010080192
0.010063497
0.010046329
0.010029966
0.010017557
0.010008031
0.010000952
0.0099960405
0.0099932308
0.0099923172
0.0099926077
0.0099932997
0.0099949283
0.0099975441
0.0099978415
0.015794247
0.015397851
0.011511236
0.010982123
0.010594404
0.010482242
0.01038031
0.010342659
0.010321609
0.010316246
0.010319595
0.01032885
0.010341728
0.010356661
0.010372465
0.010388233
0.010403285
0.010417137
0.010429456
0.010440019
0.010448711
0.010455497
0.010460404
0.010463511
0.010464928
0.010464785
0.010463225
0.010460396
0.010456445
0.010451513
0.010445733
0.010439225
0.010432097
0.010424449
0.010416364
0.010407917
0.01039917
0.010390178
0.010380986
0.010371633
0.010362154
0.010352573
0.010342913
0.010333187
0.010323405
0.010313569
0.010303675
0.010293711
0.010283657
0.010273488
0.010263172
0.010252675
0.010241961
0.010230999
0.010219758
0.010208213
0.010196342
0.010184126
0.010171546
0.010158584
0.010145211
0.010131387
0.010117053
0.010102129
0.010086522
0.010070163
0.010053111
0.010035962
0.010022153
0.010011386
0.010003241
0.0099972735
0.0099932554
0.0099911117
0.0099905662
0.0099909838
0.0099919165
0.0099940973
0.0099970606
0.0099985556
0.015207046
0.014723524
0.01134795
0.010911288
0.010580346
0.010491849
0.01041482
0.010389735
0.010380186
0.010383309
0.010393216
0.010407196
0.010423155
0.010439647
0.010455636
0.010470382
0.010483383
0.010494338
0.010503105
0.010509647
0.01051401
0.010516306
0.010516687
0.010515328
0.010512416
0.010508135
0.010502667
0.010496179
0.010488828
0.010480754
0.010472083
0.010462923
0.010453369
0.010443501
0.010433387
0.010423084
0.010412638
0.010402085
0.010391455
0.010380773
0.010370056
0.01035932
0.010348574
0.010337824
0.01032707
0.01031631
0.010305537
0.010294735
0.010283885
0.010272961
0.010261927
0.010250746
0.010239376
0.010227776
0.010215907
0.010203739
0.010191248
0.01017842
0.010165241
0.010151693
0.010137744
0.010123345
0.010108441
0.010092973
0.010076885
0.010060156
0.010043074
0.010027385
0.010015352
0.010006056
0.0099990885
0.00999409
0.0099908797
0.0099893557
0.0099891678
0.0099897035
0.0099907895
0.0099934249
0.0099967587
0.0099991604
0.014683125
0.013973527
0.011218149
0.010866084
0.010587733
0.010524064
0.010470605
0.010457955
0.010458746
0.01046895
0.010483526
0.010499981
0.010516499
0.010531897
0.010545417
0.010556609
0.010565246
0.010571279
0.010574792
0.010575938
0.010574921
0.010571969
0.010567322
0.010561212
0.010553862
0.010545475
0.010536233
0.010526297
0.010515808
0.010504887
0.010493638
0.010482147
0.010470483
0.010458706
0.010446862
0.010434989
0.010423112
0.010411252
0.010399422
0.010387633
0.010375888
0.010364189
0.010352536
0.010340926
0.010329352
0.010317806
0.010306276
0.010294746
0.010283196
0.010271601
0.010259926
0.010248133
0.010236177
0.010224012
0.01021159
0.010198873
0.010185832
0.010172452
0.010158724
0.010144637
0.010130166
0.01011526
0.010099853
0.010083889
0.010067362
0.010050383
0.010033532
0.01002013
0.010009577
0.010001522
0.0099955489
0.0099913787
0.0099888735
0.0099878905
0.0099880196
0.0099886895
0.0099899222
0.0099928708
0.0099966386
0.0099995773
0.014222259
0.013395469
0.011126572
0.010851269
0.010620415
0.010582968
0.010550784
0.010549162
0.010557732
0.010572058
0.010587973
0.010603414
0.010617035
0.010628093
0.010636237
0.010641384
0.010643625
0.010643162
0.010640272
0.010635255
0.01062841
0.010620026
0.010610371
0.010599685
0.010588181
0.010576042
0.010563425
0.010550461
0.01053726
0.010523912
0.010510491
0.010497053
0.010483645
0.0104703
0.010457044
0.010443893
0.010430857
0.010417942
0.010405145
0.010392463
0.010379889
0.010367414
0.010355027
0.010342716
0.010330468
0.010318268
0.010306102
0.010293949
0.010281791
0.010269601
0.010257351
0.010245002
0.010232513
0.010219836
0.010206922
0.010193725
0.01018021
0.010166351
0.010152138
0.010137564
0.010122617
0.010107261
0.010091432
0.010075055
0.010058129
0.010041052
0.010025846
0.010014009
0.010004769
0.0099977492
0.0099926102
0.0099891382
0.0099872308
0.0099867042
0.009987102
0.0099879019
0.0099892827
0.0099924168
0.0099964717
0.0099996447
0.013829932
0.012936021
0.011075676
0.010871982
0.010704306
0.010671605
0.010656406
0.010662127
0.010673937
0.010687725
0.010700418
0.010710622
0.010717647
0.010721286
0.010721631
0.010718941
0.010713563
0.010705872
0.010696249
0.010685047
0.010672585
0.010659142
0.010644958
0.010630237
0.010615148
0.01059983
0.010584397
0.01056894
0.010553531
0.010538224
0.010523063
0.010508078
0.010493289
0.010478709
0.010464344
0.010450193
0.010436252
0.010422512
0.010408961
0.010395583
0.010382362
0.01036928
0.010356318
0.010343454
0.01033067
0.010317945
0.010305259
0.010292588
0.010279911
0.010267203
0.010254437
0.010241579
0.010228593
0.010215438
0.01020207
0.010188444
0.01017452
0.010160266
0.010145657
0.010130673
0.010115299
0.01009952
0.010083312
0.010066658
0.010049626
0.010032817
0.010019558
0.010009006
0.010000854
0.0099946997
0.009990255
0.0099873549
0.0099859112
0.0099857077
0.0099862812
0.0099872311
0.0099888738
0.0099921852
0.0099963712
0.0099997184
0.013515423
0.012566928
0.011069557
0.010928047
0.010807567
0.010789212
0.010783713
0.010790575
0.010799412
0.010807084
0.01081176
0.010812866
0.010810375
0.010804561
0.010795844
0.010784689
0.010771557
0.010756868
0.010740992
0.010724249
0.010706904
0.010689174
0.010671235
0.010653229
0.010635266
0.010617433
0.010599795
0.010582402
0.01056529
0.010548482
0.010531992
0.010515828
0.01049999
0.010484472
0.010469266
0.010454357
0.010439731
0.010425367
0.010411245
0.010397341
0.010383631
0.01037009
0.010356692
0.010343411
0.010330219
0.01031709
0.010303997
0.010290915
0.010277816
0.010264673
0.010251458
0.010238143
0.010224696
0.010211085
0.01019728
0.010183246
0.010168951
0.010154362
0.010139443
0.010124153
0.010108454
0.010092309
0.010075707
0.010058709
0.01004169
0.010026408
0.010014468
0.010005033
0.0099977682
0.0099923263
0.0099884496
0.0099859935
0.00998487
0.0099848726
0.0099855713
0.0099866814
0.0099886046
0.0099920797
0.0099963569
0.0099997634
0.013295718
0.012299798
0.011111033
0.011026107
0.010941309
0.010927169
0.010922478
0.010923099
0.010922583
0.010919177
0.010912241
0.010901911
0.010888624
0.01087291
0.010855297
0.010836268
0.010816236
0.010795546
0.010774477
0.010753249
0.010732037
0.010710973
0.010690158
0.010669665
0.010649549
0.010629845
0.010610578
0.010591761
0.010573399
0.01055549
0.010538027
0.010520999
0.010504391
0.010488184
0.010472359
0.010456891
0.010441758
0.010426933
0.010412388
0.010398096
0.010384026
0.010370149
0.010356433
0.010342848
0.01032936
0.01031594
0.010302553
0.010289168
0.010275753
0.010262274
0.010248701
0.010235005
0.010221156
0.010207132
0.010192912
0.010178477
0.01016381
0.010148889
0.010133682
0.010118147
0.010102233
0.010085886
0.01006908
0.010051917
0.010035038
0.010021404
0.010010503
0.010001978
0.009995434
0.0099905705
0.0099871544
0.0099850437
0.0099841277
0.0099842191
0.0099850295
0.0099862873
0.0099884489
0.0099920151
0.0099963126
0.0099996694
0.013169408
0.012133461
0.011206732
0.011154934
0.011090017
0.011071931
0.011058257
0.011045938
0.011031393
0.011014141
0.010994324
0.010972416
0.010948956
0.010924441
0.010899292
0.010873849
0.010848379
0.010823084
0.010798115
0.01077358
0.010749557
0.010726096
0.010703231
0.010680978
0.010659343
0.010638325
0.010617914
0.010598097
0.010578855
0.010560169
0.010542016
0.010524372
0.010507211
0.010490506
0.01047423
0.010458354
0.010442848
0.010427681
0.010412823
0.010398243
0.010383907
0.010369783
0.010355838
0.010342036
0.010328343
0.010314723
0.010301139
0.010287554
0.010273929
0.010260228
0.010246411
0.010232446
0.010218303
0.010203959
0.010189396
0.010174606
0.010159578
0.010144302
0.01012876
0.010112925
0.010096762
0.010080237
0.010063349
0.010046283
0.01003006
0.010017563
0.010007523
0.0099997131
0.009993748
0.0099893512
0.0099863139
0.0099845071
0.009983819
0.0099838018
0.0099847243
0.0099860721
0.0099883485
0.0099918664
0.00999609
0.0099994579
0.013105504
0.012062837
0.011366388
0.011297989
0.011237126
0.011204662
0.011175128
0.011146337
0.011116599
0.011085935
0.01105462
0.011023025
0.010991481
0.010960256
0.010929549
0.010899502
0.010870212
0.010841736
0.010814109
0.010787344
0.010761439
0.010736382
0.010712155
0.010688733
0.01066609
0.010644194
0.010623015
0.01060252
0.010582678
0.010563456
0.010544821
0.010526741
0.010509184
0.010492116
0.010475507
0.010459323
0.010443533
0.010428103
0.010413002
0.010398195
0.01038365
0.010369333
0.010355208
0.010341242
0.010327397
0.010313637
0.010299922
0.010286212
0.010272467
0.010258642
0.010244698
0.010230596
0.0102163
0.010201784
0.010187027
0.010172017
0.01015674
0.010141184
0.01012533
0.010109157
0.010092645
0.01007579
0.010058664
0.010041666
0.010026605
0.010014804
0.010005413
0.0099981276
0.0099926032
0.0099885802
0.0099858576
0.0099842822
0.0099837131
0.0099836428
0.0099846698
0.0099860523
0.0099882944
0.0099915565
0.0099954706
0.0099989239
0.013116227
0.012023092
0.011521485
0.011431361
0.011358772
0.011307741
0.011260993
0.01121708
0.01117471
0.011133705
0.011094013
0.011055662
0.011018672
0.010983047
0.010948772
0.010915817
0.010884144
0.010853704
0.010824446
0.010796318
0.010769267
0.010743238
0.010718179
0.010694041
0.010670774
0.010648331
0.010626667
0.01060574
0.010585507
0.01056593
0.010546969
0.010528587
0.010510749
0.010493419
0.010476561
0.010460144
0.010444132
0.010428492
0.010413191
0.010398197
0.010383474
0.010368991
0.010354712
0.010340603
0.010326628
0.01031275
0.01029893
0.010285129
0.010271305
0.010257415
0.010243417
0.010229271
0.010214941
0.010200398
0.010185618
0.010170583
0.010155274
0.010139669
0.010123741
0.010107456
0.010090786
0.010073722
0.010056366
0.010039255
0.010024749
0.010013315
0.010004261
0.0099972657
0.0099919935
0.0099881841
0.0099856302
0.0099841811
0.0099837155
0.0099837984
0.0099847207
0.009986193
0.0099884254
0.0099914715
0.0099950722
0.0099985496
0.013209973
0.01204924
0.011638153
0.011528251
0.011440159
0.011373116
0.011313404
0.011259123
0.011208638
0.011161297
0.011116655
0.011074421
0.011034364
0.0109963
0.010960071
0.010925538
0.010892579
0.010861083
0.010830951
0.010802092
0.010774423
0.010747869
0.010722358
0.010697826
0.010674212
0.010651461
0.01062952
0.010608339
0.010587872
0.010568076
0.010548909
0.010530331
0.010512305
0.010494792
0.010477759
0.010461169
0.010444988
0.010429183
0.01041372
0.010398567
0.01038369
0.010369055
0.01035463
0.010340381
0.010326272
0.010312267
0.01029833
0.010284421
0.0102705
0.010256526
0.01024246
0.010228264
0.010213904
0.010199354
0.010184594
0.010169607
0.010154375
0.010138878
0.010123087
0.01010697
0.010090498
0.010073659
0.010056535
0.010039588
0.010024878
0.010013374
0.010004267
0.0099972548
0.0099919952
0.0099882193
0.0099856961
0.0099842406
0.0099837117
0.0099836539
0.0099848413
0.0099863557
0.0099885898
0.0099914578
0.0099948065
0.0099983128
0.013335512
0.012105799
0.011699563
0.011577114
0.01147881
0.011403396
0.01133757
0.011278771
0.011224941
0.011175094
0.011128555
0.011084866
0.011043681
0.01100473
0.010967794
0.01093269
0.010899261
0.010867374
0.010836909
0.010807762
0.010779839
0.010753056
0.010727337
0.010702612
0.010678816
0.010655891
0.010633781
0.010612436
0.010591807
0.010571851
0.010552524
0.010533785
0.010515597
0.010497923
0.010480725
0.010463969
0.010447621
0.010431646
0.010416013
0.010400687
0.010385636
0.010370826
0.010356224
0.010341797
0.010327509
0.010313325
0.010299208
0.01028512
0.01027102
0.010256869
0.010242628
0.010228261
0.010213736
0.010199028
0.010184117
0.010168987
0.010153619
0.010137992
0.010122078
0.010105844
0.010089264
0.010072333
0.010055158
0.010038291
0.010024152
0.010012935
0.010004047
0.0099971636
0.0099919727
0.0099882286
0.0099857242
0.009984282
0.0099837587
0.0099838915
0.0099848686
0.0099864466
0.0099886545
0.0099914193
0.009994638
0.0099981775
66.51938
362.37255
121.82042
14.69097
0.40567498
0.021484967
0.020183274
0.019876314
0.019604515
0.018543142
0.017199334
0.016008064
0.015103634
0.014528546
0.014120626
0.013733848
0.01335667
0.013022509
0.012742481
0.012508492
0.01230967
0.012138175
0.011988816
0.011857829
0.011742195
0.011639418
0.01154749
0.011464809
0.011390119
0.011322431
0.011260924
0.011204883
0.011153684
0.011106803
0.011063824
0.011024413
0.010988285
0.010955185
0.010924879
0.010897156
0.010871828
0.010848715
0.010827632
0.010808408
0.010790879
0.010774882
0.010760255
0.010746846
0.010734524
0.01072317
0.010712673
0.010702918
0.010693791