/*--------------------------------*- C++ -*----------------------------------*\
  =========                 |
  \\      /  F ield         | OpenFOAM: The Open Source CFD Toolbox
   \\    /   O peration     | Website:  https://openfoam.org
    \\  /    A nd           | Version:  12
     \\/     M anipulation  |
\*---------------------------------------------------------------------------*/
FoamFile
{
    format      ascii;
    class       surfaceScalarField;
    location    "0.137";
    object      phi;
}
// * * * * * * * * * * * * * * * * * * * * * * * * * * * * * * * * * * * * * //

dimensions      [1 0 -1 0 0 0 0];

internalField   nonuniform List<scalar> 
31760
(
-0.00063860126
-0.050932057
0.051571036
-0.0016021699
-0.064374083
0.065338055
-0.0025990103
-0.063015221
0.064012937
-0.003617443
-0.068684678
0.069703372
-0.0046913509
-0.07036134
0.071435465
-0.0057938024
-0.074630261
0.075732946
-0.0069661463
-0.077562228
0.078734758
-0.0081777837
-0.08157282
0.082784644
-0.0094496343
-0.085200113
0.086472132
-0.010780446
-0.089322315
0.09065329
-0.012166845
-0.093461167
0.094847719
-0.013620679
-0.097877795
0.099331779
-0.015136533
-0.10245888
0.10397488
-0.016722677
-0.10726666
0.10885295
-0.01837868
-0.11228986
0.113946
-0.020109282
-0.11754517
0.11927591
-0.021917141
-0.12304064
0.12484864
-0.023805446
-0.12878773
0.13067617
-0.02577743
-0.13479745
0.13676957
-0.027836477
-0.14108109
0.14314027
-0.029986014
-0.14765105
0.14980071
-0.032229785
-0.15451933
0.15676322
-0.034571376
-0.16169952
0.16404123
-0.037014675
-0.16920537
0.17164878
-0.039562641
-0.17705139
0.17959946
-0.042219838
-0.18525175
0.18790904
-0.044990142
-0.19382269
0.19659308
-0.047876955
-0.20278085
0.20566774
-0.050883751
-0.21214318
0.21515003
-0.054014549
-0.22192778
0.22505862
-0.057272625
-0.23215363
0.23541173
-0.060661279
-0.24284056
0.24622923
-0.064183286
-0.25401013
0.25753213
-0.067841654
-0.2656835
0.26934184
-0.071638331
-0.27788481
0.28168143
-0.07557493
-0.29063841
0.29457492
-0.079652731
-0.30397009
0.30804777
-0.083872152
-0.31790765
0.32212691
-0.088232944
-0.33247916
0.33683976
-0.092733724
-0.34771622
0.35221674
-0.097372412
-0.36365069
0.36828906
-0.1021455
-0.38031649
0.3850892
-0.10704829
-0.39774984
0.40265219
-0.11207487
-0.41598878
0.42101485
-0.11721742
-0.43507386
0.44021581
-0.12246668
-0.45504692
0.4602955
-0.12781099
-0.47595311
0.48129664
-0.13323733
-0.49783904
0.50326449
-0.13873006
-0.52075506
0.5262468
-0.14427078
-0.54475323
0.55029283
-0.14983833
-0.56988824
0.57545455
-0.1554091
-0.59621844
0.60178783
-0.16095559
-0.62380451
0.62934949
-0.16644675
-0.6527104
0.65819992
-0.17184799
-0.68300306
0.68840253
-0.17711931
-0.71475352
0.72002294
-0.18221657
-0.74803538
0.7531306
-0.18709029
-0.78292591
0.78779747
-0.19168404
-0.81950638
0.82409785
-0.19593562
-0.85786125
0.86211042
-0.19977491
-0.89807872
0.90191547
-0.20312409
-0.94025073
0.94359719
-0.20589584
-0.9844739
0.98724274
-0.2079929
-1.030849
1.0329429
-0.20930658
-1.0794796
1.0807898
-0.20971599
-1.1304732
1.1308789
-0.20908478
-1.1839384
1.1833032
-0.20726714
-1.2399834
1.2381617
-0.20409595
-1.2987234
1.2955483
-0.19938419
-1.360275
1.3555596
-0.19292986
-1.4247587
1.4183016
-0.18451331
-1.4922957
1.4838777
-0.17388116
-1.5630084
1.5523769
-0.16076684
-1.6370091
1.6238981
-0.14486542
-1.7144204
1.6985257
-0.12587003
-1.7953766
1.776391
-0.10330106
-1.8800534
1.8574967
-0.077216358
-1.9686402
1.9425707
-0.046044062
-2.0606876
2.0295265
-2.1586002
2.1236415
-0.00063414797
-0.050297891
-0.0015028496
-0.0635054
-0.0024011692
-0.062114891
-0.0033606212
-0.067725328
-0.0043310031
-0.069390975
-0.005378909
-0.073582369
-0.0064419908
-0.076499116
-0.0075852746
-0.080429492
-0.0087544375
-0.084030877
-0.0099981137
-0.088078548
-0.011284839
-0.092174333
-0.012639114
-0.096523394
-0.014050923
-0.10104693
-0.015529353
-0.10578808
-0.017074588
-0.11074447
-0.01869078
-0.11592881
-0.020380118
-0.12135113
-0.022146374
-0.12702129
-0.023992768
-0.13295087
-0.025922882
-0.13915078
-0.027940377
-0.14563336
-0.030048504
-0.152411
-0.032251372
-0.15949646
-0.034552665
-0.16690388
-0.036957181
-0.17464668
-0.039467727
-0.18274101
-0.042088993
-0.19120124
-0.044824709
-0.20004495
-0.047679152
-0.20928856
-0.050655884
-0.21895088
-0.053758975
-0.22905038
-0.056991746
-0.23960764
-0.060357488
-0.25064425
-0.063859173
-0.26218169
-0.067499209
-0.27424467
-0.071279902
-0.28685763
-0.0752024
-0.30004753
-0.079268184
-0.31384183
-0.083476573
-0.32827078
-0.087827131
-0.3433657
-0.09231822
-0.35915969
-0.096946702
-0.37568815
-0.10170817
-0.39298857
-0.10659749
-0.41109971
-0.11160754
-0.43006412
-0.11672969
-0.44992515
-0.12195364
-0.47072961
-0.1272667
-0.49252653
-0.13265449
-0.51536791
-0.13810036
-0.53930809
-0.14358482
-0.5644046
-0.14908574
-0.59071846
-0.15457778
-0.61831352
-0.16003251
-0.64725682
-0.16541775
-0.67761909
-0.1706971
-0.70947555
-0.17582999
-0.74290398
-0.18077081
-0.77798669
-0.18546818
-0.81481073
-0.18986521
-0.85346609
-0.19389783
-0.89404812
-0.19749469
-0.93665608
-0.20057572
-0.98139532
-0.20305282
-1.0283747
-0.20482647
-1.077709
-0.2057873
-1.1295157
-0.20580944
-1.1839198
-0.2047572
-1.2410392
-0.20247941
-1.3010046
-0.19880732
-1.3639499
-0.19355714
-1.4300107
-0.18652251
-1.4993306
-0.17747709
-1.572052
-0.16616935
-1.648312
-0.15233079
-1.7282508
-0.13565266
-1.8120434
-0.11579872
-1.8998933
-0.092533698
-1.9918892
-0.064967642
-2.0882405
-2.1899112
-0.00057348483
-0.049724223
-0.0013842483
-0.062694571
-0.0021915517
-0.061308327
-0.0030952497
-0.066821478
-0.003988096
-0.06849795
-0.0049673668
-0.072602927
-0.005948021
-0.07551828
-0.0070122071
-0.079365121
-0.0080955221
-0.08294737
-0.0092516776
-0.086922196
-0.01044761
-0.090978199
-0.011707494
-0.095263302
-0.013022297
-0.099731917
-0.014400311
-0.10440985
-0.015842207
-0.10930235
-0.017351578
-0.11441921
-0.018931775
-0.1197707
-0.020585745
-0.12536708
-0.022317762
-0.1312186
-0.024130644
-0.13733765
-0.026028879
-0.14373487
-0.028015986
-0.15042364
-0.03009584
-0.15741634
-0.032273221
-0.16472623
-0.034551393
-0.17236824
-0.036935558
-0.18035658
-0.03942916
-0.18870736
-0.042037254
-0.19743659
-0.044763384
-0.20656216
-0.047612687
-0.21610131
-0.050588255
-0.22607454
-0.053694401
-0.23650123
-0.056934911
-0.24740348
-0.06031245
-0.2588039
-0.063830585
-0.27072629
-0.067491459
-0.28319653
-0.071297285
-0.29624149
-0.075248549
-0.30989038
-0.079346236
-0.32417293
-0.083589799
-0.339122
-0.087977417
-0.35477196
-0.092506938
-0.37115856
-0.097174951
-0.38832052
-0.10197596
-0.40629871
-0.10690392
-0.42513621
-0.11195084
-0.44487835
-0.11710745
-0.46557318
-0.1223618
-0.48727242
-0.12770131
-0.51002871
-0.1331103
-0.53389949
-0.13857055
-0.55894481
-0.14406263
-0.58522692
-0.1495632
-0.61281358
-0.15504631
-0.64177442
-0.16048276
-0.67218345
-0.16583959
-0.70411962
-0.17108023
-0.73766434
-0.1761625
-0.77290552
-0.18104096
-0.8099335
-0.18566314
-0.84884526
-0.18997162
-0.88974117
-0.19390139
-0.93272805
-0.19738089
-0.9779178
-0.20032931
-1.0254285
-0.2026568
-1.075384
-0.2042622
-1.1279131
-0.2050371
-1.1831479
-0.20485503
-1.2412242
-0.203576
-1.3022862
-0.2010519
-1.3664758
-0.19710992
-1.4339533
-0.19156882
-1.5048706
-0.1842176
-1.5793997
-0.17483171
-1.6576914
-0.1631597
-1.739913
-0.14892456
-1.8262656
-0.13184177
-1.9169603
-0.11158673
-2.0121269
-0.087621465
-2.1121909
-2.2174424
-0.00051711815
-0.049206878
-0.0012672551
-0.061944267
-0.002002798
-0.060572547
-0.0028538383
-0.065970254
-0.0036804704
-0.067671127
-0.0045929892
-0.071690214
-0.0054967255
-0.074614345
-0.006487513
-0.078374129
-0.0074907079
-0.081943965
-0.0085660704
-0.085846615
-0.0096781003
-0.089865945
-0.0108512
-0.094089969
-0.012077349
-0.09850553
-0.013363843
-0.10312311
-0.014712361
-0.10795357
-0.016126675
-0.11300463
-0.017610089
-0.11828701
-0.019165983
-0.12381091
-0.020797838
-0.12958646
-0.022510002
-0.13562519
-0.024305651
-0.14193892
-0.026189849
-0.14853913
-0.028166509
-0.15543936
-0.030239617
-0.1626528
-0.032414333
-0.1701932
-0.034694608
-0.17807596
-0.037085479
-0.18631615
-0.039591283
-0.19493043
-0.04221747
-0.20393562
-0.044967385
-0.21335104
-0.047846151
-0.22319541
-0.050858115
-0.23348891
-0.054006951
-0.24425429
-0.057296519
-0.25551398
-0.060730202
-0.26729226
-0.064310423
-0.27961596
-0.068039362
-0.29251222
-0.0719189
-0.30601052
-0.075949345
-0.32014218
-0.080130703
-0.33494036
-0.08446233
-0.35044007
-0.08894151
-0.36667913
-0.0935654
-0.38369642
-0.0983296
-0.40153433
-0.10322815
-0.42023751
-0.10825452
-0.43985186
-0.113399
-0.46042863
-0.11865264
-0.48201876
-0.12400262
-0.50467875
-0.12943529
-0.52846689
-0.13493497
-0.55344525
-0.14048303
-0.57967906
-0.14605918
-0.60723768
-0.15164054
-0.63619338
-0.1572
-0.66662438
-0.16270916
-0.69861092
-0.16813452
-0.73223952
-0.17343924
-0.76760145
-0.17858212
-0.80479138
-0.18351673
-0.84391154
-0.18819142
-0.88506756
-0.19254831
-0.92837244
-0.19652324
-0.97394442
-0.20004394
-1.0219096
-0.20303003
-1.0724001
-0.20539362
-1.1255519
-0.20702919
-1.1815147
-0.20783046
-1.2404252
-0.20766863
-1.3024497
-0.20641138
-1.3677338
-0.20390636
-1.4364577
-0.1999784
-1.508796
-0.19445081
-1.5849222
-0.18711106
-1.665023
-0.17773721
-1.7492753
-0.16608287
-1.8379053
-0.15188297
-1.9311428
-0.13482111
-2.0291702
-0.11450498
-2.1324906
-2.2410502
-0.00046177254
-0.048744897
-0.0011646542
-0.061241234
-0.0018228138
-0.059914139
-0.0026176002
-0.065175291
-0.0033702942
-0.06691825
-0.0042249096
-0.070835408
-0.005061822
-0.073777229
-0.0059870703
-0.07744867
-0.0069189371
-0.081011878
-0.0079212595
-0.084844061
-0.0089590449
-0.088827921
-0.0100554
-0.092993363
-0.011204456
-0.097356215
-0.012412405
-0.10191489
-0.013681644
-0.10668405
-0.015015275
-0.11167071
-0.016417063
-0.11688492
-0.017890787
-0.12233687
-0.019440147
-0.12803678
-0.021069176
-0.13399583
-0.022782597
-0.14022516
-0.024583761
-0.14673761
-0.026478188
-0.15354458
-0.028470471
-0.16066014
-0.030565138
-0.16809815
-0.03276747
-0.17587324
-0.035082684
-0.18400053
-0.037515724
-0.19249698
-0.040071522
-0.2013794
-0.042755287
-0.21066685
-0.045571899
-0.22037837
-0.048525836
-0.23053454
-0.051621461
-0.24115823
-0.054863131
-0.25227187
-0.058254008
-0.26390094
-0.061797178
-0.27607236
-0.065495142
-0.28881382
-0.069349798
-0.30215544
-0.073361892
-0.31612966
-0.077531806
-0.33077003
-0.081858482
-0.34611299
-0.086340729
-0.3621965
-0.090975242
-0.37906154
-0.095758314
-0.3967509
-0.10068546
-0.41531004
-0.10574965
-0.43478736
-0.11094365
-0.45523435
-0.11625826
-0.47670388
-0.12168274
-0.49925405
-0.12720546
-0.52294398
-0.13281188
-0.54783868
-0.13848647
-0.57400436
-0.14421109
-0.60151298
-0.14996531
-0.63043914
-0.15572666
-0.66086306
-0.16146923
-0.69286844
-0.1671637
-0.72654521
-0.17277861
-0.76198678
-0.17827721
-0.79929311
-0.18361945
-0.83856979
-0.18875946
-0.87992819
-0.1936467
-0.92348607
-0.19822416
-0.96936806
-0.20242868
-1.0177065
-0.20618942
-1.0686409
-0.2094258
-1.1223172
-0.21205243
-1.1788898
-0.21396318
-1.2385158
-0.21505715
-1.3013563
-0.21520108
-1.3675893
-0.21426783
-1.4373887
-0.21210492
-1.5109546
-0.2085461
-1.5884741
-0.20340713
-1.6701519
-0.19648448
-1.7561845
-0.18755838
-1.8468148
-0.17639767
-1.9422843
-0.16269911
-2.0428486
-0.14615526
-2.1490162
-2.2605525
-0.00041188996
-0.048332791
-0.0010736578
-0.060579305
-0.0016689945
-0.059318625
-0.0024056607
-0.064438439
-0.0030824235
-0.066241281
-0.0038855823
-0.07003204
-0.00465575
-0.073006842
-0.0055214393
-0.076582751
-0.0063899533
-0.080143127
-0.0073304698
-0.083903295
-0.0083078813
-0.087850252
-0.009341827
-0.091959148
-0.010428709
-0.096269055
-0.011573192
-0.10077011
-0.012778111
-0.10547884
-0.014047321
-0.11040119
-0.015384328
-0.11554759
-0.016793004
-0.12092786
-0.018277851
-0.12655159
-0.019842859
-0.13243046
-0.021493126
-0.13857452
-0.023233463
-0.14499689
-0.025069015
-0.15170863
-0.027004884
-0.15872386
-0.029046685
-0.16605593
-0.031200226
-0.17371927
-0.03347024
-0.18173008
-0.035863027
-0.19010375
-0.03838388
-0.19885809
-0.041038171
-0.20801209
-0.043831481
-0.21758458
-0.046768376
-0.22759716
-0.04985424
-0.23807187
-0.053092358
-0.24903326
-0.056487225
-0.26050558
-0.060042164
-0.27251691
-0.063759366
-0.28509612
-0.067640808
-0.29827349
-0.071688034
-0.31208193
-0.075901107
-0.32655646
-0.08027992
-0.34173368
-0.084822471
-0.35765345
-0.089527033
-0.37435648
-0.094390359
-0.39188709
-0.099407385
-0.41029254
-0.10457302
-0.42962125
-0.10988152
-0.4499254
-0.115324
-0.47126096
-0.12089249
-0.49368513
-0.12657558
-0.51726049
-0.13236259
-0.54205128
-0.13823949
-0.56812708
-0.14419117
-0.59556095
-0.15020049
-0.62442951
-0.15624802
-0.65481525
-0.16231191
-0.6868043
-0.16836839
-0.72048853
-0.17438933
-0.75596572
-0.1803442
-0.79333821
-0.18619794
-0.83271613
-0.19191236
-0.87421402
-0.19744349
-0.91795537
-0.20274261
-0.96406958
-0.20775475
-1.0126952
-0.21241839
-1.0639783
-0.21666439
-1.1180723
-0.22041533
-1.1751397
-0.22358675
-1.2353447
-0.2260763
-1.2988662
-0.22778314
-1.3658804
-0.22858382
-1.4365842
-0.22834855
-1.5111837
-0.22693097
-1.5898828
-0.22416544
-1.6729053
-0.21987189
-1.7604627
-0.21386025
-1.852808
-0.2059157
-1.9502077
-0.19577749
-2.0529651
-0.18318334
-2.1615904
-2.2757516
-0.00036938008
-0.047963194
-0.0010002993
-0.059948216
-0.0015407639
-0.058777956
-0.0022300221
-0.063748985
-0.002847226
-0.065623865
-0.0036024895
-0.069276561
-0.0043166039
-0.0722925
-0.0051208986
-0.075778219
-0.0059475897
-0.07931619
-0.0068418213
-0.083008806
-0.0077730885
-0.086918718
-0.0087573228
-0.090974635
-0.0097941586
-0.095231931
-0.010887627
-0.099676341
-0.01204179
-0.10432436
-0.01326013
-0.10918252
-0.014547511
-0.11425988
-0.015908026
-0.119567
-0.017346481
-0.12511277
-0.018868271
-0.13090829
-0.020478002
-0.1369644
-0.022181882
-0.14329261
-0.023985127
-0.14990497
-0.025893429
-0.15681514
-0.027913146
-0.16403577
-0.030049915
-0.17158205
-0.032310626
-0.17946891
-0.034700834
-0.18771306
-0.037226271
-0.19633217
-0.03989354
-0.20534432
-0.042707645
-0.21476997
-0.045674169
-0.22463012
-0.048797786
-0.23494773
-0.05208361
-0.2457469
-0.05553469
-0.25705396
-0.059154691
-0.26889637
-0.062946721
-0.28130353
-0.066912454
-0.2943072
-0.071053003
-0.30794082
-0.075369004
-0.32223989
-0.0798604
-0.33724171
-0.084525921
-0.35298736
-0.08936399
-0.36951784
-0.094371425
-0.38687908
-0.099545286
-0.40511809
-0.104881
-0.42428495
-0.11037307
-0.44443274
-0.11601597
-0.46561748
-0.12180167
-0.48789883
-0.1277227
-0.51133886
-0.13376897
-0.53600442
-0.13993005
-0.56196541
-0.14619418
-0.58929624
-0.15254713
-0.61807599
-0.15897368
-0.64838815
-0.16545591
-0.68032154
-0.17197445
-0.71396949
-0.17850681
-0.74943291
-0.1850276
-0.78681704
-0.19150879
-0.82623467
-0.19791771
-0.86780494
-0.20421855
-0.91165451
-0.21037018
-0.95791809
-0.21632685
-1.0067388
-0.2220369
-1.0582686
-0.22744146
-1.1126679
-0.23247495
-1.170106
-0.23706435
-1.2307544
-0.24112396
-1.2948045
-0.24456151
-1.3624392
-0.24727863
-1.4338613
-0.24915874
-1.5092955
-0.25007286
-1.5889578
-0.24988346
-1.6730807
-0.24842676
-1.761902
-0.24553671
-1.8556775
-0.24103256
-1.9546886
-0.23467864
-2.0592954
-0.22625115
-2.1699959
-2.2864163
-0.00032621525
-0.047636762
-0.0009315855
-0.059342671
-0.0014227064
-0.05828663
-0.002065883
-0.063105609
-0.0026386676
-0.065050865
-0.0033657992
-0.068549209
-0.0040467835
-0.071611285
-0.0048357522
-0.074989008
-0.0056228447
-0.078528849
-0.0064708816
-0.082160508
-0.0073597961
-0.086029533
-0.0083010277
-0.090033119
-0.0092971086
-0.094235556
-0.010351459
-0.098621682
-0.011468533
-0.10320697
-0.012652903
-0.10799782
-0.013908535
-0.1130039
-0.015241405
-0.11823377
-0.016656348
-0.12369746
-0.018159037
-0.12940522
-0.019755315
-0.13536773
-0.021451183
-0.14159633
-0.023252953
-0.14810278
-0.025167863
-0.15489979
-0.027201386
-0.1620018
-0.029361005
-0.16942197
-0.031652858
-0.17717658
-0.034083769
-0.18528167
-0.036660242
-0.1937552
-0.039388327
-0.20261573
-0.042273745
-0.21188403
-0.045322222
-0.22158111
-0.048538872
-0.23173054
-0.051927727
-0.24235749
-0.055493008
-0.25348812
-0.059238202
-0.2651506
-0.06316547
-0.27737569
-0.067277056
-0.29019502
-0.071574285
-0.30364299
-0.07605772
-0.31775585
-0.080727197
-0.33257162
-0.085582709
-0.34813122
-0.090622171
-0.36447774
-0.095844019
-0.38165658
-0.10124576
-0.39971568
-0.10682407
-0.41870597
-0.11257533
-0.43868078
-0.11849523
-0.45969687
-0.12457853
-0.4818148
-0.1308194
-0.50509726
-0.1372114
-0.52961166
-0.14374635
-0.5554297
-0.15041576
-0.58262605
-0.15720945
-0.61128151
-0.16411622
-0.64148059
-0.17112319
-0.67331378
-0.17821503
-0.70687687
-0.18537498
-0.74227222
-0.19258381
-0.77960751
-0.19981939
-0.81899845
-0.2070566
-0.86056717
-0.21426686
-0.90444376
-0.22141742
-0.95076712
-0.22847178
-0.99968403
-0.23538748
-1.0513524
-0.2421176
-1.1059371
-0.24860775
-1.1636146
-0.25479541
-1.2245645
-0.26061299
-1.2889833
-0.26598625
-1.3570605
-0.27082047
-1.4290195
-0.27502883
-1.505077
-0.27849741
-1.5854762
-0.28110734
-1.6704546
-0.28272284
-1.7602671
-0.28320336
-1.8551743
-0.28238907
-1.9554774
-0.28008041
-2.0615783
-0.276097
-2.1739548
-2.2922774
-0.00028407104
-0.047352479
-0.00087012176
-0.058756446
-0.0013200411
-0.057836508
-0.0019398607
-0.06248559
-0.0024899046
-0.064500608
-0.0031954582
-0.067843436
-0.0038487762
-0.070957738
-0.0046134609
-0.074224086
-0.0053703559
-0.077771705
-0.0061859492
-0.081344653
-0.0070477849
-0.085167426
-0.0079625469
-0.089118072
-0.0089351317
-0.093262677
-0.0099689438
-0.097587562
-0.011069063
-0.10210653
-0.012240312
-0.10682624
-0.01348836
-0.11175551
-0.014818616
-0.11690315
-0.016237092
-0.12227862
-0.017750559
-0.12789137
-0.019365057
-0.13375283
-0.021088111
-0.13987287
-0.022926094
-0.14626438
-0.024886391
-0.15293906
-0.026976578
-0.15991117
-0.029203428
-0.16719466
-0.031574463
-0.17480508
-0.034096531
-0.18275911
-0.036776054
-0.19107518
-0.039619811
-0.19977147
-0.042633839
-0.20886949
-0.045823161
-0.21839126
-0.049192627
-0.22836054
-0.052747009
-0.23880256
-0.056489952
-0.24974461
-0.060424188
-0.2612158
-0.064552584
-0.27324671
-0.068876995
-0.28587002
-0.073398454
-0.29912093
-0.078118039
-0.31303564
-0.08303575
-0.32765327
-0.088151264
-0.34301505
-0.093464309
-0.35916402
-0.09897423
-0.37614596
-0.10467934
-0.39400985
-0.11057822
-0.41280635
-0.11666877
-0.43258946
-0.12294879
-0.45341606
-0.12941575
-0.47534702
-0.1360661
-0.49844605
-0.14289649
-0.52278039
-0.14990259
-0.54842269
-0.15707908
-0.57544861
-0.16442041
-0.60393922
-0.1719193
-0.63398071
-0.17956773
-0.66566435
-0.18735549
-0.6990881
-0.19527206
-0.73435463
-0.20330375
-0.77157479
-0.21143509
-0.8108661
-0.21964855
-0.85235271
-0.22792332
-0.89616801
-0.2362355
-0.94245391
-0.24455695
-0.99136145
-0.25285682
-1.0430512
-0.26109805
-1.097694
-0.26923982
-1.1554703
-0.27723159
-1.2165691
-0.28502055
-1.2811891
-0.29254095
-1.3495328
-0.29972782
-1.421823
-0.30650266
-1.4982899
-0.31277847
-1.5791853
-0.31845054
-1.6647643
-0.32340844
-1.7552875
-0.32753606
-1.8510217
-0.33069743
-1.9522883
-0.33274046
-2.0595074
-0.333503
-2.173165
-2.2930191
-0.00024593861
-0.047106333
-0.00082097128
-0.058181241
-0.0012411907
-0.057416089
-0.0018858071
-0.061840778
-0.0024209969
-0.063965208
-0.0031014058
-0.067162811
-0.0037318512
-0.070327066
-0.0044546516
-0.073501047
-0.005198183
-0.077027927
-0.0059982034
-0.080544373
-0.006850252
-0.084315109
-0.0077571033
-0.08821094
-0.0087259169
-0.092293573
-0.0097606099
-0.096552565
-0.010866947
-0.10099988
-0.012050686
-0.10564217
-0.01331807
-0.11048779
-0.014675785
-0.11554509
-0.016130625
-0.12082341
-0.017689299
-0.12633232
-0.019360433
-0.13208131
-0.021150471
-0.13808243
-0.023068274
-0.14434616
-0.025121109
-0.1508858
-0.027316792
-0.15771505
-0.029663393
-0.16484761
-0.032168286
-0.17229973
-0.034838408
-0.18008853
-0.037681122
-0.18823199
-0.04070236
-0.19674974
-0.043907666
-0.20566369
-0.047302643
-0.21499577
-0.05089167
-0.22477099
-0.054678893
-0.23501481
-0.058667547
-0.24575542
-0.0628604
-0.25702239
-0.067259645
-0.2688469
-0.071866942
-0.28126214
-0.076683998
-0.29430327
-0.081711449
-0.30800757
-0.086950163
-0.32241392
-0.092400862
-0.33756369
-0.098063962
-0.35350023
-0.10393941
-0.3702698
-0.11002797
-0.38792055
-0.11633007
-0.40650347
-0.12284561
-0.42607311
-0.12957492
-0.44668588
-0.13651813
-0.46840291
-0.14367535
-0.49128789
-0.15104575
-0.515409
-0.15862948
-0.54083793
-0.16642498
-0.56765203
-0.17443069
-0.59593238
-0.18264455
-0.62576568
-0.19106324
-0.65724445
-0.1996829
-0.69046719
-0.20849788
-0.72553835
-0.21750172
-0.76256961
-0.22668613
-0.8016803
-0.23604021
-0.84299717
-0.24555189
-0.88665477
-0.25520596
-0.93279813
-0.26498475
-0.9815807
-0.27486664
-1.0331669
-0.28482665
-1.087731
-0.29483491
-1.1454581
-0.30485768
-1.206541
-0.31485241
-1.2711873
-0.32477375
-1.3396023
-0.33457206
-1.4120129
-0.34418182
-1.4886657
-0.35354073
-1.5698091
-0.36256808
-1.6557164
-0.37117605
-1.7466556
-0.37926453
-1.8429057
-0.38673347
-1.944789
-0.39346155
-2.0527489
-0.39933288
-2.1672634
-2.2882836
-0.00021202485
-0.046894108
-0.00078774167
-0.057605355
-0.0011851206
-0.057018516
-0.0018467724
-0.061178937
-0.0023599667
-0.063451809
-0.0030315797
-0.066490986
-0.0036555647
-0.069702859
-0.0043734724
-0.072782907
-0.0051196989
-0.07628146
-0.00592008
-0.07974374
-0.0067798913
-0.083455038
-0.0076992106
-0.087291347
-0.0086865438
-0.091305958
-0.0097466986
-0.095492116
-0.010886353
-0.099859922
-0.012112221
-0.10441599
-0.013431482
-0.1091682
-0.014851466
-0.11412477
-0.016380607
-0.11929393
-0.018026819
-0.12468575
-0.019798367
-0.1303094
-0.021704151
-0.13617627
-0.0237523
-0.14229763
-0.025951502
-0.1486862
-0.028310453
-0.15535569
-0.030836526
-0.16232112
-0.033537528
-0.1695983
-0.036420719
-0.1772049
-0.039492818
-0.18515945
-0.04275902
-0.19348308
-0.046225715
-0.20219653
-0.04989671
-0.2113243
-0.053776737
-0.22089048
-0.05786852
-0.23092253
-0.062174826
-0.2414486
-0.066698532
-0.25249816
-0.071441504
-0.26410339
-0.076405211
-0.27629788
-0.081591328
-0.28911658
-0.087001597
-0.3025967
-0.092637463
-0.31677743
-0.098500648
-0.33169985
-0.10459274
-0.34740745
-0.11091626
-0.36394556
-0.11747347
-0.38136258
-0.12426664
-0.39970949
-0.13129933
-0.41903957
-0.13857395
-0.43941037
-0.14609438
-0.46088152
-0.15386386
-0.4835174
-0.16188612
-0.50738566
-0.17016397
-0.53255894
-0.17870115
-0.55911366
-0.18750088
-0.58713138
-0.19656563
-0.6166996
-0.20589776
-0.6479109
-0.21549931
-0.68086416
-0.22537096
-0.71566513
-0.23551275
-0.75242615
-0.24592333
-0.79126792
-0.25660109
-0.83231745
-0.26754123
-0.87571246
-0.27873816
-0.92159873
-0.29018401
-0.97013195
-0.30186832
-1.0214791
-0.3137779
-1.0758171
-0.32589629
-1.1333342
-0.33820085
-1.1942295
-0.35066888
-1.2587103
-0.36326849
-1.3269914
-0.37596053
-1.3993069
-0.38871362
-1.4758958
-0.4014737
-1.5570293
-0.4141847
-1.6429825
-0.42677869
-1.7340351
-0.43919138
-1.8304628
-0.45133533
-1.9326118
-0.46313323
-2.0409178
-0.47450858
-2.155854
-2.2776437
-0.00019070209
-0.046703212
-0.00078581248
-0.057010079
-0.0011794068
-0.056624733
-0.0018331558
-0.060525001
-0.0023392216
-0.062945544
-0.0030165632
-0.06581344
-0.0036555272
-0.069063682
-0.0043800934
-0.072058118
-0.0051479786
-0.075513344
-0.0059697055
-0.07892177
-0.0068590011
-0.082565493
-0.0078150273
-0.086335059
-0.0088473731
-0.090273344
-0.0099620979
-0.094377111
-0.011166927
-0.098654805
-0.012469744
-0.10311287
-0.013878998
-0.10775864
-0.015403517
-0.11259993
-0.017051933
-0.11764519
-0.018834181
-0.12290317
-0.020759058
-0.12838418
-0.022836211
-0.13409876
-0.025074443
-0.14005903
-0.027482825
-0.14627745
-0.030069843
-0.1527683
-0.032843519
-0.15954706
-0.035810818
-0.16663061
-0.038978823
-0.1740365
-0.042352934
-0.18178493
-0.045939088
-0.18989651
-0.049741029
-0.19839416
-0.053762836
-0.20730207
-0.058007754
-0.21664512
-0.062478294
-0.22645154
-0.067176854
-0.23674958
-0.072105599
-0.24756893
-0.077266146
-0.25894234
-0.082660882
-0.27090262
-0.088291672
-0.28348525
-0.094161167
-0.29672664
-0.10027218
-0.31066582
-0.10662802
-0.32534339
-0.11323276
-0.34080204
-0.12009058
-0.35708703
-0.12720624
-0.37424615
-0.13458562
-0.39232929
-0.14223445
-0.41138986
-0.15015929
-0.43148459
-0.15836678
-0.45267303
-0.16686434
-0.47501876
-0.17565941
-0.49858944
-0.18476037
-0.52345675
-0.19417486
-0.54969785
-0.20391116
-0.57739368
-0.21397697
-0.60663229
-0.22438108
-0.6375052
-0.23513066
-0.67011285
-0.24623342
-0.7045605
-0.25769662
-0.74096092
-0.26952699
-0.77943531
-0.28173003
-0.8201119
-0.29431084
-0.86312879
-0.30727318
-0.90863306
-0.32061945
-0.95678175
-0.3343508
-1.007743
-0.34846609
-1.0616961
-0.36296157
-1.1188316
-0.37783027
-1.1793519
-0.39306538
-1.2434643
-0.40864682
-1.3113965
-0.42456241
-1.3833752
-0.44078616
-1.4596529
-0.45729611
-1.5404971
-0.47406146
-1.6261916
-0.4910342
-1.7170331
-0.50816588
-1.8132978
-0.52540339
-1.915338
-0.5427076
-2.0235768
-0.56003014
-2.1384929
-2.2606158
-0.00017210666
-0.046530922
-0.00079591412
-0.056386113
-0.0011961111
-0.056224356
-0.0018611779
-0.059859758
-0.0023800045
-0.062426529
-0.0030718593
-0.065121391
-0.0037412676
-0.068394071
-0.0044893919
-0.071309781
-0.005297362
-0.074705156
-0.0061629963
-0.078055907
-0.0071060007
-0.081622253
-0.0081262889
-0.085314525
-0.0092342013
-0.08916518
-0.010437451
-0.093173598
-0.011745098
-0.09734689
-0.013166472
-0.10169122
-0.014711334
-0.10621349
-0.016389793
-0.11092118
-0.01821213
-0.11582255
-0.020188279
-0.12092671
-0.022328656
-0.12624349
-0.024642857
-0.13178424
-0.027140075
-0.13756149
-0.029829482
-0.14358771
-0.032718841
-0.14987861
-0.035815417
-0.15645015
-0.039126386
-0.16331929
-0.04265657
-0.17050596
-0.046411152
-0.17802999
-0.050394003
-0.1859133
-0.054608486
-0.19417931
-0.059057589
-0.20285258
-0.063742623
-0.2119597
-0.068666774
-0.22152699
-0.073831431
-0.23158451
-0.079238504
-0.24216143
-0.084890851
-0.25328955
-0.090790719
-0.26500228
-0.096942269
-0.2773332
-0.10334926
-0.29031913
-0.1100163
-0.3039982
-0.11694894
-0.31841014
-0.12415385
-0.33359648
-0.13163793
-0.34960225
-0.13940921
-0.3664741
-0.14747664
-0.38426104
-0.15584952
-0.40301609
-0.16453797
-0.42279517
-0.17355316
-0.44365679
-0.18290626
-0.46566453
-0.19260962
-0.48888485
-0.20267511
-0.51338995
-0.2131166
-0.53925493
-0.22394694
-0.56656181
-0.23518048
-0.59539708
-0.24683067
-0.6258532
-0.25891245
-0.65802909
-0.27144001
-0.69203076
-0.28442777
-0.72797075
-0.29789098
-0.76596936
-0.31184341
-0.80615635
-0.32629953
-0.84866905
-0.34127341
-0.89365495
-0.35677835
-0.94127178
-0.37282664
-0.9916887
-0.38943038
-1.045085
-0.4066002
-1.1016529
-0.42434557
-1.1615958
-0.4426697
-1.2251272
-0.46157726
-1.2924733
-0.48106795
-1.3638659
-0.5011422
-1.439557
-0.52179581
-1.5198185
-0.54301671
-1.6049423
-0.56479394
-1.6952235
-0.58709237
-1.7909627
-0.60989856
-1.8924918
-0.63319244
-2.0002417
-0.65696427
-2.114677
-2.2366564
-0.00015806515
-0.046372683
-0.00082392665
-0.055720102
-0.0012378021
-0.055810311
-0.001932863
-0.059164529
-0.0024819427
-0.061877272
-0.0032025039
-0.064400646
-0.0039228075
-0.067673578
-0.0047156481
-0.070516741
-0.0055866448
-0.073833955
-0.0065233346
-0.077119003
-0.0075493739
-0.080595996
-0.0086668764
-0.084196795
-0.0098872548
-0.08794457
-0.0112203
-0.091840312
-0.012676613
-0.095890333
-0.01426728
-0.1001003
-0.016003458
-0.10447706
-0.01789639
-0.10902798
-0.019957212
-0.11376146
-0.022196731
-0.11868692
-0.024625056
-0.12381489
-0.027252106
-0.12915692
-0.030087054
-0.13472627
-0.033137403
-0.14053708
-0.036410648
-0.14660508
-0.039912721
-0.15294779
-0.04364845
-0.15958327
-0.047622132
-0.16653198
-0.051836866
-0.17381496
-0.056294963
-0.1814549
-0.060998154
-0.18947581
-0.065948504
-0.19790191
-0.071147442
-0.20676043
-0.076596709
-0.21607738
-0.082298773
-0.22588208
-0.088256293
-0.23620353
-0.094472726
-0.24707271
-0.10095316
-0.25852143
-0.10770196
-0.27058394
-0.11472619
-0.2832944
-0.12203276
-0.2966911
-0.129631
-0.31081133
-0.13752934
-0.32569751
-0.1457386
-0.34139229
-0.15427078
-0.35794116
-0.16313754
-0.37539345
-0.17235257
-0.39380016
-0.18193032
-0.41321641
-0.19188554
-0.43370048
-0.20223458
-0.4553143
-0.21299374
-0.47812438
-0.22418136
-0.50220091
-0.23581495
-0.5276198
-0.24791373
-0.55446134
-0.26049789
-0.58281107
-0.2735877
-0.61276135
-0.28720403
-0.6444105
-0.30136946
-0.6778628
-0.31610619
-0.71323116
-0.33143676
-0.75063551
-0.34738503
-0.7902043
-0.36397529
-0.83207436
-0.38123182
-0.87639319
-0.39917888
-0.92331852
-0.41784245
-0.9730177
-0.43724735
-1.0256713
-0.45741837
-1.0814712
-0.47837978
-1.1406217
-0.50015329
-1.2033385
-0.52276272
-1.2698459
-0.54622583
-1.3403817
-0.5705597
-1.4151987
-0.59578448
-1.4945658
-0.62192113
-1.578774
-0.64897348
-1.6681354
-0.67693951
-1.7629563
-0.70582586
-1.8635613
-0.73565731
-1.9703644
-0.76642817
-2.0838556
-2.2051393
-0.00015006627
-0.046222454
-0.00087692578
-0.054993102
-0.0013096975
-0.055377381
-0.0020486367
-0.058425433
-0.0026487107
-0.061277033
-0.0034159307
-0.063633255
-0.004210149
-0.066879184
-0.0050725491
-0.069654157
-0.006032261
-0.072874057
-0.0070713879
-0.076079681
-0.0082156756
-0.079451511
-0.009470816
-0.082941449
-0.010849729
-0.08656545
-0.012364254
-0.090325573
-0.014026799
-0.094227572
-0.015849725
-0.098277152
-0.017845369
-0.1024812
-0.020025626
-0.1068475
-0.022402024
-0.11138484
-0.024985307
-0.11610341
-0.027785519
-0.12101445
-0.030811318
-0.12613089
-0.034070304
-0.13146705
-0.037569243
-0.13703791
-0.041312813
-0.14286128
-0.045305332
-0.14895504
-0.049548972
-0.1553394
-0.054045877
-0.16203484
-0.058797443
-0.16906315
-0.063804359
-0.17644774
-0.069067866
-0.18421205
-0.0745888
-0.19238072
-0.080369301
-0.20097966
-0.086411547
-0.21003484
-0.09271937
-0.21957396
-0.099296691
-0.22962588
-0.10614973
-0.24021932
-0.11328467
-0.25138611
-0.12071049
-0.2631577
-0.12843565
-0.27556877
-0.13647186
-0.28865439
-0.14482971
-0.30245292
-0.15352292
-0.31700367
-0.16256592
-0.3323486
-0.17197354
-0.34853279
-0.18176235
-0.36560379
-0.19194995
-0.38361163
-0.20255485
-0.40261047
-0.21359698
-0.42265722
-0.22509662
-0.4438134