/*--------------------------------*- C++ -*----------------------------------*\
  =========                 |
  \\      /  F ield         | OpenFOAM: The Open Source CFD Toolbox
   \\    /   O peration     | Website:  https://openfoam.org
    \\  /    A nd           | Version:  12
     \\/     M anipulation  |
\*---------------------------------------------------------------------------*/
FoamFile
{
    format      ascii;
    class       volScalarField;
    location    "0.139";
    object      alphat;
}
// * * * * * * * * * * * * * * * * * * * * * * * * * * * * * * * * * * * * * //

dimensions      [1 -1 -1 0 0 0 0];

internalField   nonuniform List<scalar> 
16000
(
4.965735e-07
1.0786173e-05
1.9864267e-05
2.5650385e-05
1.976379e-05
2.7177765e-05
1.9202369e-05
2.6312669e-05
2.0539903e-05
2.8308272e-05
2.3844399e-05
2.803071e-05
2.5574947e-05
2.6278853e-05
2.5411201e-05
2.5289247e-05
2.5047233e-05
2.4998766e-05
2.503568e-05
2.5180411e-05
2.5424902e-05
2.5768879e-05
2.6209942e-05
2.6748459e-05
2.7387178e-05
2.8132901e-05
2.8994761e-05
2.9987174e-05
3.1127692e-05
3.2435258e-05
3.3930685e-05
3.5641543e-05
3.7603381e-05
3.986002e-05
4.246541e-05
4.5483983e-05
4.8992592e-05
5.3082986e-05
5.7868793e-05
6.349093e-05
7.0115063e-05
7.7936584e-05
8.7201954e-05
9.8213444e-05
0.00011133138
0.00012698848
0.00014572175
0.00016818645
0.00019518159
0.00022768228
0.00026688383
0.00031425473
0.00037159311
0.00044110589
0.00052550321
0.00062812848
0.00075312267
0.00090564138
0.001092147
0.0011802379
0.0011809353
0.0011815224
0.0011819824
0.0011822849
0.0011824324
0.0011824196
0.0011822374
0.0011818681
0.0011812836
0.0011804519
0.001179359
0.0011780039
0.0011764012
0.0011751196
0.0011741221
0.0011733433
0.0011727532
0.0011726045
0.0011727076
0.0011733887
4.3931356e-07
1.0214516e-05
2.1268148e-05
2.3230693e-05
1.7806238e-05
2.4352479e-05
1.7029917e-05
2.3038926e-05
1.8136553e-05
2.5004996e-05
2.1578816e-05
2.5265974e-05
2.3378016e-05
2.3802088e-05
2.3128353e-05
2.2950034e-05
2.2751476e-05
2.2697143e-05
2.2734362e-05
2.2867586e-05
2.3094167e-05
2.3413435e-05
2.3823665e-05
2.4325275e-05
2.4920493e-05
2.561569e-05
2.6418818e-05
2.734289e-05
2.8404513e-05
2.9622151e-05
3.1015194e-05
3.2608864e-05
3.4436087e-05
3.653747e-05
3.8963521e-05
4.1774864e-05
4.5044291e-05
4.8858091e-05
5.332222e-05
5.8570184e-05
6.4761278e-05
7.2079646e-05
8.0757587e-05
9.1083497e-05
0.0001034037
0.00011812986
0.00013577469
0.00015696594
0.00018247083
0.00021322641
0.00025038169
0.00029535221
0.00034987387
0.00041608132
0.00049659844
0.0005946652
0.00071429851
0.00086049317
0.0010394929
0.0011797396
0.0011804412
0.0011809922
0.0011814257
0.0011817048
0.001181833
0.0011818059
0.0011816141
0.0011812393
0.0011806546
0.0011798298
0.0011787537
0.0011774404
0.0011758975
0.0011746598
0.0011736991
0.0011729415
0.0011723687
0.0011720787
0.0011722929
0.0011730702
3.9050108e-07
9.7700636e-06
2.0099927e-05
2.1149973e-05
1.5924596e-05
2.1430197e-05
1.5149065e-05
2.0014752e-05
1.6292816e-05
2.1927094e-05
1.9659498e-05
2.2484944e-05
2.1164062e-05
2.1305418e-05
2.079207e-05
2.059051e-05
2.0426699e-05
2.0377757e-05
2.0417728e-05
2.0544423e-05
2.0756637e-05
2.1054067e-05
2.1435346e-05
2.1901145e-05
2.2453288e-05
2.3097915e-05
2.3842154e-05
2.4697813e-05
2.5680373e-05
2.6807818e-05
2.8098565e-05
2.9575973e-05
3.1270788e-05
3.3220836e-05
3.5473562e-05
3.8086076e-05
4.1127548e-05
4.4679962e-05
4.8842788e-05
5.374209e-05
5.9531877e-05
6.6387559e-05
7.4529218e-05
8.4232186e-05
9.5831468e-05
0.00010972151
0.00012639433
0.00014645432
0.00017064179
0.00019986232
0.00023522591
0.00027810345
0.00033017794
0.00039352293
0.00047068921
0.00056482822
0.00067985034
0.00082062088
0.00099320925
0.0011794231
0.0011801175
0.0011806152
0.0011810028
0.0011812406
0.0011813325
0.0011812744
0.0011810566
0.0011806593
0.001180056
0.0011792206
0.0011781446
0.0011768541
0.0011753704
0.0011741881
0.0011732731
0.0011725504
0.0011719791
0.0011716107
0.0011718009
0.0011722
3.5968287e-07
9.4364841e-06
1.9054981e-05
1.9620056e-05
1.4302443e-05
1.8907122e-05
1.3490058e-05
1.7479284e-05
1.4655612e-05
1.9316657e-05
1.7936625e-05
2.002753e-05
1.9126867e-05
1.9061651e-05
1.8667553e-05
1.8464636e-05
1.8331114e-05
1.8292894e-05
1.8338512e-05
1.8462515e-05
1.8664313e-05
1.8944029e-05
1.9300676e-05
1.9735304e-05
2.0249472e-05
2.0849245e-05
2.1541204e-05
2.2336206e-05
2.3248676e-05
2.4296206e-05
2.5496581e-05
2.6871577e-05
2.8450183e-05
3.0267847e-05
3.2369431e-05
3.4809028e-05
3.7652694e-05
4.0979044e-05
4.4882407e-05
4.9481936e-05
5.4927594e-05
6.1388182e-05
6.9073991e-05
7.8248772e-05
8.9239362e-05
0.00010242694
0.00011828717
0.00013740625
0.00016050374
0.00018846205
0.00022236151
0.00026354021
0.00031364222
0.00037469731
0.00044920476
0.00054025384
0.0006516798
0.00078825952
0.00095595201
0.0011621899
0.0011799982
0.0011804273
0.0011807531
0.0011809354
0.0011809769
0.001180874
0.0011806159
0.0011801817
0.0011795456
0.0011786861
0.0011775984
0.0011763171
0.0011748769
0.0011737468
0.0011728762
0.0011721877
0.0011716129
0.0011711951
0.0011713375
0.0011714348
3.2118191e-07
9.1872433e-06
1.8147798e-05
1.9597265e-05
1.4227417e-05
1.6711558e-05
1.2035388e-05
1.5308881e-05
1.3250258e-05
1.7068692e-05
1.6407527e-05
1.7818459e-05
1.7230789e-05
1.7025924e-05
1.6719799e-05
1.6530686e-05
1.642212e-05
1.6395313e-05
1.6445349e-05
1.6566089e-05
1.6757167e-05
1.701931e-05
1.7351958e-05
1.7756667e-05
1.8234873e-05
1.8792658e-05
1.9436214e-05
2.0175646e-05
2.1024342e-05
2.1999461e-05
2.3118369e-05
2.4401537e-05
2.5876501e-05
2.7576657e-05
2.954466e-05
3.1831979e-05
3.4501898e-05
3.7630312e-05
4.1307701e-05
4.5646663e-05
5.0793769e-05
5.6912887e-05
6.4206682e-05
7.2928063e-05
8.3397696e-05
9.598645e-05
0.0001111565
0.00012947914
0.00015165678
0.00017855381
0.00021122618
0.00025098575
0.00029944491
0.00035859826
0.00043090404
0.00051940166
0.00062786584
0.00076100154
0.00092468027
0.0011262167
0.0011800632
0.00118041
0.0011806588
0.0011807714
0.0011807491
0.0011805874
0.0011802749
0.0011797898
0.0011791072
0.001178211
0.0011771001
0.0011758153
0.0011744198
0.0011733407
0.0011725133
0.0011718574
0.0011712787
0.0011708184
0.0011708578
0.001170689
2.8627469e-07
9.0336722e-06
1.7419532e-05
1.9340637e-05
1.3987266e-05
1.4795508e-05
1.1347344e-05
1.3518359e-05
1.2236964e-05
1.5174675e-05
1.5071895e-05
1.5883011e-05
1.5503983e-05
1.5216788e-05
1.4966177e-05
1.4793227e-05
1.470068e-05
1.4680855e-05
1.4731454e-05
1.484662e-05
1.5025971e-05
1.527074e-05
1.5580619e-05
1.5957579e-05
1.6403026e-05
1.6923035e-05
1.7523477e-05
1.8213875e-05
1.900661e-05
1.9918383e-05
2.0966339e-05
2.2169894e-05
2.3555443e-05
2.5154689e-05
2.7008482e-05
2.9166134e-05
3.1688599e-05
3.4649625e-05
3.813725e-05
4.2258445e-05
4.7156721e-05
5.2992755e-05
5.9964341e-05
6.8314616e-05
7.8360257e-05
9.0465289e-05
0.00010508185
0.0001227706
0.00014422104
0.00017028611
0.0002020042
0.00024066948
0.00028787255
0.00034558445
0.00041623709
0.00050283742
0.00060912028
0.00073974275
0.00090051996
0.0010986918
0.001180301
0.0011805531
0.0011807113
0.0011807415
0.001180643
0.0011804098
0.0011800297
0.0011794813
0.0011787409
0.0011777978
0.0011766552
0.0011753541
0.0011740063
0.0011729769
0.0011721905
0.0011715656
0.0011709865
0.0011704794
0.0011703899
0.0011700115
2.6285993e-07
8.947613e-06
1.6852958e-05
1.8296738e-05
1.3862378e-05
1.3068125e-05
1.1403724e-05
1.2442482e-05
1.1830061e-05
1.354765e-05
1.3876894e-05
1.4177698e-05
1.3907492e-05
1.3583777e-05
1.3364331e-05
1.3207554e-05
1.312662e-05
1.3112445e-05
1.3163241e-05
1.3273744e-05
1.3443256e-05
1.3673422e-05
1.3963923e-05
1.4232893e-05
1.4639942e-05
1.5118551e-05
1.5673765e-05
1.6314312e-05
1.7051371e-05
1.7900821e-05
1.8879545e-05
2.0005941e-05
2.1305354e-05
2.2807871e-05
2.4552673e-05
2.6587098e-05
2.8969919e-05
3.1772783e-05
3.5082148e-05
3.9294692e-05
4.399189e-05
4.9600604e-05
5.6316564e-05
6.4374551e-05
7.4088522e-05
8.5819054e-05
0.00010001162
0.00011722012
0.00013812485
0.00016357338
0.0001945926
0.00023246678
0.00027877358
0.00033547075
0.00040497668
0.00049028138
0.00059509777
0.00072405582
0.00088294021
0.0010789524
0.0011806945
0.0011808406
0.0011808964
0.0011808328
0.0011806465
0.00118033
0.0011798705
0.0011792484
0.0011784418
0.0011774441
0.0011762638
0.0011749339
0.0011736453
0.0011726642
0.0011719163
0.0011713208
0.0011707445
0.0011701849
0.0011699643
0.0011694635
2.4181314e-07
8.8963491e-06
1.6372619e-05
1.6643471e-05
1.2714616e-05
1.1386441e-05
9.8704266e-06
1.1112233e-05
1.0398607e-05
1.2176539e-05
1.2677415e-05
1.2614689e-05
1.2387277e-05
1.207118e-05
1.1877076e-05
1.1741282e-05
1.1674554e-05
1.1669173e-05
1.1652223e-05
1.1743957e-05
1.1894752e-05
1.2105131e-05
1.2373084e-05
1.2699063e-05
1.3087999e-05
1.3543565e-05
1.4071123e-05
1.4679323e-05
1.5378738e-05
1.6184768e-05
1.7114517e-05
1.8185841e-05
1.942359e-05
2.0856836e-05
2.2523793e-05
2.4470563e-05
2.6754622e-05
2.9446339e-05
3.2631635e-05
3.6415201e-05
4.0924755e-05
4.6322051e-05
5.280286e-05
6.1106175e-05
7.0582097e-05
8.2048941e-05
9.5949292e-05
0.00011283406
0.00013337821
0.0001584304
0.00018901247
0.00022640698
0.00027218833
0.00032831195
0.0003971964
0.00048183155
0.00058592812
0.00071411175
0.00087216358
0.0010672839
0.0011812232
0.0011812538
0.0011811971
0.0011810294
0.0011807451
0.001180335
0.0011797866
0.0011790828
0.0011782045
0.0011771471
0.0011759253
0.0011745587
0.0011733429
0.0011724093
0.0011716977
0.0011711306
0.0011705604
0.0011699431
0.0011695944
0.0011689602
2.1897144e-07
8.8492507e-06
1.588015e-05
1.4566533e-05
1.0449755e-05
1.0120818e-05
8.1348274e-06
9.4763057e-06
9.6700806e-06
1.0956845e-05
1.1462211e-05
1.1163645e-05
1.0956241e-05
1.0673479e-05
1.0505114e-05
1.0320079e-05
1.0242343e-05
1.0231221e-05
1.0279106e-05
1.0382986e-05
1.0538843e-05
1.0748669e-05
1.1011489e-05
1.1327641e-05
1.1702009e-05
1.2139258e-05
1.2644793e-05
1.3227302e-05
1.3896948e-05
1.4668641e-05
1.5559817e-05
1.6588053e-05
1.7778034e-05
1.9158136e-05
2.0765997e-05
2.2646994e-05
2.4857844e-05
2.7468249e-05
3.0563461e-05
3.424729e-05
3.8647861e-05
4.3924642e-05
5.0276554e-05
5.7934557e-05
6.7194827e-05
7.8426095e-05
9.2884952e-05
0.00010960195
0.00012997023
0.00015484577
0.0001852522
0.00022247868
0.00026810616
0.00032409912
0.00039289019
0.0004774864
0.00058161677
0.00070992627
0.00086821922
0.0010637303
0.0011818633
0.0011817705
0.001181593
0.0011813128
0.0011809216
0.0011804099
0.0011797658
0.0011789751
0.001178022
0.0011769016
0.0011756368
0.0011742523
0.0011731048
0.001172218
0.0011715412
0.0011710014
0.0011704393
0.0011697596
0.0011692825
0.0011685004
2.0175733e-07
8.8042057e-06
1.4278789e-05
1.2684512e-05
8.4507704e-06
8.9968834e-06
7.2326422e-06
8.5542847e-06
8.9579504e-06
9.8053881e-06
1.0261007e-05
9.8430061e-06
9.6422543e-06
9.3076215e-06
9.1284569e-06
9.0186583e-06
8.9754925e-06
8.9899042e-06
9.0557085e-06
9.1698631e-06
9.3327526e-06
9.542479e-06
9.801659e-06
1.0110547e-05
1.0474264e-05
1.0897903e-05
1.1387037e-05
1.1950535e-05
1.2598306e-05
1.3344811e-05
1.420789e-05
1.5205185e-05
1.6361476e-05
1.770476e-05
1.9272464e-05
2.1109702e-05
2.3272936e-05
2.5831807e-05
2.8871953e-05
3.2497694e-05
3.6837292e-05
4.2049803e-05
4.8337791e-05
5.5932339e-05
6.5132262e-05
7.6308625e-05
8.9919294e-05
0.00010650237
0.00012789947
0.00015282041
0.0001833165
0.00022069166
0.00026654407
0.00032285913
0.00039209829
0.0004773041
0.00058224584
0.0007116137
0.00087126356
0.0010684993
0.0011825881
0.0011823657
0.0011820614
0.0011816619
0.0011811575
0.0011805388
0.0011797954
0.0011789154
0.0011778863
0.0011767014
0.0011753902
0.0011740178
0.0011729344
0.0011720939
0.0011714511
0.0011709364
0.0011703819
0.0011696375
0.0011690322
0.0011683442
1.8622716e-07
8.7574264e-06
1.1344666e-05
1.0533481e-05
6.941904e-06
8.0139592e-06
6.5960942e-06
7.6908263e-06
8.3864752e-06
8.7630431e-06
9.0840654e-06
8.5509669e-06
8.2990405e-06
8.068692e-06
7.9383488e-06
7.8687165e-06
7.8548747e-06
7.8914652e-06
7.972882e-06
8.098535e-06
8.265843e-06
8.4775258e-06
8.7354312e-06
9.040344e-06
9.3974865e-06
9.8124332e-06
1.0291055e-05
1.0842467e-05
1.1476551e-05
1.2207405e-05
1.2986341e-05
1.3953842e-05
1.5078358e-05
1.6387479e-05
1.7918418e-05
1.9716064e-05
2.1836707e-05
2.4349989e-05
2.7342081e-05
3.0918128e-05
3.5207699e-05
4.0688019e-05
4.6977846e-05
5.4588147e-05
6.3820565e-05
7.5049933e-05
8.8746848e-05
0.00010546174
0.00012588915
0.00015089557
0.00018320484
0.00022105062
0.00026751394
0.00032461372
0.00039485573
0.00048133766
0.00058789256
0.00071928411
0.00088145082
0.0010817993
0.0011833694
0.0011830127
0.0011825776
0.0011820547
0.0011814335
0.0011807057
0.0011798625
0.0011788934
0.0011777886
0.0011765402
0.0011751752
0.0011738573
0.0011728334
0.001172038
0.0011714289
0.0011709361
0.0011703865
0.0011695921
0.0011688896
0.0011683162
1.7247677e-07
8.7136482e-06
8.9541896e-06
8.9607115e-06
6.1077849e-06
7.1037037e-06
6.0620252e-06
6.9389847e-06
7.8066407e-06
7.7918137e-06
7.8073403e-06
7.3540362e-06
7.1494196e-06
6.9820415e-06
6.8932085e-06
6.8571054e-06
6.8689097e-06
6.9244618e-06
7.0201139e-06
7.1557865e-06
7.3302956e-06
7.5457032e-06
7.8050508e-06
8.109622e-06
8.4647386e-06
8.8381548e-06
9.3045322e-06
9.8430839e-06
1.0463557e-05
1.1179585e-05
1.2007593e-05
1.2968946e-05
1.4087769e-05
1.5391785e-05
1.6918628e-05
1.871373e-05
2.0834161e-05
2.3350583e-05
2.6351003e-05
2.9942907e-05
3.4259048e-05
3.9465387e-05
4.5765367e-05
5.340306e-05
6.2685208e-05
7.4636462e-05
8.855132e-05
0.00010555319
0.00012634863
0.00015183026
0.00018308937
0.00022355813
0.00027102699
0.00032938569
0.00040120065
0.00048964589
0.00059864348
0.00073306171
0.00089895729
0.0011038724
0.0011841776
0.001183684
0.0011831167
0.0011824689
0.0011817307
0.0011808946
0.0011799538
0.001178898
0.0011777184
0.0011764126
0.0011749947
0.0011737702
0.0011728013
0.0011720486
0.0011714735
0.0011709991
0.0011704497
0.0011696325
0.0011688718
0.0011684038
1.6029776e-07
8.6625762e-06
7.1263774e-06
7.8722463e-06
5.4478956e-06
6.2925041e-06
5.6057809e-06
6.274751e-06
7.1158004e-06
6.6879985e-06
6.6560736e-06
6.3082888e-06
6.1472157e-06
6.0307514e-06
5.9775109e-06
5.9703392e-06
6.0047876e-06
6.0783781e-06
6.1881556e-06
6.3348458e-06
6.5178845e-06
6.7396417e-06
6.9739024e-06
7.2754582e-06
7.6272727e-06
8.0342579e-06
8.50461e-06
9.0471187e-06
9.6717945e-06
1.0392531e-05
1.1225961e-05
1.2193242e-05
1.3319965e-05
1.4634323e-05
1.6174659e-05
1.7987371e-05
2.0130922e-05
2.2677578e-05
2.5717992e-05
2.9363168e-05
3.3749287e-05
3.9046125e-05
4.5467618e-05
5.3264043e-05
6.2751747e-05
7.4324432e-05
8.847151e-05
0.000105785
0.00012811273
0.00015429458
0.00018643136
0.0002259157
0.00027708427
0.00033718755
0.00041116027
0.00050227586
0.0006145729
0.00075305741
0.00092394665
0.001134954
0.0011849838
0.0011843527
0.0011836545
0.0011828835
0.0011820309
0.00118109
0.0011800553
0.0011789175
0.0011776652
0.0011763098
0.0011749011
0.0011737534
0.0011728355
0.0011721222
0.0011715816
0.0011711234
0.0011705668
0.0011697618
0.001169026
0.0011686562
1.4949309e-07
8.6012658e-06
5.72116e-06
6.8861172e-06
4.8624781e-06
5.5725203e-06
5.2194149e-06
5.5984214e-06
6.2439757e-06
5.7304888e-06
5.6465016e-06
5.3941076e-06
5.2740852e-06
5.2002141e-06
5.1786666e-06
5.197721e-06
5.2535302e-06
5.3447286e-06
5.4692265e-06
5.6070691e-06
5.7941259e-06
6.0198883e-06
6.2870968e-06
6.5992786e-06
6.9614555e-06
7.3789776e-06
7.8599715e-06
8.4139605e-06
9.0512298e-06
9.7858916e-06
1.0634756e-05
1.1619289e-05
1.2707906e-05
1.4033769e-05
1.5588663e-05
1.7419918e-05
1.9587629e-05
2.2165735e-05
2.524759e-05
2.8948313e-05
3.3408681e-05
3.9098162e-05
4.5702055e-05
5.3730974e-05
6.3512174e-05
7.5450619e-05
9.0059028e-05
0.00010795536
0.00012989681
0.00015826286
0.0001915512
0.00023246701
0.00028278569
0.00034801134
0.00042473932
0.00051924881
0.00063572599
0.00077934864
0.00095654365
0.0011752427
0.0011857609
0.0011849942
0.001184169
0.0011832792
0.0011823173
0.0011812771
0.0011801532
0.0011789391
0.0011776212
0.0011762119
0.0011748807
0.0011738039
0.0011729327
0.0011722549
0.0011717489
0.0011713072
0.0011707361
0.0011699699
0.0011693514
0.001169046
1.3993332e-07
8.4802617e-06
4.6504194e-06
6.0101485e-06
4.3407459e-06
4.9330368e-06
4.8838298e-06
4.8615469e-06
5.3634257e-06
4.8767592e-06
4.7717533e-06
4.5981224e-06
4.5173269e-06
4.4804452e-06
4.4879074e-06
4.5314446e-06
4.6079551e-06
4.6981025e-06
4.8319564e-06
5.0002831e-06
5.2042349e-06
5.4457043e-06
5.7282027e-06
6.0554848e-06
6.4332219e-06
6.8670695e-06
7.3652462e-06
7.9138657e-06
8.564755e-06
9.3141375e-06
1.0178908e-05
1.1180599e-05
1.2345544e-05
1.370684e-05
1.5303988e-05
1.7185929e-05
1.941555e-05
2.2069645e-05
2.5245362e-05
2.9063739e-05
3.3672104e-05
3.9256175e-05
4.6040638e-05
5.430237e-05
6.4382662e-05
7.7345449e-05
9.2541067e-05
0.00011116927
0.00013402405
0.00016208511
0.00019840627
0.00024108222
0.00029358148
0.00035818417
0.00044190167
0.00054053842
0.00066209213
0.00081194748
0.00099679205
0.0011873564
0.0011864842
0.0011855875
0.0011846417
0.0011836394
0.0011825748
0.0011814421
0.0011802348
0.0011789488
0.0011775813
0.0011761416
0.0011749255
0.0011739163
0.0011730892
0.0011724437
0.0011719704
0.0011715474
0.0011709617
0.0011702399
0.0011698034
0.0011694919
1.3153171e-07
8.1532261e-06
3.913016e-06
5.2338191e-06
3.8775771e-06
4.3677156e-06
4.3490869e-06
4.1951419e-06
4.5139648e-06
4.1221456e-06
4.0224436e-06
3.9117972e-06
3.8680043e-06
3.8639982e-06
3.8982652e-06
3.9503416e-06
4.0400851e-06
4.1630111e-06
4.3184281e-06
4.506789e-06
4.7299349e-06
4.9903321e-06
5.2919657e-06
5.6389126e-06
6.0235281e-06
6.4747587e-06
6.9910459e-06
7.5819106e-06
8.2593196e-06
9.0375287e-06
9.9339012e-06
1.0970883e-05
1.2175934e-05
1.3583471e-05
1.5235781e-05
1.7183681e-05
1.9493513e-05
2.2245791e-05
2.5541776e-05
2.9509844e-05
3.4303354e-05
4.0117534e-05
4.7191866e-05
5.5815782e-05
6.6349976e-05
7.9237132e-05
9.5865869e-05
0.00011537446
0.00013931768
0.0001687346
0.00020487689
0.0002516841
0.00030675471
0.00037453715
0.00045797802
0.00056604133
0.00069356949
0.00085075963
0.0010446032
0.0011881215
0.0011871334
0.0011861159
0.0011850576
0.0011839508
0.0011827907
0.0011815729
0.00118029
0.0011789355
0.0011775286
0.0011761488
0.0011750254
0.0011740834
0.0011733003
0.0011726864
0.0011722416
0.0011718364
0.0011712489
0.0011705821
0.001170303
0.0011700964
1.243716e-07
7.7380338e-06
3.4502758e-06
4.5460573e-06
3.4669226e-06
3.7049781e-06
3.8777555e-06
3.5845826e-06
3.7450884e-06
3.4668267e-06
3.3887487e-06
3.3280725e-06
3.3181741e-06
3.3438497e-06
3.385981e-06
3.4700243e-06
3.5860201e-06
3.7328196e-06
3.9107126e-06
4.1209479e-06
4.3659659e-06
4.6485364e-06
4.9634542e-06
5.3309494e-06
5.7501388e-06
6.2277146e-06
6.771718e-06
7.3920183e-06
8.1008403e-06
8.9133644e-06
9.8475321e-06
1.0926783e-05
1.2179871e-05
1.3642992e-05
1.529521e-05
1.7305494e-05
1.9691348e-05
2.2537611e-05
2.6106242e-05
3.0253534e-05
3.5268771e-05
4.1356651e-05
4.8772804e-05
5.7822397e-05
6.8884705e-05
8.2429341e-05
9.903251e-05
0.00011940142
0.00014569484
0.00017666999
0.00021474016
0.00026155289
0.00032216153
0.00039358409
0.00048151158
0.00059554234
0.00072992106
0.00089553301
0.0010997106
0.001188792
0.0011876947
0.0011865675
0.0011854064
0.001184204
0.0011829558
0.0011816592
0.00118031
0.0011789
0.0011774496
0.0011762115
0.0011751724
0.0011742959
0.0011735599
0.0011729806
0.0011725598
0.0011721677
0.0011715914
0.0011709886
0.0011708686
0.0011707622
1.1874494e-07
6.7096268e-06
3.0567038e-06
3.9222272e-06
3.1133826e-06
3.0928201e-06
3.4082216e-06
3.0316643e-06
3.0845607e-06
2.9071864e-06
2.8584611e-06
2.8386142e-06
2.8511192e-06
2.8959614e-06
2.9766318e-06
3.0887744e-06
3.230431e-06
3.4015531e-06
3.6032473e-06
3.8372358e-06
4.1003533e-06
4.4055347e-06
4.7529421e-06
5.1473543e-06
5.5944755e-06
6.101223e-06
6.6760097e-06
7.3290967e-06
8.0731071e-06
8.9042231e-06
9.8743797e-06
1.0993324e-05
1.2291034e-05
1.3805066e-05
1.5582387e-05
1.7681711e-05
2.0175619e-05
2.315496e-05
2.6732448e-05
3.1047328e-05
3.6272487e-05
4.2927697e-05
5.0731865e-05
6.0264621e-05
7.1925129e-05
8.620963e-05
0.00010372847
0.00012523298
0.00015303846
0.00018575644
0.00022598138
0.00027545072
0.00033957844
0.00041506406
0.00050800769
0.00062247876
0.000770728
0.00094579613
0.0011615906
0.0011893587
0.0011881605
0.0011869354
0.0011856819
0.0011843936
0.0011830658
0.0011816959
0.001180285
0.0011788467
0.001177454
0.0011763163
0.0011753578
0.0011745444
0.0011738597
0.0011733204
0.0011729212
0.0011725342
0.0011719802
0.0011714513
0.0011714532
0.0011714983
1.1422682e-07
4.7108099e-06
2.7012213e-06
3.3440284e-06
2.6632778e-06
2.5800822e-06
2.9131513e-06
2.5392436e-06
2.5346246e-06
2.4360826e-06
2.420409e-06
2.4281146e-06
2.4716467e-06
2.5507485e-06
2.6610548e-06
2.800069e-06
2.967147e-06
3.16297e-06
3.3859777e-06
3.6433248e-06
3.9362237e-06
4.2680341e-06
4.6428379e-06
5.0655967e-06
5.5422936e-06
6.0801398e-06
6.6878909e-06
7.3650885e-06
8.1428355e-06
9.0297174e-06
1.0046022e-05
1.1216946e-05
1.2574247e-05
1.41578e-05
1.6017589e-05
1.8215895e-05
2.0830115e-05
2.3956524e-05
2.7714883e-05
3.2253774e-05
3.7757281e-05
4.4452347e-05
5.3010895e-05
6.3074719e-05
7.5392574e-05
9.0489445e-05
0.00010901157
0.00013175589
0.00015970482
0.00019580962
0.00023838254
0.00029074989
0.00035519215
0.00043859835
0.00053701171
0.00065823029
0.00081534392
0.0010007952
0.0011911139
0.001189818
0.0011885285
0.0011872179
0.0011858826
0.001184518
0.0011831201
0.0011816864
0.00118022
0.0011787549
0.0011775092
0.0011764596
0.001175574
0.0011748209
0.0011741909
0.0011736969
0.0011733188
0.0011729298
0.0011724012
0.0011719694
0.0011720795
0.0011721899
1.0946312e-07
3.9141855e-06
2.3293842e-06
2.8112589e-06
2.2966695e-06
2.1519563e-06
2.4003443e-06
2.1069225e-06
2.0875865e-06
2.0495134e-06
2.0627276e-06
2.1049877e-06
2.1845557e-06
2.2944602e-06
2.43211e-06
2.5965814e-06
2.7882132e-06
3.0060102e-06
3.2556532e-06
3.5384485e-06
3.8573719e-06
4.2160289e-06
4.6187325e-06
5.0706363e-06
5.5779326e-06
6.1481009e-06
6.7826523e-06
7.5045938e-06
8.3225261e-06
9.2534664e-06
1.0318823e-05
1.1545317e-05
1.2966558e-05
1.4624786e-05
1.6573159e-05
1.8878212e-05
2.1622525e-05
2.4908411e-05
2.8863087e-05
3.364375e-05
3.9445494e-05
4.6845918e-05
5.5541138e-05
6.6172158e-05
7.919183e-05
9.515539e-05
0.00011474675
0.00013880911
0.0001699418
0.00020658982
0.00025165382
0.00030709674
0.00037533539
0.00046367088
0.00056790884
0.00069632603
0.00086285026
0.0010594285
0.0011915348
0.0011901698
0.0011888015
0.0011874176
0.0011860118
0.0011845802
0.0011831207
0.0011816335
0.0011801371
0.0011787454
0.0011776001
0.0011766346
0.0011758158
0.0011751196
0.0011745449
0.0011740985
0.0011737415
0.001173351
0.0011728546
0.0011725343
0.0011727399
0.0011728774
1.0626344e-07
3.1533945e-06
2.0087665e-06
2.2720707e-06
1.9961382e-06
1.7856547e-06
1.9234695e-06
1.7402719e-06
1.736645e-06
1.7472124e-06
1.7904686e-06
1.8706732e-06
1.9811836e-06
2.1180477e-06
2.2802488e-06
2.4680621e-06
2.6813917e-06
2.9239577e-06
3.1975929e-06
3.5050215e-06
3.8495035e-06
4.2348547e-06
4.665549e-06
5.1468857e-06
5.685224e-06
6.2839584e-06
6.9589555e-06
7.7189775e-06
8.5782566e-06
9.5546557e-06
1.0670852e-05
1.1955173e-05
1.3443276e-05
1.5179913e-05
1.7221352e-05
1.963833e-05
2.2519239e-05
2.5972543e-05
3.0133644e-05
3.5169176e-05
4.1557062e-05
4.9069301e-05
5.824095e-05
6.9461646e-05
8.3208973e-05
0.00010007108
0.0001207712
0.00014620152
0.00017906037
0.00021779114
0.00026542854
0.00032404867
0.00039621512
0.00048959776
0.000599875
0.00073577382
0.00091202405
0.0011202147
0.001191849
0.0011904212
0.0011889863
0.0011875407
0.0011860761
0.0011845879
0.0011830762
0.0011815494
0.0011800465
0.0011787861
0.0011777246
0.0011768335
0.0011760773
0.0011754351
0.0011749115
0.0011745102
0.0011741734
0.0011737889
0.0011733365
0.0011731229
0.0011734035
0.0011735318
1.0493901e-07
2.4871604e-06
1.7316536e-06
1.7542881e-06
1.7191576e-06
1.472236e-06
1.5340762e-06
1.4482e-06
1.475437e-06
1.5209885e-06
1.6029309e-06
1.7136524e-06
1.8496527e-06
2.0093634e-06
2.1930699e-06
2.4019431e-06
2.6369374e-06
2.9016027e-06
3.1980586e-06
3.5292915e-06
3.8987327e-06
4.3103386e-06
4.7687067e-06
5.2792554e-06
5.8484732e-06
6.4842581e-06
7.1963556e-06
7.9968883e-06
8.89077e-06
9.913087e-06
1.1080756e-05
1.2423814e-05
1.3980107e-05
1.5797127e-05
1.7934306e-05
2.0549248e-05
2.3592376e-05
2.724363e-05
3.1647321e-05
3.6981396e-05
4.3464927e-05
5.136722e-05
6.1020875e-05
7.2835186e-05
8.7314133e-05
0.00010507874
0.00012689292
0.00015504011
0.00018823541
0.00022905049
0.00027926169
0.00034106182
0.00042110877
0.00051553763
0.00063188605
0.00077533178
0.00096132463
0.0011812869
0.0011920707
0.0011905862
0.0011890944
0.0011875966
0.0011860845
0.0011845516
0.0011829966
0.001181446
0.0011800392
0.0011788665
0.0011778788
0.001177049
0.0011763492
0.0011757606
0.0011752804
0.0011749178
0.0011746013
0.0011742357
0.0011738409
0.0011737148
0.001174034
0.0011741416
1.0654681e-07
1.9164058e-06
1.5006824e-06
1.3574325e-06
1.4369707e-06
1.2094176e-06
1.2491036e-06
1.2343458e-06
1.294333e-06
1.3742873e-06
1.4848218e-06
1.6190381e-06
1.7756075e-06
1.9546452e-06
2.1573629e-06
2.3855029e-06
2.6408248e-06
2.9263768e-06
3.2446938e-06
3.5988954e-06
3.9925148e-06
4.4296017e-06
4.9148558e-06
5.4538165e-06
6.0531258e-06
6.7208833e-06
7.4671201e-06
8.3043907e-06
9.2485083e-06
1.0319475e-05
1.1542576e-05
1.2949832e-05
1.4581579e-05
1.6488522e-05
1.8734105e-05
2.1397436e-05
2.4576898e-05
2.8394834e-05
3.300255e-05
3.8587246e-05
4.5380016e-05
5.3664988e-05
6.3789466e-05
7.618355e-05
9.1375359e-05
0.00011092615
0.00013398926
0.00016231871
0.00019714004
0.00023996635
0.00029266368
0.00036089281
0.00044137811
0.00054053117
0.0006627631
0.00082144986
0.0010089294
0.0011937761
0.0011922183
0.0011906832
0.0011891434
0.0011875993
0.0011860465
0.0011844825
0.0011829105
0.0011813697
0.0011800828
0.0011789871
0.0011780618
0.0011772796
0.0011766227
0.0011760865
0.0011756462
0.0011753147
0.0011750177
0.0011746809
0.0011743545
0.0011743056
0.0011746413
0.0011747233
1.1224532e-07
1.4478711e-06
1.313278e-06
1.0676948e-06
1.2825123e-06
9.9112037e-07
1.0557278e-06
1.0929538e-06
1.1798638e-06
1.2874764e-06
1.4190407e-06
1.5714713e-06
1.7451393e-06
1.94117e-06
2.1612709e-06
2.4074486e-06
2.6819879e-06
2.9872559e-06
3.3263601e-06
3.7023884e-06
4.1189492e-06
4.5801779e-06
5.0908782e-06
5.6567215e-06
6.2845193e-06
6.9825932e-06
7.761272e-06
8.633569e-06
9.615927e-06
1.0729237e-05
1.1999934e-05
1.3461578e-05
1.5156485e-05
1.7137871e-05
1.9472338e-05
2.224295e-05
2.5552906e-05
2.9530057e-05
3.4332435e-05
4.0155061e-05
4.7560601e-05
5.6271175e-05
6.6914704e-05
7.9942237e-05
9.5907938e-05
0.00011549417
0.00013954186
0.00016908771
0.00020540668
0.00025241626
0.00030780502
0.00037598241
0.00045995544
0.00056345389
0.00069785092
0.00085657934
0.0010526029
0.0011938964
0.0011923064
0.0011907325
0.0011891553
0.0011875726
0.0011859809
0.0011843824
0.0011828018
0.0011813623
0.0011801589
0.0011791362
0.001178269
0.0011775318
0.0011769092
0.0011764015
0.001176008
0.001175701
0.001175422
0.0011751179
0.0011748613
0.0011748768
0.0011752065
0.0011752578
1.2268339e-07
1.1467846e-06
1.1519954e-06
9.2694418e-07
9.3878664e-07
8.6694619e-07
9.2859363e-07
1.0079161e-06
1.1156382e-06
1.242819e-06
1.3902575e-06
1.5577281e-06
1.7464408e-06
1.957919e-06
2.1940214e-06
2.4568243e-06
2.7486492e-06
3.0720831e-06
3.4300247e-06
3.8257383e-06
4.262932e-06
4.7458641e-06
5.2794918e-06
5.8696832e-06
6.5235102e-06
7.2470562e-06
8.0547889e-06
8.9585256e-06
9.9842495e-06
1.1139751e-05
1.2458794e-05
1.3976614e-05
1.5737598e-05
1.7797488e-05
2.022599e-05
2.3109911e-05
2.6557005e-05
3.0700659e-05
3.5705614e-05
4.1775053e-05
4.9159306e-05
5.81666e-05
6.9176111e-05
8.2652181e-05
9.9168521e-05
0.00011943066
0.00014559221
0.00017639294
0.00021424463
0.00026079328
0.00031807294
0.00038860456
0.00047551301
0.00058821724
0.00072142667
0.00088591968
0.0010892512
0.0011939747
0.0011923556
0.0011907511
0.0011891474
0.0011875404
0.0011859262
0.0011843097
0.0011827329
0.0011813968
0.0011802598
0.0011792977
0.0011784821
0.0011777904
0.0011772068
0.0011767216
0.0011763562
0.0011760692
0.0011758083
0.00117554
0.0011753488
0.0011754074
0.0011757054
0.001175719
1.4419402e-07
1.1852475e-06
9.919135e-07
7.0734694e-07
7.669206e-07
7.7484637e-07
8.5840715e-07
9.6055419e-07
1.08473e-06
1.2267089e-06
1.387627e-06
1.5684016e-06
1.7705327e-06
1.9956581e-06
2.2456651e-06
2.5226571e-06
2.828988e-06
3.1672932e-06
3.5405322e-06
3.9520419e-06
4.4056092e-06
4.9055752e-06
5.4569825e-06
6.065788e-06
6.7391641e-06
7.4859104e-06
8.3169999e-06
9.2462778e-06
1.0291346e-05
1.1474618e-05
1.2824583e-05
1.4377391e-05
1.6178644e-05
1.8285622e-05
2.0769923e-05
2.3720669e-05
2.7248418e-05
3.1489895e-05
3.6613809e-05
4.2827995e-05
5.0388328e-05
6.0036414e-05
7.1394104e-05
8.5291646e-05
0.00010231965
0.00012320409
0.00014884036
0.00018033334
0.00021904774
0.00026666888
0.00032528768
0.00040116437
0.00049081767
0.00060139388
0.00073791431
0.00090665216
0.0011154477
0.0011940516
0.001192402
0.0011907666
0.0011891367
0.0011875087
0.0011858802
0.0011842631
0.0011827312
0.001181466
0.0011803842
0.001179469
0.0011786936
0.0011780394
0.0011775166
0.0011770343
0.0011766842
0.0011764039
0.0011761662
0.0011759302
0.00117579
0.0011758669
0.0011761236
0.0011761223
1.3748599e-07
7.9057187e-07
8.1350176e-07
6.0306343e-07
6.6020761e-07
7.2076336e-07
8.2291355e-07
9.4184181e-07
1.0790973e-06
1.2336803e-06
1.4068325e-06
1.5997554e-06
1.8139789e-06
2.051207e-06
2.3133665e-06
2.6026177e-06
2.921382e-06
3.2723314e-06
3.6585641e-06
4.0834769e-06
4.550942e-06
5.0653862e-06
5.6319403e-06
6.2566529e-06
6.9467974e-06
7.7112913e-06
8.5612539e-06
9.5107265e-06
1.0586201e-05
1.179708e-05
1.3178373e-05
1.4767154e-05
1.6610123e-05
1.8765889e-05
2.1307636e-05
2.4326405e-05
2.7935058e-05
3.2273125e-05
3.751276e-05
4.3866032e-05
5.159387e-05
6.1016979e-05
7.2529257e-05
8.6616544e-05
0.00010387611
0.00012504425
0.00015102915
0.00018455738
0.00022409156
0.00027271289
0.00033255937
0.00040628198
0.0004971786
0.00060936022
0.00074796365
0.00091942335
0.0011317999
0.0011941774
0.0011924993
0.0011908328
0.0011891723
0.0011875156
0.0011858654
0.001184248
0.0011827894
0.0011815691
0.0011805306
0.001179652
0.0011789076
0.0011782833
0.0011777779
0.0011773315