/*--------------------------------*- C++ -*----------------------------------*\
  =========                 |
  \\      /  F ield         | OpenFOAM: The Open Source CFD Toolbox
   \\    /   O peration     | Website:  https://openfoam.org
    \\  /    A nd           | Version:  12
     \\/     M anipulation  |
\*---------------------------------------------------------------------------*/
FoamFile
{
    format      ascii;
    class       volScalarField;
    location    "0.139";
    object      k;
}
// * * * * * * * * * * * * * * * * * * * * * * * * * * * * * * * * * * * * * //

dimensions      [0 2 -2 0 0 0 0];

internalField   nonuniform List<scalar> 
16000
(
0.049683985
0.021674479
0.022469423
0.016515208
0.014016165
0.01269116
0.011903511
0.011432694
0.011113306
0.010898333
0.010739833
0.010621814
0.010529756
0.010456913
0.010398317
0.010350825
0.01031199
0.010280169
0.010254295
0.010233099
0.010215553
0.010201325
0.010189899
0.010180723
0.010173603
0.010168147
0.010164184
0.010161544
0.010160086
0.01015968
0.010160201
0.010161547
0.010163638
0.010166404
0.010169787
0.010173731
0.01017818
0.010183077
0.010188367
0.010193994
0.010199891
0.010205987
0.010212211
0.010218493
0.010224756
0.010230926
0.010236944
0.010242759
0.010248327
0.010253601
0.010258532
0.010263067
0.010267153
0.010270738
0.010273779
0.010276232
0.010278052
0.010279184
0.010279555
0.010279072
0.010277611
0.010275036
0.01027123
0.010266082
0.010259489
0.010251351
0.010241551
0.010229918
0.010216188
0.010200019
0.010181104
0.010158939
0.010133354
0.010112865
0.010097266
0.01008512
0.010075829
0.010075628
0.010076717
0.010107596
0.045323631
0.020495255
0.021030299
0.015970216
0.013671007
0.012487202
0.011740564
0.011315256
0.011012172
0.010814458
0.010666265
0.010557021
0.01047138
0.010404021
0.010349924
0.010306315
0.010270835
0.010241876
0.01021855
0.010199724
0.010184285
0.010171949
0.010162311
0.010154766
0.010149192
0.010145183
0.010142576
0.010141207
0.010140942
0.010141658
0.010143236
0.010145573
0.010148585
0.010152203
0.010156369
0.010161027
0.010166121
0.010171597
0.010177397
0.010183469
0.010189749
0.010196168
0.010202657
0.010209148
0.010215568
0.010221845
0.010227917
0.010233737
0.010239264
0.010244457
0.010249271
0.010253661
0.010257576
0.010260971
0.010263802
0.010266032
0.010267622
0.010268519
0.010268657
0.01026795
0.010266287
0.010263537
0.010259587
0.010254332
0.010247676
0.010239518
0.010229734
0.01021815
0.010204515
0.010188506
0.010169882
0.010148381
0.010123704
0.010104034
0.010089172
0.010077652
0.010069208
0.010066065
0.010072093
0.010102265
0.041495224
0.019661535
0.019701582
0.015407244
0.013318156
0.01226033
0.011571923
0.011188634
0.010908861
0.010729366
0.010592353
0.010492326
0.010413585
0.010352
0.010302701
0.010263201
0.010231306
0.010205422
0.010184805
0.010168488
0.010155306
0.010144984
0.010137247
0.010131433
0.01012749
0.01012501
0.010123833
0.010123804
0.010124793
0.010126685
0.010129364
0.010132728
0.010136693
0.010141188
0.010146153
0.010151531
0.010157269
0.010163311
0.010169601
0.010176085
0.010182705
0.010189392
0.01019608
0.010202703
0.010209193
0.01021548
0.010221505
0.010227223
0.010232597
0.010237591
0.010242167
0.010246285
0.0102499
0.010252972
0.010255463
0.010257339
0.010258565
0.010259097
0.010258873
0.010257812
0.010255813
0.010252756
0.010248535
0.010243051
0.01023621
0.010227912
0.010218024
0.010206358
0.010192677
0.010176689
0.010158196
0.010137148
0.010113425
0.010094789
0.010080831
0.010070195
0.010062129
0.010057883
0.010065915
0.010087058
0.039247872
0.019099507
0.018552237
0.014903451
0.012998742
0.012054976
0.011417532
0.011072967
0.010814037
0.010651067
0.010524735
0.010433231
0.010361076
0.010304954
0.01026024
0.01022467
0.010196234
0.010173328
0.010155326
0.010141447
0.01013048
0.010122122
0.010116253
0.01011214
0.010109797
0.01010882
0.01010905
0.010110337
0.010112554
0.010115591
0.010119337
0.01012369
0.010128563
0.010133883
0.010139589
0.010145622
0.010151929
0.010158455
0.010165145
0.010171943
0.010178797
0.010185641
0.010192411
0.010199045
0.010205481
0.010211653
0.010217505
0.010222994
0.010228088
0.010232758
0.010236972
0.010240697
0.010243895
0.010246529
0.010248568
0.010249981
0.010250741
0.010250808
0.010250127
0.010248625
0.010246207
0.010242767
0.010238204
0.010232426
0.010225336
0.01021683
0.010206762
0.010194933
0.010181116
0.010165069
0.010146626
0.010125928
0.010103028
0.010085455
0.010072463
0.010062741
0.01005497
0.010050434
0.01005909
0.010074604
0.0359257
0.018781829
0.0175627
0.014436503
0.012701476
0.011860921
0.011272788
0.010963962
0.010725539
0.010578049
0.01046219
0.010378818
0.010313111
0.010262297
0.010222075
0.010190348
0.010165324
0.010145372
0.010129953
0.010118484
0.010109735
0.010103341
0.010099335
0.010096941
0.010096187
0.010096714
0.010098349
0.010100949
0.010104386
0.010108553
0.010113343
0.010118653
0.010124394
0.010130489
0.010136876
0.010143495
0.010150291
0.010157211
0.0101642
0.010171205
0.010178176
0.010185054
0.010191777
0.010198288
0.010204533
0.01021045
0.010215989
0.010221111
0.010225788
0.010229999
0.010233719
0.010236922
0.010239576
0.010241651
0.010243119
0.010243957
0.01024414
0.010243638
0.010242402
0.010240363
0.010237437
0.010233529
0.010228546
0.010222398
0.010214987
0.010206195
0.010195862
0.010183778
0.010169735
0.010153544
0.010135069
0.010114608
0.010092652
0.010076187
0.010064202
0.010055387
0.010047959
0.010043455
0.01005152
0.010061447
0.032772155
0.018708694
0.016819157
0.014008574
0.012427949
0.011680431
0.011139032
0.010862972
0.010644278
0.010511048
0.010405344
0.010329645
0.010270176
0.010224476
0.010188615
0.010160622
0.010138937
0.010121903
0.01010903
0.010099937
0.010093403
0.010088995
0.010086825
0.010086208
0.010086995
0.010089021
0.010092055
0.010095953
0.010100588
0.010105855
0.010111647
0.01011786
0.010124403
0.010131197
0.010138177
0.01014528
0.010152454
0.010159645
0.010166803
0.010173876
0.010180818
0.010187577
0.010194098
0.01020033
0.010206225
0.010211732
0.010216805
0.01022141
0.010225526
0.010229138
0.010232229
0.010234781
0.010236768
0.010238167
0.010238954
0.01023911
0.010238618
0.010237451
0.01023557
0.010232912
0.010229402
0.010224952
0.010219481
0.010212899
0.010205099
0.010195949
0.010185274
0.010172861
0.010158517
0.010142122
0.010123563
0.010103211
0.010082364
0.01006705
0.010056093
0.010048175
0.010041213
0.010036824
0.010043673
0.010049447
0.03075995
0.018805654
0.016293626
0.013616259
0.012175953
0.011512838
0.011016031
0.010769851
0.010570153
0.010450002
0.01035411
0.010285683
0.01023226
0.010191524
0.01015993
0.010135598
0.010117216
0.010103098
0.010092772
0.010086037
0.010081721
0.010079432
0.010079005
0.010080402
0.010082537
0.010086057
0.010090479
0.010095655
0.010101456
0.010107775
0.010114506
0.010121546
0.010128801
0.010136188
0.010143641
0.010151098
0.010158505
0.010165814
0.010172978
0.01017995
0.010186689
0.010193152
0.010199294
0.01020507
0.010210442
0.010215369
0.010219813
0.010223745
0.010227151
0.010230024
0.010232352
0.010234126
0.010235328
0.010235939
0.010235941
0.010235317
0.010234057
0.010232141
0.010229534
0.010226184
0.01022202
0.010216967
0.010210945
0.010203865
0.01019561
0.010186031
0.010174944
0.010162139
0.010147442
0.010130796
0.010112132
0.010091747
0.010072303
0.010058174
0.010048245
0.010041206
0.010034827
0.010030595
0.010035915
0.010038219
0.028897476
0.018987819
0.015868622
0.013257132
0.011944031
0.011357902
0.010903222
0.010684455
0.010502833
0.010394793
0.01030841
0.010246964
0.010199451
0.010163591
0.01013622
0.010115521
0.01010043
0.010089259
0.010081517
0.010077106
0.010074973
0.010075289
0.010076226
0.010079078
0.010083187
0.010088184
0.010093966
0.010100378
0.010107286
0.010114581
0.010122157
0.010129911
0.010137747
0.010145581
0.010153347
0.010160984
0.010168442
0.010175676
0.010182646
0.010189314
0.010195647
0.010201612
0.010207176
0.010212303
0.010216966
0.010221134
0.01022478
0.010227882
0.010230431
0.010232426
0.010233866
0.010234745
0.010235052
0.010234775
0.010233898
0.01023241
0.010230302
0.010227562
0.010224163
0.010220059
0.010215187
0.010209474
0.010202847
0.010195208
0.010186434
0.010176362
0.010164804
0.010151563
0.010136481
0.010119547
0.010100796
0.010080296
0.010062555
0.010049648
0.010040736
0.010034552
0.010028868
0.01002482
0.010028445
0.010027863
0.026696848
0.019173686
0.015378799
0.012927999
0.011730544
0.011214817
0.010799935
0.010606041
0.010442354
0.010345648
0.010268475
0.010213788
0.010172067
0.010141026
0.010117857
0.010100788
0.01008897
0.010080804
0.010075716
0.010073443
0.010072902
0.010075577
0.010079076
0.010083706
0.010089332
0.010095782
0.01010287
0.010110441
0.010118359
0.01012651
0.01013479
0.010143095
0.010151331
0.010159417
0.010167285
0.010174882
0.010182161
0.010189086
0.010195627
0.010201757
0.010207454
0.010212698
0.010217468
0.010221741
0.010225502
0.010228733
0.010231415
0.010233535
0.010235088
0.01023608
0.010236515
0.010236395
0.010235713
0.010234462
0.010232629
0.010230206
0.010227187
0.010223564
0.010219319
0.010214412
0.010208786
0.01020237
0.010195087
0.010186834
0.010177479
0.010166859
0.010154789
0.010141086
0.010125606
0.010108354
0.01008955
0.010069319
0.010053215
0.010041562
0.01003365
0.010028283
0.010023371
0.010019551
0.010021408
0.010017618
0.025073136
0.019344694
0.014709287
0.012626112
0.011535412
0.01108401
0.010706998
0.010535655
0.010389284
0.010303018
0.010234733
0.010186619
0.010150581
0.010124313
0.010105337
0.010091919
0.010083263
0.010078235
0.010075893
0.010074185
0.010078895
0.010082608
0.010087872
0.010094216
0.010101402
0.010109225
0.010117515
0.010126117
0.010134891
0.010143719
0.010152499
0.010161132
0.010169527
0.010177607
0.010185311
0.010192593
0.010199418
0.010205761
0.010211604
0.010216935
0.010221745
0.010226031
0.010229785
0.010233
0.010235671
0.010237793
0.010239357
0.010240356
0.010240792
0.010240673
0.010240008
0.010238803
0.010237057
0.010234765
0.010231918
0.010228507
0.01022453
0.010219983
0.010214853
0.010209109
0.010202695
0.010195538
0.010187554
0.010178637
0.010168652
0.010157444
0.010144837
0.010130662
0.01011479
0.010097202
0.01007831
0.010058869
0.010044361
0.010033978
0.010027049
0.010022443
0.010018331
0.010014776
0.010014928
0.010010272
0.023569254
0.019485514
0.014171428
0.012349362
0.011359148
0.010965839
0.010624922
0.010473986
0.010343803
0.010267299
0.010207606
0.010165941
0.010135505
0.010113993
0.010099211
0.010089524
0.010083517
0.01008211
0.010082796
0.010085969
0.010089991
0.010096043
0.010103168
0.010111152
0.010119774
0.010128833
0.010138157
0.010147589
0.010156988
0.010166239
0.010175238
0.010183899
0.010192139
0.01019989
0.010207105
0.010213748
0.010219801
0.010225253
0.010230105
0.01023436
0.010238028
0.01024112
0.010243645
0.010245608
0.010247018
0.01024788
0.010248194
0.010247959
0.01024718
0.010245866
0.01024403
0.01024168
0.010238817
0.010235439
0.010231539
0.010227108
0.010222145
0.01021665
0.010210613
0.01020401
0.010196783
0.010188855
0.010180135
0.010170514
0.010159863
0.010148043
0.010134896
0.010120253
0.010104002
0.010086098
0.010066992
0.010049032
0.010036053
0.010026936
0.010020973
0.010017064
0.010013725
0.010010587
0.0100094
0.010004058
0.0222073
0.019613584
0.013705539
0.012097938
0.011201668
0.010859944
0.010553502
0.010420765
0.010306243
0.010238968
0.010187594
0.01015231
0.010127427
0.010110684
0.010100104
0.010094319
0.010092359
0.010093163
0.010096482
0.010101683
0.010108585
0.010116535
0.010125393
0.010134873
0.01014475
0.010154821
0.010164917
0.010174882
0.01018458
0.0101939
0.010202749
0.010211054
0.010218749
0.010225785
0.01023213
0.010237769
0.010242703
0.010246942
0.010250504
0.010253412
0.010255694
0.010257375
0.01025848
0.010259027
0.010259035
0.010258517
0.010257481
0.01025593
0.01025387
0.010251309
0.01024826
0.01024473
0.010240724
0.010236239
0.010231268
0.010225807
0.01021985
0.010213398
0.010206448
0.010198973
0.010190919
0.010182199
0.010172718
0.010162368
0.010151033
0.010138594
0.010124913
0.010109819
0.0100932
0.010075079
0.010055737
0.010039858
0.010028331
0.010020444
0.010015436
0.010012171
0.010009522
0.010006976
0.010004999
0.0099993574
0.020983721
0.019698845
0.013276975
0.011871829
0.011062537
0.01076634
0.010492872
0.010376556
0.010276953
0.01021855
0.010175279
0.010146366
0.010127031
0.010115094
0.010108762
0.010106723
0.01010804
0.010112068
0.01011815
0.010125849
0.01013473
0.010144526
0.010154916
0.01016564
0.010176473
0.010187212
0.010197695
0.010207775
0.010217328
0.010226259
0.010234493
0.010241977
0.010248672
0.010254555
0.010259618
0.010263872
0.010267339
0.01027005
0.010272044
0.010273363
0.010274048
0.01027414
0.010273676
0.010272685
0.010271192
0.010269216
0.010266769
0.010263858
0.010260487
0.010256659
0.010252385
0.010247671
0.01024252
0.01023693
0.010230896
0.01022441
0.010217469
0.010210072
0.010202213
0.010193868
0.010184979
0.010175457
0.010165203
0.010154116
0.010142097
0.010129044
0.010114841
0.010099326
0.010082342
0.010064126
0.010045504
0.010031379
0.010021223
0.010014495
0.010010425
0.010007787
0.010005695
0.010003878
0.010001796
0.009996246
0.019881493
0.019703628
0.012888687
0.011669041
0.01094099
0.010685059
0.010443145
0.010341714
0.010256406
0.0102067
0.010171396
0.010148891
0.01013514
0.010128065
0.010126032
0.010127826
0.010132557
0.010139545
0.010148241
0.010158186
0.010168999
0.010180334
0.010191913
0.010203478
0.010214812
0.010225723
0.01023606
0.0102457
0.010254544
0.010262524
0.010269594
0.010275733
0.010280937
0.010285214
0.010288588
0.010291093
0.010292776
0.010293689
0.010293887
0.010293427
0.010292363
0.010290746
0.010288619
0.01028602
0.010282977
0.010279511
0.010275637
0.010271361
0.010266683
0.010261602
0.010256122
0.010250246
0.010243974
0.010237304
0.010230231
0.010222749
0.01021485
0.01020653
0.01019778
0.010188575
0.010178856
0.010168534
0.010157511
0.010145695
0.010133005
0.010119352
0.010104636
0.010088738
0.010071454
0.010053041
0.010036165
0.010023653
0.010014752
0.010009075
0.010005914
0.010003926
0.01000226
0.010001187
0.0099998332
0.0099947326
0.018888411
0.019477195
0.012538215
0.011488521
0.010836826
0.010616334
0.010404632
0.010316907
0.010245331
0.010204325
0.010176912
0.010160891
0.010152779
0.010150613
0.010152888
0.01015846
0.010166484
0.010176309
0.010187393
0.010199279
0.010211588
0.010223996
0.010236224
0.010248031
0.01025922
0.010269626
0.010279131
0.010287647
0.010295118
0.010301515
0.010306834
0.010311095
0.010314331
0.010316585
0.010317911
0.010318367
0.01031802
0.010316937
0.010315187
0.010312834
0.01030994
0.01030656
0.010302741
0.010298521
0.010293932
0.010288993
0.010283716
0.010278107
0.01027216
0.010265871
0.010259231
0.01025224
0.010244893
0.010237188
0.010229118
0.010220679
0.010211861
0.010202654
0.010193044
0.010182999
0.010172465
0.010161359
0.010149585
0.01013706
0.010123721
0.010109491
0.010094269
0.010077991
0.010060607
0.010042305
0.010027717
0.010016703
0.010008942
0.010004191
0.010001864
0.010000577
0.0099993099
0.0099988092
0.0099988205
0.0099941547
0.017989594
0.018608963
0.012223008
0.011329563
0.010750305
0.010560579
0.01037789
0.010303105
0.010244803
0.010212606
0.010193068
0.010183597
0.010181144
0.010183862
0.010190351
0.010199533
0.010210589
0.010222883
0.010235887
0.010249155
0.010262319
0.010275069
0.010287157
0.010298379
0.010308579
0.010317646
0.01032551
0.01033214
0.010337535
0.010341718
0.010344732
0.010346637
0.010347504
0.010347407
0.010346424
0.010344631
0.010342108
0.010338931
0.010335171
0.010330898
0.010326171
0.010321045
0.010315567
0.010309771
0.010303687
0.010297333
0.010290717
0.010283838
0.010276689
0.010269257
0.010261526
0.010253486
0.010245129
0.010236449
0.010227439
0.010218094
0.010208405
0.010198357
0.010187925
0.010177075
0.010165754
0.010153891
0.010141398
0.010128194
0.010114226
0.010099444
0.010083749
0.010067059
0.010049679
0.010032833
0.010020116
0.010010531
0.010003817
0.0099998717
0.0099982571
0.0099976631
0.0099969209
0.0099969648
0.0099979526
0.0099951895
0.017177265
0.017251133
0.011945306
0.011191924
0.010680512
0.01051874
0.010363986
0.010301735
0.010256282
0.010233027
0.010221324
0.010218388
0.010221503
0.010228929
0.010239347
0.01025173
0.010265282
0.010279382
0.010293521
0.010307278
0.010320323
0.010332394
0.010343301
0.010352908
0.010361132
0.010367936
0.010373321
0.010377321
0.010379997
0.010381424
0.010381689
0.010380888
0.010379119
0.010376477
0.010373055
0.010368938
0.010364209
0.010358943
0.010353209
0.010347071
0.010340584
0.010333796
0.010326747
0.010319468
0.010311983
0.010304305
0.010296439
0.010288379
0.010280113
0.010271621
0.010262882
0.010253875
0.010244585
0.010235001
0.010225118
0.010214929
0.010204425
0.010193586
0.010182382
0.010170773
0.010158706
0.010146122
0.010132947
0.010119102
0.01010453
0.010089206
0.010073094
0.0100561
0.010038572
0.010024375
0.010013354
0.010005105
0.009999378
0.0099961539
0.0099951121
0.0099951106
0.0099949683
0.0099956185
0.0099975656
0.0099962082
0.016447314
0.016395669
0.011711037
0.011076014
0.010628362
0.010492219
0.010364429
0.010314491
0.010281475
0.01026723
0.010263241
0.010266674
0.010275057
0.010286741
0.010300468
0.010315259
0.010330346
0.010345147
0.01035921
0.01037218
0.01038381
0.010393929
0.010402443
0.010409318
0.010414564
0.010418229
0.010420394
0.010421158
0.010420633
0.010418939
0.010416193
0.010412513
0.010408011
0.010402789
0.010396941
0.010390553
0.010383699
0.010376448
0.01036886
0.010360986
0.010352872
0.010344556
0.01033607
0.010327437
0.010318674
0.010309788
0.010300781
0.010291642
0.010282356
0.010272898
0.01026324
0.010253353
0.010243216
0.010232811
0.010222129
0.010211163
0.010199905
0.010188333
0.010176415
0.010164102
0.010151341
0.01013808
0.010124262
0.010109818
0.010094681
0.010078818
0.010062278
0.010045315
0.010029092
0.010016819
0.010007382
0.010000375
0.0099955946
0.0099930448
0.0099924519
0.0099928657
0.0099932912
0.0099945182
0.009996993
0.0099975398
0.015791767
0.015396712
0.011511106
0.010982366
0.010594805
0.010482726
0.010380875
0.010343296
0.010322313
0.010317014
0.010320425
0.01032974
0.010342677
0.010357665
0.010373522
0.01038934
0.010404438
0.010418331
0.010430688
0.010441284
0.010450003
0.010456811
0.010461736
0.010464855
0.010466279
0.010466138
0.010464574
0.010461737
0.010457773
0.010452823
0.010447019
0.010440482
0.010433321
0.010425634
0.010417505
0.010409008
0.010400206
0.010391152
0.010381891
0.010372463
0.0103629
0.010353228
0.010343467
0.010333631
0.010323731
0.010313767
0.010303737
0.010293629
0.010283423
0.010273092
0.010262604
0.010251927
0.010241031
0.010229892
0.010218494
0.010206826
0.010194879
0.010182635
0.01017006
0.010157106
0.010143713
0.010129826
0.010115401
0.010100392
0.010084745
0.010068415
0.01005147
0.010034483
0.010020825
0.010010192
0.010002152
0.0099962818
0.009992409
0.0099905089
0.0099902821
0.0099909285
0.0099917783
0.0099936495
0.0099965602
0.0099982953
0.015205051
0.014722749
0.011348011
0.010911702
0.010580886
0.010492486
0.010415538
0.010390527
0.010381048
0.010384239
0.01039421
0.010408252
0.010424268
0.010440815
0.010456852
0.010471643
0.010484683
0.010495671
0.010504466
0.01051103
0.010515411
0.010517719
0.010518105
0.010516747
0.01051383
0.010509541
0.010504058
0.01049755
0.010490175
0.010482072
0.010473367
0.010464168
0.010454569
0.010444652
0.010434484
0.010424121
0.010413608
0.010402983
0.010392274
0.010381505
0.010370693
0.010359853
0.010348992
0.010338117
0.010327228
0.010316322
0.010305391
0.010294421
0.010283392
0.010272278
0.010261046
0.010249663
0.010238093
0.010226305
0.010214276
0.010201987
0.010189425
0.010176571
0.010163398
0.010149861
0.010135899
0.01012145
0.010106465
0.010090917
0.010074786
0.010058074
0.010041063
0.010025517
0.010013625
0.010004466
0.0099976298
0.0099927737
0.0099897457
0.0099884618
0.0099885562
0.0099893391
0.0099904931
0.0099929867
0.0099963119
0.0099989288
0.014681583
0.013973186
0.011218402
0.010866681
0.010588409
0.010524871
0.010471494
0.010458922
0.010459786
0.010470059
0.010484699
0.010501213
0.010517784
0.010533229
0.010546791
0.010558017
0.010566683
0.010572738
0.010576268
0.010577424
0.010576412
0.01057346
0.010568807
0.010562686
0.010555321
0.010546913
0.010537646
0.01052768
0.010517157
0.010506197
0.010494904
0.010483364
0.010471647
0.010459811
0.010447903
0.010435959
0.010424006
0.010412064
0.010400144
0.010388256
0.010376403
0.010364586
0.010352804
0.010341051
0.010329322
0.010317608
0.010305896
0.010294171
0.010282414
0.0102706
0.010258702
0.010246685
0.010234516
0.01022216
0.010209583
0.010196757
0.010183658
0.010170263
0.010156548
0.010142478
0.010128004
0.01011306
0.010097583
0.010081539
0.010064959
0.010047989
0.010031211
0.010017934
0.010007516
0.0099996047
0.009993791
0.0099898058
0.0099875182
0.0099867806
0.0099871633
0.0099880652
0.0099894629
0.0099924428
0.0099962011
0.0099993392
0.014221152
0.013395626
0.01112702
0.010852073
0.010621214
0.010583965
0.010551866
0.010550323
0.010558965
0.010573357
0.01058933
0.010604823
0.010618489
0.010629583
0.010637756
0.010642926
0.010645182
0.010644728
0.010641842
0.010636822
0.01062997
0.010621574
0.010611902
0.010601195
0.010589664
0.010577495
0.010564843
0.01055184
0.010538596
0.0105252
0.010511725
0.010498231
0.01048476
0.010471348
0.010458019
0.010444789
0.010431668
0.01041866
0.010405762
0.01039297
0.010380275
0.010367666
0.010355133
0.01034266
0.010330235
0.010317843
0.010305467
0.010293092
0.010280698
0.010268265
0.010255769
0.010243183
0.010230477
0.010217615
0.01020456
0.010191275
0.01017772
0.010163862
0.01014967
0.010135115
0.010120166
0.010104779
0.010088891
0.010072441
0.010055446
0.010038346
0.010023268
0.010011543
0.010002435
0.0099955648
0.0099906042
0.0099873393
0.0099856551
0.0099853595
0.009986005
0.0099870816
0.0099887302
0.0099919868
0.009996046
0.0099994276
0.013829254
0.012936524
0.011076321
0.010873018
0.010705438
0.010672811
0.010657698
0.010663494
0.010675369
0.010689215
0.010701955
0.010712199
0.010719254
0.010722916
0.010723275
0.010720593
0.010715217
0.010707522
0.010697889
0.010686673
0.010674192
0.010660726
0.010646515
0.010631763
0.010616638
0.010601281
0.010585805
0.010570301
0.010554841
0.010539479
0.010524258
0.010509208
0.010494349
0.010479694
0.010465248
0.01045101
0.010436974
0.010423131
0.010409468
0.010395967
0.010382612
0.01036938
0.010356253
0.010343207
0.010330223
0.01031728
0.010304357
0.010291437
0.0102785
0.010265529
0.010252505
0.010239407
0.010226211
0.010212888
0.010199401
0.01018571
0.010171768
0.010157528
0.010142943
0.010127975
0.010112593
0.010096776
0.01008051
0.010063795
0.010046719
0.010029906
0.010016754
0.010006316
0.0099982925
0.009992287
0.0099880274
0.009985348
0.0099841385
0.0099841756
0.0099850357
0.0099863319
0.0099882976
0.0099917656
0.0099959851
0.0099995222
0.013515186
0.012567818
0.0110704
0.010929306
0.010808902
0.010790645
0.010785221
0.010792148
0.010801038
0.010808753
0.01081346
0.010814589
0.010812112
0.010806305
0.010797587
0.010786426
0.010773282
0.010758577
0.01074268
0.010725913
0.010708538
0.010690776
0.010672802
0.010654756
0.01063675
0.01061887
0.010601183
0.010583736
0.010566566
0.010549696
0.01053314
0.010516905
0.01050099
0.01048539
0.010470096
0.010455093
0.010440363
0.010425886
0.010411641
0.010397601
0.010383742
0.010370035
0.010356453
0.010342968
0.010329552
0.01031618
0.010302828
0.010289472
0.010276094
0.010262676
0.010249202
0.010235656
0.010222017
0.010208265
0.010194369
0.010180294
0.010165996
0.010151425
0.010136526
0.010121245
0.010105531
0.010089345
0.010072674
0.010055591
0.01003851
0.010023332
0.010011479
0.010002155
0.0099950125
0.0099897144
0.0099860258
0.0099838185
0.0099829832
0.0099832695
0.0099842768
0.0099857546
0.0099880105
0.0099916501
0.0099959647
0.0099995713
0.013295959
0.01230107
0.01111207
0.011027611
0.010942886
0.010928825
0.010924195
0.010924863
0.010924382
0.010920999
0.010914076
0.010903751
0.010890461
0.010874738
0.010857111
0.010838063
0.010818008
0.010797292
0.010776192
0.010754931
0.010733682
0.010712579
0.010691721
0.010671182
0.010651017
0.010631261
0.010611938
0.010593062
0.010574637
0.010556661
0.010539126
0.010522022
0.010505331
0.010489037
0.010473116
0.010457547
0.010442302
0.010427355
0.010412676
0.010398236
0.010384002
0.010369942
0.010356024
0.010342214
0.01032848
0.010314793
0.010301125
0.010287448
0.01027374
0.010259982
0.010246155
0.010232244
0.01021823
0.010204095
0.010189815
0.010175362
0.010160703
0.010145799
0.010130602
0.010115063
0.010099126
0.010082741
0.010065884
0.010048661
0.010031739
0.010018185
0.010007369
0.0099989489
0.0099925281
0.0099878122
0.0099845866
0.0099827345
0.0099821524
0.009982606
0.0099837205
0.0099853334
0.0099878059
0.0099915385
0.0099958835
0.0099994383
0.013169957
0.012135115
0.011208202
0.011156677
0.011091821
0.011073794
0.011060159
0.011047864
0.011033331
0.011016083
0.01099626
0.010974341
0.010950863
0.010926326
0.010901152
0.01087568
0.010850179
0.010824849
0.010799842
0.010775267
0.010751201
0.010727695
0.010704782
0.010682478
0.01066079
0.010639715
0.010619244
0.010599363
0.010580054
0.010561297
0.010543067
0.010525342
0.010508095
0.010491297
0.01047492
0.010458935
0.01044331
0.010428012
0.010413011
0.01039827
0.010383756
0.010369434
0.010355269
0.010341224
0.010327265
0.010313359
0.010299474
0.010285582
0.010271656
0.010257673
0.01024361
0.010229447
0.010215162
0.010200734
0.01018614
0.010171353
0.010156347
0.010141092
0.010125557
0.010109708
0.010093509
0.010076927
0.010059967
0.01004284
0.01002669
0.010014251
0.010004294
0.0099965876
0.0099907536
0.0099865228
0.0099836826
0.0099820967
0.0099816092
0.0099820978
0.0099833216
0.0099849947
0.0099875687
0.0099912835
0.0099956252
0.0099992317
0.013106459
0.012064723
0.011368273
0.01129996
0.01123913
0.011206698
0.011177176
0.011148385
0.011118639
0.01108796
0.011056625
0.011025005
0.010993432
0.010962176
0.010931435
0.010901352
0.010872023
0.010843507
0.010815838
0.010789028
0.010763076
0.01073797
0.010713691
0.010690215
0.010667514
0.010645558
0.010624315
0.010603754
0.010583842
0.010564545
0.010545831
0.010527666
0.010510018
0.010492853
0.010476138
0.01045984
0.010443924
0.010428356
0.010413102
0.010398125
0.010383391
0.010368862
0.010354502
0.010340277
0.01032615
0.010312087
0.010298057
0.010284029
0.010269974
0.010255867
0.01024168
0.01022739
0.010212968
0.010198387
0.010183617
0.010168627
0.010153386
0.010137863
0.010122028
0.010105855
0.010089319
0.010072417
0.010055225
0.010038171
0.010023181
0.010011445
0.010002138
0.0099949554
0.0099895614
0.0099857095
0.0099831965
0.00998182
0.0099813645
0.0099816876
0.0099831077
0.0099847973
0.0099873563
0.0099908663
0.0099949921
0.0099987335
0.013117636
0.012025173
0.011523503
0.011433526
0.011360929
0.011309901
0.01126314
0.011219209
0.011176815
0.011135781
0.011096058
0.011057673
0.011020647
0.010984984
0.01095067
0.010917674
0.010885958
0.010855474
0.010826171
0.010797995
0.010770894
0.010744813
0.0107197
0.010695505
0.010672178
0.010649672
0.010627943
0.010606947
0.010586641
0.010566987
0.010547944
0.010529475
0.010511543
0.010494112
0.010477146
0.01046061
0.010444467
0.010428684
0.010413223
0.010398051
0.01038313
0.010368426
0.010353901
0.010339522
0.010325253
0.010311063
0.01029692
0.010282793
0.010268657
0.010254483
0.010240246
0.010225917
0.010211468
0.010196867
0.01018208
0.010167071
0.010151802
0.010136236
0.010120333
0.010104056
0.010087373
0.010070274
0.010052864
0.010035706
0.01002128
0.010009917
0.010000947
0.0099940458
0.0099888902
0.0099852389
0.0099828895
0.009981652
0.009981271
0.0099816497
0.0099830697
0.0099848625
0.009987424
0.0099907444
0.0099946071
0.0099983895
0.01321176
0.012051571
0.011640341
0.011530534
0.011442414
0.011375351
0.01131561
0.011261297
0.011210777
0.011163399
0.01111872
0.011076446
0.011036349
0.010998244
0.010961973
0.010927396
0.010894392
0.01086285
0.01083267
0.010803761
0.010776041
0.010749433
0.010723866
0.010699276
0.010675602
0.010652787
0.010630778
0.010609527
0.010588986
0.010569111
0.010549861
0.010531194
0.010513072
0.010495457
0.010478312
0.010461601
0.010445287
0.010429335
0.010413709
0.010398373
0.010383293
0.010368432
0.010353757
0.010339232
0.010324826
0.010310507
0.010296245
0.010282012
0.010267783
0.010253533
0.010239235
0.010224864
0.010210391
0.010195788
0.010181021
0.010166056
0.010150859
0.010135394
0.010119624
0.010103513
0.010087028
0.010070154
0.010052974
0.010035978
0.010021351
0.010009922
0.010000905
0.0099939844
0.0099888216
0.00998517
0.0099828324
0.0099816225
0.0099812558
0.0099815579
0.0099831435
0.009984968
0.0099875324
0.0099907016
0.0099943563
0.009998172
0.013337441
0.01210814
0.011701908
0.011579442
0.01148111
0.011405663
0.011339801
0.011280963
0.011227094
0.011177208
0.011130628
0.011086898
0.011045671
0.011006677
0.010969698
0.010934549
0.010901075
0.01086914
0.010838626
0.010809429
0.010781454
0.010754617
0.010728842
0.010704058
0.010680201
0.010657211
0.010635034
0.010613618
0.010592915
0.010572879
0.010553468
0.01053464
0.010516357
0.010498578
0.010481269
0.01046439
0.010447908
0.010431786
0.010415987
0.010400478
0.010385223
0.010370187
0.010355335
0.010340634
0.010326052
0.010311558
0.010297123
0.01028272
0.010268324
0.010253908
0.010239448
0.010224919
0.010210291
0.010195534
0.010180618
0.010165507
0.01015017
0.01013457
0.010118674
0.010102447
0.010085857
0.010068895
0.010051662
0.010034736
0.010020656
0.010009488
0.010000665
0.0099938666
0.0099887862
0.0099851842
0.009982862
0.0099816412
0.0099812781
0.0099817814
0.0099831096
0.009985015
0.0099875584
0.009990652
0.0099941991
0.0099980559
66.677671
363.09393
122.11794
14.73312
0.40695712
0.021520647
0.020203821
0.019891981
0.019611976
0.018547038
0.017202212
0.016011941
0.015108051
0.014532709
0.01412463
0.013737403
0.013359443
0.013024745
0.012744556
0.012510526
0.012311652
0.012140106
0.011990701
0.011859666
0.011743985
0.011641164
0.011549192
0.011466467
0.011391733
0.011324
0.011262449
0.011206363
0.011155119
0.011108192
0.011065167
0.011025709
0.010989533
0.010956384
0.010926028
0.010898254
0.010872876
0.01084971
0.010828577
0.010809302
0.010791724
0.01077568
0.010761007
0.010747553
0.010735186
0.01072379
0.010713249
0.010703452
0.010694283