/*--------------------------------*- C++ -*----------------------------------*\
  =========                 |
  \\      /  F ield         | OpenFOAM: The Open Source CFD Toolbox
   \\    /   O peration     | Website:  https://openfoam.org
    \\  /    A nd           | Version:  12
     \\/     M anipulation  |
\*---------------------------------------------------------------------------*/
FoamFile
{
    format      ascii;
    class       volScalarField;
    location    "0.139";
    object      p;
}
// * * * * * * * * * * * * * * * * * * * * * * * * * * * * * * * * * * * * * //

dimensions      [1 -1 -2 0 0 0 0];

internalField   nonuniform List<scalar> 
16000
(
89683.777
89809.991
89821.887
89956.543
89982.611
90110.251
90160.641
90277.572
90351.393
90462.612
90554.742
90665.841
90772.069
90887.466
91004.745
91127.479
91254.276
91385.742
91521.751
91662.393
91807.676
91957.605
92112.162
92271.305
92434.966
92603.051
92775.433
92951.956
93132.43
93316.632
93504.304
93695.153
93888.854
94085.046
94283.337
94483.309
94684.515
94886.485
95088.734
95290.761
95492.057
95692.113
95890.42
96086.48
96279.811
96469.948
96656.457
96838.928
97016.991
97190.308
97358.581
97521.554
97679.01
97830.772
97976.705
98116.711
98250.729
98378.732
98500.725
98616.742
98726.847
98831.121
98929.671
99022.621
99110.11
99192.296
99269.347
99341.446
99408.787
99471.572
99530.006
99584.288
99634.61
99681.198
99724.292
99764.328
99802.046
99827.791
99893.244
99843.997
89311.851
89455.006
89464.356
89611.139
89638.821
89777.438
89830.224
89958.493
90036.136
90157.509
90256.029
90376.079
90490.618
90614.872
90741.401
90873.605
91010.282
91151.918
91298.434
91449.884
91606.264
91767.554
91933.705
92104.643
92280.26
92460.418
92644.944
92833.63
93026.233
93222.471
93422.027
93624.544
93829.634
94036.871
94245.801
94455.94
94666.785
94877.81
95088.479
95298.248
95506.576
95712.925
95916.771
96117.61
96314.963
96508.384
96697.458
96881.814
97061.12
97235.088
97403.474
97566.081
97722.75
97873.369
98017.863
98156.194
98288.358
98414.381
98534.317
98648.246
98756.266
98858.495
98955.065
99046.123
99131.826
99212.343
99287.85
99358.531
99424.574
99486.171
99543.518
99596.794
99646.17
99691.874
99734.187
99773.336
99808.512
99841.689
99886.193
99862.424
88971.298
89129.977
89139.09
89299.279
89327.01
89479.399
89533.85
89674.457
89756.955
89888.843
89995.131
90124.764
90248.877
90382.997
90519.974
90662.852
90810.639
90963.696
91121.958
91285.439
91454.106
91627.903
91806.742
91990.503
92179.035
92372.146
92569.611
92771.16
92976.487
93185.243
93397.04
93611.45
93828.009
94046.219
94265.555
94485.463
94705.377
94924.714
95142.89
95359.322
95573.439
95784.688
95992.54
96196.5
96396.109
96590.952
96780.659
96964.908
97143.429
97315.999
97482.447
97642.645
97796.515
97944.014
98085.142
98219.928
98348.433
98470.743
98586.964
98697.223
98801.66
98900.426
98993.681
99081.593
99164.336
99242.087
99315.028
99383.34
99447.206
99506.807
99562.323
99613.905
99661.71
99705.992
99746.953
99784.441
99818.574
99853.213
99885.676
99880.573
88665.985
88835.47
88845.638
89021.175
89048.353
89216.981
89273.63
89428.549
89516.84
89660.786
89776.331
89916.913
90052.233
90197.694
90346.649
90501.686
90662.021
90827.891
90999.235
91176.029
91358.209
91545.681
91738.316
91935.949
92138.373
92345.338
92556.55
92771.669
92990.31
93212.041
93436.388
93662.838
93890.839
94119.809
94349.141
94578.21
94806.38
95033.016
95257.489
95479.185
95697.517
95911.931
96121.912
96326.992
96526.754
96720.837
96908.936
97090.803
97266.248
97435.134
97597.378
97752.943
97901.835
98044.101
98179.818
98309.095
98432.059
98548.861
98659.661
98764.633
98863.96
98957.825
99046.414
99129.914
99208.513
99282.396
99351.745
99416.736
99477.54
99534.327
99587.251
99636.433
99682.032
99724.302
99763.263
99798.678
99831.818
99864.914
99890.085
99897.84
88399.022
88583.462
88590.33
88784.66
88810.776
88997.895
89056.755
89227.881
89323.296
89480.747
89607.367
89760.129
89908.213
90066.293
90228.499
90396.917
90570.975
90750.822
90936.398
91127.649
91324.478
91526.745
91734.27
91946.821
92164.121
92385.838
92611.59
92840.941
93073.405
93308.449
93545.493
93783.92
94023.079
94262.293
94500.869
94738.107
94973.309
95205.792
95434.897
95659.998
95880.51
96095.903
96305.7
96509.49
96706.924
96897.721
97081.669
97258.617
97428.477
97591.218
97746.862
97895.473
98037.158
98172.055
98300.33
98422.166
98537.765
98647.336
98751.096
98849.262
98942.054
99029.686
99112.364
99190.292
99263.664
99332.669
99397.486
99458.281
99515.212
99568.43
99618.059
99664.196
99707.006
99746.705
99783.104
99816.163
99847.938
99878.087
99897.947
99915.856
88175.386
88377.474
88382.247
88597.661
88622.663
88830.279
88891.431
89080.47
89184.247
89356.015
89495.006
89660.505
89822.306
89993.858
90170.276
90353.157
90542.107
90737.193
90938.33
91145.411
91358.274
91576.709
91800.448
92029.169
92262.488
92499.963
92741.096
92985.328
93232.049
93480.599
93730.277
93980.346
94230.046
94478.602
94725.237
94969.182
95209.692
95446.056
95677.605
95903.73
96123.881
96337.583
96544.432
96744.106
96936.358
97121.019
97297.996
97467.262
97628.852
97782.859
97929.42
98068.715
98200.953
98326.369
98445.215
98557.752
98664.248
98764.968
98860.178
98950.133
99035.084
99115.266
99190.902
99262.204
99329.371
99392.587
99452.022
99507.828
99560.148
99609.108
99654.8
99697.3
99736.787
99773.386
99806.73
99837.176
99867.096
99893.322
99908.856
99935.512
87995.799
88218.81
88220.788
88460.889
88484.876
88716.732
88781.097
88989.63
89101.805
89287.235
89439.507
89618.342
89795.184
89981.708
90174.019
90373.206
90578.962
90791.245
91009.902
91234.737
91465.494
91701.855
91943.438
92189.791
92440.4
92694.681
92951.988
93211.614
93472.801
93734.746
93996.609
94257.529
94516.636
94773.062
95025.959
95274.513
95517.955
95755.579
95986.746
96210.899
96427.569
96636.375
96837.032
97029.343
97213.202
97388.586
97555.546
97714.201
97864.731
98007.36
98142.354
98270.007
98390.633
98504.56
98612.119
98713.642
98809.453
98899.867
98985.185
99065.693
99141.662
99213.342
99280.962
99344.736
99404.857
99461.502
99514.824
99564.96
99612.029
99656.132
99697.326
99735.681
99771.375
99804.402
99834.287
99861.912
99889.494
99911.011
99922.845
99957.575
87854.326
88101.914
88099.573
88369.439
88390.304
88649.043
88716.551
88944.205
89067.996
89269.469
89438.669
89633.653
89828.553
90032.971
90243.973
90462.224
90687.451
90919.507
91158.149
91403.071
91653.892
91910.16
92171.341
92436.828
92705.936
92977.909
93251.925
93527.103
93802.518
94077.207
94350.192
94620.489
94887.129
95149.174
95405.736
95655.989
95899.189
96134.679
96361.903
96580.412
96789.867
96990.037
97180.798
97362.127
97534.092
97696.845
97850.608
97995.663
98132.339
98261.003
98382.043
98495.865
98602.88
98703.496
98798.113
98887.118
98970.882
99049.752
99124.053
99194.09
99260.14
99322.459
99381.272
99436.787
99489.184
99538.624
99585.241
99629.15
99670.448
99709.2
99745.434
99779.227
99810.737
99839.786
99865.906
99890.571
99915.347
99931.541
99940.304
99982.604
87748.903
88024.893
88018.131
88324.95
88339.883
88627.37
88700.183
88949.804
89090.413
89310.481
89500.314
89714.402
89930.457
90155.898
90388.623
90628.946
90876.563
91131.2
91392.485
91659.961
91933.085
92211.225
92493.656
92779.569
93068.073
93358.201
93648.926
93939.173
94227.835
94513.792
94795.932
95073.172
95344.476
95608.879
95865.502
96113.568
96352.416
96581.51
96800.445
97008.945
97206.863
97394.174
97570.966
97737.427
97893.833
98040.531
98177.927
98306.47
98426.641
98538.937
98643.86
98741.912
98833.583
98919.346
98999.65
99074.92
99145.552
99211.912
99274.333
99333.123
99388.556
99440.878
99490.305
99537.025
99581.202
99622.973
99662.448
99699.719
99734.853
99767.881
99798.812
99827.734
99854.749
99879.5
99901.667
99923.291
99944.782
99955.239
99961.839
100011.17
87682.153
87991.327
87981.459
88325.319
88339.412
88659.149
88743.37
89018.329
89178.959
89419.637
89633.768
89870.186
90110.686
90360.579
90618.356
90884.023
91157.17
91437.357
91724.028
92016.528
92314.093
92615.858
92920.853
93228.016
93536.205
93844.209
94150.774
94454.618
94754.459
95049.036
95337.139
95617.63
95889.467
96151.726
96403.616
96644.494
96873.873
97091.421
97296.965
97490.477
97672.068
97841.971
98000.527
98148.163
98285.378
98412.721
98530.78
98640.16
98741.476
98835.335
98922.334
99003.043
99078.007
99147.738
99212.714
99273.373
99330.119
99383.316
99433.291
99480.337
99524.715
99566.65
99606.335
99643.937
99679.592
99713.41
99745.474
99775.849
99804.571
99831.638
99857.05
99880.905
99903.207
99923.442
99941.6
99960.14
99977.813
99982.238
99987.692
100043.87
87660.742
88009.364
87995.529
88379.962
88397.968
88754.24
88853.531
89155.758
89342.123
89606.29
89848.979
90111.699
90380.418
90658.607
90945.118
91239.673
91541.687
91850.49
92165.28
92485.127
92808.977
93135.657
93463.888
93792.304
94119.473
94443.921
94764.158
95078.711
95386.154
95685.139
95974.424
96252.902
96519.622
96773.81
97014.879
97242.43
97456.257
97656.335
97842.804
98015.956
98176.213
98324.102
98460.235
98585.286
98699.97
98805.023
98901.191
98989.208
99069.79
99143.626
99211.367
99273.625
99330.97
99383.925
99432.967
99478.528
99520.996
99560.716
99597.993
99633.094
99666.251
99697.66
99727.485
99755.861
99782.894
99808.661
99833.219
99856.602
99878.813
99899.821
99919.636
99938.346
99955.814
99971.441
99985.673
100001.09
100014.39
100012.78
100018.3
100080.71
87693.493
88089.037
88071.279
88503.815
88526.787
88922.805
89041.679
89373.024
89590.913
89881.915
90157.561
90451.107
90752.281
91063.049
91382.38
91709.677
92044.078
92384.592
92730.063
93079.189
93430.533
93782.542
94133.57
94481.907
94825.816
95163.56
95493.45
95813.876
96123.347
96420.53
96704.276
96973.65
97227.942
97466.675
97689.61
97896.726
98088.21
98264.432
98425.919
98573.326
98707.406
98828.987
98938.94
99038.161
99127.55
99207.99
99280.341
99345.423
99404.011
99456.83
99504.552
99547.793
99587.112
99623.015
99655.955
99686.335
99714.508
99740.784
99765.43
99788.677
99810.718
99831.712
99851.788
99871.044
99889.55
99907.354
99924.481
99940.935
99956.686
99971.687
99985.961
99999.56
100012.18
100023.25
100033.77
100046.03
100054.46
100047.23
100054.07
100121.41
87781.482
88232.832
88211.736
88699.085
88730.504
89170.109
89316.169
89679.242
89935.807
90258.443
90572.21
90902.063
91240.76
91589.067
91945.821
92310.009
92680.351
93055.395
93433.513
93812.925
94191.73
94567.934
94939.489
95304.338
95660.46
96005.919
96338.914
96657.826
96961.261
97248.083
97517.436
97768.754
98001.762
98216.46
98413.101
98592.163
98754.313
98900.372
99031.275
99148.04
99251.734
99343.445
99424.257
99495.233
99557.397
99611.723
99659.127
99700.459
99736.505
99767.982
99795.539
99819.76
99841.167
99860.221
99877.328
99892.84
99907.062
99920.256
99932.64
99944.398
99955.681
99966.605
99977.256
99987.696
99997.959
100008.06
100017.99
100027.73
100037.22
100046.41
100055.33
100063.95
100071.82
100078.55
100085.68
100094.71
100097.9
100086.05
100095.41
100165.7
87929.839
88447.437
88423.634
88973.24
89019.47
89506.618
89689.187
90087.366
90390.432
90751.07
91109.061
91481.732
91863.916
92255.315
92654.357
93059.445
93468.712
93880.112
94291.429
94700.321
95104.363
95501.093
95888.075
96262.96
96623.55
96967.869
97294.211
97601.194
97887.785
98153.318
98397.491
98620.343
98822.229
99003.78
99165.851
99309.48
99435.839
99546.186
99641.83
99724.094
99794.288
99853.684
99903.499
99944.883
99978.911
100006.57
100028.78
100046.37
100060.06
100070.55
100078.4
100084.15
100088.26
100091.11
100093.05
100094.36
100095.31
100096.07
100096.83
100097.71
100098.82
100100.22
100101.96
100104.06
100106.53
100109.34
100112.47
100115.85
100119.4
100123.09
100126.95
100130.84
100134.17
100136.91
100141.05
100146.76
100144.49
100129.46
100142.7
100213.41
88145.198
88742.025
88717.416
89337.747
89406.051
89944.817
90175.203
90613.715
90972.325
91379.498
91789.234
92212.27
92644.49
93084.543
93530.193
93979.097
94428.66
94876.115
95318.566
95753.043
96176.579
96586.294
96979.481
97353.7
97706.855
98037.253
98343.654
98625.281
98881.819
99113.386
99320.492
99503.978
99664.961
99804.769
99924.875
100026.85
100112.3
100182.83
100240.04
100285.44
100320.46
100346.47
100364.72
100376.35
100382.41
100383.84
100381.49
100376.11
100368.35
100358.81
100347.97
100336.29
100324.13
100311.8
100299.58
100287.68
100276.28
100265.51
100255.5
100246.31
100238
100230.59
100224.09
100218.48
100213.74
100209.8
100206.62
100204.11
100202.18
100200.8
100200
100199.47
100198.61
100197.84
100199.37
100201.68
100193.87
100176.99
100195.75
100264.38
88433.875
89125.358
89102.815
89803.495
89905.245
90501.531
90794.463
91281.899
91706.62
92170.666
92640.485
93121.464
93609.692
94102.734
94597.487
95090.686
95578.839
96058.326
96525.49
96976.755
97408.745
97818.416
98203.164
98560.914
98890.174
99190.056
99460.264
99701.053
99913.163
100097.74
100256.26
100390.43
100502.13
100593.31
100665.97
100722.07
100763.51
100792.1
100809.56
100817.46
100817.26
100810.26
100797.67
100780.54
100759.83
100736.35
100710.86
100683.97
100656.25
100628.15
100600.09
100572.39
100545.33
100519.15
100494.03
100470.12
100447.51
100426.29
100406.52
100388.21
100371.38
100356
100342.04
100329.46
100318.18
100308.15
100299.26
100291.42
100284.54
100278.62
100273.6
100269.05
100264.46
100260.73
100259.99
100258.85
100245.81
100228.28
100253.47
100318.03
88803.417
89607.987
89593.115
90389.289
90541.554
91205.431
91578.074
92125.31
92626.787
93158.12
93695.747
94240.937
94789.277
95337.047
95879.96
96413.555
96933.252
97434.537
97913.139
98365.209
98787.483
99177.398
99533.17
99853.808
100139.09
100389.5
100606.13
100790.56
100944.75
101070.93
101171.5
101248.9
101305.61
101344.02
101366.43
101374.98
101371.69
101358.39
101336.75
101308.28
101274.3
101236.02
101194.47
101150.58
101105.12
101058.8
101012.19
100965.79
100920.02
100875.23
100831.71
100789.69
100749.34
100710.83
100674.24
100639.65
100607.1
100576.62
100548.2
100521.82
100497.44
100475
100454.45
100435.68
100418.64
100403.2
100389.28
100376.74
100365.52
100355.61
100346.87
100338.77
100331
100324.9
100322.16
100317.68
100300.23
100282.67
100314.17
100374.74
89273.655
90217.622
90221.813
91133.203
91353.623
92095.388
92565.118
93183.387
93771.194
94379.422
94991.3
95604.659
96213.727
96813.007
97396.632
97958.803
98494.014
98997.329
99464.606
99892.669
100279.39
100623.71
100925.58
101185.86
101406.15
101588.66
101736.03
101851.18
101937.18
101997.13
102034.06
102050.92
102050.45
102035.2
102007.53
101969.54
101923.15
101870.05
101811.72
101749.49
101684.48
101617.69
101549.96
101482.03
101414.49
101347.86
101282.58
101218.99
101157.38
101097.97
101040.95
100986.44
100934.53
100885.28
100838.73
100794.88
100753.72
100715.2
100679.29
100645.92
100615
100586.46
100560.18
100536.08
100514.04
100493.95
100475.68
100459.11
100444.19
100430.89
100418.95
100407.82
100397.49
100389.61
100385.07
100377.45
100356.95
100340.43
100377.03
100433.67
89877.075
90998.125
91031.648
92076.866
92384.257
93211.91
93797.559
94500.463
95184.164
95877.775
96567.445
97247.473
97909.898
98547.171
99152.047
99718.091
100239.99
100713.77
101136.93
101508.42
101828.52
102098.67
102321.27
102499.41
102636.67
102736.88
102804.01
102841.97
102854.52
102845.22
102817.38
102774
102717.8
102651.21
102576.37
102495.19
102409.28
102320.09
102228.83
102136.54
102044.12
101952.32
101861.75
101772.94
101686.31
101602.2
101520.89
101442.58
101367.43
101295.56
101227.04
101161.9
101100.17
101041.81
100986.81
100935.1
100886.63
100841.3
100799.03
100759.73
100723.28
100689.56
100658.45
100629.83
100603.58
100579.57
100557.65
100537.73
100519.76
100503.65
100489.04
100475.45
100463.22
100454.09
100447.9
100437.26
100414.91
100401.46
100442.27
100493.5
90642.795
91977.166
92054.66
93253.448
93681.605
94607.126
95330.287
96134.444
96921.482
97702.653
98463.558
99194.927
99886.857
100530.84
101119.96
101649.25
102115.79
102518.67
102858.78
103138.5
103361.38
103531.8
103654.61
103734.91
103777.8
103788.21
103770.81
103729.92
103669.45
103592.95
103503.53
103403.94
103296.59
103183.53
103066.56
102947.18
102826.7
102706.18
102586.54
102468.53
102352.78
102239.78
102129.94
102023.58
101920.94
101822.21
101727.52
101636.94
101550.53
101468.29
101390.21
101316.25
101246.35
101180.44
101118.42
101060.19
101005.64
100954.66
100907.12
100862.9
100821.85
100783.84
100748.74
100716.4
100686.69
100659.46
100634.57
100611.94
100591.52
100573.16
100556.42
100540.95
100527.46
100517.52
100509.81
100496.54
100473.54
100464.59
100508.74
100552.65
91600.812
93201.741
93359.912
94729.484
95324.233
96363.65
97241.374
98157.219
99041.924
99893.54
100696.13
101438.67
102111.93
102709.66
103228.53
103668.05
104030.14
104318.66
104538.89
104697.02
104799.72
104853.73
104865.65
104841.72
104787.68
104708.75
104609.56
104494.22
104366.27
104228.79
104084.41
103935.37
103783.56
103630.56
103477.71
103326.08
103176.59
103029.97
102886.81
102747.57
102612.63
102482.25
102356.66
102235.98
102120.3
102009.67
101904.1
101803.56
101708
101617.34
101531.51
101450.38
101373.85
101301.79
101234.06
101170.52
101111.04
101055.46
101003.63
100955.41
100910.64
100869.16
100830.82
100795.48
100762.99
100733.2
100705.97
100681.23
100658.92
100638.79
100620.42
100603.67
100589.48
100579.03
100569.93
100554.7
100532.44
100528.44
100573.88
100609.11
92834.578
94772.335
95056.11
96617.109
97426.004
98588.006
99615.361
100627.57
101573.01
102443.01
103223.79
103907.61
104490.8
104973.73
105360.06
105655.98
105869.38
106009.06
106084.19
106103.76
106076.32
106009.7
105910.97
105786.39
105641.4
105480.67
105308.21
105127.39
104941.06
104751.57
104560.88
104370.61
104182.07
103996.34
103814.26
103636.53
103463.68
103296.11
103134.13
102977.96
102827.74
102683.56
102545.46
102413.42
102287.4
102167.35
102053.15
101944.7
101841.88
101744.54
101652.53
101565.7
101483.89
101406.93
101334.64
101266.88
101203.45
101144.2
101088.95
101037.55
100989.81
100945.57
100904.69
100866.99
100832.32
100800.54
100771.52
100745.2
100721.46
100700.02
100680.48
100662.96
100648.5
100637.69
100627.38
100611.02
100590.67
100591.02
100635.11
100662.5
94476.276
96830.159
97294.612
99045.314
100103.57
101373.47
102498.06
103540.13
104461.89
105257.07
105921.41
106457.04
106870.52
107171.72
107372.45
107485.39
107523.18
107497.87
107420.52
107300.99
107147.91
106968.7
106769.68
106556.13
106332.45
106102.28
105868.6
105633.83
105399.95
105168.54
104940.84
104717.86
104500.37
104288.95
104084.06
103886
103695.01
103511.22
103334.69
103165.43
103003.42
102848.58
102700.82
102560
102425.99
102298.63
102177.74
102063.16
101954.68
101852.13
101755.31
101664.02
101578.07
101497.26
101421.4
101350.3
101283.78
101221.64
101163.71
101109.81
101059.75
101013.37
100970.51
100930.99
100894.66
100861.38
100831.04
100803.56
100778.78
100756.39
100736.1
100718.25
100703.79
100692.68
100681.34
100664.61
100646.88
100650.95
100692.35
100713.05
96716.841
99536.842
100244.41
102135.8
103405.75
104723.03
105828.17
106772.42
107542.74
108144.83
108589.73
108893.2
109073.18
109148.08
109135.57
109051.86
108911.28
108726.2
108507.08
108262.65
108000.09
107725.24
107442.83
107156.68
106869.79
106584.58
106302.92
106026.28
105755.8
105492.32
105236.47
104988.73
104749.39
104518.65
104296.63
104083.34
103878.76
103682.82
103495.38
103316.32
103145.46
102982.6
102827.56
102680.12
102540.06
102407.16
102281.18
102161.91
102049.11
101942.56
101842.03
101747.29
101658.14
101574.35
101495.72
101422.03
101353.1
101288.72
101228.7
101172.86
101121.01
101072.98
101028.6
100987.7
100950.12
100915.74
100884.44
100856.13
100830.61
100807.58
100786.91
100769.04
100754.71
100743.29
100731.22
100714.94
100700.5
100707.66
100744.82
100758.05
99809.931
103007.36
104022.58
105980.63
107292.07
108462.43
109381.55
110074.16
110557.97
110859.64
111007.14
111028
110947.31
110787.09
110565.97
110299.37
109999.84
109677.43
109340.14
108994.24
108644.63
108295.11
107948.61
107607.35
107273.01
106946.84
106629.75
106322.37
106025.14
105738.32
105462.06
105196.37
104941.23
104696.53
104462.12
104237.82
104023.4
103818.63
103623.27
103437.05
103259.71
103090.97
102930.57
102778.22
102633.66
102496.62
102366.82
102244.01
102127.94
102018.34
101914.97
101817.59
101725.97
101639.88
101559.09
101483.39
101412.58
101346.45
101284.81
101227.46
101174.22
101124.92
101079.38
101037.42
100998.91
100963.71
100931.72
100902.81
100876.77
100853.36
100832.56
100814.84
100800.63
100788.91
100776.5
100761.49
100750.56
100759.38
100790.56
100797.87
104013.52
107425.58
108644.31
110339.4
111468.17
112301.39
112837.96
113132.61
113230.01
113173.3
112998.94
112737.24
112412.44
112043.62
111645.53
111229.48
110804.01
110375.55
109948.89
109527.59
109114.22
108710.65
108318.19
107937.72
107569.82
107214.82
106872.86
106543.97
106228.04
105924.92
105634.37
105356.13
105089.91
104835.38
104592.23
104360.1
104138.67
103927.58
103726.51
103535.09
103353.02
103179.95
103015.56
102859.55
102711.59
102571.4
102438.68
102313.14
102194.51
102082.53
101976.92
101877.44
101783.84
101695.89
101613.36
101536.04
101463.7
101396.14
101333.17
101274.6
101220.23
101169.89
101123.4
101080.59
101041.33
101005.48
100972.94
100943.55
100917.13
100893.49
100872.72
100855.17
100840.98
100828.99
100816.74
100803.59
100795.76
100804.72
100829.36
100832.38
109257.24
112632.34
113754.78
114885.53
115499.96
115786.33
115809.22
115642.07
115339.04
114942.58
114484.23
113987.26
113468.53
112940.19
112410.88
111886.7
111371.9
110869.4
110381.12
109908.31
109451.7
109011.66
108588.28
108181.49
107791.06
107416.68
107057.98
106714.53
106385.91
106071.63
105771.25
105484.3
105210.31
104948.83
104699.42
104461.64
104235.06
104019.28
103813.9
103618.53
103432.78
103256.31
103088.76
102929.79
102779.06
102636.26
102501.09
102373.24
102252.43
102138.37
102030.81
101929.48
101834.13
101744.53
101660.43
101581.63
101507.91
101439.05
101374.88
101315.18
101259.77
101208.47
101161.11
101117.53
101077.58
101041.13
101008.07
100978.25
100951.49
100927.7
100906.96
100889.49
100875.2
100863.08
100851.5
100840.58
100835.08
100842.24
100859.68
100861.63
115491.76
118009.92
118623.51
118907.06
118814.75
118487.63
118005.17
117427.98
116796.72
116138.9
115472.82
114810.49
114159.7
113525.42
112910.66
112317.15
111745.76
111196.78
110670.09
110165.33
109681.98
109219.42
108776.96
108353.9
107949.5
107563.06
107193.87
106841.26
106504.56
106183.14
105876.38
105583.71
105304.56
105038.4
104784.71
104543.01
104312.81
104093.67
103885.16
103686.86
103498.38
103319.32
103149.33
102988.04
102835.12
102690.24
102553.07
102423.33
102300.71
102184.93
102075.72
101972.82
101875.98
101784.95
101699.51
101619.43
101544.5
101474.51
101409.27
101348.58
101292.25
101240.11
101191.99
101147.71
101107.14
101070.14
101036.6
101006.37
100979.33
100955.4
100934.64
100917.12
100902.66
100890.51
100879.83
100871
100866.97
100871.57
100882.53
100884.49
122131.66
122574.88
122358.6
121811.13
121081.25
120258.93
119400.32
118537.17
117688.04
116863.15
116067.94
115304.96
114575.03
113877.96
113212.97
112578.96
111974.65
111398.71
110849.78
110326.56
109827.77
109352.21
108898.73
108466.25
108053.77
107660.34
107285.06
106927.1
106585.68
106260.05
105949.53
105653.46
105371.23
105102.25
104845.96
104601.85
104369.41
104148.18
103937.7
103737.53
103547.28
103366.54
103194.94
103032.11
102877.71
102731.41
102592.88
102461.82
102337.93
102220.92
102110.53
102006.49
101908.55
101816.46
101730
101648.95
101573.08
101502.2
101436.11
101374.62
101317.54
101264.69
101215.9
101171.01
101129.87
101092.36
101058.34
101027.68
101000.31
100976.16
100955.23
100937.51
100922.76
100910.58
100900.66
100893.35
100889.97
100892.06
100898.14
100900.69
126010.45
125385.86
124471.56
123420.5
122337.19
121265.66
120228.61
119235.32
118289.28
117390.72
116538.37
115730.18
114963.82
114236.84
113546.88
112891.66
112269.05
111677.08
111113.91
110577.87
110067.41
109581.11
109117.65
108675.84
108254.55
107852.76
107469.52
107103.94
106755.19
106422.51
106105.18
105802.52
105513.9
105238.73
104976.45
104726.51
104488.42
104261.69
104045.88
103840.55
103645.28
103459.67
103283.36
103115.96
102957.15
102806.58
102663.92
102528.88
102401.15
102280.45
102166.51
102059.06
101957.85
101862.63
101773.18
101689.26
101610.68
101537.22
101468.69
101404.89
101345.63
101290.75
101240.05
101193.39
101150.62
101111.59
101076.17
101044.26
101015.77
100990.67
100968.93
100950.44
100935.03
100922.47
100912.66
100905.81
100902.48
100902.99
100906.38
100909.54
103978.97
103952.05
104000.36
104048.74
104084.58
104094.41
104076.95
104047.35
104011.74
103966.84
103908.28
103836.57
103755.55
103670.04
103580.85
103488.05
103391.96
103293.06
103191.78
103088.5
102983.59
102877.4
102770.24
102662.41
102554.19
102445.82
102337.54
102229.58
102122.12
102015.37
101909.51
101804.7
101701.12
101598.91
101498.23
101399.23
101302.05
101206.84
101113.73
101022.86
100934.37
100848.4
100765.07
100684.53
100606.9
100532.3
100460.87
100392.73
100327.99
100266.75
100209.12
100155.18
100105
100058.64
100016.15
99977.541
99942.823
99911.973
99884.949
99861.682
99842.079
99826.02
99813.364
99803.938
99797.569
99794.01
99793.148
99794.469
99798.394
99803.148
99811.783
99817.1
99832.772
99833.116
99862.644
99843.753
99902.329
99847.395
99948.454
99849.234
103334.42
103328.22
103342.24
103358.62
103357.43
103350.1
103339.2
103321.56
103292.26
103257.23
103215.27
103168.16
103115.18
103057.45
102995
102928.52
102858.23
102784.48
102707.59
102627.86
102545.6
102461.11
102374.65
102286.52
102196.98
102106.3
102014.74
101922.53
101829.93
101737.17
101644.48
101552.07
101460.16
101368.97
101278.68
101189.51
101101.63
101015.25
100930.54
100847.69
100766.86
100688.23
100611.97
100538.23
100467.19
100398.98
100333.76
100271.66
100212.82
100157.35
100105.37
100056.96
100012.2
99971.163
99933.88
99900.374
99870.642
99844.658
99822.371
99803.705
99788.557
99776.798
99768.277
99762.812
99760.219
99760.253
99762.772
99767.311
99774.176
99781.827
99792.855
99800.974
99818.225
99821.41
99851.292
99836.024
99894.175
99842.259
99944.351
99843.813
102914.97
102899.44
102870.95
102841.04
102811.76
102784.43
102752.5
102721.25
102686.33
102650.89
102611.45
102570.64
102526.24
102479.74
102430.16
102378.06
102323.23
102265.85
102205.96
102143.66
102079.09
102012.36
101943.63
101873.06
101800.81
101727.06
101652.01
101575.84
101498.76
101420.97
101342.68
101264.1
101185.45
101106.94
101028.78
100951.2
100874.41
100798.62
100724.03
100650.86
100579.31
100509.57
100441.85
100376.33
100313.2
100252.63
100194.79
100139.85
100087.95
100039.22
99993.779
99951.739
99913.182
99878.175
99846.761
99818.962
99794.771
99774.158
99757.067
99743.417
99733.096
99725.969
99721.875
99720.63
99722.038
99725.856
99731.925
99739.814
99749.75
99760.364
99773.916
99784.794
99803.817
99809.631
99840.261
99828.222
99886.271
99837.088
99940.316
99838.692
102320.68
102298.05
102269.42
102237.88
102206.58
102178.78
102146.57
102117.28
102083.85
102052.38
102017.41
101983.18
101946.18
101908.79
101869.27
101828.46
101785.83
101741.55
101695.5
101647.66
101598.03
101546.63
101493.49
101438.66
101382.21
101324.23
101264.83
101204.13
101142.27
101079.41
101015.7
100951.34
100886.49
100821.37
100756.17
100691.09
100626.37
100562.2
100498.81
100436.41
100375.23
100315.48
100257.38
100201.13
100146.93
100094.99
100045.5
99998.612
99954.508
99913.331
99875.214
99840.27
99808.593
99780.254
99755.299
99733.75
99715.6
99700.817
99689.34
99681.082
99675.926
99673.731
99674.331
99677.537
99683.148
99690.924
99700.69
99712.047
99725.161
99738.802
99754.972
99768.591
99789.518
99797.812
99829.486
99820.39
99878.636
99831.923
99936.372
99833.878
101594.47
101578.48
101562.87
101544.41
101524
101507.89
101485.88
101468.25
101445.2
101425.45
101401.23
101378.83
101353.22
101328.09
101300.86
101272.8
101243.13
101212.15
101179.65
101145.63
101110.05
101072.9
101034.17
100993.88
100952.06
100908.75
100864.01
100817.92
100770.58
100722.08
100672.57
100622.17
100571.04
100519.34
100467.27
100414.99
100362.72
100310.66
100259.02
100208.01
100157.87
100108.8
100061.04
100014.8
99970.289
99927.724
99887.299
99849.201
99813.603
99780.664
99750.524
99723.303
99699.1
99677.989
99660.018
99645.209
99633.554
99625.016
99619.532
99617.009
99617.326
99620.338
99625.873
99633.74
99643.735
99655.621
99669.215
99684.144
99700.526
99717.251
99736.107
99752.466
99775.374
99786.073
99818.972
99812.634
99871.208
99826.838
99932.537
99829.354
100878.18
100871.97
100867.63
100862.37
100853.06
100848.97
100837.53
100832
100819.6
100811.78
100798.31
100787.63
100773.04
100759.57
100743.82
100727.56
100709.7
100690.71
100670.38
100648.72
100625.7
100601.29
100575.49
100548.29
100519.69
100489.71
100458.39
100425.76
100391.88
100356.83
100320.7
100283.59
100245.62
100206.94
100167.69
100128.04
100088.16
100048.24
100008.48
99969.091
99930.28
99892.264
99855.263
99819.494
99785.172
99752.506
99721.697
99692.935
99666.396
99642.243
99620.618
99601.644
99585.419
99572.018
99561.487
99553.846
99549.084
99547.16
99548.005
99551.522
99557.586
99566.046
99576.73
99589.442
99603.979
99620.107
99637.637
99656.224
99675.944
99695.8
99717.389
99736.487
99761.418
99774.505
99808.718
99805.004
99863.935
99821.885
99928.769
99825.115
100229.48
100229.62
100230.6
100233.73
100231.55
100236.1
100231.9
100235.36
100230.5
100231.82
100226.77
100226
100220.53
100216.35
100209.62
100202.92
100194.82
100185.92
100175.94
100164.89
100152.72
100139.4
100124.9
100109.19
100092.27
100074.13
100054.78
100034.25
100012.57
99989.783
99965.957
99941.169
99915.515
99889.104
99862.061
99834.525
99806.65
99778.603
99750.561
99722.714
99695.257
99668.393
99642.328
99617.27
99593.424
99570.992
99550.167
99531.135
99514.068
99499.123
99486.44
99476.136
99468.306
99463.017
99460.312
99460.205
99462.679
99467.686
99475.152
99484.972
99497.019
99511.138
99527.151
99544.866
99564.075
99584.553
99606.107
99628.419
99651.529
99674.549
99698.897
99720.732
99747.705
99763.19
99798.713
99797.549
99856.864
99817.111
99925.037
99821.17
99646.636
99651.752
99655.782
99664.011
99665.46
99675.689
99675.618
99685.141
99685.047
99692.851