/*--------------------------------*- C++ -*----------------------------------*\
  =========                 |
  \\      /  F ield         | OpenFOAM: The Open Source CFD Toolbox
   \\    /   O peration     | Website:  https://openfoam.org
    \\  /    A nd           | Version:  12
     \\/     M anipulation  |
\*---------------------------------------------------------------------------*/
FoamFile
{
    format      ascii;
    class       surfaceScalarField;
    location    "0.139";
    object      phi;
}
// * * * * * * * * * * * * * * * * * * * * * * * * * * * * * * * * * * * * * //

dimensions      [1 0 -1 0 0 0 0];

internalField   nonuniform List<scalar> 
31760
(
-0.00064020093
-0.050942209
0.051582371
-0.0016052149
-0.064392583
0.065357364
-0.0025843069
-0.063029454
0.064007074
-0.003606601
-0.068703552
0.069725819
-0.004683006
-0.070380107
0.071456538
-0.0057876975
-0.074650488
0.075755167
-0.0069623667
-0.077583113
0.078757822
-0.0081758201
-0.081594918
0.082808397
-0.0094495182
-0.085223129
0.086496871
-0.010781913
-0.089346549
0.090678989
-0.012169809
-0.093486592
0.094874539
-0.013625006
-0.097904487
0.099359734
-0.015142133
-0.1024869
0.10400408
-0.016729473
-0.10729608
0.10888347
-0.018386611
-0.11232076
0.11397794
-0.020118306
-0.11757761
0.11930935
-0.021927228
-0.12307471
0.12488367
-0.023816581
-0.12882351
0.1307129
-0.025789606
-0.13483502
0.13680808
-0.027849698
-0.14112055
0.14318067
-0.030000288
-0.14769249
0.1498431
-0.032245129
-0.15456284
0.15680771
-0.034587807
-0.16174522
0.16408792
-0.037032218
-0.16925334
0.17169777
-0.03958132
-0.17710177
0.17965089
-0.042239679
-0.18530464
0.18796301
-0.045011174
-0.19387821
0.19664972
-0.047899208
-0.20283913
0.20572717
-0.050907258
-0.21220435
0.2152124
-0.054039345
-0.22199197
0.22512406
-0.057298749
-0.23222098
0.23548038
-0.060688773
-0.24291123
0.24630124
-0.064212196
-0.25408426
0.25760766
-0.067872029
-0.26576125
0.26942104
-0.071670222
-0.27796634
0.28176447
-0.075608391
-0.29072387
0.29466196
-0.079687812
-0.30405965
0.30813897
-0.083908903
-0.31800148
0.32222245
-0.088271413
-0.33257744
0.33693981
-0.09277395
-0.34781911
0.35232149
-0.097414436
-0.36375839
0.36839869
-0.10218936
-0.38042918
0.3852039
-0.10709401
-0.39786773
0.40277215
-0.1121225
-0.41611207
0.42114029
-0.11726698
-0.43520278
0.44034697
-0.12251821
-0.45518174
0.46043264
-0.12786452
-0.47609411
0.48144007
-0.13329288
-0.49798655
0.50341453
-0.13878769
-0.52090943
0.52640383
-0.14433052
-0.54491487
0.55045727
-0.14990025
-0.57005757
0.57562687
-0.15547328
-0.59639591
0.6019685
-0.16102215
-0.62399053
0.62953898
-0.16651583
-0.65290532
0.65839861
-0.17191977
-0.6832071
0.68861069
-0.17719399
-0.71496675
0.72024069
-0.18229439
-0.74825766
0.75335786
-0.18717151
-0.78315689
0.78803392
-0.19176896
-0.81974553
0.82434301
-0.19602453
-0.85810796
0.86236372
-0.19986812
-0.89833235
0.90217629
-0.20322185
-0.94051063
0.94386493
-0.20599832
-0.98473937
0.9875167
-0.20810013
-1.0311189
1.033222
-0.2094184
-1.0797518
1.0810718
-0.20983206
-1.130744
1.1311601
-0.20920472
-1.184202
1.183578
-0.20739071
-1.2402326
1.2384231
-0.20422317
-1.2989497
1.2957881
-0.19951532
-1.3604699
1.3557696
-0.19306514
-1.4249131
1.4184723
-0.1846529
-1.4923982
1.4839973
-0.17402536
-1.5630454
1.5524312
-0.16091645
-1.6369677
1.6238739
-0.14502144
-1.7142965
1.6984182
-0.12603883
-1.7951758
1.7762108
-0.10346168
-1.8797923
1.8572326
-0.077411131
-1.9683756
1.9423458
-0.046211244
-2.0603603
2.0291707
-2.1583541
2.123424
-0.00063476019
-0.050307185
-0.0015041739
-0.063522991
-0.0023998646
-0.062135212
-0.0033601437
-0.067743012
-0.0043313512
-0.069408697
-0.0053800301
-0.073601608
-0.0064439139
-0.076519061
-0.0075879435
-0.080450727
-0.008757882
-0.08405305
-0.010002315
-0.088101985
-0.011289811
-0.09219898
-0.012644856
-0.096549332
-0.014057449
-0.10107421
-0.015536674
-0.10581676
-0.017082721
-0.11077462
-0.018699743
-0.11596051
-0.020389931
-0.12138445
-0.022157058
-0.12705631
-0.024004346
-0.13298766
-0.025935377
-0.13918944
-0.027953813
-0.14567398
-0.030062906
-0.15245368
-0.032266763
-0.15954129
-0.034569071
-0.16695096
-0.036974628
-0.17469614
-0.039486241
-0.18279295
-0.042108604
-0.19125577
-0.044845448
-0.20010221
-0.047701052
-0.20934868
-0.050678981
-0.21901398
-0.05378331
-0.2291166
-0.057017361
-0.23967713
-0.060384428
-0.25071716
-0.063887488
-0.26225816
-0.067528948
-0.27432486
-0.071311116
-0.28694169
-0.075235139
-0.30013563
-0.079302497
-0.31393414
-0.083512508
-0.32836747
-0.087864734
-0.34346694
-0.092357537
-0.35926565
-0.096987776
-0.37579903
-0.10175104
-0.39310456
-0.10664221
-0.41122103
-0.11165415
-0.43019099
-0.11677823
-0.45005783
-0.12200417
-0.47086837
-0.12731924
-0.49267169
-0.1327091
-0.5155198
-0.13815709
-0.53946711
-0.14364376
-0.56457113
-0.14914698
-0.59089291
-0.15464144
-0.61849626
-0.16009877
-0.64744815
-0.16548678
-0.67781917
-0.17076913
-0.7096844
-0.17590527
-0.7431214
-0.18084963
-0.77821229
-0.18555085
-0.81504393
-0.18995203
-0.85370621
-0.19398912
-0.89429447
-0.19759072
-0.93690798
-0.2006767
-0.98165202
-0.20315881
-1.028635
-0.20493734
-1.0779709
-0.20590274
-1.1297754
-0.20592906
-1.1841716
-0.20488076
-1.2412754
-0.202607
-1.3012165
-0.19893936
-1.3641289
-0.19369411
-1.4301478
-0.18666472
-1.4994151
-0.17762483
-1.5720708
-0.16632323
-1.6482529
-0.15249251
-1.7281092
-0.1358237
-1.8118259
-0.11597386
-1.8996226
-0.09272739
-1.9916013
-0.065147862
-2.0879262
-2.1896452
-0.00057317849
-0.049733907
-0.001384282
-0.062711798
-0.0021957021
-0.061322744
-0.0030992181
-0.066839459
-0.0039919957
-0.068515875
-0.0049713354
-0.072622218
-0.0059521493
-0.07553819
-0.0070165862
-0.079386229
-0.008100218
-0.082969352
-0.0092567743
-0.086945357
-0.010453166
-0.091002514
-0.011713568
-0.09528885
-0.01302894
-0.099758755
-0.014407571
-0.10443805
-0.015850127
-0.10933198
-0.017360197
-0.11445034
-0.018941127
-0.11980342
-0.020595862
-0.12540147
-0.022328673
-0.13125475
-0.024142377
-0.13737563
-0.026041459
-0.14377478
-0.028029438
-0.15046558
-0.03011019
-0.15746042
-0.032288494
-0.16477254
-0.034567615
-0.1724169
-0.036952758
-0.18040768
-0.039447366
-0.18876104
-0.042056498
-0.19749296
-0.044783701
-0.20662135
-0.047634113
-0.21616345
-0.050610832
-0.22613976
-0.053718169
-0.23656968
-0.056959917
-0.2474753
-0.06033874
-0.25887924
-0.063858209
-0.27080529
-0.067520467
-0.28327935
-0.071327729
-0.29632829
-0.07528048
-0.30998132
-0.079379708
-0.32426818
-0.083624865
-0.33922173
-0.088014131
-0.35487635
-0.092545355
-0.37126778
-0.097215126
-0.38843478
-0.10201794
-0.40641821
-0.10694778
-0.42526118
-0.11199662
-0.44500902
-0.11715521
-0.46570984
-0.12241159
-0.48741536
-0.1277532
-0.51017825
-0.13316436
-0.534056
-0.13862687
-0.55910865
-0.14412133
-0.58539846
-0.14962442
-0.61299314
-0.15511022
-0.64196225
-0.16054955
-0.67237965
-0.16590952
-0.70432415
-0.17115355
-0.73787695
-0.17623952
-0.77312575
-0.18112197
-0.81016071
-0.18574847
-0.84907873
-0.19006157
-0.88998013
-0.19399625
-0.93297175
-0.19748086
-0.97816546
-0.20043448
-1.0256789
-0.20276708
-1.0756352
-0.20437732
-1.1281612
-0.20515671
-1.183387
-0.20497894
-1.2414467
-0.20370437
-1.3024829
-0.2011853
-1.366638
-0.19724905
-1.4340721
-0.19171418
-1.5049361
-0.18436945
-1.5793996
-0.17499052
-1.6576139
-0.16332667
-1.7397535
-0.14909992
-1.8260322
-0.13202481
-1.916676
-0.11178404
-2.0118201
-0.087816165
-2.1118769
-2.2171678
-0.00051726289
-0.049216547
-0.0012679043
-0.06196112
-0.0020033528
-0.060587356
-0.0028548905
-0.065987867
-0.0036820058
-0.06768868
-0.0045950656
-0.071709083
-0.0054993189
-0.07463385
-0.0064906561
-0.078394803
-0.0074943671
-0.081965546
-0.0085703006
-0.085869325
-0.0096829178
-0.089889793
-0.010856626
-0.094115033
-0.012083399
-0.09853187
-0.013370535
-0.10315079
-0.014719712
-0.10798268
-0.016134702
-0.11303523
-0.017618809
-0.11831918
-0.019175415
-0.12384473
-0.020807999
-0.12962202
-0.022520913
-0.13566257
-0.024317332
-0.14197822
-0.026202323
-0.14858044
-0.028179797
-0.15548279
-0.030253745
-0.16269843
-0.032429327
-0.17024115
-0.034710495
-0.17812635
-0.037102289
-0.18636908
-0.039609048
-0.19498603
-0.042236224
-0.20399401
-0.044987166
-0.21341234
-0.047866997
-0.22325977
-0.050880069
-0.23355645
-0.054030059
-0.24432515
-0.057320829
-0.25558831
-0.060755763
-0.2673702
-0.064337289
-0.27969767
-0.068067589
-0.29259784
-0.071948544
-0.30610022
-0.075980467
-0.32023611
-0.080163365
-0.3350387
-0.084496595
-0.35054299
-0.088977445
-0.36678681
-0.09360307
-0.38380904
-0.098369073
-0.4016521
-0.10326949
-0.42036066
-0.1082978
-0.43998062
-0.11344429
-0.46056326
-0.1187
-0.48215955
-0.12405214
-0.50482602
-0.12948706
-0.52862097
-0.1349891
-0.55360647
-0.14053963
-0.57984774
-0.14611843
-0.6074141
-0.15170261
-0.63637774
-0.15726511
-0.66681673
-0.16277756
-0.69881115
-0.16820649
-0.73244731
-0.17351506
-0.76781628
-0.1786621
-0.80501254
-0.18360119
-0.84413825
-0.18828064
-0.88529897
-0.19264257
-0.92860774
-0.19662275
-0.97418274
-0.20014881
-1.0221497
-0.20314022
-1.0726399
-0.20550891
-1.1257876
-0.20714929
-1.1817406
-0.20795523
-1.2406331
-0.20779832
-1.3026305
-0.2065467
-1.3678784
-0.20404823
-1.4365574
-0.20012747
-1.5088416
-0.19460729
-1.5849025
-0.18727516
-1.6649266
-0.17790951
-1.749098
-0.16626321
-1.8376559
-0.15206967
-1.9308455
-0.13501196
-2.0288535
-0.11469655
-2.1321714
-2.2407627
-0.00046187707
-0.048754548
-0.0011652152
-0.061257704
-0.0018235127
-0.059929002
-0.0026188939
-0.065192397
-0.0033720905
-0.066935376
-0.004227191
-0.070853878
-0.0050645166
-0.073796415
-0.0059902995
-0.077468908
-0.0069225485
-0.08103318
-0.0079254011
-0.084866351
-0.0089637217
-0.088851347
-0.01006062
-0.093018004
-0.011210228
-0.097382127
-0.012418743
-0.10194214
-0.013688559
-0.10671272
-0.015022784
-0.11170085
-0.016425183
-0.11691663
-0.017899536
-0.12237021
-0.019449545
-0.12807185
-0.021079245
-0.1340327
-0.022793358
-0.14026393
-0.024595236
-0.14677838
-0.026490402
-0.15358744
-0.028483447
-0.1607052
-0.030578902
-0.1681455
-0.03278205
-0.17592301
-0.03509811
-0.18405282
-0.037532027
-0.19255191
-0.040088737
-0.20143709
-0.042773449
-0.21072742
-0.04559105
-0.22044195
-0.048546019
-0.23060126
-0.051642722
-0.24122823
-0.054885521
-0.25234529
-0.058277581
-0.26397793
-0.061821991
-0.27615304
-0.065521256
-0.28889836
-0.06937728
-0.30224398
-0.07339081
-0.31622237
-0.077562232
-0.33086706
-0.08189049
-0.34621452
-0.086374396
-0.3623027
-0.091010646
-0.37917259
-0.095795535
-0.39686701
-0.10072457
-0.41543141
-0.10579075
-0.43491424
-0.11098681
-0.45536699
-0.11630358
-0.47684255
-0.1217303
-0.49939905
-0.12725538
-0.52309561
-0.13286428
-0.54799726
-0.13854149
-0.57417015
-0.1442689
-0.60168624
-0.15002611
-0.63061999
-0.15579067
-0.66105149
-0.16153671
-0.69306428
-0.16723492
-0.72674808
-0.17285386
-0.7621961
-0.1783568
-0.79950811
-0.18370365
-0.83878959
-0.18884856
-0.88015188
-0.19374094
-0.92371273
-0.19832375
-0.96959674
-0.20253376
-1.0179359
-0.20629999
-1.0688689
-0.20954171
-1.1225401
-0.21217349
-1.1791017
-0.21408932
-1.2387086
-0.21518871
-1.3015206
-0.21533889
-1.3677157
-0.21441298
-1.4374687
-0.21225818
-1.5109798
-0.20870762
-1.5884342
-0.20357673
-1.6700365
-0.19666209
-1.7559894
-0.18774346
-1.8465496
-0.1765885
-1.9419734
-0.16289378
-2.0425209
-0.14635009
-2.1486902
-2.260255
-0.00041189829
-0.048342526
-0.0010740508
-0.060595464
-0.0016697886
-0.059333137
-0.0024069454
-0.064455139
-0.0030841539
-0.066258059
-0.0038877137
-0.070050207
-0.0046583342
-0.073025678
-0.0055245481
-0.076602572
-0.0063935142
-0.080164088
-0.0073344494
-0.083925282
-0.0083122941
-0.087873364
-0.0093466915
-0.091983462
-0.010434042
-0.096294627
-0.011579015
-0.10079701
-0.012784443
-0.10550713
-0.014054183
-0.11043094
-0.015391739
-0.1155789
-0.016800984
-0.12096079
-0.018286421
-0.12658623
-0.019852038
-0.13246689
-0.021502935
-0.13861284
-0.023243923
-0.14503719
-0.025080147
-0.15175101
-0.027016712
-0.15876842
-0.029059232
-0.16610277
-0.031213519
-0.17376849
-0.033484307
-0.18178181
-0.035877899
-0.19015808
-0.038399592
-0.19891516
-0.041054761
-0.20807201
-0.043848991
-0.21764748
-0.046786851
-0.22766315
-0.049873732
-0.23814109
-0.05311292
-0.24910584
-0.056508918
-0.26058166
-0.060065053
-0.27259664
-0.06378352
-0.28517962
-0.067666303
-0.29836092
-0.071714947
-0.31217345
-0.07592952
-0.32665221
-0.080309919
-0.34183384
-0.084854145
-0.35775818
-0.089560473
-0.37446597
-0.094425658
-0.39200153
-0.099444636
-0.41041213
-0.10461232
-0.42974623
-0.10992297
-0.45005602
-0.1153677
-0.47139747
-0.12093856
-0.4938278
-0.12662414
-0.51740961
-0.13241378
-0.54220713
-0.13829347
-0.56828991
-0.14424813
-0.59573093
-0.15026063
-0.62460672
-0.15631156
-0.65499964
-0.16237912
-0.68699562
-0.16843954
-0.72068635
-0.17446469
-0.75616937
-0.18042405
-0.79354686
-0.18628255
-0.83292883
-0.19200197
-0.87442976
-0.19753834
-0.91817315
-0.20284289
-0.96428833
-0.20786062
-1.0129135
-0.2125299
-1.064194
-0.2167815
-1.1182817
-0.22053793
-1.175337
-0.22371488
-1.2355217
-0.22621035
-1.2990133
-0.22792405
-1.3659881
-0.22873279
-1.436644
-0.22850646
-1.511188
-0.22709781
-1.5898224
-0.22434056
-1.6727707
-0.22005451
-1.76025
-0.21404915
-1.8525271
-0.20610841
-1.9498837
-0.19597165
-2.0526268
-0.18337585
-2.1612567
-2.2754428
-0.00036938877
-0.047973012
-0.0010006591
-0.059964101
-0.0015413666
-0.05879232
-0.002231063
-0.063765335
-0.0028485879
-0.065640417
-0.0036043392
-0.069294336
-0.0043188072
-0.072311084
-0.0051235713
-0.075797676
-0.005950663
-0.07933686
-0.006845274
-0.083030529
-0.0077769446
-0.086941546
-0.0087616061
-0.090998647
-0.0097988873
-0.095257187
-0.01089282
-0.099702908
-0.012047464
-0.10435231
-0.013266301
-0.10921193
-0.014554194
-0.11429082
-0.015915236
-0.11959956
-0.017354233
-0.12514703
-0.01887658
-0.13094434
-0.020486885
-0.13700232
-0.022191357
-0.1433325
-0.023995212
-0.14994693
-0.025904145
-0.15685925
-0.027924515
-0.16408216
-0.030061964
-0.1716308
-0.032323382
-0.17952013
-0.034714331
-0.18776688
-0.037240545
-0.19638868
-0.039908632
-0.20540365
-0.0427236
-0.21483223
-0.045691039
-0.22469543
-0.048815627
-0.23501622
-0.052102484
-0.24581869
-0.055554666
-0.25712918
-0.059175842
-0.26897516
-0.062969126
-0.28138603
-0.066936197
-0.29439353
-0.071078174
-0.30803115
-0.075395698
-0.32233436
-0.079888713
-0.33734048
-0.084555954
-0.35309059
-0.089395846
-0.36962572
-0.094405211
-0.38699179
-0.099581109
-0.40523584
-0.10491897
-0.42440796
-0.11041331
-0.44456124
-0.11605859
-0.46575171
-0.12184681
-0.48803906
-0.12777049
-0.51148535
-0.13381957
-0.5361574
-0.13998363
-0.5621251
-0.14625093
-0.58946277
-0.15260727
-0.61824939
-0.15903744
-0.6485683
-0.16552354
-0.68050814
-0.17204622
-0.71416203
-0.17858298
-0.74963067
-0.18510843
-0.78701911
-0.19159449
-0.82644003
-0.19800852
-0.86801249
-0.20431467
-0.91186315
-0.2104718
-0.95812661
-0.21643413
-1.0069457
-0.22214998
-1.0584716
-0.22756038
-1.1128635
-0.23259974
-1.1702882
-0.23719511
-1.2309151
-0.24126116
-1.2949341
-0.24470613
-1.3625279
-0.24743194
-1.4339008
-0.24932162
-1.5092785
-0.25024512
-1.5888766
-0.2500639
-1.6729268
-0.24861382
-1.7616719
-0.24572835
-1.8553814
-0.24122544
-1.954352
-0.23486955
-2.0589474
-0.22643854
-2.169653
-2.2860952
-0.00032626068
-0.047646625
-0.0009319787
-0.059358286
-0.001423321
-0.058300861
-0.002066898
-0.063121645
-0.0026399207
-0.065067272
-0.0033674061
-0.068566726
-0.004048661
-0.071629698
-0.0048378734
-0.075008326
-0.0056253621
-0.07854923
-0.0064738133
-0.08218193
-0.0073631473
-0.086052059
-0.0083048069
-0.090056826
-0.0093013213
-0.094260506
-0.010356114
-0.098647942
-0.011473637
-0.10323461
-0.012658466
-0.10802691
-0.013914564
-0.11303453
-0.015247911
-0.11826601
-0.016663342
-0.12373139
-0.018166531
-0.12944093
-0.019763323
-0.13540531
-0.021459721
-0.14163587
-0.023262037
-0.14814437
-0.025177516
-0.15494353
-0.02721163
-0.16204779
-0.029371868
-0.1694703
-0.03166437
-0.17722736
-0.034095966
-0.185335
-0.036673166
-0.1938112
-0.039402025
-0.2026745
-0.042288268
-0.21194569
-0.04533763
-0.22164576
-0.048555228
-0.23179831
-0.051945104
-0.24242849
-0.055511484
-0.25356247
-0.059257861
-0.26522844
-0.063186402
-0.27745714
-0.067299356
-0.29028022
-0.071598055
-0.30373208
-0.076083065
-0.31784897
-0.080754226
-0.33266893
-0.085611534
-0.34823288
-0.090652908
-0.36458392
-0.095876788
-0.38176747
-0.10128068
-0.39983148
-0.10686127
-0.41882687
-0.11261494
-0.43880703
-0.11853737
-0.45982869
-0.12462336
-0.48195243
-0.13086707
-0.50524093
-0.13726207
-0.52976159
-0.14380021
-0.55558604
-0.15047302
-0.5827889
-0.15727032
-0.61145086
-0.16418094
-0.64165624
-0.17119199
-0.67349539
-0.17828818
-0.70706386
-0.1854527
-0.74246381
-0.19266634
-0.77980273
-0.19990693
-0.8191962
-0.20714933
-0.86076626
-0.21436496
-0.90464298
-0.22152107
-0.95096513
-0.22858118
-0.99987923
-0.23550281
-1.0515425
-0.24223904
-1.1061183
-0.24873543
-1.1637813
-0.25492953
-1.2247086
-0.26075403
-1.2890951
-0.26613517
-1.35713
-0.27097851
-1.4290384
-0.27519682
-1.5050387
-0.2786749
-1.5853741
-0.28129255
-1.6702814
-0.28291338
-1.7600198
-0.28339643
-1.8548632
-0.28258065
-1.9551288
-0.28026449
-2.0612235
-0.2762654
-2.1736111
-2.2919403
-0.00028413694
-0.047362362
-0.00087052523
-0.058771798
-0.0013206414
-0.057850627
-0.0019406904
-0.062501481
-0.0024909532
-0.064516886
-0.0031967481
-0.067860804
-0.0038504355
-0.070975878
-0.0046153928
-0.074243233
-0.0053726979
-0.077791781
-0.0061886615
-0.081365815
-0.0070508697
-0.085189694
-0.0079660112
-0.089141521
-0.0089389787
-0.093287368
-0.0099731803
-0.097613562
-0.011073694
-0.10213391
-0.012245345
-0.10685507
-0.013493802
-0.11178587
-0.014824476
-0.11693512
-0.01624338
-0.12231228
-0.017757286
-0.1279268
-0.019372237
-0.13379013
-0.021095761
-0.13991211
-0.022934231
-0.14630565
-0.024895039
-0.15298247
-0.026985764
-0.1599568
-0.029213183
-0.16724261
-0.031584823
-0.17485545
-0.034107539
-0.182812
-0.036787758
-0.19113069
-0.039632266
-0.19982969
-0.042647106
-0.20893054
-0.045837309
-0.21845524
-0.049207732
-0.22842756
-0.052763153
-0.23887274
-0.056507224
-0.24981806
-0.060442685
-0.26129263
-0.064572408
-0.27332705
-0.068898252
-0.285954
-0.073421257
-0.29920868
-0.078142503
-0.31312731
-0.083061997
-0.32774901
-0.088179416
-0.34311501
-0.093494492
-0.35926837
-0.099006575
-0.37625488
-0.10471398
-0.39412353
-0.11061528
-0.41292499
-0.11670841
-0.43271327
-0.12299115
-0.45354525
-0.12946099
-0.47548182
-0.13611438
-0.49858667
-0.14294799
-0.522927
-0.1499575
-0.54857542
-0.15713762
-0.57560751
-0.16448279
-0.60410421
-0.17198576
-0.63415157
-0.1796385
-0.66584065
-0.18743079
-0.69926923
-0.19535212
-0.73453974
-0.20338876
-0.77176286
-0.21152522
-0.81105595
-0.21974395
-0.85254307
-0.22802414
-0.89635754
-0.23634194
-0.94264116
-0.24466922
-0.99154466
-0.25297517
-1.0432279
-0.26122276
-1.0978606
-0.26937114
-1.1556211
-0.27736979
-1.2166962
-0.28516609
-1.2812828
-0.29269468
-1.3495832
-0.29989083
-1.4218215
-0.30667561
-1.4982303
-0.31296062
-1.5790622
-0.3186395
-1.6645718
-0.32360097
-1.7550233
-0.32772866
-1.850696
-0.33088615
-1.9519272
-0.33292079
-2.0591436
-0.33366798
-2.1728167
-2.292666
-0.00024600785
-0.047116231
-0.00082135628
-0.058196349
-0.0012417804
-0.057430085
-0.001886451
-0.061856696
-0.0024218976
-0.063981316
-0.0031026358
-0.067179939
-0.0037334185
-0.070344962
-0.0044565757
-0.073519935
-0.0052004074
-0.077047803
-0.0060007453
-0.080565324
-0.0068531123
-0.084337168
-0.0077602892
-0.088234177
-0.0087294312
-0.092318054
-0.0097644586
-0.096578354
-0.010871135
-0.10102705
-0.012055219
-0.10567079
-0.013322956
-0.11051793
-0.014681031
-0.11557684
-0.016136242
-0.12085685
-0.0176953
-0.12636752
-0.019366832
-0.13211836
-0.021157287
-0.13812141
-0.023075529
-0.14438716
-0.025128832
-0.15092891
-0.027325014
-0.15776036
-0.029672152
-0.1648952
-0.032177627
-0.17234969
-0.034848383
-0.18014096
-0.037691788
-0.18828699
-0.040713784
-0.19680739
-0.04391992
-0.20572409
-0.04731581
-0.21505903
-0.050905836
-0.2248372
-0.054694154
-0.23508408
-0.058684005
-0.24582785
-0.062878163
-0.2570981
-0.067278826
-0.26892601
-0.071887658
-0.28134477
-0.076706373
-0.29438956
-0.081735608
-0.30809764
-0.086976236
-0.32250792
-0.09242898
-0.33766178
-0.098094261
-0.35360257
-0.10397203
-0.37037655
-0.11006305
-0.3880319
-0.11636776
-0.40661961
-0.12288605
-0.42619425
-0.12961828
-0.44681221
-0.13656457
-0.46853463
-0.14372505
-0.49142518
-0.1510989
-0.515552
-0.15868628
-0.54098674
-0.16648564
-0.56780665
-0.17449543
-0.59609268
-0.1827136
-0.62593139
-0.19113681
-0.6574151
-0.1997612
-0.69064211
-0.2085811
-0.72571665
-0.21759002
-0.76275021
-0.22677965
-0.80186195
-0.23613908
-0.84317851
-0.24565624
-0.88683436
-0.25531597
-0.93297438
-0.26510067
-0.9817517
-0.2749888
-1.0333301
-0.2849554
-1.0878827
-0.29497062
-1.1455927
-0.30500064
-1.206651
-0.31500302
-1.271263
-0.32493262
-1.3396336
-0.33474
-1.4119913
-0.34435922
-1.4885852
-0.35372649
-1.5696653
-0.3627592
-1.655505
-0.37136843
-1.746375
-0.37945408
-1.8425658
-0.38691641
-1.9444154
-0.39363425
-2.0523752
-0.39948646
-2.1669107
-2.2879126
-0.00021205009
-0.04690406
-0.00078802278
-0.057620276
-0.0011855806
-0.057032411
-0.0018475461
-0.061194618
-0.0023610191
-0.063467719
-0.0030328914
-0.06650794
-0.0036571261
-0.069720593
-0.0043752739
-0.072801647
-0.0051217679
-0.076301164
-0.0059224224
-0.079764517
-0.0067825066
-0.083476926
-0.0077021046
-0.087314413
-0.0086897187
-0.091330269
-0.0097501594
-0.095517734
-0.010890104
-0.09988692
-0.012116267
-0.10444443
-0.01343583
-0.10919817
-0.014856125
-0.11415634
-0.016385588
-0.11932717
-0.018032138
-0.12472075
-0.019804041
-0.13034623
-0.021710205
-0.13621501
-0.023758762
-0.14233837
-0.025958406
-0.14872901
-0.028317842
-0.15540066
-0.030844446
-0.16236833
-0.033546036
-0.16964783
-0.036429878
-0.17725684
-0.0395027
-0.18521388
-0.042769703
-0.19354009
-0.046237287
-0.2022562
-0.049909266
-0.21138674
-0.053790378
-0.22095576
-0.057883355
-0.23099076
-0.062190968
-0.24151989
-0.0667161
-0.2525726
-0.071460621
-0.2641811
-0.076426004
-0.27637898
-0.081613927
-0.2892012
-0.087026135
-0.30268498
-0.092664076
-0.3168695
-0.098529474
-0.33179586
-0.10462392
-0.34750755
-0.11094994
-0.36404992
-0.11750979
-0.38147138
-0.12430577
-0.3998229
-0.13134142
-0.41915777
-0.13861916
-0.43953356
-0.14614289
-0.46100987
-0.15391586
-0.48365105
-0.16194181
-0.50752473
-0.17022354
-0.53270349
-0.17876481
-0.55926363
-0.18756886
-0.58728663
-0.19663813
-0.61685979
-0.205975
-0.64807553
-0.21558146
-0.6810325
-0.22545818
-0.71583625
-0.23560518
-0.75259892
-0.24602107
-0.79144105
-0.25670424
-0.8324895
-0.26764991
-0.87588186
-0.27885256
-0.92176376
-0.29030441
-0.97029057
-0.30199508
-1.0216286
-0.31391147
-1.0759538
-0.32603708
-1.1334527
-0.33834916
-1.1943222
-0.35082494
-1.2587681
-0.36343259
-1.327004
-0.37613305
-1.3992658
-0.38889451
-1.4757951
-0.4016615
-1.5568653
-0.4143758
-1.6427526
-0.4269682
-1.7337388
-0.43937468
-1.8301095
-0.45150909
-1.9322259
-0.46329521
-2.0405328
-0.4746492
-2.1554956
-2.2772559
-0.00019069021
-0.046713252
-0.00078602084
-0.057024845
-0.001179749
-0.056638567
-0.0018338734
-0.06054038
-0.0023401694
-0.062961302
-0.003017746
-0.065830238
-0.0036569319
-0.069081276
-0.0043817395
-0.072076702
-0.0051498559
-0.075532905
-0.0059718221
-0.078942401
-0.0068613549
-0.082587239
-0.0078176219
-0.086357984
-0.0088502089
-0.090297514
-0.0099651782
-0.094402589
-0.011170254
-0.098681663
-0.012473324
-0.10314118
-0.013882839
-0.10778846
-0.01540763
-0.11263134
-0.017056331
-0.11767826
-0.018838885
-0.12293798
-0.020764093
-0.1284208
-0.022841609
-0.13413727
-0.025080242
-0.1400995
-0.027489071
-0.14631994
-0.030076588
-0.1528129
-0.032850825
-0.15959384
-0.035818755
-0.16667964
-0.03898747
-0.17408786
-0.042362377
-0.1818387
-0.045949423
-0.18995276
-0.049752358
-0.19845297
-0.053775268
-0.20736352
-0.058021403
-0.21670931
-0.062493278
-0.22651856
-0.067193299
-0.23681952
-0.072123632
-0.24764191
-0.077285896
-0.25901846
-0.082682482
-0.27098199
-0.088315256
-0.28356799
-0.094186873
-0.29681289
-0.10030015
-0.31075571
-0.10665839
-0.32543707
-0.11326567
-0.34089966
-0.12012619
-0.35718875
-0.1272447
-0.37435213
-0.13462709
-0.39243969
-0.14227909
-0.41150486
-0.15020727
-0.43160434
-0.15841829
-0.45279768
-0.16691957
-0.47514845
-0.17571855
-0.49872423
-0.18482363
-0.52359667
-0.19424245
-0.54984281
-0.20398329
-0.57754348
-0.21405385
-0.60678657
-0.22446287
-0.63766341
-0.23521753
-0.67027424
-0.2463255
-0.70472409
-0.257794
-0.74112555
-0.26962976
-0.77959962
-0.28183828
-0.82027439
-0.29442467
-0.86328779
-0.30739279
-0.90878673
-0.32074513
-0.95692789
-0.33448294
-1.0078789
-0.34860517
-1.0618178
-0.36310802
-1.1189339
-0.37798432
-1.1794277
-0.39322702
-1.2435044
-0.4088159
-1.3113911
-0.4247387
-1.3833154
-0.44096908
-1.4595329
-0.45748378
-1.5403139
-0.47424981
-1.6259442
-0.49121763
-1.7167221
-0.50833931
-1.8129321
-0.52556371
-1.9149403
-0.54285408
-2.0231797
-0.56015492
-2.1381258
-2.2602129
-0.00017210745
-0.04654103
-0.00079615713
-0.056400698
-0.0011965165
-0.056238096
-0.0018618103
-0.059874976
-0.0023808312
-0.062442163
-0.0030729161
-0.065138031
-0.0037425327
-0.068411532
-0.0044908721
-0.071328229
-0.0052990494
-0.07472459
-0.0061648941
-0.078076411
-0.0071081037
-0.08164388
-0.0081285977
-0.085337334
-0.0092367146
-0.089189236
-0.010440172
-0.093198965
-0.011748029
-0.097373633
-0.013169622
-0.1017194
-0.014714713
-0.10624319
-0.016393419
-0.11095245
-0.018216024
-0.11585546
-0.020192469
-0.12096133
-0.022333178
-0.12627989
-0.024647754
-0.13182248
-0.027145399
-0.13760164
-0.029835293
-0.14362983
-0.032725209
-0.14992276
-0.03582242
-0.1564964
-0.039134111
-0.16336771
-0.042665115
-0.1705566
-0.046420619
-0.17808294
-0.050404502
-0.18596861
-0.054620134
-0.19423707
-0.059070508
-0.20291286
-0.063756935
-0.21202258
-0.068682608
-0.22159257
-0.073848917
-0.23165288
-0.079257772
-0.2422327
-0.084912035
-0.25336381
-0.090813953
-0.26507966
-0.096967688
-0.27741382
-0.103377
-0.2904031
-0.11004651
-0.30408567
-0.11698175
-0.31850125
-0.12418941
-0.33369136
-0.13167639
-0.34970105
-0.13945073
-0.36657698
-0.14752138
-0.38436814
-0.15589765
-0.40312757
-0.16458968
-0.42291116
-0.17360862
-0.44377743
-0.18296566
-0.46578991
-0.19267318
-0.489015
-0.20274302
-0.51352486
-0.21318907
-0.53939449
-0.22402416
-0.56670577
-0.23526264
-0.59554506
-0.24691792
-0.62600461
-0.25900493
-0.65818316
-0.27153781
-0.69218648
-0.28453096
-0.72812691
-0.29799963
-0.76612458
-0.31195757
-0.80630905
-0.32641932
-0.84881748
-0.341399
-0.89379714
-0.35691004
-0.94140541
-0.37296484
-0.99181087
-0.38957553
-1.0451919
-0.40675269
-1.1017394
-0.42450548
-1.1616549
-0.44283669
-1.2251502
-0.46175063
-1.2924507
-0.48124674
-1.3637887
-0.50132514
-1.4394192
-0.52198059
-1.5196176
-0.54319898
-1.6046786
-0.56496762
-1.6948992
-0.58725201
-1.7905858
-0.61004117
-1.8920835
-0.63331661
-1.9998342
-0.65706518
-2.1142994
-2.2362389
-0.00015805075
-0.046382871
-0.00082414889
-0.055734506
-0.0012381754
-0.055823963
-0.0019334669
-0.059179579
-0.0024827249
-0.061892792
-0.0032034853
-0.064417154
-0.0039239687
-0.067690927
-0.0047169959
-0.070535074
-0.0055881676
-0.073853287
-0.0065250341
-0.077139407
-0.0075512447
-0.080617528
-0.0086689191
-0.084219511
-0.0098894693
-0.087968535
-0.011222692
-0.091865584
-0.01267919
-0.095916974
-0.014270056
-0.10012837
-0.01600645
-0.10450662
-0.017899626
-0.1090591
-0.019960724
-0.11379418
-0.022200561
-0.11872131
-0.024629253
-0.12385101
-0.02725673
-0.12919481
-0.030092176
-0.13476599
-0.033143101
-0.1405787
-0.036417013
-0.14664864
-0.039919849
-0.15299335
-0.04365645
-0.15963089
-0.047631116
-0.16658171
-0.051846952
-0.17386687
-0.056306276
-0.18150905
-0.061010819
-0.18953227
-0.065962649
-0.19796077
-0.071163197
-0.20682176
-0.076614204
-0.21614126
-0.082318139
-0.22594863
-0.088277661
-0.23627283
-0.094496227
-0.24714488
-0.10097892
-0.25859656
-0.10773012
-0.27066217
-0.11475689
-0.28337584
-0.12206613
-0.29677589
-0.12966718
-0.31089958
-0.13756849
-0.32578937
-0.14578087
-0.3414879
-0.15431632
-0.35804066
-0.16318652
-0.37549696
-0.17240516
-0.39390782
-0.18198671
-0.41332834
-0.19194591
-0.43381677
-0.20229913
-0.45543502
-0.21306267
-0.47824954
-0.22425488
-0.50233045
-0.23589324
-0.52775358
-0.24799697
-0.55459909
-0.26058624
-0.58295237
-0.2736813
-0.6129056
-0.28730298
-0.64455689
-0.30147382
-0.67801033
-0.31621601
-0.71337859
-0.33155207
-0.75078141
-0.34750587
-0.79034704
-0.36410176
-0.8322121
-0.3813641
-0.87652386
-0.39931722
-0.92343969
-0.41798723
-0.97312639
-0.43739895
-1.0257636
-0.45757701
-1.0815422
-0.47854532
-1.1406647
-0.50032498
-1.2033453
-0.52293921
-1.2698072
-0.54640532
-1.3402887
-0.57074009
-1.4150451
-0.59596301
-1.4943493
-0.62209335
-1.5784959
-0.64913304
-1.6677993
-0.67708048
-1.7625701
-0.70594592
-1.8631436
-0.7357584
-1.9699435
-0.76650732
-2.0834624
-2.2047172
-0.00015004216
-0.046232725
-0.00087715102
-0.055007307
-0.0013100629
-0.055390949
-0.0020492088
-0.058440332
-0.0026494347
-0.061292458
-0.0034168321
-0.063649646
-0.0042112043
-0.06689644
-0.0050737631
-0.069672395
-0.0060336213
-0.072893306
-0.0070728951
-0.076100004
-0.0082173262
-0.079472965
-0.0094726133
-0.082964087
-0.010851677
-0.086589331
-0.012366365
-0.090350751
-0.014029087
-0.094254104
-0.015852215
-0.09830509
-0.01784809
-0.10251059
-0.020028618
-0.10687841
-0.022405337
-0.11141731
-0.024989001
-0.11613748
-0.027789663
-0.12105018
-0.030815995
-0.12616831
-0.034075606
-0.13150621
-0.037575273
-0.13707885
-0.041319681
-0.14290405
-0.045313154
-0.14899969
-0.049557873
-0.15538598
-0.054055982
-0.16208341
-0.058808881
-0.16911376
-0.06381726
-0.17650045
-0.06908236
-0.18426694
-0.074605016
-0.19243787
-0.080387368
-0.20103914
-0.086431592
-0.21009676
-0.092741521
-0.21963839
-0.099321074
-0.22969295
-0.10617647
-0.24028911
-0.11331389
-0.25145873
-0.12074233
-0.26323328
-0.12847025
-0.27564741
-0.13650934
-0.28873622
-0.14487022
-0.30253806
-0.15356661
-0.31709225
-0.16261295
-0.33244073
-0.17202406
-0.34862861
-0.18181653
-0.36570341
-0.19200796
-0.38371516
-0.20261689
-0.402718
-0.21366323
-0.42276881