/*--------------------------------*- C++ -*----------------------------------*\
  =========                 |
  \\      /  F ield         | OpenFOAM: The Open Source CFD Toolbox
   \\    /   O peration     | Website:  https://openfoam.org
    \\  /    A nd           | Version:  12
     \\/     M anipulation  |
\*---------------------------------------------------------------------------*/
FoamFile
{
    format      ascii;
    class       volVectorField;
    location    "0.139";
    object      U;
}
// * * * * * * * * * * * * * * * * * * * * * * * * * * * * * * * * * * * * * //

dimensions      [0 1 -1 0 0 0 0];

internalField   nonuniform List<vector> 
16000
(
(215.72791 -3.1387408e-17 -8.3918832)
(252.69002 0 5.3920997)
(238.74169 0 -7.5820213)
(246.44984 4.9668476e-17 3.7892111)
(241.75582 -4.9026782e-17 -5.9660727)
(243.96494 0 1.7557615)
(242.16878 0 -4.3348094)
(242.67509 8.3916369e-17 -0.028921309)
(241.83445 -7.9726972e-17 -3.1650996)
(241.71271 0 -1.2697849)
(241.19854 7.2039137e-17 -2.5694666)
(240.85088 -2.0523925e-16 -1.9874459)
(240.40696 1.2990348e-16 -2.4267709)
(239.97794 -1.2356837e-16 -2.3633869)
(239.52086 1.1724195e-16 -2.5244568)
(239.04991 -3.4778181e-18 -2.5961451)
(238.56034 -3.3037885e-18 -2.6994146)
(238.05306 -9.7490433e-17 -2.7919411)
(237.52752 1.9100466e-16 -2.8862332)
(236.98359 -9.0624389e-17 -2.978317)
(236.42111 1.7238045e-16 -3.0685776)
(235.84002 -1.6340231e-16 -3.1563182)
(235.24031 0 -3.2410419)
(234.62208 1.5210248e-16 -3.3221689)
(233.98552 -4.1163699e-18 -3.3991113)
(233.33093 -2.6546743e-16 -3.4712493)
(232.65872 1.2582254e-16 -3.5379566)
(231.96942 0 -3.5985935)
(231.26369 0 -3.6525239)
(230.54232 2.1851417e-16 -3.6991198)
(229.80625 -2.0359721e-16 -3.7377752)
(229.05654 0 -3.7679143)
(228.29439 0 -3.7890031)
(227.52114 0 -3.8005634)
(226.73825 5.1365628e-18 -3.8021828)
(225.9473 1.5588508e-16 -3.7935266)
(225.15 -1.4270005e-16 -3.7743495)
(224.34811 -1.3976431e-16 -3.7445031)
(223.54351 1.2375308e-16 -3.7039457)
(222.73811 0 -3.6527496)
(221.93389 -1.1844326e-16 -3.5911015)
(221.13282 1.1179754e-16 -3.5193074)
(220.33686 -2.118777e-16 -3.4377892)
(219.54797 1.9990186e-16 -3.3470811)
(218.76803 -1.9523405e-16 -3.2478239)
(217.99884 3.5744373e-16 -3.1407532)
(217.24214 5.6000347e-18 -3.0266898)
(216.4995 2.9695979e-19 -2.9065243)
(215.77241 -1.5045363e-16 -2.7812007)
(215.06217 1.4229589e-16 -2.6516994)
(214.36995 -1.2569158e-16 -2.5190192)
(213.69674 0 -2.3841576)
(213.04336 7.4703469e-18 -2.2480951)
(212.41044 0 -2.1117768)
(211.79843 6.6476914e-18 -1.9760982)
(211.2076 2.0699673e-16 -1.8418923)
(210.63803 -3.7833966e-16 -1.7099184)
(210.08964 1.0925075e-17 -1.5808521)
(209.56216 1.6812178e-16 -1.4552774)
(209.05513 -1.4881114e-16 -1.3336971)
(208.56789 1.4017123e-16 -1.2165099)
(208.09972 -8.8201979e-18 -1.1040578)
(207.64975 0 -0.99658527)
(207.21688 0 -0.89424015)
(206.79969 -1.1114917e-16 -0.79708651)
(206.39637 1.1182776e-16 -0.70509438)
(206.00465 -9.9088883e-17 -0.61814876)
(205.6219 1.9341628e-16 -0.53605705)
(205.24543 -1.8875757e-16 -0.4585632)
(204.87266 8.3679708e-17 -0.38537396)
(204.5011 5.2841454e-18 -0.31617691)
(204.12788 0 -0.25062922)
(203.74937 4.7508664e-18 -0.18840922)
(203.36165 -4.5127819e-18 -0.12926313)
(202.96208 0 -0.072657017)
(202.55034 -3.3748503e-17 -0.019388702)
(202.1209 6.2467879e-17 0.030832182)
(201.72211 -3.1744357e-17 0.096708801)
(201.13718 0 0.04946354)
(200.962 0 0.37516533)
(217.04408 0 -11.21547)
(254.33018 -3.7241923e-18 3.3429573)
(239.73348 -1.1969569e-16 -10.510308)
(247.91436 1.1035632e-16 1.70573)
(242.86447 0 -8.8295827)
(245.30637 1.0153465e-16 -0.4018507)
(243.30518 -1.8749709e-16 -7.0825403)
(243.90102 -1.0237354e-19 -2.3103783)
(242.9688 8.4497228e-17 -5.7580312)
(242.84814 0 -3.6699207)
(242.29322 -1.5263183e-16 -5.0477469)
(241.91675 1.4930197e-16 -4.4333049)
(241.44091 1.4200107e-16 -4.8590619)
(240.9776 -2.6140406e-16 -4.7965516)
(240.48608 1.2016888e-16 -4.9375229)
(239.97882 1.1047666e-17 -5.0019142)
(239.45196 1.1552502e-16 -5.0896038)
(238.90608 -1.0288817e-16 -5.1683888)
(238.34079 0 -5.2466034)
(237.756 0 -5.3215557)
(237.15162 5.6774669e-18 -5.39313)
(236.52768 -1.7810956e-16 -5.4606222)
(235.88429 3.3772996e-16 -5.5234031)
(235.22167 -3.1558488e-16 -5.5807941)
(234.54017 1.4264205e-16 -5.632102)
(233.84024 0 -5.6766194)
(233.12247 1.2441076e-16 -5.71363)
(232.38759 -1.3340584e-16 -5.7424245)
(231.63647 0 -5.7623069)
(230.87012 3.5254542e-18 -5.7726073)
(230.08971 -1.3372419e-17 -5.7726923)
(229.29654 0 -5.7619815)
(228.49207 0 -5.7399545)
(227.67786 -1.7064002e-16 -5.7061713)
(226.85564 3.3883417e-16 -5.6602809)
(226.02722 -1.6270602e-16 -5.6020344)
(225.19452 -1.5911088e-16 -5.5312984)
(224.35953 1.456282e-16 -5.4480607)
(223.5243 -1.1216714e-16 -5.3524406)
(222.69091 -2.859586e-19 -5.2446928)
(221.86145 -2.6748992e-19 -5.1252087)
(221.03799 2.3281994e-16 -4.9945156)
(220.22255 -1.0984797e-16 -4.8532717)
(219.41709 0 -4.7022581)
(218.62348 2.024043e-16 -4.5423689)
(217.84345 1.1938778e-17 -4.3745964)
(217.07863 -5.1186018e-18 -4.2000149)
(216.33046 -1.6456281e-16 -4.0197624)
(215.60026 0 -3.8350205)
(214.88915 -1.4657922e-16 -3.6469935)
(214.19808 -8.8603872e-18 -3.4568881)
(213.5278 2.6015531e-16 -3.2658914)
(212.87891 -1.3010977e-16 -3.0751537)
(212.25179 0 -2.8857691)
(211.64666 -2.0386072e-17 -2.6987603)
(211.06356 -2.1124188e-16 -2.5150669)
(210.50235 3.6132988e-16 -2.335533)
(209.96275 -2.1530668e-16 -2.1609)
(209.44431 0 -1.9917995)
(208.94641 -1.7082026e-16 -1.8287644)
(208.46827 1.7950487e-16 -1.6722051)
(208.00901 2.6688862e-17 -1.5224529)
(207.56767 0 -1.3797426)
(207.1431 -1.4190037e-16 -1.2441921)
(206.73383 7.3220239e-18 -1.1158292)
(206.33805 1.1171306e-16 -0.99458249)
(205.95346 -1.9737055e-17 -0.88028993)
(205.57741 9.2999925e-17 -0.77270546)
(205.20709 -1.0512143e-16 -0.67150985)
(204.83985 5.5083389e-18 -0.57633897)
(204.47319 -5.197397e-18 -0.4867996)
(204.1043 0 -0.40245883)
(203.72959 -4.6373112e-18 -0.32296051)
(203.34488 4.3861981e-18 -0.24812519)
(202.94708 8.3072865e-18 -0.17750652)
(202.53599 9.8435359e-19 -0.1109354)
(202.11464 0 -0.046509003)
(201.67962 3.0223328e-17 0.011132507)
(201.17937 -5.7573158e-17 0.019623534)
(200.87441 2.5856234e-17 0.2797799)
(218.22716 0 -14.112913)
(255.81872 -1.2249486e-16 1.0960979)
(240.67799 2.4980998e-16 -13.524338)
(249.17964 -2.2309172e-16 -0.54908449)
(243.86823 1.1018225e-16 -11.770252)
(246.44631 -3.2625924e-18 -2.7530794)
(244.31725 9.9303656e-17 -9.8788784)
(244.93863 -9.4048683e-17 -4.7905193)
(243.9494 -5.5829809e-18 -8.4159455)
(243.80523 -5.3010222e-18 -6.2366709)
(243.21488 -1.0070055e-17 -7.6252734)
(242.80229 1.3893472e-16 -7.0164915)
(242.2909 -1.4083002e-16 -7.410828)
(241.78902 1.3821677e-16 -7.3552882)
(241.25834 -1.1873587e-16 -7.4747979)
(240.71028 -1.556207e-17 -7.5310585)
(240.14135 0 -7.6030532)
(239.55214 -1.2427101e-20 -7.6668986)
(238.94234 -2.2634726e-16 -7.7279428)
(238.31194 -3.6731991e-19 -7.7841631)
(237.66099 1.7348988e-16 -7.8351281)
(236.98963 1.7041545e-17 -7.8800481)
(236.29813 -2.1555379e-17 -7.918172)
(235.58688 0 -7.9487156)
(234.8564 7.3761969e-21 -7.9708885)
(234.10734 -1.6547197e-16 -7.9838968)
(233.34053 1.4783105e-16 -7.986955)
(232.55691 8.2509002e-18 -7.9792937)
(231.75762 0 -7.9601787)
(230.94395 -7.4022107e-18 -7.9289177)
(230.11731 -1.1844328e-21 -7.8848804)
(229.27933 -1.9925663e-16 -7.8275108)
(228.43172 2.0067663e-16 -7.7563425)
(227.57637 1.1891212e-17 -7.6710176)
(226.71526 -1.800192e-16 -7.5712951)
(225.85048 1.485707e-16 -7.4570688)
(224.9842 -1.8103364e-16 -7.3283752)
(224.11863 1.5173877e-16 -7.185403)
(223.25601 -1.4367384e-16 -7.0284961)
(222.39857 1.3540588e-16 -6.858158)
(221.54851 1.6010351e-17 -6.6750485)
(220.70797 0 -6.4799761)
(219.87897 1.9971777e-16 -6.2738907)
(219.06345 -2.4173774e-16 -6.057869)
(218.26317 0 -5.8330977)
(217.47977 1.7941676e-16 -5.6008561)
(216.71469 -1.5744265e-16 -5.362492)
(215.96917 1.698731e-16 -5.1194006)
(215.24428 -1.7967945e-16 -4.8729998)
(214.54089 0 -4.624707)
(213.85965 1.7717749e-16 -4.3759171)
(213.20104 -1.3315489e-16 -4.1279788)
(212.56534 0 -3.8821765)
(211.95266 0 -3.6397136)
(211.36291 1.2476039e-16 -3.4016951)
(210.79587 -2.0835577e-16 -3.1691201)
(210.25114 1.2230832e-16 -2.9428704)
(209.72819 1.8406845e-16 -2.723706)
(209.22637 1.9865837e-19 -2.5122602)
(208.74489 1.7669536e-19 -2.3090505)
(208.28281 -3.2398056e-16 -2.1144637)
(207.8391 8.9410432e-17 -1.9287839)
(207.4127 0 -1.7522045)
(207.00236 1.421008e-16 -1.584789)
(206.60659 -1.6300072e-16 -1.4265045)
(206.22354 1.114087e-16 -1.2772169)
(205.85093 1.3149002e-17 -1.1366971)
(205.48606 -8.5963564e-17 -1.0046301)
(205.12609 1.1543656e-17 -0.88062808)
(204.76834 2.1708676e-17 -0.76426)
(204.41028 -1.0208598e-16 -0.65504931)
(204.04925 9.601062e-17 -0.55246912)
(203.68172 -7.2338292e-17 -0.45617021)
(203.3033 1.3626174e-16 -0.36606698)
(202.91087 -5.6189693e-17 -0.2814264)
(202.50527 -6.0624721e-17 -0.20133761)
(202.0876 5.0090716e-17 -0.12703768)
(201.64488 0 -0.066060582)
(201.18663 3.2055393e-18 -0.017537543)
(200.81637 -1.2156247e-17 0.1796181)
(219.25044 0 -17.079962)
(257.15771 0 -1.2855964)
(241.44376 0 -16.673921)
(250.265 1.0661132e-16 -2.9115816)
(244.68542 -1.2379266e-16 -14.841055)
(247.41914 -2.204747e-16 -5.2224971)
(245.14771 2.096914e-16 -12.793764)
(245.7976 -1.2419616e-17 -7.3981848)
(244.74404 5.9140513e-18 -11.184527)
(244.57243 -1.7391022e-16 -8.9351775)
(243.94212 1.702564e-16 -10.314305)
(243.48796 1.011848e-17 -9.7252593)
(242.93619 -1.5364892e-16 -10.080109)
(242.39044 1.3648967e-16 -10.033104)
(241.81552 -1.3867744e-20 -10.12985)
(241.22152 -8.185536e-18 -10.175989)
(240.60553 0 -10.230663)
(239.9681 -7.389568e-18 -10.2771)
(239.30906 -2.1034739e-16 -10.318309)
(238.62852 2.1239337e-16 -10.352715)
(237.92664 1.2607573e-17 -10.379655)
(237.20375 -1.1953122e-17 -10.398253)
(236.46027 2.1539606e-16 -10.407655)
(235.69679 -1.7157422e-16 -10.406986)
(234.91405 1.017496e-17 -10.395364)
(234.11295 1.9293312e-16 -10.371924)
(233.29457 -1.2762561e-16 -10.335813)
(232.46017 0 -10.286225)
(231.61118 1.4747193e-16 -10.222398)
(230.74919 -1.2378509e-16 -10.143647)
(229.87599 2.4947568e-16 -10.049373)
(228.99351 -1.3324843e-17 -9.9390857)
(228.10382 -2.0955544e-16 -9.8124178)
(227.20911 1.7381026e-16 -9.6691446)
(226.3117 -1.8723789e-16 -9.5091951)
(225.41395 -2.9705901e-20 -9.3326674)
(224.51827 2.093182e-16 -9.1398348)
(223.62708 -3.1589608e-16 -8.9311511)
(222.74279 9.2973884e-17 -8.7072518)
(221.86774 3.5200326e-17 -8.46895)
(221.00418 -4.9774753e-17 -8.2172304)
(220.15424 0 -7.9532333)
(219.31989 -8.8568443e-17 -7.6782412)
(218.50295 1.3871477e-16 -7.3936565)
(217.70502 -2.0944795e-16 -7.1009797)
(216.9275 1.9679617e-16 -6.8017857)
(216.17158 -2.0873364e-16 -6.4976942)
(215.43822 3.9248779e-16 -6.1903448)
(214.72815 -3.0758235e-16 -5.8813707)
(214.04192 3.0843567e-16 -5.5723727)
(213.37982 -1.4476886e-16 -5.2648957)
(212.74198 1.3627332e-16 -4.9604083)
(212.12833 -9.5796818e-17 -4.6602826)
(211.53864 3.0039062e-17 -4.3657816)
(210.97252 0 -4.0780439)
(210.42943 0 -3.7980783)
(209.90872 0 -3.5267568)
(209.4096 2.3252067e-17 -3.2648124)
(208.93121 0 -3.0128383)
(208.47257 -1.6365096e-16 -2.7712984)
(208.03259 1.9157649e-16 -2.5405225)
(207.61013 -1.078293e-16 -2.32072)
(207.20401 -1.1704794e-19 -2.1120133)
(206.81291 2.5226772e-16 -1.914393)
(206.43532 2.9628162e-17 -1.7277484)
(206.06939 -1.3835792e-16 -1.5518696)
(205.71284 5.1884759e-17 -1.3864515)
(205.36299 -1.4575987e-16 -1.2311027)
(205.01697 -4.5544722e-17 -1.0853651)
(204.67204 -6.402178e-17 -0.94873906)
(204.32572 -6.0035535e-17 -0.82065642)
(203.97548 5.6260617e-17 -0.70051096)
(203.61784 0 -0.58800986)
(203.24828 0 -0.48307111)
(202.86394 -1.5507354e-17 -0.38442244)
(202.4659 0 -0.29145945)
(202.05192 6.8504822e-18 -0.20889547)
(201.61285 5.1585404e-17 -0.13690191)
(201.17934 -7.2875176e-17 -0.061225349)
(200.75979 -1.1687508e-20 0.078088925)
(220.09531 0 -20.245382)
(258.32355 -8.8128592e-18 -3.7449552)
(242.07186 2.6657465e-16 -19.959077)
(251.12793 -2.489842e-16 -5.3988664)
(245.2667 2.5407632e-16 -18.026038)
(248.18868 -2.3245158e-16 -7.8447831)
(245.77775 -2.2159029e-16 -15.814015)
(246.4449 2.0976155e-16 -10.164027)
(245.32968 0 -14.05614)
(245.12001 0 -11.78382)
(244.4475 1.7977159e-16 -13.11777)
(243.94501 -1.7030785e-16 -12.56702)
(243.34811 -1.0117644e-17 -12.872654)
(242.75331 2.8777566e-17 -12.833449)
(242.12918 -9.1071152e-18 -12.905396)
(241.4844 3.4540849e-17 -12.937676)
(240.8166 0 -12.972092)
(240.12629 0 -12.997374)
(239.41342 -2.3589435e-16 -13.014924)
(238.67822 2.092049e-16 -13.023388)
(237.92102 0 -13.021921)
(237.14233 0 -13.00954)
(236.3428 -1.9035396e-16 -12.985262)
(235.52327 3.6024067e-16 -12.948104)
(234.68477 -1.7038217e-16 -12.897085)
(233.82852 -2.0185515e-17 -12.831255)
(232.95596 -3.8231224e-17 -12.749709)
(232.0687 -1.448648e-16 -12.651608)
(231.16857 1.196078e-16 -12.536199)
(230.25756 0 -12.402839)
(229.33787 -3.0634218e-17 -12.25101)
(228.41181 0 -12.08035)
(227.48184 0 -11.890657)
(226.55052 2.0680827e-16 -11.681918)
(225.62048 -2.192004e-16 -11.454315)
(224.69436 2.2994516e-17 -11.208234)
(223.77481 -2.1696774e-17 -10.944268)
(222.86442 -4.1018668e-17 -10.663223)
(221.9657 -8.5186864e-20 -10.366103)
(221.08103 8.0928914e-20 -10.054101)
(220.21263 -7.6383318e-20 -9.728589)
(219.36254 0 -9.3910876)
(218.53256 -1.2176906e-16 -9.0432496)
(217.72428 1.1434642e-16 -8.6868263)
(216.93904 0 -8.3236402)
(216.1779 -5.0681771e-17 -7.9555581)
(215.4417 1.9048881e-16 -7.5844535)
(214.731 -2.2330645e-16 -7.2121825)
(214.04614 -2.1009008e-16 -6.8405541)
(213.38724 1.5751231e-16 -6.471305)
(212.75418 1.1109155e-16 -6.1060775)
(212.1467 -1.3866767e-16 -5.7464014)
(211.56433 -3.2510797e-17 -5.3936764)
(211.00648 -2.135767e-16 -5.0491642)
(210.47242 1.1422809e-16 -4.7139762)
(209.9613 -1.0713485e-16 -4.3890731)
(209.4722 1.0020751e-16 -4.0752623)
(209.00408 2.3478935e-16 -3.773199)
(208.55588 -1.7560081e-16 -3.4833894)
(208.12644 0 -3.2062038)
(207.71454 -3.8427128e-17 -2.9418763)
(207.31892 -7.1930026e-17 -2.6905157)
(206.93832 1.3440309e-16 -2.4521437)
(206.57137 1.2574688e-16 -2.2266582)
(206.21654 -2.3498812e-16 -2.0138535)
(205.872 8.2298625e-17 -1.8134301)
(205.53551 5.1302054e-17 -1.6249948)
(205.20443 9.5909569e-17 -1.4480742)
(204.87589 1.3445674e-16 -1.2821386)
(204.5471 2.4253683e-20 -1.1266164)
(204.21565 0 -0.98084487)
(203.87914 0 -0.84416831)
(203.53417 -3.4218378e-17 -0.71637227)
(203.17627 9.6006988e-17 -0.59721955)
(202.8029 -8.9795228e-17 -0.48492623)
(202.41445 -8.405804e-17 -0.38017956)
(202.0064 5.2455394e-17 -0.28957124)
(201.57742 0 -0.20256023)
(201.16076 4.6080929e-17 -0.10658571)
(200.70924 2.0258362e-20 -0.021922931)
(220.74142 0 -23.58346)
(259.29068 1.9118636e-20 -6.2802764)
(242.50555 9.0710759e-18 -23.339854)
(251.82351 2.8837256e-16 -8.0254472)
(245.69042 3.3406197e-19 -21.315207)
(248.7266 -5.0581259e-16 -10.618421)
(246.16259 -3.2423965e-19 -18.929782)
(246.85132 4.5620921e-16 -13.092863)
(245.67534 -2.0990135e-16 -17.028877)
(245.42076 -1.2450734e-17 -14.782178)
(244.70455 1.1825482e-17 -16.034672)
(244.14862 -1.7956359e-16 -15.534992)
(243.50285 1.913029e-16 -15.783442)
(242.85474 -1.8177134e-16 -15.747983)
(242.17704 3.0619798e-16 -15.792841)
(241.47689 -3.085066e-16 -15.806765)
(240.75251 1.3749835e-16 -15.817496)
(240.00436 0 -15.817595)
(239.23261 0 -15.807332)
(238.43767 1.4646828e-17 -15.785362)
(237.62014 -2.7772096e-17 -15.750623)
(236.78078 0 -15.701971)
(235.9206 1.994344e-16 -15.63827)
(235.0408 4.7319374e-19 -15.558411)
(234.1428 -3.5692692e-16 -15.461314)
(233.22826 1.6865015e-16 -15.345965)
(232.29907 1.9954878e-17 -15.211437)
(231.35731 0 -15.056908)
(230.40528 -1.7876134e-16 -14.881693)
(229.44548 1.3479673e-16 -14.685262)
(228.48054 -2.2353378e-16 -14.467267)
(227.51325 2.1040012e-16 -14.227563)
(226.54646 -2.2771375e-16 -13.966216)
(225.58311 2.1434202e-16 -13.683532)
(224.62612 7.5983952e-17 -13.380047)
(223.6784 0 -13.056542)
(222.74274 0 -12.714037)
(221.82185 4.2350111e-17 -12.353774)
(220.91823 3.9888529e-17 -11.977209)
(220.03419 -3.7554474e-17 -11.585988)
(219.17179 3.5342142e-17 -11.181918)
(218.33285 6.6678927e-17 -10.766936)
(217.51887 -6.2627958e-17 -10.343085)
(216.73108 3.5310306e-16 -9.9124648)
(215.9704 -2.7620915e-16 -9.4772071)
(215.23747 5.1842416e-17 -9.0394382)
(214.53264 -4.8781037e-17 -8.6012442)
(213.856 0 -8.1646432)
(213.2074 2.1440612e-16 -7.7315572)
(212.58646 -1.6059291e-16 -7.3037913)
(211.99264 0 -6.8830123)
(211.4252 0 -6.4707379)
(210.88329 1.3214273e-16 -6.0683231)
(210.36593 -6.1762702e-17 -5.6769568)
(209.87205 0 -5.2976577)
(209.40052 -1.6228091e-16 -4.9312759)
(208.95013 1.0101552e-16 -4.5784978)
(208.51966 1.4178946e-16 -4.2398501)
(208.10784 -1.7637228e-16 -3.9157077)
(207.71337 1.6485675e-16 -3.6063096)
(207.33493 -1.5377473e-16 -3.3117602)
(206.97116 6.6462593e-20 -3.0320421)
(206.62075 0 -2.7670538)
(206.2823 6.2503778e-17 -2.5165824)
(205.95429 -2.9141552e-16 -2.2803145)
(205.63494 1.6297938e-16 -2.0578498)
(205.32207 0 -1.8487008)
(205.01311 -1.417027e-16 -1.652309)
(204.70521 8.8022912e-17 -1.4680738)
(204.39558 1.23141e-16 -1.2953458)
(204.08186 3.3878292e-20 -1.1333732)
(203.76176 -7.1270491e-17 -0.98149206)
(203.43201 9.9674045e-17 -0.83954758)
(203.08836 -1.548404e-16 -0.70698423)
(202.72854 8.6605911e-17 -0.58174346)
(202.35154 2.6905567e-17 -0.46644518)
(201.95197 5.0220622e-17 -0.36760814)
(201.53696 0 -0.26361698)
(201.13477 -4.3749627e-17 -0.15480709)
(200.6591 2.037337e-17 -0.11921298)
(221.17236 0 -27.090139)
(260.05091 9.8061761e-18 -8.9221183)
(242.73872 -3.0581322e-16 -26.845912)
(252.33365 2.4969129e-16 -10.793922)
(245.91771 2.5648512e-16 -24.703711)
(249.02174 -5.0023964e-16 -13.547172)
(246.34467 2.300994e-16 -22.12829)
(247.00004 2.3295946e-16 -16.184328)
(245.78069 -2.2077818e-16 -20.087503)
(245.46348 3.9298438e-17 -17.917207)
(244.70277 0 -19.053049)
(244.08795 0 -18.613606)
(243.38835 -2.2351186e-17 -18.801244)
(242.68111 -1.6969417e-16 -18.765288)
(241.9435 1.4043457e-16 -18.78236)
(241.18134 1.9050701e-17 -18.774401)
(240.39347 -3.6112716e-17 -18.758465)
(239.58052 3.0811412e-16 -18.729492)
(238.74295 -2.2642081e-16 -18.686948)
(237.88152 2.4576017e-16 -18.629378)
(236.99719 -2.0308746e-16 -18.55551)
(236.09116 2.7535555e-17 -18.464043)
(235.16486 1.5643959e-16 -18.353709)
(234.22001 -1.9676077e-16 -18.223307)
(233.25855 0 -18.071709)
(232.28268 0 -17.897897)
(231.29485 0 -17.700996)
(230.29773 -1.9707578e-16 -17.480293)
(229.29417 1.8564637e-16 -17.235268)
(228.28722 -3.5177274e-17 -16.965619)
(227.28003 0 -16.671289)
(226.27583 -2.819991e-16 -16.352478)
(225.2779 2.3569127e-16 -16.009655)
(224.2895 -5.5747845e-17 -15.643569)
(223.3138 1.5765737e-16 -15.255251)
(222.35385 -4.8989898e-17 -14.845989)
(221.41252 -1.8583255e-16 -14.417334)
(220.49246 2.1922762e-16 -13.971064)
(219.59603 -1.6458247e-16 -13.509157)
(218.72532 7.7634436e-17 -13.033761)
(217.88206 -7.2848355e-17 -12.547155)
(217.06766 1.3693962e-16 -12.051701)
(216.28317 -6.4167268e-17 -11.549818)
(215.52931 -2.4150844e-16 -11.043928)
(214.80645 5.0925313e-16 -10.536421)
(214.11465 -2.1209769e-16 -10.029622)
(213.4537 -1.49466e-16 -9.5257559)
(212.82311 9.2926717e-17 -9.0269198)
(212.22218 8.7414978e-17 -8.5350623)
(211.65003 -1.6353086e-16 -8.0519658)
(211.10559 1.5278982e-16 -7.5792336)
(210.5877 0 -7.118284)
(210.09509 1.3373553e-16 -6.6703455)
(209.62643 -1.8731952e-16 -6.2364587)
(209.18035 5.8374986e-17 -5.8174799)
(208.75543 5.4402936e-17 -5.4140875)
(208.35026 0 -5.0267925)
(207.96342 0 -4.6559466)
(207.59351 0 -4.3017537)
(207.23912 0 -3.9642884)
(206.89885 0 -3.6434986)
(206.57131 -7.1475468e-17 -3.3392198)
(206.25515 0 -3.0512112)
(205.94898 -5.4421436e-20 -2.7791359)
(205.65132 2.3079638e-16 -2.5225641)
(205.36045 -2.1469908e-16 -2.2809884)
(205.07431 -9.9943618e-17 -2.0538234)
(204.79042 -1.8582783e-16 -1.8404276)
(204.50596 2.5902715e-16 -1.6401283)
(204.21818 4.5290481e-20 -1.452196)
(203.92476 7.4604266e-17 -1.275808)
(203.62351 0 -1.1103328)
(203.31131 0 -0.9556115)
(202.98438 0 -0.81064308)
(202.64048 -1.1135487e-16 -0.67347419)
(202.27673 0 -0.54892717)
(201.88825 -9.6210477e-17 -0.44144992)
(201.49051 1.3414064e-16 -0.31941088)
(201.10207 8.3164396e-17 -0.20332751)
(200.60826 -1.926808e-17 -0.21278414)
(221.39198 0 -30.774215)
(260.61059 0 -11.672544)
(242.77763 3.2174126e-16 -30.483762)
(252.66203 1.9304417e-17 -13.720889)
(245.95937 -2.6923272e-16 -28.201826)
(249.13467 0 -16.653632)
(246.32698 1.6131539e-17 -25.405298)
(247.02203 -3.0578302e-17 -19.430011)
(245.63862 0 -23.211364)
(245.25074 1.9275548e-16 -21.171937)
(244.43853 -4.1731359e-16 -22.168797)
(243.75432 1.9760499e-16 -21.797301)
(242.99112 2.3454405e-17 -21.9262)
(242.21485 0 -21.88521)
(241.40743 2.1046039e-17 -21.873654)
(240.57354 -3.3949143e-16 -21.839464)
(239.71269 7.4840644e-17 -21.792332)
(238.82578 2.5019255e-16 -21.728601)
(237.9137 2.3760912e-16 -21.64724)
(236.97764 -2.5629274e-16 -21.546677)
(236.01906 0 -21.425471)
(235.03971 -2.8758086e-16 -21.282212)
(234.04161 2.4417427e-16 -21.115551)
(233.02708 -2.0581297e-16 -20.924262)
(231.99875 1.939823e-16 -20.70725)
(230.95947 -1.8384004e-16 -20.46359)
(229.91235 3.4680779e-16 -20.192573)
(228.86074 -1.6365963e-16 -19.893717)
(227.80811 1.5478499e-16 -19.566816)
(226.75809 -2.9181898e-16 -19.211947)
(225.71434 1.373482e-16 -18.829501)
(224.68054 1.2971725e-16 -18.420191)
(223.66031 -2.4474683e-16 -17.985046)
(222.65713 5.681873e-17 -17.525415)
(221.6743 -5.7593665e-19 -17.042955)
(220.71486 2.546337e-16 -16.539589)
(219.78156 0 -16.017497)
(218.87681 1.9385605e-19 -15.479065)
(218.00263 0 -14.926842)
(217.16064 -7.948434e-17 -14.363498)
(216.35206 -1.4937856e-16 -13.791777)
(215.5777 7.0135117e-17 -13.214437)
(214.83797 0 -12.634219)
(214.13291 -6.180496e-17 -12.053791)
(213.4622 2.8928119e-16 -11.475715)
(212.82523 -3.2477109e-16 -10.902411)
(212.22112 -3.0430899e-16 -10.336135)
(211.64876 2.841282e-16 -9.778952)
(211.10687 -1.7731567e-16 -9.2327251)
(210.59401 0 -8.699107)
(210.10865 0 -8.1795357)
(209.64921 7.2369064e-17 -7.6752361)
(209.21404 6.7537552e-17 -7.1872258)
(208.8015 1.2586657e-16 -6.7163223)
(208.40995 -5.8692775e-17 -6.2631539)
(208.03777 -1.093312e-16 -5.8281724)
(207.68339 -2.0388304e-16 -5.4116665)
(207.34526 -9.5117247e-17 -5.0137748)
(207.02188 1.7658896e-16 -4.6344995)
(206.7118 0 -4.2737273)
(206.41358 -7.6487639e-17 -3.9312305)
(206.12583 -1.4217473e-16 -3.6066848)
(205.84722 1.3209332e-16 -3.2997021)
(205.5764 6.1267875e-17 -3.0098141)
(205.31194 5.6984101e-17 -2.7364723)
(205.05224 0 -2.4790608)
(204.79537 1.9645174e-16 -2.2368988)
(204.53896 1.822899e-16 -2.0092656)
(204.28029 -2.5366095e-16 -1.7954172)
(204.01666 7.8451097e-17 -1.5945445)
(203.74575 -7.2717694e-17 -1.4057864)
(203.46543 -4.4162939e-20 -1.2285736)
(203.17285 2.4993669e-16 -1.0626392)
(202.86488 -2.3164179e-16 -0.90648176)
(202.53897 5.3630323e-17 -0.75871725)
(202.19013 1.4918183e-16 -0.62625956)
(201.81525 -4.6084867e-17 -0.50960824)
(201.43747 -4.2689708e-17 -0.3692533)
(201.06243 0 -0.25024807)
(200.55547 3.6561604e-17 -0.30083227)
(221.41091 3.9132218e-16 -34.645464)
(260.97503 5.4354775e-19 -14.538935)
(242.6006 -3.5860828e-16 -34.269733)
(252.80249 0 -16.812205)
(245.73873 0 -31.775945)
(248.9082 -2.6754785e-16 -19.933713)
(246.00305 2.7066069e-16 -28.737274)
(246.5286 6.4194371e-17 -22.836672)
(245.22503 -2.4365604e-16 -26.435448)
(244.75812 2.3046511e-16 -24.572374)
(243.88386 -2.4631925e-16 -25.409054)
(243.1174 2.070324e-16 -25.101129)
(242.27848 -4.9116115e-17 -25.170874)
(241.42147 -4.6576465e-17 -25.115278)
(240.53269 -1.7649761e-16 -25.070087)
(239.61596 1.6670553e-16 -25.001928)
(238.67149 -3.5601413e-16 -24.915646)
(237.70058 5.9844144e-16 -24.808282)
(236.70464 -2.8275722e-16 -24.678412)
(235.68548 -2.6829656e-16 -24.524323)
(234.6452 2.5300655e-16 -24.344442)
(233.58626 -3.0130928e-17 -24.137286)
(232.51143 -2.2681113e-16 -23.901504)
(231.42383 2.1365776e-16 -23.635939)
(230.32684 2.5310802e-16 -23.339646)
(229.22415 -1.4271886e-16 -23.011936)
(228.11962 0 -22.652426)
(227.01731 2.5524621e-16 -22.26105)
(225.92136 -3.2059936e-16 -21.838104)
(224.83596 1.1280512e-16 -21.384246)
(223.76524 -2.8521302e-16 -20.900517)
(222.7132 2.0094502e-16 -20.388329)
(221.68366 -6.3318786e-17 -19.849458)
(220.68015 2.3795072e-16 -19.286007)
(219.70587 -2.2320177e-16 -18.700391)
(218.76363 -2.1036847e-16 -18.095274)
(217.8558 1.9717246e-16 -17.473531)
(216.98426 -4.6245566e-17 -16.838193)
(216.15044 0 -16.192382)
(215.35526 8.1838625e-17 -15.539259)
(214.59916 -7.6383518e-17 -14.881966)
(213.88214 0 -14.223573)
(213.2038 1.3450343e-16 -13.567029)
(212.56334 -6.2918569e-17 -12.915122)
(211.95966 -1.7642089e-16 -12.270449)
(211.3914 5.5030273e-16 -11.635388)
(210.85695 -2.0604162e-16 -11.01208)
(210.35459 9.6100012e-17 -10.402426)
(209.88244 -2.6946424e-16 -9.8080734)
(209.43859 -1.8487932e-19 -9.2304291)
(209.02106 1.5623859e-16 -8.6706606)
(208.6279 -1.457537e-16 -8.1297084)
(208.25717 -6.7830554e-17 -7.6082998)
(207.907 -6.3183533e-17 -7.1069635)
(207.57556 -1.1797881e-16 -6.626046)
(207.26109 2.1909389e-16 -6.1657291)
(206.96192 0 -5.7260456)
(206.67645 9.4680585e-17 -5.3068954)
(206.40316 -3.5231237e-16 -4.908061)
(206.14058 2.4519727e-16 -4.5292283)
(205.88732 7.5883088e-17 -4.1699859)
(205.64202 1.4097111e-16 -3.8298465)
(205.4034 1.3098329e-16 -3.5082748)
(205.17019 -1.2119116e-16 -3.2046717)
(204.94107 -1.1230601e-16 -2.9183731)
(204.71455 -3.1241307e-16 -2.6486594)
(204.48885 -4.1401791e-20 -2.3947622)
(204.26178 -8.92819e-17 -2.1558882)
(204.03073 0 -1.931222)
(203.79308 -2.2952089e-16 -1.7198851)
(203.54649 7.0775325e-17 -1.5210199)
(203.28881 0 -1.3341248)
(203.01762 1.2108953e-16 -1.1586968)
(202.73051 0 -0.99278592)
(202.42434 1.0345012e-16 -0.83605794)
(202.09193 -1.433646e-16 -0.69701469)
(201.73319 1.3248849e-16 -0.57063907)
(201.37745 -8.1594687e-17 -0.41256521)
(201.01484 7.5364728e-17 -0.29398904)
(200.50011 0 -0.37788637)
(221.2169 -4.1109133e-16 -38.710268)
(261.13146 3.6309657e-16 -17.539054)
(242.17165 -3.3268778e-16 -38.233924)
(252.68805 3.3080573e-16 -20.08073)
(245.23264 3.1679682e-16 -35.408526)
(248.45236 -1.8005191e-17 -23.399328)
(245.43542 -2.8365571e-16 -32.151915)
(245.90541 -2.6927404e-16 -26.43562)
(244.51561 2.8660752e-16 -29.779356)
(243.94082 0 -28.120073)
(242.99402 2.8598441e-17 -28.781167)
(242.13271 0 -28.524592)
(241.20535 -1.2863194e-16 -28.53471)
(240.25529 2.4287403e-16 -28.452858)
(239.27294 0 -28.366226)
(238.26167 0 -28.253811)
(237.22248 0 -28.117422)
(236.15729 3.9117598e-17 -27.954371)
(235.06826 0 -27.762943)
(233.95799 -2.4466062e-16 -27.541328)
(232.82947 3.2964204e-16 -27.287885)
(231.68605 1.2473386e-16 -27.001174)
(230.53147 1.7687032e-16 -26.679963)
(229.36978 -2.7781647e-16 -26.323325)
(228.20534 -5.2353554e-17 -25.930654)
(227.04269 -2.4776899e-16 -25.501715)
(225.88657 1.864785e-16 -25.036679)
(224.74175 -2.2025715e-16 -24.536151)
(223.61298 8.240645e-17 -24.001173)
(222.5049 7.79135e-17 -23.433235)
(221.42196 0 -22.834258)
(220.36827 2.7719372e-16 -22.206562)
(219.34759 -2.6034382e-16 -21.55284)
(218.36322 0 -20.876099)
(217.41794 -2.3016505e-16 -20.179606)
(216.51397 2.1558352e-16 -19.466823)
(215.65296 -1.0159907e-16 -18.741334)
(214.83597 1.902165e-16 -18.006779)
(214.06348 -2.6727208e-16 -17.266781)
(213.33546 1.2829846e-19 -16.524883)
(212.65133 -1.5616278e-16 -15.784488)
(212.0101 -7.3084914e-17 -15.048812)
(211.41039 -1.371736e-16 -14.320841)
(210.85049 2.557146e-16 -13.603303)
(210.32846 -1.1933073e-16 -12.898647)
(209.84215 0 -12.209033)
(209.3893 -3.8233286e-19 -11.536331)
(208.96757 9.7079214e-17 -10.882124)
(208.5746 0 -10.247719)
(208.20804 8.4440893e-17 -9.63416)
(207.86559 7.8956442e-17 -9.0422501)
(207.54504 -7.3308703e-17 -8.4725675)
(207.24424 2.7293869e-16 -7.9254864)
(206.96119 -2.537332e-16 -7.4011988)
(206.69395 -1.1800825e-16 -6.8997332)
(206.44073 -1.0962907e-16 -6.4209755)
(206.19984 1.0179507e-16 -5.9646862)
(205.96971 1.888291e-16 -5.5305167)
(205.74883 -3.5026847e-16 -5.1180258)
(205.53582 4.0593714e-16 -4.7266992)
(205.32935 -1.5041216e-16 -4.3559449)
(205.12815 1.3942024e-16 -4.005119)
(204.93105 -1.2906043e-16 -3.6735479)
(204.73686 2.3902265e-16 -3.3605092)
(204.5444 -3.3181022e-16 -3.065233)
(204.35233 2.0454244e-16 -2.786907)
(204.15906 -8.0893575e-20 -2.5246872)
(203.96256 8.742948e-17 -2.2777157)
(203.76041 0 -2.0451073)
(203.55006 0 -1.8259334)
(203.32912 0 -1.6193862)
(203.09541 -1.2705931e-16 -1.4250009)
(202.84702 1.5399093e-20 -1.2419158)
(202.58234 0 -1.067914)
(202.29724 0 -0.90410958)
(201.98272 9.1898302e-17 -0.7596927)
(201.64282 -1.6935317e-16 -0.62313458)
(201.3107 0 -0.44904112)
(200.95871 0 -0.3358184)
(200.44187 -1.3191635e-16 -0.45051488)
(220.77633 2.7750314e-17 -42.978209)
(261.0429 -7.861352e-16 -20.695575)
(241.46325 3.4805064e-16 -42.338343)
(252.04721 -2.174443e-17 -23.530535)
(244.41095 3.7339526e-16 -39.162631)
(247.66135 -3.5211932e-16 -27.088916)
(244.55732 0 -35.683312)
(244.89511 -3.1718983e-16 -30.227078)
(243.45372 2.3317875e-16 -33.238459)
(242.75456 2.214775e-16 -31.807224)
(241.72168 -2.3906711e-16 -32.287557)
(240.75138 0 -32.06338)
(239.72111 1.9109478e-19 -32.011734)
(238.66437 0 -31.889754)
(237.5752 3.8510517e-16 -31.750256)
(236.45698 -7.2750162e-16 -31.579885)
(235.31168 3.4345938e-16 -31.378621)
(234.1421 -4.057259e-17 -31.143878)
(232.95143 -3.8554646e-17 -30.873761)
(231.74334 3.6644729e-17 -30.566451)
(230.52194 -6.8428241e-17 -30.220398)
(229.29177 -3.2416906e-16 -29.834358)
(228.05771 3.0510011e-16 -29.407458)
(226.82494 5.7516042e-17 -28.939256)
(225.59887 -2.7258247e-16 -28.429766)
(224.38501 -7.0020026e-19 -27.879524)
(223.18886 2.8951239e-16 -27.289577)
(222.01584 -1.8171246e-16 -26.661509)
(220.87115 -6.1505075e-19 -25.997418)
(219.75965 0 -25.299892)
(218.68575 0 -24.571971)
(217.65336 -7.1508943e-17 -23.817078)
(216.66577 1.3387393e-16 -23.038966)
(215.72559 0 -22.241627)
(214.83475 -1.1833014e-16 -21.429209)
(213.99447 2.2141229e-16 -20.605939)
(213.20526 -1.0373093e-16 -19.77602)
(212.46698 -1.9439792e-16 -18.943566)