/*--------------------------------*- C++ -*----------------------------------*\
  =========                 |
  \\      /  F ield         | OpenFOAM: The Open Source CFD Toolbox
   \\    /   O peration     | Website:  https://openfoam.org
    \\  /    A nd           | Version:  12
     \\/     M anipulation  |
\*---------------------------------------------------------------------------*/
FoamFile
{
    format      ascii;
    class       volScalarField;
    location    "0.085";
    object      nut;
}
// * * * * * * * * * * * * * * * * * * * * * * * * * * * * * * * * * * * * * //

dimensions      [0 2 -1 0 0 0 0];

internalField   nonuniform List<scalar> 
16000
(
4.7735397e-07
9.9452923e-06
1.9511059e-05
2.3973411e-05
1.8438077e-05
2.5302842e-05
1.7866399e-05
2.4447912e-05
1.9059622e-05
2.6235051e-05
2.2074748e-05
2.5909698e-05
2.3625074e-05
2.4245889e-05
2.3426068e-05
2.3289851e-05
2.3045285e-05
2.297815e-05
2.2989409e-05
2.309914e-05
2.329962e-05
2.3590236e-05
2.3968496e-05
2.443439e-05
2.4990051e-05
2.5641355e-05
2.6396242e-05
2.7267407e-05
2.8270307e-05
2.9421584e-05
3.0739549e-05
3.2248553e-05
3.398005e-05
3.597283e-05
3.8274628e-05
4.0942424e-05
4.4044128e-05
4.7660775e-05
5.1892708e-05
5.6864253e-05
6.2721399e-05
6.9636306e-05
7.7826084e-05
8.7556772e-05
9.9145339e-05
0.00011297262
0.00012951148
0.0001493392
0.00017316023
0.00020183531
0.00023642151
0.00027822147
0.00032883775
0.00039024847
0.00046489758
0.00055582125
0.00066681923
0.00080269439
0.00096955936
0.0010222491
0.0010219421
0.0010216163
0.0010211876
0.0010206423
0.0010199601
0.0010191189
0.0010181053
0.0010169203
0.0010155728
0.0010140856
0.0010125104
0.0010108845
0.001009737
0.0010088918
0.0010082169
0.0010075955
0.0010069375
0.0010068698
0.0010060115
0.001007297
4.2835585e-07
9.4459134e-06
1.9953546e-05
2.1564056e-05
1.6658402e-05
2.2728467e-05
1.5888188e-05
2.1449516e-05
1.6870943e-05
2.3208596e-05
2.0017597e-05
2.3393509e-05
2.1635485e-05
2.2001033e-05
2.1360644e-05
2.1174294e-05
2.0970737e-05
2.0899525e-05
2.0912236e-05
2.1012602e-05
2.1197854e-05
2.1467045e-05
2.181832e-05
2.2251758e-05
2.2769037e-05
2.3375674e-05
2.4078572e-05
2.4889198e-05
2.5822203e-05
2.6893841e-05
2.8121175e-05
2.9526491e-05
3.1138939e-05
3.2994489e-05
3.5137866e-05
3.7622726e-05
4.0513437e-05
4.3886268e-05
4.7834866e-05
5.2477176e-05
5.7953782e-05
6.4427191e-05
7.2102482e-05
8.1234142e-05
9.2127648e-05
0.00010514638
0.00012074319
0.00013947313
0.00016201536
0.000189201
0.0002220518
0.00026183102
0.00031009599
0.00036877423
0.00044025174
0.00052749715
0.00063422937
0.00076514513
0.00092622376
0.0010215975
0.0010212876
0.0010209502
0.0010205148
0.0010199662
0.0010192852
0.0010184496
0.0010174452
0.0010162748
0.0010149506
0.0010134908
0.0010119554
0.0010104028
0.0010092945
0.001008463
0.0010077696
0.0010070829
0.0010064221
0.0010060648
0.0010059585
0.0010073884
3.7932929e-07
9.0566053e-06
1.8889045e-05
1.9806685e-05
1.4943515e-05
2.0042661e-05
1.4169849e-05
1.8671273e-05
1.5191942e-05
2.0397364e-05
1.827933e-05
2.0865828e-05
1.9628759e-05
1.9734462e-05
1.9240872e-05
1.9033306e-05
1.8861746e-05
1.8795897e-05
1.8811669e-05
1.8906746e-05
1.9079673e-05
1.9329854e-05
1.9655766e-05
2.0057746e-05
2.0537116e-05
2.1099203e-05
2.1750183e-05
2.2500461e-05
2.3363717e-05
2.4355813e-05
2.5492981e-05
2.6795869e-05
2.8291722e-05
3.0014074e-05
3.2004978e-05
3.4315036e-05
3.7005494e-05
4.014891e-05
4.3833325e-05
4.8170311e-05
5.3296086e-05
5.9365799e-05
6.6574247e-05
7.5165137e-05
8.5434917e-05
9.7732974e-05
0.00011249558
0.00013025941
0.00015168309
0.00017757439
0.0002089268
0.00024697233
0.00029323236
0.00034959497
0.000418402
0.00050257167
0.00060576359
0.00073260167
0.00088896738
0.0010209795
0.0010206638
0.0010203071
0.0010198561
0.0010192951
0.0010186058
0.0010177669
0.0010167635
0.0010155996
0.0010142925
0.0010128572
0.001011353
0.0010098913
0.001008836
0.0010080218
0.0010073049
0.0010065768
0.0010058742
0.0010053833
0.0010055823
0.0010072238
3.4345437e-07
8.7657945e-06
1.7950474e-05
1.8345988e-05
1.3446594e-05
1.7723421e-05
1.2642973e-05
1.6341311e-05
1.3689488e-05
1.8003144e-05
1.6706155e-05
1.8618988e-05
1.7769055e-05
1.7685195e-05
1.7301385e-05
1.7093089e-05
1.6949744e-05
1.6894309e-05
1.6915892e-05
1.700923e-05
1.7173434e-05
1.740832e-05
1.7712711e-05
1.8087323e-05
1.853324e-05
1.9055735e-05
1.9660509e-05
2.0357123e-05
2.1158338e-05
2.2079698e-05
2.3136887e-05
2.4349166e-05
2.5742228e-05
2.7347511e-05
2.9204804e-05
3.1362071e-05
3.3877857e-05
3.6821813e-05
4.0277516e-05
4.4350575e-05
4.9173853e-05
5.4896925e-05
6.1706297e-05
6.9835983e-05
7.9575947e-05
9.1264791e-05
0.00010532562
0.00012228086
0.00014277332
0.00016759386
0.00019771458
0.00023434495
0.0002789803
0.00033348132
0.00040016029
0.00048190258
0.00058232887
0.00070601657
0.00085878945
0.0010204056
0.0010200831
0.0010197035
0.0010192331
0.0010186565
0.0010179559
0.001017111
0.0010161062
0.0010149456
0.0010136519
0.0010122394
0.0010107577
0.0010093843
0.0010083772
0.0010075728
0.0010068305
0.0010060676
0.0010053167
0.0010047875
0.0010050977
0.0010063648
3.1153207e-07
8.5470957e-06
1.712984e-05
1.8354986e-05
1.3366955e-05
1.5689152e-05
1.1297534e-05
1.4333251e-05
1.239428e-05
1.5926904e-05
1.5301893e-05
1.6586686e-05
1.6026435e-05
1.581424e-05
1.5511972e-05
1.5317229e-05
1.5197595e-05
1.5153529e-05
1.5180079e-05
1.5271376e-05
1.5426739e-05
1.5646554e-05
1.5930036e-05
1.627839e-05
1.6692601e-05
1.7177973e-05
1.7739873e-05
1.8387201e-05
1.91318e-05
1.9988856e-05
2.0973698e-05
2.2104433e-05
2.3405467e-05
2.490643e-05
2.6645162e-05
2.8667327e-05
3.1029052e-05
3.3797635e-05
3.7053315e-05
4.0895998e-05
4.545572e-05
5.0877899e-05
5.7342566e-05
6.5074577e-05
7.435904e-05
8.5526234e-05
9.8988466e-05
0.00011525655
0.00013496033
0.00015887777
0.00018796367
0.00022340998
0.0002666915
0.0003196478
0.00038456907
0.00046431668
0.00056248319
0.00068361147
0.00083348504
0.0010194586
0.0010195409
0.0010191343
0.00101864
0.0010180435
0.0010173273
0.0010164724
0.0010154629
0.0010143019
0.0010130166
0.0010116252
0.0010101646
0.0010088766
0.0010079134
0.0010071137
0.0010063479
0.0010055583
0.0010047717
0.0010042474
0.0010045668
0.0010052726
2.8621671e-07
8.4138137e-06
1.64753e-05
1.814896e-05
1.3167591e-05
1.3906538e-05
1.0618219e-05
1.2669745e-05
1.1362125e-05
1.41626e-05
1.4066296e-05
1.4796388e-05
1.4429503e-05
1.4142384e-05
1.3892249e-05
1.3713607e-05
1.3609758e-05
1.3573169e-05
1.3601238e-05
1.3688393e-05
1.3833935e-05
1.4038753e-05
1.4302284e-05
1.4626154e-05
1.5011338e-05
1.5463141e-05
1.5986662e-05
1.6590282e-05
1.7284956e-05
1.8085468e-05
1.9006966e-05
2.006662e-05
2.1287821e-05
2.2698693e-05
2.4335478e-05
2.6241928e-05
2.8472124e-05
3.1091489e-05
3.4178137e-05
3.7827041e-05
4.2165631e-05
4.7336643e-05
5.3515978e-05
6.0920148e-05
6.9831191e-05
8.0573968e-05
9.3552811e-05
0.00010927038
0.00012834691
0.00015155268
0.00017983045
0.0002143613
0.00025660704
0.00030839468
0.00037200265
0.00045028025
0.00054680634
0.00066610497
0.00081393775
0.00099763723
0.0010190327
0.0010185957
0.0010180736
0.0010174537
0.0010167188
0.0010158506
0.0010148337
0.0010136693
0.0010123877
0.0010110144
0.0010095733
0.001008364
0.0010074393
0.0010066422
0.0010058596
0.0010050562
0.0010042608
0.0010037655
0.0010040289
0.0010043002
2.5593968e-07
8.3402396e-06
1.5961556e-05
1.7210746e-05
1.3062606e-05
1.2295881e-05
1.0700705e-05
1.1644835e-05
1.108562e-05
1.2658479e-05
1.2955365e-05
1.3212359e-05
1.2947259e-05
1.262765e-05
1.2407282e-05
1.2244679e-05
1.2152443e-05
1.2121925e-05
1.2150969e-05
1.2234592e-05
1.2371803e-05
1.2563922e-05
1.2810338e-05
1.303653e-05
1.338742e-05
1.3802218e-05
1.428528e-05
1.4844272e-05
1.5489068e-05
1.6233717e-05
1.7093138e-05
1.808359e-05
1.9227522e-05
2.055161e-05
2.20906e-05
2.3886481e-05
2.599139e-05
2.8468889e-05
3.1395698e-05
3.5125359e-05
3.9283591e-05
4.4250963e-05
5.0201646e-05
5.7344967e-05
6.5960882e-05
7.6371699e-05
8.8976552e-05
0.00010427312
0.00012287494
0.00014554951
0.0001732323
0.00020709963
0.00024860723
0.0002995772
0.00036228521
0.00043957901
0.0005350363
0.00065317587
0.00079974847
0.00098207757
0.0010185542
0.0010180837
0.0010175302
0.0010168837
0.001016127
0.0010152426
0.0010142157
0.0010130453
0.001011762
0.0010104026
0.0010089826
0.0010078438
0.0010069538
0.0010061625
0.0010053747
0.0010045747
0.0010037967
0.0010033422
0.0010035283
0.0010034651
2.3262201e-07
8.3000345e-06
1.5524534e-05
1.5685861e-05
1.207407e-05
1.0718947e-05
9.333897e-06
1.0421864e-05
9.8059111e-06
1.1370995e-05
1.1838849e-05
1.1757544e-05
1.1532293e-05
1.1220683e-05
1.1024288e-05
1.0881809e-05
1.0803292e-05
1.0781475e-05
1.0749096e-05
1.081623e-05
1.0936973e-05
1.1111701e-05
1.1338078e-05
1.1616573e-05
1.1951327e-05
1.2345474e-05
1.2803664e-05
1.3333495e-05
1.3944295e-05
1.4649686e-05
1.5464779e-05
1.6405348e-05
1.7493383e-05
1.8754638e-05
2.0222974e-05
2.1939255e-05
2.3954433e-05
2.633091e-05
2.9144901e-05
3.248934e-05
3.6477687e-05
4.125374e-05
4.6991733e-05
5.4349255e-05
6.2749682e-05
7.2922652e-05
8.5265258e-05
0.00010027331
0.00011855674
0.00014088557
0.00016819311
0.00020165746
0.00024273592
0.00029325407
0.00035549473
0.00043231555
0.0005273066
0.00064499719
0.00079114114
0.00097306572
0.0010181006
0.0010175933
0.0010170053
0.0010163293
0.0010155482
0.0010146449
0.0010136058
0.0010124276
0.001011137
0.001009785
0.0010083904
0.0010073136
0.0010064576
0.0010056804
0.001004903
0.0010041238
0.0010033814
0.0010029592
0.0010030537
0.0010027687
2.152613e-07
8.2601401e-06
1.5074047e-05
1.3736836e-05
9.9361279e-06
9.527052e-06
7.6866364e-06
8.882027e-06
9.0580637e-06
1.0236909e-05
1.070195e-05
1.04022e-05
1.0195141e-05
9.9154526e-06
9.7433992e-06
9.5564664e-06
9.4687003e-06
9.4424486e-06
9.4702045e-06
9.5490478e-06
9.6749626e-06
9.8494271e-06
1.0071537e-05
1.0341297e-05
1.0662945e-05
1.1040508e-05
1.1478683e-05
1.1985102e-05
1.2568718e-05
1.3242706e-05
1.4022461e-05
1.4923495e-05
1.5967624e-05
1.7179953e-05
1.859379e-05
2.0249309e-05
2.2196738e-05
2.4497829e-05
2.7228148e-05
3.0479789e-05
3.4366521e-05
3.9030078e-05
4.4647447e-05
5.1424687e-05
5.9626385e-05
6.958256e-05
8.2412589e-05
9.7264534e-05
0.0001153861
0.00013755493
0.00016470775
0.00019803108
0.00023899159
0.00028942721
0.00035163814
0.00042850386
0.00052364066
0.00064160501
0.00078816921
0.00097067489
0.0010176664
0.0010171193
0.0010164942
0.001015786
0.0010149783
0.001014054
0.0010130008
0.0010118136
0.0010105111
0.001009157
0.0010077982
0.0010067757
0.0010059552
0.0010052038
0.001004453
0.0010037092
0.0010030124
0.0010026018
0.0010025772
0.0010019402
1.9693417e-07
8.2192013e-06
1.3694264e-05
1.1962368e-05
8.0388972e-06
8.4589483e-06
6.802548e-06
8.0144297e-06
8.3873749e-06
9.1541844e-06
9.5721008e-06
9.1628006e-06
8.9619055e-06
8.6358514e-06
8.4549697e-06
8.3384548e-06
8.283434e-06
8.2812975e-06
8.3261268e-06
8.4145902e-06
8.547477e-06
8.7222025e-06
8.9411185e-06
9.2043124e-06
9.5162164e-06
9.8812492e-06
1.0304263e-05
1.0793045e-05
1.135631e-05
1.2006814e-05
1.2760287e-05
1.3632278e-05
1.4644651e-05
1.5822134e-05
1.7197792e-05
1.8811505e-05
2.0713206e-05
2.2964512e-05
2.5641247e-05
2.883586e-05
3.2662154e-05
3.7261417e-05
4.281375e-05
4.9525296e-05
5.7662965e-05
6.7558928e-05
7.9624171e-05
9.4344166e-05
0.00011336401
0.00013556106
0.00016278347
0.00019623272
0.00023739337
0.00028812497
0.00035075622
0.00042820115
0.00052411677
0.00064310507
0.00079097575
0.00097509542
0.0010172458
0.0010166562
0.0010159919
0.0010152494
0.0010144132
0.0010134665
0.0010123976
0.0010112017
0.0010098855
0.0010085163
0.0010072105
0.0010062365
0.0010054544
0.0010047401
0.0010040293
0.0010033309
0.0010026867
0.0010022626
0.0010020849
0.0010011979
1.8178879e-07
8.1734181e-06
1.0880654e-05
9.9786856e-06
6.5887051e-06
7.5283992e-06
6.1962713e-06
7.1970089e-06
7.8417006e-06
8.1701848e-06
8.4605672e-06
7.9469764e-06
7.6995682e-06
7.4715894e-06
7.336867e-06
7.2583223e-06
7.2313041e-06
7.2498272e-06
7.3095288e-06
7.4090837e-06
7.5459664e-06
7.7225457e-06
7.9402647e-06
8.1996842e-06
8.5053355e-06
8.862069e-06
9.2750016e-06
9.7521263e-06
1.0302119e-05
1.0937382e-05
1.1614492e-05
1.2458214e-05
1.3440243e-05
1.4584901e-05
1.5924998e-05
1.7500144e-05
1.9360031e-05
2.1566181e-05
2.4194774e-05
2.7338868e-05
3.1113281e-05
3.5939922e-05
4.1483544e-05
4.8197199e-05
5.6350206e-05
6.6278039e-05
7.8402898e-05
9.3221271e-05
0.00011136194
0.00013361307
0.00016242019
0.00019626652
0.000237951
0.0002893646
0.00035287623
0.0004314482
0.00052879322
0.00064957804
0.00079967296
0.00098648289
0.001016833
0.0010161986
0.0010154937
0.0010147153
0.0010138495
0.0010128796
0.0010117942
0.0010105899
0.0010092646
0.0010078685
0.0010066355
0.0010057062
0.0010049646
0.0010042951
0.001003633
0.0010029857
0.0010023981
0.0010019512
0.0010016433
0.0010007477
1.6826157e-07
8.1265413e-06
8.5787155e-06
8.4339636e-06
5.7668021e-06
6.6643738e-06
5.6848857e-06
6.4809681e-06
7.2856811e-06
7.2497255e-06
7.255242e-06
6.8185144e-06
6.6158582e-06
6.4474526e-06
6.3519686e-06
6.3050231e-06
6.3019268e-06
6.3386912e-06
6.4115776e-06
6.5204014e-06
6.6639113e-06
6.8437731e-06
7.062557e-06
7.3212884e-06
7.6245824e-06
7.9436238e-06
8.3448105e-06
8.8094544e-06
9.3460921e-06
9.9666839e-06
1.0685653e-05
1.1521758e-05
1.2496192e-05
1.3633344e-05
1.4966323e-05
1.6535137e-05
1.8390066e-05
2.0593417e-05
2.3222851e-05
2.6373341e-05
3.0162344e-05
3.4736886e-05
4.0277533e-05
4.7001533e-05
5.5182475e-05
6.5727716e-05
7.8024259e-05
9.307273e-05
0.00011151254
0.00013415484
0.00016199779
0.00019813017
0.00024066749
0.00029315601
0.00035801694
0.00043827583
0.00053771667
0.00066109027
0.00081435468
0.0010049735
0.0010164222
0.0010157416
0.0010149953
0.0010141803
0.0010132844
0.0010122917
0.0010111893
0.0010099761
0.0010086523
0.0010072454
0.0010060831
0.0010051965
0.0010044949
0.0010038732
0.0010032644
0.00100267
0.0010021356
0.0010016784
0.0010012639
0.0010003979
1.5616276e-07
8.0698376e-06
6.812609e-06
7.3984808e-06
5.1321387e-06
5.8897223e-06
5.2448965e-06
5.8455234e-06
6.6242004e-06
6.2064021e-06
6.1667988e-06
5.8303731e-06
5.6689135e-06
5.5485939e-06
5.4866506e-06
5.4668942e-06
5.485008e-06
5.5384442e-06
5.6243625e-06
5.7431917e-06
5.894276e-06
6.0795903e-06
6.2756844e-06
6.5312442e-06
6.8309447e-06
7.1790419e-06
7.5826804e-06
8.0495292e-06
8.5883411e-06
9.211275e-06
9.9328998e-06
1.0771751e-05
1.1750256e-05
1.2893162e-05
1.4234122e-05
1.5813901e-05
1.768389e-05
1.9907677e-05
2.2565092e-05
2.5754019e-05
2.9594731e-05
3.4237396e-05
3.9871496e-05
4.6719485e-05
5.5063091e-05
6.5253847e-05
7.7730032e-05
9.3024139e-05
0.00011277968
0.00013600189
0.00016457583
0.00019978134
0.00024552981
0.00029949039
0.00036617446
0.00044868689
0.00055089976
0.00067766583
0.00083505986
0.0010167033
0.001016008
0.0010152807
0.0010144933
0.0010136416
0.0010127157
0.0010117015
0.0010105835
0.0010093592
0.0010080429
0.0010066589
0.0010055627
0.0010047171
0.0010040526
0.0010034776
0.0010029241
0.0010023808
0.0010018878
0.0010014383
0.0010009889
0.0010001737
1.4536308e-07
7.9983824e-06
5.4545921e-06
6.4558664e-06
4.5690534e-06
5.2008849e-06
4.8683475e-06
5.1987007e-06
5.7933691e-06
5.299254e-06
5.2109359e-06
4.9648434e-06
4.842164e-06
4.7619353e-06
4.7296907e-06
4.734367e-06
4.7722343e-06
4.8418159e-06
4.9410449e-06
5.0520104e-06
5.2065399e-06
5.3951139e-06
5.6200379e-06
5.8843266e-06
6.192316e-06
6.5486466e-06
6.9603906e-06
7.4358444e-06
7.9839856e-06
8.6171332e-06
9.3499763e-06
1.0201273e-05
1.1143486e-05
1.2292953e-05
1.3642583e-05
1.5233858e-05
1.7119472e-05
1.936433e-05
2.205045e-05
2.5279102e-05
2.9174344e-05
3.4147635e-05
3.9926905e-05
4.6961416e-05
5.5542052e-05
6.6029772e-05
7.8882648e-05
9.465522e-05
0.00011402999
0.00013912362
0.00016865425
0.00020505149
0.00024995317
0.0003083307
0.00037731113
0.00046264251
0.00056830442
0.00069926756
0.0008617492
0.0010163171
0.0010155855
0.0010148128
0.0010139849
0.0010130973
0.001012142
0.0010111074
0.0010099773
0.0010087411
0.0010074282
0.0010061124
0.0010050796
0.0010042739
0.0010036424
0.0010031102
0.0010026114
0.0010021169
0.0010016564
0.0010012315
0.0010009028
0.0010001078
1.3572687e-07
7.8762264e-06
4.4171113e-06
5.616995e-06
4.064879e-06
4.5869156e-06
4.5377304e-06
4.496399e-06
4.9549382e-06
4.4893926e-06
4.3817211e-06
4.2099232e-06
4.1241339e-06
4.0785222e-06
4.0732482e-06
4.1005051e-06
4.1572754e-06
4.2261769e-06
4.333799e-06
4.4717511e-06
4.6409158e-06
4.8428569e-06
5.0805707e-06
5.3572843e-06
5.6779017e-06
6.0473301e-06
6.4727097e-06
6.9419601e-06
7.5001924e-06
8.1441207e-06
8.8884703e-06
9.7520087e-06
1.0757701e-05
1.1934419e-05
1.3316659e-05
1.4947206e-05
1.6881049e-05
1.9185428e-05
2.1945474e-05
2.5267379e-05
2.9280644e-05
3.4148722e-05
4.0069834e-05
4.7288797e-05
5.6108143e-05
6.746283e-05
8.0797041e-05
9.717117e-05
0.00011729845
0.00014206283
0.00017418038
0.0002120323
0.00025873442
0.00031639265
0.00039133971
0.00048004346
0.00058981867
0.0007257703
0.00089427886
0.0010159204
0.0010151513
0.0010143354
0.0010134683
0.0010125462
0.0010115622
0.0010105073
0.0010093691
0.0010081282
0.0010068054
0.0010056029
0.0010046341
0.0010038686
0.0010032665
0.0010027714
0.0010023249
0.0010018834
0.0010014632
0.0010010703
0.0010008663
0.0010000554
1.271736e-07
7.5650115e-06
3.6917009e-06
4.8718454e-06
3.6158191e-06
4.042529e-06
4.0221542e-06
3.8608624e-06
4.1471234e-06
3.7728633e-06
3.6705523e-06
3.5579087e-06
3.5067077e-06
3.4916241e-06
3.5110115e-06
3.5463957e-06
3.6152207e-06
3.7132833e-06
3.8398049e-06
3.9950614e-06
4.1805729e-06
4.3984289e-06
4.6520507e-06
4.9449557e-06
5.2705246e-06
5.6538339e-06
6.0935401e-06
6.5979087e-06
7.1773286e-06
7.8441844e-06
8.6135704e-06
9.5049925e-06
1.054233e-05
1.1755519e-05
1.3181374e-05
1.4864198e-05
1.686183e-05
1.9244566e-05
2.2100903e-05
2.5543126e-05
2.9705682e-05
3.4759892e-05
4.0916332e-05
4.8430168e-05
5.7620047e-05
6.8878117e-05
8.3422683e-05
0.00010051903
0.00012153958
0.00014741691
0.00017928055
0.00022063029
0.00026943153
0.00032967486
0.00040407442
0.00050070809
0.00061523055
0.00075693042
0.00093236715
0.0010155101
0.0010147039
0.0010138475
0.001012943
0.0010119877
0.0010109762
0.0010099
0.0010087526
0.0010075244
0.0010062233
0.0010051242
0.001004223
0.0010034999
0.001002926
0.0010024633
0.0010020654
0.0010016845
0.0010013188
0.0010009645
0.0010007968
0.0010000895
1.1977394e-07
7.1499906e-06
3.2407635e-06
4.2112583e-06
3.215671e-06
3.4100236e-06
3.5651695e-06
3.2784787e-06
3.4167345e-06
3.1500921e-06
3.0683567e-06
3.0023941e-06
2.9826026e-06
2.9947541e-06
3.0217163e-06
3.0857136e-06
3.1777232e-06
3.2965774e-06
3.4424179e-06
3.6162575e-06
3.8201647e-06
4.0565132e-06
4.3208352e-06
4.6305532e-06
4.9849282e-06
5.3897525e-06
5.8519908e-06
6.3801918e-06
6.984944e-06
7.6793937e-06
8.4790958e-06
9.4043577e-06
1.0480107e-05
1.1737732e-05
1.3159673e-05
1.4891525e-05
1.6949076e-05
1.9406164e-05
2.2489392e-05
2.6076674e-05
3.041906e-05
3.5695612e-05
4.2130268e-05
4.9991086e-05
5.9611854e-05
7.1406764e-05
8.5885383e-05
0.00010367496
0.00012666993
0.00015381624
0.00018724613
0.00022844109
0.00028187943
0.00034503719
0.00042300082
0.00052434942
0.00064420005
0.00079235296
0.00097555662
0.0010150865
0.0010142428
0.001013349
0.0010124094
0.0010114223
0.0010103845
0.0010092872
0.001008124
0.0010069074
0.001005679
0.0010046739
0.0010038419
0.001003165
0.0010026225
0.0010021914
0.0010018361
0.0010015076
0.0010011625
0.0010008629
0.0010006873
0.0010001185
1.1379811e-07
6.2535049e-06
2.855175e-06
3.6115394e-06
2.8683448e-06
2.8269612e-06
3.1103203e-06
2.751207e-06
2.7899817e-06
2.6180365e-06
2.5638226e-06
2.5356211e-06
2.5365974e-06
2.5663011e-06
2.6274949e-06
2.7161182e-06
2.830317e-06
2.9699543e-06
3.1359294e-06
3.3297001e-06
3.5485767e-06
3.803634e-06
4.0950433e-06
4.426933e-06
4.8042341e-06
5.2329256e-06
5.7202773e-06
6.2751546e-06
6.9084614e-06
7.617136e-06
8.4456251e-06
9.4025318e-06
1.0513761e-05
1.1811783e-05
1.3337228e-05
1.5140922e-05
1.7285762e-05
1.9850541e-05
2.2933123e-05
2.6654561e-05
3.1165334e-05
3.6914871e-05
4.3665204e-05
5.1919279e-05
6.202682e-05
7.4423346e-05
8.9645667e-05
0.00010835609
0.00013257648
0.00016112806
0.00019628841
0.00023960559
0.00029584417
0.00036219959
0.00044407235
0.00054512705
0.00067623571
0.00083146163
0.0010155124
0.0010146504
0.0010137694
0.0010128414
0.0010118693
0.0010108518
0.0010097878
0.0010086723
0.0010074942
0.0010062694
0.0010051709
0.0010042507
0.0010034871
0.0010028603
0.0010023556
0.0010019587
0.0010016345
0.001001332
0.0010010074
0.0010007553
0.0010006213
0.0010001764
1.0885808e-07
4.3392167e-06
2.5072234e-06
3.0554074e-06
2.4340048e-06
2.3383442e-06
2.6341651e-06
2.2822638e-06
2.2687419e-06
2.1700484e-06
2.1462728e-06
2.1434363e-06
2.1723048e-06
2.2322358e-06
2.3191974e-06
2.4308834e-06
2.5666638e-06
2.7270891e-06
2.9108464e-06
3.1240311e-06
3.3677115e-06
3.6447918e-06
3.9588004e-06
4.3140224e-06
4.7156209e-06
5.1698146e-06
5.6841493e-06
6.2584129e-06
6.9190899e-06
7.6736973e-06
8.5396994e-06
9.538794e-06
1.0698333e-05
1.2052677e-05
1.364492e-05
1.5528801e-05
1.7771155e-05
2.0455198e-05
2.3684537e-05
2.7587839e-05
3.2324689e-05
3.8092056e-05
4.5469435e-05
5.4154204e-05
6.4794162e-05
7.7847426e-05
9.3878796e-05
0.00011358591
0.00013783022
0.0001691791
0.00020619995
0.00025179763
0.00030798541
0.00038078902
0.00046683678
0.00057297134
0.00071067914
0.00087347398
0.0010150871
0.0010142033
0.001013287
0.0010123273
0.0010113253
0.0010102798
0.0010091892
0.0010080548
0.0010068816
0.0010056931
0.001004696
0.0010038564
0.0010031572
0.0010025816
0.0010021193
0.001001757
0.0010014566
0.0010011696
0.0010008605
0.0010006417
0.0010005528
0.0010002443
1.0356297e-07
3.5775398e-06
2.1434616e-06
2.5444818e-06
2.0786791e-06
1.9303189e-06
2.1458389e-06
1.8714397e-06
1.8450873e-06
1.8018212e-06
1.804324e-06
1.8323565e-06
1.8927686e-06
1.979275e-06
2.0895277e-06
2.2226796e-06
2.379009e-06
2.5577148e-06
2.7636149e-06
2.9978713e-06
3.2630615e-06
3.5623036e-06
3.8993218e-06
4.2785592e-06
4.7053474e-06
5.1861188e-06
5.7223246e-06
6.3334789e-06
7.027066e-06
7.8176886e-06
8.7237148e-06
9.7680786e-06
1.0979631e-05
1.2394652e-05
1.4058816e-05
1.6029333e-05
1.8377261e-05
2.1190713e-05
2.457933e-05
2.8678703e-05
3.3657237e-05
4.0010658e-05
4.7482818e-05
5.6625182e-05
6.7830008e-05
8.1578703e-05
9.8464786e-05
0.00011922066
0.000146091
0.00017775355
0.00021671855
0.00026469588
0.00032379152
0.00040033301
0.00049073019
0.00060215867
0.00074669387
0.00091738797
0.0010146543
0.0010137474
0.0010128007
0.0010118118
0.0010107815
0.0010097111
0.0010085978
0.0010074404
0.0010062611
0.0010051729
0.0010042617
0.0010034942
0.0010028527
0.0010023241
0.0010019017
0.00100157
0.0010012893
0.0010010214
0.0010007338
0.001000531
0.0010004787
0.0010003084
9.9671899e-08
2.8566178e-06
1.8292745e-06
2.0338471e-06
1.7845736e-06
1.5812573e-06
1.6954297e-06
1.5234567e-06
1.5115998e-06
1.5120842e-06
1.5413142e-06
1.6023223e-06
1.689214e-06
1.7985131e-06
1.9293317e-06
2.0819151e-06
2.2562394e-06
2.4554663e-06
2.6812048e-06
2.9358175e-06
3.2221241e-06
3.5434184e-06
3.9035558e-06
4.3070951e-06
4.7594977e-06
5.2637789e-06
5.8333742e-06
6.4758495e-06
7.2033836e-06
8.0312561e-06
8.9788587e-06
1.0070425e-05
1.1336462e-05
1.2815284e-05
1.4555078e-05
1.6616455e-05
1.9075197e-05
2.2024364e-05
2.5580188e-05
2.988579e-05
3.5349566e-05
4.1780023e-05
4.9635157e-05
5.92502e-05
7.1036216e-05
8.5499569e-05
0.00010326307
0.0001250951
0.00015331165
0.00018658734
0.00022752762
0.0002779185
0.0003399632
0.00042024501
0.00051504929
0.00063184916
0.00078325895
0.00096199094
0.0010142174
0.0010132888
0.0010123165
0.0010113024
0.0010102453
0.0010091495
0.0010080189
0.0010068568
0.0010056897
0.0010047059
0.0010038711
0.0010031667
0.0010025743
0.0010020842
0.0010016943
0.0010013884
0.0010011198
0.0010008761
0.0010006346
0.0010004559
0.0010004309
0.0010003246
9.7377363e-08
2.2265089e-06
1.5560126e-06
1.5486205e-06
1.5134253e-06
1.2829693e-06
1.3290138e-06
1.2456474e-06
1.2612295e-06
1.2926625e-06
1.3552168e-06
1.4421388e-06
1.5504207e-06
1.6787458e-06
1.8273937e-06
1.9974e-06
2.1896435e-06
2.4071414e-06
2.6517521e-06
2.9260573e-06
3.2330173e-06
3.5760398e-06
3.9590779e-06
4.3867823e-06
4.8647127e-06
5.3996254e-06
5.9998456e-06
6.6757191e-06
7.4316224e-06
8.2971643e-06
9.2869004e-06
1.0426443e-05
1.174807e-05
1.3292309e-05
1.5109893e-05
1.7334582e-05
1.9925608e-05
2.303601e-05
2.6789165e-05
3.1337243e-05
3.6867618e-05
4.3610639e-05
5.1850771e-05
6.1938025e-05
7.4303263e-05
8.9477207e-05
0.00010811236
0.00013215638
0.0001605147
0.00019537835
0.00023825841
0.00029101706
0.00035931968
0.000439841
0.00053896924
0.00066105403
0.00081916437
0.0010058399
0.0010137873
0.0010128352
0.0010118411
0.0010108072
0.0010097293
0.0010086086
0.001007454
0.0010062897
0.0010051968
0.0010042907
0.0010035228
0.001002872
0.0010023208
0.0010018619
0.0010014988
0.0010012193
0.0010009553
0.0010007217
0.0010005198
0.0010004253
0.0010003934
0.0010003237
9.7474657e-08
1.6899499e-06
1.3254452e-06
1.1774231e-06
1.2404971e-06
1.033345e-06
1.0600351e-06
1.0401621e-06
1.0841326e-06
1.1450773e-06
1.2317096e-06
1.3382237e-06
1.4635587e-06
1.6078719e-06
1.77224e-06
1.9581843e-06
2.1672524e-06
2.4020472e-06
2.66477e-06
2.9581103e-06
3.2851103e-06
3.649251e-06
4.0545652e-06
4.5057973e-06
5.0086255e-06
5.5699613e-06
6.1983517e-06
6.9044811e-06
7.7017976e-06
8.6073053e-06
9.6424977e-06
1.0834596e-05
1.2217902e-05
1.3835545e-05
1.5741514e-05
1.8003143e-05
2.0704197e-05
2.3948848e-05
2.7865935e-05
3.2614844e-05
3.8392281e-05
4.5440006e-05
5.405338e-05
6.4597904e-05
7.7521983e-05
9.4150541e-05
0.00011376354
0.00013784669
0.00016743474
0.00020380261
0.00024851892
0.00030636495
0.00037452076
0.0004583731
0.0005615817
0.00069535818
0.00085304469
0.0010143392
0.001013377
0.0010123995
0.0010113839
0.0010103322
0.0010092407
0.0010081074
0.0010069373
0.0010057679
0.001004771
0.0010039266
0.0010032131
0.0010026065
0.0010020912
0.0010016621
0.0010013231
0.0010010724
0.0010008198
0.001000602
0.0010004291
0.0010003665
0.0010003628
0.0010003211
1.0077122e-07
1.2521173e-06
1.1344358e-06
9.0599514e-07
1.0816967e-06
8.2758761e-07
8.7532144e-07
9.006594e-07
9.6743483e-07
1.0515343e-06
1.1556088e-06
1.2771917e-06
1.4166707e-06
1.575052e-06
1.7538226e-06
1.9547204e-06
2.1797189e-06
2.4308703e-06
2.7108374e-06
3.022284e-06
3.3683121e-06
3.7524703e-06
4.1788728e-06
4.6523668e-06
5.1787621e-06
5.7651427e-06
6.4202872e-06
7.1552412e-06
7.9839508e-06
8.9241268e-06
9.9981788e-06
1.1234558e-05
1.2669146e-05
1.4347079e-05
1.6324857e-05
1.8672959e-05
2.1478948e-05
2.4851295e-05
2.8924039e-05
3.3862516e-05
4.014258e-05
4.7530341e-05
5.6556335e-05
6.7601499e-05
8.113315e-05
9.7725712e-05
0.00011808568
0.00014308203
0.00017378064
0.00021347571
0.00026018196
0.00031758632
0.00038816893
0.00047499313
0.00058752131
0.00072005117
0.00088327124
0.0010139765
0.0010129991
0.0010119995
0.0010109623
0.0010098899
0.0010087821
0.0010076412
0.0010064769
0.0010053384
0.001004407
0.0010036132
0.0010029415
0.0010023709
0.0010018891
0.0010014932
0.0010011814
0.0010009384
0.0010007126
0.0010005129
0.0010003605
0.0010003146
0.0010003282
0.0010003204
1.0737156e-07
9.6498986e-07
9.6783013e-07
7.6651794e-07
7.7030691e-07
7.0569428e-07
7.5164311e-07
8.1226541e-07
8.9633545e-07
9.9661073e-07
1.1138163e-06
1.2478611e-06
1.3998185e-06
1.571019e-06
1.7630713e-06
1.9777695e-06
2.2171169e-06
2.483343e-06
2.7789427e-06
3.1067215e-06
3.4698608e-06
3.872007e-06
4.3173962e-06
4.8110319e-06
5.3589309e-06
5.9663242e-06
6.645381e-06
7.4061482e-06
8.2704631e-06
9.2451581e-06
1.0358679e-05
1.1640823e-05
1.3129133e-05
1.4870764e-05
1.6924686e-05
1.936434e-05
2.2280868e-05
2.5787055e-05
3.0022121e-05
3.5157632e-05
4.1404753e-05
4.9023157e-05
5.83318e-05
6.9720567e-05
8.3670181e-05
0.00010077041
0.00012282973
0.00014877069
0.00018060798
0.00021970009
0.00026771912
0.00032672859
0.00039927474
0.0004931475
0.00060374857
0.00073990324
0.0009076444
0.0010136565
0.0010126671
0.0010116517
0.0010105979
0.0010095063
0.0010083775
0.0010072176
0.0010060526
0.0010049952
0.001004108
0.0010033543
0.0010027151
0.0010021745
0.0010017225
0.0010013539
0.0010010608
0.001000822
0.0010006197
0.0010004429
0.0010003092
0.0010002683
0.0010002695
0.0010002251
1.2197418e-07
9.7160387e-07
8.0728838e-07
5.6809511e-07
6.1195389e-07
6.1504096e-07
6.7922808e-07
7.5870238e-07
8.5631936e-07
9.6880958e-07
1.0971781e-06
1.2422564e-06
1.4053484e-06
1.5878768e-06
1.7914736e-06
2.0179547e-06
2.269349e-06
2.5479241e-06
2.8562225e-06
3.197106e-06
3.5738172e-06
3.9900657e-06
4.4501522e-06
4.9591461e-06
5.5231377e-06
6.1495845e-06
6.8477701e-06
7.6293936e-06
8.5093164e-06
9.5064537e-06
1.0644845e-05
1.1954995e-05
1.3475387e-05
1.5254362e-05
1.7352347e-05
1.9844543e-05
2.2824208e-05
2.6406611e-05
3.0733866e-05
3.5980863e-05
4.2362623e-05
5.0502522e-05
6.008068e-05
7.1792807e-05
8.6131066e-05
0.00010369865
0.00012523703
0.00015165787
0.00018408266
0.00022389026
0.00027278353
0.00033593495
0.00041032236
0.00050179022
0.00061434161
0.00075294998
0.00092379926
0.0010133952
0.0010123951
0.001011368
0.0010103036
0.0010092013
0.0010080611
0.0010068909
0.0010057273
0.0010047283
0.0010038774
0.001003155
0.0010025418
0.0010020244
0.0010015934
0.0010012405
0.0010009605
0.0010007245
0.001000525
0.0010003624
0.0010002452
0.0010002024
0.0010002038
0.0010001679
1.118495e-07
6.2624188e-07
6.3969405e-07
4.7040993e-07
5.1338987e-07
5.5957697e-07
6.389063e-07
7.3207182e-07
8.404139e-07
9.6326187e-07
1.1017016e-06
1.2567938e-06
1.4298663e-06
1.6223947e-06
1.8360422e-06
2.072669e-06
2.3343569e-06
2.623401e-06
2.9424526e-06
3.2944196e-06
3.6826102e-06
4.1107996e-06
4.5833551e-06
5.1054146e-06
5.683143e-06
6.3240841e-06
7.0376282e-06
7.8356187e-06
8.7402554e-06
9.7596689e-06
1.0923253e-05
1.2262233e-05
1.3815941e-05
1.5633738e-05
1.7777252e-05
2.032313e-05
2.3366338e-05
2.7024196e-05
3.1441308e-05
3.6795573e-05
4.3305522e-05
5.1239228e-05
6.0925188e-05
7.2767521e-05
8.7261533e-05
0.00010501572
0.00012677784
0.000154814
0.00018780105
0.00022827833
0.00027797268
0.00033901314
0.00041403271
0.00050629346
0.00061984611
0.00075973429
0.00093224197
0.0010132126
0.0010122026
0.0010111645
0.0010100899
0.0010089786
0.001007831
0.0010066566
0.0010054979
0.0010045392
0.0010037156
0.0010030169
0.0010024225
0.0010019188
0.0010014985
0.0010011548