/*--------------------------------*- C++ -*----------------------------------*\
  =========                 |
  \\      /  F ield         | OpenFOAM: The Open Source CFD Toolbox
   \\    /   O peration     | Website:  https://openfoam.org
    \\  /    A nd           | Version:  12
     \\/     M anipulation  |
\*---------------------------------------------------------------------------*/
FoamFile
{
    format      ascii;
    class       volScalarField;
    location    "0.085";
    object      rho;
}
// * * * * * * * * * * * * * * * * * * * * * * * * * * * * * * * * * * * * * //

dimensions      [1 -3 0 0 0 0 0];

internalField   nonuniform List<scalar> 
16000
(
1.059144
1.0914678
1.0795482
1.0876414
1.0838544
1.0872474
1.0862843
1.0880822
1.0882292
1.0894233
1.0900673
1.0910694
1.0919367
1.0929214
1.0939054
1.0949408
1.0960079
1.0971144
1.0982585
1.099441
1.1006619
1.1019212
1.1032188
1.1045541
1.1059265
1.1073352
1.108779
1.1102565
1.111766
1.1133057
1.1148731
1.1164659
1.1180812
1.1197159
1.1213667
1.12303
1.124702
1.1263788
1.1280562
1.1297301
1.1313961
1.13305
1.1346877
1.1363049
1.1378977
1.1394623
1.1409951
1.1424928
1.1439524
1.1453711
1.1467467
1.1480771
1.1493607
1.1505962
1.1517827
1.1529196
1.1540067
1.1550441
1.1560321
1.1569714
1.1578628
1.1587073
1.159506
1.16026
1.1609703
1.1616374
1.1622614
1.1628418
1.1633773
1.1638655
1.1643032
1.1646868
1.165014
1.1652848
1.1655032
1.1656806
1.1658595
1.1658193
1.1662388
1.1655507
1.0559121
1.0887488
1.0761584
1.0848695
1.0808568
1.0845153
1.0834517
1.085419
1.0855591
1.0868543
1.0875495
1.088626
1.0895666
1.0906249
1.0916887
1.0928043
1.0939557
1.0951487
1.0963822
1.0976566
1.0989719
1.1003278
1.1017238
1.1031591
1.104633
1.1061439
1.1076906
1.109271
1.1108831
1.1125244
1.1141922
1.1158834
1.1175947
1.1193225
1.1210628
1.1228116
1.1245645
1.1263173
1.1280653
1.129804
1.1315289
1.1332356
1.1349196
1.1365768
1.1382033
1.1397954
1.1413498
1.1428634
1.1443336
1.1457582
1.1471351
1.148463
1.1497407
1.1509674
1.1521428
1.1532668
1.1543397
1.1553619
1.1563343
1.1572579
1.1581337
1.158963
1.159747
1.1604871
1.1611841
1.1618387
1.1624509
1.1630202
1.1635451
1.1640237
1.1644529
1.1648294
1.1651509
1.1654168
1.1656318
1.1658118
1.1659468
1.1660155
1.166234
1.1657217
1.0529787
1.0862701
1.0733066
1.0823195
1.0781648
1.0820236
1.0809307
1.0830171
1.083198
1.0845758
1.0853442
1.0864968
1.0875222
1.0886629
1.0898162
1.0910222
1.0922681
1.0935581
1.0948912
1.0962676
1.0976869
1.0991484
1.1006516
1.1021951
1.1037777
1.1053976
1.1070529
1.1087412
1.1104599
1.112206
1.1139761
1.1157665
1.1175733
1.1193923
1.1212191
1.1230489
1.124877
1.1266985
1.1285085
1.1303021
1.1320747
1.1338217
1.1355386
1.1372215
1.1388666
1.1404704
1.1420301
1.1435431
1.1450071
1.1464206
1.1477822
1.1490911
1.1503467
1.151549
1.152698
1.1537945
1.154839
1.1558328
1.1567768
1.1576727
1.1585216
1.1593251
1.1600847
1.1608017
1.161477
1.1621111
1.1627041
1.1632553
1.1637633
1.1642263
1.1646415
1.165006
1.1653173
1.165575
1.1657847
1.1659549
1.1660771
1.1661818
1.1662649
1.1659306
1.0503563
1.0840226
1.070669
1.0800206
1.0757304
1.0798194
1.0787035
1.0809267
1.0811583
1.0826314
1.0834869
1.0847273
1.0858521
1.0870878
1.0883441
1.0896535
1.0910063
1.0924051
1.0938493
1.0953385
1.0968721
1.0984493
1.1000688
1.1017292
1.1034287
1.105165
1.1069357
1.1087378
1.1105679
1.1124223
1.1142971
1.1161879
1.1180899
1.1199983
1.1219079
1.1238136
1.1257099
1.1275916
1.1294534
1.1312903
1.1330974
1.1348702
1.1366044
1.1382963
1.1399424
1.1415399
1.1430862
1.1445796
1.1460185
1.1474019
1.1487293
1.1500007
1.1512161
1.1523762
1.153482
1.1545344
1.155535
1.1564851
1.1573866
1.158241
1.1590502
1.1598159
1.1605396
1.1612227
1.1618662
1.1624707
1.163036
1.1635613
1.1640454
1.1644865
1.1648823
1.1652301
1.1655271
1.1657732
1.1659723
1.1661282
1.1662462
1.1663457
1.1663423
1.1661685
1.0480861
1.0821373
1.0683868
1.0780351
1.0736092
1.0779679
1.0768424
1.0792079
1.0795113
1.0810865
1.0820476
1.0833853
1.0846227
1.0859645
1.0873342
1.0887571
1.0902263
1.0917435
1.093308
1.0949192
1.0965763
1.098278
1.1000227
1.1018083
1.1036325
1.1054923
1.1073845
1.1093053
1.1112505
1.1132157
1.1151959
1.117186
1.1191803
1.1211732
1.123159
1.1251317
1.1270856
1.129015
1.1309144
1.1327787
1.1346032
1.1363834
1.1381154
1.1397961
1.1414225
1.1429925
1.1445044
1.1459571
1.1473501
1.1486832
1.1499567
1.1511714
1.1523284
1.153429
1.1544747
1.1554675
1.1564091
1.1573017
1.1581474
1.1589482
1.1597061
1.160423
1.1611007
1.1617407
1.1623438
1.1629105
1.1634405
1.1639331
1.164387
1.1648006
1.1651721
1.1654989
1.1657783
1.1660095
1.1661935
1.1663332
1.1664464
1.1665233
1.1664601
1.1664232
1.0462153
1.0806355
1.0665419
1.0764924
1.0719696
1.0765417
1.0754056
1.0779321
1.0783262
1.0800075
1.0810867
1.0825259
1.0838832
1.0853378
1.0868282
1.0883731
1.089968
1.0916137
1.0933091
1.0950535
1.0968452
1.0986825
1.100563
1.1024839
1.1044418
1.1064331
1.1084533
1.1104978
1.1125614
1.1146384
1.116723
1.118809
1.12089
1.1229596
1.1250112
1.1270384
1.1290352
1.1309956
1.1329142
1.1347859
1.1366063
1.1383716
1.1400785
1.1417244
1.1433074
1.1448263
1.1462805
1.1476697
1.1489946
1.150256
1.1514552
1.1525939
1.153674
1.1546976
1.1556671
1.1565849
1.1574535
1.1582753
1.1590528
1.1597885
1.1604844
1.1611427
1.1617652
1.1623533
1.162908
1.1634296
1.1639176
1.1643713
1.1647892
1.1651702
1.1655127
1.1658145
1.1660732
1.1662868
1.1664522
1.1665746
1.166679
1.1667225
1.1666177
1.1666944
1.044746
1.0795285
1.0651237
1.0754087
1.0707975
1.075571
1.0744755
1.077134
1.0776307
1.0794021
1.0806063
1.0821504
1.0836374
1.0852171
1.0868416
1.0885238
1.0902601
1.0920502
1.0938928
1.095786
1.0977276
1.0997147
1.1017442
1.1038121
1.1059139
1.1080448
1.1101992
1.1123711
1.1145541
1.1167415
1.1189262
1.121101
1.1232588
1.1253922
1.1274942
1.1295581
1.1315777
1.133547
1.1354609
1.137315
1.1391053
1.1408289
1.1424836
1.1440679
1.1455809
1.1470228
1.148394
1.1496957
1.1509295
1.1520974
1.1532019
1.1542455
1.155231
1.1561613
1.1570394
1.1578683
1.1586509
1.1593901
1.1600886
1.1607491
1.1613738
1.161965
1.1625244
1.1630534
1.163553
1.1640232
1.1644637
1.1648731
1.1652504
1.1655942
1.1659037
1.1661771
1.1664125
1.1666058
1.1667503
1.1668551
1.1669463
1.1669491
1.1668155
1.1669935
1.0436203
1.0787628
1.0640725
1.0747356
1.0700294
1.0750211
1.073966
1.0768111
1.0773369
1.0792188
1.0805805
1.0822549
1.0838973
1.0856271
1.0874094
1.0892519
1.0911517
1.0931077
1.0951176
1.0971788
1.0992879
1.1014411
1.1036336
1.1058605
1.1081157
1.110393
1.1126853
1.1149853
1.1172851
1.1195768
1.1218522
1.124103
1.1263214
1.1284994
1.1306298
1.1327059
1.1347215
1.1366713
1.1385509
1.1403567
1.1420859
1.1437369
1.1453087
1.1468013
1.1482155
1.1495527
1.1508148
1.1520043
1.1531241
1.1541775
1.1551677
1.1560983
1.1569728
1.157795
1.1585682
1.159296
1.1599816
1.1606281
1.1612385
1.1618155
1.1623616
1.1628787
1.1633687
1.1638329
1.164272
1.164686
1.1650743
1.1654356
1.1657684
1.1660717
1.1663448
1.1665871
1.1667969
1.1669676
1.1670899
1.1671774
1.1672515
1.1672068
1.1670534
1.1673302
1.0428303
1.0783227
1.0633703
1.0744902
1.0696064
1.0747681
1.0737935
1.0766803
1.0775048
1.0795308
1.0810803
1.0829098
1.0847324
1.0866384
1.0886032
1.0906308
1.0927182
1.0948631
1.0970621
1.0993114
1.1016061
1.103941
1.1063098
1.1087056
1.111121
1.1135478
1.1159773
1.1184006
1.1208084
1.1231914
1.1255405
1.1278465
1.1301011
1.1322962
1.1344248
1.1364804
1.1384578
1.1403526
1.1421617
1.1438829
1.1455153
1.1470587
1.148514
1.1498831
1.1511683
1.1523726
1.1534996
1.1545532
1.1555373
1.1564564
1.1573147
1.1581165
1.1588661
1.1595675
1.1602248
1.1608415
1.1614213
1.1619674
1.1624828
1.1629702
1.163432
1.1638701
1.1642861
1.1646813
1.1650562
1.1654106
1.1657437
1.1660541
1.16634
1.1666005
1.1668352
1.1670443
1.1672266
1.1673731
1.167473
1.1675443
1.1675971
1.1674994
1.167336
1.1677144
1.042405
1.0782378
1.0630501
1.0745992
1.0695714
1.0749831
1.0741505
1.0772389
1.0782432
1.0804152
1.0821821
1.0841945
1.0862241
1.088335
1.0905098
1.0927495
1.0950502
1.0974081
1.0998185
1.1022757
1.1047731
1.1073035
1.1098585
1.1124294
1.1150065
1.1175796
1.1201382
1.1226718
1.1251697
1.1276214
1.1300169
1.132347
1.134603
1.1367776
1.1388642
1.1408577
1.1427543
1.1445515
1.1462478
1.1478435
1.1493394
1.1507379
1.1520417
1.1532547
1.1543812
1.1554257
1.1563934
1.1572893
1.1581187
1.1588867
1.1595984
1.1602587
1.1608722
1.1614435
1.1619765
1.1624753
1.1629433
1.1633837
1.1637996
1.1641935
1.1645676
1.1649236
1.1652631
1.1655869
1.1658955
1.1661885
1.1664648
1.1667229
1.1669608
1.1671774
1.1673726
1.1675477
1.1677015
1.1678227
1.1679013
1.1679583
1.1679851
1.1678309
1.1676703
1.1681537
1.0424085
1.0785762
1.0631616
1.0749137
1.0700133
1.0757109
1.0750854
1.0783286
1.0796047
1.0819508
1.0839697
1.0861992
1.0884665
1.090814
1.093229
1.0957096
1.0982505
1.1008462
1.1034897
1.1061731
1.1088876
1.1116232
1.1143692
1.1171141
1.119846
1.1225525
1.1252215
1.1278405
1.130398
1.1328827
1.1352846
1.1375946
1.139805
1.1419096
1.1439037
1.1457843
1.1475498
1.1492003
1.1507372
1.1521631
1.1534816
1.1546972
1.1558154
1.1568416
1.1577821
1.158643
1.1594305
1.160151
1.1608104
1.1614146
1.161969
1.1624789
1.1629491
1.1633842
1.1637884
1.1641653
1.1645184
1.1648509
1.1651654
1.1654643
1.1657495
1.1660226
1.1662848
1.1665368
1.1667786
1.1670099
1.1672294
1.1674352
1.1676253
1.1677982
1.1679543
1.1680956
1.1682204
1.1683165
1.1683763
1.1684208
1.1684164
1.1682071
1.1680648
1.1686465
1.0429266
1.0794139
1.0638061
1.0758382
1.0711128
1.0770548
1.0766838
1.080104
1.0816893
1.084237
1.0865416
1.0890258
1.0915648
1.0941836
1.0968716
1.099624
1.1024335
1.1052915
1.1081884
1.1111131
1.1140535
1.1169966
1.1199286
1.1228354
1.1257025
1.1285155
1.1312604
1.1339241
1.1364943
1.1389601
1.1413122
1.1435431
1.1456472
1.1476207
1.1494618
1.1511708
1.1527494
1.1542008
1.1555298
1.1567418
1.1578432
1.1588412
1.159743
1.1605563
1.1612884
1.1619469
1.1625389
1.1630714
1.1635508
1.1639832
1.1643744
1.1647294
1.1650533
1.1653502
1.1656242
1.1658788
1.1661171
1.166342
1.1665559
1.1667607
1.1669582
1.1671496
1.1673357
1.1675171
1.1676935
1.1678644
1.1680283
1.1681833
1.168327
1.1684578
1.1685763
1.1686849
1.1687813
1.1688534
1.1688983
1.1689317
1.1688918
1.1686375
1.1685283
1.1691841
1.0439575
1.0807609
1.0649872
1.0774393
1.0728681
1.079049
1.0790118
1.0826226
1.0845788
1.0873701
1.0900006
1.0927852
1.0956367
1.0985671
1.1015654
1.1046231
1.1077294
1.110872
1.1140372
1.1172101
1.1203749
1.1235148
1.1266129
1.1296522
1.1326159
1.1354881
1.1382541
1.1409005
1.1434162
1.1457919
1.1480207
1.1500984
1.1520229
1.1537945
1.1554156
1.1568905
1.1582248
1.1594257
1.160501
1.1614594
1.1623097
1.1630612
1.163723
1.1643038
1.1648122
1.1652564
1.165644
1.1659821
1.1662774
1.1665357
1.1667627
1.1669632
1.1671418
1.1673025
1.1674488
1.1675838
1.1677104
1.1678309
1.1679474
1.1680614
1.1681743
1.1682871
1.1684002
1.1685138
1.1686276
1.1687408
1.168852
1.1689588
1.1690588
1.1691502
1.1692338
1.1693119
1.1693811
1.1694315
1.1694659
1.169489
1.1694115
1.1691287
1.1690675
1.1697619
1.0455501
1.0826637
1.0667585
1.0796509
1.0753521
1.0817835
1.0821699
1.0859966
1.088385
1.0914745
1.0944786
1.0976172
1.1008295
1.1041165
1.1074642
1.1108591
1.1142856
1.1177264
1.1211631
1.1245761
1.1279453
1.1312503
1.134471
1.137588
1.1405833
1.1434406
1.1461462
1.1486888
1.1510602
1.1532553
1.1552718
1.1571105
1.1587745
1.1602696
1.1616029
1.1627835
1.1638211
1.1647264
1.1655104
1.1661841
1.1667584
1.167244
1.167651
1.1679889
1.1682667
1.1684926
1.1686742
1.1688184
1.1689315
1.1690189
1.1690858
1.1691366
1.1691752
1.1692051
1.1692294
1.1692507
1.1692712
1.1692929
1.1693174
1.1693459
1.1693794
1.1694183
1.169463
1.1695133
1.1695687
1.1696283
1.1696905
1.169753
1.1698131
1.1698689
1.1699214
1.1699717
1.1700159
1.1700482
1.1700767
1.1700903
1.1699738
1.1696739
1.1696825
1.1703764
1.0477659
1.0851829
1.06923
1.0826092
1.0786666
1.0853599
1.0862737
1.0903577
1.0932486
1.09671
1.1001475
1.1037024
1.1073286
1.111017
1.1147482
1.1185028
1.1222589
1.1259937
1.129683
1.1333022
1.1368269
1.1402333
1.1434991
1.1466043
1.1495319
1.152268
1.1548029
1.1571305
1.1592486
1.1611586
1.1628651
1.1643755
1.1656993
1.1668478
1.1678335
1.1686695
1.1693693
1.1699464
1.1704138
1.1707843
1.1710697
1.1712814
1.1714296
1.1715239
1.171573
1.1715846
1.1715659
1.171523
1.1714615
1.1713863
1.1713017
1.1712114
1.1711188
1.1710267
1.1709375
1.1708532
1.1707756
1.1707062
1.170646
1.1705959
1.1705564
1.1705278
1.17051
1.1705026
1.170505
1.1705161
1.1705342
1.1705571
1.1705819
1.170607
1.1706327
1.1706589
1.1706812
1.1706997
1.1707268
1.1707314
1.1705746
1.1702681
1.1703635
1.1710353
1.0506631
1.0883518
1.0725273
1.0863839
1.082932
1.0899123
1.0914849
1.0959001
1.0993758
1.1032975
1.1072351
1.1112677
1.1153551
1.1194785
1.1236117
1.1277276
1.1317973
1.1357908
1.1396779
1.1434291
1.1470166
1.1504153
1.1536041
1.156566
1.1592892
1.1617668
1.1639969
1.165982
1.1677288
1.1692473
1.17055
1.1716514
1.1725672
1.173314
1.1739082
1.1743663
1.174704
1.1749364
1.1750776
1.1751407
1.1751375
1.1750791
1.1749752
1.1748347
1.1746653
1.174474
1.1742669
1.1740493
1.1738257
1.1736003
1.1733765
1.1731572
1.1729449
1.1727418
1.1725496
1.1723699
1.1722039
1.1720523
1.171916
1.1717955
1.1716908
1.1716019
1.1715286
1.1714701
1.1714258
1.1713943
1.171374
1.1713626
1.1713575
1.171357
1.1713609
1.1713669
1.1713715
1.1713814
1.1714102
1.1714058
1.1712145
1.1709091
1.1710961
1.1717545
1.054309
1.0921777
1.0767803
1.0911198
1.0883485
1.0956811
1.0980616
1.102902
1.1070429
1.1115116
1.116009
1.1205682
1.1251477
1.1297178
1.1342427
1.1386857
1.1430088
1.1471747
1.1511482
1.1548976
1.1583962
1.1616232
1.1645644
1.1672121
1.1695653
1.1716284
1.1734112
1.1749272
1.1761932
1.177228
1.1780516
1.1786846
1.1791474
1.17946
1.1796414
1.1797093
1.1796804
1.1795697
1.179391
1.1791567
1.1788778
1.178564
1.1782241
1.1778655
1.1774948
1.1771178
1.1767393
1.1763636
1.1759941
1.1756339
1.1752856
1.1749513
1.1746327
1.1743313
1.1740483
1.1737844
1.1735405
1.1733169
1.173114
1.1729319
1.1727704
1.1726293
1.1725079
1.1724056
1.1723212
1.1722537
1.1722011
1.1721613
1.172132
1.1721116
1.1720985
1.1720887
1.1720808
1.1720871
1.1721192
1.1721073
1.171896
1.1716011
1.1718695
1.1725225
1.0588872
1.0967966
1.0822095
1.0971423
1.0952469
1.1029948
1.1063248
1.111685
1.1165585
1.1216519
1.126758
1.1318737
1.136948
1.1419362
1.1467895
1.1514599
1.1559019
1.1600747
1.1639445
1.1674855
1.1706806
1.173522
1.1760101
1.1781527
1.1799639
1.1814627
1.1826713
1.1836144
1.1843176
1.1848067
1.1851071
1.1852428
1.1852367
1.1851098
1.1848813
1.1845688
1.1841878
1.1837522
1.1832743
1.1827648
1.1822332
1.1816874
1.1811346
1.1805808
1.1800309
1.1794893
1.1789597
1.1784451
1.1779479
1.1774703
1.1770138
1.1765797
1.1761692
1.1757829
1.1754216
1.1750854
1.1747747
1.1744895
1.1742298
1.1739954
1.1737859
1.1736007
1.1734392
1.1733003
1.1731831
1.1730861
1.1730076
1.1729455
1.1728978
1.1728629
1.1728377
1.1728171
1.1728022
1.1728097
1.1728456
1.1728265
1.1726098
1.1723536
1.1726919
1.1733088
1.0646817
1.1027718
1.0892188
1.1047921
1.1039732
1.1121751
1.1166005
1.1225979
1.1282729
1.134061
1.1398031
1.1454616
1.1509683
1.1562609
1.1612791
1.16597
1.1702898
1.1742064
1.1777
1.1807629
1.1833986
1.1856201
1.1874481
1.1889091
1.1900332
1.1908526
1.1914004
1.1917089
1.1918093
1.1917311
1.1915013
1.1911447
1.1906836
1.1901378
1.1895249
1.1888604
1.1881577
1.1874285
1.1866827
1.1859291
1.1851748
1.184426
1.183688
1.1829651
1.1822607
1.1815779
1.1809191
1.180286
1.1796802
1.1791028
1.1785547
1.1780364
1.1775483
1.1770907
1.1766636
1.1762669
1.1759004
1.175564
1.1752572
1.1749796
1.1747307
1.1745096
1.1743155
1.1741475
1.1740043
1.1738844
1.1737862
1.1737078
1.1736475
1.1736032
1.1735706
1.1735444
1.1735282
1.1735407
1.1735795
1.1735527
1.1733448
1.1731577
1.173561
1.1740903
1.0718867
1.1106693
1.0980071
1.1142862
1.1148884
1.1236327
1.1293199
1.1361037
1.1426366
1.1491383
1.155461
1.1615333
1.1672716
1.1726057
1.1774789
1.1818509
1.1856989
1.189017
1.1918139
1.1941109
1.1959385
1.1973339
1.1983379
1.1989931
1.1993418
1.1994249
1.1992807
1.1989448
1.1984494
1.1978232
1.1970919
1.1962779
1.1954008
1.1944773
1.1935222
1.1925476
1.1915643
1.190581
1.1896052
1.188643
1.1876998
1.1867795
1.1858857
1.185021
1.1841876
1.1833871
1.1826207
1.1818894
1.1811937
1.1805339
1.1799102
1.1793225
1.1787708
1.1782546
1.1777737
1.1773276
1.1769159
1.176538
1.1761933
1.1758812
1.1756009
1.1753516
1.1751323
1.1749419
1.1747793
1.1746428
1.1745308
1.1744416
1.1743738
1.1743248
1.1742893
1.1742626
1.1742506
1.1742704
1.1743105
1.1742777
1.1740916
1.1739852
1.1744348
1.174846
1.0806213
1.1203283
1.1091618
1.1261683
1.1286278
1.1380498
1.1451215
1.1527907
1.1601294
1.1672006
1.1738538
1.1800012
1.1855663
1.1904989
1.1947736
1.1983883
1.2013613
1.2037263
1.2055288
1.2068209
1.2076585
1.2080977
1.2081932
1.2079962
1.207554
1.2069091
1.2060995
1.2051584
1.204115
1.2029941
1.2018171
1.2006023
1.199365
1.1981181
1.1968725
1.1956369
1.1944189
1.1932245
1.1920585
1.1909248
1.1898266
1.1887661
1.1877453
1.1867654
1.1858272
1.1849314
1.1840781
1.1832674
1.1824992
1.181773
1.1810885
1.1804452
1.1798424
1.1792794
1.1787557
1.1782704
1.1778228
1.1774123
1.177038
1.1766992
1.176395
1.1761244
1.1758864
1.17568
1.1755037
1.1753561
1.1752355
1.1751406
1.1750698
1.1750199
1.1749855
1.174963
1.1749595
1.174988
1.1750278
1.1749928
1.174839
1.1748079
1.1752734
1.1755754
1.0916149
1.1326549
1.1235769
1.1413702
1.1461295
1.1563099
1.1646981
1.1731322
1.180961
1.1881611
1.1946094
1.2002462
1.2050437
1.2090084
1.212174
1.2145942
1.2163364
1.2174746
1.2180853
1.2182429
1.2180177
1.2174741
1.2166698
1.2156557
1.2144759
1.2131685
1.2117659
1.2102955
1.2087802
1.2072391
1.2056881
1.2041404
1.2026066
1.2010954
1.1996139
1.1981677
1.1967612
1.1953978
1.1940801
1.19281
1.1915888
1.1904173
1.1892961
1.1882251
1.1872043
1.1862333
1.1853115
1.1844383
1.183613
1.1828347
1.1821025
1.1814155
1.1807727
1.1801733
1.1796162
1.1791006
1.1786255
1.1781901
1.1777935
1.1774348
1.177113
1.1768272
1.1765762
1.176359
1.1761741
1.17602
1.1758953
1.1757987
1.1757284
1.1756808
1.1756507
1.1756362
1.1756444
1.1756819
1.1757207
1.1756871
1.1755706
1.1756026
1.1760611
1.1762927
1.1064096
1.1487357
1.1425132
1.1609505
1.168351
1.179178
1.1884082
1.197046
1.2046491
1.2111958
1.2166512
1.2210392
1.2244187
1.226875
1.2285085
1.2294251
1.22973
1.2295224
1.2288927
1.2279214
1.2266788
1.2252249
1.2236106
1.2218787
1.2200647
1.2181979
1.2163024
1.2143976
1.2124996
1.2106212
1.2087724
1.2069614
1.2051946
1.2034768
1.2018117
1.200202
1.1986496
1.1971557
1.195721
1.1943458
1.19303
1.1917731
1.1905746
1.1894336
1.1883492
1.1873204
1.1863459
1.1854246
1.1845554
1.1837369
1.182968
1.1822475
1.1815742
1.1809469
1.1803645
1.1798259
1.1793302
1.1788764
1.1784635
1.1780905
1.1777564
1.1774602
1.1772009
1.1769772
1.1767877
1.176631
1.1765057
1.1764104
1.1763431
1.1763
1.1762766
1.1762725
1.1762938
1.1763401
1.1763782
1.1763496
1.1762742
1.1763646
1.1768027
1.1769578
1.1264894
1.1698602
1.1673928
1.1859274
1.1956787
1.206623
1.2156832
1.2234505
1.2297611
1.2346816
1.2383066
1.2407727
1.2422308
1.2428345
1.2427299
1.2420496
1.2409103
1.2394122
1.2376399
1.2356636
1.2335409
1.2313189
1.2290356
1.2267214
1.2244006
1.2220925
1.2198124
1.217572
1.2153805
1.2132449
1.2111705
1.2091609
1.2072188
1.2053461
1.2035436
1.2018117
1.2001503
1.1985591
1.1970371
1.1955835
1.1941969
1.1928762
1.1916198
1.1904263
1.1892941
1.1882217
1.1872075
1.18625
1.1853476
1.1844989
1.1837023
1.1829565
1.1822601
1.1816119
1.1810106
1.1804551
1.1799442
1.1794771
1.1790525
1.1786696
1.1783273
1.1780246
1.1777604
1.1775335
1.1773424
1.1771859
1.1770625
1.1769707
1.176908
1.1768708
1.1768553
1.1768624
1.1768962
1.1769499
1.1769884
1.1769695
1.1769358
1.1770727
1.1774747
1.1775626
1.1544209
1.1968208
1.1993198
1.2171926
1.227319
1.2370632
1.2445638
1.2502145
1.2541419
1.2565822
1.2577689
1.257931
1.2572746
1.2559787
1.254194
1.2520446
1.2496311
1.2470339
1.2443168
1.2415299
1.2387124
1.2358945
1.2330997
1.2303458
1.2276464
1.2250115
1.2224485
1.2199627
1.2175577
1.2152357
1.2129981
1.2108452
1.208777
1.2067927
1.2048913
1.2030714
1.2013316
1.19967
1.1980849
1.1965744
1.1951365
1.1937692
1.1924705
1.1912384
1.1900711
1.1889666
1.187923
1.1869385
1.1860114
1.18514
1.1843228
1.1835581
1.1828445
1.1821807
1.1815654
1.1809973
1.1804754
1.1799986
1.1795659
1.1791762
1.1788286
1.1785219
1.1782551
1.1780271
1.1778364
1.1776817
1.1775617
1.1774745
1.1774174
1.1773869
1.1773801
1.1773977
1.1774411
1.1774996
1.1775411
1.1775385
1.1775437
1.1777067
1.1780602
1.1781144
1.1927948
1.2314135
1.2371076
1.2522474
1.2612644
1.2680887
1.2724139
1.2747829
1.2755525
1.2750841
1.2736737
1.2715662
1.2689557
1.2659945
1.2628
1.2594615
1.2560469
1.2526073
1.2491806
1.245795
1.2424712
1.239224
1.2360641
1.2329986
1.2300324
1.2271682
1.2244075
1.2217505
1.2191967
1.216745
1.2143937
1.2121409
1.2099845
1.207922
1.2059511
1.2040691
1.2022736
1.200562
1.1989316
1.1973801
1.1959049
1.1945036
1.1931737
1.1919132
1.1907196
1.1895909
1.188525
1.18752
1.1865739
1.185685
1.1848517
1.1840722
1.1833451
1.1826691
1.1820427
1.1814647
1.1809341
1.1804497
1.1800106
1.1796157
1.179264
1.1789545
1.1786861
1.1784578
1.1782681
1.1781157
1.1779992
1.1779166
1.1778652
1.1778416
1.1778435
1.1778705
1.177921
1.1779831
1.1780322
1.1780548
1.1780969
1.1782583
1.1785245
1.1785518
1.2398179
1.2720232
1.2790901
1.2887795
1.2936221
1.295928
1.2960818
1.2947263
1.2922901
1.2891148
1.2854501
1.2814797
1.2773364
1.2731156
1.2688854
1.2646937
1.2605742
1.25655
1.2526365
1.2488438
1.2451779
1.241642
1.2382372
1.234963
1.231818
1.2288
1.2259062
1.2231335
1.2204786
1.2179381
1.2155086
1.2131864
1.2109681
1.2088502
1.2068294
1.2049024
1.203066
1.201317
1.1996525
1.1980696
1.1965654
1.1951372
1.1937825
1.1924987
1.1912836
1.1901347
1.18905
1.1880273
1.1870648
1.1861605
1.1853129
1.1845201
1.1837807
1.1830933
1.1824565
1.1818692
1.1813302
1.1808385
1.180393
1.1799927
1.1796367
1.179324
1.1790536
1.1788244
1.178635
1.1784841
1.1783702
1.1782912
1.1782445
1.1782272
1.1782369
1.1782714
1.1783271
1.1783941
1.1784573
1.1785104
1.1785789
1.1787149
1.1789054
1.1789165
1.2932947
1.3137451
1.3182436
1.3205851
1.3197982
1.3171775
1.3133303
1.3087411
1.3037275
1.2985045
1.2932146
1.2879515
1.282776
1.277727
1.2728285
1.2680943
1.2635317
1.2591432
1.2549284
1.250885
1.2470091
1.2432961
1.2397412
1.2363389
1.2330839
1.2299708
1.2269943
1.2241494
1.2214309
1.218834
1.2163542
1.213987
1.2117281
1.2095734
1.207519
1.2055612
1.2036964
1.2019212
1.2002323
1.1986266
1.1971011
1.195653
1.1942794
1.1929779
1.191746
1.1905813
1.1894816
1.1884448
1.1874689
1.186552
1.1856925
1.1848886
1.1841388
1.1834417
1.1827959
1.1822004
1.1816539
1.1811555
1.1807041
1.1802988
1.1799386
1.1796226
1.1793497
1.1791189
1.178929
1.1787786
1.1786659
1.1785892
1.1785459
1.1785335
1.1785488
1.1785884
1.178648
1.1787209
1.1787988
1.1788777
1.1789663
1.1790802
1.1791987
1.1792028
1.3456015
1.3488791
1.3476726
1.3432588
1.3374897
1.3309848
1.3242036
1.3173851
1.3106739
1.3041484
1.2978508
1.2918013
1.2860065
1.2804655
1.2751729
1.2701205
1.265299
1.2606984
1.2563087
1.2521199
1.2481225
1.2443074
1.240666
1.2371901
1.233872
1.2307045
1.2276809
1.2247947
1.22204
1.2194112
1.216903
1.2145103
1.2122284
1.2100529
1.2079796
1.2060044
1.2041236
1.2023335
1.2006308
1.1990122
1.1974745
1.1960149
1.1946306
1.1933188
1.1920771
1.1909032
1.1897946
1.1887494
1.1877654
1.1868409
1.185974
1.1851631
1.1844066
1.1837031
1.1830514
1.1824502
1.1818984
1.181395
1.1809389
1.1805294
1.1801654
1.179846
1.1795703
1.1793372
1.1791456
1.178994
1.1788808
1.1788044
1.1787627
1.1787528
1.1787711
1.1788129
1.1788744
1.1789525
1.1790441
1.1791438
1.1792431
1.1793325
1.1793985
1.1794124
1.3793033
1.3718063
1.3643514
1.356175
1.3476803
1.3392771
1.3311301
1.3233127
1.3158533
1.3087549
1.302009
1.2956012
1.2895143
1.2837306
1.2782325
1.2730032
1.2680267
1.2632885
1.2587747
1.2544727
1.250371
1.2464589
1.2427263
1.2391643
1.2357643
1.2325186
1.22942
1.2264616
1.2236373
1.2209411
1.2183676
1.2159117
1.2135685
1.2113334
1.2092023
1.2071709
1.2052355
1.2033925
1.2016383
1.1999698
1.1983837
1.1968772
1.1954474
1.1940917
1.1928076
1.1915925
1.1904443
1.1893609
1.1883401
1.1873802
1.1864793
1.1856357
1.184848
1.1841148
1.1834346
1.1828063
1.1822287
1.181701
1.1812221
1.1807911
1.1804071
1.1800692
1.1797765
1.179528
1.1793225
1.1791586
1.1790349
1.1789497
1.1789012
1.1788864
1.1789009
1.1789397
1.1789992
1.1790791
1.1791789
1.1792906
1.1793939
1.1794664
1.179504
1.1795285
1.1639117
1.1683042
1.1826626
1.1942383
1.1996084
1.2008498
1.2009203
1.2005984
1.2006307
1.2003474
1.2000907
1.1995339
1.1989504
1.1983025
1.1976166
1.1968921
1.1961319
1.1953419
1.1945269
1.1936912
1.1928386
1.1919728
1.1910968
1.1902136
1.1893258
1.1884358
1.1875455
1.1866571
1.1857722
1.1848925
1.1840195
1.1831547
1.1822995
1.181455
1.1806225
1.1798033
1.1789984
1.178209
1.1774362
1.176681
1.1759445
1.1752278
1.1745319
1.1738577
1.1732063
1.1725787
1.1719757
1.1713981
1.1708469
1.1703227
1.1698262
1.1693579
1.1689183
1.1685077
1.1681263
1.1677741
1.1674509
1.1671565
1.1668905
1.1666524
1.1664411
1.166256
1.1660964
1.1659611
1.1658504
1.1657617
1.1657004
1.1656546
1.1656516
1.1656393
1.1657194
1.1656977
1.1658943
1.1657562
1.1661214
1.1656599
1.1662003
1.1654085
1.1661122
1.1651138
1.1597499
1.1706105
1.1864739
1.1945825
1.1967753
1.1966729
1.1961422
1.1958878
1.1955602
1.1952468
1.194845
1.1944438
1.1939935
1.1935104
1.1929885
1.1924354
1.1918521
1.1912416
1.1906062
1.1899483
1.18927
1.1885736
1.1878614
1.1871354
1.1863978
1.1856508
1.1848963
1.1841363
1.1833729
1.1826078
1.1818429
1.18108
1.1803209
1.179567
1.1788202
1.1780819
1.1773537
1.1766371
1.1759336
1.1752445
1.1745712
1.1739151
1.1732774
1.1726595
1.1720626
1.1714877
1.170936
1.1704085
1.1699061
1.1694298
1.1689801
1.1685578
1.1681634
1.1677971
1.1674591
1.1671495
1.1668682
1.1666147
1.1663887
1.1661896
1.1660164
1.1658682
1.1657442
1.1656436
1.1655662
1.1655099
1.1654789
1.1654635
1.1654868
1.1655033
1.1656022
1.1656101
1.1658097
1.1657009
1.16605
1.1656243
1.1661484
1.165378
1.1660872
1.1650974
1.1603227
1.1735034
1.1848431
1.1911223
1.1920464
1.1915628
1.1910512
1.1907835
1.1904811
1.1901925
1.1898546
1.1895144
1.1891397
1.1887529
1.1883396
1.1879075
1.1874529
1.1869781
1.1864831
1.1859686
1.1854357
1.1848854
1.1843187
1.183737
1.1831415
1.1825337
1.181915
1.181287
1.1806513
1.1800096
1.1793634
1.1787145
1.1780646
1.1774154
1.1767686
1.1761259
1.1754891
1.1748599
1.1742398
1.1736306
1.1730339
1.1724512
1.1718841
1.1713341
1.1708026
1.1702909
1.1698003
1.169332
1.1688871
1.1684666
1.1680712
1.1677019
1.1673589
1.1670429
1.1667539
1.1664919
1.166257
1.1660486
1.1658664
1.1657097
1.1655775
1.1654689
1.1653831
1.1653192
1.1652769
1.1652543
1.1652551
1.1652707
1.1653214
1.1653665
1.1654851
1.1655209
1.1657277
1.1656467
1.1659803
1.1655859
1.1660963
1.165347
1.1660641
1.165079
1.1578163
1.1719169
1.1824459
1.1870621
1.1868641
1.1864876
1.1860464
1.1858483
1.1855301
1.1852795
1.1849673
1.1846854
1.1843708
1.1840604
1.1837295
1.1833902
1.1830357
1.1826685
1.1822872
1.1818916
1.1814817
1.1810575
1.1806191
1.180167
1.1797016
1.1792237
1.178734
1.1782335
1.1777232
1.1772045
1.1766785
1.1761468
1.1756107
1.1750718
1.1745318
1.1739923
1.173455
1.1729216
1.1723939
1.1718736
1.1713624
1.1708622
1.1703744
1.1699009
1.1694432
1.1690027
1.168581
1.1681794
1.167799
1.167441
1.1671064
1.1667958
1.16651
1.1662493
1.1660141
1.1658042
1.1656197
1.1654601
1.1653251
1.1652138
1.1651254
1.1650589
1.1650134
1.1649881
1.1649825
1.164995
1.1650287
1.1650761
1.165155
1.1652287
1.1653683
1.1654306
1.1656475
1.1655922
1.1659149
1.1655459
1.166048
1.165317
1.166042
1.1650607
1.1520973
1.1682498
1.1779776
1.1814716
1.180924
1.1808515
1.180493
1.180436
1.1801949
1.1800646
1.1798453
1.1796738
1.1794583
1.1792562
1.1790316
1.1788024
1.1785585
1.1783043
1.1780373
1.1777578
1.1774654
1.1771599
1.1768413
1.1765098
1.1761656
1.175809
1.1754405
1.1750607
1.1746703
1.1742702
1.1738614
1.1734449
1.1730219
1.1725938
1.1721621
1.1717281
1.1712935
1.17086
1.1704291
1.1700028
1.1695827
1.1691706
1.1687682
1.1683773
1.1679996
1.1676365
1.1672898
1.1669608
1.1666508
1.166361
1.1660924
1.1658458
1.165622
1.1654213
1.1652441
1.1650903
1.16496
1.1648526
1.1647678
1.1647047
1.1646626
1.1646403
1.1646371
1.1646521
1.1646847
1.1647335
1.1648011
1.164881
1.1649887
1.1650912
1.1652525
1.1653401
1.1655687
1.1655361
1.1658518
1.1655049
1.1660014
1.1652888
1.1660219
1.1650384
1.1461457
1.1647177
1.1730904
1.1759648
1.1752665
1.1754468
1.1751317
1.1752122
1.1750356
1.1750172
1.1748788
1.174809
1.1746826
1.1745787
1.1744488
1.1743176
1.1741713
1.1740163
1.1738498
1.1736724
1.1734837
1.1732835
1.1730717
1.1728483
1.1726133
1.1723668
1.1721091
1.1718403
1.1715611
1.1712719
1.1709735
1.1706666
1.1703522
1.1700315
1.1697055
1.1693756
1.1690432
1.1687098
1.1683771
1.1680465
1.16772
1.167399
1.1670855
1.1667811
1.1664874
1.1662061
1.1659388
1.165687
1.1654519
1.1652347
1.1650366
1.1648583
1.1647006
1.1645639
1.1644484
1.1643543
1.1642813
1.1642291
1.1641972
1.1641849
1.1641912
1.1642152
1.164256
1.1643127
1.1643848
1.1644709
1.1645732
1.1646862
1.1648232
1.1649545
1.1651378
1.1652502
1.165491
1.1654792
1.1657891
1.1654638
1.1659569
1.165263
1.1660047
1.1650163
1.140999
1.1613649
1.1682865
1.1708678
1.1700671
1.1704467
1.1701384
1.1703282
1.1701897
1.1702586
1.1701813
1.1701973
1.1701447
1.1701177
1.1700603
1.1700073
1.1699406
1.1698684
1.1697871
1.169697
1.1695978
1.169489
1.1693704
1.1692419
1.1691032
1.1689544
1.1687955
1.1686266
1.1684479
1.1682599
1.1680629
1.1678576
1.1676448
1.1674252
1.1671999
1.1669699
1.1667366
1.1665012
1.1662651
1.1660298
1.1657969
1.1655681
1.1653448
1.1651288
1.1649216
1.1647249
1.1645401
1.1643686
1.1642119
1.1640709
1.1639467
1.1638403
1.163752
1.1636826
1.163632
1.1636005
1.1635877
1.1635932
1.1636167
1.1636572
1.1637139
1.1637858
1.163872
1.1639716
1.1640842
1.1642085
1.1643462
1.1644926
1.1646593
1.1648193
1.1650248
1.165161
1.1654136
1.1654209
1.1657265
1.1654249
1.1659144
1.1652399
1.16599
1.1649948
1.1362145
1.1583959
1.1637997
1.1662627
1.1653533
1.1658935
1.1655589