/*--------------------------------*- C++ -*----------------------------------*\
  =========                 |
  \\      /  F ield         | OpenFOAM: The Open Source CFD Toolbox
   \\    /   O peration     | Website:  https://openfoam.org
    \\  /    A nd           | Version:  12
     \\/     M anipulation  |
\*---------------------------------------------------------------------------*/
FoamFile
{
    format      ascii;
    class       volScalarField;
    location    "0.069";
    object      Ma;
}
// * * * * * * * * * * * * * * * * * * * * * * * * * * * * * * * * * * * * * //

dimensions      [];

internalField   nonuniform List<scalar> 
16000
(
0.6283655
0.74716381
0.70209188
0.72665297
0.71151566
0.71848382
0.71274963
0.71427332
0.71161195
0.71116429
0.70953414
0.70839204
0.70697008
0.70558187
0.70411093
0.7025931
0.70101709
0.69938445
0.69769393
0.69594504
0.69413734
0.69227068
0.69034511
0.68836099
0.68631898
0.68422007
0.68206562
0.67985737
0.67759747
0.67528848
0.67293338
0.6705356
0.66809897
0.66562775
0.66312658
0.6606005
0.65805483
0.6554952
0.65292747
0.65035767
0.64779192
0.64523637
0.64269714
0.64018021
0.6376914
0.63523624
0.63281991
0.6304472
0.6281224
0.6258493
0.6236311
0.62147039
0.61936913
0.61732867
0.61534967
0.6134322
0.61157571
0.6097791
0.60804065
0.6063579
0.60472758
0.60314587
0.60160856
0.60011106
0.59864887
0.59721816
0.59581612
0.59444109
0.59309219
0.59176845
0.59046763
0.58918488
0.58791281
0.58664368
0.58536513
0.58412005
0.58238102
0.58188203
0.57817081
0.57936189
0.63304723
0.75254492
0.70553493
0.73148299
0.71551719
0.72294793
0.7167646
0.71840672
0.71556087
0.71503976
0.71332106
0.71206211
0.71054768
0.70904419
0.70746359
0.70582814
0.70413193
0.70237481
0.70055613
0.69867544
0.69673255
0.69472756
0.69266085
0.69053318
0.68834564
0.68609972
0.68379735
0.68144086
0.67903306
0.6765772
0.67407701
0.67153666
0.66896078
0.66635441
0.66372298
0.66107227
0.65840835
0.65573753
0.65306627
0.65040113
0.64774865
0.64511533
0.64250748
0.63993119
0.63739221
0.63489591
0.63244718
0.63005042
0.62770941
0.62542736
0.62320683
0.6210497
0.61895723
0.61693
0.61496795
0.61307041
0.61123615
0.6094634
0.60774983
0.60609252
0.60448774
0.60293128
0.60141866
0.59994513
0.59850614
0.59709786
0.5957175
0.59436333
0.59303425
0.59172887
0.59044436
0.58917487
0.58791219
0.58665081
0.58538188
0.58404543
0.58258381
0.5813673
0.57857767
0.57908234
0.63743105
0.7574921
0.70923758
0.73570902
0.71928064
0.72681328
0.72047017
0.72200089
0.71909957
0.71842056
0.71663331
0.71523574
0.71361631
0.71198526
0.71027934
0.70851204
0.70668
0.70478281
0.70282007
0.70079163
0.69869764
0.69653861
0.69431537
0.69202918
0.68968171
0.68727508
0.6848119
0.68229526
0.67972874
0.67711645
0.67446301
0.6717735
0.66905349
0.66630893
0.66354619
0.66077191
0.65799299
0.65521645
0.65244942
0.64969896
0.64697204
0.64427537
0.64161539
0.63899812
0.63642909
0.63391333
0.63145522
0.62905852
0.62672632
0.624461
0.62226425
0.62013706
0.61807975
0.61609197
0.61417276
0.6123206
0.61053343
0.60880872
0.60714347
0.60553415
0.60397655
0.60246606
0.60099786
0.59956708
0.59816915
0.59680033
0.59545795
0.59414032
0.59284615
0.5915736
0.59031901
0.5890755
0.58783502
0.58659247
0.5853287
0.58398194
0.58260408
0.58115047
0.57872135
0.57890681
0.64143908
0.76201278
0.71244542
0.73943596
0.72257966
0.73021571
0.72370813
0.72510735
0.72214323
0.72128645
0.71941647
0.71786427
0.71612181
0.71434693
0.71249799
0.71058174
0.70859682
0.70654277
0.70441958
0.70222745
0.69996696
0.69763908
0.6952452
0.69278717
0.69026736
0.68768864
0.68505447
0.68236882
0.67963628
0.67686198
0.67405158
0.67121127
0.66834769
0.66546786
0.66257916
0.65968917
0.65680562
0.65393627
0.65108882
0.64827075
0.64548925
0.64275112
0.64006266
0.63742957
0.63485693
0.6323491
0.62990971
0.62754162
0.62524693
0.62302698
0.62088237
0.61881298
0.61681805
0.61489616
0.61304537
0.6112632
0.60954674
0.60789267
0.6062973
0.60475651
0.60326563
0.60181967
0.60041355
0.59904224
0.59770118
0.59638671
0.59509627
0.5938282
0.59258105
0.59135253
0.59013809
0.58893008
0.58772071
0.5865031
0.58525107
0.58392395
0.58256873
0.58098257
0.57882658
0.57881424
0.64506975
0.76604612
0.71537146
0.74248264
0.72528002
0.73305397
0.7264315
0.72763516
0.72462884
0.72355674
0.72159263
0.71986737
0.71798259
0.71604747
0.71403773
0.71195571
0.70980111
0.70757366
0.70527362
0.70290162
0.7004587
0.69794641
0.69536681
0.69272256
0.69001691
0.68725373
0.68443755
0.68157354
0.67866751
0.67572585
0.67275555
0.66976407
0.66675931
0.66374949
0.66074307
0.6577486
0.65477463
0.65182954
0.64892145
0.64605808
0.64324661
0.64049361
0.63780495
0.6351857
0.63264011
0.63017159
0.62778264
0.62547493
0.62324931
0.62110582
0.61904374
0.6170617
0.61515769
0.61332914
0.61157302
0.60988589
0.60826396
0.60670314
0.60519907
0.60374709
0.60234211
0.60097883
0.59965195
0.59835639
0.59708763
0.59584211
0.59461743
0.59341197
0.59222416
0.59105126
0.58988789
0.58872583
0.58755718
0.58637249
0.5851437
0.58384547
0.58250006
0.58086752
0.57888465
0.57877993
0.6482715
0.76950787
0.71784316
0.745073
0.72758294
0.73524257
0.72850814
0.72949984
0.72646865
0.72515465
0.723083
0.7211728
0.71912882
0.71701973
0.71483327
0.71256944
0.71022834
0.70781011
0.70531545
0.70274556
0.70010222
0.69738785
0.69460551
0.69175897
0.68885272
0.685892
0.68288275
0.67983167
0.67674608
0.67363397
0.67050382
0.6673646
0.66422558
0.66109625
0.65798614
0.65490469
0.65186111
0.64886419
0.64592221
0.64304276
0.64023266
0.63749785
0.63484334
0.63227314
0.62979029
0.6273968
0.62509375
0.62288129
0.62075871
0.61872453
0.61677657
0.61491204
0.61312761
0.61141953
0.60978368
0.60821565
0.60671084
0.60526445
0.60387155
0.60252699
0.60122541
0.59996126
0.59872917
0.59752405
0.59634148
0.59517808
0.59403159
0.5929005
0.59178314
0.59067634
0.58957404
0.58846761
0.58734869
0.5862053
0.58501045
0.58374917
0.58241732
0.58076876
0.57893341
0.57878273
0.651004
0.77237015
0.71985253
0.74715494
0.72942451
0.73675286
0.73001996
0.73064991
0.727625
0.72605106
0.72385705
0.7217508
0.71952785
0.71722653
0.71484224
0.71237443
0.70982373
0.70719105
0.70447791
0.70168651
0.69881976
0.69588135
0.69287575
0.68980828
0.68668507
0.68351311
0.68030016
0.67705475
0.67378608
0.67050392
0.6672185
0.66394035
0.66068019
0.65744868
0.6542563
0.65111314
0.64802876
0.64501197
0.64207077
0.63921213
0.63644199
0.63376514
0.63118521
0.62870465
0.62632482
0.62404594
0.62186729
0.61978719
0.61780316
0.61591205
0.61411007
0.61239297
0.61075612
0.60919457
0.60770321
0.60627677
0.60490992
0.60359727
0.60233345
0.601113
0.59993034
0.59877986
0.59765621
0.59655442
0.59547026
0.59440057
0.59334329
0.59229702
0.59126004
0.59022885
0.58919689
0.58815523
0.58709476
0.58600142
0.58485102
0.5836359
0.582326
0.58067903
0.57898108
0.5788085
0.6532986
0.77465667
0.72143384
0.74875498
0.7308486
0.73777224
0.73106737
0.7315325
0.72813208
0.72626397
0.72391355
0.72158618
0.71915083
0.71662612
0.71401164
0.71130752
0.70851516
0.70563655
0.70267443
0.69963238
0.69651483
0.69332718
0.69007577
0.68676787
0.68341172
0.68001647
0.67659208
0.67314926
0.66969931
0.666254
0.66282538
0.65942553
0.65606646
0.65275978
0.64951657
0.64634712
0.64326082
0.64026593
0.63736949
0.63457724
0.63189356
0.62932143
0.62686252
0.62451718
0.6222846
0.62016285
0.61814906
0.61623952
0.61442987
0.61271514
0.61109
0.60954876
0.60808556
0.60669444
0.60536939
0.60410445
0.60289374
0.60173149
0.600612
0.59952968
0.59847893
0.5974542
0.5964503
0.5954625
0.59448686
0.59352049
0.59256157
0.59160888
0.59066068
0.58971326
0.58875974
0.587791
0.58679696
0.58576209
0.58466645
0.58350709
0.58222785
0.58059735
0.57903121
0.57884324
0.6552256
0.77640154
0.72255296
0.7498767
0.73160826
0.73789644
0.73126092
0.73096404
0.72788918
0.72574814
0.72319203
0.72060742
0.71791737
0.71512956
0.71224542
0.70926633
0.70619475
0.70303412
0.69978879
0.69646417
0.69306674
0.68960412
0.68608502
0.68251925
0.67891762
0.67529188
0.67165459
0.66801891
0.66439844
0.66080698
0.65725826
0.65376575
0.65034233
0.64700009
0.64375007
0.64060209
0.63756456
0.63464435
0.63184674
0.62917538
0.62663231
0.62421803
0.62193159
0.61977073
0.61773207
0.61581123
0.61400301
0.61230159
0.61070067
0.60919363
0.60777362
0.60643376
0.60516715
0.60396698
0.60282664
0.60173968
0.60069991
0.59970134
0.59873822
0.59780498
0.59689615
0.59600642
0.5951309
0.59426523
0.59340583
0.59255017
0.59169673
0.59084446
0.58999172
0.58913468
0.58826636
0.58737741
0.58645671
0.58548816
0.58445691
0.58336112
0.58212097
0.5805291
0.57908807
0.57887369
0.65679492
0.77758501
0.72313368
0.75035084
0.73163302
0.73747884
0.73083214
0.73014432
0.72688451
0.72438698
0.72157413
0.71869338
0.715704
0.71260965
0.70941281
0.70611664
0.70272528
0.69924416
0.69567988
0.69204034
0.68833477
0.68457368
0.68076885
0.67693322
0.67308075
0.66922624
0.66538514
0.66157321
0.65780634
0.65410013
0.65046969
0.64692923
0.64349186
0.64016925
0.63697149
0.63390683
0.63098166
0.62820039
0.62556553
0.62307768
0.62073574
0.61853703
0.61647745
0.61455177
0.61275378
0.61107653
0.60951251
0.60805389
0.60669262
0.60542062
0.60422986
0.60311251
0.60206093
0.60106783
0.60012621
0.59922946
0.59837131
0.59754582
0.59674738
0.59597063
0.59521043
0.59446185
0.59372043
0.59298228
0.59224427
0.5915043
0.59076119
0.59001414
0.58926159
0.58849979
0.58772176
0.58691793
0.58607619
0.5851809
0.58422206
0.58319471
0.58200166
0.58047695
0.57915485
0.57888834
0.65794877
0.77810886
0.72310078
0.74930943
0.73086967
0.73612158
0.72961631
0.72833278
0.72493445
0.72205815
0.71893009
0.71570678
0.71236827
0.70891853
0.70536133
0.70170216
0.6979476
0.69410587
0.69018669
0.68620138
0.68216277
0.67808517
0.67398421
0.66987663
0.66578003
0.66171258
0.65769269
0.65373863
0.64986816
0.64609813
0.64244415
0.63892019
0.63553836
0.63230863
0.62923869
0.62633389
0.62359724
0.62102945
0.61862916
0.61639307
0.61431622
0.61239223
0.61061361
0.60897197
0.60745832
0.6060633
0.60477735
0.60359092
0.60249461
0.60147926
0.60053606
0.59965662
0.59883298
0.59805766
0.59732368
0.59662451
0.59595409
0.59530679
0.59467732
0.59406075
0.59345239
0.59284783
0.59224319
0.59163509
0.59102097
0.5903992
0.58976896
0.5891297
0.58848008
0.58781646
0.587132
0.58641683
0.58565818
0.58484178
0.58396128
0.58300493
0.58186649
0.58043603
0.57923348
0.57888022
0.65859094
0.77779823
0.72233747
0.74749209
0.72945925
0.73388476
0.72744367
0.72554786
0.72191575
0.71861949
0.71511228
0.71149126
0.70774727
0.70388693
0.69991629
0.69584404
0.69168036
0.68743745
0.68312938
0.67877206
0.67438307
0.66998147
0.66558746
0.66122213
0.65690698
0.65266351
0.64851279
0.64447491
0.64056856
0.63681059
0.6332156
0.62979563
0.62655999
0.6235151
0.62066451
0.61800901
0.6155468
0.61327374
0.61118368
0.60926879
0.60751988
0.60592678
0.60447861
0.60316411
0.60197188
0.60089057
0.59990907
0.59901667
0.59820311
0.59745869
0.59677431
0.59614148
0.59555234
0.5949996
0.5944766
0.59397723
0.59349588
0.59302743
0.59256714
0.59211062
0.59165379
0.59119289
0.59072464
0.59024632
0.58975594
0.58925238
0.58873521
0.58820417
0.58765812
0.58709365
0.58650401
0.58587914
0.58520611
0.58447253
0.58367397
0.58279057
0.5817152
0.5803934
0.57931407
0.57884555
0.65865313
0.77657238
0.72070176
0.74497561
0.72716944
0.73059389
0.72419099
0.72163017
0.71767949
0.71391204
0.70995285
0.70586717
0.70165163
0.69731709
0.69287358
0.68833449
0.68371524
0.67903365
0.67430964
0.66956503
0.66482323
0.66010885
0.6554472
0.65086383
0.64638387
0.64203149
0.63782927
0.6337976
0.6299542
0.6263137
0.62288731
0.61968271
0.61670405
0.61395204
0.61142419
0.6091152
0.60701729
0.6051207
0.60341407
0.60188492
0.60052001
0.59930571
0.59822834
0.59727437
0.59643065
0.59568458
0.59502421
0.59443831
0.59391643
0.5934489
0.59302684
0.59264214
0.5922874
0.59195593
0.59164169
0.5913392
0.59104356
0.59075033
0.59045546
0.59015525
0.5898463
0.58952557
0.58919047
0.58883895
0.58846964
0.58808192
0.58767577
0.58725121
0.58680735
0.58634094
0.58584538
0.58531056
0.58472394
0.58407499
0.58335944
0.58255045
0.58154848
0.58034494
0.5793802
0.57878186
0.65811655
0.77433416
0.71812314
0.74133764
0.72384687
0.7261561
0.71971021
0.71643223
0.71205163
0.70774068
0.70324341
0.69861166
0.69384733
0.68896727
0.68398783
0.67892921
0.6738141
0.66866769
0.66351726
0.65839176
0.65332126
0.64833631
0.64346722
0.63874331
0.63419206
0.62983837
0.6257039
0.62180642
0.61815952
0.61477231
0.61164949
0.60879147
0.60619473
0.60385227
0.60175412
0.59988791
0.59823945
0.5967933
0.59553323
0.59444267
0.59350512
0.5927044
0.59202491
0.59145185
0.59097125
0.59057013
0.59023649
0.58995933
0.58972864
0.58953535
0.58937128
0.58922911
0.5891023
0.588985
0.58887203
0.58875878
0.5886412
0.58851565
0.58837888
0.58822795
0.58806021
0.58787338
0.58766558
0.58743543
0.58718219
0.58690574
0.58660644
0.58628462
0.58593955
0.58556816
0.58516398
0.58471718
0.58421599
0.58365119
0.58301712
0.58228314
0.58136475
0.58028587
0.57941643
0.57868929
0.65692473
0.77091299
0.71455035
0.73651094
0.71933765
0.72039662
0.71379972
0.70973573
0.70479651
0.69984615
0.69470978
0.68943791
0.68404034
0.67854223
0.672969
0.66735
0.66171719
0.65610492
0.65054916
0.64508683
0.63975485
0.6345891
0.62962341
0.62488848
0.62041091
0.61621249
0.61230961
0.60871307
0.60542798
0.60245413
0.59978636
0.59741524
0.59532775
0.59350808
0.5919383
0.59059913
0.58947055
0.58853234
0.58776452
0.5871477
0.5866634
0.58629417
0.58602375
0.58583713
0.5857206
0.58566167
0.58564909
0.58567277
0.5857237
0.58579391
0.58587631
0.58596469
0.58605361
0.5861383
0.58621461
0.58627891
0.58632808
0.58635939
0.58637041
0.586359
0.58632328
0.58626171
0.58617314
0.58605683
0.58591263
0.58574091
0.58554239
0.58531765
0.58506612
0.58478483
0.5844676
0.58410518
0.58368675
0.58320341
0.58264737
0.58198864
0.58116249
0.58020788
0.57940704
0.57857528
0.65502276
0.76606854
0.71002829
0.73029852
0.71343038
0.71308956
0.70618837
0.70124137
0.69559331
0.68988482
0.68399732
0.67798708
0.67187551
0.6656987
0.65949388
0.6533021
0.64716681
0.64113308
0.63524637
0.62955121
0.62408969
0.61890004
0.6140153
0.6094623
0.60526091
0.6014237
0.59795605
0.59485648
0.59211736
0.58972577
0.58766449
0.585913
0.58444848
0.58324668
0.58228277
0.58153193
0.58096996
0.5805736
0.58032092
0.58019142
0.5801662
0.58022801
0.58036118
0.58055165
0.58078685
0.58105563
0.58134813
0.58165571
0.58197081
0.58228688
0.58259821
0.58289992
0.58318781
0.58345829
0.58370834
0.58393536
0.5841372
0.58431201
0.58445822
0.58457448
0.58465964
0.5847129
0.58473374
0.58472206
0.58467822
0.58460304
0.58449758
0.58436263
0.58419771
0.58399997
0.58376372
0.58348065
0.58314069
0.5827342
0.58225144
0.58166773
0.58093971
0.58010433
0.57934594
0.57844143
0.65235271
0.75940888
0.70444248
0.72243617
0.70581581
0.70388683
0.69648657
0.69053376
0.68401624
0.67742142
0.67067289
0.66383675
0.65695055
0.650065
0.64323282
0.63650977
0.62995264
0.62361745
0.61755734
0.61182055
0.60644857
0.60147467
0.59692295
0.59280797
0.58913484
0.58589995
0.58309188
0.5806927
0.57867933
0.57702489
0.57570006
0.57467417
0.57391624
0.57339577
0.57308335
0.57295112
0.57297305
0.57312518
0.57338561
0.57373458
0.57415436
0.5746292
0.57514519
0.57569009
0.57625325
0.57682542
0.57739861
0.57796598
0.57852168
0.57906077
0.57957907
0.58007308
0.58053992
0.58097721
0.58138303
0.58175583
0.58209438
0.58239769
0.58266498
0.58289565
0.58308927
0.58324566
0.58336491
0.58344743
0.58349406
0.58350599
0.58348458
0.58343078
0.58334415
0.58322209
0.58305966
0.58284968
0.58258243
0.58224673
0.58183199
0.58132265
0.58069478
0.57996934
0.57923768
0.57828368
0.64877893
0.75026249
0.69717338
0.71247006
0.69603554
0.69231132
0.68418676
0.67709398
0.66954832
0.6619421
0.65423793
0.64651716
0.63884015
0.63127788
0.62390225
0.61678501
0.60999438
0.60359215
0.59763106
0.59215279
0.58718663
0.58274913
0.5788444
0.57546518
0.57259436
0.57020677
0.56827115
0.56675201
0.56561134
0.56481015
0.56430966
0.56407227
0.56406226
0.56424626
0.56459353
0.56507611
0.56566882
0.56634917
0.56709728
0.56789567
0.56872911
0.56958435
0.57045002
0.57131637
0.57217509
0.57301918
0.57384275
0.57464092
0.57540963
0.57614559
0.57684616
0.57750922
0.57813315
0.57871673
0.57925908
0.57975962
0.58021798
0.58063396
0.5810075
0.58133865
0.58162764
0.58187482
0.58208079
0.58224641
0.58237289
0.58246173
0.58251453
0.58253232
0.58251473
0.58245956
0.58236294
0.58221876
0.58201715
0.58174529
0.5813935
0.58095734
0.58042733
0.57979889
0.57908374
0.5781079
0.64401189
0.7386515
0.68779132
0.69983755
0.68350819
0.67779955
0.66868474
0.66029931
0.65157181
0.64284629
0.63413325
0.62553812
0.6171509
0.60906583
0.60137191
0.59414974
0.58746733
0.58137742
0.57591574
0.57110065
0.5669339
0.56340234
0.56048023
0.55813195
0.55631475
0.55498135
0.55408222
0.55356749
0.5533885
0.55349883
0.55385515
0.55441757
0.55514994
0.55601984
0.55699852
0.55806065
0.55918417
0.56034992
0.56154146
0.5627447
0.56394769
0.56514036
0.56631427
0.5674624
0.56857902
0.56965942
0.57069985
0.57169734
0.5726496
0.5735549
0.57441202
0.57522015
0.57597881
0.57668782
0.57734726
0.57795739
0.5785186
0.57903139
0.57949631
0.57991401
0.58028523
0.5806108
0.58089171
0.58112918
0.58132469
0.58148
0.58159687
0.58167632
0.58171815
0.58172079
0.58168154
0.5815951
0.58145109
0.58123584
0.58094271
0.58057778
0.5801387
0.57959158
0.57888963
0.57792328
0.63769186
0.7255762
0.6757377
0.68394626
0.66751107
0.65962579
0.64920782
0.63935819
0.62933096
0.61945361
0.60979702
0.60049628
0.59166807
0.58341978
0.57584051
0.56899788
0.56293562
0.55767343
0.55320842
0.54951798
0.54656337
0.54429377
0.54265022
0.54156923
0.54098582
0.540836
0.54105849
0.54159604
0.5423961
0.54341123
0.54459916
0.54592261
0.54734907
0.54885038
0.55040237
0.55198443
0.5535791
0.55517172
0.55675003
0.55830389
0.55982499
0.56130655
0.56274317
0.56413056
0.56546544
0.56674531
0.5679684
0.56913351
0.57023992
0.57128734
0.57227579
0.5732056
0.57407729
0.5748916
0.5756494
0.57635167
0.57699945
0.57759383
0.57813589
0.57862676
0.5790676
0.57945961
0.57980409
0.5801025
0.58035658
0.58056823
0.58073924
0.58087066
0.58096255
0.5810142
0.58102395
0.58098685
0.58089198
0.58072639
0.58048842
0.58019185
0.57983275
0.57934939
0.57866349
0.57774108
0.62949004
0.70846806
0.66017052
0.66390422
0.64699346
0.63672562
0.62471935
0.61330282
0.60200809
0.59115733
0.58087826
0.57132229
0.56260714
0.55482125
0.54801843
0.5422187
0.53741086
0.53355724
0.53059938
0.52846416
0.52706954
0.52632959
0.52615853
0.52647385
0.5271983
0.52826126
0.52959927
0.53115619
0.53288299
0.53473729
0.53668279
0.53868868
0.540729
0.54278201
0.54482967
0.54685712
0.54885221
0.55080509
0.55270792
0.55455448
0.55633999
0.55806085
0.55971443
0.56129896
0.56281334
0.56425705
0.56563003
0.56693261
0.56816544
0.56932942
0.57042564
0.57145537
0.57241997
0.57332094
0.57415979
0.57493812
0.57565747
0.5763194
0.57692545
0.57747712
0.5779759
0.57842327
0.57882076
0.57917004
0.57947296
0.57973153
0.57994748
0.58012193
0.58025535
0.58034797
0.58039887
0.58040294
0.58034911
0.58022703
0.58004117
0.57980871
0.57951633
0.57907979
0.57841668
0.57757296
0.61875376
0.68634162
0.63968524
0.63828961
0.6204749
0.6077067
0.59404498
0.58122974
0.56904397
0.5577861
0.54759874
0.53860351
0.53086662
0.52440688
0.51919872
0.51518051
0.51226361
0.51034176
0.50929958
0.50901969
0.50938809
0.5102979
0.51165162
0.51336225
0.51535354
0.51755959
0.51992418
0.5223998
0.52494669
0.52753185
0.53012807
0.53271315
0.53526905
0.5377813
0.54023841
0.54263135
0.54495319
0.54719871
0.5493641
0.55144675
0.55344501
0.55535803
0.55718561
0.55892809
0.56058623
0.56216114
0.56365419
0.56506698
0.56640123
0.56765884
0.56884175
0.56995197
0.57099157
0.5719626
0.57286713
0.57370719
0.57448477
0.57520178
0.5758601
0.57646154
0.57700783
0.57750064
0.5779417
0.57833281
0.57867592
0.57897301
0.57922577
0.57943543
0.57960304
0.57972965
0.57981466
0.57985255
0.57983283
0.57974934
0.5796125
0.57943844
0.57919966
0.57879602
0.57816176
0.57743262
0.60432707
0.65708585
0.61235865
0.60534027
0.58634507
0.57119258
0.55630011
0.54279172
0.53063291
0.52004087
0.5110887
0.50379371
0.49810555
0.49392437
0.49111436
0.48951898
0.48897375
0.48931644
0.49039417
0.49206782
0.49421418
0.49672643
0.49951359
0.50249922
0.50561987
0.5088234
0.51206735
0.51531744
0.51854622
0.52173193
0.52485748
0.52790964
0.53087832
0.533756
0.53653726
0.53921837
0.54179698
0.54427186
0.54664267
0.54890978
0.55107414
0.55313716
0.5551006
0.55696649
0.55873707
0.56041474
0.56200198
0.56350137
0.56491551
0.56624702
0.56749853
0.56867262
0.56977186
0.57079877
0.57175581
0.57264536
0.57346973
0.57423111
0.57493164
0.57557334
0.57615811
0.57668781
0.57716428
0.57758943
0.57796527
0.57829371
0.57857639
0.57881478
0.57901052
0.57916525
0.57927832
0.57934387
0.57935297
0.57930443
0.579213
0.57908993
0.57889319
0.57851741
0.57792457
0.57731659
0.58423055
0.61835149
0.57600192
0.56325962
0.54359927
0.52649455
0.51153022
0.49876124
0.48815624
0.47975814
0.47346921
0.46912901
0.46652533
0.46542285
0.46558234
0.46677587
0.46879602
0.47146058
0.47461373
0.47812507
0.48188729
0.4858133
0.48983324
0.49389165
0.49794491
0.5019591
0.50590807
0.50977198
0.51353599
0.51718927
0.52072417
0.52413557
0.52742031
0.53057684
0.53360481
0.53650485
0.53927833
0.5419272
0.54445386
0.54686102
0.54915166
0.5513289
0.553396
0.55535629
0.55721311
0.55896983
0.56062978
0.56219625
0.56367248
0.56506166
0.56636688
0.56759116
0.56873744
0.56980857
0.5708073
0.57173626
0.572598
0.57339491
0.57412932
0.5748034
0.57541919
0.57597865
0.57648375
0.57693647
0.57733882
0.57769266
0.57799967
0.5782616
0.57848062
0.57865861
0.57879466
0.57888301
0.57891712
0.57890052
0.57884987
0.57876921
0.57860558
0.5782589
0.57772122
0.57722858
0.55584822
0.56763182
0.52927646
0.51070839
0.48994608
0.47437928
0.46132228
0.45137709
0.4442786
0.43978275
0.4375417
0.43719027
0.43836896
0.44074965
0.44404619
0.44801809
0.45246862
0.45724028
0.46220905
0.46727867
0.47237531
0.47744301
0.48243991
0.4873351
0.49210626
0.4967376
0.50121845
0.50554199
0.50970439
0.51370407
0.51754115
0.52121706
0.52473415
0.5280955
0.53130469
0.53436566
0.53728259
0.54005981
0.54270174
0.54521281
0.54759747
0.54986012
0.55200508
0.5540366
0.55595884
0.55777584
0.55949153
0.56110971
0.56263408
0.5640682
0.56541551
0.56667932
0.56786283
0.56896911
0.5700011
0.57096164
0.5718534
0.57267895
0.57344072
0.57414099
0.5747819
0.57536553
0.5758939
0.57636907
0.576793
0.57716757
0.57749453
0.57777595
0.57801434
0.57821156
0.57836644
0.57847388
0.57853019
0.57854238
0.57852643
0.57847915
0.57834292
0.57803056
0.5775585
0.57716746
0.51505927
0.50241882
0.46502304
0.44702706
0.42951902
0.41725071
0.40889458
0.40423271
0.40260873
0.40343404
0.40613728
0.41022915
0.41530548
0.42104636
0.42720515
0.43359588
0.44008076
0.44655927
0.45295924
0.45922978
0.46533584
0.47125408
0.47696976
0.48247446
0.48776433
0.49283884
0.49769982
0.50235078
0.50679638
0.51104206
0.51509377
0.51895774
0.52264036
0.52614805
0.52948719
0.53266408
0.53568486
0.53855554
0.54128194
0.54386971
0.54632429
0.54865094
0.55085473
0.55294054
0.55491305
0.55677678
0.55853605
0.56019501
0.56175765
0.56322779
0.56460908
0.56590503
0.56711899
0.5682542
0.56931371
0.57030047
0.57121725
0.57206671
0.57285138
0.5735736
0.5742356
0.57483952
0.57538745
0.57588144
0.57632347
0.57671539
0.57705912
0.57735698
0.57761163
0.57782476
0.57799515
0.57811891
0.57819507
0.57823258
0.57824477
0.5782227
0.57811046
0.57783817
0.57743761
0.57713015
0.45290898
0.4201972
0.39038119
0.37546089
0.36457397
0.35974574
0.35917149
0.36192848
0.36702152
0.37368771
0.38133909
0.38954918
0.39801613
0.40653184
0.41495594
0.42319613
0.43119374
0.43891336
0.44633557
0.45345186
0.46026104
0.4667668
0.47297599
0.47889744
0.48454115
0.48991771
0.49503795
0.49991266
0.50455241
0.5089675
0.51316784
0.51716293
0.52096184
0.52457324
0.52800538
0.53126607
0.5343628
0.53730263
0.54009231
0.54273825
0.54524656
0.54762304
0.54987325
0.55200244
0.55401565
0.55591768
0.5577131
0.55940627
0.56100137
0.56250236
0.56391304
0.56523702
0.56647776
0.56763855
0.56872255
0.56973272
0.57067192
0.57154286
0.57234809
0.57309003
0.57377095
0.57439304
0.57495843
0.57546915
0.57592716
0.57633432
0.5766927
0.57700481
0.57727328
0.57749962
0.57768288
0.57782074
0.57791465
0.57797405
0.57800876
0.57800607
0.57791603
0.57768677
0.57735664
0.57711212
0.35675248
0.32316501
0.30548621
0.30097939
0.30236051
0.30864269
0.31784224
0.32868849
0.34030449
0.35213657
0.36384753
0.37524037
0.38620682
0.39669348
0.40668051
0.41616816
0.42516842
0.43369977
0.44178397
0.44944407
0.45670325
0.46358407
0.47010808
0.47629568
0.48216596
0.48773676
0.49302468
0.49804514
0.50281247
0.50733999
0.51164008
0.51572426
0.51960326
0.52328712
0.5267852
0.53010629
0.53325861
0.53624992
0.53908749
0.54177819
0.54432852
0.54674461
0.54903226
0.55119699
0.55324402
0.55517831
0.55700458
0.5587273
0.56035075
0.56187899
0.56331587
0.56466507
0.56593008
0.56711424
0.56822071
0.5692525
0.57021246
0.57110332
0.57192766
0.57268789
0.57338632
0.57402519
0.5746066
0.57513258
0.57560504
0.57602589
0.57639733
0.57672192
0.5770022
0.57723955
0.57743353
0.57758346
0.57769246
0.5777694
0.57782083
0.57783324
0.57776518
0.57757873
0.57731011
0.57710759
0.21719835
0.21590784
0.22130238
0.23473511
0.25209031
0.2705315
0.28885028
0.30639394
0.32293233
0.33840094
0.35282471
0.36626395
0.37879245
0.39048553
0.40141505
0.41164712
0.42124156
0.43025197
0.43872618
0.44670677
0.45423173
0.46133492
0.46804664
0.47439407
0.48040162
0.48609132
0.49148311
0.49659506
0.50144366
0.50604393
0.51040967
0.51455353
0.51848718
0.52222142
0.52576625
0.52913097
0.53232424
0.53535417
0.53822834
0.54095386
0.54353743
0.54598536
0.54830361
0.5504978
0.55257326
0.55453504
0.55638793
0.55813648
0.55978498
0.56133756
0.5627981
0.56417029
0.56545765
0.56666352
0.56779107
0.5688433
0.56982305
0.57073302
0.57157578
0.57235374
0.57306922
0.57372442
0.57432146
0.57486232
0.57534892
0.5757832
0.57616743
0.57650418
0.57679582
0.57704368
0.57724777
0.57740858
0.57753018
0.5776206
0.57768406
0.57770768
0.57765796
0.57750732
0.57728683
0.57710995
0.092191613
0.12217401
0.15969794
0.19343947
0.22365803
0.25026266
0.27387474
0.29496098
0.3139383
0.33113345
0.34680986
0.3611785
0.37441062
0.38664635
0.3980016
0.40857314
0.41844243
0.4276787
0.43634117
0.44448088
0.45214213
0.4593636
0.46617926
0.4726191
0.47870976
0.48447499
0.48993608
0.49511221
0.50002068
0.50467724
0.50909621
0.51329071
0.51727275
0.52105343
0.52464297
0.52805088
0.53128597
0.53435645
0.53727003
0.54003389
0.54265481
0.54513914
0.5474929
0.54972174
0.55183102
0.55382582
0.55571096
0.55749099
0.55917025
0.56075285
0.5622427
0.56364351
0.56495879
0.56619188
0.56734596
0.56842403
0.56942891
0.5703633
0.57122976
0.57203067
0.57276835
0.57344496
0.5740626
0.57462321
0.57512868
0.57558101
0.57598244
0.57633549
0.57664241
0.57690444
0.57712169
0.57729507
0.57742926
0.57753177
0.5776057
0.577639
0.57760228
0.57747293
0.57727889
0.57711333
0.010927174
0.29701497
0.47212462
0.52016022
0.52987372
0.53035079
0.53002249
0.53116224
0.5326632
0.53415602
0.53564409
0.53709215
0.5385208
0.53993248
0.54134101
0.54275572
0.544178
0.54560829
0.54704632
0.54849113
0.54994128
0.55139501
0.55285037
0.55430527
0.55575758
0.55720517
0.5586459
0.56007769
0.56149848
0.56290628
0.56429915
0.56567517
0.56703248
0.56836923
0.5696836
0.57097377
0.57223796
0.57347437
0.57468121
0.57585668
0.57699899
0.57810634
0.57917695
0.58020902
0.58120079
0.58215049
0.58305642
0.5839169
0.58473028
0.58549503
0.58620966
0.58687278
0.58748306
0.58803927
0.5885402
0.58898468
0.5893716
0.58969981
0.58996825
0.5901756
0.59031999
0.59039955
0.59041226
0.5903558
0.59022628
0.59002134
0.58973229
0.58936478
0.58888869
0.58835453
0.58763657
0.58695044
0.58590831
0.58524298
0.58377732
0.58340312
0.58150347
0.58144154
0.57934847
0.57869564
0.063821652
0.3847677
0.52266112
0.54779169
0.54858519
0.54672502
0.54587363
0.54602679
0.54623405
0.54653954
0.5469329
0.54749365
0.54817433
0.54894549
0.5497784
0.55067003
0.55161392
0.55260547
0.55363931
0.55471027
0.55581363
0.55694495
0.55810006
0.559275
0.56046601
0.56166951
0.5628821
0.56410052
0.56532162
0.5665424
0.56775993
0.56897141
0.5701741
0.57136534
0.57254254
0.57370316
0.57484472
0.5759648
0.57706099
0.57813095
0.57917236
0.58018297
0.58116054
0.58210289
0.5830079
0.58387348
0.58469765
0.58547846
0.58621409
0.5869028
0.58754296
0.58813307
0.58867172
0.5891576
0.58958948
0.58996618
0.59028662
0.59054969
0.59075442
0.59089955
0.59098331
0.59100397
0.59095965
0.59084809
0.59066567
0.59040983
0.59007276
0.58965856
0.58914108
0.58856333
0.58781494
0.58709106
0.58603746
0.58533443
0.58387948
0.58347559
0.58157142
0.58151572
0.57933767
0.57876311
0.14818926
0.46577948
0.54247691
0.55521908
0.55378325
0.55282424
0.55282169
0.55338291
0.55379936
0.55432154
0.55482686
0.55539402
0.55598207
0.55661128
0.55727364
0.55797392
0.55870826
0.55947681
0.56027805
0.56111025
0.56197165
0.56286027
0.56377402
0.56471068
0.56566787
0.56664314
0.56763394
0.56863765
0.5696516
0.57067304
0.57169923
0.57272736
0.57375464
0.57477825
0.57579536
0.57680316
0.57779885
0.57877965
0.57974278
0.58068551
0.58160514
0.58249902
0.58336455
0.58419917
0.58500041
0.58576588
0.58649326
0.58718035
0.58782507
0.58842548
0.58897976
0.58948627
0.58994346
0.59034993
0.59070439
0.59100562
0.59125254
0.59144408
0.5915793
0.59165701
0.59167552
0.59163318
0.59152823
0.59135848
0.59112046
0.59081151
0.59042434
0.58996218
0.58940116
0.58877983
0.58799844
0.58724107
0.58616919
0.58543639
0.58398032
0.58355591
0.5816362
0.58158753
0.57933331
0.57882443
0.230026
0.51326795
0.55612978
0.56359389
0.56086632
0.56108
0.56114828
0.56174525
0.56201906
0.56246904
0.56284614
0.56330255
0.5637625
0.56425354
0.56476182
0.56529538
0.56585155
0.56643235
0.56703766
0.56766742
0.56832133
0.56899888
0.56969934
0.57042177
0.57116496
0.57192756
0.57270796
0.57350441
0.57431495
0.57513747
0.57596972
0.57680932
0.57765375
0.57850039
0.57934656
0.58018947
0.5810263
0.58185416
0.58267016
0.58347137
0.58425489
0.58501781
0.58575727
0.58647047
0.58715465
0.58780715
0.5884254
0.58900697
0.58954955
0.590051
0.59050934
0.59092276
0.59128959
0.59160834
0.59187764