/*--------------------------------*- C++ -*----------------------------------*\
  =========                 |
  \\      /  F ield         | OpenFOAM: The Open Source CFD Toolbox
   \\    /   O peration     | Website:  https://openfoam.org
    \\  /    A nd           | Version:  12
     \\/     M anipulation  |
\*---------------------------------------------------------------------------*/
FoamFile
{
    format      ascii;
    class       volScalarField;
    location    "0.069";
    object      p;
}
// * * * * * * * * * * * * * * * * * * * * * * * * * * * * * * * * * * * * * //

dimensions      [1 -1 -2 0 0 0 0];

internalField   nonuniform List<scalar> 
16000
(
89407.415
89534.182
89546.001
89681.428
89707.624
89835.954
89886.592
90004.138
90078.333
90190.105
90282.708
90394.349
90501.113
90617.08
90734.949
90858.299
90985.739
91117.876
91254.588
91395.964
91542.016
91692.75
91848.15
92008.178
92172.768
92341.827
92515.235
92692.838
92874.45
93059.851
93248.787
93440.969
93636.074
93833.743
94033.589
94235.195
94438.115
94641.884
94846.016
95050.014
95253.371
95455.581
95656.139
95854.549
96050.332
96243.027
96432.2
96617.448
96798.402
96974.732
97146.146
97312.393
97473.263
97628.586
97778.23
97922.105
98060.153
98192.348
98318.69
98439.205
98553.939
98662.955
98766.329
98864.157
98956.546
99043.615
99125.493
99202.317
99274.23
99341.373
99403.885
99461.943
99515.793
99565.524
99610.88
99649.58
99711.63
99663.203
99881.057
99617.875
89017.197
89160.936
89170.173
89317.75
89345.534
89484.857
89537.876
89666.759
89744.765
89866.692
89965.678
90086.271
90201.346
90326.171
90453.291
90586.114
90723.437
90865.75
91012.975
91165.169
91322.33
91484.442
91651.459
91823.309
91999.889
92181.064
92366.664
92556.485
92750.286
92947.789
93148.679
93352.602
93559.171
93767.964
93978.526
94190.378
94403.015
94615.913
94828.538
95040.347
95250.799
95459.358
95665.502
95868.726
96068.554
96264.539
96456.269
96643.374
96825.525
97002.441
97173.883
97339.656
97499.612
97653.644
97801.686
97943.709
98079.717
98209.742
98333.842
98452.094
98564.59
98671.434
98772.735
98868.613
98959.192
99044.604
99124.986
99200.482
99271.246
99337.424
99399.16
99456.668
99510.178
99559.456
99604.185
99649.552
99689.886
99685.268
99845.423
99635.138
88659.659
88818.952
88828.038
88988.945
89016.601
89169.684
89224.255
89365.447
89448.249
89580.661
89687.388
89817.539
89942.169
90076.845
90214.4
90357.888
90506.318
90660.054
90819.035
90983.277
91152.751
91327.403
91507.149
91691.873
91881.423
92075.614
92274.221
92476.978
92683.58
92893.682
93106.896
93322.796
93540.92
93760.771
93981.823
94203.527
94425.312
94646.598
94866.8
95085.334
95301.63
95515.133
95725.314
95931.676
96133.76
96331.149
96523.475
96710.416
96891.705
97067.123
97236.502
97399.721
97556.704
97707.422
97851.88
97990.121
98122.216
98248.261
98368.37
98482.674
98591.314
98694.434
98792.179
98884.696
98972.131
99054.63
99132.341
99205.418
99274.024
99338.31
99398.438
99454.637
99507.03
99555.254
99600.158
99645.338
99677.887
99697.738
99819.852
99641.636
88337.592
88507.725
88517.832
88694.163
88721.291
88890.595
88947.348
89102.854
89191.446
89335.916
89451.898
89592.995
89728.832
89874.853
90024.399
90180.068
90341.077
90507.667
90679.779
90857.392
91040.443
91228.841
91422.459
91621.134
91824.661
92032.793
92245.237
92461.656
92681.666
92904.837
93130.698
93358.734
93588.396
93819.1
94050.241
94281.191
94511.314
94739.973
94966.537
95190.391
95410.944
95627.64
95839.96
96047.435
96249.645
96446.228
96636.877
96821.345
96999.444
97171.038
97336.048
97494.442
97646.233
97791.476
97930.257
98062.697
98188.937
98309.138
98423.472
98532.122
98635.275
98733.115
98825.82
98913.563
98996.512
99074.826
99148.668
99218.201
99283.59
99344.998
99402.605
99456.632
99507.085
99553.747
99598.07
99641.069
99671.086
99702.621
99800.911
99640.44
88054.375
88239.517
88246.251
88441.462
88467.564
88655.451
88714.494
88886.25
88981.986
89139.957
89267.024
89420.33
89568.981
89727.683
89890.554
90059.687
90234.508
90415.168
90601.607
90793.773
90991.569
91194.859
91403.465
91617.158
91835.661
92058.647
92285.735
92516.492
92750.433
92987.025
93225.69
93465.811
93706.735
93947.784
94188.264
94427.471
94664.706
94899.28
95130.531
95357.829
95580.584
95798.262
96010.382
96216.527
96416.347
96609.558
96795.946
96975.359
97147.711
97312.972
97471.166
97622.365
97766.679
97904.256
98035.27
98159.918
98278.412
98390.976
98497.836
98599.222
98695.361
98786.471
98872.757
98954.417
99031.635
99104.587
99173.446
99238.383
99299.569
99357.169
99411.38
99462.392
99510.136
99554.644
99597.467
99637.638
99666.369
99704.566
99784.248
99634.753
87815.329
88018.158
88022.79
88239.16
88264.086
88472.644
88533.941
88723.678
88827.849
89000.269
89139.851
89306.037
89468.546
89640.853
89818.062
90001.774
90191.597
90387.6
90589.7
90797.793
91011.723
91231.281
91456.204
91686.171
91920.804
92159.663
92402.249
92648.008
92896.327
93146.548
93397.967
93649.848
93901.427
94151.925
94400.56
94646.561
94889.175
95127.686
95361.419
95589.758
95812.148
96028.106
96237.224
96439.173
96633.705
96820.648
96999.904
97171.446
97335.312
97491.594
97640.434
97782.016
97916.556
98044.296
98165.497
98280.43
98389.375
98492.609
98590.408
98683.039
98770.761
98853.818
98932.434
99006.822
99077.181
99143.697
99206.551
99265.921
99321.976
99374.89
99424.857
99472.022
99516.296
99557.96
99598.396
99635.222
99662.687
99705.024
99768.017
99626.566
87622.139
87845.961
87847.746
88088.883
88112.72
88345.503
88410.066
88619.447
88732.204
88918.474
89071.479
89251.108
89428.749
89616.106
89809.278
90009.366
90216.064
90429.338
90649.039
90874.975
91106.896
91344.486
91587.366
91835.089
92087.141
92342.939
92601.838
92863.131
93126.058
93389.813
93653.554
93916.415
94177.521
94435.997
94690.989
94941.674
95187.278
95427.083
95660.444
95886.797
96105.662
96316.654
96519.479
96713.937
96899.917
97077.392
97246.413
97407.098
97559.626
97704.226
97841.166
97970.744
98093.282
98209.114
98318.578
98422.017
98519.764
98612.143
98699.465
98782.026
98860.103
98933.954
99003.816
99069.907
99132.432
99191.583
99247.543
99300.489
99350.591
99398.019
99442.957
99485.499
99525.572
99563.679
99600.849
99633.685
99659.655
99704.852
99752.256
99616.995
87469.212
87717.722
87715.143
87986.131
88006.847
88266.657
88334.499
88563.189
88687.51
88889.761
89059.662
89255.414
89451.108
89656.371
89868.267
90087.469
90313.708
90546.841
90786.628
91032.767
91284.88
91542.516
91805.144
92072.156
92342.868
92616.525
92892.3
93169.312
93446.63
93723.287
93998.297
94270.67
94539.429
94803.626
95062.363
95314.805
95560.196
95797.869
96027.259
96247.908
96459.466
96661.697
96854.469
97037.755
97211.62
97376.212
97531.754
97678.527
97816.862
97947.128
98069.718
98185.042
98293.516
98395.555
98491.567
98581.944
98667.064
98747.284
98822.934
98894.325
98961.741
99025.443
99085.666
99142.626
99196.524
99247.549
99295.88
99341.689
99385.136
99426.386
99465.597
99502.815
99538.023
99571.879
99604.9
99633.098
99657.348
99704.223
99736.584
99607.092
87353.679
87630.739
87623.708
87931.884
87946.839
88235.714
88308.522
88559.076
88700.104
88920.9
89111.436
89326.324
89543.232
89769.601
90003.324
90244.719
90493.483
90749.347
91011.937
91280.801
91555.397
91835.092
92119.163
92406.799
92697.107
92989.118
93281.8
93574.07
93864.816
94152.908
94437.225
94716.672
94990.203
95256.84
95515.69
95765.965
96006.992
96238.222
96459.238
96669.757
96869.623
97058.804
97237.383
97405.544
97563.56
97711.779
97850.605
97980.491
98101.918
98215.387
98321.405
98420.477
98513.097
98599.744
98680.872
98756.911
98828.261
98895.293
98958.345
99017.726
99073.714
99126.558
99176.484
99223.693
99268.375
99310.705
99350.851
99388.971
99425.212
99459.721
99492.623
99523.928
99553.706
99582.671
99610.74
99633.868
99656.273
99702.867
99721.274
99598.171
87277.393
87587.792
87577.628
87923.187
87937.033
88258.133
88342.433
88618.308
88779.567
89021.119
89236.12
89473.508
89715.041
89966.043
90225.006
90491.94
90766.436
91048.057
91336.25
91630.361
91929.628
92233.182
92540.053
92849.176
93159.403
93469.518
93778.256
94084.328
94386.438
94683.315
94973.734
95256.542
95530.682
95795.216
96049.337
96292.388
96523.868
96743.436
96950.905
97146.242
97329.549
97501.057
97661.1
97810.106
97948.573
98077.051
98196.129
98306.416
98408.528
98503.078
98590.663
98671.858
98747.211
98817.238
98882.418
98943.194
98999.969
99053.11
99102.943
99149.763
99193.827
99235.365
99274.578
99311.648
99346.742
99380.013
99411.609
99441.666
99470.313
99497.67
99523.824
99548.774
99572.679
99596.199
99618.687
99636.635
99657.016
99700.731
99706.54
99591.454
87247.355
87597.403
87583.245
87969.441
87987.081
88344.741
88444.521
88747.936
88935.155
89200.419
89444.195
89708.099
89978.066
90257.586
90545.511
90841.57
91145.179
91455.672
91772.247
92093.976
92419.8
92748.544
93078.925
93409.569
93739.034
94065.835
94388.469
94705.451
95015.336
95316.76
95608.463
95889.32
96158.362
96414.799
96658.026
96887.633
97103.401
97305.293
97493.445
97668.141
97829.799
97978.946
98116.193
98242.213
98357.725
98463.469
98560.19
98648.627
98729.5
98803.498
98871.277
98933.45
98990.587
99043.211
99091.801
99136.788
99178.559
99217.456
99253.78
99287.795
99319.729
99349.78
99378.118
99404.896
99430.251
99454.308
99477.187
99498.997
99519.838
99539.802
99558.94
99577.261
99594.991
99612.637
99629.15
99642.079
99660.258
99698.424
99692.954
99588.016
87272.955
87670.201
87652.039
88086.561
88109.467
88507.203
88626.603
88959.321
89178.241
89470.525
89747.467
90042.418
90345.081
90657.435
90978.45
91307.534
91643.827
91986.335
92333.904
92685.226
93038.86
93393.244
93746.721
94097.572
94444.041
94784.379
95116.875
95439.899
95751.94
96051.643
96337.84
96609.573
96866.114
97106.973
97331.893
97540.844
97734.005
97911.739
98074.569
98223.15
98358.234
98480.651
98591.276
98691.007
98780.747
98861.384
98933.781
98998.761
99057.101
99109.528
99156.712
99199.271
99237.761
99272.687
99304.498
99333.592
99360.319
99384.982
99407.84
99429.117
99449.001
99467.652
99485.203
99501.77
99517.454
99532.35
99546.542
99560.107
99573.114
99585.624
99597.666
99609.273
99620.693
99632.22
99642.628
99650.74
99666.231
99697.36
99681.986
99589.219
87355.397
87808.797
87787.281
88276.974
88308.347
88749.905
88896.665
89261.306
89519.138
89843.294
90158.623
90490.16
90830.646
91180.855
91539.625
91905.944
92278.53
92655.927
93036.502
93418.466
93799.907
94178.817
94553.131
94920.775
95279.703
95627.958
95963.711
96285.321
96591.368
96880.692
97152.415
97405.955
97641.018
97857.594
98055.927
98236.489
98399.943
98547.11
98678.928
98796.416
98900.646
98992.711
99073.701
99144.683
99206.685
99260.685
99307.603
99348.291
99383.535
99414.051
99440.487
99463.423
99483.374
99500.799
99516.094
99529.606
99541.63
99552.416
99562.172
99571.074
99579.263
99586.855
99593.942
99600.6
99606.894
99612.878
99618.604
99624.113
99629.44
99634.62
99639.681
99644.677
99649.831
99655.229
99659.735
99663.408
99675.562
99698.586
99675.16
99596.782
87499.602
88019.646
87995.412
88547.711
88594.022
89083.394
89266.911
89666.915
89971.55
90334.015
90693.905
91068.612
91452.957
91846.645
92248.101
92655.724
93067.644
93481.802
93895.972
94307.798
94714.834
95114.597
95504.624
95882.538
96246.114
96593.342
96922.489
97232.145
97521.253
97789.126
98035.443
98260.231
98463.838
98646.887
98810.233
98954.914
99082.106
99193.072
99289.128
99371.604
99441.817
99501.044
99550.512
99591.374
99624.71
99651.516
99672.704
99689.098
99701.443
99710.401
99716.558
99720.429
99722.462
99723.044
99722.505
99721.123
99719.128
99716.709
99714.017
99711.173
99708.269
99705.373
99702.535
99699.79
99697.163
99694.674
99692.336
99690.155
99688.134
99686.294
99684.671
99683.333
99682.445
99681.961
99681.056
99680.714
99688.847
99703.181
99674.454
99612.258
87712.211
88311.956
88286.932
88910.352
88978.93
89520.237
89751.904
90192.574
90553.14
90962.529
91374.585
91800.09
92234.917
92677.713
93126.238
93578.138
94030.805
94481.457
94927.173
95364.96
95791.82
96204.838
96601.273
96978.648
97334.833
97668.103
97977.188
98261.29
98520.073
98753.644
98962.502
99147.487
99309.716
99450.519
99571.376
99673.863
99759.601
99830.21
99887.28
99932.341
99966.845
99992.151
100009.52
100020.1
100024.95
100025
100021.1
100014
100004.36
99992.747
99979.661
99965.526
99950.705
99935.501
99920.164
99904.896
99889.857
99875.169
99860.924
99847.186
99833.998
99821.381
99809.341
99797.875
99786.972
99776.615
99766.783
99757.444
99748.579
99740.204
99732.364
99725.123
99718.586
99712.71
99707.112
99703.218
99706.814
99712.686
99681.799
99636.164
87999.509
88694.469
88671.589
89375.837
89478.169
90077.399
90372.052
90862.065
91289.222
91755.954
92228.592
92712.547
93203.899
93700.204
94198.347
94695.042
95186.774
95669.892
96140.701
96595.585
97031.125
97444.234
97832.267
98193.111
98525.241
98827.745
99100.306
99343.167
99557.06
99743.132
99902.859
100037.96
100150.32
100241.9
100314.71
100370.73
100411.88
100439.97
100456.73
100463.75
100462.49
100454.26
100440.28
100421.59
100399.16
100373.81
100346.28
100317.18
100287.07
100256.4
100225.56
100194.88
100164.62
100135
100106.17
100078.27
100051.38
100025.56
100000.84
99977.23
99954.728
99933.31
99912.941
99893.582
99875.19
99857.716
99841.105
99825.296
99810.252
99795.989
99782.547
99769.965
99758.327
99747.745
99738.295
99731.292
99730.123
99728.603
99698.917
99668.49
88369.136
89177.873
89162.859
89963.197
90116.458
90783.753
91158.642
91708.947
92213.422
92747.996
93289.021
93837.774
94389.826
94941.437
95488.289
96025.883
96549.596
97054.863
97537.361
97993.188
98419.032
98812.287
99171.131
99494.545
99782.291
100034.84
100253.27
100439.17
100594.52
100721.54
100822.66
100900.33
100957.05
100995.22
101017.16
101025.03
101020.87
101006.5
100983.62
100953.74
100918.2
100878.19
100834.77
100788.85
100741.22
100692.56
100643.45
100594.39
100545.78
100497.95
100451.19
100405.7
100361.66
100319.19
100278.36
100239.24
100201.83
100166.14
100132.15
100099.81
100069.07
100039.88
100012.16
99985.843
99960.86
99937.134
99914.58
99893.117
99872.702
99853.34
99835.042
99817.803
99801.756
99787.289
99774.831
99765.093
99759.239
99752.018
99726.617
99709.807
88841.188
89790.245
89794.518
90710.639
90932.54
91678.259
92150.872
92772.792
93364.273
93976.407
94592.363
95209.956
95823.377
96427.083
97015.152
97581.722
98121.224
98628.657
99099.823
99531.493
99921.501
100268.76
100573.19
100835.65
101057.75
101241.7
101390.15
101506.03
101592.44
101652.5
101689.28
101705.71
101704.59
101688.47
101659.72
101620.48
101572.66
101517.97
101457.9
101393.78
101326.74
101257.79
101187.75
101117.37
101047.24
100977.87
100909.69
100843.03
100778.17
100715.32
100654.64
100596.24
100540.2
100486.56
100435.31
100386.45
100339.94
100295.71
100253.7
100213.82
100175.99
100140.1
100106.07
100073.8
100043.19
100014.15
99986.575
99960.37
99935.494
99911.931
99889.627
99868.534
99848.901
99831.439
99816.72
99804.545
99794.452
99783.606
99764.889
99760.105
89448.202
90575.404
90609.184
91659.725
91969.265
92801.573
93390.928
94098.212
94786.396
95484.698
96179.199
96864.149
97531.513
98173.668
98783.286
99353.857
99879.994
100357.67
100784.35
101158.93
101481.68
101754.05
101978.44
102157.95
102296.17
102396.98
102464.36
102502.25
102514.44
102504.52
102475.81
102431.34
102373.86
102305.81
102229.36
102146.39
102058.56
101967.32
101873.87
101779.28
101684.43
101590.06
101496.82
101405.19
101315.61
101228.41
101143.84
101062.12
100983.37
100907.7
100835.17
100765.79
100699.55
100636.43
100576.35
100519.24
100465.02
100413.58
100364.8
100318.58
100274.79
100233.31
100194.02
100156.81
100121.57
100088.18
100056.52
100026.53
99998.147
99971.322
99945.922
99921.882
99899.613
99880.067
99863.674
99849.286
99835.753
99823.597
99813.121
99818.271
90219.039
91560.794
91638.857
92844.219
93275.268
94206.252
94934.142
95743.557
96535.974
97322.644
98089.065
98825.872
99523.064
100172.04
100765.8
101299.3
101769.58
102175.71
102518.55
102800.5
103025.12
103196.8
103320.43
103401.15
103444.09
103454.21
103436.22
103394.47
103332.91
103255.09
103164.17
103062.91
102953.72
102838.69
102719.61
102598.01
102475.18
102352.21
102230.01
102109.34
101990.81
101874.93
101762.09
101652.6
101546.71
101444.59
101346.34
101252.05
101161.75
101075.42
100993.04
100914.54
100839.85
100768.86
100701.47
100637.54
100576.96
100519.57
100465.23
100413.81
100365.16
100319.13
100275.6
100234.43
100195.51
100158.7
100123.91
100091.05
100060.08
100030.89
100003.3
99977.267
99953.385
99932.647
99915.034
99898.633
99882.699
99871.556
99870.055
99882.379
91184.288
92794.121
92953.561
94330.827
94929.636
95975.44
96859.061
97781.099
98671.984
99529.691
100338.14
101086.2
101764.54
102366.83
102889.7
103332.61
103697.5
103988.22
104210.1
104369.35
104472.68
104526.89
104538.62
104514.15
104459.26
104379.21
104278.67
104161.76
104032.06
103892.67
103746.24
103595.02
103440.91
103285.51
103130.15
102975.94
102823.76
102674.36
102528.33
102386.13
102248.14
102114.61
101985.75
101861.69
101742.51
101628.24
101518.88
101414.39
101314.69
101219.72
101129.34
101043.45
100961.9
100884.55
100811.23
100741.8
100676.07
100613.9
100555.11
100499.55
100447.03
100397.43
100350.59
100306.38
100264.66
100225.31
100188.22
100153.33
100120.59
100089.84
100060.86
100033.74
100009.21
99988.088
99969.662
99951.563
99934.298
99925.814
99933.33
99950.451
92428.049
94376.554
94662.647
96232.512
97046.904
98216.195
99250.465
100269.56
101221.55
102097.68
102884.05
103572.82
104160.26
104646.73
105035.9
105333.98
105548.89
105689.5
105765.04
105784.55
105756.62
105689.17
105589.3
105463.31
105316.67
105154.1
104979.64
104796.67
104608.05
104416.16
104222.98
104030.13
103838.93
103650.45
103465.56
103284.94
103109.12
102938.52
102773.42
102614.06
102460.56
102313.01
102171.43
102035.81
101906.1
101782.2
101664.02
101551.44
101444.3
101342.46
101245.75
101153.99
101067
100984.6
100906.6
100832.81
100763.05
100697.12
100634.85
100576.07
100520.6
100468.28
100418.96
100372.5
100328.76
100287.62
100248.97
100212.77
100178.93
100147.25
100117.56
100090.09
100065.66
100044.73
100025.89
100006.73
99989.43
99984.703
99999.726
100018.92
94083.031
96449.858
96918.153
98678.728
99743.961
101021.75
102153.67
103202.63
104130.57
104931.14
105600.03
106139.35
106555.7
106858.96
107061.04
107174.67
107212.58
107186.9
107108.74
106988.03
106833.48
106652.54
106451.57
106235.88
106009.92
105777.34
105541.14
105303.76
105067.19
104833.01
104602.48
104376.61
104156.17
103941.75
103733.8
103532.63
103338.47
103151.44
102971.6
102798.97
102633.5
102475.12
102323.72
102179.16
102041.3
101909.95
101784.94
101666.08
101553.16
101445.98
101344.34
101248.01
101156.8
101070.48
100988.84
100911.68
100838.8
100769.99
100705.08
100643.87
100586.19
100531.87
100480.78
100432.74
100387.63
100345.32
100305.72
100268.78
100234.37
100202.26
100172.37
100145.08
100121.2
100100.72
100081.77
100062.35
100046.33
100045.68
100065.88
100084.78
96340.88
99175.905
99889.063
101790.75
103068.6
104393.96
105505.91
106456.1
107231.32
107837.29
108285.06
108590.5
108771.6
108846.9
108834.17
108749.71
108607.94
108421.31
108200.35
107953.83
107688.98
107411.68
107126.71
106837.87
106548.22
106260.17
105975.62
105696.03
105422.55
105156.03
104897.12
104646.25
104403.76
104169.83
103944.57
103728
103520.09
103320.76
103129.88
102947.3
102772.85
102606.33
102447.53
102296.22
102152.19
102015.2
101885
101761.35
101644.03
101532.77
101427.36
101327.54
101233.09
101143.77
101059.35
100979.63
100904.39
100833.42
100766.54
100703.54
100644.27
100588.54
100536.22
100487.14
100441.17
100398.18
100358.1
100320.84
100286.24
100254.08
100224.38
100197.63
100174.47
100154.51
100135.65
100116.69
100102.84
100105.89
100128.82
100146.34
99456.113
102669.71
103691.11
105660.1
106979.1
108156.23
109080.82
109777.58
110264.32
110567.81
110716.18
110737.07
110655.75
110494.35
110271.59
110003.01
109701.22
109376.34
109036.4
108687.73
108335.24
107982.77
107633.25
107288.92
106951.48
106622.18
106301.93
105991.37
105690.94
105400.89
105121.37
104852.42
104593.98
104345.95
104108.18
103880.46
103662.6
103454.34
103255.42
103065.59
102884.56
102712.06
102547.81
102391.52
102242.91
102101.7
101967.61
101840.38
101719.73
101605.4
101497.13
101394.66
101297.75
101206.16
101119.65
101037.99
100960.98
100888.4
100820.07
100755.78
100695.37
100638.68
100585.54
100535.81
100489.35
100446.04
100405.79
100368.49
100333.96
100302.01
100272.75
100246.7
100224.28
100204.79
100186.23
100168.3
100156.89
100162.61
100186.08
100201.78
103685.35
107114.32
108339.83
110043.79
111178.89
112016.74
112556.34
112852.67
112950.6
112893.48
112717.99
112454.58
112127.64
111756.35
111355.55
110936.59
110508.08
110076.49
109646.63
109222.08
108805.44
108398.57
108002.79
107619.01
107247.78
106889.45
106544.16
106211.93
105892.66
105586.19
105292.27
105010.65
104741.03
104483.08
104236.47
104000.86
103775.9
103561.24
103356.54
103161.44
102975.61
102798.72
102630.43
102470.41
102318.36
102173.96
102036.92
101906.93
101783.72
101667
101556.5
101451.97
101353.13
101259.75
101171.59
101088.43
101010.03
100936.21
100866.75
100801.48
100740.23
100682.83
100629.13
100578.96
100532.21
100488.76
100448.5
100411.3
100376.95
100345.35
100316.63
100291.27
100269.48
100250.36
100232.28
100215.66
100206.45
100213.48
100235.62
100249.58
108957.54
112348.76
113477.41
114613.83
115231.57
115519.48
115542.48
115374.4
115069.62
114670.83
114209.75
113709.74
113187.78
112656.07
112123.3
111595.61
111077.28
110571.22
110079.4
109603.05
109142.92
108699.37
108272.5
107862.23
107468.34
107090.52
106728.38
106381.5
106049.45
105731.74
105427.93
105137.53
104860.07
104595.11
104342.19
104100.87
103870.71
103651.31
103442.25
103243.15
103053.62
102873.28
102701.79
102538.78
102383.94
102236.92
102097.41
101965.12
101839.73
101720.97
101608.55
101502.21
101401.7
101306.75
101217.14
101132.63
101053.01
100978.07
100907.62
100841.48
100779.47
100721.44
100667.23
100616.68
100569.68
100526.1
100485.82
100448.69
100414.52
100383.23
100355
100330.19
100308.81
100289.96
100272.42
100257.16
100249.57
100256.52
100276.01
100288.58
115223.49
117752.74
118369.77
118654.74
118562.03
118233.25
117748.28
117168.01
116533.29
115871.79
115201.88
114535.66
113880.96
113242.76
112624.1
112026.73
111451.52
110898.75
110368.32
109859.86
109372.86
108906.68
108460.63
108034
107626.07
107236.12
106863.44
106507.34
106167.17
105842.27
105532.04
105235.88
104953.23
104683.55
104426.32
104181.04
103947.24
103724.45
103512.24
103310.19
103117.88
102934.94
102760.99
102595.66
102438.61
102289.51
102148.02
102013.84
101886.67
101766.22
101652.2
101544.36
101442.43
101346.15
101255.3
101169.65
101088.98
101013.08
100941.77
100874.87
100812.2
100753.61
100698.93
100648.04
100600.79
100557.06
100516.73
100479.63
100445.59
100414.56
100386.7
100362.24
100341.05
100322.33
100305.27
100291.09
100284.35
100290.22
100306.53
100318.1
121894.03
122339.07
122121.87
121571.8
120838.37
120011.98
119149
118281.37
117427.71
116598.32
115798.67
115031.31
114297.08
113595.79
112926.67
112288.59
111680.3
111100.44
110547.67
110020.66
109518.14
109038.89
108581.76
108145.68
107729.62
107332.63
106953.83
106592.35
106247.42
105918.29
105604.27
105304.69
105018.93
104746.4
104486.55
104238.84
104002.78
103777.87
103563.67
103359.74
103165.66
102981.03
102805.46
102638.59
102480.07
102329.55
102186.71
102051.24
101922.83
101801.2
101686.05
101577.14
101474.19
101376.96
101285.2
101198.71
101117.25
101040.63
100968.66
100901.16
100837.96
100778.9
100723.82
100672.59
100625.07
100581.15
100540.69
100503.51
100469.47
100438.53
100410.8
100386.42
100365.16
100346.33
100329.46
100315.82
100309.23
100313.59
100326.99
100337.95
125789.99
125162.58
124244.09
123188.12
122099.65
121022.91
119980.69
118982.35
118031.36
117128
116270.97
115458.23
114687.43
113956.14
113261.96
112602.62
111975.98
111380.06
110813.01
110273.16
109758.95
109268.94
108801.83
108356.4
107931.54
107526.19
107139.42
106770.32
106418.07
106081.89
105761.06
105454.9
105162.77
104884.06
104618.22
104364.7
104122.99
103892.61
103673.1
103464.01
103264.93
103075.45
102895.19
102723.78
102560.86
102406.1
102259.17
102119.75
101987.54
101862.24
101743.59
101631.31
101525.14
101424.82
101330.13
101240.84
101156.72
101077.59
101003.24
100933.49
100868.18
100807.15
100750.23
100697.29
100648.21
100602.87
100561.12
100522.79
100487.73
100455.89
100427.37
100402.25
100380.26
100360.76
100343.44
100329.57
100322.61
100325.78
100337.35
100348.01
104010.28
103983.06
104031.24
104079.57
104115.31
104124.95
104107.21
104077.31
104041.46
103996.28
103937.36
103865.24
103783.78
103697.84
103608.23
103515.03
103418.54
103319.25
103217.6
103113.96
103008.7
102902.18
102794.71
102686.6
102578.11
102469.5
102361.01
102252.87
102145.28
102038.43
101932.51
101827.7
101724.16
101622.05
101521.53
101422.75
101325.86
101231
101138.32
101047.95
100960.03
100874.71
100792.1
100712.35
100635.58
100561.91
100491.46
100424.34
100360.67
100300.54
100244.04
100191.24
100142.22
100097.01
100055.67
100018.21
99984.628
99954.903
99928.996
99906.84
99888.337
99873.355
99861.733
99853.245
99847.708
99844.66
99844.266
99844.97
99849.303
99850.32
99861.678
99857.199
99883.03
99856.098
99913.206
99847.006
99947.105
99836.99
99973.081
99828.428
103356.95
103350.69
103364.78
103381.33
103380.2
103372.97
103362.14
103344.58
103315.3
103280.27
103238.3
103191.17
103138.14
103080.35
103017.82
102951.25
102880.86
102807
102729.99
102650.13
102567.75
102483.12
102396.54
102308.29
102218.64
102127.86
102036.22
101943.95
101851.32
101758.56
101665.89
101573.55
101481.76
101390.72
101300.64
101211.73
101124.18
101038.17
100953.91
100871.57
100791.32
100713.34
100637.8
100564.86
100494.66
100427.36
100363.11
100302.02
100244.24
100189.86
100138.99
100091.71
100048.09
100008.18
99972.028
99939.638
99911.008
99886.109
99864.895
99847.289
99833.186
99822.446
99814.901
99810.322
99808.51
99809.027
99811.961
99815.927
99823.062
99827.26
99840.635
99839.302
99865.989
99843.157
99899.89
99837.647
99938.04
99828.337
99970.277
99818.059
102931.52
102916.16
102888.05
102858.52
102829.47
102802.39
102770.67
102739.63
102704.88
102669.6
102630.3
102589.6
102545.3
102498.87
102449.35
102397.28
102342.48
102285.11
102225.22
102162.91
102098.32
102031.57
101962.82
101892.23
101819.97
101746.22
101671.17
101595.03
101517.99
101440.26
101362.07
101283.62
101205.13
101126.82
101048.92
100971.64
100895.19
100819.8
100745.68
100673.03
100602.06
100532.98
100465.98
100401.24
100338.95
100279.28
100222.4
100168.46
100117.59
100069.94
100025.6
99984.675
99947.24
99913.353
99883.052
99856.35
99833.237
99813.682
99797.631
99785.001
99775.683
99769.53
99766.369
99765.971
99768.124
99772.413
99778.868
99786.233
99796.373
99803.788
99819.418
99820.987
99849.052
99829.777
99886.708
99827.824
99929.087
99819.657
99966.939
99807.809
102335.61
102313.07
102284.62
102253.2
102222
102194.32
102162.22
102133.03
102099.68
102068.3
102033.4
101999.24
101962.29
101924.96
101885.49
101844.71
101802.12
101757.86
101711.83
101664.01
101614.4
101563.02
101509.9
101455.09
101398.68
101340.74
101281.39
101220.77
101159
101096.25
101032.68
100968.48
100903.84
100838.95
100774.03
100709.27
100644.91
100581.16
100518.25
100456.38
100395.79
100336.7
100279.31
100223.83
100170.46
100119.41
100070.85
100024.95
99981.88
99941.767
99904.738
99870.9
99840.336
99813.108
99789.256
99768.793
99751.707
99737.964
99727.504
99720.239
99716.054
99714.801
99716.301
99720.327
99726.659
99734.902
99745.044
99755.934
99769.236
99779.919
99797.979
99802.327
99832.103
99816.024
99873.643
99817.617
99920.252
99810.961
99963.183
99797.921
101607.78
101591.66
101576.12
101557.63
101537.22
101521.11
101499.1
101481.48
101458.44
101438.7
101414.48
101392.09
101366.49
101341.36
101314.13
101286.08
101256.42
101225.45
101192.96
101158.96
101123.4
101086.28
101047.58
101007.34
100965.57
100922.32
100877.67
100831.68
100784.45
100736.09
100686.74
100636.53
100585.62
100534.19
100482.4
100430.46
100378.57
100326.93
100275.76
100225.29
100175.73
100127.32
100080.26
100034.77
99991.084
99949.392
99909.893
99872.77
99838.19
99806.305
99777.245
99751.124
99728.029
99708.027
99691.157
99677.431
99666.835
99659.331
99654.852
99653.308
99654.578
99658.511
99664.926
99673.598
99684.303
99696.667
99710.64
99725.173
99741.759
99755.758
99776.387
99783.51
99815.146
99802.084
99860.717
99807.198
99911.499
99802.272
99959.167
99788.405
100888.85
100882.4
100878.11
100872.78
100863.43
100859.3
100847.82
100842.26
100829.82
100821.97
100808.44
100797.74
100783.12
100769.62
100753.85
100737.57
100719.71
100700.71
100680.39
100658.73
100635.73
100611.36
100585.6
100558.44
100529.91
100500.01
100468.78
100436.26
100402.51
100367.61
100331.66
100294.75
100257.02
100218.6
100179.65
100140.33
100100.83
100061.34
100022.06
99983.192
99944.96
99907.578
99871.266
99836.242
99802.722
99770.913
99741.016
99713.217
99687.686
99664.577
99644.027
99626.149
99611.034
99598.745
99589.32
99582.768
99579.071
99578.185
99580.037
99584.532
99591.544
99600.919
99612.474
99625.989
99641.236
99657.864
99675.79
99694.067
99714.02
99731.367
99754.689
99764.659
99798.193
99788.063
99847.938
99796.686
99902.826
99793.611
99955
99779.176
100236.73
100236.64
100237.67
100240.69
100238.41
100242.9
100238.61
100242.01
100237.08
100238.35
100233.24
100232.43
100226.93
100222.72
100215.95
100209.24
100201.13
100192.22
100182.24
100171.2
100159.06
100145.77
100131.3
100115.65
100098.8
100080.75
100061.5
100041.09
100019.54
99996.914
99973.269
99948.687
99923.266
99897.119
99870.374
99843.174
99815.675
99788.048
99760.472
99733.139
99706.247
99680
99654.607
99630.275
99607.213
99585.622
99565.695
99547.612
99531.543
99517.636
99506.024
99496.818
99490.102
99485.936
99484.35
99485.347
99488.902
99494.963
99503.452
99514.264
99527.268
99542.308
99559.2
99577.725
99597.658
99618.668
99640.649
99662.747
99686.124
99706.84
99732.956
99745.874
99781.281
99774.043
99835.276
99786.17
99894.232
99785.006
99950.755
99770.146
99649.319
99654.276
99658.341
99666.523
99667.922
99678.122
99678.001
99687.497