/*--------------------------------*- C++ -*----------------------------------*\
  =========                 |
  \\      /  F ield         | OpenFOAM: The Open Source CFD Toolbox
   \\    /   O peration     | Website:  https://openfoam.org
    \\  /    A nd           | Version:  12
     \\/     M anipulation  |
\*---------------------------------------------------------------------------*/
FoamFile
{
    format      ascii;
    class       surfaceScalarField;
    location    "0.069";
    object      phi;
}
// * * * * * * * * * * * * * * * * * * * * * * * * * * * * * * * * * * * * * //

dimensions      [1 0 -1 0 0 0 0];

internalField   nonuniform List<scalar> 
31760
(
-0.00063809445
-0.050985245
0.05162295
-0.0016085453
-0.064520654
0.065490963
-0.0026008552
-0.063140815
0.064128631
-0.0036261624
-0.068831505
0.069856769
-0.0047062111
-0.070503654
0.071583528
-0.0058148904
-0.074786417
0.075894934
-0.0069938966
-0.077722166
0.078900941
-0.0082118133
-0.081743429
0.082961097
-0.0094904213
-0.085377704
0.08665603
-0.010827922
-0.089509828
0.09084703
-0.012221238
-0.09365808
0.095051077
-0.013682122
-0.098084946
0.099545502
-0.015205201
-0.10267667
0.10419942
-0.016798756
-0.10749573
0.10908895
-0.018462362
-0.11253078
0.11419405
-0.020200774
-0.11779857
0.11953665
-0.022016658
-0.12330717
0.12512274
-0.023913213
-0.12906805
0.13096431
-0.025893676
-0.13509226
0.13707245
-0.02796144
-0.14139112
0.14345863
-0.03011993
-0.14797705
0.15013532
-0.032372896
-0.15486207
0.15711486
-0.03472392
-0.16205981
0.1644107
-0.037176891
-0.16958403
0.17203692
-0.039734761
-0.17744928
0.18000714
-0.042402095
-0.18566974
0.18833714
-0.045182767
-0.19426169
0.19704252
-0.048080178
-0.20324177
0.20613945
-0.051097803
-0.21262697
0.21564498
-0.054239667
-0.22243539
0.22557779
-0.05750906
-0.23268603
0.23595611
-0.060909296
-0.24339875
0.24679984
-0.064443173
-0.25459507
0.25813
-0.068113728
-0.26629618
0.26996799
-0.07192294
-0.2785262
0.28233689
-0.075872463
-0.29130944
0.29526069
-0.07996362
-0.30467169
0.30876483
-0.084196884
-0.31864067
0.3228762
-0.088572066
-0.33324442
0.33762215
-0.093087848
-0.34851441
0.35303305
-0.097742232
-0.36448243
0.36914
-0.1025318
-0.38118227
0.38597536
-0.10745196
-0.39864999
0.40357401
-0.11249696
-0.41692345
0.42197262
-0.11765911
-0.43604298
0.44120961
-0.12292937
-0.45605017
0.46132518
-0.12829631
-0.47698984
0.48236174
-0.13374716
-0.49890824
0.50436421
-0.13926663
-0.52185524
0.5273799
-0.14483664
-0.54588231
0.55145751
-0.15043647
-0.57104344
0.57664833
-0.15604296
-0.59739605
0.60300733
-0.16162915
-0.62499964
0.63059021
-0.16716452
-0.65391675
0.65945593
-0.17261506
-0.68421253
0.68966615
-0.17794135
-0.71595593
0.72128443
-0.18309984
-0.74921806
0.75437774
-0.18804163
-0.78407333
0.78901518
-0.1927109
-0.82059968
0.82526774
-0.197046
-0.85887772
0.86321026
-0.20097738
-0.89899097
0.90291832
-0.20442765
-0.94102569
0.94447033
-0.20730989
-0.98507186
0.98794665
-0.2095271
-1.0312231
1.0334308
-0.21097077
-1.0795765
1.081008
-0.21152007
-1.1302361
1.1307699
-0.21103857
-1.1833118
1.1828106
-0.20938012
-1.2389201
1.2372367
-0.20637684
-1.2971901
1.2941556
-0.20184063
-1.3582548
1.3536803
-0.19556854
-1.42225
1.4159321
-0.18734097
-1.4893105
1.4810301
-0.17690626
-1.5595747
1.5490821
-0.16400586
-1.6331665
1.6202087
-0.14823693
-1.7102465
1.6944294
-0.1297623
-1.7908082
1.7723098
-0.10677759
-1.8745377
1.851561
-0.08194586
-1.9630866
1.9383116
-0.050410208
-2.0514647
2.0199963
-2.1508982
2.1163827
-0.00063329318
-0.050352552
-0.0015074131
-0.063646679
-0.0024129405
-0.062233849
-0.0033765466
-0.067868246
-0.0043512984
-0.06952932
-0.0054040489
-0.073734023
-0.0064721624
-0.076654448
-0.007620766
-0.080595192
-0.0087954482
-0.0842034
-0.010044959
-0.088260679
-0.011337723
-0.092365677
-0.012698284
-0.096724733
-0.014116613
-0.10125868
-0.015601804
-0.10601086
-0.017154036
-0.11097886
-0.018777466
-0.11617543
-0.020474276
-0.12161062
-0.022248239
-0.12729432
-0.024102569
-0.13323814
-0.026040843
-0.13945301
-0.028066715
-0.1459513
-0.030183431
-0.15274543
-0.03239509
-0.15984817
-0.034705376
-0.16727369
-0.037119082
-0.17503544
-0.039639012
-0.18314958
-0.042269859
-0.1916305
-0.045015356
-0.20049581
-0.047879788
-0.20976194
-0.050866729
-0.2194477
-0.053980267
-0.22957157
-0.057223743
-0.24015416
-0.060600474
-0.25121702
-0.064113464
-0.26278165
-0.067765155
-0.27487271
-0.071557899
-0.28751464
-0.075492888
-0.30073435
-0.079571663
-0.31455924
-0.0837936
-0.32901949
-0.088158337
-0.34414633
-0.092664318
-0.35997274
-0.097308499
-0.376534
-0.10208658
-0.39386742
-0.10699358
-0.41201157
-0.11202253
-0.43100878
-0.11716499
-0.45090211
-0.12241089
-0.47173804
-0.12774777
-0.49356519
-0.13316156
-0.51643507
-0.13863598
-0.54040142
-0.14415193
-0.56552099
-0.14968774
-0.59185386
-0.15521859
-0.61946268
-0.16071662
-0.64841304
-0.16615023
-0.67877385
-0.17148362
-0.71061824
-0.17667688
-0.74402145
-0.18168505
-0.77906295
-0.18645743
-0.81582643
-0.19093778
-0.85439802
-0.19506269
-0.89486845
-0.19876136
-0.93733139
-0.20195419
-0.98188567
-0.20455341
-1.0286333
-0.20645964
-1.0776829
-0.20756357
-1.1291488
-0.20773922
-1.1831577
-0.20685053
-1.2398363
-0.20474555
-1.2993296
-0.20125441
-1.3617882
-0.19619245
-1.4273622
-0.18935411
-1.4962066
-0.18051546
-1.5684762
-0.16941563
-1.6443283
-0.1558005
-1.7239123
-0.13942224
-1.8072126
-0.1195725
-1.8943785
-0.097123348
-1.9854841
-0.069436029
-2.079088
-2.1818502
-0.00057297277
-0.049780191
-0.0013891192
-0.062830803
-0.002202201
-0.061421036
-0.003109204
-0.066961567
-0.0040061434
-0.068632756
-0.0049902747
-0.072750215
-0.0059758315
-0.075669237
-0.0070452508
-0.079526089
-0.0081338845
-0.083115087
-0.0092956467
-0.087099217
-0.010497364
-0.091164252
-0.011763236
-0.095459136
-0.013084236
-0.099937943
-0.014468657
-0.10462668
-0.015917163
-0.10953057
-0.017433345
-0.11465943
-0.019020542
-0.12002358
-0.020681695
-0.12563329
-0.02242107
-0.13149884
-0.02424148
-0.13763263
-0.026147406
-0.14404535
-0.028142365
-0.15075038
-0.03023023
-0.15776014
-0.032415783
-0.16508788
-0.034702288
-0.17274859
-0.037094956
-0.18075646
-0.039597232
-0.18912765
-0.042214185
-0.19787814
-0.04494937
-0.20702588
-0.04780794
-0.21658809
-0.050793009
-0.22658527
-0.053908913
-0.23703681
-0.05715947
-0.24796479
-0.060547377
-0.25939181
-0.064076245
-0.27134165
-0.067748263
-0.28384013
-0.071565696
-0.29691409
-0.07552909
-0.31059268
-0.079639499
-0.32490553
-0.083896453
-0.33988543
-0.088298216
-0.35556661
-0.092842739
-0.37198466
-0.097526729
-0.38917817
-0.10234482
-0.40718777
-0.10729115
-0.42605629
-0.11235787
-0.44582879
-0.11753595
-0.46655295
-0.12281367
-0.48828007
-0.12817876
-0.51106227
-0.13361585
-0.53495636
-0.13910715
-0.56002157
-0.14463365
-0.58631919
-0.15017253
-0.61391573
-0.15569839
-0.64287936
-0.16118261
-0.67328223
-0.16659288
-0.70520118
-0.17189328
-0.73871511
-0.17704235
-0.77390902
-0.18199534
-0.8108699
-0.18670054
-0.84969089
-0.19110125
-0.89046773
-0.19513311
-0.93330179
-0.19872512
-0.97829865
-0.20179684
-1.0255698
-0.20425861
-1.0752333
-0.20600928
-1.127415
-0.20694026
-1.1822494
-0.20692467
-1.2398814
-0.20582176
-1.3004698
-0.20348232
-1.3641734
-0.19973298
-1.4311661
-0.19439365
-1.5016085
-0.18725424
-1.5756833
-0.17808755
-1.6535613
-0.16666145
-1.735392
-0.15267512
-1.8212266
-0.13580027
-1.9112422
-0.11606499
-2.0051649
-0.092206297
-2.1028965
-2.2091082
-0.00051707951
-0.049263605
-0.0012725085
-0.062075547
-0.0020119499
-0.060682284
-0.0028679361
-0.066105786
-0.0036979186
-0.067803048
-0.0046152955
-0.071833055
-0.0055235536
-0.074761228
-0.0065193455
-0.078530515
-0.0075273581
-0.082107298
-0.008607999
-0.086018777
-0.0097255025
-0.09004694
-0.010904256
-0.094280554
-0.012136219
-0.098706131
-0.013428676
-0.10333435
-0.01478329
-0.10817605
-0.016203829
-0.11323896
-0.017693592
-0.11853384
-0.019255959
-0.1240709
-0.02089441
-0.12986031
-0.022613299
-0.1359136
-0.024415803
-0.14224264
-0.026306992
-0.1488589
-0.028290782
-0.15577597
-0.030371164
-0.16300702
-0.032553303
-0.17056586
-0.034841155
-0.17846789
-0.037239769
-0.18672817
-0.039753491
-0.1953634
-0.042387786
-0.20439039
-0.045146019
-0.21382847
-0.048033335
-0.22369635
-0.051054111
-0.2340142
-0.054212056
-0.24480475
-0.05751107
-0.25609042
-0.060954582
-0.26789544
-0.064545069
-0.28024661
-0.068284771
-0.293171
-0.072175633
-0.30669802
-0.07621804
-0.32085891
-0.080412079
-0.33568672
-0.0847572
-0.35121633
-0.08925079
-0.36748542
-0.093890128
-0.38453267
-0.098670946
-0.40240026
-0.10358744
-0.42113258
-0.10863325
-0.44077522
-0.11379887
-0.46137906
-0.11907559
-0.48299459
-0.12445087
-0.50567778
-0.12991138
-0.52948623
-0.13544182
-0.5544812
-0.141024
-0.58072687
-0.14663811
-0.60829139
-0.15226181
-0.63724548
-0.15786856
-0.66766553
-0.16343061
-0.69962961
-0.16891514
-0.73322173
-0.174286
-0.76853025
-0.17950276
-0.80564648
-0.18451979
-0.84466881
-0.18928618
-0.88569831
-0.19374481
-0.92884264
-0.1978321
-0.97421388
-0.2014762
-1.0219319
-0.20459692
-1.0721233
-0.20710634
-1.1249217
-0.20889872
-1.1804797
-0.20986737
-1.238943
-0.20988281
-1.3004932
-0.20881187
-1.3652925
-0.20650196
-1.4335338
-0.20277905
-1.5053979
-0.1974676
-1.5810669
-0.19035692
-1.6607424
-0.18123293
-1.7445729
-0.16982511
-1.8326636
-0.15589276
-1.9251614
-0.13922303
-2.0217785
-0.11907163
-2.1230099
-2.2324832
-0.00046144163
-0.048802593
-0.0011691445
-0.061367942
-0.0018310786
-0.060020503
-0.0026320615
-0.065304951
-0.0033892458
-0.067046081
-0.0042482479
-0.070974205
-0.0050885409
-0.073921111
-0.0060188094
-0.077600385
-0.0069545806
-0.081171664
-0.007961895
-0.085011572
-0.0090047281
-0.089004198
-0.010106179
-0.093179166
-0.011260386
-0.097551957
-0.012473564
-0.10212117
-0.013748112
-0.10690146
-0.015087154
-0.11189983
-0.016494461
-0.1171264
-0.017973825
-0.12259134
-0.019528948
-0.12830493
-0.021163871
-0.13427835
-0.022883315
-0.14052278
-0.02469063
-0.14705108
-0.02659134
-0.15387465
-0.028590037
-0.16100759
-0.03069125
-0.16846378
-0.032900269
-0.17625786
-0.035222319
-0.18440495
-0.037662358
-0.19292201
-0.040225334
-0.20182586
-0.042916483
-0.21113555
-0.045740713
-0.2208701
-0.048702539
-0.23105009
-0.051806363
-0.24169835
-0.055056593
-0.25283729
-0.058456444
-0.26449234
-0.062009063
-0.27669036
-0.065717017
-0.28945899
-0.06958228
-0.30282826
-0.073605676
-0.31683054
-0.077787675
-0.33149923
-0.082127315
-0.34687067
-0.086623513
-0.36298263
-0.091273081
-0.37987592
-0.096072441
-0.3975931
-0.10101725
-0.41617935
-0.10610067
-0.43568276
-0.11131563
-0.45615443
-0.11665318
-0.47764676
-0.12210282
-0.50021726
-0.12765326
-0.52392439
-0.1332903
-0.54883227
-0.13899883
-0.57500607
-0.14476117
-0.60251648
-0.15055741
-0.63143653
-0.15636564
-0.6618446
-0.16216059
-0.69382219
-0.16791358
-0.72745672
-0.17359387
-0.7628387
-0.17916549
-0.80006473
-0.18458916
-0.83923655
-0.18981985
-0.88046107
-0.19480774
-0.9238508
-0.19949647
-0.96952448
-0.2038233
-1.0176085
-0.20771755
-1.0682374
-0.21109856
-1.1215551
-0.2138807
-1.177719
-0.21595751
-1.2368959
-0.21722757
-1.2992622
-0.21755714
-1.3650123
-0.2168191
-1.4343317
-0.21486217
-1.5074245
-0.21152186
-1.584483
-0.20661709
-1.6657214
-0.19994548
-1.7513047
-0.19127192
-1.8413681
-0.18038942
-1.9360302
-0.16701749
-2.0350971
-0.15069
-2.139313
-2.2517667
-0.00041101494
-0.048391937
-0.0010767611
-0.06070224
-0.0016750613
-0.059422403
-0.0024169608
-0.064563132
-0.0030988832
-0.066364294
-0.0039060549
-0.070167103
-0.0046809559
-0.073146296
-0.0055517501
-0.076729635
-0.0064246614
-0.080298788
-0.0073691371
-0.084067097
-0.0083506017
-0.088022711
-0.0093887103
-0.092140999
-0.01047988
-0.096460693
-0.011628797
-0.10097212
-0.012838292
-0.10569178
-0.014112225
-0.11062566
-0.015454092
-0.11578423
-0.01686776
-0.1211773
-0.018357719
-0.12681453
-0.019927949
-0.13270758
-0.021583541
-0.13886655
-0.023329301
-0.14530457
-0.02517037
-0.15203271
-0.027111851
-0.15906511
-0.029159365
-0.16641512
-0.031318731
-0.17409717
-0.033594694
-0.18212748
-0.035993578
-0.19052142
-0.038520702
-0.1992968
-0.04118147
-0.20847259
-0.043981502
-0.2180676
-0.046925408
-0.22810341
-0.050018625
-0.23860203
-0.053264493
-0.24958795
-0.05666757
-0.26108539
-0.060231249
-0.27312238
-0.063957793
-0.28572768
-0.067849258
-0.29893152
-0.071907272
-0.31276671
-0.07613199
-0.32726813
-0.0805234
-0.34247227
-0.085079605
-0.35841879
-0.089798991
-0.37514823
-0.094678438
-0.39270465
-0.099713017
-0.41113505
-0.1048978
-0.43048752
-0.11022722
-0.45081381
-0.11569261
-0.47216942
-0.12128626
-0.49461095
-0.12699703
-0.51820026
-0.1328146
-0.5430007
-0.13872533
-0.56908078
-0.14471454
-0.59651222
-0.15076557
-0.62537008
-0.15685955
-0.655735
-0.16297523
-0.68769089
-0.16908946
-0.72132711
-0.17517482
-0.75673851
-0.18120153
-0.79402413
-0.18713532
-0.83329028
-0.19293877
-0.87464708
-0.19856869
-0.91821297
-0.20397694
-0.96411169
-0.20910896
-1.0124762
-0.21390332
-1.0634481
-0.21829075
-1.1171791
-0.22219361
-1.1738351
-0.22552722
-1.2335901
-0.228189
-1.2966383
-0.23007805
-1.3631722
-0.23107128
-1.4333989
-0.2310401
-1.5075269
-0.22984019
-1.5857613
-0.22730924
-1.6683296
-0.2232656
-1.7554117
-0.21750563
-1.8471613
-0.20982947
-1.9436939
-0.19997579
-2.0449052
-0.18758946
-2.1516902
-2.2667402
-0.00036853587
-0.048023687
-0.0010029333
-0.060067823
-0.0015455748
-0.058879881
-0.0022393954
-0.063869314
-0.00285988
-0.065743859
-0.0036200564
-0.069406912
-0.0043378948
-0.072428449
-0.0051468008
-0.075920677
-0.005976894
-0.07946863
-0.0068745554
-0.083169333
-0.0078094893
-0.087087642
-0.008797595
-0.091152717
-0.0098384655
-0.095419603
-0.010936117
-0.099874196
-0.012094578
-0.10453299
-0.013317309
-0.10940253
-0.014609157
-0.11449192
-0.015974197
-0.11981172
-0.017417223
-0.12537086
-0.018943626
-0.13118044
-0.020558007
-0.13725132
-0.022266578
-0.14359502
-0.024074557
-0.15022361
-0.025987648
-0.15715074
-0.028012223
-0.16438909
-0.030153939
-0.17195381
-0.032419713
-0.17985985
-0.034815129
-0.18812391
-0.037345956
-0.19676362
-0.040018843
-0.20579706
-0.042838838
-0.21524466
-0.045811583
-0.22512737
-0.048941809
-0.23546813
-0.052234699
-0.24629097
-0.055693369
-0.25762219
-0.059321559
-0.26948917
-0.063122455
-0.28192125
-0.067097812
-0.29495007
-0.071248828
-0.30860899
-0.075576229
-0.32293339
-0.080080049
-0.33796041
-0.084759118
-0.35373097
-0.089611963
-0.37028587
-0.094635518
-0.38767079
-0.099826973
-0.40593246
-0.1051819
-0.42512061
-0.11069498
-0.44528789
-0.11636087
-0.46648982
-0.12217178
-0.48878545
-0.12812052
-0.51223609
-0.13419731
-0.53690767
-0.14039208
-0.56286899
-0.14669349
-0.59019311
-0.15308777
-0.61895753
-0.15956021
-0.64924385
-0.16609346
-0.6811387
-0.17266876
-0.71473287
-0.17926427
-0.75012439
-0.18585531
-0.7874152
-0.19241458
-0.82671431
-0.1989102
-0.86813659
-0.20530704
-0.91180376
-0.21156451
-0.95784519
-0.21763717
-1.0063988
-0.22347337
-1.0576125
-0.22901404
-1.1116456
-0.23419339
-1.1686708
-0.23893833
-1.2288695
-0.24316337
-1.2924481
-0.24677667
-1.3596055
-0.24968057
-1.4305542
-0.25175952
-1.5055189
-0.25288652
-1.5847131
-0.25292717
-1.6683673
-0.25171461
-1.7566896
-0.2490668
-1.8498442
-0.24481027
-1.9479402
-0.23870333
-2.0509749
-0.23049208
-2.1599098
-2.2771628
-0.00032616756
-0.047697737
-0.00093509692
-0.059458813
-0.0014282687
-0.058386758
-0.0020755421
-0.063221972
-0.0026504044
-0.065168973
-0.0033804682
-0.068676755
-0.0040637191
-0.071745112
-0.0048545767
-0.075129677
-0.0056454385
-0.078677613
-0.0064973991
-0.082317172
-0.0073902874
-0.086194514
-0.0083355247
-0.090207191
-0.0093356045
-0.094419181
-0.010393949
-0.098815449
-0.011514994
-0.10341147
-0.012703314
-0.10821367
-0.013962867
-0.11323173
-0.015299638
-0.11847422
-0.016718458
-0.12395121
-0.018225009
-0.12967294
-0.019825141
-0.13565011
-0.021524869
-0.14189407
-0.023330515
-0.14841658
-0.025249342
-0.15523035
-0.027286843
-0.16234983
-0.029450533
-0.16978814
-0.031746583
-0.17756158
-0.034181862
-0.18568614
-0.036762919
-0.19417978
-0.039495858
-0.20306102
-0.042386458
-0.2123506
-0.04544051
-0.22206947
-0.048663195
-0.23224117
-0.052058617
-0.24289082
-0.055631071
-0.25404451
-0.059384122
-0.26573035
-0.063320007
-0.27797901
-0.067441052
-0.29082204
-0.071748663
-0.30429373
-0.076243483
-0.3184302
-0.080925435
-0.33326933
-0.085794598
-0.34885187
-0.090848981
-0.36522069
-0.096087125
-0.38242096
-0.10150665
-0.40050032
-0.10710436
-0.41950931
-0.1128768
-0.43950087
-0.11881982
-0.4605312
-0.12492843
-0.48266024
-0.13119701
-0.50594988
-0.13761944
-0.53046661
-0.14418786
-0.55628098
-0.15089418
-0.58346631
-0.15772864
-0.61210179
-0.16468053
-0.64227002
-0.17173746
-0.67405933
-0.1788847
-0.70756296
-0.18610607
-0.74288041
-0.19338302
-0.78011611
-0.20069407
-0.81938208
-0.20801481
-0.86079625
-0.21531726
-0.90448401
-0.22256909
-0.95057922
-0.22973399
-0.99922391
-0.23676937
-1.0505724
-0.24362804
-1.1047887
-0.25025538
-1.1620531
-0.25658904
-1.2225548
-0.26256207
-1.2865049
-0.26810126
-1.3541085
-0.27311294
-1.4255981
-0.27751111
-1.5011889
-0.28118336
-1.5811176
-0.28401356
-1.665614
-0.28586121
-1.7549065
-0.28656618
-1.849174
-0.28596678
-1.9485309
-0.28385619
-2.0530576
-0.28006096
-2.1637257
-2.282745
-0.0002846279
-0.047413266
-0.0008743393
-0.058868971
-0.0013264048
-0.057934681
-0.0019487709
-0.062599471
-0.0025013082
-0.064616345
-0.0032057508
-0.067972155
-0.0038629518
-0.071087747
-0.0046301636
-0.074362252
-0.0053912732
-0.077916257
-0.0062104733
-0.081497676
-0.0070758108
-0.085328834
-0.0079940062
-0.089288596
-0.0089699385
-0.093442787
-0.010007035
-0.097777821
-0.011110377
-0.10230752
-0.012284795
-0.10703855
-0.013535963
-0.11197977
-0.014869294
-0.11713999
-0.016290807
-0.12252868
-0.017807283
-0.12815531
-0.019424771
-0.13403132
-0.021150816
-0.14016656
-0.022991809
-0.14657394
-0.024955164
-0.15326514
-0.02704849
-0.16025442
-0.029278598
-0.1675557
-0.031653059
-0.17518452
-0.034178771
-0.18315752
-0.036862214
-0.19149311
-0.039710232
-0.2002094
-0.042728928
-0.20932791
-0.045923396
-0.21887058
-0.049298559
-0.22886112
-0.052859263
-0.23932472
-0.056609229
-0.25028859
-0.060551265
-0.26178177
-0.06468831
-0.27383477
-0.069022291
-0.28648017
-0.073554314
-0.29975308
-0.078285524
-0.31368956
-0.083215995
-0.32832859
-0.088345474
-0.34371122
-0.093673768
-0.35988027
-0.099200311
-0.37688129
-0.10492351
-0.39476294
-0.11084206
-0.4135755
-0.116954
-0.43337253
-0.1232573
-0.45421035
-0.12974961
-0.47614919
-0.1364276
-0.49925195
-0.1432882
-0.52358489
-0.15032739
-0.54921951
-0.15754021
-0.5762301
-0.16492147
-0.6046961
-0.17246435
-0.63470181
-0.1801613
-0.6663363
-0.1880026
-0.69969505
-0.1959783
-0.7348779
-0.20407528
-0.77199248
-0.21227867
-0.81115271
-0.22057152
-0.8524787
-0.22893348
-0.89609933
-0.23734097
-0.94215185
-0.24576583
-0.99078295
-0.25417693
-1.0421501
-0.26253682
-1.0964237
-0.27080446
-1.153788
-0.27892965
-1.2144414
-0.28686074
-1.2785966
-0.29453364
-1.3464712
-0.30188476
-1.4182963
-0.30883614
-1.4943
-0.31530165
-1.5747232
-0.32117844
-1.6598087
-0.32634984
-1.7497946
-0.33067914
-1.8448747
-0.33402232
-1.9451782
-0.33620098
-2.0508612
-0.33710284
-2.1628531
-2.2831451
-0.00024616519
-0.047167197
-0.00082420515
-0.058290751
-0.0012462494
-0.057512565
-0.001890801
-0.061954731
-0.0024284644
-0.064078526
-0.0031132029
-0.06728718
-0.0037468618
-0.070453848
-0.0044730345
-0.073635785
-0.0052191045
-0.077169853
-0.0060217431
-0.080694648
-0.0068763467
-0.084473785
-0.0077857399
-0.088378693
-0.0087570516
-0.092470894
-0.0097942057
-0.096740005
-0.010902957
-0.10119802
-0.012089061
-0.1058516
-0.013358759
-0.11070911
-0.014718737
-0.11577893
-0.016175796
-0.1210704
-0.017736656
-0.12659308
-0.019409959
-0.13235647
-0.021202174
-0.13837261
-0.023122193
-0.14465198
-0.025177322
-0.15120785
-0.027375419
-0.15805391
-0.02972461
-0.16520382
-0.032232325
-0.17267381
-0.034905564
-0.18048095
-0.037751759
-0.18864321
-0.040776913
-0.19718015
-0.043986644
-0.20611365
-0.047386631
-0.21546558
-0.050981324
-0.2252609
-0.054774945
-0.235525
-0.058770799
-0.24628604
-0.062971717
-0.25757349
-0.067379956
-0.26941847
-0.071997233
-0.28185407
-0.076825311
-0.29491536
-0.081864878
-0.30863948
-0.087116854
-0.32306516
-0.092582016
-0.33823362
-0.098260841
-0.35418796
-0.10415334
-0.3709742
-0.11026037
-0.38864015
-0.11658244
-0.40723644
-0.12311956
-0.42681715
-0.12987223
-0.44743811
-0.13684073
-0.46915977
-0.14402537
-0.492045
-0.15142558
-0.51616099
-0.15904176
-0.54157826
-0.16687268
-0.56837276
-0.17491713
-0.59662395
-0.18317342
-0.62641663
-0.19163864
-0.65784115
-0.20030939
-0.69099357
-0.20918048
-0.72597552
-0.21824595
-0.76289557
-0.22749801
-0.80186953
-0.2369262
-0.84302026
-0.24651879
-0.88647807
-0.25626064
-0.93238367
-0.26613392
-0.98088662
-0.27611653
-1.0321487
-0.28618291
-1.0863442
-0.29630298
-1.1436619
-0.30644351
-1.2043036
-0.31656358
-1.2684902
-0.32662012
-1.336441
-0.33656524
-1.4083914
-0.34633366
-1.4845845
-0.355863
-1.5652551
-0.36507306
-1.6506598
-0.37386916
-1.7410472
-0.38213132
-1.8366313
-0.38974211
-1.9375515
-0.39654012
-2.0440528
-0.40247812
-2.1569482
-2.2779949
-0.00021173535
-0.046955501
-0.00078968748
-0.057712569
-0.0011885312
-0.057113592
-0.0018526429
-0.061290386
-0.0023680507
-0.063562899
-0.003044701
-0.066610235
-0.0036705658
-0.069827668
-0.0043902559
-0.072915718
-0.0051384639
-0.076421224
-0.0059408652
-0.079891764
-0.0068026478
-0.083611457
-0.0077239203
-0.087456801
-0.0087131471
-0.091480967
-0.0097751317
-0.09567723
-0.010916539
-0.10005572
-0.012144082
-0.10462305
-0.01346494
-0.10938713
-0.014886452
-0.11435615
-0.016417066
-0.11953836
-0.018064721
-0.12494383
-0.019837707
-0.13058171
-0.021744967
-0.13646337
-0.023794671
-0.14260006
-0.025995563
-0.14900448
-0.028356397
-0.15569032
-0.03088461
-0.16267255
-0.03358808
-0.16996694
-0.03647414
-0.17759113
-0.039549588
-0.18556359
-0.042819693
-0.19390543
-0.046290923
-0.20263732
-0.049967156
-0.21178373
-0.053853194
-0.22136867
-0.057951823
-0.23141958
-0.062265863
-0.24196454
-0.066798245
-0.25303293
-0.071550873
-0.26465689
-0.076525256
-0.27686991
-0.081723103
-0.28970685
-0.087146186
-0.30320478
-0.092795984
-0.31740273
-0.098674254
-0.33234163
-0.10478263
-0.34806472
-0.11112367
-0.36461707
-0.1176997
-0.38204674
-0.12451309
-0.40040432
-0.13156748
-0.41974261
-0.1388654
-0.44011856
-0.14641088
-0.46159112
-0.15420734
-0.4842238
-0.16225872
-0.50808327
-0.17056806
-0.53324096
-0.17913936
-0.5597719
-0.18797616
-0.58775603
-0.19708124
-0.61727896
-0.2064573
-0.64843114
-0.21610675
-0.68130901
-0.22603065
-0.7160156
-0.23622945
-0.75266021
-0.24670215
-0.79136014
-0.25744746
-0.83223867
-0.26846071
-0.87542956
-0.27973622
-0.92107464
-0.29126569
-0.96932619
-0.303038
-1.020349
-0.31503921
-1.0743204
-0.32725258
-1.1314322
-0.33965612
-1.191892
-0.35222912
-1.2559193
-0.36494257
-1.3237419
-0.37775949
-1.3956019
-0.39064835
-1.4717348
-0.40355372
-1.5523958
-0.416418
-1.6378404
-0.42916658
-1.7283293
-0.44171936
-1.824078
-0.45396688
-1.9252719
-0.46577409
-2.0322311
-0.47712152
-2.1456284
-2.2668885
-0.00019026306
-0.04676522
-0.00078735464
-0.0571152
-0.0011821877
-0.056718574
-0.0018396222
-0.060632651
-0.0023478729
-0.063054364
-0.0030266389
-0.065931106
-0.003667476
-0.069186444
-0.0043939974
-0.072188743
-0.0051636416
-0.075651076
-0.0059870874
-0.079067745
-0.006877964
-0.082719935
-0.0078354735
-0.086498565
-0.0088691809
-0.090446442
-0.0099851496
-0.094560342
-0.011191103
-0.098848738
-0.012494937
-0.10331806
-0.013905112
-0.10797566
-0.015430482
-0.11282933
-0.017079703
-0.11788752
-0.018862754
-0.12315897
-0.020788475
-0.12865396
-0.022866569
-0.13438302
-0.025105898
-0.14035822
-0.027515603
-0.14659199
-0.030104241
-0.15309858
-0.032879914
-0.15989343
-0.035849668
-0.16699337
-0.039020666
-0.17441591
-0.042398387
-0.18218121
-0.045988846
-0.19030983
-0.049795852
-0.19882465
-0.053823548
-0.20774981
-0.058075228
-0.21711015
-0.062553445
-0.22693386
-0.067260633
-0.23724913
-0.072198979
-0.24808559
-0.077370119
-0.25947593
-0.082776454
-0.27145286
-0.088419859
-0.28405176
-0.094302996
-0.29730893
-0.1004287
-0.31126322
-0.10680027
-0.32595506
-0.11342184
-0.34142691
-0.12029759
-0.35772373
-0.12743236
-0.37489298
-0.13483208
-0.39298412
-0.14250254
-0.41205008
-0.15045042
-0.43214697
-0.15868248
-0.45333362
-0.16720628
-0.47567278
-0.17602942
-0.49923107
-0.1851605
-0.52407897
-0.19460736
-0.55029225
-0.20437851
-0.57795022
-0.21448192
-0.60713908
-0.22492662
-0.63794825
-0.23572007
-0.67047581
-0.24687026
-0.70482433
-0.25838472
-0.74110365
-0.27027042
-0.77943169
-0.28253299
-0.81993318
-0.29517747
-0.86274251
-0.30820731
-0.9080032
-0.32162426
-0.95586934
-0.33542857
-1.0065074
-0.3496182
-1.0600972
-0.36418902
-1.1168332
-0.37913472
-1.1769252
-0.39445076
-1.2405915
-0.41012043
-1.3080715
-0.42613409
-1.3795993
-0.44246542
-1.4554242
-0.45908938
-1.535797
-0.47597089
-1.6209804
-0.49305426
-1.7112501
-0.51027513
-1.8068277
-0.52755498
-1.9079343
-0.5448125
-2.014936
-0.5620379
-2.1284091
-2.249383
-0.00017181128
-0.046593339
-0.00079774356
-0.05648895
-0.0011993666
-0.056316717
-0.0018663149
-0.059965355
-0.0023867636
-0.062533573
-0.0030805423
-0.065236904
-0.0037514969
-0.068515033
-0.0045011081
-0.071438606
-0.0053103838
-0.074841213
-0.0061772468
-0.07820022
-0.0071213064
-0.081775132
-0.0081425117
-0.085476525
-0.0092511893
-0.089336829
-0.010455063
-0.093355419
-0.011763203
-0.097539424
-0.013184963
-0.10189498
-0.01473013
-0.10642902
-0.016408855
-0.11114896
-0.018231463
-0.11606308
-0.020207944
-0.12118044
-0.022348778
-0.12651085
-0.024663632
-0.13206563
-0.027161777
-0.13785726
-0.029852469
-0.14389817
-0.032743559
-0.15020403
-0.035842397
-0.15679076
-0.039156247
-0.16367529
-0.04269001
-0.17087747
-0.046448938
-0.17841713
-0.050436963
-0.18631614
-0.054657497
-0.19459788
-0.059113566
-0.20328689
-0.0638065
-0.21240972
-0.068739504
-0.22199264
-0.073913969
-0.23206568
-0.079331802
-0.24265796
-0.084995855
-0.25380118
-0.090908366
-0.2655287
-0.097073487
-0.27787396
-0.10349497
-0.29087367
-0.11017742
-0.3045658
-0.11712639
-0.31898986
-0.12434857
-0.33418714
-0.13185087
-0.35020239
-0.13964136
-0.36708189
-0.14772903
-0.38487422
-0.15612324
-0.4036319
-0.1648342
-0.42341021
-0.17387315
-0.44426696
-0.18325139
-0.46626483
-0.19298139
-0.48946926
-0.20307515
-0.51395127
-0.21354671
-0.53978456
-0.22440907
-0.56704953
-0.23567675
-0.59583088
-0.24736337
-0.62621897
-0.25948406
-0.65831046
-0.27205315
-0.69220874
-0.2850852
-0.72802352
-0.29859555
-0.76587199
-0.31259788
-0.8058806
-0.32710641
-0.84818326
-0.34213465
-0.89292428
-0.35769506
-0.94025891
-0.37379884
-0.9903551
-0.39045699
-1.0433931
-0.40767959
-1.0995686
-0.42547674
-1.1590919
-0.443854
-1.2221858
-0.46281964
-1.2890868
-0.48237632
-1.3600329
-0.50252414
-1.4352732
-0.52325425
-1.5150649
-0.54454707
-1.5996778
-0.56638222
-1.6893831
-0.5887093
-1.7844317
-0.61148689
-1.8850631
-0.6346692
-1.9916823
-0.65827984
-2.104758
-2.2249832
-0.00015764388
-0.046435578
-0.00082554354
-0.055820694
-0.0012406461
-0.055901332
-0.0019374892
-0.059268114
-0.0024879505
-0.061982711
-0.003209845
-0.064514527
-0.0039312685
-0.067793086
-0.0047251821
-0.070644094
-0.0055969991
-0.073968729
-0.0065343934
-0.077262076
-0.0075609394
-0.080747746
-0.0086787823
-0.08435774
-0.0098993377
-0.088115219
-0.011232422
-0.092021153
-0.01268866
-0.096081866
-0.014279179
-0.10030299
-0.01601518
-0.10469137
-0.017907965
-0.10925433
-0.019968735
-0.11400026
-0.022208372
-0.11893852
-0.024637068
-0.12407962
-0.027264836
-0.12943504
-0.030100944
-0.13501803
-0.033152989
-0.14084266
-0.036428561
-0.14692463
-0.039933676
-0.15328142
-0.043673237
-0.15993106
-0.047651603
-0.16689397
-0.051871918
-0.17419117
-0.056336524
-0.18184533
-0.061047167
-0.18988044
-0.066005914
-0.1983207
-0.071214187
-0.2071933
-0.076673707
-0.21652423
-0.082386921
-0.22634276
-0.088356462
-0.23667783
-0.094585757
-0.24756036
-0.10107987
-0.25902204
-0.10784314
-0.27109705
-0.11488263
-0.28381936
-0.1222052
-0.29722713
-0.1298202
-0.3113574
-0.13773606
-0.32625236
-0.14596362
-0.34195435
-0.15451487
-0.35850848
-0.16340151
-0.37596363
-0.17263727
-0.39437029
-0.18223666
-0.41378295
-0.19221446
-0.43425915
-0.20258712
-0.45585993
-0.213371
-0.47865079
-0.22458452
-0.50270072
-0.23624527
-0.52808426
-0.24837254
-0.55488013
-0.2609866
-0.58317207
-0.27410779
-0.61305045
-0.28775703
-0.64461134
-0.30195692
-0.67795655
-0.31672962
-0.71319626
-0.33209758
-0.75044744
-0.34808437
-0.78983547
-0.3647138
-0.83149403
-0.3820094
-0.87556783
-0.39999433
-0.92221255
-0.41869332
-0.97159478
-0.43812994
-1.0238962
-0.45832823
-1.0793124
-0.4793129
-1.1380532
-0.5011078
-1.2003425
-0.52374032
-1.2664125
-0.5472315
-1.3365059
-0.57159841
-1.4108732
-0.59685567
-1.4897714
-0.62301334
-1.5734712
-0.65006206
-1.6622569
-0.67798362
-1.7563906
-0.70675828
-1.8561461
-0.73640438
-1.9619176
-0.76695602
-2.0740957
-2.1931186
-0.00014955894
-0.046285858
-0.00087853059
-0.055091331
-0.0013122503
-0.055467283
-0.0020526424
-0.058527279
-0.002653676
-0.061381222
-0.0034219171
-0.063745747
-0.0042168108
-0.066997602
-0.0050798089
-0.069780427
-0.0060398317
-0.073007958
-0.0070791194
-0.076221949
-0.0082233691
-0.079602557
-0.0094783089
-0.083101748
-0.010856877
-0.086735473
-0.012370955
-0.090505758
-0.014032991
-0.094418358
-0.015855407
-0.098478929
-0.017850605
-0.10269434
-0.020030563
-0.10707234
-0.022406899
-0.11162165
-0.02499046
-0.11635243
-0.027791393
-0.12127588
-0.030818467
-0.12640486
-0.034079382
-0.13175367
-0.037580999
-0.13733724
-0.041328074
-0.14317336
-0.045324988
-0.14927988
-0.049573957
-0.15567701
-0.054077147
-0.1623852
-0.058835964
-0.16942623
-0.063851084
-0.1768235
-0.069123728
-0.18460046
-0.074654699
-0.19278171
-0.080446099
-0.20139315
-0.086500063
-0.21046071
-0.092820382
-0.22001204
-0.099410931
-0.23007595
-0.10627789
-0.24068107
-0.11342741
-0.25185912
-0.12086844
-0.26364145
-0.12860942
-0.27606256
-0.13666202
-0.28915735
-0.14503683
-0.30296396
-0.15374757
-0.31752142
-0.16280865
-0.33287137
-0.17223491
-0.34905852
-0.18204293
-0.36612997
-0.19225031
-0.38413519
-0.2028756
-0.40312773
-0.21393872
-0.42316374