/*--------------------------------*- C++ -*----------------------------------*\
  =========                 |
  \\      /  F ield         | OpenFOAM: The Open Source CFD Toolbox
   \\    /   O peration     | Website:  https://openfoam.org
    \\  /    A nd           | Version:  12
     \\/     M anipulation  |
\*---------------------------------------------------------------------------*/
FoamFile
{
    format      ascii;
    class       volScalarField;
    location    "0.069";
    object      T;
}
// * * * * * * * * * * * * * * * * * * * * * * * * * * * * * * * * * * * * * //

dimensions      [0 0 0 1 0 0 0];

internalField   nonuniform List<scalar> 
16000
(
294.1863
285.62398
288.91745
287.12905
288.2476
287.73472
288.1599
288.0472
288.24564
288.27923
288.40059
288.4856
288.59129
288.69435
288.80342
288.91582
289.03238
289.15297
289.27766
289.40647
289.5394
289.67646
289.81762
289.96282
290.112
290.26507
290.42189
290.58231
290.74616
290.91323
291.08328
291.25604
291.43121
291.60847
291.78746
291.96782
292.14915
292.33105
292.5131
292.69486
292.87592
293.05586
293.23425
293.4107
293.58482
293.75626
293.92469
294.08981
294.25137
294.40913
294.56293
294.71264
294.85816
294.99944
295.13651
295.26939
295.39819
295.52304
295.64411
295.7616
295.87577
295.98691
296.0953
296.20123
296.30496
296.40669
296.50647
296.60421
296.69967
296.7925
296.88232
296.9689
297.05258
297.13514
297.22135
297.31491
297.45845
297.55732
297.88603
297.90521
293.86074
285.20222
288.64902
286.75467
287.94097
287.39091
287.85172
287.72941
287.94247
287.98161
288.10999
288.20396
288.31686
288.42881
288.54635
288.6678
288.79359
288.9237
289.05817
289.19701
289.34021
289.48773
289.63953
289.79552
289.9556
290.11964
290.28746
290.45887
290.63364
290.8115
290.99217
291.17532
291.36059
291.54761
291.73597
291.92524
292.11498
292.30474
292.49407
292.68249
292.86957
293.05485
293.23791
293.41836
293.59582
293.76994
293.94042
294.107
294.26947
294.42763
294.58137
294.7306
294.87529
295.01544
295.15112
295.28242
295.40949
295.53251
295.65168
295.76725
295.87952
295.98877
296.09533
296.19948
296.30152
296.40163
296.49989
296.59623
296.69043
296.78219
296.8712
296.95732
297.04108
297.12431
297.21184
297.31492
297.4447
297.58133
297.86312
297.93352
293.54988
284.8105
288.38018
286.42474
287.65139
287.09138
287.56605
287.4515
287.66948
287.72054
287.85444
287.95906
288.08011
288.20187
288.32904
288.46059
288.59675
288.73754
288.88294
289.03296
289.18756
289.34666
289.51018
289.67801
289.84998
290.02591
290.20559
290.38876
290.57513
290.76438
290.95614
291.15004
291.34564
291.5425
291.74015
291.93812
292.1359
292.33299
292.52889
292.72312
292.9152
293.10468
293.29113
293.47417
293.65343
293.82861
293.99945
294.16573
294.32729
294.48401
294.63582
294.78271
294.92471
295.06189
295.19438
295.32233
295.44595
295.56546
295.68112
295.79321
295.90206
296.008
296.11135
296.21242
296.31151
296.40881
296.5044
296.59824
296.69014
296.77984
296.86708
296.95187
297.03485
297.1181
297.20742
297.31415
297.4424
297.59976
297.85639
297.9426
293.26392
284.44995
288.13073
286.1317
287.39608
286.8263
287.3151
287.20997
287.43335
287.4979
287.63836
287.75482
287.88537
288.01815
288.15625
288.29915
288.44693
288.59959
288.75711
288.91944
289.08651
289.25822
289.43443
289.61497
289.79965
289.98821
290.18037
290.37582
290.57419
290.77508
290.97806
291.18267
291.38839
291.59473
291.80113
292.00706
292.21197
292.4153
292.61654
292.81517
293.01071
293.2027
293.39075
293.57449
293.7536
293.92784
294.09699
294.26091
294.41951
294.57274
294.72063
294.86321
295.00062
295.13299
295.26051
295.3834
295.50193
295.61638
295.72704
295.83424
295.93832
296.03964
296.13855
296.23538
296.33042
296.42387
296.51585
296.6063
296.69509
296.78198
296.8668
296.94965
297.03132
297.11429
297.20509
297.31375
297.44435
297.61332
297.85233
297.94714
293.00278
284.12695
287.9073
285.88839
287.18532
286.6039
287.10285
287.01213
287.23924
287.32013
287.46796
287.59764
287.73909
287.88407
288.0344
288.18986
288.35045
288.51615
288.68692
288.86267
289.0433
289.22865
289.41854
289.61274
289.81097
290.01292
290.21821
290.42646
290.63719
290.84993
291.06415
291.27929
291.49477
291.70999
291.92435
292.13724
292.34807
292.55626
292.76125
292.96253
293.15962
293.35212
293.53964
293.72188
293.8986
294.06961
294.2348
294.39409
294.54749
294.69505
294.83687
294.9731
295.10393
295.22959
295.35034
295.46646
295.57828
295.68611
295.79031
295.89122
295.98923
296.08469
296.17799
296.26944
296.35937
296.44798
296.53538
296.62157
296.70641
296.78971
296.87137
296.9516
297.03136
297.11359
297.2052
297.31516
297.44884
297.6238
297.85007
297.94672
292.77022
283.84802
287.71827
285.68409
287.00246
286.43086
286.9393
286.86468
287.094
287.19326
287.34941
287.49316
287.64672
287.80489
287.96856
288.1377
288.31226
288.4922
288.67743
288.86782
289.06321
289.26337
289.46803
289.67689
289.88957
290.10567
290.32469
290.54615
290.76946
290.99404
291.21925
291.44443
291.66893
291.89205
292.11313
292.33151
292.54657
292.7577
292.96436
293.16605
293.36235
293.55289
293.73736
293.91555
294.0873
294.25253
294.41123
294.56343
294.70926
294.84886
294.98243
295.11023
295.23252
295.34963
295.46186
295.56959
295.67316
295.77296
295.86935
295.96272
296.05346
296.14196
296.22858
296.31367
296.39753
296.4804
296.5624
296.64352
296.72366
296.80267
296.8805
296.95746
297.03475
297.11577
297.20752
297.31821
297.45445
297.63283
297.84706
297.94367
292.56992
283.61566
287.56285
285.5195
286.86108
286.30958
286.81777
286.77204
287.00072
287.1197
287.2852
287.4438
287.61088
287.78351
287.96201
288.14637
288.3365
288.53231
288.73362
288.94024
289.1519
289.36828
289.58902
289.81368
290.04177
290.27275
290.50601
290.74092
290.97679
291.21288
291.44846
291.68278
291.91506
292.14457
292.37058
292.59241
292.80942
293.02103
293.22673
293.42609
293.61874
293.80441
293.98292
294.15415
294.31808
294.47475
294.62428
294.76683
294.90263
295.03196
295.15512
295.27246
295.38433
295.49112
295.59323
295.69105
295.78499
295.87547
295.96286
296.04759
296.13003
296.21058
296.28962
296.36748
296.44448
296.52084
296.5967
296.67206
296.74683
296.82089
296.89426
296.96735
297.04163
297.12089
297.21208
297.32274
297.46062
297.64063
297.84291
297.93878
292.40055
283.42843
287.43995
285.39182
286.74743
286.22562
286.735
286.70155
286.95693
287.09817
287.2755
287.45075
287.63376
287.82307
288.01868
288.22053
288.42847
288.64228
288.86174
289.08651
289.31621
289.55041
289.78859
290.03018
290.27453
290.52094
290.76866
291.0169
291.26483
291.51159
291.75634
291.99821
292.23638
292.47006
292.69849
292.92101
293.13701
293.34596
293.54745
293.74114
293.92679
294.10427
294.27353
294.43462
294.58766
294.73284
294.87043
295.00073
295.12409
295.24091
295.3516
295.45659
295.55631
295.65122
295.74176
295.82837
295.9115
295.99156
296.06897
296.14413
296.21742
296.28925
296.35997
296.42992
296.4994
296.56864
296.63776
296.70678
296.77562
296.84418
296.91253
296.98123
297.052
297.12896
297.21884
297.3286
297.46709
297.64718
297.83732
297.93259
292.25699
283.28384
287.35197
285.30126
286.68634
286.21231
286.71603
286.73356
286.97031
287.13211
287.32487
287.51936
287.72132
287.93013
288.14561
288.36762
288.59591
288.83016
289.06999
289.31496
289.56452
289.81806
290.07491
290.33429
290.5954
290.85734
291.1192
291.38002
291.63882
291.89462
292.14649
292.39348
292.63474
292.86946
293.09694
293.31655
293.52779
293.73024
293.92362
294.10777
294.28261
294.4482
294.60467
294.75225
294.89123
295.02198
295.14491
295.26047
295.36913
295.4714
295.56777
295.65875
295.74485
295.82655
295.90435
295.97871
296.05008
296.11889
296.18555
296.25045
296.31397
296.3765
296.43836
296.49989
296.56138
296.62304
296.68499
296.74723
296.80969
296.87229
296.93517
296.99903
297.06588
297.14003
297.22786
297.33588
297.47386
297.65208
297.83021
297.92569
292.13769
283.18363
287.30479
285.26059
286.68006
286.20906
286.74143
286.79643
287.04162
287.23022
287.44209
287.65855
287.8826
288.1139
288.35219
288.59719
288.8485
289.10566
289.36812
289.63524
289.90627
290.1804
290.45673
290.73427
291.012
291.28882
291.56364
291.83533
292.10279
292.36494
292.62078
292.86934
293.1098
293.34141
293.56356
293.77575
293.97766
294.16906
294.34987
294.52014
294.68004
294.82982
294.96985
295.10055
295.22239
295.33592
295.44169
295.54028
295.63227
295.71824
295.79878
295.87444
295.94576
296.01328
296.07748
296.13884
296.1978
296.25479
296.3102
296.36441
296.41777
296.47063
296.52332
296.57613
296.62934
296.68315
296.73764
296.79281
296.84857
296.90488
296.96196
297.02067
297.08327
297.15415
297.23921
297.34481
297.48111
297.65504
297.82163
297.91865
292.046
283.1356
287.30398
285.33196
286.73381
286.34378
286.83065
286.92765
287.1847
287.40149
287.63662
287.87825
288.12779
288.38487
288.64913
288.92008
289.19716
289.47968
289.76686
290.05781
290.35153
290.64692
290.94284
291.23804
291.53126
291.8212
292.10658
292.38614
292.65869
292.92311
293.1784
293.42366
293.65817
293.88133
294.09274
294.29213
294.47942
294.65465
294.81802
294.96985
295.11056
295.24066
295.36074
295.47141
295.57334
295.66721
295.75371
295.83351
295.90728
295.97567
296.03928
296.09872
296.15453
296.20724
296.25735
296.30531
296.35155
296.39646
296.44041
296.48375
296.52679
296.56987
296.61327
296.65727
296.7021
296.74794
296.79485
296.8428
296.8917
296.94153
296.99263
297.04602
297.10416
297.17134
297.25305
297.35562
297.48906
297.65621
297.81181
297.91191
291.98872
283.15304
287.3586
285.46965
286.8365
286.50196
286.99107
287.13468
287.40837
287.65614
287.91897
288.18947
288.46825
288.75471
289.04831
289.34831
289.65388
289.96404
290.27769
290.59361
290.91047
291.22687
291.54135
291.85239
292.15851
292.45821
292.75008
293.0328
293.30515
293.56608
293.8147
294.05031
294.27241
294.48069
294.67505
294.85555
295.02245
295.17613
295.31711
295.44601
295.56353
295.67041
295.76745
295.85546
295.93523
296.00757
296.07325
296.13302
296.18757
296.23759
296.2837
296.32648
296.36648
296.4042
296.4401
296.47462
296.50813
296.54101
296.57357
296.60612
296.63895
296.67235
296.70657
296.74185
296.77839
296.81633
296.85569
296.89642
296.93844
296.98178
297.02687
297.07492
297.12849
297.19168
297.26955
297.36851
297.49785
297.65639
297.80145
297.90598
291.9712
283.2429
287.47907
285.65716
287.00632
286.75
287.23328
287.42641
287.72319
288.0053
288.30074
288.60452
288.91679
289.23661
289.56315
289.89531
290.23187
290.57144
290.91254
291.25352
291.59269
291.92828
292.25853
292.58168
292.89603
293.2
293.49213
293.77114
294.03598
294.28579
294.51998
294.73819
294.94031
295.12643
295.29689
295.45216
295.59289
295.71984
295.83385
295.93585
296.02677
296.10757
296.17922
296.24265
296.29876
296.34842
296.39244
296.43157
296.46654
296.49799
296.52654
296.55273
296.57706
296.60001
296.62198
296.64335
296.66447
296.68564
296.70715
296.72925
296.7522
296.77623
296.80157
296.82841
296.85692
296.88718
296.91919
296.95287
296.98815
297.02513
297.06435
297.10719
297.1562
297.21522
297.28894
297.38374
297.50768
297.65626
297.79151
297.90163
291.99505
283.41279
287.67061
285.93248
287.25462
287.0822
287.56744
287.81358
288.14113
288.46228
288.79597
289.13821
289.48873
289.84614
290.20914
290.57612
290.94537
291.31499
291.683
292.04731
292.40582
292.75643
293.0971
293.4259
293.74109
294.04111
294.32467
294.59077
294.83868
295.06801
295.27863
295.47072
295.64469
295.80117
295.94096
296.06501
296.17437
296.27014
296.35348
296.42553
296.48744
296.54029
296.58516
296.62303
296.65485
296.68149
296.70375
296.72236
296.73799
296.75126
296.7627
296.77283
296.78208
296.79085
296.7995
296.80835
296.81768
296.82775
296.83878
296.85099
296.86459
296.87977
296.8967
296.91555
296.93643
296.95939
296.98439
297.01134
297.04019
297.07111
297.10477
297.14264
297.18722
297.24201
297.31143
297.40157
297.51886
297.65653
297.78317
297.89952
292.06538
283.67586
287.93644
286.29757
287.5912
287.51342
288.00758
288.311
288.67809
289.04439
289.42268
289.80908
290.20269
290.60153
291.00365
291.40681
291.80869
292.20679
292.5986
292.98158
293.35326
293.71129
294.05353
294.37809
294.68341
294.96825
295.23179
295.47358
295.69351
295.89185
296.06917
296.22629
296.36423
296.48418
296.58744
296.67538
296.74938
296.81083
296.86109
296.90145
296.93315
296.95736
296.97513
296.98747
296.99529
296.99939
297.00053
296.99938
296.99652
296.9925
296.98778
296.98279
296.97789
296.97342
296.96966
296.96686
296.96525
296.96502
296.96636
296.96942
296.97437
296.98136
296.99051
297.00196
297.01576
297.03194
297.05041
297.0711
297.09398
297.1193
297.14784
297.18109
297.22143
297.27208
297.33716
297.42222
297.53185
297.65827
297.77754
297.89972
292.18653
284.05073
288.27253
286.7668
288.0314
288.0584
288.57213
288.93879
289.35524
289.77395
290.20342
290.63934
291.07998
291.52261
291.96447
292.40258
292.83389
293.25531
293.66381
294.05649
294.43071
294.78413
295.11485
295.4214
295.7028
295.95855
296.18864
296.39346
296.57379
296.73073
296.8656
296.97991
297.07528
297.1534
297.21595
297.26462
297.30101
297.32666
297.343
297.35139
297.35304
297.34909
297.34056
297.32834
297.31328
297.29608
297.2774
297.25781
297.2378
297.21782
297.19823
297.17939
297.16157
297.14503
297.12998
297.11662
297.10509
297.09555
297.08811
297.08291
297.08004
297.07962
297.08174
297.08648
297.09388
297.10391
297.11648
297.13152
297.14904
297.16937
297.19332
297.22238
297.25875
297.30541
297.3662
297.44581
297.54709
297.6625
297.77567
297.90205
292.36314
284.56747
288.68644
287.35827
288.59638
288.74082
289.28714
289.72421
290.19984
290.67808
291.16428
291.65346
292.14278
292.62857
293.1071
293.57454
294.02713
294.46124
294.87357
295.26123
295.62185
295.95367
296.25556
296.52701
296.76812
296.97953
297.16231
297.31793
297.44813
297.55483
297.64008
297.70596
297.75454
297.78783
297.80775
297.81612
297.81461
297.80476
297.78798
297.76553
297.73855
297.70804
297.67491
297.63994
297.60382
297.56714
297.53044
297.49416
297.4587
297.42438
297.3915
297.3603
297.33097
297.30371
297.27865
297.25591
297.23561
297.21783
297.20264
297.19013
297.18036
297.1734
297.16932
297.16815
297.1699
297.17452
297.18193
297.19205
297.20495
297.221
297.24099
297.26632
297.29904
297.34195
297.3985
297.47236
297.56492
297.67001
297.77827
297.90647
292.60694
285.27366
289.22189
288.10336
289.31728
289.59204
290.18531
290.69975
291.24304
291.78656
292.33277
292.87575
293.41122
293.93431
294.44024
294.92443
295.38267
295.81132
296.20745
296.56893
296.89448
297.18362
297.43667
297.6546
297.83896
297.99171
298.11516
298.21177
298.28414
298.33484
298.36641
298.38128
298.38173
298.36988
298.34768
298.31689
298.2791
298.23572
298.18801
298.13708
298.08389
298.02929
297.974
297.91865
297.86378
297.80985
297.75726
297.70632
297.65732
297.61048
297.566
297.52404
297.48473
297.44817
297.41443
297.38359
297.3557
297.3308
297.30893
297.29012
297.27441
297.26183
297.25241
297.24617
297.2431
297.24312
297.24617
297.2522
297.2613
297.27384
297.29056
297.31269
297.34214
297.38154
297.43392
297.5018
297.58558
297.68129
297.78543
297.91311
292.94499
286.15267
289.90624
289.03937
290.23194
290.64701
291.3031
291.90164
292.51908
293.13072
293.73577
294.32692
294.89824
295.44372
295.95796
296.43631
296.87509
297.27174
297.62482
297.93399
298.19992
298.42412
298.60878
298.75659
298.8706
298.95401
299.01009
299.04207
299.05304
299.04591
299.02341
298.98799
298.94191
298.88716
298.82552
298.75857
298.68768
298.61403
298.53867
298.46247
298.38621
298.31052
298.23594
298.16295
298.09192
298.02316
297.95695
297.89348
297.83293
297.77544
297.72112
297.67003
297.62225
297.57781
297.53674
297.49905
297.46476
297.43386
297.40635
297.38225
297.36155
297.34427
297.3304
297.31996
297.3129
297.30917
297.30871
297.31149
297.31763
297.32745
297.34158
297.36108
297.38771
297.42392
297.47213
297.53386
297.60918
297.69666
297.79701
297.92152
293.41771
287.14554
290.78052
290.20234
291.38472
291.94795
292.68371
293.37211
294.0653
294.74055
295.39331
296.01497
296.59858
297.13805
297.62877
298.06763
298.4531
298.78511
299.06492
299.29484
299.47802
299.61815
299.71928
299.78558
299.82121
299.83018
299.81628
299.78299
299.73352
299.67074
299.5972
299.51516
299.42659
299.33321
299.23648
299.13769
299.03792
298.93808
298.83895
298.74118
298.64532
298.55179
298.46098
298.37318
298.28861
298.20748
298.12991
298.05602
297.98589
297.91956
297.85707
297.79843
297.74364
297.69268
297.64555
297.60221
297.56264
297.5268
297.49467
297.46623
297.44146
297.42036
297.40291
297.38909
297.37888
297.37221
297.36905
297.36939
297.37335
297.38118
297.39337
297.41083
297.43517
297.46851
297.51259
297.56812
297.63551
297.71605
297.81257
297.93099
294.08134
288.42647
291.89407
291.64472
292.83689
293.55349
294.38009
295.15587
295.91317
296.631
297.3021
297.91806
298.47309
298.96341
299.3875
299.74582
300.04058
300.27532
300.45454
300.58337
300.66722
300.71153
300.7216
300.70241
300.65858
300.59428
300.51326
300.41882
300.31385
300.20085
300.08197
299.95907
299.83371
299.70722
299.5807
299.45508
299.33114
299.20952
299.09072
298.97517
298.86321
298.75509
298.65102
298.55114
298.45557
298.36437
298.2776
298.19525
298.11735
298.04385
297.97475
297.90999
297.84953
297.79332
297.74129
297.6934
297.64958
297.60978
297.57395
297.54206
297.51407
297.48996
297.46971
297.4533
297.4407
297.43184
297.42672
297.42533
297.42777
297.43422
297.44503
297.46099
297.48355
297.51438
297.55446
297.60391
297.66401
297.73862
297.83127
297.94102
294.9928
290.05653
293.33305
293.44639
294.66769
295.53117
296.43967
297.27817
298.06276
298.7764
299.41274
299.96705
300.43805
300.82717
301.13812
301.37629
301.54822
301.661
301.72194
301.73814
301.71637
301.66282
301.58308
301.48213
301.36431
301.23338
301.09256
300.94458
300.79178
300.63608
300.47912
300.32223
300.16654
300.01295
299.86221
299.71491
299.57152
299.43242
299.29791
299.16819
299.04342
298.92371
298.80912
298.69968
298.59538
298.49622
298.40215
298.31311
298.22905
298.14988
298.07554
298.00594
297.94099
297.88061
297.82473
297.77324
297.72608
297.68318
297.64448
297.60992
297.57946
297.55307
297.53073
297.51241
297.49808
297.48769
297.48122
297.47869
297.48014
297.48566
297.49552
297.51043
297.53162
297.56026
297.59658
297.64043
297.69413
297.7635
297.85153
297.95062
296.13263
292.16074
295.20336
295.69118
296.94327
297.92431
298.86872
299.70892
300.45139
301.08737
301.61693
302.04297
302.37172
302.61141
302.77153
302.86204
302.89282
302.87324
302.8119
302.71649
302.59379
302.44964
302.28903
302.11619
301.93464
301.74734
301.55669
301.36472
301.17304
300.98299
300.79563
300.61182
300.43223
300.25741
300.08776
299.92359
299.76511
299.61249
299.46582
299.32515
299.1905
299.06184
298.93912
298.82229
298.71125
298.60592
298.5062
298.41197
298.32312
298.23955
298.16113
298.08776
298.01933
297.95573
297.89685
297.84259
297.79287
297.7476
297.70671
297.67014
297.63785
297.60979
297.58595
297.5663
297.55079
297.53939
297.53208
297.52885
297.5297
297.53465
297.54389
297.55807
297.57815
297.60478
297.63764
297.67661
297.72489
297.78929
297.87162
297.95905
297.68076
294.8516
297.59989
298.43151
299.65744
300.7002
301.59008
302.33327
302.93889
303.41091
303.75994
303.99857
304.14081
304.20079
304.19202
304.12686
304.01633
303.86996
303.69588
303.50089
303.29065
303.06981
302.84217
302.61078
302.37813
302.14619
301.91655
301.69044
301.46885
301.25253
301.04206
300.83786
300.64025
300.44945
300.2656
300.08877
299.91898
299.75622
299.60044
299.45155
299.30947
299.17407
299.04522
298.9228
298.80665
298.69664
298.59261
298.49442
298.40192
298.31496
298.23342
298.15716
298.08605
298.01996
297.95879
297.90242
297.85076
297.80371
297.7612
297.72316
297.68954
297.66031
297.63544
297.61489
297.59864
297.58663
297.57885
297.57525
297.57579
297.58041
297.58928
297.60295
297.62209
297.64686
297.67659
297.7114
297.75515
297.8146
297.89015
297.96617
299.67592
298.19851
300.51634
301.64037
302.83581
303.70892
304.42251
304.95497
305.32901
305.56329
305.67931
305.69743
305.63646
305.51292
305.34093
305.13226
304.89658
304.6417
304.37391
304.09817
303.81844
303.53778
303.25862
302.9828
302.71178
302.44662
302.18815
301.93697
301.6935
301.45804
301.23076
301.01177
300.8011
300.59873
300.40458
300.21856
300.04055
299.8704
299.70796
299.55305
299.40551
299.26513
299.13174
299.00516
298.88519
298.77166
298.66437
298.56317
298.46788
298.37834
298.29439
298.2159
298.14272
298.07472
298.01179
297.9538
297.90067
297.85228
297.80856
297.76944
297.73488
297.70483
297.67927
297.65815
297.64144
297.62911
297.6211
297.61736
297.61777
297.62225
297.63095
297.64426
297.66258
297.68565
297.71268
297.74407
297.78393
297.83834
297.90635
297.97184
302.14806
302.1824
304.20442
305.18689
306.08899
306.70599
307.1168
307.34295
307.42121
307.38152
307.25094
307.05181
306.80235
306.51702
306.20715
305.88151
305.54684
305.20827
304.86968
304.53399
304.20337
303.87944
303.56335
303.25595
302.95779
302.66926
302.39058
302.12186
301.8631
301.61427
301.37525
301.14591
300.92607
300.71555
300.51413
300.32159
300.13771
299.96227
299.79501
299.63572
299.48417
299.34012
299.20335
299.07364
298.95077
298.83455
298.72476
298.62121
298.52373
298.43214
298.34628
298.26599
298.19114
298.12159
298.05723
297.99793
297.94361
297.89415
297.84949
297.80954
297.77425
297.74359
297.71752
297.696
297.679
297.66649
297.65839
297.65461
297.655
297.65947
297.66811
297.68117
297.69876
297.72038
297.74525
297.774
297.81052
297.8598
297.92
297.97615
305.23995
306.6453
307.98199
308.6898
309.17204
309.38421
309.40918
309.28908
309.06492
308.76724
308.41967
308.03975
307.64047
307.23128
306.81906
306.40873
306.00383
305.60684
305.21947
304.84289
304.47786
304.12482
303.78401
303.45551
303.13926
302.83515
302.54297
302.2625
301.99348
301.73562
301.48863
301.25221
301.02606
300.80987
300.60334
300.40617
300.21808
300.03877
299.86798
299.70542
299.55083
299.40396
299.26456
299.13238
299.0072
298.88879
298.77694
298.67145
298.57212
298.47877
298.39124
298.30938
298.23304
298.1621
298.09643
298.03595
297.98053
297.9301
297.88457
297.84387
297.80793
297.77671
297.75017
297.72828
297.711
297.6983
297.6901
297.68628
297.68668
297.69119
297.69983
297.7127
297.72969
297.75017
297.77343
297.80021
297.83383
297.87807
297.93075
297.97918
309.22357
311.01901
311.56351
311.75223
311.69815
311.46336
311.11057
310.68243
310.2093
309.71201
309.2047
308.69689
308.19492
307.70296
307.22368
306.75874
306.30909
305.87522
305.45728
305.05521
304.66877
304.29767
303.94152
303.5999
303.27238
302.9585
302.65782
302.36991
302.09431
301.83062
301.57841
301.3373
301.1069
300.88684
300.67677
300.47634
300.28523
300.10311
299.92968
299.76465
299.60773
299.45865
299.31715
299.18298
299.05589
298.93565
298.82205
298.71487
298.61392
298.51901
298.42997
298.34666
298.26893
298.19666
298.12975
298.0681
298.01161
297.96021
297.9138
297.87233
297.83571
297.80389
297.77683
297.75449
297.73685
297.72387
297.71547
297.71152
297.71187
297.71639
297.72504
297.73778
297.75431
297.77393
297.79607
297.82141
297.85258
297.89226
297.93837
297.98105
314.21362
314.58691
314.31521
313.94454
313.41869
312.82182
312.1897
311.54806
310.91116
310.28766
309.68238
309.09791
308.53544
307.99532
307.47739
306.98117
306.50601
306.05117
305.61586
305.19928
304.80066
304.41922
304.05425
303.70504
303.37093
303.0513
302.74555
302.45312
302.17349
301.90615
301.65063
301.40648
301.17327
300.95061
300.73809
300.53537
300.34208
300.1579
299.9825
299.81558
299.65684
299.50602
299.36283
299.22702
299.09834
298.97655
298.86144
298.75279
298.65039
298.55407
298.46365
298.37898
298.29993
298.22638
298.15822
298.09538
298.03777
297.98533
297.93796
297.89561
297.85819
297.82564
297.7979
297.77494
297.75673
297.74325
297.73442
297.73013
297.73022
297.73457
297.74307
297.75558
297.77169
297.7907
297.81207
297.83639
297.86574
297.90199
297.94331
297.98212
316.2228
316.3908
315.81236
315.04535
314.26102
313.47555
312.70936
311.97009
311.26123
310.58376
309.9374
309.32121
308.7339
308.17407
307.6403
307.13119
306.64541
306.18171
305.7389
305.31591
304.91171
304.52538
304.15604
303.80289
303.46519
303.14224
302.8334
302.53806
302.25566
301.98567
301.7276
301.48099
301.24539
301.02038
300.80559
300.60063
300.40514
300.2188
300.04129
299.87228
299.7115
299.55866
299.41348
299.27572
299.14511
299.02144
298.90447
298.79398
298.68978
298.59168
298.49951
298.41312
298.33237
298.25715
298.18736
298.12292
298.06377
298.00985
297.96107
297.91737
297.87868
297.84491
297.81599
297.7919
297.7726
297.75809
297.7483
297.74314
297.74246
297.74611
297.75395
297.76583
297.78131
297.79969
297.82039
297.84394
297.87217
297.90655
297.94541
297.9825
310.12422
308.86969
305.2061
302.29287
301.00638
300.71865
300.65102
300.64768
300.53575
300.47785
300.37111
300.3026
300.21467
300.12904
300.0427
299.95566
299.86799
299.77967
299.6907
299.60115
299.51111
299.42067
299.32997
299.23913
299.14828
299.05757
298.96713
298.87709
298.78758
298.69874
298.61069
298.52356
298.43747
298.35256
298.26894
298.18674
298.10608
298.0271
297.94991
297.87465
297.80143
297.7304
297.66167
297.59538
297.53164
297.4706
297.41238
297.3571
297.30489
297.25587
297.21016
297.16788
297.12915
297.09407
297.06275
297.03531
297.01186
296.99253
296.97743
296.96673
296.96065
296.95942
296.96325
296.97235
296.98703
297.00747
297.03439
297.06739
297.1091
297.15536
297.21657
297.27393
297.35915
297.40914
297.51956
297.53055
297.65878
297.63192
297.79773
297.88329
309.3405
306.48687
302.29005
300.21374
299.64217
299.6448
299.74626
299.75738
299.75177
299.72584
299.70274
299.66472
299.62186
299.57381
299.522
299.46652
299.40773
299.3459
299.28134
299.21439
299.14531
299.0744
299.00189
298.92803
298.85306
298.77719
298.70064
298.62361
298.54629
298.46889
298.39158
298.31454
298.23796
298.162
298.08684
298.01264
297.93958
297.86781
297.7975
297.72882
297.66191
297.59694
297.53405
297.47342
297.41517
297.35947
297.30646
297.25627
297.20905
297.16494
297.12405
297.08651
297.05244
297.02196
296.99516
296.97216
296.95307
296.93801
296.92708
296.92046
296.91836
296.92099
296.92855
296.94125
296.95938
296.98312
297.01312
297.0491
297.09335
297.14225
297.20497
297.26425
297.34916
297.40064
297.50888
297.52081
297.64748
297.62194
297.79476
297.88014
307.99576
304.42141
301.28463
299.57666
299.24875
299.2904
299.32485
299.29904
299.27071
299.23825
299.20647
299.17158
299.13497
299.09552
299.05391
299.00987
298.96366
298.91525
298.86475
298.81225
298.75786
298.7017
298.6439
298.58459
298.52392
298.46204
298.39911
298.33528
298.27073
298.20563
298.14015
298.07447
298.00877
297.94323
297.87804
297.81338
297.74944
297.6864
297.62444
297.56376
297.50453
297.44694
297.39116
297.33737
297.28574
297.23644
297.18963
297.14547
297.10413
297.06573
297.03043
296.99834
296.9696
296.94432
296.9226
296.90456
296.8903
296.87994
296.87358
296.8714
296.87358
296.88035
296.89189
296.9084
296.93016
296.95735
296.99058
297.02962
297.07655
297.12809
297.19248
297.2534
297.33847
297.39097
297.49793
297.51045
297.6369
297.61215
297.79143
297.87763
306.82606
302.96269
300.11535
298.82444
298.7755
298.79241
298.80976
298.77394
298.75554
298.72668
298.70278
298.6737
298.64442
298.61319
298.58087
298.54694
298.51157
298.47462
298.4361
298.396
298.35435
298.31118
298.26652
298.22044
298.173
298.12429
298.07441
298.02346
297.97157
297.91886
297.86549
297.8116
297.75736
297.70292
297.64848
297.5942
297.54027
297.4869
297.43426
297.38255
297.33198
297.28272
297.23499
297.18897
297.14485
297.10281
297.06304
297.02572
296.991
296.95905
296.93
296.90401
296.8812
296.86168
296.84557
296.83298
296.824
296.81875
296.81734
296.81993
296.82671
296.83789
296.85365
296.87419
296.89976
296.93057
296.96717
297.00938
297.0591
297.1133
297.17948
297.24191
297.32738
297.38065
297.48678
297.4996
297.62616
297.60254
297.78807
297.87567
306.13763
301.74633
299.15377
298.19826
298.27665
298.25161
298.2778
298.24091
298.23395
298.20967
298.1942
298.17228
298.15168
298.12932
298.10639
298.08223
298.05703
298.03063
298.00301
297.97413
297.94398
297.91253
297.87978
297.84575
297.81046
297.77396
297.73628
297.69751
297.65772
297.61699
297.57545
297.53321
297.49041
297.44718
297.40368
297.36009
297.31657
297.27332
297.23051
297.18834
297.14701
297.10673
297.06769
297.0301
296.99415
296.96004
296.92796
296.8981
296.87063
296.84572
296.82352
296.80417
296.78781
296.77455
296.76451
296.75779
296.7545
296.75474
296.75862
296.76629
296.77794
296.79378
296.81397
296.83872
296.86827
296.90283
296.94291
296.98839
297.04099
297.09786
297.16591
297.22981
297.31581
297.36972
297.47544
297.48839
297.61563
297.59317
297.78477
297.8743
305.58839
300.55326
298.35367
297.5965
297.74558
297.69052
297.73649
297.70003
297.70784
297.69021
297.68567
297.67239
297.66147
297.64852
297.63524
297.62086
297.60554
297.58918
297.57175
297.55324
297.53361
297.51285
297.49094
297.46788
297.44368
297.41835
297.39192
297.36443
297.33593
297.30648
297.27617
297.24508
297.21332
297.18101
297.14829
297.1153
297.08219
297.04915
297.01634
296.98395
296.95218
296.92122
296.89127
296.86253
296.83521
296.80951
296.78561
296.76372
296.74399
296.72661
296.71173
296.69949
296.69003
296.68347
296.67991
296.67945
296.68221
296.68826
296.69773
296.71076
296.72754
296.74825
296.77307
296.8022
296.83587
296.8743
296.91797
296.96679
297.02233
297.08188
297.15186
297.21728
297.30383
297.35834
297.46392
297.47693
297.6052
297.58408
297.78166
297.87343
305.02298
299.49632
297.70263
297.04551
297.24263
297.16142
297.22689
297.18864
297.20881
297.1957
297.20011
297.19396
297.19094
297.18565
297.18029
297.17403
297.16702
297.15918
297.15049
297.1409
297.1304
297.11897
297.10656
297.09318
297.07882
297.06347
297.04714
297.02985
297.01164
296.99254
296.97261
296.95192
296.93055
296.90861
296.8862
296.86345
296.84049
296.81749
296.79459
296.77197
296.74982
296.72831
296.70764
296.68801
296.6696
296.65262
296.63725
296.62368
296.61208
296.60262
296.59545
296.59071
296.58852
296.58901
296.59228
296.59842
296.60753
296.6197
296.63502
296.65365
296.67577
296.70156
296.73118
296.76482
296.80274
296.84514
296.89247
296.94468
297.00319
297.06544
297.1374
297.20439
297.29148
297.3466
297.4522
297.46531
297.59495
297.57531
297.77884
297.87298
304.54833
298.54512
297.15081
296.53955
296.77663
296.67007
296.75416