/*--------------------------------*- C++ -*----------------------------------*\
  =========                 |
  \\      /  F ield         | OpenFOAM: The Open Source CFD Toolbox
   \\    /   O peration     | Website:  https://openfoam.org
    \\  /    A nd           | Version:  12
     \\/     M anipulation  |
\*---------------------------------------------------------------------------*/
FoamFile
{
    format      ascii;
    class       volScalarField;
    location    "0.013";
    object      alphat;
}
// * * * * * * * * * * * * * * * * * * * * * * * * * * * * * * * * * * * * * //

dimensions      [1 -1 -1 0 0 0 0];

internalField   nonuniform List<scalar> 
16000
(
5.2197816e-07
1.1291914e-05
1.9691377e-05
2.6499868e-05
2.0531634e-05
2.7257262e-05
2.0317145e-05
2.6659295e-05
2.2471331e-05
2.8900055e-05
2.6003478e-05
2.8699014e-05
2.7045834e-05
2.7237155e-05
2.6591617e-05
2.6397869e-05
2.6216229e-05
2.6196653e-05
2.628579e-05
2.6491311e-05
2.6810198e-05
2.7241159e-05
2.7783549e-05
2.843923e-05
2.9212429e-05
3.0112502e-05
3.1151833e-05
3.2348663e-05
3.3724517e-05
3.5302834e-05
3.7110801e-05
3.9184353e-05
4.156938e-05
4.4322585e-05
4.7513789e-05
5.1227108e-05
5.5563964e-05
6.064748e-05
6.6631482e-05
7.3706219e-05
8.2097753e-05
9.2077729e-05
0.00010398674
0.00011823799
0.00013532066
0.00015581709
0.00018043047
0.0002099875
0.00024544628
0.00028789788
0.00033855654
0.00039872628
0.00046972944
0.00055279941
0.00064893733
0.00075884948
0.00088312203
0.0010226708
0.0011779516
0.001196148
0.0011973675
0.0011984496
0.0011993409
0.0012001968
0.0012010974
0.0012019866
0.0012028548
0.00120372
0.0012045953
0.00120545
0.001206127
0.0012060727
0.0012049389
0.0012034366
0.0012028278
0.0012013504
0.0011990311
0.0011933535
0.0011906795
0.0011803714
4.7838407e-07
1.0705108e-05
2.199243e-05
2.3862643e-05
1.8503765e-05
2.4449123e-05
1.803918e-05
2.3562204e-05
1.9779171e-05
2.5689292e-05
2.3435123e-05
2.5893797e-05
2.4654491e-05
2.4667603e-05
2.4161834e-05
2.3937812e-05
2.3783521e-05
2.3756305e-05
2.3836318e-05
2.4020652e-05
2.4309905e-05
2.4702514e-05
2.5198428e-05
2.5799676e-05
2.6509759e-05
2.7337283e-05
2.8293164e-05
2.9394076e-05
3.0660537e-05
3.2115178e-05
3.3783221e-05
3.5697816e-05
3.7901763e-05
4.0448167e-05
4.3403023e-05
4.6846506e-05
5.0875879e-05
5.5608944e-05
6.1192779e-05
6.7812998e-05
7.5693356e-05
8.5100808e-05
9.6373213e-05
0.00010992868
0.0001262694
0.00014599655
0.0001698479
0.00019870727
0.00023361905
0.00027579802
0.00032663001
0.00038764904
0.00046046667
0.00054665472
0.00064754666
0.00076403692
0.00089654552
0.0010453481
0.001194742
0.0011958382
0.0011968883
0.0011978787
0.0011986857
0.0011994164
0.001200226
0.0012010693
0.0012019374
0.0012028509
0.0012038225
0.0012048043
0.0012056718
0.001206057
0.0012053365
0.0012038691
0.0012029362
0.0012011503
0.001197928
0.001193381
0.0011899858
0.0011792935
4.2791134e-07
1.02479e-05
2.0419258e-05
2.1731491e-05
1.6575632e-05
2.1536305e-05
1.6049795e-05
2.0489868e-05
1.7815299e-05
2.2586754e-05
2.1372883e-05
2.3072691e-05
2.227792e-05
2.2093878e-05
2.1705752e-05
2.1476986e-05
2.1347305e-05
2.1323068e-05
2.1399094e-05
2.1569057e-05
2.1834566e-05
2.2194307e-05
2.2648419e-05
2.3199242e-05
2.3849727e-05
2.4607811e-05
2.5483221e-05
2.6491037e-05
2.7650408e-05
2.8983065e-05
3.0512527e-05
3.2269249e-05
3.4292918e-05
3.663279e-05
3.9350528e-05
4.2521397e-05
4.623746e-05
5.0610175e-05
5.5777819e-05
6.1916767e-05
6.9243995e-05
7.8016363e-05
8.8559995e-05
0.00010128466
0.00011669121
0.00013538206
0.0001581082
0.00018578837
0.00021953497
0.00026068106
0.00031080606
0.00037175005
0.00044558321
0.00053453166
0.00064079133
0.00076624055
0.00091215346
0.0010790169
0.0011951075
0.0011959278
0.0011967381
0.00119756
0.0011982291
0.0011987764
0.00119942
0.0012001377
0.0012009303
0.0012018251
0.0012028423
0.001203922
0.0012049481
0.0012057021
0.0012055033
0.0012042571
0.0012031125
0.0012008442
0.0011972015
0.0011935745
0.0011895738
0.0011781588
3.84404e-07
9.9084752e-06
2.012922e-05
1.9795871e-05
1.4876834e-05
1.9009503e-05
1.4287545e-05
1.7927998e-05
1.6049444e-05
1.9957838e-05
1.9465345e-05
2.0581798e-05
2.007812e-05
1.9776288e-05
1.946888e-05
1.9252771e-05
1.9144682e-05
1.9128076e-05
1.9203632e-05
1.9363673e-05
1.9610106e-05
1.9942081e-05
2.0359803e-05
2.0865968e-05
2.1463205e-05
2.2158961e-05
2.2962077e-05
2.388629e-05
2.4949448e-05
2.6172549e-05
2.7577817e-05
2.919335e-05
3.1056171e-05
3.3212142e-05
3.571912e-05
3.8647955e-05
4.2086029e-05
4.6139447e-05
5.0938843e-05
5.6651354e-05
6.3487881e-05
7.1696378e-05
8.159166e-05
9.3573409e-05
0.00010813973
0.00012589071
0.00014758292
0.0001741573
0.00020677392
0.0002468541
0.00029612653
0.00035668113
0.00043098497
0.00052187883
0.00063247195
0.00076590797
0.00092499973
0.0011117022
0.0011959412
0.0011964834
0.0011969692
0.0011975629
0.0011980436
0.0011983591
0.0011987579
0.0011992635
0.001199892
0.0012006831
0.0012016673
0.0012027832
0.0012039288
0.0012049583
0.0012052169
0.0012044423
0.001203127
0.0012004334
0.0011968139
0.0011935567
0.0011894673
0.0011770455
3.4375037e-07
9.6481997e-06
1.9179361e-05
1.93789e-05
1.4411205e-05
1.678885e-05
1.2746227e-05
1.5729393e-05
1.4533412e-05
1.7674369e-05
1.7746735e-05
1.8337751e-05
1.8034025e-05
1.7668981e-05
1.7420463e-05
1.72277e-05
1.7138993e-05
1.7131246e-05
1.7206737e-05
1.735785e-05
1.7586416e-05
1.7892453e-05
1.8276197e-05
1.8740828e-05
1.9288734e-05
1.9927193e-05
2.0664307e-05
2.1512665e-05
2.2488793e-05
2.3612964e-05
2.4906381e-05
2.6395047e-05
2.8113604e-05
3.0104811e-05
3.2423004e-05
3.5134856e-05
3.8323153e-05
4.2089016e-05
4.6556182e-05
5.1881811e-05
5.8270011e-05
6.5959582e-05
7.5252871e-05
8.6535137e-05
0.0001002967
0.00011712806
0.00013777894
0.00016319402
0.00019455442
0.00023333337
0.00028135815
0.00034090436
0.00041476165
0.00050631859
0.00061958972
0.00075916208
0.00093000495
0.0011369973
0.0011971652
0.00119738
0.0011975793
0.0011978901
0.0011981403
0.0011981977
0.0011982878
0.0011985047
0.0011988848
0.0011994851
0.0012003479
0.0012014198
0.0012026292
0.0012038577
0.0012045662
0.0012041089
0.0012027636
0.0011999047
0.0011963426
0.0011931085
0.0011895595
0.0011758819
3.1217288e-07
9.4894963e-06
1.8406298e-05
1.8878418e-05
1.4382732e-05
1.4876388e-05
1.1753817e-05
1.3916154e-05
1.3252784e-05
1.5726977e-05
1.621435e-05
1.6366085e-05
1.6180116e-05
1.5794147e-05
1.5581573e-05
1.5411114e-05
1.533487e-05
1.5331793e-05
1.5404002e-05
1.5544698e-05
1.5755239e-05
1.6036726e-05
1.638913e-05
1.6816185e-05
1.7319658e-05
1.7907258e-05
1.8586267e-05
1.9368311e-05
2.0268619e-05
2.1306752e-05
2.2503193e-05
2.3882171e-05
2.5476333e-05
2.7325764e-05
2.948178e-05
3.2007401e-05
3.4981303e-05
3.8500282e-05
4.2682713e-05
4.7676438e-05
5.3678746e-05
6.0920595e-05
6.9693493e-05
8.0366941e-05
9.3422266e-05
0.00010943848
0.00012915275
0.00015350325
0.00018367441
0.00022116398
0.00026785231
0.00032613029
0.00039900499
0.00049026341
0.00060463686
0.00074798388
0.00092746146
0.0011515654
0.0011987556
0.0011986905
0.0011985583
0.001198551
0.0011985323
0.0011983195
0.0011980614
0.0011979316
0.0011979921
0.0011983202
0.0011989684
0.0011999089
0.001201117
0.0012024762
0.0012033549
0.0012031492
0.0012018965
0.0011989679
0.0011953594
0.0011926063
0.0011888895
0.0011739862
2.8805012e-07
9.4033706e-06
1.7818941e-05
1.7816809e-05
1.4240492e-05
1.318158e-05
1.2130204e-05
1.283663e-05
1.2692931e-05
1.4083084e-05
1.4833569e-05
1.4628866e-05
1.4485909e-05
1.4106143e-05
1.3911431e-05
1.3759603e-05
1.3691775e-05
1.3691756e-05
1.3760434e-05
1.3892197e-05
1.4087375e-05
1.43483e-05
1.4674305e-05
1.4982986e-05
1.5438573e-05
1.5973501e-05
1.6594386e-05
1.7311709e-05
1.8139153e-05
1.9095226e-05
2.0199752e-05
2.1475286e-05
2.2952621e-05
2.4669289e-05
2.6673782e-05
2.9025692e-05
3.1799744e-05
3.5088471e-05
3.9005868e-05
4.4018999e-05
4.9699098e-05
5.6566353e-05
6.4903846e-05
7.5065252e-05
8.7521867e-05
0.00010284094
0.00012174382
0.00014515461
0.00017424639
0.00021051816
0.00025586144
0.00031271214
0.00038417935
0.00047426226
0.00058811648
0.00073243868
0.00091601704
0.0011504778
0.001200695
0.0012003521
0.0011998932
0.0011995508
0.001199234
0.0011987491
0.0011981325
0.0011976229
0.0011973146
0.0011972991
0.0011976515
0.0011983797
0.0011995016
0.001200917
0.001201871
0.0012018126
0.0012005488
0.0011974831
0.0011938285
0.0011913864
0.0011872236
0.0011712418
2.5921313e-07
9.3586843e-06
1.7319744e-05
1.6290501e-05
1.3288839e-05
1.1525269e-05
1.069149e-05
1.1540048e-05
1.1351632e-05
1.2662618e-05
1.3461632e-05
1.3038499e-05
1.2890014e-05
1.254427e-05
1.2365682e-05
1.2235305e-05
1.2179112e-05
1.2185846e-05
1.218311e-05
1.2292678e-05
1.2464477e-05
1.2699729e-05
1.2998433e-05
1.3359425e-05
1.378927e-05
1.4292709e-05
1.4876219e-05
1.5549928e-05
1.6326616e-05
1.7224122e-05
1.8262222e-05
1.9462412e-05
2.0854333e-05
2.2473718e-05
2.4367147e-05
2.6591765e-05
2.9219508e-05
3.2339773e-05
3.6063689e-05
4.0529807e-05
4.5911353e-05
5.2430813e-05
6.0364733e-05
7.0640658e-05
8.2618132e-05
9.737577e-05
0.00011561866
0.00013825254
0.00016642886
0.00020163069
0.00024572613
0.00030113328
0.000370952
0.0004591981
0.00057110903
0.00071362099
0.00089612962
0.0011317037
0.0012029511
0.0012023429
0.0012015705
0.0012008959
0.0012002693
0.0011995261
0.0011985725
0.0011976754
0.0011969641
0.0011965495
0.0011965578
0.0011969768
0.0011979299
0.0011993074
0.0012001226
0.0011999941
0.001198537
0.0011951769
0.001191346
0.0011889758
0.0011838548
0.0011680332
2.3584144e-07
9.3232412e-06
1.6811261e-05
1.4386372e-05
1.0973108e-05
1.0239248e-05
8.7184632e-06
9.8112608e-06
1.0583902e-05
1.1386636e-05
1.2083045e-05
1.1554513e-05
1.1393898e-05
1.1097845e-05
1.0940228e-05
1.076049e-05
1.0691747e-05
1.0691482e-05
1.0752392e-05
1.0871997e-05
1.1046077e-05
1.1278503e-05
1.1566789e-05
1.1913086e-05
1.2322772e-05
1.2801365e-05
1.3355309e-05
1.3994561e-05
1.473121e-05
1.5582425e-05
1.6568137e-05
1.770915e-05
1.9034383e-05
2.0578189e-05
2.238577e-05
2.4512494e-05
2.7028236e-05
3.0020094e-05
3.3596388e-05
3.7892051e-05
4.3077095e-05
4.9367252e-05
5.7036487e-05
6.6418004e-05
7.7946004e-05
9.2172968e-05
0.0001107558
0.00013278372
0.00016022307
0.00019452665
0.00023751012
0.00029151862
0.00035954191
0.00044543117
0.00055417723
0.0006923522
0.00086884157
0.0010960645
0.0012054955
0.0012046457
0.0012035821
0.0012025955
0.0012016654
0.0012006905
0.0011994429
0.0011981783
0.001197051
0.001196226
0.0011958191
0.0011958124
0.0011965193
0.0011977301
0.0011981249
0.0011976526
0.0011956864
0.0011917872
0.0011876962
0.0011851365
0.0011787174
0.0011628706
2.1744413e-07
9.2869933e-06
1.5076914e-05
1.2665537e-05
8.8686783e-06
9.0810823e-06
7.6884736e-06
8.8851291e-06
9.7648617e-06
1.0187242e-05
1.0748929e-05
1.0199201e-05
1.002645e-05
9.6865295e-06
9.5154236e-06
9.4119196e-06
9.3772842e-06
9.4018261e-06
9.47963e-06
9.6088363e-06
9.7872802e-06
1.0016365e-05
1.0298246e-05
1.0633655e-05
1.1028388e-05
1.1488379e-05
1.2020134e-05
1.2633633e-05
1.3340472e-05
1.4157174e-05
1.5103958e-05
1.6201367e-05
1.7477961e-05
1.8967103e-05
2.0713106e-05
2.2770168e-05
2.5206765e-05
2.8108516e-05
3.1582252e-05
3.5760908e-05
4.0811355e-05
4.6944612e-05
5.4432732e-05
6.3601127e-05
7.4876196e-05
8.8799418e-05
0.0001060546
0.00012748309
0.00015558421
0.0001891694
0.00023119699
0.00028389418
0.00035006055
0.00043324133
0.00053793337
0.00066990285
0.000836728
0.001048717
0.0012083127
0.0012072526
0.0012059298
0.0012046653
0.0012034478
0.0012022692
0.0012008826
0.0011993483
0.001197841
0.0011965331
0.0011955555
0.0011951068
0.0011952919
0.001196173
0.0011958564
0.0011947252
0.001191911
0.0011872237
0.0011828506
0.0011800903
0.0011724555
0.0011574414
2.0016856e-07
9.2469375e-06
1.201014e-05
1.0863537e-05
7.2402217e-06
8.1013712e-06
7.010215e-06
7.9998036e-06
9.0860169e-06
9.1007223e-06
9.4759538e-06
8.8736524e-06
8.6379299e-06
8.4074994e-06
8.2841217e-06
8.221063e-06
8.2157016e-06
8.2614763e-06
8.353972e-06
8.4921937e-06
8.6747636e-06
8.9040723e-06
9.1823761e-06
9.5111021e-06
9.89604e-06
1.0343571e-05
1.0860423e-05
1.1456706e-05
1.2143785e-05
1.2937606e-05
1.3788911e-05
1.4845723e-05
1.6077707e-05
1.7517239e-05
1.920777e-05
2.1202422e-05
2.3568384e-05
2.6389892e-05
2.9772475e-05
3.3847424e-05
3.8779643e-05
4.5127845e-05
5.2514945e-05
6.1565403e-05
7.2697246e-05
8.6440618e-05
0.00010347094
0.00012460966
0.00015091078
0.00018370843
0.00022671769
0.00027822856
0.00034257043
0.00042290238
0.00052310582
0.00064795869
0.00080346528
0.00099745157
0.0012113922
0.001210161
0.0012086179
0.001207118
0.0012056364
0.0012041933
0.0012027447
0.0012010563
0.0011992555
0.0011975311
0.001196031
0.0011949525
0.0011945393
0.0011945395
0.0011932881
0.0011912449
0.0011873724
0.00118182
0.0011772629
0.0011744656
0.001166108
0.0011530766
1.8510968e-07
9.2074673e-06
9.4570599e-06
9.1636665e-06
6.3437378e-06
7.2084242e-06
6.4596704e-06
7.2304055e-06
8.386622e-06
8.0896078e-06
8.1298663e-06
7.6444672e-06
7.4503296e-06
7.2853405e-06
7.2028838e-06
7.1733497e-06
7.1930573e-06
7.2576227e-06
7.3636868e-06
7.5114019e-06
7.6997756e-06
7.9313939e-06
8.2095216e-06
8.5359501e-06
8.916507e-06
9.3188221e-06
9.819785e-06
1.0398906e-05
1.1067234e-05
1.1840027e-05
1.2735824e-05
1.3778495e-05
1.4995244e-05
1.6418084e-05
1.8090344e-05
2.0064989e-05
2.2409042e-05
2.5206571e-05
2.8563372e-05
3.2610893e-05
3.751433e-05
4.3483052e-05
5.0778266e-05
5.9721602e-05
7.0723512e-05
8.5036066e-05
0.00010197794
0.00012297909
0.00014905117
0.00018147338
0.00022180977
0.00027452809
0.00033721115
0.00041483093
0.00051066286
0.00062856074
0.00077313993
0.00095018684
0.001167354
0.0012133651
0.0012116442
0.0012099513
0.0012082527
0.0012065587
0.001204881
0.0012031154
0.0012010998
0.0011990186
0.0011970255
0.0011953109
0.0011939901
0.0011925474
0.0011904603
0.0011874322
0.0011825649
0.0011763712
0.001171902
0.0011690858
0.001160785
0.001150368
1.7171906e-07
9.1635131e-06
7.517611e-06
8.0668925e-06
5.6574453e-06
6.4110539e-06
5.9833513e-06
6.5447396e-06
7.5726818e-06
6.9478014e-06
6.9306064e-06
6.5689152e-06
6.4151205e-06
6.302227e-06
6.2549808e-06
6.2543076e-06
6.2964e-06
6.3786735e-06
6.4984032e-06
6.6564967e-06
6.8527306e-06
7.0897732e-06
7.3412682e-06
7.6631293e-06
8.0384827e-06
8.4729293e-06
8.9754026e-06
9.5555281e-06
1.0224476e-05
1.0997612e-05
1.1893487e-05
1.2935617e-05
1.4152484e-05
1.5576107e-05
1.7250013e-05
1.9227486e-05
2.1576054e-05
2.4380246e-05
2.7747031e-05
3.1809264e-05
3.6732611e-05
4.2726185e-05
5.0055972e-05
5.9041055e-05
7.0088879e-05
8.371293e-05
0.00010055747
0.00012141134
0.00014854832
0.00018079314
0.00022073663
0.00027014075
0.00033424414
0.00040960889
0.00050175138
0.00061381822
0.00074943835
0.00091307247
0.0011106382
0.0012168481
0.0012149893
0.0012131342
0.0012112437
0.0012093168
0.0012073528
0.0012053323
0.0012031304
0.0012006729
0.001198129
0.0011956383
0.0011932368
0.0011904985
0.0011875531
0.0011837319
0.0011782641
0.0011718824
0.0011680846
0.0011651256
0.0011572089
0.0011497014
1.5983206e-07
9.1060728e-06
6.0322497e-06
7.0691414e-06
5.0579122e-06
5.7004814e-06
5.5768536e-06
5.8422906e-06
6.5886209e-06
5.9591773e-06
5.8846737e-06
5.6267211e-06
5.51222e-06
5.4425255e-06
5.426791e-06
5.4523335e-06
5.5156701e-06
5.6154093e-06
5.7496557e-06
5.8984603e-06
6.0982049e-06
6.338584e-06
6.6226186e-06
6.9542199e-06
7.338816e-06
7.7823472e-06
8.2936405e-06
8.8830129e-06
9.5617805e-06
1.0345385e-05
1.1252385e-05
1.2306416e-05
1.3475702e-05
1.490179e-05
1.6578909e-05
1.8560614e-05
2.0915164e-05
2.3727554e-05
2.7105932e-05
3.1185106e-05
3.6132288e-05
4.2477265e-05
4.9906803e-05
5.9011773e-05
7.0197476e-05
8.3970251e-05
0.00010097223
0.00012198128
0.00014794583
0.00018167755
0.00022152072
0.00027055766
0.00033068555
0.00040794776
0.00049758186
0.00060566381
0.0007352623
0.00089016324
0.0010755337
0.0012205723
0.0012186038
0.0012165998
0.0012145189
0.0012123482
0.0012100725
0.0012076518
0.0012050267
0.0012021378
0.0011989453
0.0011955107
0.0011920038
0.001188545
0.0011849579
0.0011807442
0.0011752699
0.0011691099
0.0011662683
0.0011629227
0.0011558538
0.0011509525
1.4932535e-07
9.0002896e-06
4.9009684e-06
6.181206e-06
4.5228069e-06
5.0655362e-06
5.2170931e-06
5.0742568e-06
5.6237812e-06
5.0779022e-06
4.9793873e-06
4.804259e-06
4.7282121e-06
4.6959603e-06
4.7092881e-06
4.7594449e-06
4.8435497e-06
4.9421732e-06
5.08572e-06
5.2650764e-06
5.4815958e-06
5.737443e-06
6.0363926e-06
6.3825536e-06
6.7819819e-06
7.2408422e-06
7.7679898e-06
8.3495377e-06
9.0394326e-06
9.8345701e-06
1.0753409e-05
1.1819425e-05
1.3061453e-05
1.4515756e-05
1.6225965e-05
1.8246654e-05
2.0648122e-05
2.3517148e-05
2.6964319e-05
3.1128427e-05
3.61805e-05
4.2336977e-05
4.9862114e-05
5.9084041e-05
7.0409337e-05
8.5049835e-05
0.0001023471
0.00012367902
0.00014998243
0.00018238418
0.00022431176
0.0002734944
0.00033355128
0.00040650096
0.00049931575
0.00060572631
0.00073271613
0.00088386934
0.0010641953
0.0012244706
0.0012224001
0.0012202374
0.0012179415
0.001215488
0.0012128532
0.0012099859
0.0012068113
0.0012032596
0.0011993314
0.0011951656
0.0011910162
0.0011870653
0.0011832004
0.0011790345
0.0011741378
0.0011686794
0.0011660992
0.0011622033
0.0011566424
0.0011540182
1.4008579e-07
8.6841802e-06
4.1198296e-06
5.3918047e-06
4.0472555e-06
4.5009577e-06
4.639469e-06
4.3784569e-06
4.7168048e-06
4.2982447e-06
4.2033168e-06
4.0934816e-06
4.0542856e-06
4.0553411e-06
4.0956883e-06
4.1545314e-06
4.2520152e-06
4.3836889e-06
4.548964e-06
4.7484659e-06
4.9842304e-06
5.2589719e-06
5.5769291e-06
5.9424902e-06
6.3480783e-06
6.8235187e-06
7.3676283e-06
7.9906141e-06
8.7052838e-06
9.5269365e-06
1.0474343e-05
1.1571722e-05
1.2848803e-05
1.4342922e-05
1.610012e-05
1.8176281e-05
2.0644533e-05
2.3594434e-05
2.7139445e-05
3.1423948e-05
3.6622265e-05
4.2956647e-05
5.0700496e-05
6.0186538e-05
7.1830295e-05
8.6142802e-05
0.0001046752
0.00012652567
0.00015341771
0.00018648708
0.0002270487
0.0002792931
0.00034018659
0.00041400876
0.00050296603
0.0006152873
0.00074319881
0.00089531918
0.0010765404
0.0012284416
0.0012262517
0.0012238963
0.0012213372
0.0012185449
0.0012155004
0.0012121574
0.0012084427
0.0012042955
0.0011997605
0.0011950707
0.0011905863
0.0011865418
0.0011828144
0.001179018
0.0011748389
0.0011710845
0.0011677698
0.0011633838
0.0011596535
0.0011588243
1.3218269e-07
8.2466981e-06
3.6287005e-06
4.6901601e-06
3.6241397e-06
3.8315655e-06
4.1216978e-06
3.7413708e-06
3.9095763e-06
3.6202723e-06
3.5462156e-06
3.4878775e-06
3.4827413e-06
3.5138713e-06
3.562246e-06
3.6534039e-06
3.7774157e-06
3.9332163e-06
4.1212134e-06
4.34282e-06
4.6006584e-06
4.897716e-06
5.2288773e-06
5.6148543e-06
6.0550039e-06
6.5564057e-06
7.1275873e-06
7.779027e-06
8.5237226e-06
9.3778029e-06
1.0360463e-05
1.1496766e-05
1.281754e-05
1.4361682e-05
1.6108346e-05
1.8236915e-05
2.0768603e-05
2.3796553e-05
2.7603044e-05
3.204286e-05
3.7431131e-05
4.3996314e-05
5.202347e-05
6.1854643e-05
7.3916029e-05
8.8735612e-05
0.00010695991
0.00012937624
0.0001583376
0.00019247086
0.00023431447
0.00028547311
0.00035108319
0.00042721933
0.00051900567
0.00063513143
0.00076717026
0.00092385182
0.001109007
0.0012323514
0.0012300029
0.001227402
0.001224518
0.0012213294
0.0012178454
0.0012140497
0.0012098885
0.0012053149
0.0012004235
0.0011955471
0.00119113
0.0011873963
0.00118415
0.0011810236
0.0011777591
0.0011746493
0.0011709022
0.0011667397
0.0011645827
0.0011651935
1.2596657e-07
7.0769345e-06
3.2093189e-06
4.0473067e-06
3.2613205e-06
3.210454e-06
3.6032813e-06
3.1651901e-06
3.2221576e-06
3.0406495e-06
2.9957214e-06
2.979267e-06
2.9967455e-06
3.0473481e-06
3.1346559e-06
3.2542318e-06
3.4042167e-06
3.5846691e-06
3.7968142e-06
4.0425214e-06
4.3187276e-06
4.6386389e-06
5.0025989e-06
5.4156219e-06
5.8836976e-06
6.4140913e-06
7.0156521e-06
7.6991914e-06
8.4780396e-06
9.348499e-06
1.0364851e-05
1.1537817e-05
1.2899299e-05
1.4489374e-05
1.6358347e-05
1.8569397e-05
2.1201132e-05
2.4352447e-05
2.8146562e-05
3.2736189e-05
3.8311111e-05
4.5430813e-05
5.3808233e-05
6.4071168e-05
7.6661532e-05
9.2129522e-05
0.0001111507
0.00013455054
0.00016482971
0.00020047579
0.00024421238
0.00029774685
0.00036657806
0.00044647987
0.00054291269
0.00065843104
0.00080307089
0.00096493468
0.0011509834
0.001236044
0.001233486
0.0012305789
0.0012273128
0.0012236949
0.0012197905
0.0012156381
0.0012112152
0.0012064906
0.0012015982
0.0011969343
0.0011929694
0.0011898556
0.001187297
0.0011848978
0.0011823989
0.0011793978
0.001175824
0.0011719473
0.0011711437
0.0011728359
1.2112678e-07
5.0353652e-06
2.8362421e-06
3.446603e-06
2.801227e-06
2.6883667e-06
3.0621233e-06
2.6526761e-06
2.6514338e-06
2.5520925e-06
2.5403015e-06
2.5521126e-06
2.6010072e-06
2.6862822e-06
2.8035776e-06
2.9504001e-06
3.126205e-06
3.3317827e-06
3.5656632e-06
3.8351535e-06
4.1416054e-06
4.4885386e-06
4.8802234e-06
5.3218387e-06
5.8196288e-06
6.3811271e-06
7.0154965e-06
7.7224279e-06
8.5342375e-06
9.4601242e-06
1.0521464e-05
1.1744889e-05
1.3164065e-05
1.482141e-05
1.677031e-05
1.9077633e-05
2.1826941e-05
2.5122678e-05
2.9095129e-05
3.3906129e-05
3.9756142e-05
4.6892434e-05
5.603601e-05
6.6821306e-05
8.005932e-05
9.6331136e-05
0.00011635216
0.00014100086
0.00017135074
0.00021057787
0.00025683132
0.00031355186
0.00038285821
0.00047144101
0.000573614
0.00069513876
0.00084497409
0.0010066962
0.0011818503
0.0012393613
0.0012365455
0.0012332843
0.0012296111
0.0012255887
0.0012213604
0.0012170242
0.0012125854
0.0012080313
0.001203529
0.0011994672
0.0011962329
0.0011938594
0.0011919812
0.0011902038
0.0011881914
0.0011854027
0.0011818213
0.0011785793
0.0011790049
0.0011812937
1.1592981e-07
4.185731e-06
2.4438317e-06
2.9016381e-06
2.4234215e-06
2.2473045e-06
2.5134828e-06
2.2031005e-06
2.1871483e-06
2.1503941e-06
2.1678015e-06
2.2148838e-06
2.300292e-06
2.4168016e-06
2.5618653e-06
2.7346037e-06
2.9354468e-06
3.1634883e-06
3.4245237e-06
3.7199692e-06
4.0529307e-06
4.4271615e-06
4.8471499e-06
5.3182581e-06
5.8469342e-06
6.4409765e-06
7.1020742e-06
7.8540852e-06
8.7061358e-06
9.6761056e-06
1.078653e-05
1.2065632e-05
1.3549052e-05
1.5281806e-05
1.7320842e-05
1.9737809e-05
2.2622084e-05
2.6084834e-05
3.0264457e-05
3.533206e-05
4.1499999e-05
4.9386679e-05
5.8683142e-05
7.0083226e-05
8.4089819e-05
0.00010132299
0.00012254832
0.00014870881
0.00018263877
0.00022270161
0.00027199863
0.00033249571
0.0004063388
0.00050030064
0.00060745243
0.00073204461
0.00088002738
0.0010292683
0.0011782208
0.0012421646
0.0012390668
0.0012354463
0.0012314106
0.0012271006
0.0012227363
0.0012184494
0.0012142496
0.0012101564
0.0012063658
0.0012032109
0.0012008398
0.0011991599
0.0011978453
0.0011965694
0.0011949211
0.0011922492
0.0011886275
0.0011861757
0.0011878932
0.0011902992
1.1242916e-07
3.3740193e-06
2.1091453e-06
2.3550553e-06
2.1059294e-06
1.8658464e-06
2.0121593e-06
1.8219566e-06
1.8219545e-06
1.8354163e-06
1.8834038e-06
1.9691036e-06
2.0859427e-06
2.2298923e-06
2.3999996e-06
2.5966008e-06
2.8196763e-06
3.073037e-06
3.3586095e-06
3.6792238e-06
4.0382631e-06
4.439688e-06
4.8881484e-06
5.3891611e-06
5.9493581e-06
6.5723589e-06
7.2746385e-06
8.0654534e-06
8.9597668e-06
9.9764031e-06
1.1139317e-05
1.2478559e-05
1.403215e-05
1.5848127e-05
1.7987286e-05
2.0526484e-05
2.3562127e-05
2.7212896e-05
3.1626917e-05
3.6986516e-05
4.3804885e-05
5.1852641e-05
6.171104e-05
7.3815537e-05
8.8704397e-05
0.00010704435
0.00012965785
0.00015755868
0.0001937174
0.00023648236
0.0002890624
0.00035336822
0.000431233
0.00052877816
0.0006368166
0.00075669358
0.00089076866
0.0010152209
0.001133873
0.0012443599
0.0012410031
0.0012370928
0.0012328377
0.0012284596
0.0012242222
0.0012202387
0.0012164961
0.0012130736
0.0012101721
0.0012080463
0.0012065282
0.0012053908
0.0012044819
0.0012035662
0.0012021607
0.0011995441
0.0011960468
0.0011944626
0.0011973464
0.0011995746
1.1091151e-07
2.6615998e-06
1.8187178e-06
1.8244222e-06
1.8107735e-06
1.5389812e-06
1.6059208e-06
1.5181464e-06
1.5494755e-06
1.5990926e-06
1.6864171e-06
1.8032087e-06
1.9460422e-06
2.1133582e-06
2.3055086e-06
2.5237272e-06
2.769037e-06
3.045068e-06
3.3540283e-06
3.6990085e-06
4.0835645e-06
4.5118073e-06
4.9885272e-06
5.5193896e-06
6.1111985e-06
6.7722579e-06
7.5128374e-06
8.3457389e-06
9.2763953e-06
1.0341602e-05
1.1559606e-05
1.2962579e-05
1.4591333e-05
1.6497489e-05
1.8746141e-05
2.1506573e-05
2.4732225e-05
2.8618467e-05
3.3324978e-05
3.9048689e-05
4.6032786e-05
5.4578225e-05
6.5059917e-05
7.7943413e-05
9.380601e-05
0.00011336141
0.00013748666
0.00016871526
0.00020567781
0.00025110534
0.00030662006
0.00037372288
0.00045759704
0.00054979274
0.00065112278
0.00075616353
0.00086708422
0.00096606229
0.0010667863
0.0011845885
0.0012423849
0.0012383396
0.0012340957
0.0012299358
0.001226114
0.0012226741
0.0012195988
0.0012169152
0.0012149244
0.0012136957
0.0012129154
0.0012121545
0.0012114982
0.001210766
0.0012094529
0.0012069557
0.0012038724
0.0012031165
0.0012068832
0.0012089973
1.1248707e-07
2.0523201e-06
1.5763922e-06
1.415618e-06
1.5086079e-06
1.2648552e-06
1.3089499e-06
1.2952869e-06
1.3599288e-06
1.4448801e-06
1.5613367e-06
1.7021547e-06
1.8660824e-06
2.0532764e-06
2.265008e-06
2.5030781e-06
2.7693089e-06
3.0668217e-06
3.3982378e-06
3.7667848e-06
4.1761313e-06
4.6305029e-06
5.134826e-06
5.6949364e-06
6.3178613e-06
7.0121984e-06
7.7886235e-06
8.6605279e-06
9.6448242e-06
1.0762983e-05
1.2042294e-05
1.3517553e-05
1.5232972e-05
1.724461e-05
1.9623179e-05
2.2457358e-05
2.5857768e-05
2.9962012e-05
3.4940253e-05
4.1003207e-05
4.8411973e-05
5.7489842e-05
6.8635519e-05
8.2345411e-05
9.9230377e-05
0.00012103468
0.00014687185
0.00017866023
0.00021765119
0.0002651701
0.00032238823
0.00039354223
0.00047116473
0.00055573794
0.00064269935
0.00073452515
0.00081650502
0.0009009238
0.0010009185
0.0011370805
0.0012433097
0.0012393418
0.0012353645
0.0012316844
0.001228505
0.0012258181
0.0012237866
0.0012221054
0.0012208009
0.0012200022
0.0012195659
0.0012190566
0.0012185052
0.0012177436
0.0012163549
0.0012141509
0.0012118061
0.0012118499
0.001216172
0.0012179998
1.1835252e-07
1.5531227e-06
1.3790096e-06
1.115414e-06
1.3517363e-06
1.037937e-06
1.1071157e-06
1.1474765e-06
1.2395248e-06
1.3528022e-06
1.4907848e-06
1.6503451e-06
1.8319232e-06
2.0366908e-06
2.2664054e-06
2.5231262e-06
2.8091959e-06
3.1270522e-06
3.4798918e-06
3.8709198e-06
4.3038995e-06
4.7831738e-06
5.3138207e-06
5.9018732e-06
6.5546157e-06
7.2809846e-06
8.0921063e-06
9.0020361e-06
1.0028597e-05
1.1194544e-05
1.2528879e-05
1.4068739e-05
1.5861421e-05
1.7966966e-05
2.0461109e-05
2.343877e-05
2.7018149e-05
3.1345747e-05
3.6602713e-05
4.3013008e-05
5.1201742e-05
6.0893972e-05
7.2796664e-05
8.7433025e-05
0.0001054396
0.00012758327
0.00015476927
0.00018802165
0.00022839727
0.00027938389
0.00033658334
0.00040146803
0.00047172478
0.00054362697
0.00061956383
0.00068722045
0.0007567764
0.00083881241
0.00094995902
0.0011155463
0.0012439239
0.0012402667
0.0012367633
0.0012336862
0.0012312879
0.0012298703
0.0012288387
0.001227902
0.0012270693
0.0012264758
0.0012260905
0.0012256965
0.0012251205
0.001224156
0.0012225702
0.0012209686
0.001219473
0.0012201716
0.0012247153
0.0012262571
1.2915735e-07
1.2360855e-06
1.2083864e-06
9.620951e-07
9.8242141e-07
9.0816183e-07
9.7428642e-07
1.0581165e-06
1.1714041e-06
1.3047644e-06
1.4591216e-06
1.6342687e-06
1.8314709e-06
2.0522933e-06
2.2986383e-06
2.5726314e-06
2.876652e-06
3.2133642e-06
3.5857666e-06
3.9972602e-06
4.4517368e-06
4.9537041e-06
5.5084519e-06
6.1222885e-06
6.8028626e-06
7.5569293e-06
8.4000362e-06
9.3452326e-06
1.042055e-05
1.1635617e-05
1.3027663e-05
1.4636456e-05
1.6512644e-05
1.8720452e-05
2.1340764e-05
2.447473e-05
2.8248109e-05
3.2816685e-05
3.8373108e-05
4.5155512e-05
5.345798e-05
6.3642619e-05
7.6152249e-05
9.1520508e-05
0.0001103858
0.00013349235
0.000163115
0.00019749018
0.00023853966
0.00028651964
0.00034079002
0.00039944045
0.0004594367
0.00052273018
0.00057894921
0.00063588184
0.00070145692
0.00078837867
0.00091553165
0.0011134906
0.0012443944
0.0012412586
0.001238412
0.0012360184
0.0012347367
0.0012341643
0.0012338399
0.0012333957
0.0012329349
0.0012325212
0.0012321219
0.0012316834
0.0012310015
0.0012298444
0.0012284406
0.0012272942
0.0012264538
0.0012276336
0.0012320925
0.0012335544
1.5152961e-07
1.2918087e-06
1.0390087e-06
7.3945388e-07
8.0268683e-07
8.1229324e-07
9.0069101e-07
1.008002e-06
1.138175e-06
1.2868208e-06
1.4551752e-06
1.6441795e-06
1.8553777e-06
2.090449e-06
2.351327e-06
2.6401718e-06
2.9594076e-06
3.3117637e-06
3.7003236e-06
4.1285926e-06
4.6005826e-06
5.1209362e-06
5.6950944e-06
6.329537e-06
7.0321164e-06
7.8125154e-06
8.6828599e-06
9.6585202e-06
1.0759157e-05
1.2010011e-05
1.3443509e-05
1.510127e-05
1.7036388e-05
1.9316177e-05
2.2025298e-05
2.5269462e-05
2.9179975e-05
3.3919429e-05
3.9688966e-05
4.673708e-05
5.536976e-05
6.6434571e-05
7.9536264e-05
9.5598875e-05
0.0001152427
0.00013915576
0.00016804506
0.0002025074
0.00024278887
0.00028843565
0.00033796361
0.00039247674
0.00044244725
0.00048993977
0.00053682945
0.00058870043
0.00065487422
0.00074903432
0.00089194097
0.0011193202
0.0012447738
0.0012421748
0.0012399894
0.0012386693
0.0012381427
0.001238093
0.0012381365
0.0012378856
0.001237708
0.0012374701
0.0012371847
0.00123675
0.0012359885
0.0012349248
0.001233823
0.0012329421
0.001232418
0.0012339135
0.001237801
0.0012393105
1.4456999e-07
8.6206329e-07
8.5021265e-07
6.3089511e-07
6.916426e-07
7.5581379e-07
8.6318196e-07
9.8782092e-07
1.1315349e-06
1.2932838e-06
1.4743686e-06
1.6760232e-06
1.8998183e-06
2.1475042e-06
2.4210619e-06
2.722721e-06
3.05499e-06
3.4206557e-06
3.8229656e-06
4.2655164e-06
4.7524431e-06
5.2885195e-06
5.8793282e-06
6.5315041e-06
7.2530769e-06
8.0539424e-06
8.9464982e-06
9.946486e-06
1.1083054e-05
1.2368318e-05
1.3841987e-05
1.5547364e-05
1.7539629e-05
1.9888644e-05
2.2682125e-05
2.6029455e-05
3.0066393e-05
3.4961108e-05
4.0921823e-05
4.8205647e-05
5.7127364e-05
6.8066606e-05
8.1472581e-05
9.7866062e-05
0.00011782569
0.00014195068
0.00017076924
0.00020635649
0.00024515601
0.0002876528
0.00033189892
0.00037552327
0.00041690866
0.00045661892
0.00049822305
0.00054833774
0.0006167445
0.00071762498
0.00087296383
0.0011211741
0.0012449874
0.0012429849
0.0012414528
0.0012408305
0.0012407342
0.0012410693
0.0012411455
0.0012413021
0.0012413454
0.0012412932
0.0012411488
0.0012408119
0.0012401073
0.0012391411
0.0012382749