/*--------------------------------*- C++ -*----------------------------------*\
  =========                 |
  \\      /  F ield         | OpenFOAM: The Open Source CFD Toolbox
   \\    /   O peration     | Website:  https://openfoam.org
    \\  /    A nd           | Version:  12
     \\/     M anipulation  |
\*---------------------------------------------------------------------------*/
FoamFile
{
    format      ascii;
    class       volScalarField;
    location    "0.013";
    object      Ma;
}
// * * * * * * * * * * * * * * * * * * * * * * * * * * * * * * * * * * * * * //

dimensions      [];

internalField   nonuniform List<scalar> 
16000
(
0.62339172
0.73616412
0.69414169
0.71677136
0.70297616
0.7090996
0.70398281
0.70517503
0.70278881
0.70226957
0.70075825
0.6996487
0.69829581
0.69696646
0.69555848
0.69410452
0.69259417
0.69102994
0.6894114
0.68773927
0.68601431
0.68423765
0.68241066
0.68053498
0.67861258
0.67664565
0.67463678
0.67258881
0.67050501
0.66838891
0.66624444
0.66407584
0.66188767
0.6596848
0.65747235
0.65525567
0.65304032
0.65083196
0.64863634
0.6464592
0.64430621
0.64218283
0.64009424
0.6380452
0.63603991
0.63408185
0.63217365
0.63031691
0.62851207
0.62675825
0.62505312
0.62339285
0.62177213
0.62018429
0.61862151
0.61707513
0.61553602
0.61399543
0.61244617
0.61088396
0.60930825
0.60772311
0.60613864
0.6045713
0.60304115
0.6015738
0.60019272
0.59891489
0.59774312
0.59666262
0.59565233
0.59473771
0.59408701
0.59395515
0.59447048
0.59593468
0.59648874
0.59800547
0.59136548
0.58037446
0.62781753
0.74124302
0.69752956
0.72132607
0.70670735
0.71330699
0.70770702
0.70906294
0.70645368
0.70589039
0.70427716
0.70306054
0.70161471
0.70017485
0.69866027
0.69709283
0.69546639
0.69378196
0.6920396
0.69024
0.68838414
0.68647343
0.68450954
0.68249456
0.68043087
0.67832126
0.67616887
0.67397722
0.67175022
0.66949219
0.66720782
0.66490217
0.66258064
0.66024893
0.65791301
0.65557908
0.65325346
0.65094258
0.64865285
0.64639064
0.64416211
0.64197318
0.63982936
0.63773566
0.63569646
0.63371537
0.63179508
0.62993727
0.62814241
0.6264097
0.62473687
0.62312013
0.62155416
0.62003218
0.61854602
0.61708626
0.61564248
0.61420391
0.61276036
0.61130343
0.60982745
0.60833056
0.60681658
0.60529612
0.60378573
0.60230706
0.60088379
0.59953358
0.59826222
0.59706133
0.59592365
0.59491235
0.59425003
0.59420736
0.59503898
0.59652287
0.59752892
0.5982478
0.59092079
0.57943435
0.63194437
0.74591287
0.70097917
0.72529612
0.71024131
0.71693427
0.71117863
0.71242194
0.70975366
0.70903713
0.70735205
0.70600127
0.70445025
0.70288578
0.70124838
0.69955208
0.69779312
0.69597205
0.69408915
0.69214536
0.69014196
0.68808071
0.68596376
0.6837937
0.68157352
0.67930663
0.6769969
0.67464861
0.67226652
0.66985582
0.66742211
0.66497141
0.6625101
0.66004486
0.65758264
0.65513056
0.65269584
0.6502857
0.64790728
0.64556755
0.64327316
0.64103039
0.63884496
0.63672201
0.63466588
0.6326801
0.6307672
0.62892865
0.62716477
0.62547458
0.62385569
0.62230422
0.62081473
0.61938035
0.61799275
0.6166421
0.61531723
0.61400605
0.61269632
0.61137648
0.61003669
0.60867008
0.60727425
0.60585245
0.60441577
0.60298129
0.60156795
0.60019057
0.59885387
0.59755181
0.59629203
0.59517819
0.59449044
0.59453908
0.59557988
0.59718072
0.59835405
0.59832746
0.59002099
0.57848147
0.63569645
0.75020087
0.70394106
0.7288128
0.71331455
0.72013241
0.71419554
0.71532413
0.71257571
0.71169597
0.70991998
0.70842126
0.70674689
0.70504183
0.70326428
0.7014224
0.69951426
0.69754024
0.69550094
0.69339759
0.69123185
0.68900594
0.68672251
0.68438477
0.68199639
0.67956158
0.67708504
0.67457201
0.67202822
0.66945992
0.66687381
0.66427702
0.66167703
0.65908164
0.65649882
0.65393668
0.65140331
0.64890669
0.6464546
0.64405444
0.64171319
0.63943722
0.63723224
0.63510316
0.63305403
0.6310879
0.62920684
0.6274118
0.62570257
0.62407775
0.62253459
0.62106889
0.61967502
0.61834595
0.61707328
0.61584709
0.61465594
0.61348719
0.61232751
0.61116335
0.609982
0.60877317
0.60752967
0.60624756
0.60493086
0.60359025
0.60223746
0.60088213
0.5995245
0.59815765
0.59680532
0.59560982
0.59488723
0.59501303
0.59618326
0.59786462
0.59902072
0.59813553
0.58890229
0.57757139
0.63906761
0.75404631
0.70665434
0.73168312
0.71581164
0.72279163
0.71671399
0.71767001
0.71486218
0.71378381
0.71190637
0.71024129
0.70842548
0.70656353
0.70462865
0.70262483
0.70055123
0.69840826
0.69619678
0.69391836
0.69157506
0.68916964
0.68670542
0.68418638
0.6816171
0.67900279
0.67634925
0.6736629
0.67095075
0.66822031
0.6654796
0.66273706
0.66000143
0.65728171
0.65458697
0.65192629
0.64930858
0.64674246
0.64423615
0.64179729
0.63943287
0.63714908
0.63495122
0.63284365
0.63082969
0.62891164
0.62709066
0.62536683
0.62373916
0.62220553
0.6207626
0.61940572
0.61812891
0.61692493
0.61578535
0.61470033
0.61365853
0.61264728
0.6116529
0.61066091
0.60965694
0.60862831
0.60756451
0.60645709
0.60530258
0.60410264
0.60286085
0.60157907
0.60024947
0.59886312
0.59746137
0.59622283
0.59550455
0.59569165
0.59695229
0.59863999
0.59960344
0.59780476
0.58775725
0.57688015
0.64200454
0.7573417
0.70892221
0.73411378
0.71790987
0.72483973
0.7186081
0.71937679
0.71652978
0.71522919
0.71323721
0.71139394
0.70942108
0.70738899
0.70528171
0.70310068
0.70084563
0.69851721
0.69611665
0.69364605
0.69110816
0.68850656
0.68584554
0.68313022
0.68036639
0.67756064
0.6747202
0.67185303
0.66896765
0.66607315
0.66317908
0.66029534
0.65743205
0.65459942
0.65180761
0.64906654
0.64638576
0.64377429
0.64124045
0.63879177
0.63643484
0.6341752
0.63201734
0.62996457
0.62801908
0.62618191
0.62445299
0.62283121
0.62131443
0.61989957
0.61858256
0.61735817
0.61621996
0.61516046
0.6141712
0.61324256
0.61236357
0.61152193
0.61070421
0.60989598
0.60908237
0.60824886
0.60738236
0.60647262
0.60551046
0.60448811
0.60340023
0.6022377
0.60098277
0.59962715
0.59823205
0.59700975
0.59634769
0.59665088
0.59798155
0.5996296
0.6003066
0.59760217
0.58697046
0.57661706
0.64446639
0.76007991
0.71074676
0.73608227
0.71959111
0.72627187
0.71995328
0.72041574
0.71754695
0.71600929
0.71389001
0.7118573
0.70970913
0.70748928
0.70518929
0.70280966
0.70035082
0.69781407
0.69520144
0.69251598
0.68976152
0.6869429
0.6840658
0.68113684
0.67816348
0.67515403
0.67211755
0.66906381
0.66600318
0.66294656
0.65990515
0.65689042
0.65391386
0.65098683
0.64812036
0.64532496
0.64261048
0.6399859
0.63745919
0.63503723
0.63272565
0.63052882
0.6284498
0.62649038
0.62465109
0.6229313
0.62132935
0.61984258
0.61846749
0.61719988
0.61603476
0.61496629
0.6139876
0.61309096
0.61226791
0.61150918
0.61080432
0.61014171
0.60950854
0.60889114
0.60827501
0.60764481
0.60698573
0.60628543
0.60553137
0.6047098
0.60380572
0.60279719
0.60165794
0.60038493
0.59906211
0.59793546
0.5974186
0.59790741
0.59937005
0.60101545
0.60141354
0.59790829
0.5869815
0.57707361
0.64650609
0.76230201
0.71215987
0.73761439
0.72087595
0.72719498
0.72091595
0.72123227
0.71795862
0.71615184
0.71387328
0.71162512
0.70926906
0.70683051
0.70430587
0.70169587
0.69900186
0.69622616
0.69337199
0.69044368
0.6874466
0.68438721
0.68127302
0.67811261
0.67491547
0.67169206
0.6684536
0.66521202
0.66197975
0.65876962
0.6555946
0.65246766
0.64940147
0.64640828
0.64349961
0.64068611
0.63797733
0.63538161
0.63290589
0.63055571
0.62833506
0.62624645
0.62429093
0.62246813
0.62077646
0.61921325
0.61777489
0.61645699
0.61525453
0.61416206
0.61317367
0.61228289
0.61148253
0.61076468
0.61012097
0.60954252
0.60901962
0.60854145
0.60809608
0.60767077
0.60725187
0.60682475
0.60637413
0.60588495
0.60534239
0.60472932
0.60402227
0.6031896
0.60220111
0.60106366
0.5998882
0.59895553
0.59870131
0.59949528
0.60121551
0.60297022
0.60316402
0.59902742
0.58814001
0.57866719
0.64819455
0.76402352
0.71312556
0.73871682
0.72155119
0.72734436
0.72105054
0.72062859
0.71769921
0.71561418
0.71312913
0.71062858
0.70802319
0.70532704
0.70253923
0.69966137
0.69669596
0.69364666
0.69051828
0.68731694
0.68404995
0.68072597
0.6773548
0.6739475
0.67051608
0.66707358
0.66363372
0.66021085
0.65681961
0.65347479
0.65019097
0.64698237
0.64386247
0.64084385
0.63793789
0.63515461
0.63250248
0.62998833
0.62761721
0.62539245
0.62331563
0.62138664
0.61960384
0.61796425
0.61646371
0.61509718
0.61385896
0.61274284
0.61174228
0.61085058
0.61006096
0.60936644
0.60875964
0.60823268
0.60777736
0.60738528
0.60704751
0.60675419
0.60649434
0.60625615
0.60602714
0.60579391
0.6055419
0.6052555
0.6049179
0.60450866
0.60399985
0.60335632
0.6025501
0.60160457
0.60066398
0.60004425
0.60020067
0.60146143
0.60359667
0.60558862
0.60567108
0.60108126
0.59050031
0.58130977
0.64954892
0.76522873
0.71359054
0.73928783
0.72153526
0.72683617
0.72057882
0.71984637
0.71669809
0.71427657
0.71153784
0.70874697
0.70584966
0.7028544
0.69976224
0.69657633
0.69330088
0.6899415
0.68650523
0.68300059
0.67943759
0.6758277
0.67218373
0.66851978
0.66485094
0.66119322
0.65756315
0.65397759
0.65045338
0.647007
0.64365428
0.64041007
0.63728793
0.63429987
0.63145615
0.62876511
0.62623302
0.62386411
0.62166053
0.61962244
0.61774815
0.61603425
0.6144759
0.61306704
0.61180075
0.61066953
0.60966558
0.60878099
0.60800782
0.60733832
0.60676498
0.6062805
0.6058775
0.60554833
0.60528517
0.60508012
0.60492505
0.60481105
0.60472821
0.60466581
0.6046126
0.60455658
0.60448489
0.6043836
0.60423587
0.60402036
0.60370842
0.60326607
0.60267579
0.60198651
0.60137939
0.60120754
0.60193895
0.60383915
0.60653172
0.60883188
0.60884568
0.60398071
0.59372854
0.58429324
0.65052914
0.76584855
0.71349745
0.73836597
0.72077648
0.72563553
0.71941081
0.71811555
0.71480739
0.71202015
0.70897374
0.70584776
0.70261063
0.69926946
0.69582726
0.69228941
0.68866259
0.68495517
0.68117727
0.67734073
0.67345911
0.66954758
0.6656227
0.66170225
0.6578049
0.65394988
0.65015659
0.64644429
0.64283153
0.63933592
0.63597364
0.63275912
0.62970476
0.62682071
0.62411466
0.62159187
0.61925509
0.61710471
0.61513886
0.61335367
0.61174344
0.61030098
0.6090179
0.60788499
0.60689256
0.60603083
0.60529017
0.60466123
0.60413504
0.60370308
0.60335738
0.60309052
0.60289537
0.60276476
0.60269138
0.60266795
0.60268706
0.6027408
0.60282037
0.60291637
0.60301927
0.60311921
0.60320616
0.60326937
0.60329523
0.60326461
0.60315138
0.60292942
0.60259945
0.6022405
0.60206585
0.60247866
0.6039315
0.60660587
0.60991977
0.61246446
0.61235095
0.60729199
0.5972557
0.58697899
0.65103583
0.76569512
0.71273223
0.73661966
0.71939008
0.72349964
0.71731747
0.71545073
0.71190422
0.70870841
0.70529319
0.70177854
0.69814691
0.69440661
0.69056336
0.68662567
0.6826038
0.67851006
0.67435884
0.6701665
0.66595122
0.6617328
0.6575323
0.65337169
0.64927339
0.64525984
0.64135294
0.63757358
0.63394113
0.63047297
0.62718411
0.62408688
0.6211907
0.61850198
0.61602414
0.61375771
0.61170049
0.60984787
0.60819307
0.60672752
0.60544117
0.60432289
0.60336083
0.60254285
0.6018569
0.60129135
0.60083522
0.60047823
0.6002108
0.60002406
0.59990995
0.5998612
0.5998711
0.59993317
0.60004084
0.60018751
0.60036658
0.60057119
0.60079393
0.60102725
0.60126414
0.6014982
0.6017238
0.60193541
0.6021252
0.60227964
0.60237962
0.60241124
0.60239609
0.60244254
0.60280248
0.60389177
0.60614663
0.60963082
0.61349344
0.6160398
0.61567101
0.61040407
0.6004178
0.58891123
0.65099243
0.76467414
0.71113502
0.73429218
0.71720178
0.72038647
0.71420284
0.71170458
0.70783994
0.70418309
0.70032896
0.69636117
0.69227119
0.68807058
0.68376921
0.67938027
0.67491927
0.67040402
0.66585472
0.66129352
0.65674436
0.65223239
0.64778365
0.64342439
0.63918048
0.63507682
0.63113663
0.62738091
0.62382784
0.62049241
0.61738608
0.61451663
0.61188817
0.60950125
0.60735312
0.60543806
0.60374779
0.60227193
0.60099836
0.59991369
0.59900369
0.59825364
0.59764876
0.59717462
0.59681752
0.59656468
0.59640444
0.59632616
0.59632022
0.59637787
0.59649133
0.59665374
0.59685907
0.59710165
0.59737582
0.59767591
0.59799637
0.59833175
0.59867666
0.59902644
0.59937793
0.59972974
0.60008245
0.60043751
0.60079468
0.60114898
0.60149101
0.60181941
0.60217416
0.60268791
0.60363578
0.605432
0.60846235
0.61263947
0.61681787
0.61906161
0.61825537
0.6128301
0.60272926
0.58992094
0.65038542
0.76269265
0.70864635
0.73086461
0.71403881
0.71616396
0.70991299
0.70672675
0.70244097
0.69825167
0.6938749
0.68937524
0.68475194
0.680022
0.67520176
0.67031117
0.66537298
0.66041231
0.65545664
0.65053509
0.64567808
0.64091654
0.63628125
0.63180201
0.6275068
0.62342102
0.61956674
0.61596215
0.61262112
0.60955299
0.60676251
0.6042501
0.60201206
0.60004112
0.5983269
0.59685655
0.59561525
0.59458679
0.59375404
0.59309938
0.5926051
0.59225381
0.59202875
0.59191422
0.59189575
0.5919603
0.59209625
0.59229325
0.59254214
0.59283478
0.59316405
0.59352385
0.59390895
0.59431468
0.59473653
0.59517011
0.59561149
0.59605741
0.59650569
0.59695602
0.59741086
0.59787562
0.5983585
0.59886891
0.59941432
0.59999703
0.60061548
0.60127803
0.60203599
0.60303389
0.60455385
0.60699027
0.61064287
0.6152292
0.61937653
0.62125991
0.6199059
0.61424335
0.60398585
0.59007317
0.64916537
0.75958289
0.70521344
0.72629946
0.7097283
0.71067082
0.70425107
0.70030358
0.69547345
0.69065739
0.68565864
0.68053547
0.67529658
0.66996708
0.66457238
0.65914157
0.65370661
0.64830163
0.64296264
0.63772651
0.63263026
0.62770987
0.62299937
0.61852967
0.61432763
0.61041533
0.60680941
0.6035209
0.60055509
0.59791187
0.59558605
0.59356809
0.59184473
0.59039977
0.58921482
0.58826999
0.5875445
0.58701724
0.58666716
0.58647362
0.58641678
0.58647782
0.5866393
0.58688534
0.58720179
0.58757618
0.58799764
0.58845669
0.58894509
0.58945573
0.58998254
0.59052044
0.59106528
0.59161356
0.5921623
0.59270902
0.59325231
0.5937924
0.5943319
0.5948767
0.59543653
0.59602478
0.59665742
0.59735051
0.59811637
0.5989601
0.59988147
0.60088944
0.60203536
0.60346307
0.6054487
0.60835291
0.61236931
0.61702089
0.62072218
0.62229226
0.62024604
0.61450046
0.60416971
0.58952126
0.64727603
0.7551063
0.70087141
0.7203916
0.7040763
0.70367836
0.69694483
0.69213603
0.68661579
0.68105684
0.67532603
0.66948367
0.66355096
0.65756377
0.65155933
0.64557826
0.63966383
0.63386067
0.628214
0.62276797
0.61756451
0.61264163
0.60803235
0.60376348
0.599855
0.59631962
0.59316289
0.59038347
0.58797383
0.58592109
0.58420793
0.58281365
0.5817151
0.5808876
0.58030574
0.579944
0.57977729
0.57978132
0.57993285
0.58020996
0.58059225
0.58106097
0.5815993
0.58219236
0.5828272
0.5834927
0.58417932
0.5848789
0.58558453
0.58629047
0.586992
0.58768538
0.5883678
0.58903736
0.58969314
0.59033552
0.59096692
0.59159268
0.59222203
0.59286858
0.5935502
0.59428773
0.59510254
0.59601293
0.59702955
0.59815215
0.59937216
0.60068829
0.6021416
0.60386776
0.6061316
0.60925299
0.61332646
0.61778737
0.62100429
0.62177463
0.61961758
0.61367242
0.60335263
0.58840696
0.64466213
0.74888959
0.6955161
0.71287931
0.69676798
0.69483928
0.68760315
0.681809
0.67544176
0.6690154
0.66244533
0.65579942
0.64911521
0.64244304
0.63583539
0.62934735
0.62303519
0.61695418
0.61115688
0.6056909
0.60059732
0.59590904
0.59164998
0.58783464
0.58446817
0.58154708
0.57906006
0.57698931
0.57531179
0.57400062
0.5730263
0.57235792
0.57196409
0.5718138
0.57187698
0.57212494
0.57253064
0.57306883
0.57371617
0.57445127
0.57525476
0.57610941
0.57700015
0.57791405
0.57884011
0.57976908
0.58069316
0.58160588
0.58250194
0.58337722
0.58422862
0.58505406
0.58585249
0.5866242
0.58737122
0.58809796
0.58881225
0.58952626
0.59025714
0.59102671
0.59185993
0.59278187
0.59381374
0.59496827
0.59624524
0.59762923
0.59909409
0.60062116
0.6022385
0.60407591
0.60639108
0.60946673
0.61329785
0.61721034
0.61992171
0.6202471
0.61777511
0.6119262
0.60162782
0.58687817
0.64119592
0.74024282
0.68853384
0.70330384
0.68733793
0.68367504
0.67571931
0.66880635
0.66143757
0.65402334
0.6465228
0.63901779
0.63156847
0.62424511
0.617119
0.61026086
0.60373804
0.59761134
0.59193274
0.58674317
0.5820715
0.57793392
0.57433441
0.57126569
0.56871074
0.56664451
0.56503585
0.56384934
0.56304697
0.56258964
0.56243835
0.56255514
0.56290383
0.56345044
0.56416346
0.56501395
0.56597553
0.56702425
0.56813858
0.56929928
0.5704894
0.5716943
0.57290156
0.57410081
0.57528344
0.57644238
0.57757185
0.57866725
0.57972515
0.58074324
0.58172029
0.58265623
0.58355237
0.58441202
0.58524125
0.58604996
0.58685281
0.58766989
0.58852636
0.58945065
0.59047093
0.59161018
0.59288088
0.59428051
0.59578855
0.59736699
0.59896836
0.60055861
0.60216081
0.6039093
0.60606141
0.60887035
0.61227448
0.61559973
0.6177158
0.61772035
0.61522284
0.60945319
0.59915012
0.58517019
0.63658574
0.72902295
0.67948224
0.69111394
0.67520879
0.66962715
0.66069749
0.65251502
0.64399406
0.63548808
0.62700637
0.61865414
0.61052067
0.60269905
0.59527732
0.58833477
0.58193847
0.57614016
0.57097491
0.56646053
0.56259848
0.55937547
0.55676575
0.5547338
0.55323699
0.55222814
0.5516578
0.55147609
0.55163423
0.5520856
0.5527865
0.55369663
0.55477924
0.55600122
0.55733288
0.55874779
0.56022246
0.56173609
0.5632704
0.56480951
0.56633983
0.56785
0.56933071
0.57077444
0.57217517
0.57352811
0.57482961
0.57607709
0.57726914
0.57840547
0.57948701
0.58051615
0.58149728
0.58243777
0.58334904
0.58424761
0.58515581
0.58610137
0.58711545
0.58822872
0.58946569
0.59083831
0.59234064
0.59394623
0.59560862
0.59726632
0.5988562
0.60034146
0.60175602
0.6032497
0.60508114
0.60747614
0.61034295
0.61306511
0.61471537
0.61459111
0.61222462
0.60652284
0.59622745
0.58338036
0.63044966
0.71646617
0.66778187
0.67574029
0.65968285
0.65198079
0.64177552
0.63215493
0.6223651
0.61273636
0.60333854
0.59430579
0.58575369
0.57778823
0.57049748
0.56394795
0.55818267
0.5532207
0.54905886
0.54567431
0.54302834
0.54107018
0.53974102
0.5389775
0.53871478
0.53888888
0.53943851
0.54030624
0.54143928
0.54278982
0.54431512
0.54597734
0.54774325
0.54958386
0.55147391
0.55339147
0.55531747
0.55723542
0.55913119
0.56099288
0.5628107
0.56457684
0.56628522
0.56793118
0.56951124
0.5710229
0.57246465
0.57383606
0.57513781
0.57637187
0.57754166
0.57865267
0.57971324
0.58073588
0.58173834
0.5827444
0.5837835
0.58488876
0.58609275
0.58742126
0.58888608
0.59047857
0.59216656
0.593896
0.59559613
0.59718945
0.59861196
0.59984348
0.60094364
0.60208144
0.60351128
0.60543117
0.6077389
0.60990671
0.61122101
0.61113935
0.60900802
0.60335476
0.59312597
0.58165982
0.62247135
0.69991116
0.65264861
0.65628059
0.63972345
0.62968226
0.61792386
0.60676577
0.59573766
0.58516147
0.57516325
0.56589324
0.55746818
0.54997539
0.54346814
0.5379659
0.53345731
0.52990459
0.52724944
0.5254189
0.52433117
0.52390056
0.52404151
0.52467161
0.52571365
0.52709691
0.52875772
0.53063959
0.53269306
0.53487519
0.53714908
0.53948319
0.5418507
0.54422886
0.54659835
0.54894275
0.55124814
0.55350277
0.55569692
0.55782283
0.55987451
0.56184761
0.56373912
0.56554707
0.56727036
0.56890873
0.57046282
0.57193433
0.57332622
0.57464293
0.57589086
0.57707925
0.57822129
0.57933547
0.58044632
0.58158428
0.58278369
0.58407848
0.58549568
0.58704743
0.58872363
0.59048766
0.5922786
0.59401923
0.59562434
0.5970137
0.59814174
0.59902229
0.59974547
0.60049337
0.60150607
0.60295025
0.60472669
0.60641734
0.60751194
0.60756821
0.60571262
0.60013339
0.59007455
0.58010854
0.61203286
0.67843461
0.63270172
0.63131854
0.61385778
0.60135314
0.58797302
0.57544288
0.56354527
0.5525782
0.54268289
0.53398024
0.52653613
0.52036905
0.5154536
0.5117283
0.50910496
0.50747771
0.50673173
0.50675006
0.50741912
0.50863233
0.51029237
0.51231227
0.51461563
0.51713627
0.51981754
0.52261137
0.52547734
0.52838173
0.53129652
0.5341986
0.5370689
0.5398917
0.54265403
0.5453451
0.54795608
0.55047982
0.55291085
0.55524524
0.55748054
0.55961551
0.56164989
0.56358415
0.56541942
0.56715756
0.56880132
0.5703546
0.57182275
0.57321299
0.57453517
0.57580296
0.57703506
0.57825625
0.57949738
0.58079352
0.58217975
0.58368443
0.58532088
0.58707923
0.58892097
0.59077957
0.59257012
0.59420341
0.59559392
0.59667612
0.59743859
0.59793539
0.59827841
0.59865173
0.59927251
0.60027494
0.60157283
0.60286551
0.60381799
0.60402851
0.60241417
0.59698257
0.58729893
0.57878736
0.59797536
0.64992682
0.60601714
0.5991153
0.58047676
0.56561997
0.55102848
0.53781943
0.52595658
0.51565769
0.50699554
0.4999875
0.49458379
0.49068504
0.48815632
0.48684189
0.48657821
0.48720388
0.48856679
0.49052846
0.49296612
0.49577324
0.49885888
0.50214646
0.50557219
0.50908341
0.51263699
0.51619787
0.51973771
0.52323384
0.52666815
0.53002632
0.53329698
0.53647114
0.53954165
0.54250287
0.5453505
0.54808148
0.55069405
0.55318765
0.55556283
0.55782104
0.55996438
0.56199548
0.56391753
0.56573442
0.56745099
0.56907338
0.57060944
0.57206946
0.57346721
0.57482124
0.57615603
0.57750225
0.57889535
0.58037155
0.58196117
0.58367989
0.58551992
0.5874437
0.58938294
0.59124651
0.59293719
0.59436517
0.59545977
0.59618879
0.59657538
0.59671061
0.59671296
0.59675611
0.59703039
0.59764086
0.59852141
0.59948035
0.60031614
0.60062834
0.59918079
0.5939828
0.58497296
0.5777277
0.57833816
0.61204332
0.57039205
0.55785675
0.53851684
0.52176627
0.50710375
0.49463127
0.48431517
0.47619922
0.47018635
0.46611699
0.4637803
0.46294221
0.46336502
0.46482214
0.46710745
0.47003983
0.47346437
0.47725129
0.48129368
0.48550458
0.489814
0.49416612
0.49851676
0.50283121
0.50708246
0.51124965
0.51531688
0.5192722
0.52310676
0.52681409
0.53038956
0.53382987
0.53713275
0.54029682
0.5433215
0.54620713
0.54895499
0.55156725
0.5540469
0.55639753
0.55862323
0.56072851
0.56271846
0.56459893
0.56637684
0.56806053
0.56966048
0.57119026
0.57266785
0.5741169
0.57556734
0.57705445
0.57861549
0.58028338
0.58207785
0.58399581
0.58600369
0.58803515
0.58999641
0.59178241
0.59329903
0.59446857
0.59524241
0.59563322
0.59568041
0.59550386
0.59522315
0.59499254
0.59497308
0.59524813
0.5957769
0.59645292
0.5971538
0.59746327
0.59609587
0.59121282
0.58307131
0.57708239
0.55051156
0.56226454
0.52440884
0.5061819
0.48578006
0.47050865
0.457743
0.44807821
0.44124921
0.43701324
0.43502421
0.43491885
0.43633991
0.43896131
0.4424989
0.44671385
0.4514109
0.45643364
0.46165889
0.46699086
0.47235593
0.47769805
0.48297499
0.48815529
0.4932158
0.49813981
0.50291554
0.50753503
0.51199323
0.51628727
0.5204159
0.52437901
0.52817722
0.53181167
0.53528385
0.53859564
0.54174938
0.54474803
0.54759521
0.55029518
0.55285274
0.55527313
0.55756197
0.55972541
0.56177026
0.56370425
0.56553627
0.56727686
0.56893912
0.57054006
0.57210194
0.57365332
0.57522873
0.57686606
0.57860103
0.58045874
0.58244358
0.58453006
0.58665826
0.58873784
0.59065995
0.59231494
0.59361751
0.59452238
0.59497468
0.59508909
0.59487642
0.59446095
0.59395863
0.59350786
0.59324671
0.59324596
0.59349157
0.59392814
0.59445084
0.59462451
0.59325339
0.58878967
0.58166171
0.57679034
0.51040174
0.49802205
0.46109975
0.44341544
0.42620393
0.41422262
0.40613295
0.40172179
0.40033489
0.4013867
0.40430912
0.40861584
0.4139056
0.41986088
0.42623713
0.43284999
0.43956291
0.44627624
0.45291833
0.4594385
0.46580164
0.47198406
0.47797046
0.48375162
0.48932275
0.49468222
0.49983067
0.50477038
0.50950469
0.51403767
0.51837375
0.52251747
0.52647331
0.53024558
0.5338385
0.5372563
0.54050348
0.54358489
0.54650586
0.54927214
0.5518898
0.55436523
0.55670526
0.55891732
0.56100971
0.56299174
0.56487404
0.5666693
0.56839342
0.57006685
0.57171595
0.57337355
0.57507743
0.57686586
0.57876987
0.58080334
0.58295256
0.58516907
0.58736998
0.58944863
0.59129069
0.59279202
0.59388167
0.59453606
0.59477192
0.59464857
0.59424834
0.5936646
0.59300362
0.59238617
0.59193572
0.59172315
0.59175412
0.59198588
0.59228141
0.5921997
0.59075114
0.58678798
0.58076956
0.57674068
0.4491503
0.41682361
0.38735433
0.37272345
0.36210373
0.35751572
0.35716102
0.36012158
0.36540648
0.37225732
0.38009017
0.38848186
0.39713329
0.40583842
0.41445849
0.42290229
0.43111189
0.43905231
0.44670426
0.45405909
0.46111526
0.46787589
0.47434707
0.48053671
0.48645372
0.49210756
0.49750783
0.50266405
0.50758547
0.51228098
0.51675891
0.521027
0.52509233
0.52896139
0.53264025
0.5361348
0.53945098
0.54259499
0.5455733
0.54839263
0.5510599
0.55358236
0.55596775
0.55822454
0.56036195
0.56239036
0.56432196
0.56617173
0.5679584
0.56970566
0.57144341
0.57320758
0.57503746
0.57696951
0.57902802
0.58121404
0.5834959
0.58580494
0.58804125
0.5900899
0.59183939
0.59319796
0.59411357
0.59458565
0.59465279
0.59437255
0.59385849
0.59315892
0.59238224
0.59164158
0.59105295
0.59069087
0.59056916
0.59061814
0.59064499
0.59024314
0.58868755
0.58523493
0.58031695
0.57689883
0.35400716
0.32080634
0.30337732
0.29908693
0.30065814
0.30711044
0.31646283
0.32745264
0.33920835
0.3511809
0.36303645
0.37458036
0.38570602
0.39636111
0.4065265
0.41620282
0.42540219
0.43414301
0.44244676
0.45033608
0.4578335
0.46496082
0.47173868
0.47818645
0.48432208
0.49016224
0.4957223
0.50101644
0.50605768
0.51085797
0.51542814
0.51977797
0.52391623
0.52785086
0.53158915
0.5351381
0.5385046
0.54169568
0.54471849
0.54758026
0.55028842
0.55285086
0.55527611
0.55757333
0.55975264
0.56182595
0.56380741
0.56571308
0.56756241
0.56938144
0.57120355
0.57306673
0.57500957
0.57706518
0.57925091
0.58155613
0.58393468
0.58630381
0.58855403
0.59056764
0.59223646
0.59347524
0.59424642
0.59459311
0.59465263
0.59423504
0.59366743
0.59288767
0.59202986
0.59120555
0.59052533
0.59007021
0.58985167
0.58974506
0.58949931
0.58877712
0.58712696
0.5841277
0.58013784
0.57722675
0.21565899
0.21450817
0.22003062
0.23357437
0.25101419
0.26953257
0.28792767
0.30555338
0.32218278
0.33775334
0.35229103
0.36585666
0.37852418
0.39036893
0.40146258
0.41187101
0.42165364
0.43086364
0.43954823
0.44774936
0.45550418
0.46284566
0.46980307
0.47640248
0.48266714
0.48861787
0.49427337
0.49965052
0.5047645
0.50962902
0.51425637
0.51865752
0.52284225
0.52681936
0.53059691
0.53418252
0.53758366
0.5408078
0.54386242
0.5467551
0.54949364
0.55208637
0.55454228
0.55687126
0.55908496
0.56119776
0.56322541
0.56518211
0.56708406
0.56895832
0.57084147
0.57277401
0.57479408
0.57693227
0.57920202
0.58158627
0.58403119
0.58644693
0.58871871
0.59072659
0.59236758
0.59356953
0.59430682
0.59460917
0.5945512
0.59420357
0.5936079
0.59279838
0.59189388
0.59102969
0.59029658
0.58978752
0.58951478
0.58929083
0.58882598
0.58785365
0.58612993
0.58344429
0.58010334
0.57760404
0.091621506
0.12159399
0.15905122
0.19275078
0.22294462
0.24954816
0.27318062
0.29430761
0.31334451
0.3306169
0.34638717
0.36086545
0.37422225
0.38659709
0.39810529
0.40884303
0.41889125
0.42831853
0.43718343
0.44553625
0.45342044
0.46087375
0.46792908
0.47461533
0.48095792
0.4869794
0.49269981
0.49813705
0.50330713
0.50822437
0.51290149
0.51734978
0.5215792
0.52559863
0.52941617
0.5330395
0.53647625
0.5397343
0.54282202
0.54574826
0.54852202
0.55115197
0.55364662
0.55601507
0.55826724
0.56041304
0.56246354
0.56443638
0.56635703
0.5682532
0.5701567
0.57210741
0.57415027
0.57632235
0.57863917
0.5810863
0.58360974
0.58611422
0.58847601
0.59057322
0.59230473
0.59358473
0.59436627
0.59469381
0.59478438
0.59442249
0.59389689
0.59307767
0.59215758
0.59127197
0.59049626
0.58994038
0.58961807
0.58930289
0.58868887
0.58754928
0.58574718
0.58320585
0.58021438
0.57780832
0.0075148232
0.32688179
0.48048191
0.51693443
0.5231685
0.52352919
0.52368749
0.52508306
0.52676952
0.52841861
0.52998311
0.53150599
0.532991
0.5344678
0.53593946
0.53741001
0.53887983
0.54035113
0.54182468
0.54330003
0.54477631
0.54625245
0.54772727
0.54919936
0.55066722
0.55212925
0.55358372
0.55502879
0.55646249
0.55788274
0.55928727
0.56067373
0.56203963
0.56338243
0.56469957
0.56598859
0.56724713
0.56847309
0.56966457
0.57081998
0.57193791
0.57301711
0.57405639
0.57505454
0.57601033
0.5769225
0.57778986
0.57861139
0.57938638
0.58011459
0.58079627
0.58143225
0.58202377
0.58257243
0.58307992
0.58354786
0.58397771
0.58437062
0.58472707
0.58504649
0.58532786
0.5855693
0.58577015
0.58592671
0.58604661
0.58612021
0.58618341
0.58619724
0.58625875
0.58624359
0.58635848
0.58634508
0.58652167
0.58644683
0.58654885
0.58642414
0.58638193
0.58702147
0.58642848
0.58846791
0.096112836
0.41174625
0.52363556
0.54188799
0.54151933
0.53986331
0.53938205
0.53982502
0.54018555
0.54065116
0.54121229
0.5419183
0.54271189
0.54357537
0.54448807
0.54544827
0.54644965
0.54748959
0.54856376
0.54966801
0.55079873
0.55195258
0.55312646
0.55431737
0.55552243
0.55673874
0.55796348
0.55919374
0.56042657
0.56165891
0.56288766
0.56410957
0.56532138
0.56651975
0.56770141
0.56886314
0.57000192
0.57111493
0.57219961
0.57325371
0.57427517
0.57526216
0.57621295
0.57712584
0.57799919
0.57883134
0.57962074
0.58036604
0.58106625
0.58172085
0.58232992
0.58289414
0.58341471
0.58389324
0.58433153
0.58473146
0.58509477
0.58542303
0.58571696
0.58597608
0.58619927
0.58638451
0.58653056
0.58663398
0.58670093
0.58672405
0.58673587
0.58670258
0.58671357
0.58665816
0.58672926
0.58668976
0.58682837
0.58673998
0.58678961
0.58669898
0.58659723
0.58728882
0.58674058
0.58854782
0.1830768
0.48055723
0.53868784
0.54958037
0.54754164
0.54729529
0.5475551
0.54823758
0.54872461
0.54933991
0.54990225
0.55052055
0.5511505
0.5518187
0.55251095
0.55323205
0.55397983
0.55475671
0.5555618
0.55639436
0.5572536
0.55813849
0.5590478
0.55998005
0.56093352
0.56190625
0.56289608
0.56390055
0.56491703
0.56594259
0.56697415
0.56800839
0.56904185
0.57007094
0.57109205
0.57210159
0.57309607
0.57407218
0.57502687
0.57595732
0.57686096
0.57773545
0.57857858
0.57938821
0.58016225
0.58089863
0.58159539
0.58225081
0.58286352
0.58343272
0.58395823
0.58444051
0.58488065
0.58528021
0.58564113
0.58596552
0.5862555
0.58651301
0.58673903
0.58693314
0.58709413
0.58721978
0.5873083
0.58735623
0.58736851
0.58733943
0.58729876
0.58721664
0.58717577
0.58708086
0.58710565
0.58704251
0.5871342
0.58703942
0.58702745
0.58697806
0.58681658
0.58755609
0.5870816
0.5885941
0.24916047
0.5176081
0.55307303
0.55903564
0.55635361
0.55699161
0.55701708
0.55765574
0.55790131
0.5583566
0.55871045
0.55915113
0.5595851
0.56005224
0.56053239
0.56103468
0.56155768
0.56210518
0.56267707
0.56327393
0.56389613
0.56454377
0.56521669
0.5659144
0.56663615
0.56738083
0.56814704
0.56893302
0.56973672
0.5705557
0.57138728
0.57222843
0.5730759
0.57392622
0.57477581
0.57562101
0.57645821
0.5772839
0.57809475
0.57888766
0.57965971
0.58040821
0.58113056
0.58182425
0.58248677
0.58311566
0.58370855
0.58426333
0.58477828
0.58525225
0.58568475
0.58607603