/*--------------------------------*- C++ -*----------------------------------*\
  =========                 |
  \\      /  F ield         | OpenFOAM: The Open Source CFD Toolbox
   \\    /   O peration     | Website:  https://openfoam.org
    \\  /    A nd           | Version:  12
     \\/     M anipulation  |
\*---------------------------------------------------------------------------*/
FoamFile
{
    format      ascii;
    class       surfaceScalarField;
    location    "0.013";
    object      phi;
}
// * * * * * * * * * * * * * * * * * * * * * * * * * * * * * * * * * * * * * //

dimensions      [1 0 -1 0 0 0 0];

internalField   nonuniform List<scalar> 
31760
(
-0.00072115266
-0.051943299
0.05254776
-0.0017649235
-0.065221528
0.066142136
-0.0028336542
-0.064083166
0.065021424
-0.0039432453
-0.069666882
0.070640512
-0.005113137
-0.071486854
0.072513191
-0.0063114971
-0.075735886
0.076783474
-0.0075968463
-0.078770587
0.079897215
-0.008913439
-0.082804438
0.08395426
-0.010309625
-0.086511452
0.087732297
-0.011761861
-0.090684429
0.09195226
-0.013281909
-0.094895488
0.096221594
-0.014874134
-0.099377122
0.10076545
-0.016536637
-0.10403055
0.10547868
-0.018276749
-0.1089113
0.11042613
-0.020094824
-0.1140107
0.11559206
-0.021995623
-0.11934437
0.12099657
-0.023982189
-0.12492078
0.12664637
-0.026057912
-0.13075111
0.13255303
-0.028226307
-0.13684673
0.13872804
-0.030490943
-0.1432187
0.14518253
-0.032855453
-0.1498799
0.1519295
-0.035323684
-0.15684207
0.15898093
-0.037899305
-0.16411939
0.16635089
-0.040586146
-0.17172536
0.17405308
-0.043387047
-0.17967512
0.18210179
-0.046306282
-0.18798259
0.19051242
-0.049347345
-0.19666468
0.19930123
-0.052513008
-0.2057378
0.20848406
-0.055805985
-0.21521954
0.2180786
-0.059229237
-0.22512784
0.22810321
-0.062784799
-0.23548228
0.23857674
-0.066474353
-0.24630259
0.24951881
-0.070298817
-0.25761088
0.260951
-0.07425893
-0.26942827
0.27289451
-0.078354065
-0.2817794
0.28537291
-0.082582832
-0.29468868
0.29841011
-0.08694319
-0.30818237
0.312032
-0.091431813
-0.32228846
0.32626557
-0.096044444
-0.33703552
0.3411387
-0.10077537
-0.35245554
0.3566821
-0.10561807
-0.36858104
0.37292761
-0.11056452
-0.38544665
0.38990833
-0.11560567
-0.40308949
0.40766021
-0.1207316
-0.4215487
0.42622116
-0.12593113
-0.4408661
0.44563114
-0.13119254
-0.46108501
0.46593206
-0.13650295
-0.48225216
0.48716838
-0.14184967
-0.50441595
0.50938722
-0.14721928
-0.52762858
0.53263836
-0.15259768
-0.55194409
0.55697321
-0.15797042
-0.57741921
0.58244597
-0.16332318
-0.60411435
0.60911477
-0.16864053
-0.63209223
0.63703855
-0.17390604
-0.66141872
0.66627968
-0.17910177
-0.69216245
0.69690319
-0.18420516
-0.72439565
0.72897583
-0.18918878
-0.75819236
0.76256735
-0.19401733
-0.7936295
0.797749
-0.19864404
-0.83078753
0.83459382
-0.20300957
-0.86974998
0.87317934
-0.20703773
-0.91060358
0.91358458
-0.21063511
-0.95343777
0.95589175
-0.2136911
-0.99834816
1.0001879
-0.21607989
-1.0454396
1.0465697
-0.21765921
-1.0948249
1.0951399
-0.21827427
-1.1466287
1.1460173
-0.21775875
-1.2009831
1.1993213
-0.215939
-1.2580104
1.2551714
-0.21262393
-1.3178078
1.3136534
-0.20761164
-1.3804229
1.3748041
-0.20070639
-1.4458885
1.4386403
-0.19171806
-1.5144298
1.5053033
-0.18037754
-1.5868991
1.5754256
-0.16640603
-1.6644898
1.6501949
-0.14895431
-1.7490476
1.7305265
-0.12885998
-1.8414182
1.8195298
-0.10325119
-1.9378772
1.9104431
-0.075909841
-2.0367375
2.00794
-0.044914162
-2.1118685
2.0813671
-2.1660384
2.1336613
-0.00071617558
-0.05134049
-0.0016613445
-0.064396247
-0.002644282
-0.063226949
-0.0036904083
-0.068753218
-0.0047570633
-0.070560193
-0.0059025791
-0.074737406
-0.0070729685
-0.077755221
-0.0083263136
-0.081714112
-0.00961477
-0.08539446
-0.010982562
-0.089497005
-0.012401873
-0.093666092
-0.013895221
-0.098083532
-0.015454422
-0.10268156
-0.01708799
-0.10749882
-0.018796846
-0.11253434
-0.020585297
-0.11780031
-0.022455875
-0.123307
-0.024412653
-0.12906402
-0.026459141
-0.13508331
-0.028599191
-0.14137554
-0.030836703
-0.14795354
-0.033175118
-0.15482945
-0.035618671
-0.16201663
-0.038171111
-0.16952896
-0.040837185
-0.17738055
-0.04361954
-0.1855873
-0.046522538
-0.19416427
-0.049549455
-0.20312887
-0.052703858
-0.2124982
-0.055988428
-0.22229094
-0.059406031
-0.23252624
-0.062958553
-0.24322462
-0.066647446
-0.25440835
-0.070473576
-0.26609888
-0.074436769
-0.27832159
-0.078536429
-0.29110102
-0.082770307
-0.30446475
-0.087136166
-0.31844049
-0.091629107
-0.33305915
-0.096244231
-0.3483525
-0.10097509
-0.36435442
-0.10581362
-0.38110107
-0.11075044
-0.39863096
-0.11577565
-0.41698394
-0.12087778
-0.4362039
-0.12604457
-0.45633563
-0.13126311
-0.47742752
-0.13651944
-0.49953029
-0.1417996
-0.52269771
-0.14708928
-0.54698596
-0.15237364
-0.57245445
-0.15763766
-0.59916609
-0.16286605
-0.62718661
-0.1680434
-0.65658488
-0.17315319
-0.68743321
-0.17817652
-0.71980803
-0.18309101
-0.75378757
-0.18786856
-0.78945404
-0.19247284
-0.82689403
-0.19685724
-0.86619669
-0.20096051
-0.90745595
-0.20470504
-0.95076874
-0.20799609
-0.99623905
-0.21072405
-1.0439779
-0.21276081
-1.0941074
-0.21396279
-1.1467578
-0.21417105
-1.2020713
-0.21321774
-1.2601703
-0.21092051
-1.3211561
-0.2070824
-1.3850841
-0.20149848
-1.4520118
-0.19395954
-1.5222624
-0.18423759
-1.5968613
-0.17195382
-1.6772479
-0.15677734
-1.7654574
-0.13856747
-1.861531
-0.11616176
-1.9622522
-0.091620638
-2.0624536
-0.064304872
-2.1381184
-2.1944377
-0.00065550744
-0.05079486
-0.0015415603
-0.06362683
-0.0024397962
-0.062450738
-0.003428255
-0.067893151
-0.0044176523
-0.069706795
-0.0054929785
-0.073805287
-0.00658029
-0.076818836
-0.0077534912
-0.080699877
-0.0089559535
-0.084359239
-0.010235469
-0.088393555
-0.011564193
-0.092522857
-0.01296332
-0.096879665
-0.014426129
-0.10142438
-0.015960297
-0.10618109
-0.017567206
-0.11115524
-0.019250656
-0.11635654
-0.021014385
-0.12179535
-0.022861647
-0.12748175
-0.024797081
-0.13342629
-0.026823802
-0.13964114
-0.02894662
-0.14613741
-0.031169304
-0.15292826
-0.03349595
-0.16002664
-0.035931476
-0.1674456
-0.038479184
-0.17520075
-0.041144219
-0.18330608
-0.043929798
-0.19177846
-0.046840612
-0.20063369
-0.049879615
-0.20989045
-0.053051151
-0.21956586
-0.056357222
-0.22968121
-0.059800786
-0.24025583
-0.063383927
-0.25131261
-0.067107237
-0.26287422
-0.070971826
-0.27496521
-0.074976949
-0.28761166
-0.079121483
-0.30084121
-0.08340212
-0.31468341
-0.087815624
-0.32916879
-0.092356809
-0.34433076
-0.097018839
-0.36020461
-0.10179431
-0.37682691
-0.10667438
-0.39423756
-0.11164818
-0.41247856
-0.11670457
-0.4315944
-0.12183095
-0.4516319
-0.12701432
-0.4726407
-0.13224016
-0.49467418
-0.13749479
-0.51778666
-0.14276319
-0.54203737
-0.14802987
-0.56748813
-0.15328054
-0.59420295
-0.15849985
-0.62225128
-0.16367295
-0.65170444
-0.16878469
-0.68263794
-0.17381866
-0.71513191
-0.1787564
-0.74926827
-0.18357456
-0.78513512
-0.18824581
-0.82282263
-0.19273305
-0.86242713
-0.19698887
-0.90404768
-0.20095068
-0.94778966
-0.204541
-0.99376405
-0.20766556
-1.042089
-0.21021274
-1.0928935
-0.21205254
-1.1463151
-0.21304466
-1.2024933
-0.21302938
-1.2615582
-0.21183259
-1.3236109
-0.20927072
-1.3887044
-0.20512709
-1.4569443
-0.19917894
-1.5287568
-0.19120383
-1.6053448
-0.18082529
-1.6884134
-0.16787682
-1.7799497
-0.15195997
-1.8795795
-0.13261557
-1.9836177
-0.11114605
-2.084664
-0.087361499
-2.1601623
-2.2187647
-0.00060101786
-0.050300128
-0.0014255718
-0.062915654
-0.0022481249
-0.061746873
-0.0031827814
-0.067083128
-0.0041048454
-0.068915587
-0.0051122503
-0.072936965
-0.0061227173
-0.075954755
-0.0072217295
-0.0797553
-0.0083440251
-0.083399692
-0.0095424584
-0.087366603
-0.010787322
-0.091458779
-0.01209995
-0.095757518
-0.013474421
-0.10025067
-0.014917688
-0.10494933
-0.016432033
-0.10986371
-0.018021569
-0.11500165
-0.019690016
-0.12037393
-0.021441151
-0.12599056
-0.023278871
-0.13186197
-0.025207923
-0.13799947
-0.027231858
-0.14441533
-0.029356092
-0.15112083
-0.031584836
-0.15813008
-0.03392229
-0.16545608
-0.036373771
-0.17311326
-0.038943238
-0.18111688
-0.041635639
-0.18948271
-0.04445503
-0.19822732
-0.047406407
-0.20736831
-0.050492404
-0.21692498
-0.053717208
-0.22691685
-0.05708391
-0.23736414
-0.060594606
-0.24829047
-0.064251189
-0.25971842
-0.068054683
-0.27167313
-0.072004695
-0.28418174
-0.076100126
-0.29727225
-0.080339103
-0.31097464
-0.08471768
-0.32532113
-0.089231135
-0.3403456
-0.093873676
-0.35608409
-0.098637042
-0.3725754
-0.10351261
-0.38985964
-0.1084901
-0.40798051
-0.11355775
-0.42698418
-0.11870364
-0.44691806
-0.1239133
-0.4678351
-0.12917402
-0.48978784
-0.13447048
-0.51283449
-0.13978812
-0.53703509
-0.14511218
-0.56245346
-0.15042717
-0.58915655
-0.15571867
-0.61721527
-0.16097278
-0.64670334
-0.16617447
-0.67770043
-0.17131024
-0.71028788
-0.17636369
-0.74455289
-0.18131676
-0.78058712
-0.18614769
-0.81848537
-0.19082861
-0.85834936
-0.19532348
-0.90028373
-0.19958494
-0.94440112
-0.203552
-0.99081999
-0.20714658
-1.0396655
-0.21027386
-1.091072
-0.21282597
-1.1451793
-0.2146716
-1.202135
-0.21567351
-1.2620581
-0.21566854
-1.3250568
-0.21448328
-1.3911792
-0.21190224
-1.4605919
-0.20767562
-1.5338576
-0.20157743
-1.6123095
-0.19326804
-1.697897
-0.18267146
-1.7925277
-0.16938075
-1.895332
-0.15311239
-2.0018989
-0.13490046
-2.103069
-0.11456305
-2.1781848
-2.2389465
-0.00054316546
-0.049859522
-0.0013152836
-0.062253409
-0.0020607921
-0.06111616
-0.0029393566
-0.066325649
-0.0037887956
-0.068193597
-0.004736815
-0.072123801
-0.005679783
-0.07515353
-0.006713562
-0.078871203
-0.0077634373
-0.082507943
-0.0088884029
-0.086408398
-0.010058377
-0.090464743
-0.011293846
-0.094707587
-0.012590766
-0.099149451
-0.01395534
-0.10379113
-0.01539053
-0.10864612
-0.016899886
-0.11372167
-0.018487658
-0.11902789
-0.020158084
-0.12457478
-0.021915345
-0.13037285
-0.023763917
-0.13643307
-0.025708991
-0.14276702
-0.027754291
-0.14938739
-0.029905741
-0.15630606
-0.032168232
-0.16353703
-0.034546522
-0.17109477
-0.037046028
-0.17899383
-0.039671971
-0.18725006
-0.04242913
-0.19588037
-0.045322099
-0.20490237
-0.048355519
-0.21433517
-0.051533448
-0.22419865
-0.054859238
-0.23451354
-0.058335791
-0.24530363
-0.061965638
-0.2565916
-0.065749674
-0.26840389
-0.069688275
-0.28076785
-0.073780752
-0.29371215
-0.078025299
-0.30726752
-0.08241843
-0.32146748
-0.086955767
-0.33634641
-0.091630985
-0.35194194
-0.096437181
-0.36829312
-0.10136495
-0.38544237
-0.1064043
-0.40343388
-0.1115444
-0.42231475
-0.11677213
-0.44213504
-0.12207462
-0.46294799
-0.12743789
-0.48480813
-0.13284745
-0.50777525
-0.13828934
-0.53191027
-0.14374826
-0.55728008
-0.14920999
-0.58395259
-0.15466017
-0.61200125
-0.16008514
-0.6415019
-0.1654724
-0.67253604
-0.17080886
-0.70518854
-0.17608065
-0.73955015
-0.181274
-0.77571491
-0.18637143
-0.81378314
-0.1913527
-0.85386024
-0.19619107
-0.89605718
-0.20085275
-0.94049215
-0.20529217
-0.98729088
-0.20944758
-1.0365855
-0.21324156
-1.088515
-0.21658391
-1.1432227
-0.21937283
-1.2008531
-0.22147698
-1.2615318
-0.22276355
-1.3253441
-0.22305168
-1.3923733
-0.22213342
-1.4628368
-0.21975398
-1.537447
-0.21566988
-1.6177097
-0.20960911
-1.7057021
-0.20154009
-1.8031554
-0.19112138
-1.908666
-0.17812005
-2.017008
-0.16334987
-2.1178797
-0.14653225
-2.1925135
-2.2550252
-0.00049387742
-0.049464504
-0.0012253532
-0.061628303
-0.0019054552
-0.060546938
-0.0027236107
-0.065624831
-0.0034954469
-0.067545203
-0.0043890883
-0.071361071
-0.0052660842
-0.074413772
-0.0062380844
-0.078044181
-0.0072241526
-0.081675357
-0.0082856358
-0.085508916
-0.0093935792
-0.089527825
-0.010565633
-0.093716041
-0.011799562
-0.098106076
-0.013100339
-0.10269148
-0.014471264
-0.10748749
-0.015916701
-0.11250026
-0.01744065
-0.11774029
-0.01904747
-0.12321724
-0.020742199
-0.12894092
-0.022529312
-0.13492287
-0.024414441
-0.1411735
-0.02640287
-0.14770583
-0.028500217
-0.15453138
-0.030711971
-0.16166421
-0.033044105
-0.16911829
-0.035502656
-0.176908
-0.038092469
-0.18505029
-0.040819818
-0.19356054
-0.043689775
-0.20245742
-0.046707274
-0.21176001
-0.049877209
-0.22148804
-0.053203146
-0.23166334
-0.056689156
-0.24230894
-0.060336797
-0.25344975
-0.064148448
-0.26511106
-0.068124845
-0.27732152
-0.072265079
-0.29011109
-0.076567507
-0.30351081
-0.081029499
-0.31755478
-0.085646366
-0.332279
-0.09041269
-0.34772143
-0.095320601
-0.36392321
-0.10036209
-0.38092656
-0.10552728
-0.39877741
-0.11080431
-0.4175248
-0.11618141
-0.43721895
-0.12164651
-0.45791385
-0.127185
-0.47966724
-0.13278413
-0.50253804
-0.13842883
-0.52659075
-0.14410621
-0.55189159
-0.14980177
-0.57851205
-0.1555022
-0.60652663
-0.16119495
-0.63601304
-0.16686828
-0.6670549
-0.17251095
-0.69973954
-0.17811253
-0.73415991
-0.1836608
-0.77041465
-0.18914337
-0.80860671
-0.19454485
-0.84884662
-0.19984752
-0.89124931
-0.20502754
-0.93593904
-0.21005307
-0.98304597
-0.21487843
-1.03271
-0.21944563
-1.0850755
-0.2236854
-1.1402879
-0.22751261
-1.1984911
-0.23082674
-1.2597997
-0.23349796
-1.3243047
-0.23537092
-1.3921063
-0.23622407
-1.4635209
-0.23580617
-1.5394023
-0.23388707
-1.6214166
-0.23026798
-1.7117678
-0.22490755
-1.811761
-0.21759158
-1.9195282
-0.2081148
-2.0290126
-0.19701632
-2.1292756
-0.18403569
-2.2035472
-2.2672533
-0.00045116549
-0.04910819
-0.0011498011
-0.061032194
-0.0017744592
-0.060029167
-0.0025429003
-0.064969872
-0.0032518955
-0.066955698
-0.0040995507
-0.0706412
-0.0049160687
-0.073730921
-0.0058234018
-0.077277823
-0.0067663944
-0.080881052
-0.0077810021
-0.084651388
-0.0088420019
-0.088632819
-0.0099641007
-0.092769328
-0.011147776
-0.097107765
-0.012397585
-0.10163756
-0.013718049
-0.10637402
-0.015113189
-0.11132382
-0.016588451
-0.11649606
-0.018148477
-0.12190119
-0.019798679
-0.12754827
-0.021545041
-0.13344827
-0.023392764
-0.13961237
-0.02534864
-0.14605198
-0.027418436
-0.15277964
-0.029608338
-0.15980894
-0.031925163
-0.16715317
-0.034374875
-0.1748275
-0.036964624
-0.18284761
-0.03970003
-0.19123029
-0.042586731
-0.19999406
-0.045631027
-0.20915719
-0.048837359
-0.21874107
-0.052210451
-0.22876704
-0.055753789
-0.23925909
-0.059470918
-0.25024181
-0.06336289
-0.26174266
-0.067430912
-0.27378977
-0.071675146
-0.28641377
-0.076093737
-0.2996473
-0.080683705
-0.31352514
-0.085440984
-0.32808392
-0.090360201
-0.34336244
-0.095434174
-0.35940321
-0.10065487
-0.37624892
-0.10601224
-0.39394727
-0.11149624
-0.41254721
-0.11709514
-0.43210073
-0.12279652
-0.45266287
-0.12858842
-0.4742915
-0.13445705
-0.49704813
-0.14039019
-0.52099679
-0.14637415
-0.54620655
-0.15239644
-0.57274946
-0.15844524
-0.60070147
-0.16450878
-0.63014267
-0.17057723
-0.66115751
-0.17664089
-0.69383611
-0.18269144
-0.72827316
-0.18872017
-0.76457074
-0.19471801
-0.80283493
-0.20067552
-0.84317946
-0.20658023
-0.88572485
-0.21241665
-0.93059877
-0.21816263
-0.97793611
-0.22378984
-1.0278813
-0.22926095
-1.0805852
-0.23452402
-1.1361966
-0.23951355
-1.1948533
-0.24415132
-1.2566613
-0.24833029
-1.3217225
-0.25189773
-1.3901783
-0.25464568
-1.4624431
-0.25632845
-1.5395357
-0.25674278
-1.6232736
-0.25576472
-1.7158557
-0.2533489
-1.8182243
-0.24935685
-1.9278944
-0.24371628
-2.0380538
-0.23664853
-2.137516
-0.22797864
-2.2116234
-2.276048
-0.00040633198
-0.048792885
-0.0010760772
-0.060461313
-0.0016492306
-0.059558832
-0.002370791
-0.064357887
-0.0030327539
-0.066408841
-0.0038519134
-0.06994709
-0.0046327277
-0.073078786
-0.0055274401
-0.076519927
-0.0064283076
-0.080124024
-0.0073965247
-0.083835421
-0.0084142834
-0.08777617
-0.0094928517
-0.091861235
-0.01063522
-0.096145779
-0.011845598
-0.10061804
-0.013128941
-0.1052926
-0.014490464
-0.1101759
-0.015934752
-0.11527769
-0.017468438
-0.12060638
-0.019097025
-0.1261722
-0.020826845
-0.13198527
-0.022664426
-0.13805659
-0.024616414
-0.14439744
-0.026689777
-0.15102001
-0.028892355
-0.157937
-0.031230145
-0.16516348
-0.033711091
-0.17271263
-0.036341669
-0.1806015
-0.039128897
-0.18884627
-0.042079319
-0.19746577
-0.045198789
-0.20647882
-0.048492594
-0.21590719
-0.051965746
-0.22577229
-0.055622305
-0.23609881
-0.059464869
-0.24691252
-0.063495833
-0.25824075
-0.067716366
-0.27011253
-0.0721258
-0.2825599
-0.076723019
-0.29561554
-0.081505369
-0.30931529
-0.086468793
-0.32369671
-0.091607862
-0.33879944
-0.096916657
-0.35466599
-0.10238656
-0.37134133
-0.10800899
-0.38887275
-0.11377413
-0.40731029
-0.11967117
-0.42670694
-0.12568915
-0.44711814
-0.13181669
-0.4686026
-0.13804206
-0.49122285
-0.14435362
-0.51504367
-0.15074017
-0.54013491
-0.15719
-0.56657064
-0.1636928
-0.59442733
-0.17023881
-0.62378683
-0.17681991
-0.65473449
-0.18342903
-0.68736219
-0.1900594
-0.72176738
-0.19670563
-0.75805392
-0.20336263
-0.79633054
-0.21002498
-0.83671421
-0.21668636
-0.87932907
-0.22333735
-0.92430723
-0.22996465
-0.97178825
-0.23655393
-1.0219187
-0.24308358
-1.0748535
-0.24952004
-1.1307414
-0.25581874
-1.1897168
-0.26192266
-1.2518861
-0.26774755
-1.3173635
-0.27315748
-1.3863444
-0.27794744
-1.4593749
-0.28190802
-1.537622
-0.28487072
-1.6230524
-0.28678401
-1.7177797
-0.28762152
-1.8223337
-0.28725898
-1.9335917
-0.28573155
-2.0441131
-0.28330906
-2.1426366
-0.27935055
-2.216769
-2.2821531
-0.00036413953
-0.048516358
-0.0010140161
-0.059906957
-0.0015479208
-0.059124194
-0.0022401936
-0.063771834
-0.0028795161
-0.065880585
-0.0036720148
-0.069267266
-0.0044284462
-0.072446307
-0.0052969455
-0.075783351
-0.0061658196
-0.079394832
-0.007100229
-0.083048928
-0.0080893151
-0.086943707
-0.0091404343
-0.090975971
-0.010258618
-0.095203247
-0.011448145
-0.099614546
-0.012714656
-0.10422313
-0.014063637
-0.10903561
-0.01550146
-0.11406088
-0.017034224
-0.11930763
-0.018668683
-0.12478547
-0.020412342
-0.13050377
-0.022271992
-0.13647425
-0.024255903
-0.1427067
-0.026371166
-0.14921448
-0.028625847
-0.1560093
-0.031028171
-0.16310602
-0.033585441
-0.17051869
-0.036305643
-0.17826361
-0.039195922
-0.18635768
-0.042262841
-0.19482023
-0.045513119
-0.20366975
-0.048952496
-0.21292882
-0.052585389
-0.22261996
-0.056415745
-0.23276808
-0.060447066
-0.24339913
-0.064681312
-0.25454168
-0.06911906
-0.26622575
-0.073760542
-0.27848335
-0.078604389
-0.29134831
-0.083647813
-0.30485742
-0.088887423
-0.31904828
-0.094318045
-0.33396181
-0.099933491
-0.34964096
-0.10572698
-0.36613079
-0.11169081
-0.38347913
-0.11781583
-0.4017372
-0.12409297
-0.42095786
-0.13051251
-0.44119737
-0.13706474
-0.46251468
-0.14373997
-0.48497281
-0.15052798
-0.50863771
-0.15741956
-0.53357914
-0.16440557
-0.55987242
-0.17147725
-0.58759529
-0.1786275
-0.61683003
-0.18584986
-0.64766372
-0.19313963
-0.68018904
-0.20049256
-0.71450592
-0.20790688
-0.7507188
-0.21538036
-0.78893985
-0.22291174
-0.82928801
-0.23050007
-0.87188981
-0.23814279
-0.91688149
-0.24583575
-0.96440645
-0.25357247
-1.0146148
-0.26134392
-1.0676597
-0.26913399
-1.12369
-0.27692321
-1.1828389
-0.28467401
-1.2452211
-0.2923208
-1.3109689
-0.29974308
-1.3803547
-0.30677987
-1.4540529
-0.3132487
-1.5334076
-0.31904222
-1.6204945
-0.32416402
-1.717278
-0.32863085
-1.8237637
-0.33231903
-1.9361828
-0.33529367
-2.046732
-0.33782776
-2.1442988
-0.33843111
-2.218713
-2.2849968
-0.00032381452
-0.0482766
-0.00096134659
-0.059361413
-0.001464727
-0.058716255
-0.0021810095
-0.06315804
-0.0028034859
-0.065365267
-0.0035748247
-0.068610766
-0.00430418
-0.071837244
-0.0051265322
-0.075088918
-0.0059811451
-0.078675577
-0.006899581
-0.082273973
-0.007878158
-0.086117202
-0.0089210822
-0.090094281
-0.010035502
-0.094259788
-0.011226251
-0.098605109
-0.012499741
-0.10314194
-0.013862454
-0.10787685
-0.015321399
-0.11281825
-0.016884032
-0.11797439
-0.018557951
-0.12335476
-0.020350666
-0.12896885
-0.02227165
-0.13482639
-0.024328133
-0.14093945
-0.026529811
-0.14731891
-0.028884698
-0.15397812
-0.031401336
-0.16093141
-0.034088443
-0.16819258
-0.036953931
-0.17577868
-0.040005145
-0.18370709
-0.043249712
-0.19199673
-0.0466936
-0.20066762
-0.050342172
-0.20974278
-0.054200581
-0.21924472
-0.058272438
-0.22919967
-0.062560774
-0.23963388
-0.067067303
-0.25057691
-0.071792832
-0.26205936
-0.076737094
-0.27411389
-0.081898736
-0.28677498
-0.087275849
-0.30007945
-0.092864765
-0.31406614
-0.098661353
-0.32877581
-0.1046606
-0.34425172
-0.11085652
-0.36053936
-0.11724203
-0.37768717
-0.12381049
-0.39574566
-0.13055464
-0.41476816
-0.1374666
-0.43481161
-0.14453893
-0.45593468
-0.15176405
-0.4782008
-0.15913469
-0.50167601
-0.16664316
-0.52643118
-0.17428363
-0.55254074
-0.18204962
-0.58008445
-0.18993619
-0.60914492
-0.19793979
-0.63980991
-0.20605795
-0.6721734
-0.2142901
-0.706336
-0.22263646
-0.74240424
-0.23109911
-0.7804914
-0.23968104
-0.82071848
-0.24838521
-0.86321486
-0.25721604
-0.90811796
-0.26617726
-0.95557444
-0.27527152
-1.0057363
-0.2845
-1.0587582
-0.29386563
-1.1147899
-0.30336651
-1.1739646
-0.31298552
-1.2364002
-0.32267637
-1.3022685
-0.33235626
-1.3719299
-0.34190127
-1.4461995
-0.35117864
-1.52661
-0.36014246
-1.6152982
-0.368844
-1.7140062
-0.3773297
-1.82208
-0.38545388
-1.9350766
-0.39315346
-2.0452372
-0.40059287
-2.1420385
-0.40587398
-2.2166998
-2.2831974
-0.00028587077
-0.048071256
-0.00092152864
-0.05881419
-0.0013968853
-0.058332581
-0.0021382013
-0.062514692
-0.0027388412
-0.064867631
-0.003496322
-0.067963222
-0.0042163928
-0.071233539
-0.0050349101
-0.074393966
-0.005891079
-0.077950448
-0.0068098501
-0.08149429
-0.0077959713
-0.085278721
-0.0088514729
-0.089195532
-0.0099849415
-0.093292777
-0.011202087
-0.097564756
-0.012510335
-0.10202148
-0.013917177
-0.10666948
-0.015430619
-0.11151669
-0.01705882
-0.11657124
-0.018811091
-0.12184148
-0.020696215
-0.12733745
-0.022723352
-0.13306853
-0.024902289
-0.13904616
-0.02724203
-0.14528199
-0.029752112
-0.15178885
-0.032442041
-0.15858103
-0.035319895
-0.16567377
-0.038394126
-0.17308364
-0.041672488
-0.18082866
-0.045162059
-0.1889283
-0.048868167
-0.19740422
-0.052797167
-0.20627821
-0.056952517
-0.21557552
-0.061338354
-0.22532143
-0.065956429
-0.23554435
-0.070808183
-0.24627382
-0.075894749
-0.25754039
-0.081215759
-0.26937783
-0.086769903
-0.28182109
-0.092555476
-0.29490688
-0.098570172
-0.30867405
-0.10481065
-0.32316378
-0.11127311
-0.33841916
-0.11795291
-0.35448593
-0.12484575
-0.37141171
-0.13194661
-0.38924736
-0.13925021
-0.40804631
-0.14675235
-0.42786433
-0.15444746
-0.44876147
-0.16233138
-0.47079979
-0.17039932
-0.49404619
-0.17864732
-0.518571
-0.18707108
-0.54444971
-0.19566811
-0.57176129
-0.20443645
-0.60058929
-0.21337488
-0.6310226
-0.22248407
-0.66315537
-0.23176662
-0.6970886
-0.24122614
-0.73293034
-0.25086814
-0.77079478
-0.26069954
-0.81080459
-0.27072972
-0.85308965
-0.28096758
-0.89779089
-0.29142465
-0.94505622
-0.30211452
-0.99504021
-0.31305336
-1.0478989
-0.32425845
-1.1037783
-0.33574126
-1.1628117
-0.34750199
-1.2251399
-0.35952905
-1.2909787
-0.37177617
-1.3607861
-0.38414718
-1.4355227
-0.3966129
-1.5169005
-0.40915634
-1.6070824
-0.42185517
-1.7075004
-0.434733
-1.8167233
-0.44768605
-1.9295032
-0.46039153
-2.0386134
-0.47265781
-2.1346895
-0.48235646
-2.2097208
-2.2758581
-0.00026237007
-0.047886089
-0.00091687138
-0.058244669
-0.0013862116
-0.057951297
-0.0021165182
-0.061878973
-0.0027075425
-0.064375914
-0.0034715361
-0.067305426
-0.0042064385
-0.070611008
-0.0050325598
-0.073687422
-0.0059094986
-0.077200451
-0.0068498646
-0.080688862
-0.0078659217
-0.084406084
-0.0089589529
-0.088255007
-0.010138772
-0.092275135
-0.011412325
-0.096463718
-0.012788135
-0.10082918
-0.014274935
-0.10537794
-0.015882049
-0.1101173
-0.017619208
-0.11505508
-0.019495964
-0.12019979
-0.021523214
-0.12556019
-0.023710699
-0.1311468
-0.026069028
-0.13697022
-0.028607942
-0.14304297
-0.031337424
-0.14937762
-0.034266828
-0.15598909
-0.037404967
-0.1628931
-0.040759501
-0.17010731
-0.044338094
-0.17764968
-0.04814657
-0.1855414
-0.052191132
-0.19380362
-0.056475561
-0.20246041
-0.061003748
-0.2115367
-0.065778485
-0.22105867
-0.070801509
-0.23105551
-0.076074113
-0.2415569
-0.081596949
-0.25259369
-0.087369664
-0.26420024
-0.093392165
-0.2764108
-0.099663223
-0.28926264
-0.10618173
-0.30279393
-0.11294601
-0.31704574
-0.11995414
-0.33206079
-0.12720426
-0.34788408
-0.13469402
-0.36456324
-0.14242123
-0.38214861
-0.15038444
-0.4006926
-0.15858175
-0.42025124
-0.16701176
-0.44088389
-0.17567277
-0.46265275
-0.18456366
-0.48562404
-0.19368342
-0.5098681
-0.2030324
-0.53545936
-0.21261072
-0.56247773
-0.22241978
-0.5910065
-0.23246144
-0.6211356
-0.24274025
-0.65295833
-0.25326117
-0.68657735
-0.26403191
-0.72210028
-0.27506222
-0.7596421
-0.2863644
-0.7993264
-0.29795269
-0.8412848
-0.30984447
-0.88565893
-0.32206004
-0.93259848
-0.33462327
-0.98225924
-0.34756261
-1.0347976
-0.36090922
-1.0903631
-0.37469484
-1.1490974
-0.38894236
-1.21116
-0.40366148
-1.2768143
-0.418838
-1.3466315
-0.43445193
-1.4217255
-0.45050711
-1.5039235
-0.46707738
-1.5953697
-0.48423398
-1.6971159
-0.50186992
-1.8069441
-0.51981615
-1.9187591
-0.53771474
-2.026056
-0.55476408
-2.1212571
-0.56888116
-2.1966589
-2.2623516
-0.0002422134
-0.047717807
-0.00092577342
-0.057642647
-0.0014006998
-0.057560877
-0.0021404642
-0.061230129
-0.0027406848
-0.063871401
-0.0035192919
-0.06662926
-0.0042839649
-0.069954927
-0.0051344756
-0.072952591
-0.0060517587
-0.076406178
-0.0070370364
-0.079834525
-0.008108216
-0.083474296
-0.0092672157
-0.087244453
-0.010524852
-0.091175613
-0.011889726
-0.095267302
-0.013371777
-0.09952663
-0.014981249
-0.10395975
-0.016728843
-0.10857356
-0.018625641
-0.11337552
-0.020682916
-0.11837398
-0.0229116
-0.12357807
-0.025323128
-0.12899784
-0.027928096
-0.13464475
-0.030736679
-0.14053171
-0.033759009
-0.14667138
-0.037003748
-0.15308008
-0.040478989
-0.1597741
-0.044192676
-0.16677118
-0.048150243
-0.17409172
-0.052357392
-0.18175653
-0.056818335
-0.18978815
-0.061536609
-0.19821116
-0.066515166
-0.2070509
-0.071755016
-0.21633527
-0.077258823
-0.22609156
-0.083027101
-0.23635131
-0.089060527
-0.24714486
-0.095360324
-0.25850563
-0.10192657
-0.27046854
-0.1087607
-0.28306895
-0.11586305
-0.29634549
-0.12323413
-0.31033844
-0.13087459
-0.32508964
-0.13878562
-0.34064298
-0.14696801
-0.35704596
-0.15542327
-0.37434777
-0.16415338
-0.39259999
-0.17316028
-0.4118584
-0.18244622
-0.43218164
-0.19201387
-0.45363103
-0.20186552
-0.4762729
-0.21200444
-0.50017637
-0.22243354
-0.52541638
-0.23315803
-0.55207076
-0.24418229
-0.58022428
-0.25551279
-0.60996586
-0.26715624
-0.64139012
-0.27912271
-0.67459837
-0.29142367
-0.70969924
-0.30407349
-0.74680798
-0.317091
-0.78604805
-0.33049753
-0.82755338
-0.34431982
-0.87146552
-0.35858944
-0.91793523
-0.37334299
-0.96711939
-0.38862199
-1.0191762
-0.40447259
-1.074258
-0.42094185
-1.1325172
-0.43807348
-1.194141
-0.45589784
-1.2594547
-0.47443998
-1.3291279
-0.49372577
-1.4044113
-0.51382936
-1.4872096
-0.53489299
-1.5795394
-0.55697122
-1.682024
-0.57975551
-1.7917448
-0.60263159
-1.9021729
-0.62595197
-2.0070436
-0.64780882
-2.1009313
-0.66644951
-2.1767742
-2.2423575
-0.00022550421
-0.047563073
-0.00095092996
-0.056995419
-0.0014374226
-0.057155509
-0.0022077428
-0.060547331
-0.0028379989
-0.063333525
-0.0036458641
-0.065920246
-0.0044612465
-0.069244482
-0.0053577489
-0.07216804
-0.0063389346
-0.075544221
-0.007396712
-0.078903874
-0.0085530509
-0.082453497
-0.0098118247
-0.086130272
-0.011185131
-0.089956568
-0.0126837
-0.093933373
-0.014319067
-0.098066989
-0.016103313
-0.1023631
-0.018048586
-0.10682855
-0.020167161
-0.11147073
-0.022471204
-0.11629812
-0.024972565
-0.12132022
-0.027682378
-0.12654779
-0.030611593
-0.1319925
-0.033770386
-0.13766806
-0.037167208
-0.14358883
-0.040810484
-0.14977116
-0.044706996
-0.15623294
-0.048862354
-0.16299303
-0.053281546
-0.1700724
-0.057968255
-0.17749305
-0.062925238
-0.18527833
-0.068154528
-0.19345341
-0.073658328
-0.2020433
-0.079438004
-0.21107652
-0.085494991
-0.22058005
-0.091831205
-0.23058468
-0.098448401
-0.24112057
-0.10534875
-0.25222034
-0.11253558
-0.26391723
-0.12001089
-0.2762474
-0.12777877
-0.28924676
-0.13584243
-0.30295579
-0.14420683
-0.31741386
-0.15287541
-0.33266585
-0.16185345
-0.34875681
-0.17114698
-0.3657348
-0.18076117
-0.38365176
-0.1907027
-0.40256147
-0.20097833
-0.42252188
-0.21159431
-0.44359416
-0.22255787
-0.46584306
-0.23387576
-0.48933783
-0.24555663
-0.51415132
-0.25760819
-0.54036232
-0.2700398
-0.56805416
-0.28286195
-0.59731533
-0.29608594
-0.62824097
-0.30972545
-0.6609322
-0.32379814
-0.69549649
-0.33832451
-0.73205033
-0.35332988
-0.77071802
-0.36884615
-0.8116333
-0.38491167
-0.85493824
-0.40157114
-0.90078453
-0.41887521
-0.94932988
-0.43688136
-1.0007326
-0.45564874
-1.0551514
-0.47523651
-1.1127518
-0.49570104
-1.173751
-0.51709298
-1.2385352
-0.53946594
-1.3078664
-0.56288873
-1.3831039
-0.58749458
-1.4661634
-0.61348257
-1.5588397
-0.64090718
-1.6612764
-0.66931952
-1.7698785
-0.69732115
-1.8785223
-0.72613901
-1.9807552
-0.75296871
-2.0728899
-0.77650386
-2.1495435
-2.2156705
-0.00021458113
-0.04741617
-0.0010013997
-0.05628352
-0.0015054378
-0.056729352
-0.002320134
-0.059816793
-0.0030023987
-0.062740223
-0.0038579854
-0.065160004
-0.00474787
-0.068456026
-0.0057157635
-0.071308497
-0.0067875646
-0.074588037
-0.0079500167
-0.077864901
-0.0092277171
-0.081307693
-0.010627847
-0.084871097
-0.01216421
-0.088570865
-0.013849632
-0.092409038
-0.015697522
-0.096391351
-0.017721278
-0.10052357
-0.019934266
-0.10481258
-0.022349435
-0.10926626
-0.024979349
-0.11389349
-0.027835798
-0.11870459
-0.030929843
-0.12371107
-0.034271151
-0.12892603
-0.037868295
-0.13436425
-0.041729004
-0.14004097
-0.045858854
-0.14597465
-0.050263045
-0.15218355
-0.054944547
-0.15868869
-0.059906256
-0.16551106
-0.065150243
-0.17267341
-0.070677766
-0.18019979
-0.076490547
-0.18811476
-0.082589749
-0.19644375
-0.088977719
-0.2052139
-0.095656625
-0.21445215
-0.10263009
-0.22418757
-0.10990151
-0.23445023
-0.11747623
-0.24527035
-0.12535907
-0.25668128
-0.13355714
-0.26871625
-0.14207636
-0.28141175
-0.15092529
-0.29480496
-0.1601107
-0.30893638
-0.16964197
-0.32384768
-0.1795287
-0.33958319
-0.18978036
-0.35619055
-0.20040764
-0.37371993
-0.21142152
-0.3922241
-0.22283309
-0.41176009
-0.23465392
-0.43238775
-0.24689513
-0.4541715
-0.2595692
-0.47717865
-0.27268821
-0.50148208
-0.28626557