/*--------------------------------*- C++ -*----------------------------------*\
  =========                 |
  \\      /  F ield         | OpenFOAM: The Open Source CFD Toolbox
   \\    /   O peration     | Website:  https://openfoam.org
    \\  /    A nd           | Version:  12
     \\/     M anipulation  |
\*---------------------------------------------------------------------------*/
FoamFile
{
    format      ascii;
    class       volScalarField;
    location    "0.007";
    object      alphat;
}
// * * * * * * * * * * * * * * * * * * * * * * * * * * * * * * * * * * * * * //

dimensions      [1 -1 -1 0 0 0 0];

internalField   nonuniform List<scalar> 
16000
(
4.8345019e-07
1.1919299e-05
1.8007981e-05
2.4565837e-05
1.9001776e-05
2.4497416e-05
1.8138863e-05
2.3541247e-05
1.9325228e-05
2.470418e-05
2.1736917e-05
2.4276733e-05
2.2694833e-05
2.3046865e-05
2.2498432e-05
2.2434588e-05
2.2337117e-05
2.2392039e-05
2.253073e-05
2.2764955e-05
2.308983e-05
2.3504754e-05
2.4007677e-05
2.4600046e-05
2.5285497e-05
2.6071733e-05
2.6970117e-05
2.7997387e-05
2.9173598e-05
3.0520606e-05
3.2062462e-05
3.3830157e-05
3.5862607e-05
3.8206757e-05
4.0919467e-05
4.4067906e-05
4.7731819e-05
5.2006607e-05
5.7011324e-05
6.2894846e-05
6.9833036e-05
7.8034657e-05
8.7764676e-05
9.9348864e-05
0.00011317542
0.00012971025
0.00014953074
0.00017333945
0.00020199058
0.00023652222
0.00027820044
0.00032857643
0.00038956246
0.00046355393
0.00055359071
0.00066358853
0.00079867697
0.00096569262
0.0011356808
0.0011388489
0.0011414903
0.0011436269
0.0011452484
0.0011464414
0.0011474951
0.0011487037
0.0011500909
0.0011517575
0.0011537296
0.0011558992
0.0011582813
0.001160905
0.0011637906
0.0011667712
0.0011695798
0.0011722655
0.0011759263
0.0011828496
0.0011843911
0.0012110259
4.3564299e-07
1.0893835e-05
1.6159021e-05
2.2327651e-05
1.7085121e-05
2.2001779e-05
1.6058126e-05
2.0865824e-05
1.7086158e-05
2.2128733e-05
1.9727823e-05
2.2100723e-05
2.0837357e-05
2.1038718e-05
2.05991e-05
2.0497379e-05
2.0419257e-05
2.0462785e-05
2.05935e-05
2.0811972e-05
2.111681e-05
2.1507551e-05
2.1982699e-05
2.2543135e-05
2.3192332e-05
2.3937355e-05
2.4787835e-05
2.5759162e-05
2.6870642e-05
2.8143757e-05
2.9601479e-05
3.1273148e-05
3.3196141e-05
3.54157e-05
3.7987235e-05
4.09766e-05
4.44625e-05
4.8538364e-05
5.3319676e-05
5.8953364e-05
6.5616203e-05
7.3514743e-05
8.2912143e-05
9.4137742e-05
0.00010758937
0.00012374254
0.00014319207
0.00016666913
0.00019507066
0.00022949543
0.00027128917
0.00032210012
0.0003839298
0.00045920091
0.00055078734
0.0006619506
0.00079603485
0.00095569479
0.0011333111
0.001136809
0.0011398372
0.0011424244
0.0011445724
0.0011462678
0.0011477617
0.0011494745
0.0011513612
0.0011534401
0.00115569
0.0011580729
0.0011605826
0.0011632605
0.0011661137
0.0011689968
0.0011717346
0.0011746355
0.0011789566
0.0011859279
0.0011894206
0.0012132375
3.9008361e-07
1.0074885e-05
1.4293405e-05
2.0205769e-05
1.5233351e-05
1.9460109e-05
1.4297728e-05
1.8327985e-05
1.5383915e-05
1.9794929e-05
1.8140727e-05
2.0064691e-05
1.9133888e-05
1.9173249e-05
1.8823839e-05
1.8702447e-05
1.8638027e-05
1.8676284e-05
1.8799378e-05
1.900374e-05
1.9288807e-05
1.9654248e-05
2.0099379e-05
2.0624591e-05
2.1232885e-05
2.1931577e-05
2.272872e-05
2.363835e-05
2.4678607e-05
2.5870424e-05
2.7235608e-05
2.8801566e-05
3.0603678e-05
3.2684744e-05
3.509771e-05
3.79057e-05
4.1184707e-05
4.502467e-05
4.9535073e-05
5.4855604e-05
6.1158002e-05
6.8639081e-05
7.7547393e-05
8.8195164e-05
0.00010096197
0.0001162926
0.00013473824
0.00015696712
0.00018378124
0.00021613233
0.00025513167
0.00030205576
0.00035830254
0.00042531896
0.00050443211
0.00059656557
0.00070180493
0.00081888878
0.00094485995
0.0010752233
0.0011396354
0.0011425604
0.0011450948
0.0011472207
0.0011491111
0.0011511569
0.0011533271
0.0011556275
0.0011580272
0.0011604962
0.0011630442
0.0011657152
0.0011685047
0.0011712806
0.0011739764
0.0011771261
0.0011820683
0.0011895017
0.0011949367
0.001214812
3.5390193e-07
9.46949e-06
1.553713e-05
1.8142388e-05
1.3611772e-05
1.7257179e-05
1.278658e-05
1.6170758e-05
1.3861906e-05
1.7763147e-05
1.6729374e-05
1.8244965e-05
1.7571078e-05
1.7478926e-05
1.7195739e-05
1.7063403e-05
1.7006512e-05
1.7038263e-05
1.7150172e-05
1.7336427e-05
1.7596992e-05
1.7931276e-05
1.8339422e-05
1.8821807e-05
1.9380311e-05
2.0022492e-05
2.0755152e-05
2.1590741e-05
2.2545591e-05
2.3639603e-05
2.4892924e-05
2.6330215e-05
2.7983812e-05
2.9892645e-05
3.2105281e-05
3.4679539e-05
3.7685296e-05
4.1205004e-05
4.5337053e-05
5.0205788e-05
5.5967682e-05
6.2797096e-05
7.091015e-05
8.0575807e-05
9.2122068e-05
0.0001059192
0.00012241599
0.00014214182
0.00016570845
0.00019380816
0.00022719903
0.00026669308
0.00031309477
0.00036713678
0.00042937381
0.00050007604
0.00057913749
0.00066605571
0.00076005045
0.00086035632
0.00096664678
0.001079549
0.0011467174
0.0011491246
0.0011512408
0.001153473
0.0011557851
0.0011581745
0.0011606161
0.0011630952
0.0011656323
0.0011682659
0.001170975
0.001173643
0.001176321
0.0011797443
0.0011853156
0.0011933573
0.0012001915
0.0012159245
3.1267757e-07
9.1000281e-06
1.6239399e-05
1.6613827e-05
1.2168258e-05
1.5335758e-05
1.1440811e-05
1.4273572e-05
1.25463e-05
1.5900723e-05
1.543038e-05
1.6490802e-05
1.6028146e-05
1.5831237e-05
1.5596814e-05
1.5460619e-05
1.5405163e-05
1.5427148e-05
1.5522583e-05
1.5684824e-05
1.5914368e-05
1.6210826e-05
1.6574223e-05
1.7005974e-05
1.7506817e-05
1.8083566e-05
1.8742609e-05
1.9494645e-05
2.0353934e-05
2.1338809e-05
2.2467636e-05
2.3762027e-05
2.5250826e-05
2.6968467e-05
2.8958275e-05
3.1271661e-05
3.3970892e-05
3.7129427e-05
4.0833434e-05
4.5189264e-05
5.0334914e-05
5.6420088e-05
6.3626423e-05
7.2175967e-05
8.2343665e-05
9.4428507e-05
0.00010878641
0.00012583032
0.00014602717
0.00016989575
0.00019798961
0.0002309015
0.00026922465
0.00031353449
0.00036435097
0.00042212501
0.00048725044
0.00056011278
0.00064118818
0.00073119686
0.00083129153
0.0009432893
0.0010699566
0.0011516784
0.0011538999
0.001156201
0.0011585496
0.0011609419
0.0011633633
0.001165814
0.0011683188
0.0011709008
0.001173518
0.0011760827
0.0011787805
0.0011825278
0.0011887421
0.0011973148
0.0012049129
0.0012165361
2.8191562e-07
8.8887926e-06
1.6689002e-05
1.713276e-05
1.1807003e-05
1.3678199e-05
1.02409e-05
1.2604419e-05
1.1462691e-05
1.4233651e-05
1.4234851e-05
1.4832029e-05
1.4516853e-05
1.4248317e-05
1.404121e-05
1.3903226e-05
1.3843322e-05
1.3852649e-05
1.3929135e-05
1.4065677e-05
1.4263199e-05
1.4522131e-05
1.4841042e-05
1.522283e-05
1.5667918e-05
1.6181528e-05
1.6770062e-05
1.7442659e-05
1.8211697e-05
1.9093916e-05
2.0106214e-05
2.1267522e-05
2.2603624e-05
2.4144915e-05
2.5930076e-05
2.8004838e-05
3.0424735e-05
3.3255552e-05
3.6573973e-05
4.0471363e-05
4.5070356e-05
5.0502281e-05
5.6924185e-05
6.4522873e-05
7.3537598e-05
8.4222541e-05
9.6877506e-05
0.00011185116
0.00012953748
0.00015038101
0.00017485976
0.00020350741
0.00023688918
0.00027560868
0.00032029758
0.00037162801
0.00043034638
0.00049732474
0.00057363454
0.00066064767
0.00076015602
0.00087451481
0.0010068226
0.0011546558
0.0011568921
0.0011591821
0.0011615009
0.001163848
0.0011662206
0.0011686295
0.0011710945
0.0011736137
0.0011761271
0.0011786013
0.001181387
0.0011855514
0.0011924041
0.0012012639
0.0012088351
0.0012163619
2.6074352e-07
8.7892174e-06
1.6001873e-05
1.6824999e-05
1.2568575e-05
1.2126482e-05
1.0504231e-05
1.1742716e-05
1.1209537e-05
1.2788722e-05
1.3095681e-05
1.3280072e-05
1.3037004e-05
1.2734612e-05
1.2540618e-05
1.2405069e-05
1.2341781e-05
1.2341753e-05
1.2403417e-05
1.2519772e-05
1.2691395e-05
1.2919958e-05
1.3202668e-05
1.3458961e-05
1.3846885e-05
1.4299493e-05
1.4821228e-05
1.5420291e-05
1.6107186e-05
1.6897049e-05
1.7805586e-05
1.8849522e-05
2.0052174e-05
2.1440629e-05
2.3049868e-05
2.4921199e-05
2.7104978e-05
2.9661217e-05
3.26605e-05
3.6463877e-05
4.0649019e-05
4.5592869e-05
5.1438915e-05
5.8351412e-05
6.654958e-05
7.6265212e-05
8.7770042e-05
0.00010138354
0.00011746911
0.00013644851
0.00015878071
0.00018499835
0.0002156893
0.00025151641
0.00029321925
0.00034163458
0.00039773715
0.00046268923
0.00053789889
0.00062509506
0.00072641748
0.00084451979
0.00098268048
0.0011449105
0.0011600821
0.0011623131
0.0011645671
0.0011668488
0.0011691657
0.0011715326
0.0011739529
0.0011763939
0.0011787933
0.0011812118
0.0011841935
0.0011888996
0.0011963372
0.0012051166
0.001211641
0.0012150667
2.3421099e-07
8.7272633e-06
1.5485184e-05
1.5187649e-05
1.120479e-05
1.0542861e-05
8.7718665e-06
1.0076609e-05
9.8693531e-06
1.1524658e-05
1.1924726e-05
1.1808784e-05
1.1591023e-05
1.1294695e-05
1.1115347e-05
1.099139e-05
1.0932426e-05
1.0931074e-05
1.091686e-05
1.100481e-05
1.1146672e-05
1.1343926e-05
1.1593574e-05
1.1894951e-05
1.2252618e-05
1.2669676e-05
1.3150522e-05
1.370289e-05
1.433624e-05
1.5064693e-05
1.5903584e-05
1.6868333e-05
1.7980846e-05
1.9266133e-05
2.0756952e-05
2.2491897e-05
2.4518259e-05
2.6892651e-05
2.968254e-05
3.2968011e-05
3.6844145e-05
4.1429414e-05
4.6861932e-05
5.3748931e-05
6.1435177e-05
7.0557876e-05
8.1378015e-05
9.4205432e-05
0.00010939465
0.00012736974
0.00014859464
0.00017362262
0.000203079
0.00023768853
0.00027828377
0.00032582775
0.00038145711
0.00044652961
0.0005226683
0.0006118144
0.00071629535
0.00083890949
0.00098300282
0.0011524646
0.0011633846
0.0011655335
0.0011677098
0.001169924
0.0011721903
0.0011745176
0.0011768831
0.0011792259
0.0011815128
0.0011839481
0.0011872745
0.0011926456
0.0012005125
0.0012087231
0.0012132465
0.0012123947
2.1414796e-07
8.6770316e-06
1.495528e-05
1.3288916e-05
8.9052792e-06
9.445895e-06
7.5440903e-06
9.0238588e-06
9.1189092e-06
1.0317491e-05
1.0740983e-05
1.0432875e-05
1.0227357e-05
9.9608798e-06
9.8009556e-06
9.6249381e-06
9.5496465e-06
9.5365973e-06
9.5777825e-06
9.6722703e-06
9.8136939e-06
1.0003298e-05
1.0241157e-05
1.052653e-05
1.0863655e-05
1.1256354e-05
1.1708996e-05
1.2229171e-05
1.2825672e-05
1.3511804e-05
1.4302903e-05
1.5213668e-05
1.6265317e-05
1.7481571e-05
1.8893937e-05
2.0539524e-05
2.2463991e-05
2.4722267e-05
2.7379949e-05
3.0514821e-05
3.4220605e-05
3.8611418e-05
4.3826243e-05
5.0016905e-05
5.737512e-05
6.6131653e-05
7.7229767e-05
8.9693232e-05
0.00010449231
0.00012206671
0.00014289738
0.00016756822
0.00019674774
0.00023122131
0.00027190384
0.00031986135
0.00037635305
0.00044287636
0.00052119743
0.00061338148
0.00072184083
0.00084941359
0.00099943813
0.0011647257
0.0011667492
0.0011688103
0.0011709102
0.0011730648
0.0011752891
0.0011775751
0.0011798673
0.0011820934
0.0011842976
0.0011868726
0.0011907179
0.0011968227
0.0012048274
0.0012117679
0.0012136599
0.001208227
1.968308e-07
8.6273263e-06
1.1940661e-05
1.1359593e-05
7.2498745e-06
8.4781793e-06
6.8346451e-06
8.0930219e-06
8.5005462e-06
9.2286142e-06
9.5880367e-06
9.1869357e-06
8.9869665e-06
8.6693853e-06
8.4962703e-06
8.388566e-06
8.3428961e-06
8.3510519e-06
8.4068705e-06
8.5077889e-06
8.6512689e-06
8.8385238e-06
9.0702036e-06
9.3460841e-06
9.6706462e-06
1.0048158e-05
1.0483085e-05
1.0983102e-05
1.1556614e-05
1.2216298e-05
1.2977735e-05
1.3855475e-05
1.487057e-05
1.6046075e-05
1.7413002e-05
1.9007902e-05
2.0875878e-05
2.3071485e-05
2.5660377e-05
2.8720488e-05
3.234531e-05
3.6648158e-05
4.1771362e-05
4.7866944e-05
5.5129637e-05
6.3793763e-05
7.4137595e-05
8.6464903e-05
0.00010208032
0.00011969527
0.00014064758
0.00016555725
0.00019513933
0.00023023829
0.00027184397
0.0003211094
0.00037938848
0.00044827814
0.00052963736
0.00062559765
0.00073859617
0.00087145241
0.0010274489
0.0011682105
0.001170147
0.0011721254
0.0011741589
0.0011762662
0.001178454
0.0011806872
0.0011828819
0.0011849881
0.0011871851
0.0011900757
0.0011946073
0.0012013881
0.0012090496
0.0012139509
0.0012122762
0.0012028387
1.8140303e-07
8.5799288e-06
9.4263059e-06
9.493654e-06
6.4363635e-06
7.5429579e-06
6.2587231e-06
7.2946225e-06
7.9280026e-06
8.2388402e-06
8.4803536e-06
7.9786269e-06
7.7309835e-06
7.5098384e-06
7.3813739e-06
7.3101093e-06
7.2910882e-06
7.3185152e-06
7.3876486e-06
7.497454e-06
7.645654e-06
7.8339452e-06
8.0640697e-06
8.3361585e-06
8.6547788e-06
9.0246838e-06
9.4506265e-06
9.9404936e-06
1.0502604e-05
1.114919e-05
1.1831796e-05
1.2683468e-05
1.3670787e-05
1.4816366e-05
1.6151023e-05
1.7711164e-05
1.9541868e-05
2.1697936e-05
2.42459e-05
2.7265007e-05
3.0850707e-05
3.5399238e-05
4.053344e-05
4.6657699e-05
5.3971495e-05
6.271573e-05
7.3185253e-05
8.5701631e-05
0.00010065963
0.00011853296
0.00014115498
0.00016676457
0.00019727278
0.00023358175
0.00027675062
0.00032800793
0.0003887808
0.00046073438
0.0005457845
0.00064609624
0.00076411102
0.00090261358
0.0010647856
0.0011717057
0.0011735602
0.0011754678
0.001177449
0.0011795202
0.0011816692
0.0011838282
0.0011859041
0.0011879224
0.0011902455
0.001193662
0.0011989965
0.0012061905
0.0012128965
0.0012150354
0.0012089498
0.001196764
1.6789496e-07
8.5271336e-06
7.570928e-06
8.3975978e-06
5.7640092e-06
6.713065e-06
5.757306e-06
6.5935881e-06
7.3632501e-06
7.3243192e-06
7.2899182e-06
6.8649734e-06
6.6634634e-06
6.5008916e-06
6.4113819e-06
6.3714526e-06
6.3762411e-06
6.4219173e-06
6.5047032e-06
6.6244905e-06
6.7797581e-06
6.9724016e-06
7.2049799e-06
7.478179e-06
7.7966684e-06
8.1283138e-06
8.5450954e-06
9.0257334e-06
9.5784349e-06
1.0214985e-05
1.0949471e-05
1.1800339e-05
1.2787912e-05
1.3934992e-05
1.5272954e-05
1.6838951e-05
1.8679139e-05
2.0849752e-05
2.3419701e-05
2.647128e-05
3.010404e-05
3.4440216e-05
3.9625746e-05
4.5829394e-05
5.3258988e-05
6.2711214e-05
7.3482643e-05
8.6394593e-05
0.00010186127
0.00012039173
0.0001425756
0.00017069944
0.00020257612
0.00024058909
0.00028586267
0.0003396932
0.00040356551
0.00047918973
0.00056851549
0.00067372941
0.00079728501
0.00094193674
0.0011106813
0.0011751931
0.0011769757
0.001178828
0.0011807719
0.0011828122
0.0011849087
0.0011869671
0.0011889234
0.0011909404
0.0011935831
0.0011977222
0.0012038514
0.0012109276
0.0012158653
0.0012143521
0.0012041035
0.0011905567
1.5596397e-07
8.4618214e-06
6.1492823e-06
7.3976492e-06
5.1615454e-06
5.969026e-06
5.3302249e-06
5.9667723e-06
6.6968861e-06
6.2863267e-06
6.2233625e-06
5.8963306e-06
5.7376954e-06
5.6231721e-06
5.5677364e-06
5.55564e-06
5.5824899e-06
5.6458984e-06
5.742921e-06
5.8741651e-06
6.0388419e-06
6.2389822e-06
6.4487029e-06
6.7208897e-06
7.0384711e-06
7.4055495e-06
7.8293828e-06
8.3175513e-06
8.8785544e-06
9.5244959e-06
1.0269746e-05
1.1132625e-05
1.2135101e-05
1.3300597e-05
1.4661447e-05
1.6256101e-05
1.8132558e-05
2.034925e-05
2.2978506e-05
2.6107102e-05
2.9839227e-05
3.4302458e-05
3.9655164e-05
4.6074691e-05
5.3781556e-05
6.3043704e-05
7.4185144e-05
8.7581095e-05
0.00010459208
0.00012403939
0.00014736662
0.0001753178
0.0002107541
0.00025093031
0.00029881479
0.00035576823
0.00042332442
0.00050322349
0.00059743884
0.00070818208
0.00083793021
0.00098938559
0.0011651822
0.0011786576
0.0011803822
0.0011821961
0.0011841137
0.0011861178
0.0011881375
0.0011900771
0.0011919562
0.0011941254
0.0011973222
0.0012022975
0.0012089956
0.001215277
0.0012174796
0.0012114077
0.0011981528
0.00118457
1.4544337e-07
8.3636551e-06
5.0491633e-06
6.5012559e-06
4.6203321e-06
5.3016582e-06
4.9689077e-06
5.326371e-06
5.8729367e-06
5.3916874e-06
5.2917984e-06
5.0526715e-06
4.9341745e-06
4.860313e-06
4.8356141e-06
4.8491689e-06
4.897197e-06
4.9783819e-06
5.0905755e-06
5.2143329e-06
5.3841208e-06
5.5895767e-06
5.8330537e-06
6.1175953e-06
6.4476071e-06
6.8276564e-06
7.2649564e-06
7.7679015e-06
8.3453337e-06
9.0096706e-06
9.7755832e-06
1.066186e-05
1.163592e-05
1.2822531e-05
1.4209548e-05
1.5836865e-05
1.7754771e-05
2.0024223e-05
2.2721356e-05
2.5938436e-05
2.9785965e-05
3.4664061e-05
4.0255441e-05
4.6977731e-05
5.506571e-05
6.4802773e-05
7.6541125e-05
9.0687183e-05
0.00010771888
0.00012938536
0.00015415464
0.00018387373
0.00021946384
0.00026450885
0.00031552159
0.00037616683
0.00044802673
0.00053286492
0.00063267962
0.00074971517
0.00088645065
0.0010454121
0.0011804915
0.0011820844
0.0011837686
0.0011855591
0.0011874525
0.0011894019
0.001191318
0.0011931491
0.0011950613
0.0011975985
0.001201566
0.0012073577
0.0012139808
0.0012185536
0.0012171238
0.0012065052
0.0011916431
0.0011792358
1.3615787e-07
8.1329315e-06
4.2287348e-06
5.6996921e-06
4.137189e-06
4.7081793e-06
4.652146e-06
4.6275411e-06
5.0493049e-06
4.5964791e-06
4.4850762e-06
4.3192401e-06
4.2390721e-06
4.2009387e-06
4.204635e-06
4.242376e-06
4.3111165e-06
4.3921729e-06
4.5143571e-06
4.6686903e-06
4.8561335e-06
5.078287e-06
5.3382782e-06
5.6393751e-06
5.9866725e-06
6.3850861e-06
6.841984e-06
7.3428995e-06
7.9376204e-06
8.6211396e-06
9.4084073e-06
1.0318509e-05
1.1374656e-05
1.2605931e-05
1.4046562e-05
1.5738591e-05
1.7735815e-05
2.0102963e-05
2.2921152e-05
2.6290061e-05
3.0328606e-05
3.518461e-05
4.1032512e-05
4.8082739e-05
5.6588487e-05
6.7418341e-05
7.9905316e-05
9.498066e-05
0.00011316437
0.00013507091
0.00016293842
0.00019478859
0.00023295774
0.00027857135
0.0003361023
0.00040106553
0.00047792386
0.00056846684
0.00067472283
0.00079895728
0.00094354741
0.0011105486
0.0011839021
0.0011854595
0.0011871223
0.0011888978
0.0011907557
0.0011926225
0.0011944233
0.001196211
0.0011983411
0.0012014968
0.0012063162
0.0012126206
0.0012184437
0.0012202749
0.0012140311
0.0012001259
0.001185218
0.001174834
1.2804703e-07
7.7748215e-06
3.7407181e-06
4.9866786e-06
3.7037621e-06
4.1804585e-06
4.1420392e-06
3.9948897e-06
4.26033e-06
3.8950921e-06
3.7938856e-06
3.6872845e-06
3.6431204e-06
3.6368921e-06
3.666899e-06
3.7135458e-06
3.7957798e-06
3.9092634e-06
4.0532591e-06
4.2280799e-06
4.4353411e-06
4.6772104e-06
4.957301e-06
5.2792306e-06
5.6350371e-06
6.0526404e-06
6.5298774e-06
7.0753368e-06
7.6998595e-06
8.4162984e-06
9.2402765e-06
1.019206e-05
1.1296315e-05
1.2583845e-05
1.4092208e-05
1.5865973e-05
1.7963285e-05
2.0453728e-05
2.3424013e-05
2.6983045e-05
3.1258095e-05
3.6409384e-05
4.2629546e-05
5.014564e-05
5.9235071e-05
7.0229389e-05
8.4270421e-05
0.00010046869
0.00012003295
0.00014364103
0.00017205881
0.00020816236
0.00024937567
0.0002986278
0.00035725963
0.00043081898
0.00051347205
0.00061061037
0.00072428437
0.00085670696
0.0010099166
0.0011850972
0.0011872334
0.0011887712
0.0011904259
0.0011921825
0.0011939803
0.0011957409
0.0011974566
0.0011993426
0.0012019288
0.001205907
0.001211528
0.001217672
0.0012215078
0.0012194773
0.0012085751
0.0011929676
0.0011794448
0.0011714421
1.2121948e-07
7.4553018e-06
3.3152607e-06
4.3444307e-06
3.3195852e-06
3.5517673e-06
3.6951159e-06
3.4171509e-06
3.547816e-06
3.2865269e-06
3.2085331e-06
3.1493145e-06
3.1380492e-06
3.1607325e-06
3.1989192e-06
3.2769432e-06
3.3852388e-06
3.5226361e-06
3.6893203e-06
3.8863715e-06
4.1159986e-06
4.3806849e-06
4.675061e-06
5.0186192e-06
5.4101445e-06
5.8557697e-06
6.3628622e-06
6.9404825e-06
7.5998763e-06
8.3550275e-06
9.2223793e-06
1.022351e-05
1.1384775e-05
1.273927e-05
1.4264518e-05
1.6119997e-05
1.8317972e-05
2.0933879e-05
2.4208539e-05
2.7995774e-05
3.2555354e-05
3.8060786e-05
4.4725402e-05
5.2797364e-05
6.2578995e-05
7.4435915e-05
8.8803743e-05
0.00010619913
0.00012837311
0.00015398644
0.00018485057
0.00022194996
0.00026893654
0.00032244406
0.00038608149
0.00046591193
0.00055527528
0.00066003024
0.00078219847
0.00092375071
0.0010860077
0.0011890585
0.0011904729
0.0011920057
0.0011936539
0.0011953719
0.0011970796
0.0011987399
0.001200472
0.0012026724
0.0012059728
0.0012108162
0.0012167463
0.0012218309
0.0012227516
0.00121571
0.0012013813
0.0011858789
0.001174695
0.0011690191
1.1581126e-07
5.9253355e-06
2.946982e-06
3.7574618e-06
2.9897417e-06
2.9702266e-06
3.2517591e-06
2.8957703e-06
2.9338609e-06
2.7657355e-06
2.7170876e-06
2.6970141e-06
2.707742e-06
2.7493895e-06
2.8252094e-06
2.9310072e-06
3.0648484e-06
3.2266155e-06
3.4172883e-06
3.6384195e-06
3.8867873e-06
4.1747806e-06
4.5023777e-06
4.8740094e-06
5.2949717e-06
5.7717039e-06
6.3120566e-06
6.9256235e-06
7.6242294e-06
8.403493e-06
9.3135534e-06
1.0362962e-05
1.1579812e-05
1.2999197e-05
1.466485e-05
1.6631225e-05
1.8965247e-05
2.175024e-05
2.5088786e-05
2.9106342e-05
3.3956928e-05
4.0117478e-05
4.7300204e-05
5.6022044e-05
6.6614018e-05
7.9478398e-05
9.5095974e-05
0.00011403907
0.00013824429
0.0001662037
0.00019992879
0.00024048825
0.00029191072
0.00035037769
0.0004198409
0.00050192246
0.0006040427
0.00071755102
0.00084930437
0.0010006987
0.0011719266
0.001192188
0.0011936055
0.0011951426
0.0011967702
0.001198419
0.0012000261
0.0012016452
0.0012035724
0.0012063388
0.0012104771
0.0012159995
0.0012215814
0.0012243369
0.0012211177
0.0012093629
0.0011934026
0.001179588
0.0011711862
0.0011674519
1.1101552e-07
4.4727224e-06
2.5951367e-06
3.2133132e-06
2.5613121e-06
2.4831198e-06
2.7837905e-06
2.4306711e-06
2.4198197e-06
2.3256301e-06
2.3095207e-06
2.3162839e-06
2.3573761e-06
2.4325529e-06
2.5375788e-06
2.6700241e-06
2.8292273e-06
3.0157902e-06
3.2281497e-06
3.4731082e-06
3.7517573e-06
4.067243e-06
4.4233962e-06
4.8248886e-06
5.2773702e-06
5.7876721e-06
6.364114e-06
7.0059476e-06
7.7433536e-06
8.5843975e-06
9.548558e-06
1.0660022e-05
1.1949249e-05
1.3454413e-05
1.5223256e-05
1.731511e-05
1.9803496e-05
2.2779532e-05
2.6355993e-05
3.067182e-05
3.5897572e-05
4.2241078e-05
5.0330391e-05
5.9797644e-05
7.1322846e-05
8.5351674e-05
0.00010241713
0.00012315458
0.00014831597
0.00018039003
0.00021744685
0.00026203972
0.00031549466
0.00038283121
0.00045904944
0.0005489297
0.00066055001
0.00078401426
0.00092630412
0.0010877971
0.0011938862
0.0011951874
0.0011966167
0.0011981512
0.0011997308
0.0012012847
0.0012028181
0.0012045329
0.0012068881
0.0012104477
0.0012154135
0.0012209994
0.0012251203
0.0012247511
0.001216286
0.0012013294
0.001185702
0.0011745331
0.0011687682
0.0011667521
1.0645161e-07
3.7210231e-06
2.2455687e-06
2.7099808e-06
2.2111517e-06
2.0739191e-06
2.2992558e-06
2.0213425e-06
1.9999089e-06
1.9633205e-06
1.97565e-06
2.016117e-06
2.0924278e-06
2.1978756e-06
2.3299436e-06
2.4877276e-06
2.6715359e-06
2.8804108e-06
3.1197506e-06
3.3907971e-06
3.6963827e-06
4.039945e-06
4.4256038e-06
4.858295e-06
5.3439677e-06
5.8898355e-06
6.4972999e-06
7.1887666e-06
7.9726503e-06
8.8656257e-06
9.8887119e-06
1.1068164e-05
1.243699e-05
1.403665e-05
1.591929e-05
1.8150146e-05
2.0810139e-05
2.3999399e-05
2.784211e-05
3.2491091e-05
3.8134869e-05
4.5332957e-05
5.378039e-05
6.4087489e-05
7.666975e-05
9.2024606e-05
0.00011074726
0.00013354598
0.00016275455
0.00019661781
0.00023753829
0.00028681364
0.00034588355
0.00042022497
0.00050425649
0.00060312846
0.00072556038
0.00086012854
0.0010135187
0.0011846782
0.0011967185
0.0011980422
0.001199482
0.0012009897
0.0012024896
0.0012039518
0.0012055069
0.0012075292
0.0012105575
0.0012149574
0.0012203885
0.0012252853
0.0012267994
0.0012219146
0.0012090291
0.0011927896
0.0011791056
0.001170869
0.001167216
0.0011664872
1.0334423e-07
3.0037547e-06
1.9396196e-06
2.1946651e-06
1.9239669e-06
1.7230198e-06
1.8479815e-06
1.6737353e-06
1.6692009e-06
1.6794546e-06
1.7212752e-06
1.7987355e-06
1.9053951e-06
2.0374485e-06
2.1939199e-06
2.375086e-06
2.5808966e-06
2.8149059e-06
3.0789058e-06
3.3755416e-06
3.7079783e-06
4.0799246e-06
4.4957357e-06
4.9605832e-06
5.4806927e-06
6.0594687e-06
6.7124394e-06
7.4483942e-06
8.281548e-06
9.2298089e-06
1.0315958e-05
1.1568491e-05
1.3023295e-05
1.4725452e-05
1.6731714e-05
1.9113548e-05
2.1960412e-05
2.5382225e-05
2.9516223e-05
3.4531158e-05
4.0905121e-05
4.8415844e-05
5.7596396e-05
6.883245e-05
8.2589539e-05
9.9428942e-05
0.00012002152
0.00014516525
0.00017738686
0.00021488286
0.00026026569
0.00031496212
0.00038053712
0.00046291765
0.00055595094
0.00066511772
0.00079965896
0.00094617483
0.0011105266
0.0011981773
0.0011993922
0.0012007346
0.0012021665
0.0012036136
0.0012050188
0.0012064466
0.0012081861
0.001210743
0.0012146
0.0012197091
0.0012249309
0.0012279335
0.0012261336
0.0012160608
0.0012004538
0.0011849023
0.0011740036
0.0011684865
0.0011665927
0.0011663968
1.0209812e-07
2.3700392e-06
1.6753359e-06
1.6977764e-06
1.658975e-06
1.4225914e-06
1.4782775e-06
1.3964256e-06
1.4226068e-06
1.4669165e-06
1.5464403e-06
1.6537764e-06
1.7855536e-06
1.9402897e-06
2.1182959e-06
2.3207451e-06
2.5486383e-06
2.8054061e-06
3.0931761e-06
3.4149079e-06
3.7740031e-06
4.1743901e-06
4.6206402e-06
5.1181547e-06
5.6734233e-06
6.2943827e-06
6.9908816e-06
7.7752429e-06
8.6529679e-06
9.6591773e-06
1.0811666e-05
1.2141378e-05
1.3687371e-05
1.5498794e-05
1.7637364e-05
2.0263538e-05
2.3332899e-05
2.7030808e-05
3.1509259e-05
3.6956167e-05
4.360339e-05
5.1736287e-05
6.1706867e-05
7.3946263e-05
8.8980103e-05
0.00010744506
0.00013010433
0.00015924706
0.0001934233
0.00023504403
0.00028553146
0.00034646442
0.00042351155
0.00051110839
0.00061447638
0.00073532907
0.00088311217
0.0010418315
0.0011995421
0.0012006404
0.0012018868
0.0012032373
0.0012046294
0.0012059875
0.0012073192
0.0012088317
0.001210969
0.0012142511
0.0012188788
0.0012242211
0.0012284811
0.0012289284
0.0012221764
0.0012082715
0.0011918508
0.0011784308
0.0011704661
0.0011670307
0.0011663848
0.0011663697
1.0371642e-07
1.8302724e-06
1.4544167e-06
1.3159389e-06
1.3885234e-06
1.1702988e-06
1.2070575e-06
1.1932773e-06
1.2516669e-06
1.3295439e-06
1.437027e-06
1.5674723e-06
1.7196411e-06
1.893707e-06
2.0909068e-06
2.3130011e-06
2.5617989e-06
2.8403165e-06
3.1511383e-06
3.4974245e-06
3.8827601e-06
4.3112619e-06
4.7877142e-06
5.3177708e-06
5.9082345e-06
6.5674424e-06
7.3057788e-06
8.1363144e-06
9.0755925e-06
1.0144612e-05
1.1369988e-05
1.2785509e-05
1.4433889e-05
1.6369072e-05
1.8658949e-05
2.1388695e-05
2.4664876e-05
2.8620734e-05
3.3421989e-05
3.9274847e-05
4.6435457e-05
5.5220779e-05
6.6020531e-05
7.9317995e-05
9.5704963e-05
0.00011686473
0.00014193143
0.00017274889
0.00021054804
0.00025675761
0.00031299332
0.00038459934
0.00046685714
0.00056470382
0.00067995045
0.00082191953
0.0009759329
0.0011464754
0.0012017738
0.0012029175
0.0012041812
0.0012055133
0.0012068318
0.0012080972
0.001209428
0.0012111858
0.001213903
0.0012179807
0.0012231845
0.0012281415
0.0012302524
0.0012271951
0.0012158673
0.0011997726
0.0011842932
0.0011735996
0.0011682591
0.0011664818
0.0011663338
0.0011663661
1.0930778e-07
1.3845174e-06
1.274802e-06
1.0369932e-06
1.2410447e-06
9.5982296e-07
1.0228613e-06
1.0592382e-06
1.1439596e-06
1.2488489e-06
1.3769726e-06
1.5254326e-06
1.694662e-06
1.8858356e-06
2.1006991e-06
2.341306e-06
2.6099976e-06
2.9092356e-06
3.2421931e-06
3.6120878e-06
4.0226721e-06
4.4782554e-06
4.9838527e-06
5.5453999e-06
6.1700536e-06
6.8666016e-06
7.6460112e-06
8.5221653e-06
9.5126779e-06
1.0639993e-05
1.19326e-05
1.3426795e-05
1.5168596e-05
1.7216273e-05
1.9643333e-05
2.2542202e-05
2.6028616e-05
3.0247087e-05
3.5377704e-05
4.1644753e-05
4.9665625e-05
5.9188776e-05
7.09223e-05
8.540708e-05
0.00010331102
0.00012545426
0.00015283432
0.00018664964
0.0002283153
0.00028209587
0.0003450908
0.00042153342
0.00051351652
0.00062308973
0.00075935122
0.00090938394
0.0010777127
0.0012027841
0.0012038123
0.0012049838
0.0012062456
0.0012075223
0.0012087428
0.0012099454
0.0012113912
0.0012135772
0.0012170147
0.001221763
0.0012269784
0.0012308402
0.0012306751
0.0012228641
0.0012083456
0.0011917561
0.0011783348
0.0011703565
0.0011669333
0.0011663088
0.0011663224
0.0011663704
1.195101e-07
1.1058874e-06
1.1195884e-06
8.9740457e-07
9.1053854e-07
8.4136054e-07
9.0153039e-07
9.7898932e-07
1.084013e-06
1.2080264e-06
1.3518095e-06
1.5152313e-06
1.6995535e-06
1.9063564e-06
2.1375618e-06
2.3953287e-06
2.6820828e-06
3.0005445e-06
3.3537769e-06
3.7452453e-06
4.1788988e-06
4.6592843e-06
5.1917078e-06
5.7824695e-06
6.4391939e-06
7.1688395e-06
7.9865796e-06
8.9056031e-06
9.9532866e-06
1.1140111e-05
1.2502494e-05
1.4079533e-05
1.5920868e-05
1.8089421e-05
2.0664675e-05
2.3746632e-05
2.7460665e-05
3.1963565e-05
3.7451124e-05
4.4167834e-05
5.2419215e-05
6.2587414e-05
7.5150441e-05
9.0703611e-05
0.00010999113
0.00013393404
0.00016512154
0.00020228897
0.00024828619
0.00030501109
0.00037460228
0.00045939515
0.0005618373
0.0006908008
0.00083595469
0.001002278
0.0011849496
0.0012045649
0.0012056323
0.0012068143
0.0012080432
0.0012092319
0.0012103576
0.0012115713
0.001213264
0.0012159752
0.0012200906
0.0012253549
0.00123025
0.0012320873
0.0012287444
0.0012171197
0.0012007925
0.0011850407
0.0011739918
0.0011683673
0.0011664225
0.00116628
0.0011663253
0.0011663762
1.4059888e-07
1.1296344e-06
9.6437097e-07
6.8728067e-07
7.451132e-07
7.5319916e-07
8.3481594e-07
9.3450755e-07
1.0556471e-06
1.1941999e-06
1.35135e-06
1.5280681e-06
1.7259106e-06
1.9465908e-06
2.1920886e-06
2.4646283e-06
2.7667161e-06
3.1011787e-06
3.4712103e-06
3.8804328e-06
4.3329753e-06
4.8335898e-06
5.387818e-06
6.0022354e-06
6.6847983e-06
7.445316e-06
8.2960705e-06
9.252602e-06
1.0334708e-05
1.1567662e-05
1.2983742e-05
1.46242e-05
1.6541593e-05
1.8802724e-05
2.1492133e-05
2.4716382e-05
2.8609338e-05
3.3338761e-05
3.911469e-05
4.6200152e-05
5.4924962e-05
6.6174789e-05
7.9630526e-05
9.6334205e-05
0.00011711264
0.00014299754
0.00017526626
0.00021547165
0.00026544949
0.00032729576
0.00040334711
0.00050076954
0.00061403349
0.00074982551
0.00090968873
0.0010911073
0.0012051588
0.0012060965
0.0012071897
0.0012083713
0.0012095441
0.0012106287
0.0012116848
0.0012129878
0.0012150595
0.0012184022
0.0012230454
0.0012282687
0.0012323726
0.0012324604
0.0012252192
0.0012110151
0.0011941423
0.0011799454
0.0011710757
0.0011671237
0.0011662433
0.0011662737
0.0011663327
0.0011663805
1.3374784e-07
7.5118991e-07
7.9171283e-07
5.8643309e-07
6.4230831e-07
7.0159056e-07
8.0131692e-07
9.1736479e-07
1.051321e-06
1.2022872e-06
1.3715489e-06
1.5603659e-06
1.7703361e-06
2.0032534e-06
2.2611604e-06
2.5463669e-06
2.8614832e-06
3.2094229e-06
3.5935658e-06
4.0176646e-06
4.486017e-06
5.0035641e-06
5.5760665e-06
6.2103569e-06
6.9147009e-06
7.6992846e-06
8.5768518e-06
9.5635241e-06
1.0688214e-05
1.1964336e-05
1.3431314e-05
1.5132515e-05
1.7123242e-05
1.9473877e-05
2.2273607e-05
2.5635049e-05
2.9699972e-05
3.4646553e-05
4.0698664e-05
4.8137762e-05
5.73181e-05
6.8686053e-05
8.2804607e-05
0.00010038652
0.00012233187
0.00014977601
0.00018413699
0.00022913929
0.00028320833
0.00035025022
0.00043268772
0.00053321535
0.0006549138
0.00080102898
0.00097309638
0.0011669026
0.001206342
0.0012072958
0.0012083881
0.0012095468
0.0012106663
0.001211689
0.0012127802
0.0012142474
0.0012166773
0.0012205801
0.001225677
0.0012306081
0.0012334528
0.0012314544