/*--------------------------------*- C++ -*----------------------------------*\
  =========                 |
  \\      /  F ield         | OpenFOAM: The Open Source CFD Toolbox
   \\    /   O peration     | Website:  https://openfoam.org
    \\  /    A nd           | Version:  12
     \\/     M anipulation  |
\*---------------------------------------------------------------------------*/
FoamFile
{
    format      ascii;
    class       volScalarField;
    location    "0.007";
    object      nut;
}
// * * * * * * * * * * * * * * * * * * * * * * * * * * * * * * * * * * * * * //

dimensions      [0 2 -1 0 0 0 0];

internalField   nonuniform List<scalar> 
16000
(
4.6255407e-07
1.1097293e-05
1.6942904e-05
2.2924657e-05
1.7801573e-05
2.287497e-05
1.6945066e-05
2.19762e-05
1.8034545e-05
2.3043e-05
2.0254442e-05
2.2610736e-05
2.1117136e-05
2.1427622e-05
2.0897835e-05
2.0818974e-05
2.0708032e-05
2.0737879e-05
2.0844438e-05
2.1038352e-05
2.1314785e-05
2.1672883e-05
2.2110457e-05
2.2628432e-05
2.3229886e-05
2.3921516e-05
2.471329e-05
2.5620094e-05
2.6659755e-05
2.7851602e-05
2.9216873e-05
3.0783003e-05
3.2584478e-05
3.4662882e-05
3.7068552e-05
3.9860864e-05
4.3110199e-05
4.6900646e-05
5.1337123e-05
5.6550817e-05
6.2696487e-05
6.9957631e-05
7.856714e-05
8.8811099e-05
0.00010102995
0.00011563183
0.00013312231
0.0001541158
0.00017935824
0.00020975457
0.00024640615
0.00029065886
0.00034416666
0.00040899525
0.00048776104
0.00058383502
0.00070164982
0.00084717287
0.00099959841
0.0010018888
0.001003746
0.0010051638
0.0010061036
0.0010065972
0.0010068736
0.0010071408
0.0010073627
0.0010075944
0.0010078655
0.0010080755
0.0010082529
0.0010084268
0.0010086292
0.0010088259
0.001008946
0.0010090046
0.0010092505
0.0010101906
0.001009928
0.0010144951
4.2030232e-07
1.0204326e-05
1.5295034e-05
2.0948176e-05
1.6097531e-05
2.0652461e-05
1.5093495e-05
1.9575074e-05
1.6020388e-05
2.0735863e-05
1.8469435e-05
2.06716e-05
1.9472953e-05
1.9641992e-05
1.9212616e-05
1.9098026e-05
1.9004964e-05
1.9024445e-05
1.9124119e-05
1.930425e-05
1.9563253e-05
1.9900344e-05
2.0313922e-05
2.0804362e-05
2.1374565e-05
2.2030747e-05
2.2781267e-05
2.3639806e-05
2.4623552e-05
2.5751559e-05
2.7044134e-05
2.8527281e-05
3.0234185e-05
3.2205003e-05
3.4488896e-05
3.7144207e-05
4.0240563e-05
4.3860496e-05
4.8105991e-05
5.3106833e-05
5.9019017e-05
6.6024542e-05
7.4355328e-05
8.4301541e-05
9.6213412e-05
0.00011050928
0.00012771248
0.00014846617
0.00017355931
0.00020395868
0.00024084945
0.00028568556
0.00034023735
0.0004066583
0.00048752671
0.00058581972
0.00070469616
0.00084688975
0.00099863534
0.0010010237
0.0010030019
0.0010045609
0.0010056772
0.0010063189
0.0010066562
0.001007037
0.0010074049
0.0010077599
0.0010080845
0.0010083567
0.0010085734
0.0010087655
0.0010089646
0.0010091427
0.0010092468
0.0010093506
0.0010097422
0.0010106928
0.0010109567
0.0010146634
3.7863756e-07
9.4862113e-06
1.3611175e-05
1.9057145e-05
1.4423853e-05
1.8356664e-05
1.3515768e-05
1.7271964e-05
1.4489439e-05
1.8627027e-05
1.7060735e-05
1.8846034e-05
1.7956039e-05
1.7973199e-05
1.7627013e-05
1.7493647e-05
1.7413207e-05
1.7428002e-05
1.7521134e-05
1.7689013e-05
1.7930865e-05
1.8245988e-05
1.8633553e-05
1.9093542e-05
1.9628337e-05
2.0244433e-05
2.0948808e-05
2.1753939e-05
2.2675992e-05
2.3733628e-05
2.4946178e-05
2.6337996e-05
2.7940591e-05
2.9792064e-05
3.1939549e-05
3.4439166e-05
3.7358415e-05
4.0777088e-05
4.4792282e-05
4.9527951e-05
5.5136441e-05
6.1792132e-05
6.9715387e-05
7.9183181e-05
9.0532356e-05
0.00010415775
0.00012054925
0.00014030162
0.00016413012
0.00019288603
0.00022756769
0.00026932859
0.00031944265
0.00037924503
0.00044998714
0.00053258515
0.0006272181
0.00073282638
0.00084671618
0.00096460638
0.0010026959
0.0010043182
0.0010055303
0.0010062931
0.0010067424
0.0010072
0.0010076298
0.0010080363
0.0010083985
0.0010086938
0.0010089228
0.0010091158
0.0010093022
0.0010094576
0.0010095511
0.0010097074
0.0010102353
0.0010113015
0.0010119991
0.0010145505
3.4428589e-07
8.9529369e-06
1.4725599e-05
1.719865e-05
1.294154e-05
1.6352373e-05
1.2143132e-05
1.5299551e-05
1.3112578e-05
1.6776613e-05
1.5796068e-05
1.7202269e-05
1.6550802e-05
1.6444309e-05
1.6159088e-05
1.6015115e-05
1.5941655e-05
1.595072e-05
1.6034103e-05
1.6186046e-05
1.6406305e-05
1.6693981e-05
1.7048867e-05
1.7471111e-05
1.7962025e-05
1.8528222e-05
1.9175713e-05
1.9915552e-05
2.0762323e-05
2.173382e-05
2.2847961e-05
2.4126703e-05
2.5598915e-05
2.7299339e-05
2.9271331e-05
3.1566455e-05
3.4246992e-05
3.7386366e-05
4.1072147e-05
4.5415068e-05
5.0554513e-05
5.6645636e-05
6.3880913e-05
7.2500119e-05
8.2795904e-05
9.5098797e-05
0.00010980997
0.00012740331
0.00014842745
0.00017350467
0.00020331832
0.00023860239
0.00028008587
0.00032843282
0.00038414249
0.00044744566
0.00051821023
0.00059590796
0.00067970909
0.00076874589
0.00086251054
0.00096134662
0.0010056639
0.0010065072
0.0010070046
0.0010075014
0.0010079633
0.00100839
0.0010087624
0.0010090624
0.0010092917
0.0010094784
0.0010096481
0.0010097795
0.0010098662
0.0010100783
0.0010107427
0.001011958
0.0010129576
0.001014367
3.0481466e-07
8.6264902e-06
1.5438284e-05
1.5796421e-05
1.1615321e-05
1.4588828e-05
1.0897312e-05
1.3548001e-05
1.1910872e-05
1.506609e-05
1.4614027e-05
1.5595537e-05
1.5140966e-05
1.4935839e-05
1.4695965e-05
1.4548415e-05
1.4476606e-05
1.4477096e-05
1.4545869e-05
1.4676273e-05
1.4868626e-05
1.5122317e-05
1.543681e-05
1.5813423e-05
1.625245e-05
1.6759727e-05
1.7341004e-05
1.8005747e-05
1.8766711e-05
1.9640296e-05
2.064286e-05
2.1793639e-05
2.3118399e-05
2.464788e-05
2.6420788e-05
2.848301e-05
3.0890097e-05
3.3707528e-05
3.7012041e-05
4.0898356e-05
4.5489467e-05
5.0918603e-05
5.7347489e-05
6.4973955e-05
7.4043094e-05
8.4821272e-05
9.762566e-05
0.00011282427
0.00013083303
0.00015211374
0.00017715815
0.0002064912
0.00024063469
0.00028008858
0.00032529426
0.00037661898
0.00043436296
0.00049879955
0.00057026117
0.0006492769
0.00073674518
0.00083414555
0.00094379418
0.00100688
0.001007396
0.0010079018
0.001008368
0.0010087921
0.0010091577
0.0010094508
0.0010096737
0.0010098501
0.0010099999
0.0010101075
0.001010195
0.0010104722
0.0010112733
0.0010126163
0.0010137933
0.0010140903
2.7730502e-07
8.442391e-06
1.6070585e-05
1.6238435e-05
1.1167328e-05
1.3041633e-05
9.7656694e-06
1.1992647e-05
1.0910771e-05
1.3520149e-05
1.3507457e-05
1.4054595e-05
1.3738801e-05
1.3466372e-05
1.3252423e-05
1.3103498e-05
1.3027895e-05
1.3016938e-05
1.3068439e-05
1.3175335e-05
1.3338332e-05
1.3557624e-05
1.3831384e-05
1.4162199e-05
1.4550121e-05
1.4999796e-05
1.5516704e-05
1.610899e-05
1.678769e-05
1.756778e-05
1.8464287e-05
1.9494022e-05
2.0679977e-05
2.2049235e-05
2.3636297e-05
2.5481906e-05
2.763552e-05
3.0155663e-05
3.3110466e-05
3.6581049e-05
4.0676421e-05
4.5513067e-05
5.123026e-05
5.7993623e-05
6.601538e-05
7.5520539e-05
8.6774305e-05
0.00010008474
0.0001157993
0.00013430898
0.00015603252
0.00018143532
0.0002110068
0.00024526497
0.00028474549
0.00033001101
0.00038167939
0.00044046724
0.00050725322
0.00058316668
0.00066969513
0.00076881302
0.00088313856
0.0010073514
0.0010078636
0.0010083582
0.0010088116
0.0010092204
0.001009571
0.0010098528
0.0010100664
0.0010102291
0.0010103556
0.0010104416
0.0010105451
0.0010109074
0.0010118407
0.0010132492
0.0010144614
0.0010136708
2.5643194e-07
8.357253e-06
1.5433349e-05
1.6031943e-05
1.1988045e-05
1.1570523e-05
9.9579245e-06
1.119551e-05
1.0689859e-05
1.2163754e-05
1.244003e-05
1.259601e-05
1.2348954e-05
1.2044656e-05
1.184328e-05
1.1696835e-05
1.1618236e-05
1.1598672e-05
1.1636426e-05
1.1724737e-05
1.186374e-05
1.2054834e-05
1.2295265e-05
1.2509651e-05
1.2844927e-05
1.3238414e-05
1.3693898e-05
1.4218612e-05
1.4821863e-05
1.5517149e-05
1.6318408e-05
1.7240429e-05
1.8303936e-05
1.9532976e-05
2.095865e-05
2.2617633e-05
2.4554616e-05
2.6822797e-05
2.9484655e-05
3.2864152e-05
3.6578498e-05
4.0965563e-05
4.6151951e-05
5.2282405e-05
5.9550278e-05
6.8159432e-05
7.8348543e-05
9.0397798e-05
0.00010462513
0.00012139861
0.000141117
0.00016424155
0.00019127866
0.00022279633
0.00025942443
0.00030187156
0.00035095977
0.00040766644
0.00047317388
0.00054893437
0.0006367505
0.00073886698
0.0008580649
0.00099774968
0.0010083748
0.0010088457
0.0010092768
0.001009664
0.001009997
0.0010102661
0.0010104682
0.001010613
0.0010107134
0.0010107849
0.0010109286
0.0010114036
0.0010124543
0.0010138377
0.0010148519
0.0010130159
2.3022934e-07
8.3036443e-06
1.4943851e-05
1.4526877e-05
1.0816158e-05
1.0065027e-05
8.4243889e-06
9.7248197e-06
9.3925936e-06
1.0960793e-05
1.1330433e-05
1.1201158e-05
1.0977879e-05
1.0679348e-05
1.0491851e-05
1.0356478e-05
1.0282112e-05
1.0261509e-05
1.0228346e-05
1.0290475e-05
1.0402087e-05
1.0564297e-05
1.0774193e-05
1.1030806e-05
1.1338104e-05
1.1698658e-05
1.2116228e-05
1.2597614e-05
1.3151157e-05
1.3789412e-05
1.4525961e-05
1.5374382e-05
1.6354074e-05
1.7487144e-05
1.8802601e-05
2.0334573e-05
2.2124856e-05
2.4223425e-05
2.6689767e-05
2.9594402e-05
3.3020978e-05
3.7073703e-05
4.1873881e-05
4.796089e-05
5.4746418e-05
6.2795635e-05
7.2336502e-05
8.3639238e-05
9.701231e-05
0.00011282397
0.00013147548
0.00015344426
0.00017926791
0.00020956736
0.00024505335
0.00028654526
0.00033500798
0.00039159216
0.00045767159
0.00053488879
0.0006252153
0.00073102577
0.00085516112
0.0010009208
0.0010089074
0.0010093487
0.0010097533
0.0010101177
0.0010104332
0.0010106893
0.0010108766
0.0010109982
0.0010110723
0.0010111454
0.0010113621
0.0010119765
0.0010131098
0.0010143463
0.0010149624
0.0010121152
2.1088836e-07
8.2563206e-06
1.4445744e-05
1.2699218e-05
8.5903194e-06
9.0190123e-06
7.2121937e-06
8.5979828e-06
8.6876602e-06
9.808495e-06
1.0197387e-05
9.8865143e-06
9.6746879e-06
9.4048957e-06
9.2360969e-06
9.0522193e-06
8.9630806e-06
8.9321248e-06
8.9515083e-06
9.0200007e-06
9.1315665e-06
9.2869661e-06
9.4860233e-06
9.727809e-06
1.0015981e-05
1.0353788e-05
1.0744963e-05
1.1196167e-05
1.171512e-05
1.2313602e-05
1.3005162e-05
1.380269e-05
1.4724903e-05
1.5792673e-05
1.7033786e-05
1.8480915e-05
2.0174245e-05
2.2162061e-05
2.450196e-05
2.726215e-05
3.0524745e-05
3.4389663e-05
3.8978494e-05
4.4423717e-05
5.0892634e-05
5.8586406e-05
6.8335723e-05
7.927095e-05
9.2244711e-05
0.00010763758
0.00012586429
0.00014742762
0.00017290155
0.00020295879
0.00023838109
0.00028007721
0.00032911892
0.0003867793
0.00045455836
0.00053420908
0.00062777883
0.0007376761
0.00086673155
0.0010090161
0.0010094486
0.0010098585
0.0010102365
0.0010105791
0.0010108783
0.0010111199
0.0010112874
0.0010113812
0.0010114354
0.0010115373
0.0010118645
0.0010126318
0.0010137841
0.0010147104
0.0010149145
0.0010109322
1.9374865e-07
8.2035775e-06
1.1574248e-05
1.0887593e-05
6.9729732e-06
8.0870787e-06
6.5261256e-06
7.7046095e-06
8.0857822e-06
8.7595696e-06
9.0859701e-06
8.688235e-06
8.4821895e-06
8.1653513e-06
7.9851511e-06
7.8665484e-06
7.8060534e-06
7.7956074e-06
7.8292103e-06
7.9041613e-06
8.0178816e-06
8.1712394e-06
8.3645898e-06
8.5974831e-06
8.8738013e-06
9.1972053e-06
9.5715157e-06
1.0003455e-05
1.0500369e-05
1.1073429e-05
1.173636e-05
1.2501877e-05
1.3388476e-05
1.4416355e-05
1.5612748e-05
1.7009703e-05
1.8646749e-05
2.0571653e-05
2.2841837e-05
2.5525378e-05
2.8703864e-05
3.247611e-05
3.6966194e-05
4.2306257e-05
4.866561e-05
5.6247767e-05
6.529407e-05
7.6067233e-05
8.9708286e-05
0.00010507674
0.0001233398
0.00014503044
0.00017076192
0.00020125721
0.00023736217
0.00028006038
0.00033050527
0.00039005609
0.00046029368
0.00054302877
0.00064032899
0.000754582
0.0008885646
0.0010095867
0.0010099908
0.0010103707
0.0010107238
0.0010110468
0.0010113301
0.0010115537
0.0010116953
0.0010117601
0.0010118115
0.0010119812
0.0010124546
0.0010133599
0.0010144228
0.0010149117
0.0010143219
0.0010095364
1.784204e-07
8.1475536e-06
9.1167774e-06
9.0493213e-06
6.1668008e-06
7.1847424e-06
5.9655368e-06
6.9308057e-06
7.5243074e-06
7.8011435e-06
8.0143058e-06
7.5233789e-06
7.2735853e-06
7.0491427e-06
6.9120751e-06
6.828634e-06
6.7938661e-06
6.8020597e-06
6.8485383e-06
6.932099e-06
7.0503904e-06
7.2047543e-06
7.396566e-06
7.62572e-06
7.8961722e-06
8.2120213e-06
8.5773436e-06
8.9990316e-06
9.484326e-06
1.0043954e-05
1.0634041e-05
1.1373888e-05
1.2232855e-05
1.3230668e-05
1.4394275e-05
1.5755468e-05
1.7353602e-05
1.9236474e-05
2.1462062e-05
2.4099343e-05
2.7231327e-05
3.1205854e-05
3.5688276e-05
4.1032988e-05
4.7412849e-05
5.503642e-05
6.4158733e-05
7.5057201e-05
8.8072137e-05
0.00010361143
0.00012326849
0.00014549441
0.00017194638
0.00020339614
0.00024074837
0.00028505091
0.0003375195
0.0003995714
0.00047283526
0.00055914836
0.00066057728
0.00077947326
0.0009185234
0.0010101542
0.0010105297
0.0010108824
0.0010112133
0.0010115187
0.0010117848
0.0010119848
0.0010120952
0.001012138
0.0010122159
0.0010124995
0.0010131434
0.0010141257
0.001014964
0.001014922
0.0010131838
0.0010080404
1.6490781e-07
8.083395e-06
7.3020733e-06
7.9911011e-06
5.5101358e-06
6.3798095e-06
5.4738773e-06
6.2478655e-06
6.9672752e-06
6.91279e-06
6.8649016e-06
6.4487917e-06
6.2438407e-06
6.0757873e-06
5.9762933e-06
5.9230256e-06
5.9111583e-06
5.9368591e-06
5.9963822e-06
6.0893968e-06
6.2142874e-06
6.3725844e-06
6.5664159e-06
6.7961985e-06
7.0659703e-06
7.3464861e-06
7.7026728e-06
8.1149621e-06
8.5904647e-06
9.1394601e-06
9.7742272e-06
1.0510868e-05
1.1367073e-05
1.2362658e-05
1.3524951e-05
1.4886279e-05
1.6486787e-05
1.8375348e-05
2.061181e-05
2.3267566e-05
2.6428925e-05
3.0201803e-05
3.4712545e-05
4.0107063e-05
4.6564948e-05
5.477956e-05
6.4132658e-05
7.5337695e-05
8.8750929e-05
0.00010480989
0.00012402058
0.00014836193
0.00017592087
0.000208756
0.00024782681
0.00029423813
0.00034925388
0.00041432811
0.00049111553
0.00058146678
0.00068745182
0.00081139131
0.00095581606
0.0010107143
0.0010110622
0.0010113911
0.0010117028
0.0010119911
0.0010122364
0.0010124064
0.0010124852
0.0010125249
0.0010126706
0.0010131099
0.0010139212
0.0010148708
0.0010153082
0.0010145752
0.0010117288
0.0010065871
1.5289147e-07
8.0045346e-06
5.9146704e-06
7.021903e-06
4.9209818e-06
5.6563735e-06
5.0514325e-06
5.6346938e-06
6.3125395e-06
5.9090782e-06
5.8347886e-06
5.5129846e-06
5.3496299e-06
5.2277784e-06
5.1610502e-06
5.1344583e-06
5.1436557e-06
5.1861834e-06
5.2591035e-06
5.3627612e-06
5.4962348e-06
5.6611837e-06
5.8340119e-06
6.0624639e-06
6.3308319e-06
6.6426061e-06
7.00409e-06
7.4218414e-06
7.9032076e-06
8.4587083e-06
9.1008233e-06
9.845472e-06
1.0711731e-05
1.1719886e-05
1.2897998e-05
1.4279407e-05
1.590572e-05
1.7827548e-05
2.0107509e-05
2.2820665e-05
2.6057072e-05
2.992696e-05
3.4567103e-05
4.0130433e-05
4.6807036e-05
5.4827704e-05
6.4471273e-05
7.606022e-05
9.0771122e-05
0.00010757508
0.00012771843
0.00015183795
0.00018240047
0.00021701657
0.00025824071
0.00030723108
0.0003652914
0.00043389845
0.00051472272
0.00060962944
0.00072070205
0.00085021637
0.0010003977
0.0010112637
0.0010115857
0.0010118944
0.0010121886
0.0010124579
0.0010126766
0.0010128127
0.0010128692
0.0010129385
0.001013201
0.0010138176
0.0010147471
0.0010155197
0.0010153862
0.0010135722
0.0010100108
0.00100517
1.4221997e-07
7.8928064e-06
4.8411028e-06
6.1517655e-06
4.3899906e-06
5.0058301e-06
4.6899729e-06
5.0086417e-06
5.5098667e-06
5.0429499e-06
4.9349446e-06
4.6974613e-06
4.5729077e-06
4.4900355e-06
4.4526956e-06
4.4504958e-06
4.4796995e-06
4.5388659e-06
4.6258227e-06
4.7227703e-06
4.8608235e-06
5.0303702e-06
5.2333493e-06
5.4723181e-06
5.7510463e-06
6.0734356e-06
6.4457267e-06
6.8751794e-06
7.3694197e-06
7.9392007e-06
8.5972169e-06
9.3597345e-06
1.0197954e-05
1.1220986e-05
1.2417742e-05
1.3822698e-05
1.547931e-05
1.7440213e-05
1.9771125e-05
2.2551638e-05
2.5877016e-05
3.0093749e-05
3.4925122e-05
4.0732348e-05
4.7717341e-05
5.6123637e-05
6.6253742e-05
7.8456297e-05
9.3140876e-05
0.00011181454
0.00013314685
0.00015872674
0.00018934027
0.00022806667
0.00027188365
0.00032393439
0.00038556101
0.00045825631
0.00054370637
0.00064379788
0.00076061243
0.00089627829
0.0010114919
0.0010117983
0.0010120977
0.0010123887
0.0010126653
0.001012911
0.0010130969
0.0010132015
0.0010132595
0.0010134039
0.0010138262
0.0010146062
0.0010155126
0.0010159269
0.0010150651
0.0010121283
0.0010081524
0.0010038702
1.3272837e-07
7.6573181e-06
4.0386175e-06
5.3727914e-06
3.9145753e-06
4.426034e-06
4.3694992e-06
4.3291635e-06
4.7104088e-06
4.2734867e-06
4.155952e-06
3.9884829e-06
3.9007258e-06
3.8518921e-06
3.8414599e-06
3.8620031e-06
3.9105032e-06
3.9698571e-06
4.0659945e-06
4.190576e-06
4.3442896e-06
4.5284083e-06
4.7455728e-06
4.9985463e-06
5.2917061e-06
5.6292589e-06
6.0175618e-06
6.4437935e-06
6.9515359e-06
7.5361778e-06
8.2106111e-06
8.9913007e-06
9.8982629e-06
1.095658e-05
1.2195751e-05
1.3652003e-05
1.5371684e-05
1.7410527e-05
1.9838355e-05
2.2740936e-05
2.6220544e-05
3.0404284e-05
3.5442051e-05
4.1514564e-05
4.8839124e-05
5.8163511e-05
6.8910023e-05
8.1879365e-05
9.751639e-05
0.00011634629
0.00014029098
0.00016763974
0.00020039562
0.00023951582
0.00028883096
0.00034446823
0.00041024238
0.00048766324
0.00057843685
0.00068446363
0.00080773903
0.00094999343
0.001012027
0.001012314
0.0010125952
0.0010128696
0.0010131254
0.0010133412
0.0010134917
0.0010135789
0.0010136776
0.0010139479
0.0010145435
0.001015421
0.0010161483
0.0010160309
0.0010140453
0.0010103426
0.0010062963
0.0010027333
1.2435819e-07
7.2919008e-06
3.5575902e-06
4.6795561e-06
3.4869425e-06
3.9093647e-06
3.8674769e-06
3.714196e-06
3.9475738e-06
3.5954971e-06
3.4887896e-06
3.3776505e-06
3.3241623e-06
3.3054549e-06
3.3196634e-06
3.3488136e-06
3.409847e-06
3.4986192e-06
3.6142785e-06
3.7569432e-06
3.9279102e-06
4.1289763e-06
4.3632187e-06
4.6337158e-06
4.9334109e-06
5.2866809e-06
5.6915003e-06
6.1552554e-06
6.6872732e-06
7.2986065e-06
8.0026878e-06
8.8169471e-06
9.7625939e-06
1.0866112e-05
1.2159788e-05
1.3681917e-05
1.5482455e-05
1.7621157e-05
2.0172469e-05
2.3229878e-05
2.6902592e-05
3.1328077e-05
3.667153e-05
4.3127554e-05
5.0933772e-05
6.0373991e-05
7.2427924e-05
8.6328684e-05
0.00010311212
0.0001233566
0.00014771482
0.0001786489
0.00021393908
0.00025608849
0.00030623329
0.00036910986
0.00043969585
0.00052258262
0.00061948991
0.0007322731
0.00086264473
0.0010115933
0.0010125397
0.0010128085
0.0010130743
0.0010133307
0.0010135598
0.0010137406
0.001013863
0.0010139628
0.0010141522
0.0010145908
0.0010153425
0.001016161
0.0010164779
0.001015459
0.00101249
0.0010083664
0.001004575
0.0010017579
1.1720605e-07
6.9381639e-06
3.1372124e-06
4.0550099e-06
3.1063911e-06
3.3004667e-06
3.4257072e-06
3.153367e-06
3.2608819e-06
3.0078773e-06
2.9239446e-06
2.8576039e-06
2.8350993e-06
2.8433508e-06
2.8655332e-06
2.9232841e-06
3.0077791e-06
3.117794e-06
3.2533463e-06
3.4152703e-06
3.6054089e-06
3.8258539e-06
4.0718675e-06
4.3603859e-06
4.6902669e-06
5.0667729e-06
5.4962273e-06
5.986406e-06
6.5469581e-06
7.1898781e-06
7.9292643e-06
8.7836202e-06
9.7755452e-06
1.0933414e-05
1.223793e-05
1.3825873e-05
1.5707693e-05
1.7948011e-05
2.0753193e-05
2.3997851e-05
2.7904551e-05
3.2621844e-05
3.8332325e-05
4.5248283e-05
5.36282e-05
6.3784481e-05
7.6089059e-05
9.098268e-05
0.00010996262
0.00013187791
0.00015827533
0.00018999147
0.00023014354
0.00027583938
0.00033015348
0.00039825051
0.00047441119
0.00056361312
0.00066754889
0.00078787305
0.00092569623
0.0010127742
0.0010130264
0.001013279
0.0010135294
0.0010137634
0.0010139598
0.0010141071
0.0010142234
0.0010143823
0.0010147145
0.0010153224
0.0010161237
0.0010167058
0.0010163783
0.0010142919
0.0010105332
0.0010063869
0.0010030803
0.0010009656
1.1138373e-07
5.4923776e-06
2.7717741e-06
3.4843902e-06
2.7772379e-06
2.7389727e-06
2.9889553e-06
2.6482901e-06
2.6707143e-06
2.5056336e-06
2.4497957e-06
2.4201122e-06
2.4183067e-06
2.4441966e-06
2.5003965e-06
2.5829381e-06
2.6899352e-06
2.821155e-06
2.9773571e-06
3.1598219e-06
3.3657129e-06
3.605734e-06
3.8798182e-06
4.191762e-06
4.5461058e-06
4.9483699e-06
5.4052808e-06
5.925053e-06
6.5178051e-06
7.1798133e-06
7.9539291e-06
8.8474731e-06
9.8844692e-06
1.109493e-05
1.2516252e-05
1.419499e-05
1.6188351e-05
1.8567553e-05
2.1420276e-05
2.4853754e-05
2.8999631e-05
3.4265329e-05
4.0405159e-05
4.7860548e-05
5.6914005e-05
6.7908638e-05
8.1254209e-05
9.7438078e-05
0.00011811235
0.00014198509
0.00017076999
0.00020537349
0.00024922707
0.00029905887
0.00035822815
0.00042809885
0.0005149709
0.0006114351
0.00072331095
0.00085177496
0.00099697855
0.0010132432
0.0010134824
0.0010137217
0.0010139534
0.0010141589
0.0010143212
0.0010144481
0.0010145962
0.0010148665
0.0010153657
0.0010160996
0.0010167927
0.001016905
0.0010156744
0.0010125403
0.0010083782
0.0010045695
0.0010019188
0.0010003257
1.0609551e-07
4.1306093e-06
2.422926e-06
2.9564402e-06
2.3581577e-06
2.2686946e-06
2.5326886e-06
2.1990975e-06
2.1776866e-06
2.081728e-06
2.0563835e-06
2.0517223e-06
2.0776467e-06
2.1336164e-06
2.2156517e-06
2.321455e-06
2.4503369e-06
2.6027462e-06
2.7772973e-06
2.9798282e-06
3.2112557e-06
3.4742742e-06
3.7721682e-06
4.1089428e-06
4.4894384e-06
4.9195012e-06
5.4062434e-06
5.9490834e-06
6.5736984e-06
7.2869972e-06
8.1055929e-06
9.0501172e-06
1.0146554e-05
1.1427471e-05
1.2933593e-05
1.4715526e-05
1.6835973e-05
1.937265e-05
2.242176e-05
2.6101842e-05
3.0558411e-05
3.5968752e-05
4.2868039e-05
5.0943302e-05
6.0773726e-05
7.2738773e-05
8.7291909e-05
0.00010497321
0.00012642126
0.00015375385
0.0001853211
0.00022329272
0.00026879012
0.00032607751
0.00039087922
0.00046724459
0.00056201851
0.00066674997
0.00078736612
0.00092418686
0.0010134595
0.0010136802
0.0010139068
0.0010141312
0.0010143383
0.00101451
0.0010146448
0.0010147819
0.0010150117
0.0010154403
0.0010160961
0.0010168219
0.0010172322
0.0010166529
0.0010142715
0.001010401
0.0010062611
0.001003021
0.0010010201
0.001000077
1.0096968e-07
3.4029698e-06
2.0778809e-06
2.4699425e-06
2.0139466e-06
1.8737634e-06
2.0663079e-06
1.8052822e-06
1.7754582e-06
1.732691e-06
1.7336177e-06
1.7594806e-06
1.816716e-06
1.8992153e-06
2.0046395e-06
2.1321173e-06
2.281865e-06
2.4530537e-06
2.6502911e-06
2.8746444e-06
3.1285453e-06
3.414945e-06
3.7373768e-06
4.1000688e-06
4.5081086e-06
4.9676559e-06
5.4799776e-06
6.0640544e-06
6.7270877e-06
7.4832645e-06
8.350469e-06
9.3510457e-06
1.051309e-05
1.1871892e-05
1.347183e-05
1.5368421e-05
1.7630536e-05
2.0343413e-05
2.3612798e-05
2.7568843e-05
3.2372118e-05
3.8498293e-05
4.5689152e-05
5.4463486e-05
6.517469e-05
7.8245575e-05
9.4181661e-05
0.00011358401
0.00013843538
0.00016723956
0.00020203515
0.00024391936
0.00029410776
0.00035724425
0.00042856455
0.0005124215
0.00061619195
0.00073015255
0.00085998517
0.0010047834
0.0010138676
0.0010140812
0.0010142955
0.0010145001
0.0010146764
0.0010148161
0.0010149445
0.0010151369
0.001015499
0.0010160933
0.0010168345
0.0010173887
0.0010172024
0.0010156887
0.001012328
0.0010081268
0.0010043749
0.0010018009
0.0010003039
0.0010000026
9.7151853e-08
2.7199762e-06
1.7751682e-06
1.9774868e-06
1.7294754e-06
1.5356339e-06
1.6363467e-06
1.4718488e-06
1.4582086e-06
1.4579411e-06
1.4854533e-06
1.543908e-06
1.6274865e-06
1.7327859e-06
1.8589091e-06
2.0060715e-06
2.174244e-06
2.3664546e-06
2.5842514e-06
2.8299101e-06
3.1061501e-06
3.4161535e-06
3.7636514e-06
4.1530661e-06
4.5897109e-06
5.0765468e-06
5.6266949e-06
6.2476552e-06
6.9514966e-06
7.7534221e-06
8.672773e-06
9.7337514e-06
1.0966839e-05
1.2410326e-05
1.4112409e-05
1.613378e-05
1.8550427e-05
2.1455763e-05
2.4966452e-05
2.9225985e-05
3.463993e-05
4.1021122e-05
4.8821845e-05
5.8369773e-05
7.0060213e-05
8.4369457e-05
0.00010186637
0.00012322711
0.00015059465
0.00018243493
0.00022096123
0.0002673786
0.00032300632
0.00039286
0.00047169439
0.00056413148
0.0006779823
0.00080188177
0.00094081311
0.0010140464
0.0010142426
0.0010144444
0.0010146433
0.0010148215
0.001014965
0.0010150858
0.0010152431
0.0010155388
0.0010160654
0.0010167927
0.0010174512
0.0010176469
0.0010167762
0.0010140768
0.0010100815
0.0010059771
0.0010028209
0.0010009169
0.0010000335
0.00099998621
9.4936397e-08
2.1218467e-06
1.512322e-06
1.5081535e-06
1.4672101e-06
1.246782e-06
1.2858821e-06
1.205673e-06
1.2198592e-06
1.2499773e-06
1.3103885e-06
1.3945348e-06
1.4994469e-06
1.6238408e-06
1.7679867e-06
1.9329007e-06
2.1194715e-06
2.330619e-06
2.5681859e-06
2.834715e-06
3.1331249e-06
3.4667809e-06
3.839593e-06
4.2561718e-06
4.7220448e-06
5.2439578e-06
5.8302666e-06
6.4914154e-06
7.2321841e-06
8.0821303e-06
9.0564242e-06
1.0181297e-05
1.1489859e-05
1.3023769e-05
1.4835337e-05
1.7060085e-05
1.9661328e-05
2.2795861e-05
2.6592702e-05
3.1211399e-05
3.6848827e-05
4.3747259e-05
5.220547e-05
6.2589219e-05
7.5344151e-05
9.1009661e-05
0.00011023188
0.0001349495
0.00016393231
0.00019922086
0.00024201708
0.00029365352
0.00035892398
0.00043309267
0.00052055481
0.00062273093
0.00074760854
0.00088166939
0.0010142156
0.0010143871
0.0010145779
0.0010147674
0.0010149446
0.0010150915
0.0010152079
0.0010153364
0.0010155679
0.0010160048
0.0010166777
0.0010174462
0.0010179358
0.0010175748
0.0010156042
0.0010120368
0.0010078103
0.0010041374
0.0010016486
0.0010002365
0.00099995409
0.00099998041
9.5067991e-08
1.6143645e-06
1.2900525e-06
1.1483334e-06
1.2036491e-06
1.0049544e-06
1.0282067e-06
1.0089242e-06
1.0514171e-06
1.1106181e-06
1.1948537e-06
1.2984766e-06
1.4204526e-06
1.560961e-06
1.7210806e-06
1.9023336e-06
2.1062912e-06
2.3355255e-06
2.5922629e-06
2.8792134e-06
3.1994482e-06
3.5564891e-06
3.9544221e-06
4.3980648e-06
4.8932005e-06
5.4469007e-06
6.0679582e-06
6.7674308e-06
7.5593112e-06
8.461365e-06
9.4961153e-06
1.0692156e-05
1.2085631e-05
1.3722179e-05
1.5659241e-05
1.7968913e-05
2.0741442e-05
2.4089737e-05
2.8154287e-05
3.3109955e-05
3.917397e-05
4.6615126e-05
5.576383e-05
6.7029578e-05
8.0913398e-05
9.8838977e-05
0.00012007383
0.00014617609
0.00017818569
0.00021731019
0.00026491531
0.0003255197
0.00039511614
0.00047785441
0.00057522655
0.00069509112
0.00082505858
0.00096897826
0.0010145175
0.0010146943
0.0010148733
0.0010150461
0.0010151951
0.0010153109
0.0010154167
0.0010155874
0.0010159317
0.001016524
0.0010173052
0.001017961
0.0010179893
0.0010168872
0.0010139211
0.0010098355
0.0010057618
0.0010026689
0.0010008369
0.00099998861
0.00099994792
0.00099997999
9.8328617e-08
1.1982724e-06
1.1057438e-06
8.8519636e-07
1.050398e-06
8.0485941e-07
8.5116556e-07
8.7569608e-07
9.4075361e-07
1.0228004e-06
1.1243236e-06
1.2429682e-06
1.3791456e-06
1.5338878e-06
1.7087019e-06
1.9053541e-06
2.1258549e-06
2.3723225e-06
2.6474668e-06
2.9540476e-06
3.2952756e-06
3.6748331e-06
4.0969964e-06
4.5668154e-06
5.0903626e-06
5.6750782e-06
6.3302338e-06
7.0675577e-06
7.9019306e-06
8.8523173e-06
9.9427949e-06
1.1204032e-05
1.26749e-05
1.4404618e-05
1.6455289e-05
1.8905041e-05
2.1851779e-05
2.5417829e-05
2.9755707e-05
3.5055417e-05
4.1838392e-05
4.9894764e-05
5.9822878e-05
7.2080613e-05
8.7232743e-05
0.00010597183
0.00012913918
0.00015774498
0.00019298266
0.00023845603
0.00029171444
0.00035633413
0.00043406709
0.00052660324
0.00064157658
0.00076806353
0.00090998026
0.0010146374
0.0010147933
0.0010149631
0.0010151285
0.0010152764
0.0010153927
0.001015485
0.0010156057
0.0010158574
0.001016343
0.0010170556
0.001017805
0.0010182957
0.0010178556
0.0010156736
0.001011979
0.0010077338
0.0010040812
0.0010016051
0.0010002129
0.00099991472
0.00099994597
0.00099998128
1.0481532e-07
9.3504853e-07
9.4455038e-07
7.457386e-07
7.5031998e-07
6.8773918e-07
7.3237427e-07
7.916156e-07
8.7371414e-07
9.717084e-07
1.0862754e-06
1.2173809e-06
1.3661266e-06
1.5338799e-06
1.722293e-06
1.9332197e-06
2.1687405e-06
2.4311867e-06
2.723181e-06
3.0476877e-06
3.4080813e-06
3.8082405e-06
4.2526818e-06
4.7467543e-06
5.2969147e-06
5.9090967e-06
6.5960327e-06
7.368887e-06
8.2506308e-06
9.2503416e-06
1.0398659e-05
1.1728573e-05
1.3281955e-05
1.5111879e-05
1.7285422e-05
1.9887034e-05
2.3022677e-05
2.6824956e-05
3.1459541e-05
3.7133403e-05
4.4105253e-05
5.2698747e-05
6.3318641e-05
7.6468618e-05
9.2777383e-05
0.00011302143
0.00013938313
0.00017079003
0.00020964212
0.00025754052
0.00031629669
0.00038788861
0.00047436854
0.0005831732
0.00070551512
0.00084561918
0.0009995768
0.001014881
0.0010150389
0.0010151965
0.0010153416
0.0010154575
0.0010155412
0.0010156251
0.0010157892
0.00101614
0.0010167532
0.0010175814
0.0010182544
0.0010182572
0.0010171531
0.0010141652
0.0010100406
0.0010059292
0.0010027755
0.0010008991
0.00099996947
0.00099991782
0.00099994801
0.00099998291
1.1925185e-07
9.275392e-07
7.8821983e-07
5.548508e-07
5.9714362e-07
6.0031038e-07
6.6304087e-07
7.4079446e-07
8.3627958e-07
9.4635484e-07
1.0720456e-06
1.2142182e-06
1.3742147e-06
1.5535122e-06
1.7538117e-06
1.9770211e-06
2.2252876e-06
2.5010298e-06
2.8069788e-06
3.1462279e-06
3.5222998e-06
3.9392417e-06
4.4017629e-06
4.9154369e-06
5.4869913e-06
6.1247067e-06
6.8389423e-06
7.6428045e-06
8.5529913e-06
9.5908197e-06
1.0783502e-05
1.2165799e-05
1.3781985e-05
1.5688344e-05
1.7956148e-05
2.0675313e-05
2.3958886e-05
2.7948634e-05
3.2822148e-05
3.8801932e-05
4.6167133e-05
5.5664989e-05
6.7030322e-05
8.11425e-05
9.869965e-05
0.0001205704
0.00014782655
0.00018176782
0.00022393146
0.00027608203
0.00034020495
0.00042237226
0.00051792948
0.00063247247
0.00076723322
0.00092010912
0.0010149511
0.0010150845
0.0010152362
0.0010153813
0.001015501
0.0010155831
0.0010156457
0.0010157372
0.0010159714
0.0010164466
0.0010171449
0.0010179384
0.0010185119
0.0010181489
0.0010161651
0.0010126009
0.0010083155
0.0010045203
0.0010018288
0.0010003457
0.0009998871
0.00099991782
0.00099995115
0.00099998433
1.0905879e-07
5.9677305e-07
6.255049e-07
4.5978847e-07
5.0166773e-07
5.469678e-07
6.2462086e-07
7.1581357e-07
8.2187464e-07
9.4219965e-07
1.0779008e-06
1.2300796e-06
1.4001132e-06
1.5895448e-06
1.800126e-06
2.033834e-06
2.2929e-06
2.5798138e-06
2.8974567e-06
3.2490297e-06
3.6381931e-06
4.0691484e-06
4.546783e-06
5.0768794e-06
5.6664181e-06
6.3239897e-06
7.0603363e-06
7.8890481e-06
8.8343553e-06
9.907796e-06
1.1142475e-05
1.2574891e-05
1.425158e-05
1.6231785e-05
1.8590632e-05
2.142307e-05
2.4848723e-05
2.9018029e-05
3.4120119e-05
4.0392908e-05
4.8136057e-05
5.7727378e-05
6.9643475e-05
8.4487343e-05
0.0001030189
0.00012619323
0.00015519764
0.00019315599
0.00023872201
0.00029518189
0.00036460726
0.00044933452
0.00055202172
0.00067539583
0.00082064717
0.00098409336
0.0010150643
0.0010151878
0.0010153206
0.0010154449
0.0010155417
0.0010156059
0.0010157025
0.001015846
0.0010161375
0.001016717
0.0010174933
0.0010181865